mobley_9281946_GMX.gro created by acpype (v: 2023.10.27) on Wed May 20 23:53:04 2026
13169
    1MOL     C1    1   2.315   2.492   2.332
    1MOL     C2    2   2.280   2.731   2.356
    1MOL     C3    3   2.408   2.495   2.436
    1MOL     C4    4   2.373   2.733   2.460
    1MOL     C5    5   2.251   2.610   2.292
    1MOL     C6    6   2.437   2.615   2.500
    1MOL     C7    7   2.787   2.767   2.909
    1MOL     C8    8   2.878   2.319   2.485
    1MOL     C9    9   2.669   2.681   2.867
    1MOL    C10   10   2.790   2.348   2.605
    1MOL     N1   11   2.153   2.607   2.183
    1MOL     O1   12   2.130   2.498   2.129
    1MOL     O2   13   2.099   2.714   2.151
    1MOL     O3   14   2.527   2.629   2.603
    1MOL     O4   15   2.712   2.592   2.766
    1MOL     O5   16   2.692   2.443   2.567
    1MOL     P1   17   2.600   2.509   2.682
    1MOL     S1   18   2.489   2.389   2.786
    1MOL     H1   19   2.293   2.397   2.283
    1MOL     H2   20   2.231   2.824   2.327
    1MOL     H3   21   2.457   2.402   2.463
    1MOL     H4   22   2.396   2.827   2.510
    1MOL     H5   23   2.868   2.704   2.947
    1MOL     H6   24   2.826   2.823   2.824
    1MOL     H7   25   2.757   2.837   2.988
    1MOL     H8   26   2.818   2.281   2.401
    1MOL     H9   27   2.927   2.410   2.450
    1MOL    H10   28   2.955   2.245   2.510
    1MOL    H11   29   2.588   2.745   2.829
    1MOL    H12   30   2.632   2.624   2.953
    1MOL    H13   31   2.851   2.387   2.687
    1MOL    H14   32   2.741   2.256   2.638
    2SOL     OW   33   0.230   0.628   0.113
    2SOL    HW1   34   0.137   0.626   0.150
    2SOL    HW2   35   0.231   0.589   0.021
    3SOL     OW   36   0.225   0.275   0.996
    3SOL    HW1   37   0.260   0.258   1.088
    3SOL    HW2   38   0.137   0.230   0.984
    4SOL     OW   39   0.019   0.368   0.647
    4SOL    HW1   40  -0.063   0.411   0.686
    4SOL    HW2   41  -0.009   0.295   0.584
    5SOL     OW   42   0.569   1.275   1.165
    5SOL    HW1   43   0.476   1.268   1.128
    5SOL    HW2   44   0.580   1.364   1.209
    6SOL     OW   45   1.555   1.511   0.703
    6SOL    HW1   46   1.498   1.495   0.784
    6SOL    HW2   47   1.496   1.521   0.623
    7SOL     OW   48   1.135   0.703   0.717
    7SOL    HW1   49   1.192   0.781   0.692
    7SOL    HW2   50   1.075   0.729   0.793
    8SOL     OW   51   1.755   0.607   0.231
    8SOL    HW1   52   1.743   0.594   0.132
    8SOL    HW2   53   1.725   0.526   0.280
    9SOL     OW   54   0.768   1.144   1.023
    9SOL    HW1   55   0.690   1.161   1.083
    9SOL    HW2   56   0.802   1.231   0.987
   10SOL     OW   57   0.850   0.798   1.823
   10SOL    HW1   58   0.846   0.874   1.888
   10SOL    HW2   59   0.872   0.834   1.732
   11SOL     OW   60   0.685   1.012   0.665
   11SOL    HW1   61   0.754   0.996   0.735
   11SOL    HW2   62   0.612   1.069   0.703
   12SOL     OW   63   0.686   1.161   1.803
   12SOL    HW1   64   0.746   1.240   1.817
   12SOL    HW2   65   0.600   1.192   1.762
   13SOL     OW   66   0.335   1.435   1.061
   13SOL    HW1   67   0.257   1.404   1.008
   13SOL    HW2   68   0.393   1.493   1.004
   14SOL     OW   69   1.460   1.505   1.339
   14SOL    HW1   70   1.484   1.599   1.365
   14SOL    HW2   71   1.444   1.451   1.421
   15SOL     OW   72   0.438   0.392   1.499
   15SOL    HW1   73   0.520   0.336   1.508
   15SOL    HW2   74   0.357   0.334   1.503
   16SOL     OW   75   1.603   0.447   0.737
   16SOL    HW1   76   1.529   0.493   0.687
   16SOL    HW2   77   1.654   0.515   0.790
   17SOL     OW   78   0.231   1.713   0.483
   17SOL    HW1   79   0.265   1.790   0.537
   17SOL    HW2   80   0.275   1.713   0.393
   18SOL     OW   81   1.127   1.341   1.690
   18SOL    HW1   82   1.174   1.341   1.778
   18SOL    HW2   83   1.079   1.254   1.679
   19SOL     OW   84   0.230   1.434   0.538
   19SOL    HW1   85   0.204   1.530   0.538
   19SOL    HW2   86   0.159   1.380   0.583
   20SOL     OW   87   0.240   1.091   0.886
   20SOL    HW1   88   0.254   1.007   0.938
   20SOL    HW2   89   0.185   1.155   0.941
   21SOL     OW   90   0.620   1.786   1.439
   21SOL    HW1   91   0.528   1.769   1.474
   21SOL    HW2   92   0.648   1.878   1.465
   22SOL     OW   93   0.606   0.964   0.123
   22SOL    HW1   94   0.613   1.048   0.069
   22SOL    HW2   95   0.652   0.977   0.211
   23SOL     OW   96   1.594   0.114   1.480
   23SOL    HW1   97   1.576   0.181   1.408
   23SOL    HW2   98   1.591   0.160   1.569
   24SOL     OW   99   0.122   0.643   0.563
   24SOL    HW1  100   0.077   0.555   0.580
   24SOL    HW2  101   0.121   0.697   0.647
   25SOL     OW  102   1.842   1.767   0.359
   25SOL    HW1  103   1.896   1.738   0.439
   25SOL    HW2  104   1.872   1.857   0.330
   26SOL     OW  105   0.027   1.596   0.117
   26SOL    HW1  106   0.008   1.500   0.138
   26SOL    HW2  107  -0.006   1.654   0.192
   27SOL     OW  108   1.689   0.922   0.612
   27SOL    HW1  109   1.784   0.893   0.620
   27SOL    HW2  110   1.681   0.987   0.537
   28SOL     OW  111   1.641   1.108   0.432
   28SOL    HW1  112   1.727   1.110   0.380
   28SOL    HW2  113   1.655   1.155   0.520
   29SOL     OW  114   0.113   0.737   1.597
   29SOL    HW1  115   0.201   0.724   1.642
   29SOL    HW2  116   0.100   0.834   1.575
   30SOL     OW  117   0.613   1.365   0.726
   30SOL    HW1  118   0.564   1.278   0.735
   30SOL    HW2  119   0.590   1.408   0.639
   31SOL     OW  120   1.293   1.228   1.423
   31SOL    HW1  121   1.330   1.155   1.365
   31SOL    HW2  122   1.345   1.233   1.508
   32SOL     OW  123   0.809   0.004   0.502
   32SOL    HW1  124   0.849   0.095   0.493
   32SOL    HW2  125   0.709   0.012   0.508
   33SOL     OW  126   0.197   0.976   1.264
   33SOL    HW1  127   0.286   0.931   1.250
   33SOL    HW2  128   0.124   0.911   1.245
   34SOL     OW  129   1.525   0.999   0.190
   34SOL    HW1  130   1.462   0.923   0.203
   34SOL    HW2  131   1.573   1.017   0.276
   35SOL     OW  132   1.187   1.792   1.616
   35SOL    HW1  133   1.211   1.852   1.540
   35SOL    HW2  134   1.194   1.697   1.586
   36SOL     OW  135   0.317   0.251   1.801
   36SOL    HW1  136   0.388   0.322   1.807
   36SOL    HW2  137   0.229   0.290   1.829
   37SOL     OW  138   1.466   1.417   0.953
   37SOL    HW1  139   1.407   1.423   1.033
   37SOL    HW2  140   1.451   1.329   0.907
   38SOL     OW  141   1.667   1.714   0.572
   38SOL    HW1  142   1.626   1.691   0.484
   38SOL    HW2  143   1.649   1.640   0.637
   39SOL     OW  144   0.598   0.729   0.270
   39SOL    HW1  145   0.622   0.798   0.202
   39SOL    HW2  146   0.520   0.762   0.324
   40SOL     OW  147   1.281   0.345   0.944
   40SOL    HW1  148   1.195   0.295   0.931
   40SOL    HW2  149   1.343   0.291   1.000
   41SOL     OW  150   1.576   1.662   0.307
   41SOL    HW1  151   1.665   1.708   0.310
   41SOL    HW2  152   1.555   1.638   0.212
   42SOL     OW  153   0.807   0.605   1.465
   42SOL    HW1  154   0.760   0.602   1.554
   42SOL    HW2  155   0.756   0.550   1.399
   43SOL     OW  156   1.394   0.469   1.674
   43SOL    HW1  157   1.374   0.512   1.762
   43SOL    HW2  158   1.472   0.407   1.683
   44SOL     OW  159   0.973   0.890   1.572
   44SOL    HW1  160   1.019   0.806   1.543
   44SOL    HW2  161   0.917   0.924   1.497
   45SOL     OW  162   0.991   0.410   1.242
   45SOL    HW1  163   0.914   0.444   1.296
   45SOL    HW2  164   0.957   0.359   1.163
   46SOL     OW  165   1.041   0.701   0.429
   46SOL    HW1  166   1.067   0.697   0.525
   46SOL    HW2  167   0.956   0.650   0.415
   47SOL     OW  168   0.076   0.811   0.789
   47SOL    HW1  169   0.175   0.799   0.798
   47SOL    HW2  170   0.052   0.906   0.810
   48SOL     OW  171   0.130   1.821   1.571
   48SOL    HW1  172   0.120   1.806   1.670
   48SOL    HW2  173   0.044   1.857   1.535
   49SOL     OW  174   0.865   0.348   0.195
   49SOL    HW1  175   0.924   0.411   0.146
   49SOL    HW2  176   0.884   0.254   0.166
   50SOL     OW  177   1.719   0.585   1.831
   50SOL    HW1  178   1.693   0.674   1.795
   50SOL    HW2  179   1.717   0.517   1.758
   51SOL     OW  180   1.362   1.144   0.545
   51SOL    HW1  181   1.445   1.115   0.497
   51SOL    HW2  182   1.313   1.211   0.489
   52SOL     OW  183   0.550   0.196   0.885
   52SOL    HW1  184   0.545   0.191   0.985
   52SOL    HW2  185   0.552   0.292   0.856
   53SOL     OW  186   1.008   1.456   0.477
   53SOL    HW1  187   0.962   1.528   0.425
   53SOL    HW2  188   1.004   1.476   0.575
   54SOL     OW  189   0.351   1.801   0.853
   54SOL    HW1  190   0.401   1.715   0.859
   54SOL    HW2  191   0.416   1.878   0.850
   55SOL     OW  192   1.795   1.066   0.873
   55SOL    HW1  193   1.733   1.051   0.797
   55SOL    HW2  194   1.743   1.077   0.958
   56SOL     OW  195   1.227   1.550   1.506
   56SOL    HW1  196   1.233   1.473   1.570
   56SOL    HW2  197   1.175   1.524   1.426
   57SOL     OW  198   0.321   0.943   0.242
   57SOL    HW1  199   0.403   0.982   0.200
   57SOL    HW2  200   0.294   0.861   0.193
   58SOL     OW  201   1.458   0.735   0.728
   58SOL    HW1  202   1.453   0.670   0.803
   58SOL    HW2  203   1.538   0.794   0.741
   59SOL     OW  204   0.461   1.266   1.727
   59SOL    HW1  205   0.411   1.267   1.641
   59SOL    HW2  206   0.398   1.248   1.803
   60SOL     OW  207   1.111   1.776   0.237
   60SOL    HW1  208   1.051   1.714   0.287
   60SOL    HW2  209   1.142   1.732   0.152
   61SOL     OW  210   0.202   0.285   1.498
   61SOL    HW1  211   0.122   0.345   1.485
   61SOL    HW2  212   0.192   0.236   1.584
   62SOL     OW  213   1.632   1.377   0.081
   62SOL    HW1  214   1.600   1.471   0.071
   62SOL    HW2  215   1.556   1.314   0.069
   63SOL     OW  216   0.464   1.743   0.323
   63SOL    HW1  217   0.497   1.782   0.409
   63SOL    HW2  218   0.540   1.736   0.258
   64SOL     OW  219   1.400   0.107   0.426
   64SOL    HW1  220   1.376   0.070   0.336
   64SOL    HW2  221   1.499   0.123   0.430
   65SOL     OW  222   0.249   1.785   1.241
   65SOL    HW1  223   0.306   1.720   1.291
   65SOL    HW2  224   0.233   1.752   1.148
   66SOL     OW  225   0.940   1.698   0.904
   66SOL    HW1  226   1.020   1.641   0.925
   66SOL    HW2  227   0.891   1.658   0.827
   67SOL     OW  228   0.382   0.700   0.480
   67SOL    HW1  229   0.427   0.610   0.477
   67SOL    HW2  230   0.288   0.689   0.513
   68SOL     OW  231   1.547   0.222   1.729
   68SOL    HW1  232   1.542   0.259   1.821
   68SOL    HW2  233   1.475   0.153   1.717
   69SOL     OW  234   0.614   0.122   0.117
   69SOL    HW1  235   0.712   0.100   0.124
   69SOL    HW2  236   0.583   0.105   0.024
   70SOL     OW  237   0.781   0.264   1.749
   70SOL    HW1  238   0.848   0.203   1.792
   70SOL    HW2  239   0.708   0.283   1.814
   71SOL     OW  240   0.888   1.514   1.195
   71SOL    HW1  241   0.865   1.489   1.101
   71SOL    HW2  242   0.949   1.445   1.234
   72SOL     OW  243   1.351   0.590   1.433
   72SOL    HW1  244   1.379   0.547   1.518
   72SOL    HW2  245   1.376   0.686   1.434
   73SOL     OW  246   0.803   1.402   0.924
   73SOL    HW1  247   0.893   1.416   0.882
   73SOL    HW2  248   0.732   1.404   0.853
   74SOL     OW  249   0.922   0.503   0.899
   74SOL    HW1  250   0.897   0.494   0.803
   74SOL    HW2  251   0.970   0.421   0.930
   75SOL     OW  252   0.539   0.064   0.512
   75SOL    HW1  253   0.458   0.065   0.570
   75SOL    HW2  254   0.542   0.147   0.457
   76SOL     OW  255   1.434   1.188   0.041
   76SOL    HW1  256   1.466   1.112   0.098
   76SOL    HW2  257   1.342   1.215   0.071
   77SOL     OW  258   0.297   0.035   0.171
   77SOL    HW1  259   0.346   0.119   0.150
   77SOL    HW2  260   0.359  -0.030   0.216
   78SOL     OW  261   0.935   0.236   0.480
   78SOL    HW1  262   0.887   0.277   0.402
   78SOL    HW2  263   1.034   0.234   0.461
   79SOL     OW  264   1.076   0.683   1.464
   79SOL    HW1  265   0.996   0.622   1.467
   79SOL    HW2  266   1.157   0.630   1.440
   80SOL     OW  267   1.227   1.570   0.793
   80SOL    HW1  268   1.248   1.644   0.728
   80SOL    HW2  269   1.295   1.570   0.866
   81SOL     OW  270   0.459   1.152   0.741
   81SOL    HW1  271   0.388   1.125   0.806
   81SOL    HW2  272   0.433   1.124   0.648
   82SOL     OW  273   1.271   1.797   0.591
   82SOL    HW1  274   1.315   1.861   0.527
   82SOL    HW2  275   1.221   1.849   0.661
   83SOL     OW  276   1.032   0.549   0.016
   83SOL    HW1  277   0.991   0.631  -0.023
   83SOL    HW2  278   1.096   0.575   0.089
   84SOL     OW  279   0.078   0.556   1.386
   84SOL    HW1  280   0.170   0.555   1.345
   84SOL    HW2  281   0.072   0.630   1.453
   85SOL     OW  282   0.561   0.222   1.147
   85SOL    HW1  283   0.599   0.138   1.184
   85SOL    HW2  284   0.473   0.241   1.191
   86SOL     OW  285   0.866   0.454   0.642
   86SOL    HW1  286   0.834   0.526   0.580
   86SOL    HW2  287   0.890   0.373   0.589
   87SOL     OW  288   1.017   0.039   0.753
   87SOL    HW1  289   0.945   0.044   0.684
   87SOL    HW2  290   0.993  -0.030   0.822
   88SOL     OW  291   1.429   1.173   0.867
   88SOL    HW1  292   1.374   1.089   0.860
   88SOL    HW2  293   1.455   1.202   0.775
   89SOL     OW  294   1.466   0.590   0.992
   89SOL    HW1  295   1.436   0.495   0.999
   89SOL    HW2  296   1.539   0.606   1.058
   90SOL     OW  297   1.857   0.833   0.377
   90SOL    HW1  298   1.899   0.769   0.441
   90SOL    HW2  299   1.819   0.782   0.299
   91SOL     OW  300   0.488   1.385   0.174
   91SOL    HW1  301   0.401   1.370   0.221
   91SOL    HW2  302   0.471   1.411   0.079
   92SOL     OW  303   1.664   1.280   0.657
   92SOL    HW1  304   1.763   1.288   0.671
   92SOL    HW2  305   1.619   1.364   0.688
   93SOL     OW  306   1.390   0.575   0.078
   93SOL    HW1  307   1.336   0.554   0.159
   93SOL    HW2  308   1.481   0.534   0.087
   94SOL     OW  309   0.527   0.256   0.328
   94SOL    HW1  310   0.554   0.197   0.253
   94SOL    HW2  311   0.527   0.351   0.297
   95SOL     OW  312   1.754   1.223   1.588
   95SOL    HW1  313   1.845   1.184   1.575
   95SOL    HW2  314   1.762   1.319   1.612
   96SOL     OW  315   1.064   1.347   1.340
   96SOL    HW1  316   0.984   1.324   1.395
   96SOL    HW2  317   1.147   1.321   1.389
   97SOL     OW  318   1.592   1.629   1.625
   97SOL    HW1  319   1.619   1.663   1.535
   97SOL    HW2  320   1.671   1.591   1.671
   98SOL     OW  321   1.111   1.195   1.100
   98SOL    HW1  322   1.071   1.239   1.181
   98SOL    HW2  323   1.070   1.232   1.017
   99SOL     OW  324   1.638   1.099   1.079
   99SOL    HW1  325   1.643   1.180   1.138
   99SOL    HW2  326   1.552   1.101   1.028
  100SOL     OW  327   0.915   0.089   1.402
  100SOL    HW1  328   0.940   0.069   1.307
  100SOL    HW2  329   0.987   0.145   1.444
  101SOL     OW  330   0.980   1.116   1.719
  101SOL    HW1  331   0.881   1.122   1.729
  101SOL    HW2  332   1.003   1.036   1.663
  102SOL     OW  333   0.705   1.050   0.368
  102SOL    HW1  334   0.691   1.057   0.467
  102SOL    HW2  335   0.789   0.999   0.350
  103SOL     OW  336   0.410   0.813   1.251
  103SOL    HW1  337   0.496   0.825   1.301
  103SOL    HW2  338   0.368   0.726   1.278
  104SOL     OW  339   1.274   0.386   1.262
  104SOL    HW1  340   1.295   0.460   1.326
  104SOL    HW2  341   1.185   0.403   1.219
  105SOL     OW  342   0.064   1.564   1.331
  105SOL    HW1  343   0.018   1.646   1.297
  105SOL    HW2  344   0.162   1.583   1.340
  106SOL     OW  345   0.367   1.100   0.501
  106SOL    HW1  346   0.360   1.183   0.445
  106SOL    HW2  347   0.371   1.020   0.441
  107SOL     OW  348   0.566   0.537   0.865
  107SOL    HW1  349   0.578   0.603   0.791
  107SOL    HW2  350   0.612   0.571   0.948
  108SOL     OW  351   1.252   1.348   0.388
  108SOL    HW1  352   1.302   1.425   0.428
  108SOL    HW2  353   1.157   1.350   0.420
  109SOL     OW  354   1.272   1.445   1.142
  109SOL    HW1  355   1.319   1.458   1.229
  109SOL    HW2  356   1.206   1.371   1.151
  110SOL     OW  357   1.582   0.639   0.472
  110SOL    HW1  358   1.551   0.700   0.545
  110SOL    HW2  359   1.632   0.691   0.403
  111SOL     OW  360   0.354   1.510   1.329
  111SOL    HW1  361   0.333   1.466   1.242
  111SOL    HW2  362   0.451   1.536   1.332
  112SOL     OW  363   0.402   0.751   1.598
  112SOL    HW1  364   0.470   0.806   1.551
  112SOL    HW2  365   0.442   0.663   1.625
  113SOL     OW  366   1.587   0.779   1.670
  113SOL    HW1  367   1.495   0.817   1.665
  113SOL    HW2  368   1.647   0.826   1.605
  114SOL     OW  369   1.013   0.105   1.770
  114SOL    HW1  370   1.019   0.190   1.718
  114SOL    HW2  371   1.045   0.029   1.713
  115SOL     OW  372   0.504   0.050   1.740
  115SOL    HW1  373   0.462  -0.007   1.670
  115SOL    HW2  374   0.438   0.119   1.772
  116SOL     OW  375   0.573   0.870   1.029
  116SOL    HW1  376   0.617   0.959   1.020
  116SOL    HW2  377   0.510   0.870   1.106
  117SOL     OW  378   1.360   0.862   1.045
  117SOL    HW1  379   1.285   0.862   0.979
  117SOL    HW2  380   1.397   0.770   1.054
  118SOL     OW  381   1.209   0.525   0.275
  118SOL    HW1  382   1.222   0.441   0.329
  118SOL    HW2  383   1.180   0.599   0.335
  119SOL     OW  384   0.307   0.213   1.231
  119SOL    HW1  385   0.284   0.250   1.321
  119SOL    HW2  386   0.277   0.118   1.225
  120SOL     OW  387   0.037   1.310   1.282
  120SOL    HW1  388   0.090   1.261   1.350
  120SOL    HW2  389   0.059   1.408   1.287
  121SOL     OW  390   0.732   0.634   1.064
  121SOL    HW1  391   0.791   0.608   0.988
  121SOL    HW2  392   0.704   0.730   1.053
  122SOL     OW  393   1.728   0.935   1.854
  122SOL    HW1  394   1.682   0.928   1.765
  122SOL    HW2  395   1.666   0.979   1.920
  123SOL     OW  396   0.307   0.063   0.618
  123SOL    HW1  397   0.296   0.157   0.651
  123SOL    HW2  398   0.302   0.000   0.695
  124SOL     OW  399   1.622   0.367   0.374
  124SOL    HW1  400   1.624   0.291   0.438
  124SOL    HW2  401   1.574   0.444   0.414
  125SOL     OW  402   1.023   0.766   0.966
  125SOL    HW1  403   1.038   0.787   1.062
  125SOL    HW2  404   0.993   0.671   0.957
  126SOL     OW  405   0.980   1.573   1.700
  126SOL    HW1  406   0.960   1.617   1.612
  126SOL    HW2  407   1.019   1.482   1.684
  127SOL     OW  408   1.859   1.518   1.605
  127SOL    HW1  409   1.873   1.545   1.510
  127SOL    HW2  410   1.942   1.540   1.658
  128SOL     OW  411   0.350   0.898   1.804
  128SOL    HW1  412   0.426   0.942   1.852
  128SOL    HW2  413   0.385   0.851   1.722
  129SOL     OW  414   1.540   0.274   0.125
  129SOL    HW1  415   1.479   0.199   0.148
  129SOL    HW2  416   1.562   0.326   0.208
  130SOL     OW  417   1.303   0.838   0.042
  130SOL    HW1  418   1.337   0.745   0.057
  130SOL    HW2  419   1.321   0.865  -0.053
  131SOL     OW  420   1.068   1.333   0.849
  131SOL    HW1  421   1.075   1.249   0.794
  131SOL    HW2  422   1.130   1.402   0.813
  132SOL     OW  423   0.319   0.810   0.949
  132SOL    HW1  424   0.412   0.846   0.954
  132SOL    HW2  425   0.313   0.725   1.001
  133SOL     OW  426   0.339   0.509   1.006
  133SOL    HW1  427   0.287   0.426   0.989
  133SOL    HW2  428   0.416   0.514   0.942
  134SOL     OW  429   1.138   0.380   1.678
  134SOL    HW1  430   1.093   0.443   1.742
  134SOL    HW2  431   1.231   0.411   1.661
  135SOL     OW  432   1.160   0.207   1.477
  135SOL    HW1  433   1.160   0.271   1.554
  135SOL    HW2  434   1.188   0.255   1.394
  136SOL     OW  435   0.008   1.326   0.200
  136SOL    HW1  436  -0.085   1.347   0.169
  136SOL    HW2  437   0.018   1.227   0.213
  137SOL     OW  438   0.088   1.801   0.927
  137SOL    HW1  439   0.046   1.715   0.900
  137SOL    HW2  440   0.182   1.804   0.893
  138SOL     OW  441   0.504   1.568   0.910
  138SOL    HW1  442   0.570   1.642   0.919
  138SOL    HW2  443   0.548   1.489   0.868
  139SOL     OW  444   1.002   0.796   1.238
  139SOL    HW1  445   1.043   0.764   1.324
  139SOL    HW2  446   0.906   0.769   1.235
  140SOL     OW  447   0.040   0.544   1.114
  140SOL    HW1  448   0.125   0.511   1.073
  140SOL    HW2  449   0.053   0.559   1.212
  141SOL     OW  450   0.189   0.520   1.722
  141SOL    HW1  451   0.248   0.480   1.652
  141SOL    HW2  452   0.131   0.591   1.681
  142SOL     OW  453   1.369   0.950   1.660
  142SOL    HW1  454   1.408   1.039   1.680
  142SOL    HW2  455   1.379   0.930   1.563
  143SOL     OW  456   0.815   0.572   0.325
  143SOL    HW1  457   0.822   0.483   0.279
  143SOL    HW2  458   0.721   0.606   0.317
  144SOL     OW  459   1.657   0.604   1.206
  144SOL    HW1  460   1.619   0.535   1.268
  144SOL    HW2  461   1.739   0.568   1.162
  145SOL     OW  462   0.252   1.564   1.744
  145SOL    HW1  463   0.222   1.621   1.820
  145SOL    HW2  464   0.245   1.467   1.770
  146SOL     OW  465   0.671   0.464   1.269
  146SOL    HW1  466   0.637   0.375   1.239
  146SOL    HW2  467   0.697   0.518   1.189
  147SOL     OW  468   0.930   1.678   1.465
  147SOL    HW1  469   0.906   1.660   1.370
  147SOL    HW2  470   0.960   1.772   1.475
  148SOL     OW  471   0.473   0.500   0.191
  148SOL    HW1  472   0.534   0.580   0.195
  148SOL    HW2  473   0.378   0.531   0.198
  149SOL     OW  474   0.159   1.137   1.466
  149SOL    HW1  475   0.181   1.076   1.542
  149SOL    HW2  476   0.169   1.088   1.380
  150SOL     OW  477   1.347   1.059   1.234
  150SOL    HW1  478   1.371   0.996   1.160
  150SOL    HW2  479   1.257   1.099   1.216
  151SOL     OW  480   1.302   0.855   0.309
  151SOL    HW1  481   1.216   0.824   0.351
  151SOL    HW2  482   1.298   0.841   0.210
  152SOL     OW  483   1.759   1.747   1.154
  152SOL    HW1  484   1.820   1.777   1.081
  152SOL    HW2  485   1.721   1.658   1.132
  153SOL     OW  486   1.252   1.731   1.128
  153SOL    HW1  487   1.336   1.736   1.074
  153SOL    HW2  488   1.229   1.635   1.146
  154SOL     OW  489   0.083   1.258   1.022
  154SOL    HW1  490   0.078   1.257   1.122
  154SOL    HW2  491   0.000   1.217   0.984
  155SOL     OW  492   0.688   1.662   1.716
  155SOL    HW1  493   0.632   1.743   1.725
  155SOL    HW2  494   0.740   1.666   1.630
  156SOL     OW  495   0.903   0.086   0.133
  156SOL    HW1  496   0.954   0.087   0.047
  156SOL    HW2  497   0.959   0.044   0.204
  157SOL     OW  498   1.726   0.135   0.523
  157SOL    HW1  499   1.799   0.118   0.456
  157SOL    HW2  500   1.695   0.048   0.561
  158SOL     OW  501   1.388   1.573   0.477
  158SOL    HW1  502   1.455   1.585   0.403
  158SOL    HW2  503   1.348   1.662   0.500
  159SOL     OW  504   0.130   1.794   1.851
  159SOL    HW1  505   0.089   1.720   1.904
  159SOL    HW2  506   0.194   1.845   1.909
  160SOL     OW  507   1.280   0.927   0.672
  160SOL    HW1  508   1.340   0.846   0.674
  160SOL    HW2  509   1.320   0.996   0.612
  161SOL     OW  510   0.830   1.273   1.422
  161SOL    HW1  511   0.825   1.306   1.517
  161SOL    HW2  512   0.744   1.292   1.376
  162SOL     OW  513   0.672   1.616   0.154
  162SOL    HW1  514   0.681   1.626   0.055
  162SOL    HW2  515   0.632   1.527   0.175
  163SOL     OW  516   1.650   1.720   1.394
  163SOL    HW1  517   1.703   1.730   1.310
  163SOL    HW2  518   1.623   1.810   1.428
  164SOL     OW  519   1.841   0.175   0.963
  164SOL    HW1  520   1.880   0.090   0.927
  164SOL    HW2  521   1.743   0.177   0.944
  165SOL     OW  522   0.263   0.326   0.720
  165SOL    HW1  523   0.184   0.377   0.686
  165SOL    HW2  524   0.254   0.311   0.818
  166SOL     OW  525   1.194   1.612   0.031
  166SOL    HW1  526   1.200   1.519   0.068
  166SOL    HW2  527   1.135   1.612  -0.049
  167SOL     OW  528   0.822   1.002   1.372
  167SOL    HW1  529   0.862   1.001   1.280
  167SOL    HW2  530   0.832   1.094   1.412
  168SOL     OW  531   0.916   0.910   0.291
  168SOL    HW1  532   0.979   0.948   0.223
  168SOL    HW2  533   0.956   0.827   0.330
  169SOL     OW  534   1.504   1.607   0.044
  169SOL    HW1  535   1.412   1.644   0.051
  169SOL    HW2  536   1.542   1.627  -0.046
  170SOL     OW  537   0.372   1.288   1.490
  170SOL    HW1  538   0.359   1.381   1.456
  170SOL    HW2  539   0.288   1.236   1.477
  171SOL     OW  540   1.614   1.292   1.289
  171SOL    HW1  541   1.674   1.295   1.369
  171SOL    HW2  542   1.539   1.356   1.302
  172SOL     OW  543   1.039   1.098   0.696
  172SOL    HW1  544   0.969   1.051   0.750
  172SOL    HW2  545   1.098   1.030   0.653
  173SOL     OW  546   1.014   0.236   0.971
  173SOL    HW1  547   1.006   0.200   0.878
  173SOL    HW2  548   1.012   0.160   1.036
  174SOL     OW  549   0.590   1.487   0.491
  174SOL    HW1  550   0.632   1.429   0.421
  174SOL    HW2  551   0.546   1.566   0.447
  175SOL     OW  552   1.709   0.385   1.381
  175SOL    HW1  553   1.782   0.454   1.385
  175SOL    HW2  554   1.737   0.310   1.322
  176SOL     OW  555   0.255   1.348   0.290
  176SOL    HW1  556   0.159   1.349   0.263
  176SOL    HW2  557   0.267   1.401   0.374
  177SOL     OW  558   0.105   1.013   1.726
  177SOL    HW1  559   0.028   0.980   1.780
  177SOL    HW2  560   0.190   0.983   1.768
  178SOL     OW  561   0.672   0.203   1.489
  178SOL    HW1  562   0.762   0.187   1.449
  178SOL    HW2  563   0.680   0.208   1.588
  179SOL     OW  564   0.075   0.345   0.033
  179SOL    HW1  565  -0.017   0.317   0.004
  179SOL    HW2  566   0.106   0.422  -0.023
  180SOL     OW  567   1.440   0.856   1.398
  180SOL    HW1  568   1.383   0.908   1.335
  180SOL    HW2  569   1.536   0.868   1.374
  181SOL     OW  570   0.072   0.166   0.318
  181SOL    HW1  571   0.055   0.249   0.264
  181SOL    HW2  572   0.162   0.129   0.296
  182SOL     OW  573   1.183   1.335   0.119
  182SOL    HW1  574   1.084   1.324   0.121
  182SOL    HW2  575   1.217   1.350   0.212
  183SOL     OW  576   0.613   0.842   1.431
  183SOL    HW1  577   0.669   0.923   1.414
  183SOL    HW2  578   0.672   0.762   1.434
  184SOL     OW  579   1.493   1.767   0.959
  184SOL    HW1  580   1.526   1.831   0.890
  184SOL    HW2  581   1.559   1.761   1.034
  185SOL     OW  582   0.716   0.565   1.708
  185SOL    HW1  583   0.735   0.630   1.782
  185SOL    HW2  584   0.776   0.485   1.717
  186SOL     OW  585   1.450   1.220   1.633
  186SOL    HW1  586   1.441   1.210   1.732
  186SOL    HW2  587   1.546   1.213   1.607
  187SOL     OW  588   0.390   1.741   1.560
  187SOL    HW1  589   0.299   1.782   1.558
  187SOL    HW2  590   0.383   1.647   1.592
  188SOL     OW  591   1.674   0.883   1.254
  188SOL    HW1  592   1.647   0.794   1.217
  188SOL    HW2  593   1.675   0.951   1.181
  189SOL     OW  594   1.225   0.325   0.449
  189SOL    HW1  595   1.290   0.251   0.438
  189SOL    HW2  596   1.245   0.375   0.533
  190SOL     OW  597   0.594   0.745   0.652
  190SOL    HW1  598   0.644   0.830   0.633
  190SOL    HW2  599   0.506   0.747   0.604
  191SOL     OW  600   1.777   0.342   1.642
  191SOL    HW1  601   1.760   0.373   1.548
  191SOL    HW2  602   1.693   0.305   1.680
  192SOL     OW  603   1.730   0.934   1.517
  192SOL    HW1  604   1.768   1.025   1.532
  192SOL    HW2  605   1.722   0.917   1.418
  193SOL     OW  606   0.859   1.374   0.016
  193SOL    HW1  607   0.813   1.389   0.104
  193SOL    HW2  608   0.903   1.459  -0.014
  194SOL     OW  609   0.661   1.790   0.953
  194SOL    HW1  610   0.615   1.878   0.940
  194SOL    HW2  611   0.760   1.802   0.946
  195SOL     OW  612   0.859   0.956   0.861
  195SOL    HW1  613   0.913   0.887   0.909
  195SOL    HW2  614   0.827   1.025   0.927
  196SOL     OW  615   1.083   0.984   0.087
  196SOL    HW1  616   1.060   1.037   0.005
  196SOL    HW2  617   1.164   0.928   0.068
  197SOL     OW  618   1.861   1.569   0.851
  197SOL    HW1  619   1.790   1.557   0.781
  197SOL    HW2  620   1.862   1.490   0.911
  198SOL     OW  621   0.221   1.314   1.844
  198SOL    HW1  622   0.156   1.241   1.823
  198SOL    HW2  623   0.225   1.328   1.942
  199SOL     OW  624   0.079   1.240   0.653
  199SOL    HW1  625   0.078   1.193   0.741
  199SOL    HW2  626   0.161   1.212   0.602
  200SOL     OW  627   0.672   1.391   1.624
  200SOL    HW1  628   0.594   1.341   1.662
  200SOL    HW2  629   0.669   1.486   1.655
  201SOL     OW  630   1.824   0.192   1.227
  201SOL    HW1  631   1.820   0.102   1.271
  201SOL    HW2  632   1.827   0.181   1.128
  202SOL     OW  633   0.428   0.424   0.520
  202SOL    HW1  634   0.458   0.352   0.458
  202SOL    HW2  635   0.389   0.384   0.603
  203SOL     OW  636   1.705   1.487   1.104
  203SOL    HW1  637   1.612   1.462   1.077
  203SOL    HW2  638   1.731   1.437   1.186
  204SOL     OW  639   0.317   0.547   1.280
  204SOL    HW1  640   0.355   0.488   1.352
  204SOL    HW2  641   0.357   0.521   1.192
  205SOL     OW  642   0.812   1.586   0.687
  205SOL    HW1  643   0.844   1.596   0.593
  205SOL    HW2  644   0.733   1.524   0.689
  206SOL     OW  645   1.424   0.214   1.112
  206SOL    HW1  646   1.476   0.149   1.167
  206SOL    HW2  647   1.375   0.277   1.173
  207SOL     OW  648   1.001   0.034   1.154
  207SOL    HW1  649   0.938  -0.038   1.123
  207SOL    HW2  650   1.094  -0.002   1.154
  208SOL     OW  651   0.770   1.330   0.301
  208SOL    HW1  652   0.724   1.243   0.318
  208SOL    HW2  653   0.861   1.327   0.342
  209SOL     OW  654   0.618   1.567   1.284
  209SOL    HW1  655   0.613   1.649   1.341
  209SOL    HW2  656   0.707   1.564   1.239
  210SOL     OW  657   1.352   0.052   0.168
  210SOL    HW1  658   1.387   0.011   0.084
  210SOL    HW2  659   1.262   0.014   0.188
  211SOL     OW  660   1.300   0.453   0.691
  211SOL    HW1  661   1.241   0.533   0.695
  211SOL    HW2  662   1.315   0.418   0.784
  212SOL     OW  663   1.593   0.221   0.882
  212SOL    HW1  664   1.509   0.220   0.936
  212SOL    HW2  665   1.595   0.304   0.826
  213SOL     OW  666   0.039   1.077   0.300
  213SOL    HW1  667   0.138   1.066   0.291
  213SOL    HW2  668  -0.001   0.991   0.332
  214SOL     OW  669   0.875   1.646   0.337
  214SOL    HW1  670   0.798   1.611   0.283
  214SOL    HW2  671   0.843   1.717   0.399
  215SOL     OW  672   0.230   0.628   1.975
  215SOL    HW1  673   0.137   0.626   2.012
  215SOL    HW2  674   0.231   0.589   1.883
  216SOL     OW  675   0.225   0.275   2.858
  216SOL    HW1  676   0.260   0.258   2.950
  216SOL    HW2  677   0.137   0.230   2.846
  217SOL     OW  678   0.019   0.368   2.509
  217SOL    HW1  679  -0.063   0.411   2.548
  217SOL    HW2  680  -0.009   0.295   2.446
  218SOL     OW  681   0.569   1.275   3.027
  218SOL    HW1  682   0.476   1.268   2.990
  218SOL    HW2  683   0.580   1.364   3.071
  219SOL     OW  684   1.555   1.511   2.565
  219SOL    HW1  685   1.498   1.495   2.646
  219SOL    HW2  686   1.496   1.521   2.485
  220SOL     OW  687   1.135   0.703   2.579
  220SOL    HW1  688   1.192   0.781   2.554
  220SOL    HW2  689   1.075   0.729   2.655
  221SOL     OW  690   1.755   0.607   2.093
  221SOL    HW1  691   1.743   0.594   1.994
  221SOL    HW2  692   1.725   0.526   2.142
  222SOL     OW  693   0.768   1.144   2.885
  222SOL    HW1  694   0.690   1.161   2.945
  222SOL    HW2  695   0.802   1.231   2.849
  223SOL     OW  696   0.850   0.798   3.685
  223SOL    HW1  697   0.846   0.874   3.750
  223SOL    HW2  698   0.872   0.834   3.594
  224SOL     OW  699   0.685   1.012   2.527
  224SOL    HW1  700   0.754   0.996   2.597
  224SOL    HW2  701   0.612   1.069   2.565
  225SOL     OW  702   0.686   1.161   3.665
  225SOL    HW1  703   0.746   1.240   3.679
  225SOL    HW2  704   0.600   1.192   3.624
  226SOL     OW  705   0.335   1.435   2.923
  226SOL    HW1  706   0.257   1.404   2.870
  226SOL    HW2  707   0.393   1.493   2.866
  227SOL     OW  708   1.460   1.505   3.201
  227SOL    HW1  709   1.484   1.599   3.227
  227SOL    HW2  710   1.444   1.451   3.283
  228SOL     OW  711   0.438   0.392   3.361
  228SOL    HW1  712   0.520   0.336   3.370
  228SOL    HW2  713   0.357   0.334   3.365
  229SOL     OW  714   1.603   0.447   2.599
  229SOL    HW1  715   1.529   0.493   2.549
  229SOL    HW2  716   1.654   0.515   2.652
  230SOL     OW  717   0.231   1.713   2.345
  230SOL    HW1  718   0.265   1.790   2.399
  230SOL    HW2  719   0.275   1.713   2.255
  231SOL     OW  720   1.127   1.341   3.552
  231SOL    HW1  721   1.174   1.341   3.640
  231SOL    HW2  722   1.079   1.254   3.541
  232SOL     OW  723   0.230   1.434   2.400
  232SOL    HW1  724   0.204   1.530   2.400
  232SOL    HW2  725   0.159   1.380   2.445
  233SOL     OW  726   0.240   1.091   2.748
  233SOL    HW1  727   0.254   1.007   2.800
  233SOL    HW2  728   0.185   1.155   2.803
  234SOL     OW  729   0.620   1.786   3.301
  234SOL    HW1  730   0.528   1.769   3.336
  234SOL    HW2  731   0.648   1.878   3.327
  235SOL     OW  732   0.606   0.964   1.985
  235SOL    HW1  733   0.613   1.048   1.931
  235SOL    HW2  734   0.652   0.977   2.073
  236SOL     OW  735   1.594   0.114   3.342
  236SOL    HW1  736   1.576   0.181   3.270
  236SOL    HW2  737   1.591   0.160   3.431
  237SOL     OW  738   0.122   0.643   2.425
  237SOL    HW1  739   0.077   0.555   2.442
  237SOL    HW2  740   0.121   0.697   2.509
  238SOL     OW  741   1.842   1.767   2.221
  238SOL    HW1  742   1.896   1.738   2.301
  238SOL    HW2  743   1.872   1.857   2.192
  239SOL     OW  744   0.027   1.596   1.979
  239SOL    HW1  745   0.008   1.500   2.000
  239SOL    HW2  746  -0.006   1.654   2.054
  240SOL     OW  747   1.689   0.922   2.474
  240SOL    HW1  748   1.784   0.893   2.482
  240SOL    HW2  749   1.681   0.987   2.399
  241SOL     OW  750   1.641   1.108   2.294
  241SOL    HW1  751   1.727   1.110   2.242
  241SOL    HW2  752   1.655   1.155   2.382
  242SOL     OW  753   0.113   0.737   3.459
  242SOL    HW1  754   0.201   0.724   3.504
  242SOL    HW2  755   0.100   0.834   3.437
  243SOL     OW  756   0.613   1.365   2.588
  243SOL    HW1  757   0.564   1.278   2.597
  243SOL    HW2  758   0.590   1.408   2.501
  244SOL     OW  759   1.293   1.228   3.285
  244SOL    HW1  760   1.330   1.155   3.227
  244SOL    HW2  761   1.345   1.233   3.370
  245SOL     OW  762   0.809   0.004   2.364
  245SOL    HW1  763   0.849   0.095   2.355
  245SOL    HW2  764   0.709   0.012   2.370
  246SOL     OW  765   0.197   0.976   3.126
  246SOL    HW1  766   0.286   0.931   3.112
  246SOL    HW2  767   0.124   0.911   3.107
  247SOL     OW  768   1.525   0.999   2.052
  247SOL    HW1  769   1.462   0.923   2.065
  247SOL    HW2  770   1.573   1.017   2.138
  248SOL     OW  771   1.187   1.792   3.478
  248SOL    HW1  772   1.211   1.852   3.402
  248SOL    HW2  773   1.194   1.697   3.448
  249SOL     OW  774   0.317   0.251   3.663
  249SOL    HW1  775   0.388   0.322   3.669
  249SOL    HW2  776   0.229   0.290   3.691
  250SOL     OW  777   1.466   1.417   2.815
  250SOL    HW1  778   1.407   1.423   2.895
  250SOL    HW2  779   1.451   1.329   2.769
  251SOL     OW  780   1.667   1.714   2.434
  251SOL    HW1  781   1.626   1.691   2.346
  251SOL    HW2  782   1.649   1.640   2.499
  252SOL     OW  783   0.598   0.729   2.132
  252SOL    HW1  784   0.622   0.798   2.064
  252SOL    HW2  785   0.520   0.762   2.186
  253SOL     OW  786   1.281   0.345   2.806
  253SOL    HW1  787   1.195   0.295   2.793
  253SOL    HW2  788   1.343   0.291   2.862
  254SOL     OW  789   1.576   1.662   2.169
  254SOL    HW1  790   1.665   1.708   2.172
  254SOL    HW2  791   1.555   1.638   2.074
  255SOL     OW  792   0.807   0.605   3.327
  255SOL    HW1  793   0.760   0.602   3.416
  255SOL    HW2  794   0.756   0.550   3.261
  256SOL     OW  795   1.394   0.469   3.536
  256SOL    HW1  796   1.374   0.512   3.624
  256SOL    HW2  797   1.472   0.407   3.545
  257SOL     OW  798   0.973   0.890   3.434
  257SOL    HW1  799   1.019   0.806   3.405
  257SOL    HW2  800   0.917   0.924   3.359
  258SOL     OW  801   0.991   0.410   3.104
  258SOL    HW1  802   0.914   0.444   3.158
  258SOL    HW2  803   0.957   0.359   3.025
  259SOL     OW  804   1.041   0.701   2.291
  259SOL    HW1  805   1.067   0.697   2.387
  259SOL    HW2  806   0.956   0.650   2.277
  260SOL     OW  807   0.076   0.811   2.651
  260SOL    HW1  808   0.175   0.799   2.660
  260SOL    HW2  809   0.052   0.906   2.672
  261SOL     OW  810   0.130   1.821   3.433
  261SOL    HW1  811   0.120   1.806   3.532
  261SOL    HW2  812   0.044   1.857   3.397
  262SOL     OW  813   0.865   0.348   2.057
  262SOL    HW1  814   0.924   0.411   2.008
  262SOL    HW2  815   0.884   0.254   2.028
  263SOL     OW  816   1.719   0.585   3.693
  263SOL    HW1  817   1.693   0.674   3.657
  263SOL    HW2  818   1.717   0.517   3.620
  264SOL     OW  819   1.362   1.144   2.407
  264SOL    HW1  820   1.445   1.115   2.359
  264SOL    HW2  821   1.313   1.211   2.351
  265SOL     OW  822   0.550   0.196   2.747
  265SOL    HW1  823   0.545   0.191   2.847
  265SOL    HW2  824   0.552   0.292   2.718
  266SOL     OW  825   1.008   1.456   2.339
  266SOL    HW1  826   0.962   1.528   2.287
  266SOL    HW2  827   1.004   1.476   2.437
  267SOL     OW  828   0.351   1.801   2.715
  267SOL    HW1  829   0.401   1.715   2.721
  267SOL    HW2  830   0.416   1.878   2.712
  268SOL     OW  831   1.795   1.066   2.735
  268SOL    HW1  832   1.733   1.051   2.659
  268SOL    HW2  833   1.743   1.077   2.820
  269SOL     OW  834   1.227   1.550   3.368
  269SOL    HW1  835   1.233   1.473   3.432
  269SOL    HW2  836   1.175   1.524   3.288
  270SOL     OW  837   0.321   0.943   2.104
  270SOL    HW1  838   0.403   0.982   2.062
  270SOL    HW2  839   0.294   0.861   2.055
  271SOL     OW  840   1.458   0.735   2.590
  271SOL    HW1  841   1.453   0.670   2.665
  271SOL    HW2  842   1.538   0.794   2.603
  272SOL     OW  843   0.461   1.266   3.589
  272SOL    HW1  844   0.411   1.267   3.503
  272SOL    HW2  845   0.398   1.248   3.665
  273SOL     OW  846   1.111   1.776   2.099
  273SOL    HW1  847   1.051   1.714   2.149
  273SOL    HW2  848   1.142   1.732   2.014
  274SOL     OW  849   0.202   0.285   3.360
  274SOL    HW1  850   0.122   0.345   3.347
  274SOL    HW2  851   0.192   0.236   3.446
  275SOL     OW  852   1.632   1.377   1.943
  275SOL    HW1  853   1.600   1.471   1.933
  275SOL    HW2  854   1.556   1.314   1.931
  276SOL     OW  855   0.464   1.743   2.185
  276SOL    HW1  856   0.497   1.782   2.271
  276SOL    HW2  857   0.540   1.736   2.120
  277SOL     OW  858   1.400   0.107   2.288
  277SOL    HW1  859   1.376   0.070   2.198
  277SOL    HW2  860   1.499   0.123   2.292
  278SOL     OW  861   0.249   1.785   3.103
  278SOL    HW1  862   0.306   1.720   3.153
  278SOL    HW2  863   0.233   1.752   3.010
  279SOL     OW  864   0.940   1.698   2.766
  279SOL    HW1  865   1.020   1.641   2.787
  279SOL    HW2  866   0.891   1.658   2.689
  280SOL     OW  867   0.382   0.700   2.342
  280SOL    HW1  868   0.427   0.610   2.339
  280SOL    HW2  869   0.288   0.689   2.375
  281SOL     OW  870   1.547   0.222   3.591
  281SOL    HW1  871   1.542   0.259   3.683
  281SOL    HW2  872   1.475   0.153   3.579
  282SOL     OW  873   0.614   0.122   1.979
  282SOL    HW1  874   0.712   0.100   1.986
  282SOL    HW2  875   0.583   0.105   1.886
  283SOL     OW  876   0.781   0.264   3.611
  283SOL    HW1  877   0.848   0.203   3.654
  283SOL    HW2  878   0.708   0.283   3.676
  284SOL     OW  879   0.888   1.514   3.057
  284SOL    HW1  880   0.865   1.489   2.963
  284SOL    HW2  881   0.949   1.445   3.096
  285SOL     OW  882   1.351   0.590   3.295
  285SOL    HW1  883   1.379   0.547   3.380
  285SOL    HW2  884   1.376   0.686   3.296
  286SOL     OW  885   0.803   1.402   2.786
  286SOL    HW1  886   0.893   1.416   2.744
  286SOL    HW2  887   0.732   1.404   2.715
  287SOL     OW  888   0.922   0.503   2.761
  287SOL    HW1  889   0.897   0.494   2.665
  287SOL    HW2  890   0.970   0.421   2.792
  288SOL     OW  891   0.539   0.064   2.374
  288SOL    HW1  892   0.458   0.065   2.432
  288SOL    HW2  893   0.542   0.147   2.319
  289SOL     OW  894   1.434   1.188   1.903
  289SOL    HW1  895   1.466   1.112   1.960
  289SOL    HW2  896   1.342   1.215   1.933
  290SOL     OW  897   0.297   0.035   2.033
  290SOL    HW1  898   0.346   0.119   2.012
  290SOL    HW2  899   0.359  -0.030   2.078
  291SOL     OW  900   0.935   0.236   2.342
  291SOL    HW1  901   0.887   0.277   2.264
  291SOL    HW2  902   1.034   0.234   2.323
  292SOL     OW  903   1.076   0.683   3.326
  292SOL    HW1  904   0.996   0.622   3.329
  292SOL    HW2  905   1.157   0.630   3.302
  293SOL     OW  906   1.227   1.570   2.655
  293SOL    HW1  907   1.248   1.644   2.590
  293SOL    HW2  908   1.295   1.570   2.728
  294SOL     OW  909   0.459   1.152   2.603
  294SOL    HW1  910   0.388   1.125   2.668
  294SOL    HW2  911   0.433   1.124   2.510
  295SOL     OW  912   1.271   1.797   2.453
  295SOL    HW1  913   1.315   1.861   2.389
  295SOL    HW2  914   1.221   1.849   2.523
  296SOL     OW  915   1.032   0.549   1.878
  296SOL    HW1  916   0.991   0.631   1.839
  296SOL    HW2  917   1.096   0.575   1.951
  297SOL     OW  918   0.078   0.556   3.248
  297SOL    HW1  919   0.170   0.555   3.207
  297SOL    HW2  920   0.072   0.630   3.315
  298SOL     OW  921   0.561   0.222   3.009
  298SOL    HW1  922   0.599   0.138   3.046
  298SOL    HW2  923   0.473   0.241   3.053
  299SOL     OW  924   0.866   0.454   2.504
  299SOL    HW1  925   0.834   0.526   2.442
  299SOL    HW2  926   0.890   0.373   2.451
  300SOL     OW  927   1.017   0.039   2.615
  300SOL    HW1  928   0.945   0.044   2.546
  300SOL    HW2  929   0.993  -0.030   2.684
  301SOL     OW  930   1.429   1.173   2.729
  301SOL    HW1  931   1.374   1.089   2.722
  301SOL    HW2  932   1.455   1.202   2.637
  302SOL     OW  933   1.466   0.590   2.854
  302SOL    HW1  934   1.436   0.495   2.861
  302SOL    HW2  935   1.539   0.606   2.920
  303SOL     OW  936   1.857   0.833   2.239
  303SOL    HW1  937   1.899   0.769   2.303
  303SOL    HW2  938   1.819   0.782   2.161
  304SOL     OW  939   0.488   1.385   2.036
  304SOL    HW1  940   0.401   1.370   2.083
  304SOL    HW2  941   0.471   1.411   1.941
  305SOL     OW  942   1.664   1.280   2.519
  305SOL    HW1  943   1.763   1.288   2.533
  305SOL    HW2  944   1.619   1.364   2.550
  306SOL     OW  945   1.390   0.575   1.940
  306SOL    HW1  946   1.336   0.554   2.021
  306SOL    HW2  947   1.481   0.534   1.949
  307SOL     OW  948   0.527   0.256   2.190
  307SOL    HW1  949   0.554   0.197   2.115
  307SOL    HW2  950   0.527   0.351   2.159
  308SOL     OW  951   1.754   1.223   3.450
  308SOL    HW1  952   1.845   1.184   3.437
  308SOL    HW2  953   1.762   1.319   3.474
  309SOL     OW  954   1.064   1.347   3.202
  309SOL    HW1  955   0.984   1.324   3.257
  309SOL    HW2  956   1.147   1.321   3.251
  310SOL     OW  957   1.592   1.629   3.487
  310SOL    HW1  958   1.619   1.663   3.397
  310SOL    HW2  959   1.671   1.591   3.533
  311SOL     OW  960   1.111   1.195   2.962
  311SOL    HW1  961   1.071   1.239   3.043
  311SOL    HW2  962   1.070   1.232   2.879
  312SOL     OW  963   1.638   1.099   2.941
  312SOL    HW1  964   1.643   1.180   3.000
  312SOL    HW2  965   1.552   1.101   2.890
  313SOL     OW  966   0.915   0.089   3.264
  313SOL    HW1  967   0.940   0.069   3.169
  313SOL    HW2  968   0.987   0.145   3.306
  314SOL     OW  969   0.980   1.116   3.581
  314SOL    HW1  970   0.881   1.122   3.591
  314SOL    HW2  971   1.003   1.036   3.525
  315SOL     OW  972   0.705   1.050   2.230
  315SOL    HW1  973   0.691   1.057   2.329
  315SOL    HW2  974   0.789   0.999   2.212
  316SOL     OW  975   0.410   0.813   3.113
  316SOL    HW1  976   0.496   0.825   3.163
  316SOL    HW2  977   0.368   0.726   3.140
  317SOL     OW  978   1.274   0.386   3.124
  317SOL    HW1  979   1.295   0.460   3.188
  317SOL    HW2  980   1.185   0.403   3.081
  318SOL     OW  981   0.064   1.564   3.193
  318SOL    HW1  982   0.018   1.646   3.159
  318SOL    HW2  983   0.162   1.583   3.202
  319SOL     OW  984   0.367   1.100   2.363
  319SOL    HW1  985   0.360   1.183   2.307
  319SOL    HW2  986   0.371   1.020   2.303
  320SOL     OW  987   0.566   0.537   2.727
  320SOL    HW1  988   0.578   0.603   2.653
  320SOL    HW2  989   0.612   0.571   2.810
  321SOL     OW  990   1.252   1.348   2.250
  321SOL    HW1  991   1.302   1.425   2.290
  321SOL    HW2  992   1.157   1.350   2.282
  322SOL     OW  993   1.272   1.445   3.004
  322SOL    HW1  994   1.319   1.458   3.091
  322SOL    HW2  995   1.206   1.371   3.013
  323SOL     OW  996   1.582   0.639   2.334
  323SOL    HW1  997   1.551   0.700   2.407
  323SOL    HW2  998   1.632   0.691   2.265
  324SOL     OW  999   0.354   1.510   3.191
  324SOL    HW1 1000   0.333   1.466   3.104
  324SOL    HW2 1001   0.451   1.536   3.194
  325SOL     OW 1002   0.402   0.751   3.460
  325SOL    HW1 1003   0.470   0.806   3.413
  325SOL    HW2 1004   0.442   0.663   3.487
  326SOL     OW 1005   1.587   0.779   3.532
  326SOL    HW1 1006   1.495   0.817   3.527
  326SOL    HW2 1007   1.647   0.826   3.467
  327SOL     OW 1008   1.013   0.105   3.632
  327SOL    HW1 1009   1.019   0.190   3.580
  327SOL    HW2 1010   1.045   0.029   3.575
  328SOL     OW 1011   0.504   0.050   3.602
  328SOL    HW1 1012   0.462  -0.007   3.532
  328SOL    HW2 1013   0.438   0.119   3.634
  329SOL     OW 1014   0.573   0.870   2.891
  329SOL    HW1 1015   0.617   0.959   2.882
  329SOL    HW2 1016   0.510   0.870   2.968
  330SOL     OW 1017   1.360   0.862   2.907
  330SOL    HW1 1018   1.285   0.862   2.841
  330SOL    HW2 1019   1.397   0.770   2.916
  331SOL     OW 1020   1.209   0.525   2.137
  331SOL    HW1 1021   1.222   0.441   2.191
  331SOL    HW2 1022   1.180   0.599   2.197
  332SOL     OW 1023   0.307   0.213   3.093
  332SOL    HW1 1024   0.284   0.250   3.183
  332SOL    HW2 1025   0.277   0.118   3.087
  333SOL     OW 1026   0.037   1.310   3.144
  333SOL    HW1 1027   0.090   1.261   3.212
  333SOL    HW2 1028   0.059   1.408   3.149
  334SOL     OW 1029   0.732   0.634   2.926
  334SOL    HW1 1030   0.791   0.608   2.850
  334SOL    HW2 1031   0.704   0.730   2.915
  335SOL     OW 1032   1.728   0.935   3.716
  335SOL    HW1 1033   1.682   0.928   3.627
  335SOL    HW2 1034   1.666   0.979   3.782
  336SOL     OW 1035   0.307   0.063   2.480
  336SOL    HW1 1036   0.296   0.157   2.513
  336SOL    HW2 1037   0.302   0.000   2.557
  337SOL     OW 1038   1.622   0.367   2.236
  337SOL    HW1 1039   1.624   0.291   2.300
  337SOL    HW2 1040   1.574   0.444   2.276
  338SOL     OW 1041   1.023   0.766   2.828
  338SOL    HW1 1042   1.038   0.787   2.924
  338SOL    HW2 1043   0.993   0.671   2.819
  339SOL     OW 1044   0.980   1.573   3.562
  339SOL    HW1 1045   0.960   1.617   3.474
  339SOL    HW2 1046   1.019   1.482   3.546
  340SOL     OW 1047   1.859   1.518   3.467
  340SOL    HW1 1048   1.873   1.545   3.372
  340SOL    HW2 1049   1.942   1.540   3.520
  341SOL     OW 1050   0.350   0.898   3.666
  341SOL    HW1 1051   0.426   0.942   3.714
  341SOL    HW2 1052   0.385   0.851   3.584
  342SOL     OW 1053   1.540   0.274   1.987
  342SOL    HW1 1054   1.479   0.199   2.010
  342SOL    HW2 1055   1.562   0.326   2.070
  343SOL     OW 1056   1.303   0.838   1.904
  343SOL    HW1 1057   1.337   0.745   1.919
  343SOL    HW2 1058   1.321   0.865   1.809
  344SOL     OW 1059   1.068   1.333   2.711
  344SOL    HW1 1060   1.075   1.249   2.656
  344SOL    HW2 1061   1.130   1.402   2.675
  345SOL     OW 1062   0.319   0.810   2.811
  345SOL    HW1 1063   0.412   0.846   2.816
  345SOL    HW2 1064   0.313   0.725   2.863
  346SOL     OW 1065   0.339   0.509   2.868
  346SOL    HW1 1066   0.287   0.426   2.851
  346SOL    HW2 1067   0.416   0.514   2.804
  347SOL     OW 1068   1.138   0.380   3.540
  347SOL    HW1 1069   1.093   0.443   3.604
  347SOL    HW2 1070   1.231   0.411   3.523
  348SOL     OW 1071   1.160   0.207   3.339
  348SOL    HW1 1072   1.160   0.271   3.416
  348SOL    HW2 1073   1.188   0.255   3.256
  349SOL     OW 1074   0.008   1.326   2.062
  349SOL    HW1 1075  -0.085   1.347   2.031
  349SOL    HW2 1076   0.018   1.227   2.075
  350SOL     OW 1077   0.088   1.801   2.789
  350SOL    HW1 1078   0.046   1.715   2.762
  350SOL    HW2 1079   0.182   1.804   2.755
  351SOL     OW 1080   0.504   1.568   2.772
  351SOL    HW1 1081   0.570   1.642   2.781
  351SOL    HW2 1082   0.548   1.489   2.730
  352SOL     OW 1083   1.002   0.796   3.100
  352SOL    HW1 1084   1.043   0.764   3.186
  352SOL    HW2 1085   0.906   0.769   3.097
  353SOL     OW 1086   0.040   0.544   2.976
  353SOL    HW1 1087   0.125   0.511   2.935
  353SOL    HW2 1088   0.053   0.559   3.074
  354SOL     OW 1089   0.189   0.520   3.584
  354SOL    HW1 1090   0.248   0.480   3.514
  354SOL    HW2 1091   0.131   0.591   3.543
  355SOL     OW 1092   1.369   0.950   3.522
  355SOL    HW1 1093   1.408   1.039   3.542
  355SOL    HW2 1094   1.379   0.930   3.425
  356SOL     OW 1095   0.815   0.572   2.187
  356SOL    HW1 1096   0.822   0.483   2.141
  356SOL    HW2 1097   0.721   0.606   2.179
  357SOL     OW 1098   1.657   0.604   3.068
  357SOL    HW1 1099   1.619   0.535   3.130
  357SOL    HW2 1100   1.739   0.568   3.024
  358SOL     OW 1101   0.252   1.564   3.606
  358SOL    HW1 1102   0.222   1.621   3.682
  358SOL    HW2 1103   0.245   1.467   3.632
  359SOL     OW 1104   0.671   0.464   3.131
  359SOL    HW1 1105   0.637   0.375   3.101
  359SOL    HW2 1106   0.697   0.518   3.051
  360SOL     OW 1107   0.930   1.678   3.327
  360SOL    HW1 1108   0.906   1.660   3.232
  360SOL    HW2 1109   0.960   1.772   3.337
  361SOL     OW 1110   0.473   0.500   2.053
  361SOL    HW1 1111   0.534   0.580   2.057
  361SOL    HW2 1112   0.378   0.531   2.060
  362SOL     OW 1113   0.159   1.137   3.328
  362SOL    HW1 1114   0.181   1.076   3.404
  362SOL    HW2 1115   0.169   1.088   3.242
  363SOL     OW 1116   1.347   1.059   3.096
  363SOL    HW1 1117   1.371   0.996   3.022
  363SOL    HW2 1118   1.257   1.099   3.078
  364SOL     OW 1119   1.302   0.855   2.171
  364SOL    HW1 1120   1.216   0.824   2.213
  364SOL    HW2 1121   1.298   0.841   2.072
  365SOL     OW 1122   1.759   1.747   3.016
  365SOL    HW1 1123   1.820   1.777   2.943
  365SOL    HW2 1124   1.721   1.658   2.994
  366SOL     OW 1125   1.252   1.731   2.990
  366SOL    HW1 1126   1.336   1.736   2.936
  366SOL    HW2 1127   1.229   1.635   3.008
  367SOL     OW 1128   0.083   1.258   2.884
  367SOL    HW1 1129   0.078   1.257   2.984
  367SOL    HW2 1130   0.000   1.217   2.846
  368SOL     OW 1131   0.688   1.662   3.578
  368SOL    HW1 1132   0.632   1.743   3.587
  368SOL    HW2 1133   0.740   1.666   3.492
  369SOL     OW 1134   1.726   0.135   2.385
  369SOL    HW1 1135   1.799   0.118   2.318
  369SOL    HW2 1136   1.695   0.048   2.423
  370SOL     OW 1137   1.388   1.573   2.339
  370SOL    HW1 1138   1.455   1.585   2.265
  370SOL    HW2 1139   1.348   1.662   2.362
  371SOL     OW 1140   0.130   1.794   3.713
  371SOL    HW1 1141   0.089   1.720   3.766
  371SOL    HW2 1142   0.194   1.845   3.771
  372SOL     OW 1143   1.280   0.927   2.534
  372SOL    HW1 1144   1.340   0.846   2.536
  372SOL    HW2 1145   1.320   0.996   2.474
  373SOL     OW 1146   0.830   1.273   3.284
  373SOL    HW1 1147   0.825   1.306   3.379
  373SOL    HW2 1148   0.744   1.292   3.238
  374SOL     OW 1149   0.672   1.616   2.016
  374SOL    HW1 1150   0.681   1.626   1.917
  374SOL    HW2 1151   0.632   1.527   2.037
  375SOL     OW 1152   1.650   1.720   3.256
  375SOL    HW1 1153   1.703   1.730   3.172
  375SOL    HW2 1154   1.623   1.810   3.290
  376SOL     OW 1155   1.841   0.175   2.825
  376SOL    HW1 1156   1.880   0.090   2.789
  376SOL    HW2 1157   1.743   0.177   2.806
  377SOL     OW 1158   0.263   0.326   2.582
  377SOL    HW1 1159   0.184   0.377   2.548
  377SOL    HW2 1160   0.254   0.311   2.680
  378SOL     OW 1161   1.194   1.612   1.893
  378SOL    HW1 1162   1.200   1.519   1.930
  378SOL    HW2 1163   1.135   1.612   1.813
  379SOL     OW 1164   0.822   1.002   3.234
  379SOL    HW1 1165   0.862   1.001   3.142
  379SOL    HW2 1166   0.832   1.094   3.274
  380SOL     OW 1167   0.916   0.910   2.153
  380SOL    HW1 1168   0.979   0.948   2.085
  380SOL    HW2 1169   0.956   0.827   2.192
  381SOL     OW 1170   1.504   1.607   1.906
  381SOL    HW1 1171   1.412   1.644   1.913
  381SOL    HW2 1172   1.542   1.627   1.816
  382SOL     OW 1173   0.372   1.288   3.352
  382SOL    HW1 1174   0.359   1.381   3.318
  382SOL    HW2 1175   0.288   1.236   3.339
  383SOL     OW 1176   1.614   1.292   3.151
  383SOL    HW1 1177   1.674   1.295   3.231
  383SOL    HW2 1178   1.539   1.356   3.164
  384SOL     OW 1179   1.039   1.098   2.558
  384SOL    HW1 1180   0.969   1.051   2.612
  384SOL    HW2 1181   1.098   1.030   2.515
  385SOL     OW 1182   1.014   0.236   2.833
  385SOL    HW1 1183   1.006   0.200   2.740
  385SOL    HW2 1184   1.012   0.160   2.898
  386SOL     OW 1185   0.590   1.487   2.353
  386SOL    HW1 1186   0.632   1.429   2.283
  386SOL    HW2 1187   0.546   1.566   2.309
  387SOL     OW 1188   1.709   0.385   3.243
  387SOL    HW1 1189   1.782   0.454   3.247
  387SOL    HW2 1190   1.737   0.310   3.184
  388SOL     OW 1191   0.255   1.348   2.152
  388SOL    HW1 1192   0.159   1.349   2.125
  388SOL    HW2 1193   0.267   1.401   2.236
  389SOL     OW 1194   0.105   1.013   3.588
  389SOL    HW1 1195   0.028   0.980   3.642
  389SOL    HW2 1196   0.190   0.983   3.630
  390SOL     OW 1197   0.672   0.203   3.351
  390SOL    HW1 1198   0.762   0.187   3.311
  390SOL    HW2 1199   0.680   0.208   3.450
  391SOL     OW 1200   0.075   0.345   1.895
  391SOL    HW1 1201  -0.017   0.317   1.866
  391SOL    HW2 1202   0.106   0.422   1.839
  392SOL     OW 1203   1.440   0.856   3.260
  392SOL    HW1 1204   1.383   0.908   3.197
  392SOL    HW2 1205   1.536   0.868   3.236
  393SOL     OW 1206   0.072   0.166   2.180
  393SOL    HW1 1207   0.055   0.249   2.126
  393SOL    HW2 1208   0.162   0.129   2.158
  394SOL     OW 1209   1.183   1.335   1.981
  394SOL    HW1 1210   1.084   1.324   1.983
  394SOL    HW2 1211   1.217   1.350   2.074
  395SOL     OW 1212   0.613   0.842   3.293
  395SOL    HW1 1213   0.669   0.923   3.276
  395SOL    HW2 1214   0.672   0.762   3.296
  396SOL     OW 1215   1.493   1.767   2.821
  396SOL    HW1 1216   1.526   1.831   2.752
  396SOL    HW2 1217   1.559   1.761   2.896
  397SOL     OW 1218   0.716   0.565   3.570
  397SOL    HW1 1219   0.735   0.630   3.644
  397SOL    HW2 1220   0.776   0.485   3.579
  398SOL     OW 1221   1.450   1.220   3.495
  398SOL    HW1 1222   1.441   1.210   3.594
  398SOL    HW2 1223   1.546   1.213   3.469
  399SOL     OW 1224   0.390   1.741   3.422
  399SOL    HW1 1225   0.299   1.782   3.420
  399SOL    HW2 1226   0.383   1.647   3.454
  400SOL     OW 1227   1.674   0.883   3.116
  400SOL    HW1 1228   1.647   0.794   3.079
  400SOL    HW2 1229   1.675   0.951   3.043
  401SOL     OW 1230   1.225   0.325   2.311
  401SOL    HW1 1231   1.290   0.251   2.300
  401SOL    HW2 1232   1.245   0.375   2.395
  402SOL     OW 1233   0.594   0.745   2.514
  402SOL    HW1 1234   0.644   0.830   2.495
  402SOL    HW2 1235   0.506   0.747   2.466
  403SOL     OW 1236   1.777   0.342   3.504
  403SOL    HW1 1237   1.760   0.373   3.410
  403SOL    HW2 1238   1.693   0.305   3.542
  404SOL     OW 1239   1.730   0.934   3.379
  404SOL    HW1 1240   1.768   1.025   3.394
  404SOL    HW2 1241   1.722   0.917   3.280
  405SOL     OW 1242   0.859   1.374   1.878
  405SOL    HW1 1243   0.813   1.389   1.966
  405SOL    HW2 1244   0.903   1.459   1.848
  406SOL     OW 1245   0.661   1.790   2.815
  406SOL    HW1 1246   0.615   1.878   2.802
  406SOL    HW2 1247   0.760   1.802   2.808
  407SOL     OW 1248   0.859   0.956   2.723
  407SOL    HW1 1249   0.913   0.887   2.771
  407SOL    HW2 1250   0.827   1.025   2.789
  408SOL     OW 1251   1.083   0.984   1.949
  408SOL    HW1 1252   1.060   1.037   1.867
  408SOL    HW2 1253   1.164   0.928   1.930
  409SOL     OW 1254   1.861   1.569   2.713
  409SOL    HW1 1255   1.790   1.557   2.643
  409SOL    HW2 1256   1.862   1.490   2.773
  410SOL     OW 1257   0.221   1.314   3.706
  410SOL    HW1 1258   0.156   1.241   3.685
  410SOL    HW2 1259   0.225   1.328   3.804
  411SOL     OW 1260   0.079   1.240   2.515
  411SOL    HW1 1261   0.078   1.193   2.603
  411SOL    HW2 1262   0.161   1.212   2.464
  412SOL     OW 1263   0.672   1.391   3.486
  412SOL    HW1 1264   0.594   1.341   3.524
  412SOL    HW2 1265   0.669   1.486   3.517
  413SOL     OW 1266   1.824   0.192   3.089
  413SOL    HW1 1267   1.820   0.102   3.133
  413SOL    HW2 1268   1.827   0.181   2.990
  414SOL     OW 1269   0.428   0.424   2.382
  414SOL    HW1 1270   0.458   0.352   2.320
  414SOL    HW2 1271   0.389   0.384   2.465
  415SOL     OW 1272   1.705   1.487   2.966
  415SOL    HW1 1273   1.612   1.462   2.939
  415SOL    HW2 1274   1.731   1.437   3.048
  416SOL     OW 1275   0.317   0.547   3.142
  416SOL    HW1 1276   0.355   0.488   3.214
  416SOL    HW2 1277   0.357   0.521   3.054
  417SOL     OW 1278   0.812   1.586   2.549
  417SOL    HW1 1279   0.844   1.596   2.455
  417SOL    HW2 1280   0.733   1.524   2.551
  418SOL     OW 1281   1.424   0.214   2.974
  418SOL    HW1 1282   1.476   0.149   3.029
  418SOL    HW2 1283   1.375   0.277   3.035
  419SOL     OW 1284   1.001   0.034   3.016
  419SOL    HW1 1285   0.938  -0.038   2.985
  419SOL    HW2 1286   1.094  -0.002   3.016
  420SOL     OW 1287   0.770   1.330   2.163
  420SOL    HW1 1288   0.724   1.243   2.180
  420SOL    HW2 1289   0.861   1.327   2.204
  421SOL     OW 1290   0.618   1.567   3.146
  421SOL    HW1 1291   0.613   1.649   3.203
  421SOL    HW2 1292   0.707   1.564   3.101
  422SOL     OW 1293   1.352   0.052   2.030
  422SOL    HW1 1294   1.387   0.011   1.946
  422SOL    HW2 1295   1.262   0.014   2.050
  423SOL     OW 1296   1.300   0.453   2.553
  423SOL    HW1 1297   1.241   0.533   2.557
  423SOL    HW2 1298   1.315   0.418   2.646
  424SOL     OW 1299   1.593   0.221   2.744
  424SOL    HW1 1300   1.509   0.220   2.798
  424SOL    HW2 1301   1.595   0.304   2.688
  425SOL     OW 1302   0.039   1.077   2.162
  425SOL    HW1 1303   0.138   1.066   2.153
  425SOL    HW2 1304  -0.001   0.991   2.194
  426SOL     OW 1305   0.875   1.646   2.199
  426SOL    HW1 1306   0.798   1.611   2.145
  426SOL    HW2 1307   0.843   1.717   2.261
  427SOL     OW 1308   0.230   0.628   3.837
  427SOL    HW1 1309   0.137   0.626   3.874
  427SOL    HW2 1310   0.231   0.589   3.745
  428SOL     OW 1311   0.225   0.275   4.720
  428SOL    HW1 1312   0.260   0.258   4.812
  428SOL    HW2 1313   0.137   0.230   4.708
  429SOL     OW 1314   0.019   0.368   4.371
  429SOL    HW1 1315  -0.063   0.411   4.410
  429SOL    HW2 1316  -0.009   0.295   4.308
  430SOL     OW 1317   0.569   1.275   4.889
  430SOL    HW1 1318   0.476   1.268   4.852
  430SOL    HW2 1319   0.580   1.364   4.933
  431SOL     OW 1320   1.555   1.511   4.427
  431SOL    HW1 1321   1.498   1.495   4.508
  431SOL    HW2 1322   1.496   1.521   4.347
  432SOL     OW 1323   1.135   0.703   4.441
  432SOL    HW1 1324   1.192   0.781   4.416
  432SOL    HW2 1325   1.075   0.729   4.517
  433SOL     OW 1326   1.755   0.607   3.955
  433SOL    HW1 1327   1.743   0.594   3.856
  433SOL    HW2 1328   1.725   0.526   4.004
  434SOL     OW 1329   0.768   1.144   4.747
  434SOL    HW1 1330   0.690   1.161   4.807
  434SOL    HW2 1331   0.802   1.231   4.711
  435SOL     OW 1332   0.685   1.012   4.389
  435SOL    HW1 1333   0.754   0.996   4.459
  435SOL    HW2 1334   0.612   1.069   4.427
  436SOL     OW 1335   0.335   1.435   4.785
  436SOL    HW1 1336   0.257   1.404   4.732
  436SOL    HW2 1337   0.393   1.493   4.728
  437SOL     OW 1338   1.603   0.447   4.461
  437SOL    HW1 1339   1.529   0.493   4.411
  437SOL    HW2 1340   1.654   0.515   4.514
  438SOL     OW 1341   0.231   1.713   4.207
  438SOL    HW1 1342   0.265   1.790   4.261
  438SOL    HW2 1343   0.275   1.713   4.117
  439SOL     OW 1344   0.230   1.434   4.262
  439SOL    HW1 1345   0.204   1.530   4.262
  439SOL    HW2 1346   0.159   1.380   4.307
  440SOL     OW 1347   0.240   1.091   4.610
  440SOL    HW1 1348   0.254   1.007   4.662
  440SOL    HW2 1349   0.185   1.155   4.665
  441SOL     OW 1350   0.620   1.786   5.163
  441SOL    HW1 1351   0.528   1.769   5.198
  441SOL    HW2 1352   0.648   1.878   5.189
  442SOL     OW 1353   0.606   0.964   3.847
  442SOL    HW1 1354   0.613   1.048   3.793
  442SOL    HW2 1355   0.652   0.977   3.935
  443SOL     OW 1356   0.122   0.643   4.287
  443SOL    HW1 1357   0.077   0.555   4.304
  443SOL    HW2 1358   0.121   0.697   4.371
  444SOL     OW 1359   1.842   1.767   4.083
  444SOL    HW1 1360   1.896   1.738   4.163
  444SOL    HW2 1361   1.872   1.857   4.054
  445SOL     OW 1362   0.027   1.596   3.841
  445SOL    HW1 1363   0.008   1.500   3.862
  445SOL    HW2 1364  -0.006   1.654   3.916
  446SOL     OW 1365   1.689   0.922   4.336
  446SOL    HW1 1366   1.784   0.893   4.344
  446SOL    HW2 1367   1.681   0.987   4.261
  447SOL     OW 1368   1.641   1.108   4.156
  447SOL    HW1 1369   1.727   1.110   4.104
  447SOL    HW2 1370   1.655   1.155   4.244
  448SOL     OW 1371   0.613   1.365   4.450
  448SOL    HW1 1372   0.564   1.278   4.459
  448SOL    HW2 1373   0.590   1.408   4.363
  449SOL     OW 1374   0.809   0.004   4.226
  449SOL    HW1 1375   0.849   0.095   4.217
  449SOL    HW2 1376   0.709   0.012   4.232
  450SOL     OW 1377   0.197   0.976   4.988
  450SOL    HW1 1378   0.286   0.931   4.974
  450SOL    HW2 1379   0.124   0.911   4.969
  451SOL     OW 1380   1.525   0.999   3.914
  451SOL    HW1 1381   1.462   0.923   3.927
  451SOL    HW2 1382   1.573   1.017   4.000
  452SOL     OW 1383   1.466   1.417   4.677
  452SOL    HW1 1384   1.407   1.423   4.757
  452SOL    HW2 1385   1.451   1.329   4.631
  453SOL     OW 1386   1.667   1.714   4.296
  453SOL    HW1 1387   1.626   1.691   4.208
  453SOL    HW2 1388   1.649   1.640   4.361
  454SOL     OW 1389   0.598   0.729   3.994
  454SOL    HW1 1390   0.622   0.798   3.926
  454SOL    HW2 1391   0.520   0.762   4.048
  455SOL     OW 1392   1.281   0.345   4.668
  455SOL    HW1 1393   1.195   0.295   4.655
  455SOL    HW2 1394   1.343   0.291   4.724
  456SOL     OW 1395   1.576   1.662   4.031
  456SOL    HW1 1396   1.665   1.708   4.034
  456SOL    HW2 1397   1.555   1.638   3.936
  457SOL     OW 1398   0.807   0.605   5.189
  457SOL    HW1 1399   0.760   0.602   5.278
  457SOL    HW2 1400   0.756   0.550   5.123
  458SOL     OW 1401   0.991   0.410   4.966
  458SOL    HW1 1402   0.914   0.444   5.020
  458SOL    HW2 1403   0.957   0.359   4.887
  459SOL     OW 1404   1.041   0.701   4.153
  459SOL    HW1 1405   1.067   0.697   4.249
  459SOL    HW2 1406   0.956   0.650   4.139
  460SOL     OW 1407   0.076   0.811   4.513
  460SOL    HW1 1408   0.175   0.799   4.522
  460SOL    HW2 1409   0.052   0.906   4.534
  461SOL     OW 1410   0.130   1.821   5.295
  461SOL    HW1 1411   0.120   1.806   5.394
  461SOL    HW2 1412   0.044   1.857   5.259
  462SOL     OW 1413   0.865   0.348   3.919
  462SOL    HW1 1414   0.924   0.411   3.870
  462SOL    HW2 1415   0.884   0.254   3.890
  463SOL     OW 1416   1.362   1.144   4.269
  463SOL    HW1 1417   1.445   1.115   4.221
  463SOL    HW2 1418   1.313   1.211   4.213
  464SOL     OW 1419   0.550   0.196   4.609
  464SOL    HW1 1420   0.545   0.191   4.709
  464SOL    HW2 1421   0.552   0.292   4.580
  465SOL     OW 1422   1.008   1.456   4.201
  465SOL    HW1 1423   0.962   1.528   4.149
  465SOL    HW2 1424   1.004   1.476   4.299
  466SOL     OW 1425   0.351   1.801   4.577
  466SOL    HW1 1426   0.401   1.715   4.583
  466SOL    HW2 1427   0.416   1.878   4.574
  467SOL     OW 1428   1.795   1.066   4.597
  467SOL    HW1 1429   1.733   1.051   4.521
  467SOL    HW2 1430   1.743   1.077   4.682
  468SOL     OW 1431   0.321   0.943   3.966
  468SOL    HW1 1432   0.403   0.982   3.924
  468SOL    HW2 1433   0.294   0.861   3.917
  469SOL     OW 1434   1.458   0.735   4.452
  469SOL    HW1 1435   1.453   0.670   4.527
  469SOL    HW2 1436   1.538   0.794   4.465
  470SOL     OW 1437   1.111   1.776   3.961
  470SOL    HW1 1438   1.051   1.714   4.011
  470SOL    HW2 1439   1.142   1.732   3.876
  471SOL     OW 1440   1.632   1.377   3.805
  471SOL    HW1 1441   1.600   1.471   3.795
  471SOL    HW2 1442   1.556   1.314   3.793
  472SOL     OW 1443   0.464   1.743   4.047
  472SOL    HW1 1444   0.497   1.782   4.133
  472SOL    HW2 1445   0.540   1.736   3.982
  473SOL     OW 1446   1.400   0.107   4.150
  473SOL    HW1 1447   1.376   0.070   4.060
  473SOL    HW2 1448   1.499   0.123   4.154
  474SOL     OW 1449   0.249   1.785   4.965
  474SOL    HW1 1450   0.306   1.720   5.015
  474SOL    HW2 1451   0.233   1.752   4.872
  475SOL     OW 1452   0.940   1.698   4.628
  475SOL    HW1 1453   1.020   1.641   4.649
  475SOL    HW2 1454   0.891   1.658   4.551
  476SOL     OW 1455   0.382   0.700   4.204
  476SOL    HW1 1456   0.427   0.610   4.201
  476SOL    HW2 1457   0.288   0.689   4.237
  477SOL     OW 1458   0.614   0.122   3.841
  477SOL    HW1 1459   0.712   0.100   3.848
  477SOL    HW2 1460   0.583   0.105   3.748
  478SOL     OW 1461   0.888   1.514   4.919
  478SOL    HW1 1462   0.865   1.489   4.825
  478SOL    HW2 1463   0.949   1.445   4.958
  479SOL     OW 1464   0.803   1.402   4.648
  479SOL    HW1 1465   0.893   1.416   4.606
  479SOL    HW2 1466   0.732   1.404   4.577
  480SOL     OW 1467   0.922   0.503   4.623
  480SOL    HW1 1468   0.897   0.494   4.527
  480SOL    HW2 1469   0.970   0.421   4.654
  481SOL     OW 1470   0.539   0.064   4.236
  481SOL    HW1 1471   0.458   0.065   4.294
  481SOL    HW2 1472   0.542   0.147   4.181
  482SOL     OW 1473   1.434   1.188   3.765
  482SOL    HW1 1474   1.466   1.112   3.822
  482SOL    HW2 1475   1.342   1.215   3.795
  483SOL     OW 1476   0.297   0.035   3.895
  483SOL    HW1 1477   0.346   0.119   3.874
  483SOL    HW2 1478   0.359  -0.030   3.940
  484SOL     OW 1479   0.935   0.236   4.204
  484SOL    HW1 1480   0.887   0.277   4.126
  484SOL    HW2 1481   1.034   0.234   4.185
  485SOL     OW 1482   1.227   1.570   4.517
  485SOL    HW1 1483   1.248   1.644   4.452
  485SOL    HW2 1484   1.295   1.570   4.590
  486SOL     OW 1485   0.459   1.152   4.465
  486SOL    HW1 1486   0.388   1.125   4.530
  486SOL    HW2 1487   0.433   1.124   4.372
  487SOL     OW 1488   1.271   1.797   4.315
  487SOL    HW1 1489   1.315   1.861   4.251
  487SOL    HW2 1490   1.221   1.849   4.385
  488SOL     OW 1491   1.032   0.549   3.740
  488SOL    HW1 1492   0.991   0.631   3.701
  488SOL    HW2 1493   1.096   0.575   3.813
  489SOL     OW 1494   0.561   0.222   4.871
  489SOL    HW1 1495   0.599   0.138   4.908
  489SOL    HW2 1496   0.473   0.241   4.915
  490SOL     OW 1497   0.866   0.454   4.366
  490SOL    HW1 1498   0.834   0.526   4.304
  490SOL    HW2 1499   0.890   0.373   4.313
  491SOL     OW 1500   1.017   0.039   4.477
  491SOL    HW1 1501   0.945   0.044   4.408
  491SOL    HW2 1502   0.993  -0.030   4.546
  492SOL     OW 1503   1.429   1.173   4.591
  492SOL    HW1 1504   1.374   1.089   4.584
  492SOL    HW2 1505   1.455   1.202   4.499
  493SOL     OW 1506   1.466   0.590   4.716
  493SOL    HW1 1507   1.436   0.495   4.723
  493SOL    HW2 1508   1.539   0.606   4.782
  494SOL     OW 1509   1.857   0.833   4.101
  494SOL    HW1 1510   1.899   0.769   4.165
  494SOL    HW2 1511   1.819   0.782   4.023
  495SOL     OW 1512   0.488   1.385   3.898
  495SOL    HW1 1513   0.401   1.370   3.945
  495SOL    HW2 1514   0.471   1.411   3.803
  496SOL     OW 1515   1.664   1.280   4.381
  496SOL    HW1 1516   1.763   1.288   4.395
  496SOL    HW2 1517   1.619   1.364   4.412
  497SOL     OW 1518   1.390   0.575   3.802
  497SOL    HW1 1519   1.336   0.554   3.883
  497SOL    HW2 1520   1.481   0.534   3.811
  498SOL     OW 1521   0.527   0.256   4.052
  498SOL    HW1 1522   0.554   0.197   3.977
  498SOL    HW2 1523   0.527   0.351   4.021
  499SOL     OW 1524   1.754   1.223   5.312
  499SOL    HW1 1525   1.845   1.184   5.299
  499SOL    HW2 1526   1.762   1.319   5.336
  500SOL     OW 1527   1.111   1.195   4.824
  500SOL    HW1 1528   1.071   1.239   4.905
  500SOL    HW2 1529   1.070   1.232   4.741
  501SOL     OW 1530   1.638   1.099   4.803
  501SOL    HW1 1531   1.643   1.180   4.862
  501SOL    HW2 1532   1.552   1.101   4.752
  502SOL     OW 1533   0.705   1.050   4.092
  502SOL    HW1 1534   0.691   1.057   4.191
  502SOL    HW2 1535   0.789   0.999   4.074
  503SOL     OW 1536   0.410   0.813   4.975
  503SOL    HW1 1537   0.496   0.825   5.025
  503SOL    HW2 1538   0.368   0.726   5.002
  504SOL     OW 1539   1.274   0.386   4.986
  504SOL    HW1 1540   1.295   0.460   5.050
  504SOL    HW2 1541   1.185   0.403   4.943
  505SOL     OW 1542   0.064   1.564   5.055
  505SOL    HW1 1543   0.018   1.646   5.021
  505SOL    HW2 1544   0.162   1.583   5.064
  506SOL     OW 1545   0.367   1.100   4.225
  506SOL    HW1 1546   0.360   1.183   4.169
  506SOL    HW2 1547   0.371   1.020   4.165
  507SOL     OW 1548   0.566   0.537   4.589
  507SOL    HW1 1549   0.578   0.603   4.515
  507SOL    HW2 1550   0.612   0.571   4.672
  508SOL     OW 1551   1.252   1.348   4.112
  508SOL    HW1 1552   1.302   1.425   4.152
  508SOL    HW2 1553   1.157   1.350   4.144
  509SOL     OW 1554   1.272   1.445   4.866
  509SOL    HW1 1555   1.319   1.458   4.953
  509SOL    HW2 1556   1.206   1.371   4.875
  510SOL     OW 1557   1.582   0.639   4.196
  510SOL    HW1 1558   1.551   0.700   4.269
  510SOL    HW2 1559   1.632   0.691   4.127
  511SOL     OW 1560   0.354   1.510   5.053
  511SOL    HW1 1561   0.333   1.466   4.966
  511SOL    HW2 1562   0.451   1.536   5.056
  512SOL     OW 1563   0.573   0.870   4.753
  512SOL    HW1 1564   0.617   0.959   4.744
  512SOL    HW2 1565   0.510   0.870   4.830
  513SOL     OW 1566   1.360   0.862   4.769
  513SOL    HW1 1567   1.285   0.862   4.703
  513SOL    HW2 1568   1.397   0.770   4.778
  514SOL     OW 1569   1.209   0.525   3.999
  514SOL    HW1 1570   1.222   0.441   4.053
  514SOL    HW2 1571   1.180   0.599   4.059
  515SOL     OW 1572   0.307   0.213   4.955
  515SOL    HW1 1573   0.284   0.250   5.045
  515SOL    HW2 1574   0.277   0.118   4.949
  516SOL     OW 1575   0.037   1.310   5.006
  516SOL    HW1 1576   0.090   1.261   5.074
  516SOL    HW2 1577   0.059   1.408   5.011
  517SOL     OW 1578   0.732   0.634   4.788
  517SOL    HW1 1579   0.791   0.608   4.712
  517SOL    HW2 1580   0.704   0.730   4.777
  518SOL     OW 1581   0.307   0.063   4.342
  518SOL    HW1 1582   0.296   0.157   4.375
  518SOL    HW2 1583   0.302   0.000   4.419
  519SOL     OW 1584   1.622   0.367   4.098
  519SOL    HW1 1585   1.624   0.291   4.162
  519SOL    HW2 1586   1.574   0.444   4.138
  520SOL     OW 1587   1.023   0.766   4.690
  520SOL    HW1 1588   1.038   0.787   4.786
  520SOL    HW2 1589   0.993   0.671   4.681
  521SOL     OW 1590   1.859   1.518   5.329
  521SOL    HW1 1591   1.873   1.545   5.234
  521SOL    HW2 1592   1.942   1.540   5.382
  522SOL     OW 1593   1.540   0.274   3.849
  522SOL    HW1 1594   1.479   0.199   3.872
  522SOL    HW2 1595   1.562   0.326   3.932
  523SOL     OW 1596   1.303   0.838   3.766
  523SOL    HW1 1597   1.337   0.745   3.781
  523SOL    HW2 1598   1.321   0.865   3.671
  524SOL     OW 1599   1.068   1.333   4.573
  524SOL    HW1 1600   1.075   1.249   4.518
  524SOL    HW2 1601   1.130   1.402   4.537
  525SOL     OW 1602   0.319   0.810   4.673
  525SOL    HW1 1603   0.412   0.846   4.678
  525SOL    HW2 1604   0.313   0.725   4.725
  526SOL     OW 1605   0.339   0.509   4.730
  526SOL    HW1 1606   0.287   0.426   4.713
  526SOL    HW2 1607   0.416   0.514   4.666
  527SOL     OW 1608   1.160   0.207   5.201
  527SOL    HW1 1609   1.160   0.271   5.278
  527SOL    HW2 1610   1.188   0.255   5.118
  528SOL     OW 1611   0.008   1.326   3.924
  528SOL    HW1 1612  -0.085   1.347   3.893
  528SOL    HW2 1613   0.018   1.227   3.937
  529SOL     OW 1614   0.088   1.801   4.651
  529SOL    HW1 1615   0.046   1.715   4.624
  529SOL    HW2 1616   0.182   1.804   4.617
  530SOL     OW 1617   0.504   1.568   4.634
  530SOL    HW1 1618   0.570   1.642   4.643
  530SOL    HW2 1619   0.548   1.489   4.592
  531SOL     OW 1620   1.002   0.796   4.962
  531SOL    HW1 1621   1.043   0.764   5.048
  531SOL    HW2 1622   0.906   0.769   4.959
  532SOL     OW 1623   0.040   0.544   4.838
  532SOL    HW1 1624   0.125   0.511   4.797
  532SOL    HW2 1625   0.053   0.559   4.936
  533SOL     OW 1626   0.189   0.520   5.446
  533SOL    HW1 1627   0.248   0.480   5.376
  533SOL    HW2 1628   0.131   0.591   5.405
  534SOL     OW 1629   0.815   0.572   4.049
  534SOL    HW1 1630   0.822   0.483   4.003
  534SOL    HW2 1631   0.721   0.606   4.041
  535SOL     OW 1632   1.657   0.604   4.930
  535SOL    HW1 1633   1.619   0.535   4.992
  535SOL    HW2 1634   1.739   0.568   4.886
  536SOL     OW 1635   0.671   0.464   4.993
  536SOL    HW1 1636   0.637   0.375   4.963
  536SOL    HW2 1637   0.697   0.518   4.913
  537SOL     OW 1638   0.930   1.678   5.189
  537SOL    HW1 1639   0.906   1.660   5.094
  537SOL    HW2 1640   0.960   1.772   5.199
  538SOL     OW 1641   0.473   0.500   3.915
  538SOL    HW1 1642   0.534   0.580   3.919
  538SOL    HW2 1643   0.378   0.531   3.922
  539SOL     OW 1644   0.159   1.137   5.190
  539SOL    HW1 1645   0.181   1.076   5.266
  539SOL    HW2 1646   0.169   1.088   5.104
  540SOL     OW 1647   1.347   1.059   4.958
  540SOL    HW1 1648   1.371   0.996   4.884
  540SOL    HW2 1649   1.257   1.099   4.940
  541SOL     OW 1650   1.302   0.855   4.033
  541SOL    HW1 1651   1.216   0.824   4.075
  541SOL    HW2 1652   1.298   0.841   3.934
  542SOL     OW 1653   1.759   1.747   4.878
  542SOL    HW1 1654   1.820   1.777   4.805
  542SOL    HW2 1655   1.721   1.658   4.856
  543SOL     OW 1656   1.252   1.731   4.852
  543SOL    HW1 1657   1.336   1.736   4.798
  543SOL    HW2 1658   1.229   1.635   4.870
  544SOL     OW 1659   0.083   1.258   4.746
  544SOL    HW1 1660   0.078   1.257   4.846
  544SOL    HW2 1661   0.000   1.217   4.708
  545SOL     OW 1662   1.726   0.135   4.247
  545SOL    HW1 1663   1.799   0.118   4.180
  545SOL    HW2 1664   1.695   0.048   4.285
  546SOL     OW 1665   1.388   1.573   4.201
  546SOL    HW1 1666   1.455   1.585   4.127
  546SOL    HW2 1667   1.348   1.662   4.224
  547SOL     OW 1668   1.280   0.927   4.396
  547SOL    HW1 1669   1.340   0.846   4.398
  547SOL    HW2 1670   1.320   0.996   4.336
  548SOL     OW 1671   0.672   1.616   3.878
  548SOL    HW1 1672   0.681   1.626   3.779
  548SOL    HW2 1673   0.632   1.527   3.899
  549SOL     OW 1674   1.841   0.175   4.687
  549SOL    HW1 1675   1.880   0.090   4.651
  549SOL    HW2 1676   1.743   0.177   4.668
  550SOL     OW 1677   0.263   0.326   4.444
  550SOL    HW1 1678   0.184   0.377   4.410
  550SOL    HW2 1679   0.254   0.311   4.542
  551SOL     OW 1680   1.194   1.612   3.755
  551SOL    HW1 1681   1.200   1.519   3.792
  551SOL    HW2 1682   1.135   1.612   3.675
  552SOL     OW 1683   0.822   1.002   5.096
  552SOL    HW1 1684   0.862   1.001   5.004
  552SOL    HW2 1685   0.832   1.094   5.136
  553SOL     OW 1686   0.916   0.910   4.015
  553SOL    HW1 1687   0.979   0.948   3.947
  553SOL    HW2 1688   0.956   0.827   4.054
  554SOL     OW 1689   1.504   1.607   3.768
  554SOL    HW1 1690   1.412   1.644   3.775
  554SOL    HW2 1691   1.542   1.627   3.678
  555SOL     OW 1692   1.039   1.098   4.420
  555SOL    HW1 1693   0.969   1.051   4.474
  555SOL    HW2 1694   1.098   1.030   4.377
  556SOL     OW 1695   1.014   0.236   4.695
  556SOL    HW1 1696   1.006   0.200   4.602
  556SOL    HW2 1697   1.012   0.160   4.760
  557SOL     OW 1698   0.590   1.487   4.215
  557SOL    HW1 1699   0.632   1.429   4.145
  557SOL    HW2 1700   0.546   1.566   4.171
  558SOL     OW 1701   1.709   0.385   5.105
  558SOL    HW1 1702   1.782   0.454   5.109
  558SOL    HW2 1703   1.737   0.310   5.046
  559SOL     OW 1704   0.255   1.348   4.014
  559SOL    HW1 1705   0.159   1.349   3.987
  559SOL    HW2 1706   0.267   1.401   4.098
  560SOL     OW 1707   0.075   0.345   3.757
  560SOL    HW1 1708  -0.017   0.317   3.728
  560SOL    HW2 1709   0.106   0.422   3.701
  561SOL     OW 1710   0.072   0.166   4.042
  561SOL    HW1 1711   0.055   0.249   3.988
  561SOL    HW2 1712   0.162   0.129   4.020
  562SOL     OW 1713   1.183   1.335   3.843
  562SOL    HW1 1714   1.084   1.324   3.845
  562SOL    HW2 1715   1.217   1.350   3.936
  563SOL     OW 1716   1.493   1.767   4.683
  563SOL    HW1 1717   1.526   1.831   4.614
  563SOL    HW2 1718   1.559   1.761   4.758
  564SOL     OW 1719   1.450   1.220   5.357
  564SOL    HW1 1720   1.441   1.210   5.456
  564SOL    HW2 1721   1.546   1.213   5.331
  565SOL     OW 1722   0.390   1.741   5.284
  565SOL    HW1 1723   0.299   1.782   5.282
  565SOL    HW2 1724   0.383   1.647   5.316
  566SOL     OW 1725   1.674   0.883   4.978
  566SOL    HW1 1726   1.647   0.794   4.941
  566SOL    HW2 1727   1.675   0.951   4.905
  567SOL     OW 1728   1.225   0.325   4.173
  567SOL    HW1 1729   1.290   0.251   4.162
  567SOL    HW2 1730   1.245   0.375   4.257
  568SOL     OW 1731   0.594   0.745   4.376
  568SOL    HW1 1732   0.644   0.830   4.357
  568SOL    HW2 1733   0.506   0.747   4.328
  569SOL     OW 1734   1.730   0.934   5.241
  569SOL    HW1 1735   1.768   1.025   5.256
  569SOL    HW2 1736   1.722   0.917   5.142
  570SOL     OW 1737   0.859   1.374   3.740
  570SOL    HW1 1738   0.813   1.389   3.828
  570SOL    HW2 1739   0.903   1.459   3.710
  571SOL     OW 1740   0.661   1.790   4.677
  571SOL    HW1 1741   0.615   1.878   4.664
  571SOL    HW2 1742   0.760   1.802   4.670
  572SOL     OW 1743   0.859   0.956   4.585
  572SOL    HW1 1744   0.913   0.887   4.633
  572SOL    HW2 1745   0.827   1.025   4.651
  573SOL     OW 1746   1.083   0.984   3.811
  573SOL    HW1 1747   1.060   1.037   3.729
  573SOL    HW2 1748   1.164   0.928   3.792
  574SOL     OW 1749   1.861   1.569   4.575
  574SOL    HW1 1750   1.790   1.557   4.505
  574SOL    HW2 1751   1.862   1.490   4.635
  575SOL     OW 1752   0.079   1.240   4.377
  575SOL    HW1 1753   0.078   1.193   4.465
  575SOL    HW2 1754   0.161   1.212   4.326
  576SOL     OW 1755   1.824   0.192   4.951
  576SOL    HW1 1756   1.820   0.102   4.995
  576SOL    HW2 1757   1.827   0.181   4.852
  577SOL     OW 1758   0.428   0.424   4.244
  577SOL    HW1 1759   0.458   0.352   4.182
  577SOL    HW2 1760   0.389   0.384   4.327
  578SOL     OW 1761   1.705   1.487   4.828
  578SOL    HW1 1762   1.612   1.462   4.801
  578SOL    HW2 1763   1.731   1.437   4.910
  579SOL     OW 1764   0.317   0.547   5.004
  579SOL    HW1 1765   0.355   0.488   5.076
  579SOL    HW2 1766   0.357   0.521   4.916
  580SOL     OW 1767   0.812   1.586   4.411
  580SOL    HW1 1768   0.844   1.596   4.317
  580SOL    HW2 1769   0.733   1.524   4.413
  581SOL     OW 1770   1.424   0.214   4.836
  581SOL    HW1 1771   1.476   0.149   4.891
  581SOL    HW2 1772   1.375   0.277   4.897
  582SOL     OW 1773   1.001   0.034   4.878
  582SOL    HW1 1774   0.938  -0.038   4.847
  582SOL    HW2 1775   1.094  -0.002   4.878
  583SOL     OW 1776   0.770   1.330   4.025
  583SOL    HW1 1777   0.724   1.243   4.042
  583SOL    HW2 1778   0.861   1.327   4.066
  584SOL     OW 1779   1.352   0.052   3.892
  584SOL    HW1 1780   1.387   0.011   3.808
  584SOL    HW2 1781   1.262   0.014   3.912
  585SOL     OW 1782   1.300   0.453   4.415
  585SOL    HW1 1783   1.241   0.533   4.419
  585SOL    HW2 1784   1.315   0.418   4.508
  586SOL     OW 1785   1.593   0.221   4.606
  586SOL    HW1 1786   1.509   0.220   4.660
  586SOL    HW2 1787   1.595   0.304   4.550
  587SOL     OW 1788   0.039   1.077   4.024
  587SOL    HW1 1789   0.138   1.066   4.015
  587SOL    HW2 1790  -0.001   0.991   4.056
  588SOL     OW 1791   0.875   1.646   4.061
  588SOL    HW1 1792   0.798   1.611   4.007
  588SOL    HW2 1793   0.843   1.717   4.123
  589SOL     OW 1794   0.230   2.490   0.113
  589SOL    HW1 1795   0.137   2.488   0.150
  589SOL    HW2 1796   0.231   2.451   0.021
  590SOL     OW 1797   0.225   2.137   0.996
  590SOL    HW1 1798   0.260   2.120   1.088
  590SOL    HW2 1799   0.137   2.092   0.984
  591SOL     OW 1800   0.019   2.230   0.647
  591SOL    HW1 1801  -0.063   2.273   0.686
  591SOL    HW2 1802  -0.009   2.157   0.584
  592SOL     OW 1803   0.569   3.137   1.165
  592SOL    HW1 1804   0.476   3.130   1.128
  592SOL    HW2 1805   0.580   3.226   1.209
  593SOL     OW 1806   1.555   3.373   0.703
  593SOL    HW1 1807   1.498   3.357   0.784
  593SOL    HW2 1808   1.496   3.383   0.623
  594SOL     OW 1809   1.135   2.565   0.717
  594SOL    HW1 1810   1.192   2.643   0.692
  594SOL    HW2 1811   1.075   2.591   0.793
  595SOL     OW 1812   1.755   2.469   0.231
  595SOL    HW1 1813   1.743   2.456   0.132
  595SOL    HW2 1814   1.725   2.388   0.280
  596SOL     OW 1815   0.768   3.006   1.023
  596SOL    HW1 1816   0.690   3.023   1.083
  596SOL    HW2 1817   0.802   3.093   0.987
  597SOL     OW 1818   0.850   2.660   1.823
  597SOL    HW1 1819   0.846   2.736   1.888
  597SOL    HW2 1820   0.872   2.696   1.732
  598SOL     OW 1821   0.685   2.874   0.665
  598SOL    HW1 1822   0.754   2.858   0.735
  598SOL    HW2 1823   0.612   2.931   0.703
  599SOL     OW 1824   0.686   3.023   1.803
  599SOL    HW1 1825   0.746   3.102   1.817
  599SOL    HW2 1826   0.600   3.054   1.762
  600SOL     OW 1827   0.335   3.297   1.061
  600SOL    HW1 1828   0.257   3.266   1.008
  600SOL    HW2 1829   0.393   3.355   1.004
  601SOL     OW 1830   1.460   3.367   1.339
  601SOL    HW1 1831   1.484   3.461   1.365
  601SOL    HW2 1832   1.444   3.313   1.421
  602SOL     OW 1833   0.438   2.254   1.499
  602SOL    HW1 1834   0.520   2.198   1.508
  602SOL    HW2 1835   0.357   2.196   1.503
  603SOL     OW 1836   1.603   2.309   0.737
  603SOL    HW1 1837   1.529   2.355   0.687
  603SOL    HW2 1838   1.654   2.377   0.790
  604SOL     OW 1839   0.231   3.575   0.483
  604SOL    HW1 1840   0.265   3.652   0.537
  604SOL    HW2 1841   0.275   3.575   0.393
  605SOL     OW 1842   1.127   3.203   1.690
  605SOL    HW1 1843   1.174   3.203   1.778
  605SOL    HW2 1844   1.079   3.116   1.679
  606SOL     OW 1845   0.230   3.296   0.538
  606SOL    HW1 1846   0.204   3.392   0.538
  606SOL    HW2 1847   0.159   3.242   0.583
  607SOL     OW 1848   0.240   2.953   0.886
  607SOL    HW1 1849   0.254   2.869   0.938
  607SOL    HW2 1850   0.185   3.017   0.941
  608SOL     OW 1851   0.620   3.648   1.439
  608SOL    HW1 1852   0.528   3.631   1.474
  608SOL    HW2 1853   0.648   3.740   1.465
  609SOL     OW 1854   0.606   2.826   0.123
  609SOL    HW1 1855   0.613   2.910   0.069
  609SOL    HW2 1856   0.652   2.839   0.211
  610SOL     OW 1857   1.594   1.976   1.480
  610SOL    HW1 1858   1.576   2.043   1.408
  610SOL    HW2 1859   1.591   2.022   1.569
  611SOL     OW 1860   0.122   2.505   0.563
  611SOL    HW1 1861   0.077   2.417   0.580
  611SOL    HW2 1862   0.121   2.559   0.647
  612SOL     OW 1863   1.842   3.629   0.359
  612SOL    HW1 1864   1.896   3.600   0.439
  612SOL    HW2 1865   1.872   3.719   0.330
  613SOL     OW 1866   0.027   3.458   0.117
  613SOL    HW1 1867   0.008   3.362   0.138
  613SOL    HW2 1868  -0.006   3.516   0.192
  614SOL     OW 1869   1.689   2.784   0.612
  614SOL    HW1 1870   1.784   2.755   0.620
  614SOL    HW2 1871   1.681   2.849   0.537
  615SOL     OW 1872   1.641   2.970   0.432
  615SOL    HW1 1873   1.727   2.972   0.380
  615SOL    HW2 1874   1.655   3.017   0.520
  616SOL     OW 1875   0.113   2.599   1.597
  616SOL    HW1 1876   0.201   2.586   1.642
  616SOL    HW2 1877   0.100   2.696   1.575
  617SOL     OW 1878   0.613   3.227   0.726
  617SOL    HW1 1879   0.564   3.140   0.735
  617SOL    HW2 1880   0.590   3.270   0.639
  618SOL     OW 1881   1.293   3.090   1.423
  618SOL    HW1 1882   1.330   3.017   1.365
  618SOL    HW2 1883   1.345   3.095   1.508
  619SOL     OW 1884   0.809   1.866   0.502
  619SOL    HW1 1885   0.849   1.957   0.493
  619SOL    HW2 1886   0.709   1.874   0.508
  620SOL     OW 1887   0.197   2.838   1.264
  620SOL    HW1 1888   0.286   2.793   1.250
  620SOL    HW2 1889   0.124   2.773   1.245
  621SOL     OW 1890   1.525   2.861   0.190
  621SOL    HW1 1891   1.462   2.785   0.203
  621SOL    HW2 1892   1.573   2.879   0.276
  622SOL     OW 1893   1.187   3.654   1.616
  622SOL    HW1 1894   1.211   3.714   1.540
  622SOL    HW2 1895   1.194   3.559   1.586
  623SOL     OW 1896   0.317   2.113   1.801
  623SOL    HW1 1897   0.388   2.184   1.807
  623SOL    HW2 1898   0.229   2.152   1.829
  624SOL     OW 1899   1.466   3.279   0.953
  624SOL    HW1 1900   1.407   3.285   1.033
  624SOL    HW2 1901   1.451   3.191   0.907
  625SOL     OW 1902   1.667   3.576   0.572
  625SOL    HW1 1903   1.626   3.553   0.484
  625SOL    HW2 1904   1.649   3.502   0.637
  626SOL     OW 1905   0.598   2.591   0.270
  626SOL    HW1 1906   0.622   2.660   0.202
  626SOL    HW2 1907   0.520   2.624   0.324
  627SOL     OW 1908   1.281   2.207   0.944
  627SOL    HW1 1909   1.195   2.157   0.931
  627SOL    HW2 1910   1.343   2.153   1.000
  628SOL     OW 1911   1.576   3.524   0.307
  628SOL    HW1 1912   1.665   3.570   0.310
  628SOL    HW2 1913   1.555   3.500   0.212
  629SOL     OW 1914   0.807   2.467   1.465
  629SOL    HW1 1915   0.760   2.464   1.554
  629SOL    HW2 1916   0.756   2.412   1.399
  630SOL     OW 1917   1.394   2.331   1.674
  630SOL    HW1 1918   1.374   2.374   1.762
  630SOL    HW2 1919   1.472   2.269   1.683
  631SOL     OW 1920   0.973   2.752   1.572
  631SOL    HW1 1921   1.019   2.668   1.543
  631SOL    HW2 1922   0.917   2.786   1.497
  632SOL     OW 1923   0.991   2.272   1.242
  632SOL    HW1 1924   0.914   2.306   1.296
  632SOL    HW2 1925   0.957   2.221   1.163
  633SOL     OW 1926   1.041   2.563   0.429
  633SOL    HW1 1927   1.067   2.559   0.525
  633SOL    HW2 1928   0.956   2.512   0.415
  634SOL     OW 1929   0.076   2.673   0.789
  634SOL    HW1 1930   0.175   2.661   0.798
  634SOL    HW2 1931   0.052   2.768   0.810
  635SOL     OW 1932   0.130   3.683   1.571
  635SOL    HW1 1933   0.120   3.668   1.670
  635SOL    HW2 1934   0.044   3.719   1.535
  636SOL     OW 1935   0.865   2.210   0.195
  636SOL    HW1 1936   0.924   2.273   0.146
  636SOL    HW2 1937   0.884   2.116   0.166
  637SOL     OW 1938   1.719   2.447   1.831
  637SOL    HW1 1939   1.693   2.536   1.795
  637SOL    HW2 1940   1.717   2.379   1.758
  638SOL     OW 1941   1.362   3.006   0.545
  638SOL    HW1 1942   1.445   2.977   0.497
  638SOL    HW2 1943   1.313   3.073   0.489
  639SOL     OW 1944   0.550   2.058   0.885
  639SOL    HW1 1945   0.545   2.053   0.985
  639SOL    HW2 1946   0.552   2.154   0.856
  640SOL     OW 1947   1.008   3.318   0.477
  640SOL    HW1 1948   0.962   3.390   0.425
  640SOL    HW2 1949   1.004   3.338   0.575
  641SOL     OW 1950   0.351   3.663   0.853
  641SOL    HW1 1951   0.401   3.577   0.859
  641SOL    HW2 1952   0.416   3.740   0.850
  642SOL     OW 1953   1.795   2.928   0.873
  642SOL    HW1 1954   1.733   2.913   0.797
  642SOL    HW2 1955   1.743   2.939   0.958
  643SOL     OW 1956   1.227   3.412   1.506
  643SOL    HW1 1957   1.233   3.335   1.570
  643SOL    HW2 1958   1.175   3.386   1.426
  644SOL     OW 1959   0.321   2.805   0.242
  644SOL    HW1 1960   0.403   2.844   0.200
  644SOL    HW2 1961   0.294   2.723   0.193
  645SOL     OW 1962   1.458   2.597   0.728
  645SOL    HW1 1963   1.453   2.532   0.803
  645SOL    HW2 1964   1.538   2.656   0.741
  646SOL     OW 1965   0.461   3.128   1.727
  646SOL    HW1 1966   0.411   3.129   1.641
  646SOL    HW2 1967   0.398   3.110   1.803
  647SOL     OW 1968   1.111   3.638   0.237
  647SOL    HW1 1969   1.051   3.576   0.287
  647SOL    HW2 1970   1.142   3.594   0.152
  648SOL     OW 1971   0.202   2.147   1.498
  648SOL    HW1 1972   0.122   2.207   1.485
  648SOL    HW2 1973   0.192   2.098   1.584
  649SOL     OW 1974   1.632   3.239   0.081
  649SOL    HW1 1975   1.600   3.333   0.071
  649SOL    HW2 1976   1.556   3.176   0.069
  650SOL     OW 1977   0.464   3.605   0.323
  650SOL    HW1 1978   0.497   3.644   0.409
  650SOL    HW2 1979   0.540   3.598   0.258
  651SOL     OW 1980   1.400   1.969   0.426
  651SOL    HW1 1981   1.376   1.932   0.336
  651SOL    HW2 1982   1.499   1.985   0.430
  652SOL     OW 1983   0.249   3.647   1.241
  652SOL    HW1 1984   0.306   3.582   1.291
  652SOL    HW2 1985   0.233   3.614   1.148
  653SOL     OW 1986   0.940   3.560   0.904
  653SOL    HW1 1987   1.020   3.503   0.925
  653SOL    HW2 1988   0.891   3.520   0.827
  654SOL     OW 1989   0.382   2.562   0.480
  654SOL    HW1 1990   0.427   2.472   0.477
  654SOL    HW2 1991   0.288   2.551   0.513
  655SOL     OW 1992   1.547   2.084   1.729
  655SOL    HW1 1993   1.542   2.121   1.821
  655SOL    HW2 1994   1.475   2.015   1.717
  656SOL     OW 1995   0.781   2.126   1.749
  656SOL    HW1 1996   0.848   2.065   1.792
  656SOL    HW2 1997   0.708   2.145   1.814
  657SOL     OW 1998   0.888   3.376   1.195
  657SOL    HW1 1999   0.865   3.351   1.101
  657SOL    HW2 2000   0.949   3.307   1.234
  658SOL     OW 2001   1.351   2.452   1.433
  658SOL    HW1 2002   1.379   2.409   1.518
  658SOL    HW2 2003   1.376   2.548   1.434
  659SOL     OW 2004   0.803   3.264   0.924
  659SOL    HW1 2005   0.893   3.278   0.882
  659SOL    HW2 2006   0.732   3.266   0.853
  660SOL     OW 2007   0.922   2.365   0.899
  660SOL    HW1 2008   0.897   2.356   0.803
  660SOL    HW2 2009   0.970   2.283   0.930
  661SOL     OW 2010   0.539   1.926   0.512
  661SOL    HW1 2011   0.458   1.927   0.570
  661SOL    HW2 2012   0.542   2.009   0.457
  662SOL     OW 2013   1.434   3.050   0.041
  662SOL    HW1 2014   1.466   2.974   0.098
  662SOL    HW2 2015   1.342   3.077   0.071
  663SOL     OW 2016   0.935   2.098   0.480
  663SOL    HW1 2017   0.887   2.139   0.402
  663SOL    HW2 2018   1.034   2.096   0.461
  664SOL     OW 2019   1.076   2.545   1.464
  664SOL    HW1 2020   0.996   2.484   1.467
  664SOL    HW2 2021   1.157   2.492   1.440
  665SOL     OW 2022   1.227   3.432   0.793
  665SOL    HW1 2023   1.248   3.506   0.728
  665SOL    HW2 2024   1.295   3.432   0.866
  666SOL     OW 2025   0.459   3.014   0.741
  666SOL    HW1 2026   0.388   2.987   0.806
  666SOL    HW2 2027   0.433   2.986   0.648
  667SOL     OW 2028   1.271   3.659   0.591
  667SOL    HW1 2029   1.315   3.723   0.527
  667SOL    HW2 2030   1.221   3.711   0.661
  668SOL     OW 2031   1.032   2.411   0.016
  668SOL    HW1 2032   0.991   2.493  -0.023
  668SOL    HW2 2033   1.096   2.437   0.089
  669SOL     OW 2034   0.078   2.418   1.386
  669SOL    HW1 2035   0.170   2.417   1.345
  669SOL    HW2 2036   0.072   2.492   1.453
  670SOL     OW 2037   0.561   2.084   1.147
  670SOL    HW1 2038   0.599   2.000   1.184
  670SOL    HW2 2039   0.473   2.103   1.191
  671SOL     OW 2040   0.866   2.316   0.642
  671SOL    HW1 2041   0.834   2.388   0.580
  671SOL    HW2 2042   0.890   2.235   0.589
  672SOL     OW 2043   1.017   1.901   0.753
  672SOL    HW1 2044   0.945   1.906   0.684
  672SOL    HW2 2045   0.993   1.832   0.822
  673SOL     OW 2046   1.429   3.035   0.867
  673SOL    HW1 2047   1.374   2.951   0.860
  673SOL    HW2 2048   1.455   3.064   0.775
  674SOL     OW 2049   1.466   2.452   0.992
  674SOL    HW1 2050   1.436   2.357   0.999
  674SOL    HW2 2051   1.539   2.468   1.058
  675SOL     OW 2052   1.857   2.695   0.377
  675SOL    HW1 2053   1.899   2.631   0.441
  675SOL    HW2 2054   1.819   2.644   0.299
  676SOL     OW 2055   0.488   3.247   0.174
  676SOL    HW1 2056   0.401   3.232   0.221
  676SOL    HW2 2057   0.471   3.273   0.079
  677SOL     OW 2058   1.664   3.142   0.657
  677SOL    HW1 2059   1.763   3.150   0.671
  677SOL    HW2 2060   1.619   3.226   0.688
  678SOL     OW 2061   1.390   2.437   0.078
  678SOL    HW1 2062   1.336   2.416   0.159
  678SOL    HW2 2063   1.481   2.396   0.087
  679SOL     OW 2064   0.527   2.118   0.328
  679SOL    HW1 2065   0.554   2.059   0.253
  679SOL    HW2 2066   0.527   2.213   0.297
  680SOL     OW 2067   1.754   3.085   1.588
  680SOL    HW1 2068   1.845   3.046   1.575
  680SOL    HW2 2069   1.762   3.181   1.612
  681SOL     OW 2070   1.064   3.209   1.340
  681SOL    HW1 2071   0.984   3.186   1.395
  681SOL    HW2 2072   1.147   3.183   1.389
  682SOL     OW 2073   1.592   3.491   1.625
  682SOL    HW1 2074   1.619   3.525   1.535
  682SOL    HW2 2075   1.671   3.453   1.671
  683SOL     OW 2076   1.111   3.057   1.100
  683SOL    HW1 2077   1.071   3.101   1.181
  683SOL    HW2 2078   1.070   3.094   1.017
  684SOL     OW 2079   1.638   2.961   1.079
  684SOL    HW1 2080   1.643   3.042   1.138
  684SOL    HW2 2081   1.552   2.963   1.028
  685SOL     OW 2082   0.915   1.951   1.402
  685SOL    HW1 2083   0.940   1.931   1.307
  685SOL    HW2 2084   0.987   2.007   1.444
  686SOL     OW 2085   0.980   2.978   1.719
  686SOL    HW1 2086   0.881   2.984   1.729
  686SOL    HW2 2087   1.003   2.898   1.663
  687SOL     OW 2088   0.705   2.912   0.368
  687SOL    HW1 2089   0.691   2.919   0.467
  687SOL    HW2 2090   0.789   2.861   0.350
  688SOL     OW 2091   0.410   2.675   1.251
  688SOL    HW1 2092   0.496   2.687   1.301
  688SOL    HW2 2093   0.368   2.588   1.278
  689SOL     OW 2094   1.274   2.248   1.262
  689SOL    HW1 2095   1.295   2.322   1.326
  689SOL    HW2 2096   1.185   2.265   1.219
  690SOL     OW 2097   0.064   3.426   1.331
  690SOL    HW1 2098   0.018   3.508   1.297
  690SOL    HW2 2099   0.162   3.445   1.340
  691SOL     OW 2100   0.367   2.962   0.501
  691SOL    HW1 2101   0.360   3.045   0.445
  691SOL    HW2 2102   0.371   2.882   0.441
  692SOL     OW 2103   0.566   2.399   0.865
  692SOL    HW1 2104   0.578   2.465   0.791
  692SOL    HW2 2105   0.612   2.433   0.948
  693SOL     OW 2106   1.252   3.210   0.388
  693SOL    HW1 2107   1.302   3.287   0.428
  693SOL    HW2 2108   1.157   3.212   0.420
  694SOL     OW 2109   1.272   3.307   1.142
  694SOL    HW1 2110   1.319   3.320   1.229
  694SOL    HW2 2111   1.206   3.233   1.151
  695SOL     OW 2112   1.582   2.501   0.472
  695SOL    HW1 2113   1.551   2.562   0.545
  695SOL    HW2 2114   1.632   2.553   0.403
  696SOL     OW 2115   0.354   3.372   1.329
  696SOL    HW1 2116   0.333   3.328   1.242
  696SOL    HW2 2117   0.451   3.398   1.332
  697SOL     OW 2118   0.402   2.613   1.598
  697SOL    HW1 2119   0.470   2.668   1.551
  697SOL    HW2 2120   0.442   2.525   1.625
  698SOL     OW 2121   1.587   2.641   1.670
  698SOL    HW1 2122   1.495   2.679   1.665
  698SOL    HW2 2123   1.647   2.688   1.605
  699SOL     OW 2124   1.013   1.967   1.770
  699SOL    HW1 2125   1.019   2.052   1.718
  699SOL    HW2 2126   1.045   1.891   1.713
  700SOL     OW 2127   0.504   1.912   1.740
  700SOL    HW1 2128   0.462   1.855   1.670
  700SOL    HW2 2129   0.438   1.981   1.772
  701SOL     OW 2130   0.573   2.732   1.029
  701SOL    HW1 2131   0.617   2.821   1.020
  701SOL    HW2 2132   0.510   2.732   1.106
  702SOL     OW 2133   1.360   2.724   1.045
  702SOL    HW1 2134   1.285   2.724   0.979
  702SOL    HW2 2135   1.397   2.632   1.054
  703SOL     OW 2136   1.209   2.387   0.275
  703SOL    HW1 2137   1.222   2.303   0.329
  703SOL    HW2 2138   1.180   2.461   0.335
  704SOL     OW 2139   0.307   2.075   1.231
  704SOL    HW1 2140   0.284   2.112   1.321
  704SOL    HW2 2141   0.277   1.980   1.225
  705SOL     OW 2142   0.037   3.172   1.282
  705SOL    HW1 2143   0.090   3.123   1.350
  705SOL    HW2 2144   0.059   3.270   1.287
  706SOL     OW 2145   0.732   2.496   1.064
  706SOL    HW1 2146   0.791   2.470   0.988
  706SOL    HW2 2147   0.704   2.592   1.053
  707SOL     OW 2148   1.728   2.797   1.854
  707SOL    HW1 2149   1.682   2.790   1.765
  707SOL    HW2 2150   1.666   2.841   1.920
  708SOL     OW 2151   0.307   1.925   0.618
  708SOL    HW1 2152   0.296   2.019   0.651
  708SOL    HW2 2153   0.302   1.862   0.695
  709SOL     OW 2154   1.622   2.229   0.374
  709SOL    HW1 2155   1.624   2.153   0.438
  709SOL    HW2 2156   1.574   2.306   0.414
  710SOL     OW 2157   1.023   2.628   0.966
  710SOL    HW1 2158   1.038   2.649   1.062
  710SOL    HW2 2159   0.993   2.533   0.957
  711SOL     OW 2160   0.980   3.435   1.700
  711SOL    HW1 2161   0.960   3.479   1.612
  711SOL    HW2 2162   1.019   3.344   1.684
  712SOL     OW 2163   1.859   3.380   1.605
  712SOL    HW1 2164   1.873   3.407   1.510
  712SOL    HW2 2165   1.942   3.402   1.658
  713SOL     OW 2166   0.350   2.760   1.804
  713SOL    HW1 2167   0.426   2.804   1.852
  713SOL    HW2 2168   0.385   2.713   1.722
  714SOL     OW 2169   1.540   2.136   0.125
  714SOL    HW1 2170   1.479   2.061   0.148
  714SOL    HW2 2171   1.562   2.188   0.208
  715SOL     OW 2172   1.303   2.700   0.042
  715SOL    HW1 2173   1.337   2.607   0.057
  715SOL    HW2 2174   1.321   2.727  -0.053
  716SOL     OW 2175   1.068   3.195   0.849
  716SOL    HW1 2176   1.075   3.111   0.794
  716SOL    HW2 2177   1.130   3.264   0.813
  717SOL     OW 2178   0.319   2.672   0.949
  717SOL    HW1 2179   0.412   2.708   0.954
  717SOL    HW2 2180   0.313   2.587   1.001
  718SOL     OW 2181   0.339   2.371   1.006
  718SOL    HW1 2182   0.287   2.288   0.989
  718SOL    HW2 2183   0.416   2.376   0.942
  719SOL     OW 2184   1.138   2.242   1.678
  719SOL    HW1 2185   1.093   2.305   1.742
  719SOL    HW2 2186   1.231   2.273   1.661
  720SOL     OW 2187   1.160   2.069   1.477
  720SOL    HW1 2188   1.160   2.133   1.554
  720SOL    HW2 2189   1.188   2.117   1.394
  721SOL     OW 2190   0.008   3.188   0.200
  721SOL    HW1 2191  -0.085   3.209   0.169
  721SOL    HW2 2192   0.018   3.089   0.213
  722SOL     OW 2193   0.088   3.663   0.927
  722SOL    HW1 2194   0.046   3.577   0.900
  722SOL    HW2 2195   0.182   3.666   0.893
  723SOL     OW 2196   0.504   3.430   0.910
  723SOL    HW1 2197   0.570   3.504   0.919
  723SOL    HW2 2198   0.548   3.351   0.868
  724SOL     OW 2199   1.002   2.658   1.238
  724SOL    HW1 2200   1.043   2.626   1.324
  724SOL    HW2 2201   0.906   2.631   1.235
  725SOL     OW 2202   0.040   2.406   1.114
  725SOL    HW1 2203   0.125   2.373   1.073
  725SOL    HW2 2204   0.053   2.421   1.212
  726SOL     OW 2205   0.189   2.382   1.722
  726SOL    HW1 2206   0.248   2.342   1.652
  726SOL    HW2 2207   0.131   2.453   1.681
  727SOL     OW 2208   1.369   2.812   1.660
  727SOL    HW1 2209   1.408   2.901   1.680
  727SOL    HW2 2210   1.379   2.792   1.563
  728SOL     OW 2211   0.815   2.434   0.325
  728SOL    HW1 2212   0.822   2.345   0.279
  728SOL    HW2 2213   0.721   2.468   0.317
  729SOL     OW 2214   1.657   2.466   1.206
  729SOL    HW1 2215   1.619   2.397   1.268
  729SOL    HW2 2216   1.739   2.430   1.162
  730SOL     OW 2217   0.252   3.426   1.744
  730SOL    HW1 2218   0.222   3.483   1.820
  730SOL    HW2 2219   0.245   3.329   1.770
  731SOL     OW 2220   0.671   2.326   1.269
  731SOL    HW1 2221   0.637   2.237   1.239
  731SOL    HW2 2222   0.697   2.380   1.189
  732SOL     OW 2223   0.930   3.540   1.465
  732SOL    HW1 2224   0.906   3.522   1.370
  732SOL    HW2 2225   0.960   3.634   1.475
  733SOL     OW 2226   0.473   2.362   0.191
  733SOL    HW1 2227   0.534   2.442   0.195
  733SOL    HW2 2228   0.378   2.393   0.198
  734SOL     OW 2229   0.159   2.999   1.466
  734SOL    HW1 2230   0.181   2.938   1.542
  734SOL    HW2 2231   0.169   2.950   1.380
  735SOL     OW 2232   1.347   2.921   1.234
  735SOL    HW1 2233   1.371   2.858   1.160
  735SOL    HW2 2234   1.257   2.961   1.216
  736SOL     OW 2235   1.302   2.717   0.309
  736SOL    HW1 2236   1.216   2.686   0.351
  736SOL    HW2 2237   1.298   2.703   0.210
  737SOL     OW 2238   1.759   3.609   1.154
  737SOL    HW1 2239   1.820   3.639   1.081
  737SOL    HW2 2240   1.721   3.520   1.132
  738SOL     OW 2241   1.252   3.593   1.128
  738SOL    HW1 2242   1.336   3.598   1.074
  738SOL    HW2 2243   1.229   3.497   1.146
  739SOL     OW 2244   0.083   3.120   1.022
  739SOL    HW1 2245   0.078   3.119   1.122
  739SOL    HW2 2246   0.000   3.079   0.984
  740SOL     OW 2247   0.688   3.524   1.716
  740SOL    HW1 2248   0.632   3.605   1.725
  740SOL    HW2 2249   0.740   3.528   1.630
  741SOL     OW 2250   0.903   1.948   0.133
  741SOL    HW1 2251   0.954   1.949   0.047
  741SOL    HW2 2252   0.959   1.906   0.204
  742SOL     OW 2253   1.726   1.997   0.523
  742SOL    HW1 2254   1.799   1.980   0.456
  742SOL    HW2 2255   1.695   1.910   0.561
  743SOL     OW 2256   1.388   3.435   0.477
  743SOL    HW1 2257   1.455   3.447   0.403
  743SOL    HW2 2258   1.348   3.524   0.500
  744SOL     OW 2259   0.130   3.656   1.851
  744SOL    HW1 2260   0.089   3.582   1.904
  744SOL    HW2 2261   0.194   3.707   1.909
  745SOL     OW 2262   1.280   2.789   0.672
  745SOL    HW1 2263   1.340   2.708   0.674
  745SOL    HW2 2264   1.320   2.858   0.612
  746SOL     OW 2265   0.830   3.135   1.422
  746SOL    HW1 2266   0.825   3.168   1.517
  746SOL    HW2 2267   0.744   3.154   1.376
  747SOL     OW 2268   0.672   3.478   0.154
  747SOL    HW1 2269   0.681   3.488   0.055
  747SOL    HW2 2270   0.632   3.389   0.175
  748SOL     OW 2271   1.650   3.582   1.394
  748SOL    HW1 2272   1.703   3.592   1.310
  748SOL    HW2 2273   1.623   3.672   1.428
  749SOL     OW 2274   1.841   2.037   0.963
  749SOL    HW1 2275   1.880   1.952   0.927
  749SOL    HW2 2276   1.743   2.039   0.944
  750SOL     OW 2277   0.263   2.188   0.720
  750SOL    HW1 2278   0.184   2.239   0.686
  750SOL    HW2 2279   0.254   2.173   0.818
  751SOL     OW 2280   1.194   3.474   0.031
  751SOL    HW1 2281   1.200   3.381   0.068
  751SOL    HW2 2282   1.135   3.474  -0.049
  752SOL     OW 2283   0.822   2.864   1.372
  752SOL    HW1 2284   0.862   2.863   1.280
  752SOL    HW2 2285   0.832   2.956   1.412
  753SOL     OW 2286   0.916   2.772   0.291
  753SOL    HW1 2287   0.979   2.810   0.223
  753SOL    HW2 2288   0.956   2.689   0.330
  754SOL     OW 2289   1.504   3.469   0.044
  754SOL    HW1 2290   1.412   3.506   0.051
  754SOL    HW2 2291   1.542   3.489  -0.046
  755SOL     OW 2292   0.372   3.150   1.490
  755SOL    HW1 2293   0.359   3.243   1.456
  755SOL    HW2 2294   0.288   3.098   1.477
  756SOL     OW 2295   1.614   3.154   1.289
  756SOL    HW1 2296   1.674   3.157   1.369
  756SOL    HW2 2297   1.539   3.218   1.302
  757SOL     OW 2298   1.039   2.960   0.696
  757SOL    HW1 2299   0.969   2.913   0.750
  757SOL    HW2 2300   1.098   2.892   0.653
  758SOL     OW 2301   1.014   2.098   0.971
  758SOL    HW1 2302   1.006   2.062   0.878
  758SOL    HW2 2303   1.012   2.022   1.036
  759SOL     OW 2304   0.590   3.349   0.491
  759SOL    HW1 2305   0.632   3.291   0.421
  759SOL    HW2 2306   0.546   3.428   0.447
  760SOL     OW 2307   1.709   2.247   1.381
  760SOL    HW1 2308   1.782   2.316   1.385
  760SOL    HW2 2309   1.737   2.172   1.322
  761SOL     OW 2310   0.255   3.210   0.290
  761SOL    HW1 2311   0.159   3.211   0.263
  761SOL    HW2 2312   0.267   3.263   0.374
  762SOL     OW 2313   0.105   2.875   1.726
  762SOL    HW1 2314   0.028   2.842   1.780
  762SOL    HW2 2315   0.190   2.845   1.768
  763SOL     OW 2316   0.672   2.065   1.489
  763SOL    HW1 2317   0.762   2.049   1.449
  763SOL    HW2 2318   0.680   2.070   1.588
  764SOL     OW 2319   0.075   2.207   0.033
  764SOL    HW1 2320  -0.017   2.179   0.004
  764SOL    HW2 2321   0.106   2.284  -0.023
  765SOL     OW 2322   1.440   2.718   1.398
  765SOL    HW1 2323   1.383   2.770   1.335
  765SOL    HW2 2324   1.536   2.730   1.374
  766SOL     OW 2325   0.072   2.028   0.318
  766SOL    HW1 2326   0.055   2.111   0.264
  766SOL    HW2 2327   0.162   1.991   0.296
  767SOL     OW 2328   1.183   3.197   0.119
  767SOL    HW1 2329   1.084   3.186   0.121
  767SOL    HW2 2330   1.217   3.212   0.212
  768SOL     OW 2331   0.613   2.704   1.431
  768SOL    HW1 2332   0.669   2.785   1.414
  768SOL    HW2 2333   0.672   2.624   1.434
  769SOL     OW 2334   1.493   3.629   0.959
  769SOL    HW1 2335   1.526   3.693   0.890
  769SOL    HW2 2336   1.559   3.623   1.034
  770SOL     OW 2337   0.716   2.427   1.708
  770SOL    HW1 2338   0.735   2.492   1.782
  770SOL    HW2 2339   0.776   2.347   1.717
  771SOL     OW 2340   1.450   3.082   1.633
  771SOL    HW1 2341   1.441   3.072   1.732
  771SOL    HW2 2342   1.546   3.075   1.607
  772SOL     OW 2343   0.390   3.603   1.560
  772SOL    HW1 2344   0.299   3.644   1.558
  772SOL    HW2 2345   0.383   3.509   1.592
  773SOL     OW 2346   1.674   2.745   1.254
  773SOL    HW1 2347   1.647   2.656   1.217
  773SOL    HW2 2348   1.675   2.813   1.181
  774SOL     OW 2349   1.225   2.187   0.449
  774SOL    HW1 2350   1.290   2.113   0.438
  774SOL    HW2 2351   1.245   2.237   0.533
  775SOL     OW 2352   0.594   2.607   0.652
  775SOL    HW1 2353   0.644   2.692   0.633
  775SOL    HW2 2354   0.506   2.609   0.604
  776SOL     OW 2355   1.777   2.204   1.642
  776SOL    HW1 2356   1.760   2.235   1.548
  776SOL    HW2 2357   1.693   2.167   1.680
  777SOL     OW 2358   1.730   2.796   1.517
  777SOL    HW1 2359   1.768   2.887   1.532
  777SOL    HW2 2360   1.722   2.779   1.418
  778SOL     OW 2361   0.859   3.236   0.016
  778SOL    HW1 2362   0.813   3.251   0.104
  778SOL    HW2 2363   0.903   3.321  -0.014
  779SOL     OW 2364   0.661   3.652   0.953
  779SOL    HW1 2365   0.615   3.740   0.940
  779SOL    HW2 2366   0.760   3.664   0.946
  780SOL     OW 2367   0.859   2.818   0.861
  780SOL    HW1 2368   0.913   2.749   0.909
  780SOL    HW2 2369   0.827   2.887   0.927
  781SOL     OW 2370   1.083   2.846   0.087
  781SOL    HW1 2371   1.060   2.899   0.005
  781SOL    HW2 2372   1.164   2.790   0.068
  782SOL     OW 2373   1.861   3.431   0.851
  782SOL    HW1 2374   1.790   3.419   0.781
  782SOL    HW2 2375   1.862   3.352   0.911
  783SOL     OW 2376   0.221   3.176   1.844
  783SOL    HW1 2377   0.156   3.103   1.823
  783SOL    HW2 2378   0.225   3.190   1.942
  784SOL     OW 2379   0.079   3.102   0.653
  784SOL    HW1 2380   0.078   3.055   0.741
  784SOL    HW2 2381   0.161   3.074   0.602
  785SOL     OW 2382   0.672   3.253   1.624
  785SOL    HW1 2383   0.594   3.203   1.662
  785SOL    HW2 2384   0.669   3.348   1.655
  786SOL     OW 2385   1.824   2.054   1.227
  786SOL    HW1 2386   1.820   1.964   1.271
  786SOL    HW2 2387   1.827   2.043   1.128
  787SOL     OW 2388   0.428   2.286   0.520
  787SOL    HW1 2389   0.458   2.214   0.458
  787SOL    HW2 2390   0.389   2.246   0.603
  788SOL     OW 2391   1.705   3.349   1.104
  788SOL    HW1 2392   1.612   3.324   1.077
  788SOL    HW2 2393   1.731   3.299   1.186
  789SOL     OW 2394   0.317   2.409   1.280
  789SOL    HW1 2395   0.355   2.350   1.352
  789SOL    HW2 2396   0.357   2.383   1.192
  790SOL     OW 2397   0.812   3.448   0.687
  790SOL    HW1 2398   0.844   3.458   0.593
  790SOL    HW2 2399   0.733   3.386   0.689
  791SOL     OW 2400   1.424   2.076   1.112
  791SOL    HW1 2401   1.476   2.011   1.167
  791SOL    HW2 2402   1.375   2.139   1.173
  792SOL     OW 2403   1.001   1.896   1.154
  792SOL    HW1 2404   0.938   1.824   1.123
  792SOL    HW2 2405   1.094   1.860   1.154
  793SOL     OW 2406   0.770   3.192   0.301
  793SOL    HW1 2407   0.724   3.105   0.318
  793SOL    HW2 2408   0.861   3.189   0.342
  794SOL     OW 2409   0.618   3.429   1.284
  794SOL    HW1 2410   0.613   3.511   1.341
  794SOL    HW2 2411   0.707   3.426   1.239
  795SOL     OW 2412   1.352   1.914   0.168
  795SOL    HW1 2413   1.387   1.873   0.084
  795SOL    HW2 2414   1.262   1.876   0.188
  796SOL     OW 2415   1.300   2.315   0.691
  796SOL    HW1 2416   1.241   2.395   0.695
  796SOL    HW2 2417   1.315   2.280   0.784
  797SOL     OW 2418   1.593   2.083   0.882
  797SOL    HW1 2419   1.509   2.082   0.936
  797SOL    HW2 2420   1.595   2.166   0.826
  798SOL     OW 2421   0.039   2.939   0.300
  798SOL    HW1 2422   0.138   2.928   0.291
  798SOL    HW2 2423  -0.001   2.853   0.332
  799SOL     OW 2424   0.875   3.508   0.337
  799SOL    HW1 2425   0.798   3.473   0.283
  799SOL    HW2 2426   0.843   3.579   0.399
  800SOL     OW 2427   0.230   2.490   1.975
  800SOL    HW1 2428   0.137   2.488   2.012
  800SOL    HW2 2429   0.231   2.451   1.883
  801SOL     OW 2430   0.225   2.137   2.858
  801SOL    HW1 2431   0.260   2.120   2.950
  801SOL    HW2 2432   0.137   2.092   2.846
  802SOL     OW 2433   0.019   2.230   2.509
  802SOL    HW1 2434  -0.063   2.273   2.548
  802SOL    HW2 2435  -0.009   2.157   2.446
  803SOL     OW 2436   0.569   3.137   3.027
  803SOL    HW1 2437   0.476   3.130   2.990
  803SOL    HW2 2438   0.580   3.226   3.071
  804SOL     OW 2439   1.555   3.373   2.565
  804SOL    HW1 2440   1.498   3.357   2.646
  804SOL    HW2 2441   1.496   3.383   2.485
  805SOL     OW 2442   1.135   2.565   2.579
  805SOL    HW1 2443   1.192   2.643   2.554
  805SOL    HW2 2444   1.075   2.591   2.655
  806SOL     OW 2445   1.755   2.469   2.093
  806SOL    HW1 2446   1.743   2.456   1.994
  806SOL    HW2 2447   1.725   2.388   2.142
  807SOL     OW 2448   0.768   3.006   2.885
  807SOL    HW1 2449   0.690   3.023   2.945
  807SOL    HW2 2450   0.802   3.093   2.849
  808SOL     OW 2451   0.850   2.660   3.685
  808SOL    HW1 2452   0.846   2.736   3.750
  808SOL    HW2 2453   0.872   2.696   3.594
  809SOL     OW 2454   0.685   2.874   2.527
  809SOL    HW1 2455   0.754   2.858   2.597
  809SOL    HW2 2456   0.612   2.931   2.565
  810SOL     OW 2457   0.686   3.023   3.665
  810SOL    HW1 2458   0.746   3.102   3.679
  810SOL    HW2 2459   0.600   3.054   3.624
  811SOL     OW 2460   0.335   3.297   2.923
  811SOL    HW1 2461   0.257   3.266   2.870
  811SOL    HW2 2462   0.393   3.355   2.866
  812SOL     OW 2463   1.460   3.367   3.201
  812SOL    HW1 2464   1.484   3.461   3.227
  812SOL    HW2 2465   1.444   3.313   3.283
  813SOL     OW 2466   0.438   2.254   3.361
  813SOL    HW1 2467   0.520   2.198   3.370
  813SOL    HW2 2468   0.357   2.196   3.365
  814SOL     OW 2469   1.603   2.309   2.599
  814SOL    HW1 2470   1.529   2.355   2.549
  814SOL    HW2 2471   1.654   2.377   2.652
  815SOL     OW 2472   0.231   3.575   2.345
  815SOL    HW1 2473   0.265   3.652   2.399
  815SOL    HW2 2474   0.275   3.575   2.255
  816SOL     OW 2475   1.127   3.203   3.552
  816SOL    HW1 2476   1.174   3.203   3.640
  816SOL    HW2 2477   1.079   3.116   3.541
  817SOL     OW 2478   0.230   3.296   2.400
  817SOL    HW1 2479   0.204   3.392   2.400
  817SOL    HW2 2480   0.159   3.242   2.445
  818SOL     OW 2481   0.240   2.953   2.748
  818SOL    HW1 2482   0.254   2.869   2.800
  818SOL    HW2 2483   0.185   3.017   2.803
  819SOL     OW 2484   0.620   3.648   3.301
  819SOL    HW1 2485   0.528   3.631   3.336
  819SOL    HW2 2486   0.648   3.740   3.327
  820SOL     OW 2487   0.606   2.826   1.985
  820SOL    HW1 2488   0.613   2.910   1.931
  820SOL    HW2 2489   0.652   2.839   2.073
  821SOL     OW 2490   1.594   1.976   3.342
  821SOL    HW1 2491   1.576   2.043   3.270
  821SOL    HW2 2492   1.591   2.022   3.431
  822SOL     OW 2493   0.122   2.505   2.425
  822SOL    HW1 2494   0.077   2.417   2.442
  822SOL    HW2 2495   0.121   2.559   2.509
  823SOL     OW 2496   1.842   3.629   2.221
  823SOL    HW1 2497   1.896   3.600   2.301
  823SOL    HW2 2498   1.872   3.719   2.192
  824SOL     OW 2499   0.027   3.458   1.979
  824SOL    HW1 2500   0.008   3.362   2.000
  824SOL    HW2 2501  -0.006   3.516   2.054
  825SOL     OW 2502   1.689   2.784   2.474
  825SOL    HW1 2503   1.784   2.755   2.482
  825SOL    HW2 2504   1.681   2.849   2.399
  826SOL     OW 2505   1.641   2.970   2.294
  826SOL    HW1 2506   1.727   2.972   2.242
  826SOL    HW2 2507   1.655   3.017   2.382
  827SOL     OW 2508   0.113   2.599   3.459
  827SOL    HW1 2509   0.201   2.586   3.504
  827SOL    HW2 2510   0.100   2.696   3.437
  828SOL     OW 2511   0.613   3.227   2.588
  828SOL    HW1 2512   0.564   3.140   2.597
  828SOL    HW2 2513   0.590   3.270   2.501
  829SOL     OW 2514   1.293   3.090   3.285
  829SOL    HW1 2515   1.330   3.017   3.227
  829SOL    HW2 2516   1.345   3.095   3.370
  830SOL     OW 2517   0.809   1.866   2.364
  830SOL    HW1 2518   0.849   1.957   2.355
  830SOL    HW2 2519   0.709   1.874   2.370
  831SOL     OW 2520   0.197   2.838   3.126
  831SOL    HW1 2521   0.286   2.793   3.112
  831SOL    HW2 2522   0.124   2.773   3.107
  832SOL     OW 2523   1.525   2.861   2.052
  832SOL    HW1 2524   1.462   2.785   2.065
  832SOL    HW2 2525   1.573   2.879   2.138
  833SOL     OW 2526   1.187   3.654   3.478
  833SOL    HW1 2527   1.211   3.714   3.402
  833SOL    HW2 2528   1.194   3.559   3.448
  834SOL     OW 2529   0.317   2.113   3.663
  834SOL    HW1 2530   0.388   2.184   3.669
  834SOL    HW2 2531   0.229   2.152   3.691
  835SOL     OW 2532   1.466   3.279   2.815
  835SOL    HW1 2533   1.407   3.285   2.895
  835SOL    HW2 2534   1.451   3.191   2.769
  836SOL     OW 2535   1.667   3.576   2.434
  836SOL    HW1 2536   1.626   3.553   2.346
  836SOL    HW2 2537   1.649   3.502   2.499
  837SOL     OW 2538   0.598   2.591   2.132
  837SOL    HW1 2539   0.622   2.660   2.064
  837SOL    HW2 2540   0.520   2.624   2.186
  838SOL     OW 2541   1.281   2.207   2.806
  838SOL    HW1 2542   1.195   2.157   2.793
  838SOL    HW2 2543   1.343   2.153   2.862
  839SOL     OW 2544   1.576   3.524   2.169
  839SOL    HW1 2545   1.665   3.570   2.172
  839SOL    HW2 2546   1.555   3.500   2.074
  840SOL     OW 2547   0.807   2.467   3.327
  840SOL    HW1 2548   0.760   2.464   3.416
  840SOL    HW2 2549   0.756   2.412   3.261
  841SOL     OW 2550   1.394   2.331   3.536
  841SOL    HW1 2551   1.374   2.374   3.624
  841SOL    HW2 2552   1.472   2.269   3.545
  842SOL     OW 2553   0.973   2.752   3.434
  842SOL    HW1 2554   1.019   2.668   3.405
  842SOL    HW2 2555   0.917   2.786   3.359
  843SOL     OW 2556   0.991   2.272   3.104
  843SOL    HW1 2557   0.914   2.306   3.158
  843SOL    HW2 2558   0.957   2.221   3.025
  844SOL     OW 2559   1.041   2.563   2.291
  844SOL    HW1 2560   1.067   2.559   2.387
  844SOL    HW2 2561   0.956   2.512   2.277
  845SOL     OW 2562   0.076   2.673   2.651
  845SOL    HW1 2563   0.175   2.661   2.660
  845SOL    HW2 2564   0.052   2.768   2.672
  846SOL     OW 2565   0.130   3.683   3.433
  846SOL    HW1 2566   0.120   3.668   3.532
  846SOL    HW2 2567   0.044   3.719   3.397
  847SOL     OW 2568   0.865   2.210   2.057
  847SOL    HW1 2569   0.924   2.273   2.008
  847SOL    HW2 2570   0.884   2.116   2.028
  848SOL     OW 2571   1.719   2.447   3.693
  848SOL    HW1 2572   1.693   2.536   3.657
  848SOL    HW2 2573   1.717   2.379   3.620
  849SOL     OW 2574   1.362   3.006   2.407
  849SOL    HW1 2575   1.445   2.977   2.359
  849SOL    HW2 2576   1.313   3.073   2.351
  850SOL     OW 2577   0.550   2.058   2.747
  850SOL    HW1 2578   0.545   2.053   2.847
  850SOL    HW2 2579   0.552   2.154   2.718
  851SOL     OW 2580   1.008   3.318   2.339
  851SOL    HW1 2581   0.962   3.390   2.287
  851SOL    HW2 2582   1.004   3.338   2.437
  852SOL     OW 2583   0.351   3.663   2.715
  852SOL    HW1 2584   0.401   3.577   2.721
  852SOL    HW2 2585   0.416   3.740   2.712
  853SOL     OW 2586   1.795   2.928   2.735
  853SOL    HW1 2587   1.733   2.913   2.659
  853SOL    HW2 2588   1.743   2.939   2.820
  854SOL     OW 2589   1.227   3.412   3.368
  854SOL    HW1 2590   1.233   3.335   3.432
  854SOL    HW2 2591   1.175   3.386   3.288
  855SOL     OW 2592   0.321   2.805   2.104
  855SOL    HW1 2593   0.403   2.844   2.062
  855SOL    HW2 2594   0.294   2.723   2.055
  856SOL     OW 2595   1.458   2.597   2.590
  856SOL    HW1 2596   1.453   2.532   2.665
  856SOL    HW2 2597   1.538   2.656   2.603
  857SOL     OW 2598   0.461   3.128   3.589
  857SOL    HW1 2599   0.411   3.129   3.503
  857SOL    HW2 2600   0.398   3.110   3.665
  858SOL     OW 2601   1.111   3.638   2.099
  858SOL    HW1 2602   1.051   3.576   2.149
  858SOL    HW2 2603   1.142   3.594   2.014
  859SOL     OW 2604   0.202   2.147   3.360
  859SOL    HW1 2605   0.122   2.207   3.347
  859SOL    HW2 2606   0.192   2.098   3.446
  860SOL     OW 2607   1.632   3.239   1.943
  860SOL    HW1 2608   1.600   3.333   1.933
  860SOL    HW2 2609   1.556   3.176   1.931
  861SOL     OW 2610   0.464   3.605   2.185
  861SOL    HW1 2611   0.497   3.644   2.271
  861SOL    HW2 2612   0.540   3.598   2.120
  862SOL     OW 2613   1.400   1.969   2.288
  862SOL    HW1 2614   1.376   1.932   2.198
  862SOL    HW2 2615   1.499   1.985   2.292
  863SOL     OW 2616   0.249   3.647   3.103
  863SOL    HW1 2617   0.306   3.582   3.153
  863SOL    HW2 2618   0.233   3.614   3.010
  864SOL     OW 2619   0.940   3.560   2.766
  864SOL    HW1 2620   1.020   3.503   2.787
  864SOL    HW2 2621   0.891   3.520   2.689
  865SOL     OW 2622   0.382   2.562   2.342
  865SOL    HW1 2623   0.427   2.472   2.339
  865SOL    HW2 2624   0.288   2.551   2.375
  866SOL     OW 2625   1.547   2.084   3.591
  866SOL    HW1 2626   1.542   2.121   3.683
  866SOL    HW2 2627   1.475   2.015   3.579
  867SOL     OW 2628   0.614   1.984   1.979
  867SOL    HW1 2629   0.712   1.962   1.986
  867SOL    HW2 2630   0.583   1.967   1.886
  868SOL     OW 2631   0.781   2.126   3.611
  868SOL    HW1 2632   0.848   2.065   3.654
  868SOL    HW2 2633   0.708   2.145   3.676
  869SOL     OW 2634   0.888   3.376   3.057
  869SOL    HW1 2635   0.865   3.351   2.963
  869SOL    HW2 2636   0.949   3.307   3.096
  870SOL     OW 2637   1.351   2.452   3.295
  870SOL    HW1 2638   1.379   2.409   3.380
  870SOL    HW2 2639   1.376   2.548   3.296
  871SOL     OW 2640   0.803   3.264   2.786
  871SOL    HW1 2641   0.893   3.278   2.744
  871SOL    HW2 2642   0.732   3.266   2.715
  872SOL     OW 2643   0.922   2.365   2.761
  872SOL    HW1 2644   0.897   2.356   2.665
  872SOL    HW2 2645   0.970   2.283   2.792
  873SOL     OW 2646   0.539   1.926   2.374
  873SOL    HW1 2647   0.458   1.927   2.432
  873SOL    HW2 2648   0.542   2.009   2.319
  874SOL     OW 2649   1.434   3.050   1.903
  874SOL    HW1 2650   1.466   2.974   1.960
  874SOL    HW2 2651   1.342   3.077   1.933
  875SOL     OW 2652   0.297   1.897   2.033
  875SOL    HW1 2653   0.346   1.981   2.012
  875SOL    HW2 2654   0.359   1.832   2.078
  876SOL     OW 2655   0.935   2.098   2.342
  876SOL    HW1 2656   0.887   2.139   2.264
  876SOL    HW2 2657   1.034   2.096   2.323
  877SOL     OW 2658   1.076   2.545   3.326
  877SOL    HW1 2659   0.996   2.484   3.329
  877SOL    HW2 2660   1.157   2.492   3.302
  878SOL     OW 2661   1.227   3.432   2.655
  878SOL    HW1 2662   1.248   3.506   2.590
  878SOL    HW2 2663   1.295   3.432   2.728
  879SOL     OW 2664   0.459   3.014   2.603
  879SOL    HW1 2665   0.388   2.987   2.668
  879SOL    HW2 2666   0.433   2.986   2.510
  880SOL     OW 2667   1.271   3.659   2.453
  880SOL    HW1 2668   1.315   3.723   2.389
  880SOL    HW2 2669   1.221   3.711   2.523
  881SOL     OW 2670   1.032   2.411   1.878
  881SOL    HW1 2671   0.991   2.493   1.839
  881SOL    HW2 2672   1.096   2.437   1.951
  882SOL     OW 2673   0.078   2.418   3.248
  882SOL    HW1 2674   0.170   2.417   3.207
  882SOL    HW2 2675   0.072   2.492   3.315
  883SOL     OW 2676   0.561   2.084   3.009
  883SOL    HW1 2677   0.599   2.000   3.046
  883SOL    HW2 2678   0.473   2.103   3.053
  884SOL     OW 2679   0.866   2.316   2.504
  884SOL    HW1 2680   0.834   2.388   2.442
  884SOL    HW2 2681   0.890   2.235   2.451
  885SOL     OW 2682   1.017   1.901   2.615
  885SOL    HW1 2683   0.945   1.906   2.546
  885SOL    HW2 2684   0.993   1.832   2.684
  886SOL     OW 2685   1.429   3.035   2.729
  886SOL    HW1 2686   1.374   2.951   2.722
  886SOL    HW2 2687   1.455   3.064   2.637
  887SOL     OW 2688   1.466   2.452   2.854
  887SOL    HW1 2689   1.436   2.357   2.861
  887SOL    HW2 2690   1.539   2.468   2.920
  888SOL     OW 2691   1.857   2.695   2.239
  888SOL    HW1 2692   1.899   2.631   2.303
  888SOL    HW2 2693   1.819   2.644   2.161
  889SOL     OW 2694   0.488   3.247   2.036
  889SOL    HW1 2695   0.401   3.232   2.083
  889SOL    HW2 2696   0.471   3.273   1.941
  890SOL     OW 2697   1.664   3.142   2.519
  890SOL    HW1 2698   1.763   3.150   2.533
  890SOL    HW2 2699   1.619   3.226   2.550
  891SOL     OW 2700   1.390   2.437   1.940
  891SOL    HW1 2701   1.336   2.416   2.021
  891SOL    HW2 2702   1.481   2.396   1.949
  892SOL     OW 2703   0.527   2.118   2.190
  892SOL    HW1 2704   0.554   2.059   2.115
  892SOL    HW2 2705   0.527   2.213   2.159
  893SOL     OW 2706   1.754   3.085   3.450
  893SOL    HW1 2707   1.845   3.046   3.437
  893SOL    HW2 2708   1.762   3.181   3.474
  894SOL     OW 2709   1.064   3.209   3.202
  894SOL    HW1 2710   0.984   3.186   3.257
  894SOL    HW2 2711   1.147   3.183   3.251
  895SOL     OW 2712   1.592   3.491   3.487
  895SOL    HW1 2713   1.619   3.525   3.397
  895SOL    HW2 2714   1.671   3.453   3.533
  896SOL     OW 2715   1.111   3.057   2.962
  896SOL    HW1 2716   1.071   3.101   3.043
  896SOL    HW2 2717   1.070   3.094   2.879
  897SOL     OW 2718   1.638   2.961   2.941
  897SOL    HW1 2719   1.643   3.042   3.000
  897SOL    HW2 2720   1.552   2.963   2.890
  898SOL     OW 2721   0.915   1.951   3.264
  898SOL    HW1 2722   0.940   1.931   3.169
  898SOL    HW2 2723   0.987   2.007   3.306
  899SOL     OW 2724   0.980   2.978   3.581
  899SOL    HW1 2725   0.881   2.984   3.591
  899SOL    HW2 2726   1.003   2.898   3.525
  900SOL     OW 2727   0.705   2.912   2.230
  900SOL    HW1 2728   0.691   2.919   2.329
  900SOL    HW2 2729   0.789   2.861   2.212
  901SOL     OW 2730   0.410   2.675   3.113
  901SOL    HW1 2731   0.496   2.687   3.163
  901SOL    HW2 2732   0.368   2.588   3.140
  902SOL     OW 2733   1.274   2.248   3.124
  902SOL    HW1 2734   1.295   2.322   3.188
  902SOL    HW2 2735   1.185   2.265   3.081
  903SOL     OW 2736   0.064   3.426   3.193
  903SOL    HW1 2737   0.018   3.508   3.159
  903SOL    HW2 2738   0.162   3.445   3.202
  904SOL     OW 2739   0.367   2.962   2.363
  904SOL    HW1 2740   0.360   3.045   2.307
  904SOL    HW2 2741   0.371   2.882   2.303
  905SOL     OW 2742   0.566   2.399   2.727
  905SOL    HW1 2743   0.578   2.465   2.653
  905SOL    HW2 2744   0.612   2.433   2.810
  906SOL     OW 2745   1.252   3.210   2.250
  906SOL    HW1 2746   1.302   3.287   2.290
  906SOL    HW2 2747   1.157   3.212   2.282
  907SOL     OW 2748   1.272   3.307   3.004
  907SOL    HW1 2749   1.319   3.320   3.091
  907SOL    HW2 2750   1.206   3.233   3.013
  908SOL     OW 2751   1.582   2.501   2.334
  908SOL    HW1 2752   1.551   2.562   2.407
  908SOL    HW2 2753   1.632   2.553   2.265
  909SOL     OW 2754   0.354   3.372   3.191
  909SOL    HW1 2755   0.333   3.328   3.104
  909SOL    HW2 2756   0.451   3.398   3.194
  910SOL     OW 2757   0.402   2.613   3.460
  910SOL    HW1 2758   0.470   2.668   3.413
  910SOL    HW2 2759   0.442   2.525   3.487
  911SOL     OW 2760   1.587   2.641   3.532
  911SOL    HW1 2761   1.495   2.679   3.527
  911SOL    HW2 2762   1.647   2.688   3.467
  912SOL     OW 2763   1.013   1.967   3.632
  912SOL    HW1 2764   1.019   2.052   3.580
  912SOL    HW2 2765   1.045   1.891   3.575
  913SOL     OW 2766   0.504   1.912   3.602
  913SOL    HW1 2767   0.462   1.855   3.532
  913SOL    HW2 2768   0.438   1.981   3.634
  914SOL     OW 2769   0.573   2.732   2.891
  914SOL    HW1 2770   0.617   2.821   2.882
  914SOL    HW2 2771   0.510   2.732   2.968
  915SOL     OW 2772   1.360   2.724   2.907
  915SOL    HW1 2773   1.285   2.724   2.841
  915SOL    HW2 2774   1.397   2.632   2.916
  916SOL     OW 2775   1.209   2.387   2.137
  916SOL    HW1 2776   1.222   2.303   2.191
  916SOL    HW2 2777   1.180   2.461   2.197
  917SOL     OW 2778   0.307   2.075   3.093
  917SOL    HW1 2779   0.284   2.112   3.183
  917SOL    HW2 2780   0.277   1.980   3.087
  918SOL     OW 2781   0.037   3.172   3.144
  918SOL    HW1 2782   0.090   3.123   3.212
  918SOL    HW2 2783   0.059   3.270   3.149
  919SOL     OW 2784   0.732   2.496   2.926
  919SOL    HW1 2785   0.791   2.470   2.850
  919SOL    HW2 2786   0.704   2.592   2.915
  920SOL     OW 2787   1.728   2.797   3.716
  920SOL    HW1 2788   1.682   2.790   3.627
  920SOL    HW2 2789   1.666   2.841   3.782
  921SOL     OW 2790   0.307   1.925   2.480
  921SOL    HW1 2791   0.296   2.019   2.513
  921SOL    HW2 2792   0.302   1.862   2.557
  922SOL     OW 2793   1.622   2.229   2.236
  922SOL    HW1 2794   1.624   2.153   2.300
  922SOL    HW2 2795   1.574   2.306   2.276
  923SOL     OW 2796   1.023   2.628   2.828
  923SOL    HW1 2797   1.038   2.649   2.924
  923SOL    HW2 2798   0.993   2.533   2.819
  924SOL     OW 2799   0.980   3.435   3.562
  924SOL    HW1 2800   0.960   3.479   3.474
  924SOL    HW2 2801   1.019   3.344   3.546
  925SOL     OW 2802   1.859   3.380   3.467
  925SOL    HW1 2803   1.873   3.407   3.372
  925SOL    HW2 2804   1.942   3.402   3.520
  926SOL     OW 2805   0.350   2.760   3.666
  926SOL    HW1 2806   0.426   2.804   3.714
  926SOL    HW2 2807   0.385   2.713   3.584
  927SOL     OW 2808   1.540   2.136   1.987
  927SOL    HW1 2809   1.479   2.061   2.010
  927SOL    HW2 2810   1.562   2.188   2.070
  928SOL     OW 2811   1.303   2.700   1.904
  928SOL    HW1 2812   1.337   2.607   1.919
  928SOL    HW2 2813   1.321   2.727   1.809
  929SOL     OW 2814   1.068   3.195   2.711
  929SOL    HW1 2815   1.075   3.111   2.656
  929SOL    HW2 2816   1.130   3.264   2.675
  930SOL     OW 2817   0.319   2.672   2.811
  930SOL    HW1 2818   0.412   2.708   2.816
  930SOL    HW2 2819   0.313   2.587   2.863
  931SOL     OW 2820   0.339   2.371   2.868
  931SOL    HW1 2821   0.287   2.288   2.851
  931SOL    HW2 2822   0.416   2.376   2.804
  932SOL     OW 2823   1.138   2.242   3.540
  932SOL    HW1 2824   1.093   2.305   3.604
  932SOL    HW2 2825   1.231   2.273   3.523
  933SOL     OW 2826   1.160   2.069   3.339
  933SOL    HW1 2827   1.160   2.133   3.416
  933SOL    HW2 2828   1.188   2.117   3.256
  934SOL     OW 2829   0.008   3.188   2.062
  934SOL    HW1 2830  -0.085   3.209   2.031
  934SOL    HW2 2831   0.018   3.089   2.075
  935SOL     OW 2832   0.088   3.663   2.789
  935SOL    HW1 2833   0.046   3.577   2.762
  935SOL    HW2 2834   0.182   3.666   2.755
  936SOL     OW 2835   0.504   3.430   2.772
  936SOL    HW1 2836   0.570   3.504   2.781
  936SOL    HW2 2837   0.548   3.351   2.730
  937SOL     OW 2838   1.002   2.658   3.100
  937SOL    HW1 2839   1.043   2.626   3.186
  937SOL    HW2 2840   0.906   2.631   3.097
  938SOL     OW 2841   0.040   2.406   2.976
  938SOL    HW1 2842   0.125   2.373   2.935
  938SOL    HW2 2843   0.053   2.421   3.074
  939SOL     OW 2844   0.189   2.382   3.584
  939SOL    HW1 2845   0.248   2.342   3.514
  939SOL    HW2 2846   0.131   2.453   3.543
  940SOL     OW 2847   1.369   2.812   3.522
  940SOL    HW1 2848   1.408   2.901   3.542
  940SOL    HW2 2849   1.379   2.792   3.425
  941SOL     OW 2850   0.815   2.434   2.187
  941SOL    HW1 2851   0.822   2.345   2.141
  941SOL    HW2 2852   0.721   2.468   2.179
  942SOL     OW 2853   1.657   2.466   3.068
  942SOL    HW1 2854   1.619   2.397   3.130
  942SOL    HW2 2855   1.739   2.430   3.024
  943SOL     OW 2856   0.252   3.426   3.606
  943SOL    HW1 2857   0.222   3.483   3.682
  943SOL    HW2 2858   0.245   3.329   3.632
  944SOL     OW 2859   0.671   2.326   3.131
  944SOL    HW1 2860   0.637   2.237   3.101
  944SOL    HW2 2861   0.697   2.380   3.051
  945SOL     OW 2862   0.930   3.540   3.327
  945SOL    HW1 2863   0.906   3.522   3.232
  945SOL    HW2 2864   0.960   3.634   3.337
  946SOL     OW 2865   0.473   2.362   2.053
  946SOL    HW1 2866   0.534   2.442   2.057
  946SOL    HW2 2867   0.378   2.393   2.060
  947SOL     OW 2868   0.159   2.999   3.328
  947SOL    HW1 2869   0.181   2.938   3.404
  947SOL    HW2 2870   0.169   2.950   3.242
  948SOL     OW 2871   1.347   2.921   3.096
  948SOL    HW1 2872   1.371   2.858   3.022
  948SOL    HW2 2873   1.257   2.961   3.078
  949SOL     OW 2874   1.302   2.717   2.171
  949SOL    HW1 2875   1.216   2.686   2.213
  949SOL    HW2 2876   1.298   2.703   2.072
  950SOL     OW 2877   1.759   3.609   3.016
  950SOL    HW1 2878   1.820   3.639   2.943
  950SOL    HW2 2879   1.721   3.520   2.994
  951SOL     OW 2880   1.252   3.593   2.990
  951SOL    HW1 2881   1.336   3.598   2.936
  951SOL    HW2 2882   1.229   3.497   3.008
  952SOL     OW 2883   0.083   3.120   2.884
  952SOL    HW1 2884   0.078   3.119   2.984
  952SOL    HW2 2885   0.000   3.079   2.846
  953SOL     OW 2886   0.688   3.524   3.578
  953SOL    HW1 2887   0.632   3.605   3.587
  953SOL    HW2 2888   0.740   3.528   3.492
  954SOL     OW 2889   1.726   1.997   2.385
  954SOL    HW1 2890   1.799   1.980   2.318
  954SOL    HW2 2891   1.695   1.910   2.423
  955SOL     OW 2892   1.388   3.435   2.339
  955SOL    HW1 2893   1.455   3.447   2.265
  955SOL    HW2 2894   1.348   3.524   2.362
  956SOL     OW 2895   0.130   3.656   3.713
  956SOL    HW1 2896   0.089   3.582   3.766
  956SOL    HW2 2897   0.194   3.707   3.771
  957SOL     OW 2898   1.280   2.789   2.534
  957SOL    HW1 2899   1.340   2.708   2.536
  957SOL    HW2 2900   1.320   2.858   2.474
  958SOL     OW 2901   0.830   3.135   3.284
  958SOL    HW1 2902   0.825   3.168   3.379
  958SOL    HW2 2903   0.744   3.154   3.238
  959SOL     OW 2904   0.672   3.478   2.016
  959SOL    HW1 2905   0.681   3.488   1.917
  959SOL    HW2 2906   0.632   3.389   2.037
  960SOL     OW 2907   1.650   3.582   3.256
  960SOL    HW1 2908   1.703   3.592   3.172
  960SOL    HW2 2909   1.623   3.672   3.290
  961SOL     OW 2910   1.841   2.037   2.825
  961SOL    HW1 2911   1.880   1.952   2.789
  961SOL    HW2 2912   1.743   2.039   2.806
  962SOL     OW 2913   0.263   2.188   2.582
  962SOL    HW1 2914   0.184   2.239   2.548
  962SOL    HW2 2915   0.254   2.173   2.680
  963SOL     OW 2916   1.194   3.474   1.893
  963SOL    HW1 2917   1.200   3.381   1.930
  963SOL    HW2 2918   1.135   3.474   1.813
  964SOL     OW 2919   0.822   2.864   3.234
  964SOL    HW1 2920   0.862   2.863   3.142
  964SOL    HW2 2921   0.832   2.956   3.274
  965SOL     OW 2922   0.916   2.772   2.153
  965SOL    HW1 2923   0.979   2.810   2.085
  965SOL    HW2 2924   0.956   2.689   2.192
  966SOL     OW 2925   1.504   3.469   1.906
  966SOL    HW1 2926   1.412   3.506   1.913
  966SOL    HW2 2927   1.542   3.489   1.816
  967SOL     OW 2928   0.372   3.150   3.352
  967SOL    HW1 2929   0.359   3.243   3.318
  967SOL    HW2 2930   0.288   3.098   3.339
  968SOL     OW 2931   1.614   3.154   3.151
  968SOL    HW1 2932   1.674   3.157   3.231
  968SOL    HW2 2933   1.539   3.218   3.164
  969SOL     OW 2934   1.039   2.960   2.558
  969SOL    HW1 2935   0.969   2.913   2.612
  969SOL    HW2 2936   1.098   2.892   2.515
  970SOL     OW 2937   1.014   2.098   2.833
  970SOL    HW1 2938   1.006   2.062   2.740
  970SOL    HW2 2939   1.012   2.022   2.898
  971SOL     OW 2940   0.590   3.349   2.353
  971SOL    HW1 2941   0.632   3.291   2.283
  971SOL    HW2 2942   0.546   3.428   2.309
  972SOL     OW 2943   1.709   2.247   3.243
  972SOL    HW1 2944   1.782   2.316   3.247
  972SOL    HW2 2945   1.737   2.172   3.184
  973SOL     OW 2946   0.255   3.210   2.152
  973SOL    HW1 2947   0.159   3.211   2.125
  973SOL    HW2 2948   0.267   3.263   2.236
  974SOL     OW 2949   0.105   2.875   3.588
  974SOL    HW1 2950   0.028   2.842   3.642
  974SOL    HW2 2951   0.190   2.845   3.630
  975SOL     OW 2952   0.672   2.065   3.351
  975SOL    HW1 2953   0.762   2.049   3.311
  975SOL    HW2 2954   0.680   2.070   3.450
  976SOL     OW 2955   0.075   2.207   1.895
  976SOL    HW1 2956  -0.017   2.179   1.866
  976SOL    HW2 2957   0.106   2.284   1.839
  977SOL     OW 2958   1.440   2.718   3.260
  977SOL    HW1 2959   1.383   2.770   3.197
  977SOL    HW2 2960   1.536   2.730   3.236
  978SOL     OW 2961   0.072   2.028   2.180
  978SOL    HW1 2962   0.055   2.111   2.126
  978SOL    HW2 2963   0.162   1.991   2.158
  979SOL     OW 2964   1.183   3.197   1.981
  979SOL    HW1 2965   1.084   3.186   1.983
  979SOL    HW2 2966   1.217   3.212   2.074
  980SOL     OW 2967   0.613   2.704   3.293
  980SOL    HW1 2968   0.669   2.785   3.276
  980SOL    HW2 2969   0.672   2.624   3.296
  981SOL     OW 2970   1.493   3.629   2.821
  981SOL    HW1 2971   1.526   3.693   2.752
  981SOL    HW2 2972   1.559   3.623   2.896
  982SOL     OW 2973   0.716   2.427   3.570
  982SOL    HW1 2974   0.735   2.492   3.644
  982SOL    HW2 2975   0.776   2.347   3.579
  983SOL     OW 2976   1.450   3.082   3.495
  983SOL    HW1 2977   1.441   3.072   3.594
  983SOL    HW2 2978   1.546   3.075   3.469
  984SOL     OW 2979   0.390   3.603   3.422
  984SOL    HW1 2980   0.299   3.644   3.420
  984SOL    HW2 2981   0.383   3.509   3.454
  985SOL     OW 2982   1.674   2.745   3.116
  985SOL    HW1 2983   1.647   2.656   3.079
  985SOL    HW2 2984   1.675   2.813   3.043
  986SOL     OW 2985   1.225   2.187   2.311
  986SOL    HW1 2986   1.290   2.113   2.300
  986SOL    HW2 2987   1.245   2.237   2.395
  987SOL     OW 2988   0.594   2.607   2.514
  987SOL    HW1 2989   0.644   2.692   2.495
  987SOL    HW2 2990   0.506   2.609   2.466
  988SOL     OW 2991   1.777   2.204   3.504
  988SOL    HW1 2992   1.760   2.235   3.410
  988SOL    HW2 2993   1.693   2.167   3.542
  989SOL     OW 2994   1.730   2.796   3.379
  989SOL    HW1 2995   1.768   2.887   3.394
  989SOL    HW2 2996   1.722   2.779   3.280
  990SOL     OW 2997   0.859   3.236   1.878
  990SOL    HW1 2998   0.813   3.251   1.966
  990SOL    HW2 2999   0.903   3.321   1.848
  991SOL     OW 3000   0.661   3.652   2.815
  991SOL    HW1 3001   0.615   3.740   2.802
  991SOL    HW2 3002   0.760   3.664   2.808
  992SOL     OW 3003   0.859   2.818   2.723
  992SOL    HW1 3004   0.913   2.749   2.771
  992SOL    HW2 3005   0.827   2.887   2.789
  993SOL     OW 3006   1.083   2.846   1.949
  993SOL    HW1 3007   1.060   2.899   1.867
  993SOL    HW2 3008   1.164   2.790   1.930
  994SOL     OW 3009   1.861   3.431   2.713
  994SOL    HW1 3010   1.790   3.419   2.643
  994SOL    HW2 3011   1.862   3.352   2.773
  995SOL     OW 3012   0.221   3.176   3.706
  995SOL    HW1 3013   0.156   3.103   3.685
  995SOL    HW2 3014   0.225   3.190   3.804
  996SOL     OW 3015   0.079   3.102   2.515
  996SOL    HW1 3016   0.078   3.055   2.603
  996SOL    HW2 3017   0.161   3.074   2.464
  997SOL     OW 3018   0.672   3.253   3.486
  997SOL    HW1 3019   0.594   3.203   3.524
  997SOL    HW2 3020   0.669   3.348   3.517
  998SOL     OW 3021   1.824   2.054   3.089
  998SOL    HW1 3022   1.820   1.964   3.133
  998SOL    HW2 3023   1.827   2.043   2.990
  999SOL     OW 3024   0.428   2.286   2.382
  999SOL    HW1 3025   0.458   2.214   2.320
  999SOL    HW2 3026   0.389   2.246   2.465
 1000SOL     OW 3027   1.705   3.349   2.966
 1000SOL    HW1 3028   1.612   3.324   2.939
 1000SOL    HW2 3029   1.731   3.299   3.048
 1001SOL     OW 3030   0.317   2.409   3.142
 1001SOL    HW1 3031   0.355   2.350   3.214
 1001SOL    HW2 3032   0.357   2.383   3.054
 1002SOL     OW 3033   0.812   3.448   2.549
 1002SOL    HW1 3034   0.844   3.458   2.455
 1002SOL    HW2 3035   0.733   3.386   2.551
 1003SOL     OW 3036   1.424   2.076   2.974
 1003SOL    HW1 3037   1.476   2.011   3.029
 1003SOL    HW2 3038   1.375   2.139   3.035
 1004SOL     OW 3039   1.001   1.896   3.016
 1004SOL    HW1 3040   0.938   1.824   2.985
 1004SOL    HW2 3041   1.094   1.860   3.016
 1005SOL     OW 3042   0.770   3.192   2.163
 1005SOL    HW1 3043   0.724   3.105   2.180
 1005SOL    HW2 3044   0.861   3.189   2.204
 1006SOL     OW 3045   0.618   3.429   3.146
 1006SOL    HW1 3046   0.613   3.511   3.203
 1006SOL    HW2 3047   0.707   3.426   3.101
 1007SOL     OW 3048   1.352   1.914   2.030
 1007SOL    HW1 3049   1.387   1.873   1.946
 1007SOL    HW2 3050   1.262   1.876   2.050
 1008SOL     OW 3051   1.300   2.315   2.553
 1008SOL    HW1 3052   1.241   2.395   2.557
 1008SOL    HW2 3053   1.315   2.280   2.646
 1009SOL     OW 3054   1.593   2.083   2.744
 1009SOL    HW1 3055   1.509   2.082   2.798
 1009SOL    HW2 3056   1.595   2.166   2.688
 1010SOL     OW 3057   0.039   2.939   2.162
 1010SOL    HW1 3058   0.138   2.928   2.153
 1010SOL    HW2 3059  -0.001   2.853   2.194
 1011SOL     OW 3060   0.875   3.508   2.199
 1011SOL    HW1 3061   0.798   3.473   2.145
 1011SOL    HW2 3062   0.843   3.579   2.261
 1012SOL     OW 3063   0.230   2.490   3.837
 1012SOL    HW1 3064   0.137   2.488   3.874
 1012SOL    HW2 3065   0.231   2.451   3.745
 1013SOL     OW 3066   0.225   2.137   4.720
 1013SOL    HW1 3067   0.260   2.120   4.812
 1013SOL    HW2 3068   0.137   2.092   4.708
 1014SOL     OW 3069   0.019   2.230   4.371
 1014SOL    HW1 3070  -0.063   2.273   4.410
 1014SOL    HW2 3071  -0.009   2.157   4.308
 1015SOL     OW 3072   0.569   3.137   4.889
 1015SOL    HW1 3073   0.476   3.130   4.852
 1015SOL    HW2 3074   0.580   3.226   4.933
 1016SOL     OW 3075   1.555   3.373   4.427
 1016SOL    HW1 3076   1.498   3.357   4.508
 1016SOL    HW2 3077   1.496   3.383   4.347
 1017SOL     OW 3078   1.135   2.565   4.441
 1017SOL    HW1 3079   1.192   2.643   4.416
 1017SOL    HW2 3080   1.075   2.591   4.517
 1018SOL     OW 3081   1.755   2.469   3.955
 1018SOL    HW1 3082   1.743   2.456   3.856
 1018SOL    HW2 3083   1.725   2.388   4.004
 1019SOL     OW 3084   0.768   3.006   4.747
 1019SOL    HW1 3085   0.690   3.023   4.807
 1019SOL    HW2 3086   0.802   3.093   4.711
 1020SOL     OW 3087   0.685   2.874   4.389
 1020SOL    HW1 3088   0.754   2.858   4.459
 1020SOL    HW2 3089   0.612   2.931   4.427
 1021SOL     OW 3090   0.335   3.297   4.785
 1021SOL    HW1 3091   0.257   3.266   4.732
 1021SOL    HW2 3092   0.393   3.355   4.728
 1022SOL     OW 3093   1.603   2.309   4.461
 1022SOL    HW1 3094   1.529   2.355   4.411
 1022SOL    HW2 3095   1.654   2.377   4.514
 1023SOL     OW 3096   0.231   3.575   4.207
 1023SOL    HW1 3097   0.265   3.652   4.261
 1023SOL    HW2 3098   0.275   3.575   4.117
 1024SOL     OW 3099   0.230   3.296   4.262
 1024SOL    HW1 3100   0.204   3.392   4.262
 1024SOL    HW2 3101   0.159   3.242   4.307
 1025SOL     OW 3102   0.240   2.953   4.610
 1025SOL    HW1 3103   0.254   2.869   4.662
 1025SOL    HW2 3104   0.185   3.017   4.665
 1026SOL     OW 3105   0.620   3.648   5.163
 1026SOL    HW1 3106   0.528   3.631   5.198
 1026SOL    HW2 3107   0.648   3.740   5.189
 1027SOL     OW 3108   0.606   2.826   3.847
 1027SOL    HW1 3109   0.613   2.910   3.793
 1027SOL    HW2 3110   0.652   2.839   3.935
 1028SOL     OW 3111   0.122   2.505   4.287
 1028SOL    HW1 3112   0.077   2.417   4.304
 1028SOL    HW2 3113   0.121   2.559   4.371
 1029SOL     OW 3114   1.842   3.629   4.083
 1029SOL    HW1 3115   1.896   3.600   4.163
 1029SOL    HW2 3116   1.872   3.719   4.054
 1030SOL     OW 3117   0.027   3.458   3.841
 1030SOL    HW1 3118   0.008   3.362   3.862
 1030SOL    HW2 3119  -0.006   3.516   3.916
 1031SOL     OW 3120   1.689   2.784   4.336
 1031SOL    HW1 3121   1.784   2.755   4.344
 1031SOL    HW2 3122   1.681   2.849   4.261
 1032SOL     OW 3123   1.641   2.970   4.156
 1032SOL    HW1 3124   1.727   2.972   4.104
 1032SOL    HW2 3125   1.655   3.017   4.244
 1033SOL     OW 3126   0.613   3.227   4.450
 1033SOL    HW1 3127   0.564   3.140   4.459
 1033SOL    HW2 3128   0.590   3.270   4.363
 1034SOL     OW 3129   0.809   1.866   4.226
 1034SOL    HW1 3130   0.849   1.957   4.217
 1034SOL    HW2 3131   0.709   1.874   4.232
 1035SOL     OW 3132   0.197   2.838   4.988
 1035SOL    HW1 3133   0.286   2.793   4.974
 1035SOL    HW2 3134   0.124   2.773   4.969
 1036SOL     OW 3135   1.525   2.861   3.914
 1036SOL    HW1 3136   1.462   2.785   3.927
 1036SOL    HW2 3137   1.573   2.879   4.000
 1037SOL     OW 3138   1.466   3.279   4.677
 1037SOL    HW1 3139   1.407   3.285   4.757
 1037SOL    HW2 3140   1.451   3.191   4.631
 1038SOL     OW 3141   1.667   3.576   4.296
 1038SOL    HW1 3142   1.626   3.553   4.208
 1038SOL    HW2 3143   1.649   3.502   4.361
 1039SOL     OW 3144   0.598   2.591   3.994
 1039SOL    HW1 3145   0.622   2.660   3.926
 1039SOL    HW2 3146   0.520   2.624   4.048
 1040SOL     OW 3147   1.281   2.207   4.668
 1040SOL    HW1 3148   1.195   2.157   4.655
 1040SOL    HW2 3149   1.343   2.153   4.724
 1041SOL     OW 3150   1.576   3.524   4.031
 1041SOL    HW1 3151   1.665   3.570   4.034
 1041SOL    HW2 3152   1.555   3.500   3.936
 1042SOL     OW 3153   0.807   2.467   5.189
 1042SOL    HW1 3154   0.760   2.464   5.278
 1042SOL    HW2 3155   0.756   2.412   5.123
 1043SOL     OW 3156   0.991   2.272   4.966
 1043SOL    HW1 3157   0.914   2.306   5.020
 1043SOL    HW2 3158   0.957   2.221   4.887
 1044SOL     OW 3159   1.041   2.563   4.153
 1044SOL    HW1 3160   1.067   2.559   4.249
 1044SOL    HW2 3161   0.956   2.512   4.139
 1045SOL     OW 3162   0.076   2.673   4.513
 1045SOL    HW1 3163   0.175   2.661   4.522
 1045SOL    HW2 3164   0.052   2.768   4.534
 1046SOL     OW 3165   0.130   3.683   5.295
 1046SOL    HW1 3166   0.120   3.668   5.394
 1046SOL    HW2 3167   0.044   3.719   5.259
 1047SOL     OW 3168   0.865   2.210   3.919
 1047SOL    HW1 3169   0.924   2.273   3.870
 1047SOL    HW2 3170   0.884   2.116   3.890
 1048SOL     OW 3171   1.362   3.006   4.269
 1048SOL    HW1 3172   1.445   2.977   4.221
 1048SOL    HW2 3173   1.313   3.073   4.213
 1049SOL     OW 3174   0.550   2.058   4.609
 1049SOL    HW1 3175   0.545   2.053   4.709
 1049SOL    HW2 3176   0.552   2.154   4.580
 1050SOL     OW 3177   1.008   3.318   4.201
 1050SOL    HW1 3178   0.962   3.390   4.149
 1050SOL    HW2 3179   1.004   3.338   4.299
 1051SOL     OW 3180   0.351   3.663   4.577
 1051SOL    HW1 3181   0.401   3.577   4.583
 1051SOL    HW2 3182   0.416   3.740   4.574
 1052SOL     OW 3183   1.795   2.928   4.597
 1052SOL    HW1 3184   1.733   2.913   4.521
 1052SOL    HW2 3185   1.743   2.939   4.682
 1053SOL     OW 3186   0.321   2.805   3.966
 1053SOL    HW1 3187   0.403   2.844   3.924
 1053SOL    HW2 3188   0.294   2.723   3.917
 1054SOL     OW 3189   1.458   2.597   4.452
 1054SOL    HW1 3190   1.453   2.532   4.527
 1054SOL    HW2 3191   1.538   2.656   4.465
 1055SOL     OW 3192   1.111   3.638   3.961
 1055SOL    HW1 3193   1.051   3.576   4.011
 1055SOL    HW2 3194   1.142   3.594   3.876
 1056SOL     OW 3195   1.632   3.239   3.805
 1056SOL    HW1 3196   1.600   3.333   3.795
 1056SOL    HW2 3197   1.556   3.176   3.793
 1057SOL     OW 3198   0.464   3.605   4.047
 1057SOL    HW1 3199   0.497   3.644   4.133
 1057SOL    HW2 3200   0.540   3.598   3.982
 1058SOL     OW 3201   1.400   1.969   4.150
 1058SOL    HW1 3202   1.376   1.932   4.060
 1058SOL    HW2 3203   1.499   1.985   4.154
 1059SOL     OW 3204   0.249   3.647   4.965
 1059SOL    HW1 3205   0.306   3.582   5.015
 1059SOL    HW2 3206   0.233   3.614   4.872
 1060SOL     OW 3207   0.940   3.560   4.628
 1060SOL    HW1 3208   1.020   3.503   4.649
 1060SOL    HW2 3209   0.891   3.520   4.551
 1061SOL     OW 3210   0.382   2.562   4.204
 1061SOL    HW1 3211   0.427   2.472   4.201
 1061SOL    HW2 3212   0.288   2.551   4.237
 1062SOL     OW 3213   0.614   1.984   3.841
 1062SOL    HW1 3214   0.712   1.962   3.848
 1062SOL    HW2 3215   0.583   1.967   3.748
 1063SOL     OW 3216   0.888   3.376   4.919
 1063SOL    HW1 3217   0.865   3.351   4.825
 1063SOL    HW2 3218   0.949   3.307   4.958
 1064SOL     OW 3219   0.803   3.264   4.648
 1064SOL    HW1 3220   0.893   3.278   4.606
 1064SOL    HW2 3221   0.732   3.266   4.577
 1065SOL     OW 3222   0.922   2.365   4.623
 1065SOL    HW1 3223   0.897   2.356   4.527
 1065SOL    HW2 3224   0.970   2.283   4.654
 1066SOL     OW 3225   0.539   1.926   4.236
 1066SOL    HW1 3226   0.458   1.927   4.294
 1066SOL    HW2 3227   0.542   2.009   4.181
 1067SOL     OW 3228   1.434   3.050   3.765
 1067SOL    HW1 3229   1.466   2.974   3.822
 1067SOL    HW2 3230   1.342   3.077   3.795
 1068SOL     OW 3231   0.297   1.897   3.895
 1068SOL    HW1 3232   0.346   1.981   3.874
 1068SOL    HW2 3233   0.359   1.832   3.940
 1069SOL     OW 3234   0.935   2.098   4.204
 1069SOL    HW1 3235   0.887   2.139   4.126
 1069SOL    HW2 3236   1.034   2.096   4.185
 1070SOL     OW 3237   1.227   3.432   4.517
 1070SOL    HW1 3238   1.248   3.506   4.452
 1070SOL    HW2 3239   1.295   3.432   4.590
 1071SOL     OW 3240   0.459   3.014   4.465
 1071SOL    HW1 3241   0.388   2.987   4.530
 1071SOL    HW2 3242   0.433   2.986   4.372
 1072SOL     OW 3243   1.271   3.659   4.315
 1072SOL    HW1 3244   1.315   3.723   4.251
 1072SOL    HW2 3245   1.221   3.711   4.385
 1073SOL     OW 3246   1.032   2.411   3.740
 1073SOL    HW1 3247   0.991   2.493   3.701
 1073SOL    HW2 3248   1.096   2.437   3.813
 1074SOL     OW 3249   0.561   2.084   4.871
 1074SOL    HW1 3250   0.599   2.000   4.908
 1074SOL    HW2 3251   0.473   2.103   4.915
 1075SOL     OW 3252   0.866   2.316   4.366
 1075SOL    HW1 3253   0.834   2.388   4.304
 1075SOL    HW2 3254   0.890   2.235   4.313
 1076SOL     OW 3255   1.017   1.901   4.477
 1076SOL    HW1 3256   0.945   1.906   4.408
 1076SOL    HW2 3257   0.993   1.832   4.546
 1077SOL     OW 3258   1.429   3.035   4.591
 1077SOL    HW1 3259   1.374   2.951   4.584
 1077SOL    HW2 3260   1.455   3.064   4.499
 1078SOL     OW 3261   1.466   2.452   4.716
 1078SOL    HW1 3262   1.436   2.357   4.723
 1078SOL    HW2 3263   1.539   2.468   4.782
 1079SOL     OW 3264   1.857   2.695   4.101
 1079SOL    HW1 3265   1.899   2.631   4.165
 1079SOL    HW2 3266   1.819   2.644   4.023
 1080SOL     OW 3267   0.488   3.247   3.898
 1080SOL    HW1 3268   0.401   3.232   3.945
 1080SOL    HW2 3269   0.471   3.273   3.803
 1081SOL     OW 3270   1.664   3.142   4.381
 1081SOL    HW1 3271   1.763   3.150   4.395
 1081SOL    HW2 3272   1.619   3.226   4.412
 1082SOL     OW 3273   1.390   2.437   3.802
 1082SOL    HW1 3274   1.336   2.416   3.883
 1082SOL    HW2 3275   1.481   2.396   3.811
 1083SOL     OW 3276   0.527   2.118   4.052
 1083SOL    HW1 3277   0.554   2.059   3.977
 1083SOL    HW2 3278   0.527   2.213   4.021
 1084SOL     OW 3279   1.754   3.085   5.312
 1084SOL    HW1 3280   1.845   3.046   5.299
 1084SOL    HW2 3281   1.762   3.181   5.336
 1085SOL     OW 3282   1.111   3.057   4.824
 1085SOL    HW1 3283   1.071   3.101   4.905
 1085SOL    HW2 3284   1.070   3.094   4.741
 1086SOL     OW 3285   1.638   2.961   4.803
 1086SOL    HW1 3286   1.643   3.042   4.862
 1086SOL    HW2 3287   1.552   2.963   4.752
 1087SOL     OW 3288   0.705   2.912   4.092
 1087SOL    HW1 3289   0.691   2.919   4.191
 1087SOL    HW2 3290   0.789   2.861   4.074
 1088SOL     OW 3291   0.410   2.675   4.975
 1088SOL    HW1 3292   0.496   2.687   5.025
 1088SOL    HW2 3293   0.368   2.588   5.002
 1089SOL     OW 3294   1.274   2.248   4.986
 1089SOL    HW1 3295   1.295   2.322   5.050
 1089SOL    HW2 3296   1.185   2.265   4.943
 1090SOL     OW 3297   0.064   3.426   5.055
 1090SOL    HW1 3298   0.018   3.508   5.021
 1090SOL    HW2 3299   0.162   3.445   5.064
 1091SOL     OW 3300   0.367   2.962   4.225
 1091SOL    HW1 3301   0.360   3.045   4.169
 1091SOL    HW2 3302   0.371   2.882   4.165
 1092SOL     OW 3303   0.566   2.399   4.589
 1092SOL    HW1 3304   0.578   2.465   4.515
 1092SOL    HW2 3305   0.612   2.433   4.672
 1093SOL     OW 3306   1.252   3.210   4.112
 1093SOL    HW1 3307   1.302   3.287   4.152
 1093SOL    HW2 3308   1.157   3.212   4.144
 1094SOL     OW 3309   1.272   3.307   4.866
 1094SOL    HW1 3310   1.319   3.320   4.953
 1094SOL    HW2 3311   1.206   3.233   4.875
 1095SOL     OW 3312   1.582   2.501   4.196
 1095SOL    HW1 3313   1.551   2.562   4.269
 1095SOL    HW2 3314   1.632   2.553   4.127
 1096SOL     OW 3315   0.354   3.372   5.053
 1096SOL    HW1 3316   0.333   3.328   4.966
 1096SOL    HW2 3317   0.451   3.398   5.056
 1097SOL     OW 3318   0.573   2.732   4.753
 1097SOL    HW1 3319   0.617   2.821   4.744
 1097SOL    HW2 3320   0.510   2.732   4.830
 1098SOL     OW 3321   1.360   2.724   4.769
 1098SOL    HW1 3322   1.285   2.724   4.703
 1098SOL    HW2 3323   1.397   2.632   4.778
 1099SOL     OW 3324   1.209   2.387   3.999
 1099SOL    HW1 3325   1.222   2.303   4.053
 1099SOL    HW2 3326   1.180   2.461   4.059
 1100SOL     OW 3327   0.307   2.075   4.955
 1100SOL    HW1 3328   0.284   2.112   5.045
 1100SOL    HW2 3329   0.277   1.980   4.949
 1101SOL     OW 3330   0.037   3.172   5.006
 1101SOL    HW1 3331   0.090   3.123   5.074
 1101SOL    HW2 3332   0.059   3.270   5.011
 1102SOL     OW 3333   0.732   2.496   4.788
 1102SOL    HW1 3334   0.791   2.470   4.712
 1102SOL    HW2 3335   0.704   2.592   4.777
 1103SOL     OW 3336   0.307   1.925   4.342
 1103SOL    HW1 3337   0.296   2.019   4.375
 1103SOL    HW2 3338   0.302   1.862   4.419
 1104SOL     OW 3339   1.622   2.229   4.098
 1104SOL    HW1 3340   1.624   2.153   4.162
 1104SOL    HW2 3341   1.574   2.306   4.138
 1105SOL     OW 3342   1.023   2.628   4.690
 1105SOL    HW1 3343   1.038   2.649   4.786
 1105SOL    HW2 3344   0.993   2.533   4.681
 1106SOL     OW 3345   1.859   3.380   5.329
 1106SOL    HW1 3346   1.873   3.407   5.234
 1106SOL    HW2 3347   1.942   3.402   5.382
 1107SOL     OW 3348   1.540   2.136   3.849
 1107SOL    HW1 3349   1.479   2.061   3.872
 1107SOL    HW2 3350   1.562   2.188   3.932
 1108SOL     OW 3351   1.303   2.700   3.766
 1108SOL    HW1 3352   1.337   2.607   3.781
 1108SOL    HW2 3353   1.321   2.727   3.671
 1109SOL     OW 3354   1.068   3.195   4.573
 1109SOL    HW1 3355   1.075   3.111   4.518
 1109SOL    HW2 3356   1.130   3.264   4.537
 1110SOL     OW 3357   0.319   2.672   4.673
 1110SOL    HW1 3358   0.412   2.708   4.678
 1110SOL    HW2 3359   0.313   2.587   4.725
 1111SOL     OW 3360   0.339   2.371   4.730
 1111SOL    HW1 3361   0.287   2.288   4.713
 1111SOL    HW2 3362   0.416   2.376   4.666
 1112SOL     OW 3363   1.160   2.069   5.201
 1112SOL    HW1 3364   1.160   2.133   5.278
 1112SOL    HW2 3365   1.188   2.117   5.118
 1113SOL     OW 3366   0.008   3.188   3.924
 1113SOL    HW1 3367  -0.085   3.209   3.893
 1113SOL    HW2 3368   0.018   3.089   3.937
 1114SOL     OW 3369   0.088   3.663   4.651
 1114SOL    HW1 3370   0.046   3.577   4.624
 1114SOL    HW2 3371   0.182   3.666   4.617
 1115SOL     OW 3372   0.504   3.430   4.634
 1115SOL    HW1 3373   0.570   3.504   4.643
 1115SOL    HW2 3374   0.548   3.351   4.592
 1116SOL     OW 3375   1.002   2.658   4.962
 1116SOL    HW1 3376   1.043   2.626   5.048
 1116SOL    HW2 3377   0.906   2.631   4.959
 1117SOL     OW 3378   0.040   2.406   4.838
 1117SOL    HW1 3379   0.125   2.373   4.797
 1117SOL    HW2 3380   0.053   2.421   4.936
 1118SOL     OW 3381   0.189   2.382   5.446
 1118SOL    HW1 3382   0.248   2.342   5.376
 1118SOL    HW2 3383   0.131   2.453   5.405
 1119SOL     OW 3384   0.815   2.434   4.049
 1119SOL    HW1 3385   0.822   2.345   4.003
 1119SOL    HW2 3386   0.721   2.468   4.041
 1120SOL     OW 3387   1.657   2.466   4.930
 1120SOL    HW1 3388   1.619   2.397   4.992
 1120SOL    HW2 3389   1.739   2.430   4.886
 1121SOL     OW 3390   0.671   2.326   4.993
 1121SOL    HW1 3391   0.637   2.237   4.963
 1121SOL    HW2 3392   0.697   2.380   4.913
 1122SOL     OW 3393   0.930   3.540   5.189
 1122SOL    HW1 3394   0.906   3.522   5.094
 1122SOL    HW2 3395   0.960   3.634   5.199
 1123SOL     OW 3396   0.473   2.362   3.915
 1123SOL    HW1 3397   0.534   2.442   3.919
 1123SOL    HW2 3398   0.378   2.393   3.922
 1124SOL     OW 3399   0.159   2.999   5.190
 1124SOL    HW1 3400   0.181   2.938   5.266
 1124SOL    HW2 3401   0.169   2.950   5.104
 1125SOL     OW 3402   1.347   2.921   4.958
 1125SOL    HW1 3403   1.371   2.858   4.884
 1125SOL    HW2 3404   1.257   2.961   4.940
 1126SOL     OW 3405   1.302   2.717   4.033
 1126SOL    HW1 3406   1.216   2.686   4.075
 1126SOL    HW2 3407   1.298   2.703   3.934
 1127SOL     OW 3408   1.759   3.609   4.878
 1127SOL    HW1 3409   1.820   3.639   4.805
 1127SOL    HW2 3410   1.721   3.520   4.856
 1128SOL     OW 3411   1.252   3.593   4.852
 1128SOL    HW1 3412   1.336   3.598   4.798
 1128SOL    HW2 3413   1.229   3.497   4.870
 1129SOL     OW 3414   0.083   3.120   4.746
 1129SOL    HW1 3415   0.078   3.119   4.846
 1129SOL    HW2 3416   0.000   3.079   4.708
 1130SOL     OW 3417   1.726   1.997   4.247
 1130SOL    HW1 3418   1.799   1.980   4.180
 1130SOL    HW2 3419   1.695   1.910   4.285
 1131SOL     OW 3420   1.388   3.435   4.201
 1131SOL    HW1 3421   1.455   3.447   4.127
 1131SOL    HW2 3422   1.348   3.524   4.224
 1132SOL     OW 3423   1.280   2.789   4.396
 1132SOL    HW1 3424   1.340   2.708   4.398
 1132SOL    HW2 3425   1.320   2.858   4.336
 1133SOL     OW 3426   0.672   3.478   3.878
 1133SOL    HW1 3427   0.681   3.488   3.779
 1133SOL    HW2 3428   0.632   3.389   3.899
 1134SOL     OW 3429   1.841   2.037   4.687
 1134SOL    HW1 3430   1.880   1.952   4.651
 1134SOL    HW2 3431   1.743   2.039   4.668
 1135SOL     OW 3432   0.263   2.188   4.444
 1135SOL    HW1 3433   0.184   2.239   4.410
 1135SOL    HW2 3434   0.254   2.173   4.542
 1136SOL     OW 3435   1.194   3.474   3.755
 1136SOL    HW1 3436   1.200   3.381   3.792
 1136SOL    HW2 3437   1.135   3.474   3.675
 1137SOL     OW 3438   0.822   2.864   5.096
 1137SOL    HW1 3439   0.862   2.863   5.004
 1137SOL    HW2 3440   0.832   2.956   5.136
 1138SOL     OW 3441   0.916   2.772   4.015
 1138SOL    HW1 3442   0.979   2.810   3.947
 1138SOL    HW2 3443   0.956   2.689   4.054
 1139SOL     OW 3444   1.504   3.469   3.768
 1139SOL    HW1 3445   1.412   3.506   3.775
 1139SOL    HW2 3446   1.542   3.489   3.678
 1140SOL     OW 3447   1.039   2.960   4.420
 1140SOL    HW1 3448   0.969   2.913   4.474
 1140SOL    HW2 3449   1.098   2.892   4.377
 1141SOL     OW 3450   1.014   2.098   4.695
 1141SOL    HW1 3451   1.006   2.062   4.602
 1141SOL    HW2 3452   1.012   2.022   4.760
 1142SOL     OW 3453   0.590   3.349   4.215
 1142SOL    HW1 3454   0.632   3.291   4.145
 1142SOL    HW2 3455   0.546   3.428   4.171
 1143SOL     OW 3456   1.709   2.247   5.105
 1143SOL    HW1 3457   1.782   2.316   5.109
 1143SOL    HW2 3458   1.737   2.172   5.046
 1144SOL     OW 3459   0.255   3.210   4.014
 1144SOL    HW1 3460   0.159   3.211   3.987
 1144SOL    HW2 3461   0.267   3.263   4.098
 1145SOL     OW 3462   0.672   2.065   5.213
 1145SOL    HW1 3463   0.762   2.049   5.173
 1145SOL    HW2 3464   0.680   2.070   5.312
 1146SOL     OW 3465   0.075   2.207   3.757
 1146SOL    HW1 3466  -0.017   2.179   3.728
 1146SOL    HW2 3467   0.106   2.284   3.701
 1147SOL     OW 3468   0.072   2.028   4.042
 1147SOL    HW1 3469   0.055   2.111   3.988
 1147SOL    HW2 3470   0.162   1.991   4.020
 1148SOL     OW 3471   1.183   3.197   3.843
 1148SOL    HW1 3472   1.084   3.186   3.845
 1148SOL    HW2 3473   1.217   3.212   3.936
 1149SOL     OW 3474   1.493   3.629   4.683
 1149SOL    HW1 3475   1.526   3.693   4.614
 1149SOL    HW2 3476   1.559   3.623   4.758
 1150SOL     OW 3477   1.450   3.082   5.357
 1150SOL    HW1 3478   1.441   3.072   5.456
 1150SOL    HW2 3479   1.546   3.075   5.331
 1151SOL     OW 3480   0.390   3.603   5.284
 1151SOL    HW1 3481   0.299   3.644   5.282
 1151SOL    HW2 3482   0.383   3.509   5.316
 1152SOL     OW 3483   1.674   2.745   4.978
 1152SOL    HW1 3484   1.647   2.656   4.941
 1152SOL    HW2 3485   1.675   2.813   4.905
 1153SOL     OW 3486   1.225   2.187   4.173
 1153SOL    HW1 3487   1.290   2.113   4.162
 1153SOL    HW2 3488   1.245   2.237   4.257
 1154SOL     OW 3489   0.594   2.607   4.376
 1154SOL    HW1 3490   0.644   2.692   4.357
 1154SOL    HW2 3491   0.506   2.609   4.328
 1155SOL     OW 3492   1.730   2.796   5.241
 1155SOL    HW1 3493   1.768   2.887   5.256
 1155SOL    HW2 3494   1.722   2.779   5.142
 1156SOL     OW 3495   0.859   3.236   3.740
 1156SOL    HW1 3496   0.813   3.251   3.828
 1156SOL    HW2 3497   0.903   3.321   3.710
 1157SOL     OW 3498   0.661   3.652   4.677
 1157SOL    HW1 3499   0.615   3.740   4.664
 1157SOL    HW2 3500   0.760   3.664   4.670
 1158SOL     OW 3501   0.859   2.818   4.585
 1158SOL    HW1 3502   0.913   2.749   4.633
 1158SOL    HW2 3503   0.827   2.887   4.651
 1159SOL     OW 3504   1.083   2.846   3.811
 1159SOL    HW1 3505   1.060   2.899   3.729
 1159SOL    HW2 3506   1.164   2.790   3.792
 1160SOL     OW 3507   1.861   3.431   4.575
 1160SOL    HW1 3508   1.790   3.419   4.505
 1160SOL    HW2 3509   1.862   3.352   4.635
 1161SOL     OW 3510   0.079   3.102   4.377
 1161SOL    HW1 3511   0.078   3.055   4.465
 1161SOL    HW2 3512   0.161   3.074   4.326
 1162SOL     OW 3513   1.824   2.054   4.951
 1162SOL    HW1 3514   1.820   1.964   4.995
 1162SOL    HW2 3515   1.827   2.043   4.852
 1163SOL     OW 3516   0.428   2.286   4.244
 1163SOL    HW1 3517   0.458   2.214   4.182
 1163SOL    HW2 3518   0.389   2.246   4.327
 1164SOL     OW 3519   1.705   3.349   4.828
 1164SOL    HW1 3520   1.612   3.324   4.801
 1164SOL    HW2 3521   1.731   3.299   4.910
 1165SOL     OW 3522   0.317   2.409   5.004
 1165SOL    HW1 3523   0.355   2.350   5.076
 1165SOL    HW2 3524   0.357   2.383   4.916
 1166SOL     OW 3525   0.812   3.448   4.411
 1166SOL    HW1 3526   0.844   3.458   4.317
 1166SOL    HW2 3527   0.733   3.386   4.413
 1167SOL     OW 3528   1.424   2.076   4.836
 1167SOL    HW1 3529   1.476   2.011   4.891
 1167SOL    HW2 3530   1.375   2.139   4.897
 1168SOL     OW 3531   1.001   1.896   4.878
 1168SOL    HW1 3532   0.938   1.824   4.847
 1168SOL    HW2 3533   1.094   1.860   4.878
 1169SOL     OW 3534   0.770   3.192   4.025
 1169SOL    HW1 3535   0.724   3.105   4.042
 1169SOL    HW2 3536   0.861   3.189   4.066
 1170SOL     OW 3537   1.352   1.914   3.892
 1170SOL    HW1 3538   1.387   1.873   3.808
 1170SOL    HW2 3539   1.262   1.876   3.912
 1171SOL     OW 3540   1.300   2.315   4.415
 1171SOL    HW1 3541   1.241   2.395   4.419
 1171SOL    HW2 3542   1.315   2.280   4.508
 1172SOL     OW 3543   1.593   2.083   4.606
 1172SOL    HW1 3544   1.509   2.082   4.660
 1172SOL    HW2 3545   1.595   2.166   4.550
 1173SOL     OW 3546   0.039   2.939   4.024
 1173SOL    HW1 3547   0.138   2.928   4.015
 1173SOL    HW2 3548  -0.001   2.853   4.056
 1174SOL     OW 3549   0.875   3.508   4.061
 1174SOL    HW1 3550   0.798   3.473   4.007
 1174SOL    HW2 3551   0.843   3.579   4.123
 1175SOL     OW 3552   0.230   4.352   0.113
 1175SOL    HW1 3553   0.137   4.350   0.150
 1175SOL    HW2 3554   0.231   4.313   0.021
 1176SOL     OW 3555   0.225   3.999   0.996
 1176SOL    HW1 3556   0.260   3.982   1.088
 1176SOL    HW2 3557   0.137   3.954   0.984
 1177SOL     OW 3558   0.019   4.092   0.647
 1177SOL    HW1 3559  -0.063   4.135   0.686
 1177SOL    HW2 3560  -0.009   4.019   0.584
 1178SOL     OW 3561   0.569   4.999   1.165
 1178SOL    HW1 3562   0.476   4.992   1.128
 1178SOL    HW2 3563   0.580   5.088   1.209
 1179SOL     OW 3564   1.555   5.235   0.703
 1179SOL    HW1 3565   1.498   5.219   0.784
 1179SOL    HW2 3566   1.496   5.245   0.623
 1180SOL     OW 3567   1.135   4.427   0.717
 1180SOL    HW1 3568   1.192   4.505   0.692
 1180SOL    HW2 3569   1.075   4.453   0.793
 1181SOL     OW 3570   1.755   4.331   0.231
 1181SOL    HW1 3571   1.743   4.318   0.132
 1181SOL    HW2 3572   1.725   4.250   0.280
 1182SOL     OW 3573   0.768   4.868   1.023
 1182SOL    HW1 3574   0.690   4.885   1.083
 1182SOL    HW2 3575   0.802   4.955   0.987
 1183SOL     OW 3576   0.850   4.522   1.823
 1183SOL    HW1 3577   0.846   4.598   1.888
 1183SOL    HW2 3578   0.872   4.558   1.732
 1184SOL     OW 3579   0.685   4.736   0.665
 1184SOL    HW1 3580   0.754   4.720   0.735
 1184SOL    HW2 3581   0.612   4.793   0.703
 1185SOL     OW 3582   0.686   4.885   1.803
 1185SOL    HW1 3583   0.746   4.964   1.817
 1185SOL    HW2 3584   0.600   4.916   1.762
 1186SOL     OW 3585   0.335   5.159   1.061
 1186SOL    HW1 3586   0.257   5.128   1.008
 1186SOL    HW2 3587   0.393   5.217   1.004
 1187SOL     OW 3588   0.438   4.116   1.499
 1187SOL    HW1 3589   0.520   4.060   1.508
 1187SOL    HW2 3590   0.357   4.058   1.503
 1188SOL     OW 3591   1.603   4.171   0.737
 1188SOL    HW1 3592   1.529   4.217   0.687
 1188SOL    HW2 3593   1.654   4.239   0.790
 1189SOL     OW 3594   0.240   4.815   0.886
 1189SOL    HW1 3595   0.254   4.731   0.938
 1189SOL    HW2 3596   0.185   4.879   0.941
 1190SOL     OW 3597   0.606   4.688   0.123
 1190SOL    HW1 3598   0.613   4.772   0.069
 1190SOL    HW2 3599   0.652   4.701   0.211
 1191SOL     OW 3600   1.594   3.838   1.480
 1191SOL    HW1 3601   1.576   3.905   1.408
 1191SOL    HW2 3602   1.591   3.884   1.569
 1192SOL     OW 3603   0.122   4.367   0.563
 1192SOL    HW1 3604   0.077   4.279   0.580
 1192SOL    HW2 3605   0.121   4.421   0.647
 1193SOL     OW 3606   1.689   4.646   0.612
 1193SOL    HW1 3607   1.784   4.617   0.620
 1193SOL    HW2 3608   1.681   4.711   0.537
 1194SOL     OW 3609   1.641   4.832   0.432
 1194SOL    HW1 3610   1.727   4.834   0.380
 1194SOL    HW2 3611   1.655   4.879   0.520
 1195SOL     OW 3612   0.113   4.461   1.597
 1195SOL    HW1 3613   0.201   4.448   1.642
 1195SOL    HW2 3614   0.100   4.558   1.575
 1196SOL     OW 3615   1.293   4.952   1.423
 1196SOL    HW1 3616   1.330   4.879   1.365
 1196SOL    HW2 3617   1.345   4.957   1.508
 1197SOL     OW 3618   0.809   3.728   0.502
 1197SOL    HW1 3619   0.849   3.819   0.493
 1197SOL    HW2 3620   0.709   3.736   0.508
 1198SOL     OW 3621   0.197   4.700   1.264
 1198SOL    HW1 3622   0.286   4.655   1.250
 1198SOL    HW2 3623   0.124   4.635   1.245
 1199SOL     OW 3624   1.525   4.723   0.190
 1199SOL    HW1 3625   1.462   4.647   0.203
 1199SOL    HW2 3626   1.573   4.741   0.276
 1200SOL     OW 3627   0.317   3.975   1.801
 1200SOL    HW1 3628   0.388   4.046   1.807
 1200SOL    HW2 3629   0.229   4.014   1.829
 1201SOL     OW 3630   1.466   5.141   0.953
 1201SOL    HW1 3631   1.407   5.147   1.033
 1201SOL    HW2 3632   1.451   5.053   0.907
 1202SOL     OW 3633   0.598   4.453   0.270
 1202SOL    HW1 3634   0.622   4.522   0.202
 1202SOL    HW2 3635   0.520   4.486   0.324
 1203SOL     OW 3636   1.281   4.069   0.944
 1203SOL    HW1 3637   1.195   4.019   0.931
 1203SOL    HW2 3638   1.343   4.015   1.000
 1204SOL     OW 3639   0.807   4.329   1.465
 1204SOL    HW1 3640   0.760   4.326   1.554
 1204SOL    HW2 3641   0.756   4.274   1.399
 1205SOL     OW 3642   1.394   4.193   1.674
 1205SOL    HW1 3643   1.374   4.236   1.762
 1205SOL    HW2 3644   1.472   4.131   1.683
 1206SOL     OW 3645   0.973   4.614   1.572
 1206SOL    HW1 3646   1.019   4.530   1.543
 1206SOL    HW2 3647   0.917   4.648   1.497
 1207SOL     OW 3648   0.991   4.134   1.242
 1207SOL    HW1 3649   0.914   4.168   1.296
 1207SOL    HW2 3650   0.957   4.083   1.163
 1208SOL     OW 3651   1.041   4.425   0.429
 1208SOL    HW1 3652   1.067   4.421   0.525
 1208SOL    HW2 3653   0.956   4.374   0.415
 1209SOL     OW 3654   0.076   4.535   0.789
 1209SOL    HW1 3655   0.175   4.523   0.798
 1209SOL    HW2 3656   0.052   4.630   0.810
 1210SOL     OW 3657   0.865   4.072   0.195
 1210SOL    HW1 3658   0.924   4.135   0.146
 1210SOL    HW2 3659   0.884   3.978   0.166
 1211SOL     OW 3660   1.719   4.309   1.831
 1211SOL    HW1 3661   1.693   4.398   1.795
 1211SOL    HW2 3662   1.717   4.241   1.758
 1212SOL     OW 3663   1.362   4.868   0.545
 1212SOL    HW1 3664   1.445   4.839   0.497
 1212SOL    HW2 3665   1.313   4.935   0.489
 1213SOL     OW 3666   0.550   3.920   0.885
 1213SOL    HW1 3667   0.545   3.915   0.985
 1213SOL    HW2 3668   0.552   4.016   0.856
 1214SOL     OW 3669   1.795   4.790   0.873
 1214SOL    HW1 3670   1.733   4.775   0.797
 1214SOL    HW2 3671   1.743   4.801   0.958
 1215SOL     OW 3672   0.321   4.667   0.242
 1215SOL    HW1 3673   0.403   4.706   0.200
 1215SOL    HW2 3674   0.294   4.585   0.193
 1216SOL     OW 3675   1.458   4.459   0.728
 1216SOL    HW1 3676   1.453   4.394   0.803
 1216SOL    HW2 3677   1.538   4.518   0.741
 1217SOL     OW 3678   0.202   4.009   1.498
 1217SOL    HW1 3679   0.122   4.069   1.485
 1217SOL    HW2 3680   0.192   3.960   1.584
 1218SOL     OW 3681   1.632   5.101   0.081
 1218SOL    HW1 3682   1.600   5.195   0.071
 1218SOL    HW2 3683   1.556   5.038   0.069
 1219SOL     OW 3684   1.400   3.831   0.426
 1219SOL    HW1 3685   1.376   3.794   0.336
 1219SOL    HW2 3686   1.499   3.847   0.430
 1220SOL     OW 3687   0.382   4.424   0.480
 1220SOL    HW1 3688   0.427   4.334   0.477
 1220SOL    HW2 3689   0.288   4.413   0.513
 1221SOL     OW 3690   1.547   3.946   1.729
 1221SOL    HW1 3691   1.542   3.983   1.821
 1221SOL    HW2 3692   1.475   3.877   1.717
 1222SOL     OW 3693   0.781   3.988   1.749
 1222SOL    HW1 3694   0.848   3.927   1.792
 1222SOL    HW2 3695   0.708   4.007   1.814
 1223SOL     OW 3696   1.351   4.314   1.433
 1223SOL    HW1 3697   1.379   4.271   1.518
 1223SOL    HW2 3698   1.376   4.410   1.434
 1224SOL     OW 3699   0.922   4.227   0.899
 1224SOL    HW1 3700   0.897   4.218   0.803
 1224SOL    HW2 3701   0.970   4.145   0.930
 1225SOL     OW 3702   0.539   3.788   0.512
 1225SOL    HW1 3703   0.458   3.789   0.570
 1225SOL    HW2 3704   0.542   3.871   0.457
 1226SOL     OW 3705   1.434   4.912   0.041
 1226SOL    HW1 3706   1.466   4.836   0.098
 1226SOL    HW2 3707   1.342   4.939   0.071
 1227SOL     OW 3708   0.935   3.960   0.480
 1227SOL    HW1 3709   0.887   4.001   0.402
 1227SOL    HW2 3710   1.034   3.958   0.461
 1228SOL     OW 3711   1.076   4.407   1.464
 1228SOL    HW1 3712   0.996   4.346   1.467
 1228SOL    HW2 3713   1.157   4.354   1.440
 1229SOL     OW 3714   1.227   5.294   0.793
 1229SOL    HW1 3715   1.248   5.368   0.728
 1229SOL    HW2 3716   1.295   5.294   0.866
 1230SOL     OW 3717   0.459   4.876   0.741
 1230SOL    HW1 3718   0.388   4.849   0.806
 1230SOL    HW2 3719   0.433   4.848   0.648
 1231SOL     OW 3720   1.032   4.273   0.016
 1231SOL    HW1 3721   0.991   4.355  -0.023
 1231SOL    HW2 3722   1.096   4.299   0.089
 1232SOL     OW 3723   0.078   4.280   1.386
 1232SOL    HW1 3724   0.170   4.279   1.345
 1232SOL    HW2 3725   0.072   4.354   1.453
 1233SOL     OW 3726   0.561   3.946   1.147
 1233SOL    HW1 3727   0.599   3.862   1.184
 1233SOL    HW2 3728   0.473   3.965   1.191
 1234SOL     OW 3729   0.866   4.178   0.642
 1234SOL    HW1 3730   0.834   4.250   0.580
 1234SOL    HW2 3731   0.890   4.097   0.589
 1235SOL     OW 3732   1.017   3.763   0.753
 1235SOL    HW1 3733   0.945   3.768   0.684
 1235SOL    HW2 3734   0.993   3.694   0.822
 1236SOL     OW 3735   1.429   4.897   0.867
 1236SOL    HW1 3736   1.374   4.813   0.860
 1236SOL    HW2 3737   1.455   4.926   0.775
 1237SOL     OW 3738   1.466   4.314   0.992
 1237SOL    HW1 3739   1.436   4.219   0.999
 1237SOL    HW2 3740   1.539   4.330   1.058
 1238SOL     OW 3741   1.857   4.557   0.377
 1238SOL    HW1 3742   1.899   4.493   0.441
 1238SOL    HW2 3743   1.819   4.506   0.299
 1239SOL     OW 3744   1.664   5.004   0.657
 1239SOL    HW1 3745   1.763   5.012   0.671
 1239SOL    HW2 3746   1.619   5.088   0.688
 1240SOL     OW 3747   1.390   4.299   0.078
 1240SOL    HW1 3748   1.336   4.278   0.159
 1240SOL    HW2 3749   1.481   4.258   0.087
 1241SOL     OW 3750   0.527   3.980   0.328
 1241SOL    HW1 3751   0.554   3.921   0.253
 1241SOL    HW2 3752   0.527   4.075   0.297
 1242SOL     OW 3753   1.754   4.947   1.588
 1242SOL    HW1 3754   1.845   4.908   1.575
 1242SOL    HW2 3755   1.762   5.043   1.612
 1243SOL     OW 3756   1.064   5.071   1.340
 1243SOL    HW1 3757   0.984   5.048   1.395
 1243SOL    HW2 3758   1.147   5.045   1.389
 1244SOL     OW 3759   1.111   4.919   1.100
 1244SOL    HW1 3760   1.071   4.963   1.181
 1244SOL    HW2 3761   1.070   4.956   1.017
 1245SOL     OW 3762   1.638   4.823   1.079
 1245SOL    HW1 3763   1.643   4.904   1.138
 1245SOL    HW2 3764   1.552   4.825   1.028
 1246SOL     OW 3765   0.915   3.813   1.402
 1246SOL    HW1 3766   0.940   3.793   1.307
 1246SOL    HW2 3767   0.987   3.869   1.444
 1247SOL     OW 3768   0.980   4.840   1.719
 1247SOL    HW1 3769   0.881   4.846   1.729
 1247SOL    HW2 3770   1.003   4.760   1.663
 1248SOL     OW 3771   0.705   4.774   0.368
 1248SOL    HW1 3772   0.691   4.781   0.467
 1248SOL    HW2 3773   0.789   4.723   0.350
 1249SOL     OW 3774   0.410   4.537   1.251
 1249SOL    HW1 3775   0.496   4.549   1.301
 1249SOL    HW2 3776   0.368   4.450   1.278
 1250SOL     OW 3777   1.274   4.110   1.262
 1250SOL    HW1 3778   1.295   4.184   1.326
 1250SOL    HW2 3779   1.185   4.127   1.219
 1251SOL     OW 3780   0.064   5.288   1.331
 1251SOL    HW1 3781   0.018   5.370   1.297
 1251SOL    HW2 3782   0.162   5.307   1.340
 1252SOL     OW 3783   0.367   4.824   0.501
 1252SOL    HW1 3784   0.360   4.907   0.445
 1252SOL    HW2 3785   0.371   4.744   0.441
 1253SOL     OW 3786   0.566   4.261   0.865
 1253SOL    HW1 3787   0.578   4.327   0.791
 1253SOL    HW2 3788   0.612   4.295   0.948
 1254SOL     OW 3789   1.582   4.363   0.472
 1254SOL    HW1 3790   1.551   4.424   0.545
 1254SOL    HW2 3791   1.632   4.415   0.403
 1255SOL     OW 3792   0.402   4.475   1.598
 1255SOL    HW1 3793   0.470   4.530   1.551
 1255SOL    HW2 3794   0.442   4.387   1.625
 1256SOL     OW 3795   1.587   4.503   1.670
 1256SOL    HW1 3796   1.495   4.541   1.665
 1256SOL    HW2 3797   1.647   4.550   1.605
 1257SOL     OW 3798   1.013   3.829   1.770
 1257SOL    HW1 3799   1.019   3.914   1.718
 1257SOL    HW2 3800   1.045   3.753   1.713
 1258SOL     OW 3801   0.504   3.774   1.740
 1258SOL    HW1 3802   0.462   3.717   1.670
 1258SOL    HW2 3803   0.438   3.843   1.772
 1259SOL     OW 3804   0.573   4.594   1.029
 1259SOL    HW1 3805   0.617   4.683   1.020
 1259SOL    HW2 3806   0.510   4.594   1.106
 1260SOL     OW 3807   1.360   4.586   1.045
 1260SOL    HW1 3808   1.285   4.586   0.979
 1260SOL    HW2 3809   1.397   4.494   1.054
 1261SOL     OW 3810   1.209   4.249   0.275
 1261SOL    HW1 3811   1.222   4.165   0.329
 1261SOL    HW2 3812   1.180   4.323   0.335
 1262SOL     OW 3813   0.307   3.937   1.231
 1262SOL    HW1 3814   0.284   3.974   1.321
 1262SOL    HW2 3815   0.277   3.842   1.225
 1263SOL     OW 3816   0.037   5.034   1.282
 1263SOL    HW1 3817   0.090   4.985   1.350
 1263SOL    HW2 3818   0.059   5.132   1.287
 1264SOL     OW 3819   0.732   4.358   1.064
 1264SOL    HW1 3820   0.791   4.332   0.988
 1264SOL    HW2 3821   0.704   4.454   1.053
 1265SOL     OW 3822   1.728   4.659   1.854
 1265SOL    HW1 3823   1.682   4.652   1.765
 1265SOL    HW2 3824   1.666   4.703   1.920
 1266SOL     OW 3825   0.307   3.787   0.618
 1266SOL    HW1 3826   0.296   3.881   0.651
 1266SOL    HW2 3827   0.302   3.724   0.695
 1267SOL     OW 3828   1.622   4.091   0.374
 1267SOL    HW1 3829   1.624   4.015   0.438
 1267SOL    HW2 3830   1.574   4.168   0.414
 1268SOL     OW 3831   1.023   4.490   0.966
 1268SOL    HW1 3832   1.038   4.511   1.062
 1268SOL    HW2 3833   0.993   4.395   0.957
 1269SOL     OW 3834   1.859   5.242   1.605
 1269SOL    HW1 3835   1.873   5.269   1.510
 1269SOL    HW2 3836   1.942   5.264   1.658
 1270SOL     OW 3837   0.350   4.622   1.804
 1270SOL    HW1 3838   0.426   4.666   1.852
 1270SOL    HW2 3839   0.385   4.575   1.722
 1271SOL     OW 3840   1.540   3.998   0.125
 1271SOL    HW1 3841   1.479   3.923   0.148
 1271SOL    HW2 3842   1.562   4.050   0.208
 1272SOL     OW 3843   1.303   4.562   0.042
 1272SOL    HW1 3844   1.337   4.469   0.057
 1272SOL    HW2 3845   1.321   4.589  -0.053
 1273SOL     OW 3846   0.319   4.534   0.949
 1273SOL    HW1 3847   0.412   4.570   0.954
 1273SOL    HW2 3848   0.313   4.449   1.001
 1274SOL     OW 3849   0.339   4.233   1.006
 1274SOL    HW1 3850   0.287   4.150   0.989
 1274SOL    HW2 3851   0.416   4.238   0.942
 1275SOL     OW 3852   1.138   4.104   1.678
 1275SOL    HW1 3853   1.093   4.167   1.742
 1275SOL    HW2 3854   1.231   4.135   1.661
 1276SOL     OW 3855   1.160   3.931   1.477
 1276SOL    HW1 3856   1.160   3.995   1.554
 1276SOL    HW2 3857   1.188   3.979   1.394
 1277SOL     OW 3858   0.008   5.050   0.200
 1277SOL    HW1 3859  -0.085   5.071   0.169
 1277SOL    HW2 3860   0.018   4.951   0.213
 1278SOL     OW 3861   1.002   4.520   1.238
 1278SOL    HW1 3862   1.043   4.488   1.324
 1278SOL    HW2 3863   0.906   4.493   1.235
 1279SOL     OW 3864   0.040   4.268   1.114
 1279SOL    HW1 3865   0.125   4.235   1.073
 1279SOL    HW2 3866   0.053   4.283   1.212
 1280SOL     OW 3867   0.189   4.244   1.722
 1280SOL    HW1 3868   0.248   4.204   1.652
 1280SOL    HW2 3869   0.131   4.315   1.681
 1281SOL     OW 3870   1.369   4.674   1.660
 1281SOL    HW1 3871   1.408   4.763   1.680
 1281SOL    HW2 3872   1.379   4.654   1.563
 1282SOL     OW 3873   0.815   4.296   0.325
 1282SOL    HW1 3874   0.822   4.207   0.279
 1282SOL    HW2 3875   0.721   4.330   0.317
 1283SOL     OW 3876   1.657   4.328   1.206
 1283SOL    HW1 3877   1.619   4.259   1.268
 1283SOL    HW2 3878   1.739   4.292   1.162
 1284SOL     OW 3879   0.671   4.188   1.269
 1284SOL    HW1 3880   0.637   4.099   1.239
 1284SOL    HW2 3881   0.697   4.242   1.189
 1285SOL     OW 3882   0.473   4.224   0.191
 1285SOL    HW1 3883   0.534   4.304   0.195
 1285SOL    HW2 3884   0.378   4.255   0.198
 1286SOL     OW 3885   0.159   4.861   1.466
 1286SOL    HW1 3886   0.181   4.800   1.542
 1286SOL    HW2 3887   0.169   4.812   1.380
 1287SOL     OW 3888   1.347   4.783   1.234
 1287SOL    HW1 3889   1.371   4.720   1.160
 1287SOL    HW2 3890   1.257   4.823   1.216
 1288SOL     OW 3891   1.302   4.579   0.309
 1288SOL    HW1 3892   1.216   4.548   0.351
 1288SOL    HW2 3893   1.298   4.565   0.210
 1289SOL     OW 3894   0.083   4.982   1.022
 1289SOL    HW1 3895   0.078   4.981   1.122
 1289SOL    HW2 3896   0.000   4.941   0.984
 1290SOL     OW 3897   0.903   3.810   0.133
 1290SOL    HW1 3898   0.954   3.811   0.047
 1290SOL    HW2 3899   0.959   3.768   0.204
 1291SOL     OW 3900   1.726   3.859   0.523
 1291SOL    HW1 3901   1.799   3.842   0.456
 1291SOL    HW2 3902   1.695   3.772   0.561
 1292SOL     OW 3903   1.280   4.651   0.672
 1292SOL    HW1 3904   1.340   4.570   0.674
 1292SOL    HW2 3905   1.320   4.720   0.612
 1293SOL     OW 3906   0.830   4.997   1.422
 1293SOL    HW1 3907   0.825   5.030   1.517
 1293SOL    HW2 3908   0.744   5.016   1.376
 1294SOL     OW 3909   1.841   3.899   0.963
 1294SOL    HW1 3910   1.880   3.814   0.927
 1294SOL    HW2 3911   1.743   3.901   0.944
 1295SOL     OW 3912   0.263   4.050   0.720
 1295SOL    HW1 3913   0.184   4.101   0.686
 1295SOL    HW2 3914   0.254   4.035   0.818
 1296SOL     OW 3915   0.822   4.726   1.372
 1296SOL    HW1 3916   0.862   4.725   1.280
 1296SOL    HW2 3917   0.832   4.818   1.412
 1297SOL     OW 3918   0.916   4.634   0.291
 1297SOL    HW1 3919   0.979   4.672   0.223
 1297SOL    HW2 3920   0.956   4.551   0.330
 1298SOL     OW 3921   0.372   5.012   1.490
 1298SOL    HW1 3922   0.359   5.105   1.456
 1298SOL    HW2 3923   0.288   4.960   1.477
 1299SOL     OW 3924   1.614   5.016   1.289
 1299SOL    HW1 3925   1.674   5.019   1.369
 1299SOL    HW2 3926   1.539   5.080   1.302
 1300SOL     OW 3927   1.039   4.822   0.696
 1300SOL    HW1 3928   0.969   4.775   0.750
 1300SOL    HW2 3929   1.098   4.754   0.653
 1301SOL     OW 3930   1.014   3.960   0.971
 1301SOL    HW1 3931   1.006   3.924   0.878
 1301SOL    HW2 3932   1.012   3.884   1.036
 1302SOL     OW 3933   1.709   4.109   1.381
 1302SOL    HW1 3934   1.782   4.178   1.385
 1302SOL    HW2 3935   1.737   4.034   1.322
 1303SOL     OW 3936   0.105   4.737   1.726
 1303SOL    HW1 3937   0.028   4.704   1.780
 1303SOL    HW2 3938   0.190   4.707   1.768
 1304SOL     OW 3939   0.672   3.927   1.489
 1304SOL    HW1 3940   0.762   3.911   1.449
 1304SOL    HW2 3941   0.680   3.932   1.588
 1305SOL     OW 3942   0.075   4.069   0.033
 1305SOL    HW1 3943  -0.017   4.041   0.004
 1305SOL    HW2 3944   0.106   4.146  -0.023
 1306SOL     OW 3945   1.440   4.580   1.398
 1306SOL    HW1 3946   1.383   4.632   1.335
 1306SOL    HW2 3947   1.536   4.592   1.374
 1307SOL     OW 3948   0.072   3.890   0.318
 1307SOL    HW1 3949   0.055   3.973   0.264
 1307SOL    HW2 3950   0.162   3.853   0.296
 1308SOL     OW 3951   0.613   4.566   1.431
 1308SOL    HW1 3952   0.669   4.647   1.414
 1308SOL    HW2 3953   0.672   4.486   1.434
 1309SOL     OW 3954   0.716   4.289   1.708
 1309SOL    HW1 3955   0.735   4.354   1.782
 1309SOL    HW2 3956   0.776   4.209   1.717
 1310SOL     OW 3957   1.450   4.944   1.633
 1310SOL    HW1 3958   1.441   4.934   1.732
 1310SOL    HW2 3959   1.546   4.937   1.607
 1311SOL     OW 3960   1.674   4.607   1.254
 1311SOL    HW1 3961   1.647   4.518   1.217
 1311SOL    HW2 3962   1.675   4.675   1.181
 1312SOL     OW 3963   1.225   4.049   0.449
 1312SOL    HW1 3964   1.290   3.975   0.438
 1312SOL    HW2 3965   1.245   4.099   0.533
 1313SOL     OW 3966   0.594   4.469   0.652
 1313SOL    HW1 3967   0.644   4.554   0.633
 1313SOL    HW2 3968   0.506   4.471   0.604
 1314SOL     OW 3969   1.777   4.066   1.642
 1314SOL    HW1 3970   1.760   4.097   1.548
 1314SOL    HW2 3971   1.693   4.029   1.680
 1315SOL     OW 3972   1.730   4.658   1.517
 1315SOL    HW1 3973   1.768   4.749   1.532
 1315SOL    HW2 3974   1.722   4.641   1.418
 1316SOL     OW 3975   0.859   4.680   0.861
 1316SOL    HW1 3976   0.913   4.611   0.909
 1316SOL    HW2 3977   0.827   4.749   0.927
 1317SOL     OW 3978   1.083   4.708   0.087
 1317SOL    HW1 3979   1.060   4.761   0.005
 1317SOL    HW2 3980   1.164   4.652   0.068
 1318SOL     OW 3981   0.221   5.038   1.844
 1318SOL    HW1 3982   0.156   4.965   1.823
 1318SOL    HW2 3983   0.225   5.052   1.942
 1319SOL     OW 3984   0.079   4.964   0.653
 1319SOL    HW1 3985   0.078   4.917   0.741
 1319SOL    HW2 3986   0.161   4.936   0.602
 1320SOL     OW 3987   1.824   3.916   1.227
 1320SOL    HW1 3988   1.820   3.826   1.271
 1320SOL    HW2 3989   1.827   3.905   1.128
 1321SOL     OW 3990   0.428   4.148   0.520
 1321SOL    HW1 3991   0.458   4.076   0.458
 1321SOL    HW2 3992   0.389   4.108   0.603
 1322SOL     OW 3993   0.317   4.271   1.280
 1322SOL    HW1 3994   0.355   4.212   1.352
 1322SOL    HW2 3995   0.357   4.245   1.192
 1323SOL     OW 3996   1.424   3.938   1.112
 1323SOL    HW1 3997   1.476   3.873   1.167
 1323SOL    HW2 3998   1.375   4.001   1.173
 1324SOL     OW 3999   1.001   3.758   1.154
 1324SOL    HW1 4000   0.938   3.686   1.123
 1324SOL    HW2 4001   1.094   3.722   1.154
 1325SOL     OW 4002   0.770   5.054   0.301
 1325SOL    HW1 4003   0.724   4.967   0.318
 1325SOL    HW2 4004   0.861   5.051   0.342
 1326SOL     OW 4005   1.352   3.776   0.168
 1326SOL    HW1 4006   1.387   3.735   0.084
 1326SOL    HW2 4007   1.262   3.738   0.188
 1327SOL     OW 4008   1.300   4.177   0.691
 1327SOL    HW1 4009   1.241   4.257   0.695
 1327SOL    HW2 4010   1.315   4.142   0.784
 1328SOL     OW 4011   1.593   3.945   0.882
 1328SOL    HW1 4012   1.509   3.944   0.936
 1328SOL    HW2 4013   1.595   4.028   0.826
 1329SOL     OW 4014   0.039   4.801   0.300
 1329SOL    HW1 4015   0.138   4.790   0.291
 1329SOL    HW2 4016  -0.001   4.715   0.332
 1330SOL     OW 4017   0.230   4.352   1.975
 1330SOL    HW1 4018   0.137   4.350   2.012
 1330SOL    HW2 4019   0.231   4.313   1.883
 1331SOL     OW 4020   0.225   3.999   2.858
 1331SOL    HW1 4021   0.260   3.982   2.950
 1331SOL    HW2 4022   0.137   3.954   2.846
 1332SOL     OW 4023   0.019   4.092   2.509
 1332SOL    HW1 4024  -0.063   4.135   2.548
 1332SOL    HW2 4025  -0.009   4.019   2.446
 1333SOL     OW 4026   0.569   4.999   3.027
 1333SOL    HW1 4027   0.476   4.992   2.990
 1333SOL    HW2 4028   0.580   5.088   3.071
 1334SOL     OW 4029   1.555   5.235   2.565
 1334SOL    HW1 4030   1.498   5.219   2.646
 1334SOL    HW2 4031   1.496   5.245   2.485
 1335SOL     OW 4032   1.135   4.427   2.579
 1335SOL    HW1 4033   1.192   4.505   2.554
 1335SOL    HW2 4034   1.075   4.453   2.655
 1336SOL     OW 4035   1.755   4.331   2.093
 1336SOL    HW1 4036   1.743   4.318   1.994
 1336SOL    HW2 4037   1.725   4.250   2.142
 1337SOL     OW 4038   0.768   4.868   2.885
 1337SOL    HW1 4039   0.690   4.885   2.945
 1337SOL    HW2 4040   0.802   4.955   2.849
 1338SOL     OW 4041   0.850   4.522   3.685
 1338SOL    HW1 4042   0.846   4.598   3.750
 1338SOL    HW2 4043   0.872   4.558   3.594
 1339SOL     OW 4044   0.685   4.736   2.527
 1339SOL    HW1 4045   0.754   4.720   2.597
 1339SOL    HW2 4046   0.612   4.793   2.565
 1340SOL     OW 4047   0.686   4.885   3.665
 1340SOL    HW1 4048   0.746   4.964   3.679
 1340SOL    HW2 4049   0.600   4.916   3.624
 1341SOL     OW 4050   0.335   5.159   2.923
 1341SOL    HW1 4051   0.257   5.128   2.870
 1341SOL    HW2 4052   0.393   5.217   2.866
 1342SOL     OW 4053   0.438   4.116   3.361
 1342SOL    HW1 4054   0.520   4.060   3.370
 1342SOL    HW2 4055   0.357   4.058   3.365
 1343SOL     OW 4056   1.603   4.171   2.599
 1343SOL    HW1 4057   1.529   4.217   2.549
 1343SOL    HW2 4058   1.654   4.239   2.652
 1344SOL     OW 4059   0.240   4.815   2.748
 1344SOL    HW1 4060   0.254   4.731   2.800
 1344SOL    HW2 4061   0.185   4.879   2.803
 1345SOL     OW 4062   0.606   4.688   1.985
 1345SOL    HW1 4063   0.613   4.772   1.931
 1345SOL    HW2 4064   0.652   4.701   2.073
 1346SOL     OW 4065   1.594   3.838   3.342
 1346SOL    HW1 4066   1.576   3.905   3.270
 1346SOL    HW2 4067   1.591   3.884   3.431
 1347SOL     OW 4068   0.122   4.367   2.425
 1347SOL    HW1 4069   0.077   4.279   2.442
 1347SOL    HW2 4070   0.121   4.421   2.509
 1348SOL     OW 4071   1.689   4.646   2.474
 1348SOL    HW1 4072   1.784   4.617   2.482
 1348SOL    HW2 4073   1.681   4.711   2.399
 1349SOL     OW 4074   1.641   4.832   2.294
 1349SOL    HW1 4075   1.727   4.834   2.242
 1349SOL    HW2 4076   1.655   4.879   2.382
 1350SOL     OW 4077   0.113   4.461   3.459
 1350SOL    HW1 4078   0.201   4.448   3.504
 1350SOL    HW2 4079   0.100   4.558   3.437
 1351SOL     OW 4080   1.293   4.952   3.285
 1351SOL    HW1 4081   1.330   4.879   3.227
 1351SOL    HW2 4082   1.345   4.957   3.370
 1352SOL     OW 4083   0.809   3.728   2.364
 1352SOL    HW1 4084   0.849   3.819   2.355
 1352SOL    HW2 4085   0.709   3.736   2.370
 1353SOL     OW 4086   0.197   4.700   3.126
 1353SOL    HW1 4087   0.286   4.655   3.112
 1353SOL    HW2 4088   0.124   4.635   3.107
 1354SOL     OW 4089   1.525   4.723   2.052
 1354SOL    HW1 4090   1.462   4.647   2.065
 1354SOL    HW2 4091   1.573   4.741   2.138
 1355SOL     OW 4092   0.317   3.975   3.663
 1355SOL    HW1 4093   0.388   4.046   3.669
 1355SOL    HW2 4094   0.229   4.014   3.691
 1356SOL     OW 4095   1.466   5.141   2.815
 1356SOL    HW1 4096   1.407   5.147   2.895
 1356SOL    HW2 4097   1.451   5.053   2.769
 1357SOL     OW 4098   0.598   4.453   2.132
 1357SOL    HW1 4099   0.622   4.522   2.064
 1357SOL    HW2 4100   0.520   4.486   2.186
 1358SOL     OW 4101   1.281   4.069   2.806
 1358SOL    HW1 4102   1.195   4.019   2.793
 1358SOL    HW2 4103   1.343   4.015   2.862
 1359SOL     OW 4104   0.807   4.329   3.327
 1359SOL    HW1 4105   0.760   4.326   3.416
 1359SOL    HW2 4106   0.756   4.274   3.261
 1360SOL     OW 4107   1.394   4.193   3.536
 1360SOL    HW1 4108   1.374   4.236   3.624
 1360SOL    HW2 4109   1.472   4.131   3.545
 1361SOL     OW 4110   0.973   4.614   3.434
 1361SOL    HW1 4111   1.019   4.530   3.405
 1361SOL    HW2 4112   0.917   4.648   3.359
 1362SOL     OW 4113   0.991   4.134   3.104
 1362SOL    HW1 4114   0.914   4.168   3.158
 1362SOL    HW2 4115   0.957   4.083   3.025
 1363SOL     OW 4116   1.041   4.425   2.291
 1363SOL    HW1 4117   1.067   4.421   2.387
 1363SOL    HW2 4118   0.956   4.374   2.277
 1364SOL     OW 4119   0.076   4.535   2.651
 1364SOL    HW1 4120   0.175   4.523   2.660
 1364SOL    HW2 4121   0.052   4.630   2.672
 1365SOL     OW 4122   0.865   4.072   2.057
 1365SOL    HW1 4123   0.924   4.135   2.008
 1365SOL    HW2 4124   0.884   3.978   2.028
 1366SOL     OW 4125   1.719   4.309   3.693
 1366SOL    HW1 4126   1.693   4.398   3.657
 1366SOL    HW2 4127   1.717   4.241   3.620
 1367SOL     OW 4128   1.362   4.868   2.407
 1367SOL    HW1 4129   1.445   4.839   2.359
 1367SOL    HW2 4130   1.313   4.935   2.351
 1368SOL     OW 4131   0.550   3.920   2.747
 1368SOL    HW1 4132   0.545   3.915   2.847
 1368SOL    HW2 4133   0.552   4.016   2.718
 1369SOL     OW 4134   1.795   4.790   2.735
 1369SOL    HW1 4135   1.733   4.775   2.659
 1369SOL    HW2 4136   1.743   4.801   2.820
 1370SOL     OW 4137   0.321   4.667   2.104
 1370SOL    HW1 4138   0.403   4.706   2.062
 1370SOL    HW2 4139   0.294   4.585   2.055
 1371SOL     OW 4140   1.458   4.459   2.590
 1371SOL    HW1 4141   1.453   4.394   2.665
 1371SOL    HW2 4142   1.538   4.518   2.603
 1372SOL     OW 4143   0.202   4.009   3.360
 1372SOL    HW1 4144   0.122   4.069   3.347
 1372SOL    HW2 4145   0.192   3.960   3.446
 1373SOL     OW 4146   1.632   5.101   1.943
 1373SOL    HW1 4147   1.600   5.195   1.933
 1373SOL    HW2 4148   1.556   5.038   1.931
 1374SOL     OW 4149   1.400   3.831   2.288
 1374SOL    HW1 4150   1.376   3.794   2.198
 1374SOL    HW2 4151   1.499   3.847   2.292
 1375SOL     OW 4152   0.382   4.424   2.342
 1375SOL    HW1 4153   0.427   4.334   2.339
 1375SOL    HW2 4154   0.288   4.413   2.375
 1376SOL     OW 4155   1.547   3.946   3.591
 1376SOL    HW1 4156   1.542   3.983   3.683
 1376SOL    HW2 4157   1.475   3.877   3.579
 1377SOL     OW 4158   0.614   3.846   1.979
 1377SOL    HW1 4159   0.712   3.824   1.986
 1377SOL    HW2 4160   0.583   3.829   1.886
 1378SOL     OW 4161   0.781   3.988   3.611
 1378SOL    HW1 4162   0.848   3.927   3.654
 1378SOL    HW2 4163   0.708   4.007   3.676
 1379SOL     OW 4164   1.351   4.314   3.295
 1379SOL    HW1 4165   1.379   4.271   3.380
 1379SOL    HW2 4166   1.376   4.410   3.296
 1380SOL     OW 4167   0.922   4.227   2.761
 1380SOL    HW1 4168   0.897   4.218   2.665
 1380SOL    HW2 4169   0.970   4.145   2.792
 1381SOL     OW 4170   0.539   3.788   2.374
 1381SOL    HW1 4171   0.458   3.789   2.432
 1381SOL    HW2 4172   0.542   3.871   2.319
 1382SOL     OW 4173   1.434   4.912   1.903
 1382SOL    HW1 4174   1.466   4.836   1.960
 1382SOL    HW2 4175   1.342   4.939   1.933
 1383SOL     OW 4176   0.297   3.759   2.033
 1383SOL    HW1 4177   0.346   3.843   2.012
 1383SOL    HW2 4178   0.359   3.694   2.078
 1384SOL     OW 4179   0.935   3.960   2.342
 1384SOL    HW1 4180   0.887   4.001   2.264
 1384SOL    HW2 4181   1.034   3.958   2.323
 1385SOL     OW 4182   1.076   4.407   3.326
 1385SOL    HW1 4183   0.996   4.346   3.329
 1385SOL    HW2 4184   1.157   4.354   3.302
 1386SOL     OW 4185   1.227   5.294   2.655
 1386SOL    HW1 4186   1.248   5.368   2.590
 1386SOL    HW2 4187   1.295   5.294   2.728
 1387SOL     OW 4188   0.459   4.876   2.603
 1387SOL    HW1 4189   0.388   4.849   2.668
 1387SOL    HW2 4190   0.433   4.848   2.510
 1388SOL     OW 4191   1.032   4.273   1.878
 1388SOL    HW1 4192   0.991   4.355   1.839
 1388SOL    HW2 4193   1.096   4.299   1.951
 1389SOL     OW 4194   0.078   4.280   3.248
 1389SOL    HW1 4195   0.170   4.279   3.207
 1389SOL    HW2 4196   0.072   4.354   3.315
 1390SOL     OW 4197   0.561   3.946   3.009
 1390SOL    HW1 4198   0.599   3.862   3.046
 1390SOL    HW2 4199   0.473   3.965   3.053
 1391SOL     OW 4200   0.866   4.178   2.504
 1391SOL    HW1 4201   0.834   4.250   2.442
 1391SOL    HW2 4202   0.890   4.097   2.451
 1392SOL     OW 4203   1.017   3.763   2.615
 1392SOL    HW1 4204   0.945   3.768   2.546
 1392SOL    HW2 4205   0.993   3.694   2.684
 1393SOL     OW 4206   1.429   4.897   2.729
 1393SOL    HW1 4207   1.374   4.813   2.722
 1393SOL    HW2 4208   1.455   4.926   2.637
 1394SOL     OW 4209   1.466   4.314   2.854
 1394SOL    HW1 4210   1.436   4.219   2.861
 1394SOL    HW2 4211   1.539   4.330   2.920
 1395SOL     OW 4212   1.857   4.557   2.239
 1395SOL    HW1 4213   1.899   4.493   2.303
 1395SOL    HW2 4214   1.819   4.506   2.161
 1396SOL     OW 4215   1.664   5.004   2.519
 1396SOL    HW1 4216   1.763   5.012   2.533
 1396SOL    HW2 4217   1.619   5.088   2.550
 1397SOL     OW 4218   1.390   4.299   1.940
 1397SOL    HW1 4219   1.336   4.278   2.021
 1397SOL    HW2 4220   1.481   4.258   1.949
 1398SOL     OW 4221   0.527   3.980   2.190
 1398SOL    HW1 4222   0.554   3.921   2.115
 1398SOL    HW2 4223   0.527   4.075   2.159
 1399SOL     OW 4224   1.754   4.947   3.450
 1399SOL    HW1 4225   1.845   4.908   3.437
 1399SOL    HW2 4226   1.762   5.043   3.474
 1400SOL     OW 4227   1.064   5.071   3.202
 1400SOL    HW1 4228   0.984   5.048   3.257
 1400SOL    HW2 4229   1.147   5.045   3.251
 1401SOL     OW 4230   1.111   4.919   2.962
 1401SOL    HW1 4231   1.071   4.963   3.043
 1401SOL    HW2 4232   1.070   4.956   2.879
 1402SOL     OW 4233   1.638   4.823   2.941
 1402SOL    HW1 4234   1.643   4.904   3.000
 1402SOL    HW2 4235   1.552   4.825   2.890
 1403SOL     OW 4236   0.915   3.813   3.264
 1403SOL    HW1 4237   0.940   3.793   3.169
 1403SOL    HW2 4238   0.987   3.869   3.306
 1404SOL     OW 4239   0.980   4.840   3.581
 1404SOL    HW1 4240   0.881   4.846   3.591
 1404SOL    HW2 4241   1.003   4.760   3.525
 1405SOL     OW 4242   0.705   4.774   2.230
 1405SOL    HW1 4243   0.691   4.781   2.329
 1405SOL    HW2 4244   0.789   4.723   2.212
 1406SOL     OW 4245   0.410   4.537   3.113
 1406SOL    HW1 4246   0.496   4.549   3.163
 1406SOL    HW2 4247   0.368   4.450   3.140
 1407SOL     OW 4248   1.274   4.110   3.124
 1407SOL    HW1 4249   1.295   4.184   3.188
 1407SOL    HW2 4250   1.185   4.127   3.081
 1408SOL     OW 4251   0.064   5.288   3.193
 1408SOL    HW1 4252   0.018   5.370   3.159
 1408SOL    HW2 4253   0.162   5.307   3.202
 1409SOL     OW 4254   0.367   4.824   2.363
 1409SOL    HW1 4255   0.360   4.907   2.307
 1409SOL    HW2 4256   0.371   4.744   2.303
 1410SOL     OW 4257   0.566   4.261   2.727
 1410SOL    HW1 4258   0.578   4.327   2.653
 1410SOL    HW2 4259   0.612   4.295   2.810
 1411SOL     OW 4260   1.582   4.363   2.334
 1411SOL    HW1 4261   1.551   4.424   2.407
 1411SOL    HW2 4262   1.632   4.415   2.265
 1412SOL     OW 4263   0.402   4.475   3.460
 1412SOL    HW1 4264   0.470   4.530   3.413
 1412SOL    HW2 4265   0.442   4.387   3.487
 1413SOL     OW 4266   1.587   4.503   3.532
 1413SOL    HW1 4267   1.495   4.541   3.527
 1413SOL    HW2 4268   1.647   4.550   3.467
 1414SOL     OW 4269   1.013   3.829   3.632
 1414SOL    HW1 4270   1.019   3.914   3.580
 1414SOL    HW2 4271   1.045   3.753   3.575
 1415SOL     OW 4272   0.504   3.774   3.602
 1415SOL    HW1 4273   0.462   3.717   3.532
 1415SOL    HW2 4274   0.438   3.843   3.634
 1416SOL     OW 4275   0.573   4.594   2.891
 1416SOL    HW1 4276   0.617   4.683   2.882
 1416SOL    HW2 4277   0.510   4.594   2.968
 1417SOL     OW 4278   1.360   4.586   2.907
 1417SOL    HW1 4279   1.285   4.586   2.841
 1417SOL    HW2 4280   1.397   4.494   2.916
 1418SOL     OW 4281   1.209   4.249   2.137
 1418SOL    HW1 4282   1.222   4.165   2.191
 1418SOL    HW2 4283   1.180   4.323   2.197
 1419SOL     OW 4284   0.307   3.937   3.093
 1419SOL    HW1 4285   0.284   3.974   3.183
 1419SOL    HW2 4286   0.277   3.842   3.087
 1420SOL     OW 4287   0.037   5.034   3.144
 1420SOL    HW1 4288   0.090   4.985   3.212
 1420SOL    HW2 4289   0.059   5.132   3.149
 1421SOL     OW 4290   0.732   4.358   2.926
 1421SOL    HW1 4291   0.791   4.332   2.850
 1421SOL    HW2 4292   0.704   4.454   2.915
 1422SOL     OW 4293   1.728   4.659   3.716
 1422SOL    HW1 4294   1.682   4.652   3.627
 1422SOL    HW2 4295   1.666   4.703   3.782
 1423SOL     OW 4296   0.307   3.787   2.480
 1423SOL    HW1 4297   0.296   3.881   2.513
 1423SOL    HW2 4298   0.302   3.724   2.557
 1424SOL     OW 4299   1.622   4.091   2.236
 1424SOL    HW1 4300   1.624   4.015   2.300
 1424SOL    HW2 4301   1.574   4.168   2.276
 1425SOL     OW 4302   1.023   4.490   2.828
 1425SOL    HW1 4303   1.038   4.511   2.924
 1425SOL    HW2 4304   0.993   4.395   2.819
 1426SOL     OW 4305   1.859   5.242   3.467
 1426SOL    HW1 4306   1.873   5.269   3.372
 1426SOL    HW2 4307   1.942   5.264   3.520
 1427SOL     OW 4308   0.350   4.622   3.666
 1427SOL    HW1 4309   0.426   4.666   3.714
 1427SOL    HW2 4310   0.385   4.575   3.584
 1428SOL     OW 4311   1.540   3.998   1.987
 1428SOL    HW1 4312   1.479   3.923   2.010
 1428SOL    HW2 4313   1.562   4.050   2.070
 1429SOL     OW 4314   1.303   4.562   1.904
 1429SOL    HW1 4315   1.337   4.469   1.919
 1429SOL    HW2 4316   1.321   4.589   1.809
 1430SOL     OW 4317   0.319   4.534   2.811
 1430SOL    HW1 4318   0.412   4.570   2.816
 1430SOL    HW2 4319   0.313   4.449   2.863
 1431SOL     OW 4320   0.339   4.233   2.868
 1431SOL    HW1 4321   0.287   4.150   2.851
 1431SOL    HW2 4322   0.416   4.238   2.804
 1432SOL     OW 4323   1.138   4.104   3.540
 1432SOL    HW1 4324   1.093   4.167   3.604
 1432SOL    HW2 4325   1.231   4.135   3.523
 1433SOL     OW 4326   1.160   3.931   3.339
 1433SOL    HW1 4327   1.160   3.995   3.416
 1433SOL    HW2 4328   1.188   3.979   3.256
 1434SOL     OW 4329   0.008   5.050   2.062
 1434SOL    HW1 4330  -0.085   5.071   2.031
 1434SOL    HW2 4331   0.018   4.951   2.075
 1435SOL     OW 4332   1.002   4.520   3.100
 1435SOL    HW1 4333   1.043   4.488   3.186
 1435SOL    HW2 4334   0.906   4.493   3.097
 1436SOL     OW 4335   0.040   4.268   2.976
 1436SOL    HW1 4336   0.125   4.235   2.935
 1436SOL    HW2 4337   0.053   4.283   3.074
 1437SOL     OW 4338   0.189   4.244   3.584
 1437SOL    HW1 4339   0.248   4.204   3.514
 1437SOL    HW2 4340   0.131   4.315   3.543
 1438SOL     OW 4341   1.369   4.674   3.522
 1438SOL    HW1 4342   1.408   4.763   3.542
 1438SOL    HW2 4343   1.379   4.654   3.425
 1439SOL     OW 4344   0.815   4.296   2.187
 1439SOL    HW1 4345   0.822   4.207   2.141
 1439SOL    HW2 4346   0.721   4.330   2.179
 1440SOL     OW 4347   1.657   4.328   3.068
 1440SOL    HW1 4348   1.619   4.259   3.130
 1440SOL    HW2 4349   1.739   4.292   3.024
 1441SOL     OW 4350   0.671   4.188   3.131
 1441SOL    HW1 4351   0.637   4.099   3.101
 1441SOL    HW2 4352   0.697   4.242   3.051
 1442SOL     OW 4353   0.473   4.224   2.053
 1442SOL    HW1 4354   0.534   4.304   2.057
 1442SOL    HW2 4355   0.378   4.255   2.060
 1443SOL     OW 4356   0.159   4.861   3.328
 1443SOL    HW1 4357   0.181   4.800   3.404
 1443SOL    HW2 4358   0.169   4.812   3.242
 1444SOL     OW 4359   1.347   4.783   3.096
 1444SOL    HW1 4360   1.371   4.720   3.022
 1444SOL    HW2 4361   1.257   4.823   3.078
 1445SOL     OW 4362   1.302   4.579   2.171
 1445SOL    HW1 4363   1.216   4.548   2.213
 1445SOL    HW2 4364   1.298   4.565   2.072
 1446SOL     OW 4365   0.083   4.982   2.884
 1446SOL    HW1 4366   0.078   4.981   2.984
 1446SOL    HW2 4367   0.000   4.941   2.846
 1447SOL     OW 4368   1.726   3.859   2.385
 1447SOL    HW1 4369   1.799   3.842   2.318
 1447SOL    HW2 4370   1.695   3.772   2.423
 1448SOL     OW 4371   1.280   4.651   2.534
 1448SOL    HW1 4372   1.340   4.570   2.536
 1448SOL    HW2 4373   1.320   4.720   2.474
 1449SOL     OW 4374   0.830   4.997   3.284
 1449SOL    HW1 4375   0.825   5.030   3.379
 1449SOL    HW2 4376   0.744   5.016   3.238
 1450SOL     OW 4377   1.841   3.899   2.825
 1450SOL    HW1 4378   1.880   3.814   2.789
 1450SOL    HW2 4379   1.743   3.901   2.806
 1451SOL     OW 4380   0.263   4.050   2.582
 1451SOL    HW1 4381   0.184   4.101   2.548
 1451SOL    HW2 4382   0.254   4.035   2.680
 1452SOL     OW 4383   1.194   5.336   1.893
 1452SOL    HW1 4384   1.200   5.243   1.930
 1452SOL    HW2 4385   1.135   5.336   1.813
 1453SOL     OW 4386   0.822   4.726   3.234
 1453SOL    HW1 4387   0.862   4.725   3.142
 1453SOL    HW2 4388   0.832   4.818   3.274
 1454SOL     OW 4389   0.916   4.634   2.153
 1454SOL    HW1 4390   0.979   4.672   2.085
 1454SOL    HW2 4391   0.956   4.551   2.192
 1455SOL     OW 4392   0.372   5.012   3.352
 1455SOL    HW1 4393   0.359   5.105   3.318
 1455SOL    HW2 4394   0.288   4.960   3.339
 1456SOL     OW 4395   1.614   5.016   3.151
 1456SOL    HW1 4396   1.674   5.019   3.231
 1456SOL    HW2 4397   1.539   5.080   3.164
 1457SOL     OW 4398   1.039   4.822   2.558
 1457SOL    HW1 4399   0.969   4.775   2.612
 1457SOL    HW2 4400   1.098   4.754   2.515
 1458SOL     OW 4401   1.014   3.960   2.833
 1458SOL    HW1 4402   1.006   3.924   2.740
 1458SOL    HW2 4403   1.012   3.884   2.898
 1459SOL     OW 4404   1.709   4.109   3.243
 1459SOL    HW1 4405   1.782   4.178   3.247
 1459SOL    HW2 4406   1.737   4.034   3.184
 1460SOL     OW 4407   0.105   4.737   3.588
 1460SOL    HW1 4408   0.028   4.704   3.642
 1460SOL    HW2 4409   0.190   4.707   3.630
 1461SOL     OW 4410   0.672   3.927   3.351
 1461SOL    HW1 4411   0.762   3.911   3.311
 1461SOL    HW2 4412   0.680   3.932   3.450
 1462SOL     OW 4413   0.075   4.069   1.895
 1462SOL    HW1 4414  -0.017   4.041   1.866
 1462SOL    HW2 4415   0.106   4.146   1.839
 1463SOL     OW 4416   1.440   4.580   3.260
 1463SOL    HW1 4417   1.383   4.632   3.197
 1463SOL    HW2 4418   1.536   4.592   3.236
 1464SOL     OW 4419   0.072   3.890   2.180
 1464SOL    HW1 4420   0.055   3.973   2.126
 1464SOL    HW2 4421   0.162   3.853   2.158
 1465SOL     OW 4422   0.613   4.566   3.293
 1465SOL    HW1 4423   0.669   4.647   3.276
 1465SOL    HW2 4424   0.672   4.486   3.296
 1466SOL     OW 4425   0.716   4.289   3.570
 1466SOL    HW1 4426   0.735   4.354   3.644
 1466SOL    HW2 4427   0.776   4.209   3.579
 1467SOL     OW 4428   1.450   4.944   3.495
 1467SOL    HW1 4429   1.441   4.934   3.594
 1467SOL    HW2 4430   1.546   4.937   3.469
 1468SOL     OW 4431   1.674   4.607   3.116
 1468SOL    HW1 4432   1.647   4.518   3.079
 1468SOL    HW2 4433   1.675   4.675   3.043
 1469SOL     OW 4434   1.225   4.049   2.311
 1469SOL    HW1 4435   1.290   3.975   2.300
 1469SOL    HW2 4436   1.245   4.099   2.395
 1470SOL     OW 4437   0.594   4.469   2.514
 1470SOL    HW1 4438   0.644   4.554   2.495
 1470SOL    HW2 4439   0.506   4.471   2.466
 1471SOL     OW 4440   1.777   4.066   3.504
 1471SOL    HW1 4441   1.760   4.097   3.410
 1471SOL    HW2 4442   1.693   4.029   3.542
 1472SOL     OW 4443   1.730   4.658   3.379
 1472SOL    HW1 4444   1.768   4.749   3.394
 1472SOL    HW2 4445   1.722   4.641   3.280
 1473SOL     OW 4446   0.859   4.680   2.723
 1473SOL    HW1 4447   0.913   4.611   2.771
 1473SOL    HW2 4448   0.827   4.749   2.789
 1474SOL     OW 4449   1.083   4.708   1.949
 1474SOL    HW1 4450   1.060   4.761   1.867
 1474SOL    HW2 4451   1.164   4.652   1.930
 1475SOL     OW 4452   0.221   5.038   3.706
 1475SOL    HW1 4453   0.156   4.965   3.685
 1475SOL    HW2 4454   0.225   5.052   3.804
 1476SOL     OW 4455   0.079   4.964   2.515
 1476SOL    HW1 4456   0.078   4.917   2.603
 1476SOL    HW2 4457   0.161   4.936   2.464
 1477SOL     OW 4458   1.824   3.916   3.089
 1477SOL    HW1 4459   1.820   3.826   3.133
 1477SOL    HW2 4460   1.827   3.905   2.990
 1478SOL     OW 4461   0.428   4.148   2.382
 1478SOL    HW1 4462   0.458   4.076   2.320
 1478SOL    HW2 4463   0.389   4.108   2.465
 1479SOL     OW 4464   0.317   4.271   3.142
 1479SOL    HW1 4465   0.355   4.212   3.214
 1479SOL    HW2 4466   0.357   4.245   3.054
 1480SOL     OW 4467   1.424   3.938   2.974
 1480SOL    HW1 4468   1.476   3.873   3.029
 1480SOL    HW2 4469   1.375   4.001   3.035
 1481SOL     OW 4470   1.001   3.758   3.016
 1481SOL    HW1 4471   0.938   3.686   2.985
 1481SOL    HW2 4472   1.094   3.722   3.016
 1482SOL     OW 4473   0.770   5.054   2.163
 1482SOL    HW1 4474   0.724   4.967   2.180
 1482SOL    HW2 4475   0.861   5.051   2.204
 1483SOL     OW 4476   1.352   3.776   2.030
 1483SOL    HW1 4477   1.387   3.735   1.946
 1483SOL    HW2 4478   1.262   3.738   2.050
 1484SOL     OW 4479   1.300   4.177   2.553
 1484SOL    HW1 4480   1.241   4.257   2.557
 1484SOL    HW2 4481   1.315   4.142   2.646
 1485SOL     OW 4482   1.593   3.945   2.744
 1485SOL    HW1 4483   1.509   3.944   2.798
 1485SOL    HW2 4484   1.595   4.028   2.688
 1486SOL     OW 4485   0.039   4.801   2.162
 1486SOL    HW1 4486   0.138   4.790   2.153
 1486SOL    HW2 4487  -0.001   4.715   2.194
 1487SOL     OW 4488   0.230   4.352   3.837
 1487SOL    HW1 4489   0.137   4.350   3.874
 1487SOL    HW2 4490   0.231   4.313   3.745
 1488SOL     OW 4491   0.225   3.999   4.720
 1488SOL    HW1 4492   0.260   3.982   4.812
 1488SOL    HW2 4493   0.137   3.954   4.708
 1489SOL     OW 4494   0.019   4.092   4.371
 1489SOL    HW1 4495  -0.063   4.135   4.410
 1489SOL    HW2 4496  -0.009   4.019   4.308
 1490SOL     OW 4497   0.569   4.999   4.889
 1490SOL    HW1 4498   0.476   4.992   4.852
 1490SOL    HW2 4499   0.580   5.088   4.933
 1491SOL     OW 4500   1.555   5.235   4.427
 1491SOL    HW1 4501   1.498   5.219   4.508
 1491SOL    HW2 4502   1.496   5.245   4.347
 1492SOL     OW 4503   1.135   4.427   4.441
 1492SOL    HW1 4504   1.192   4.505   4.416
 1492SOL    HW2 4505   1.075   4.453   4.517
 1493SOL     OW 4506   1.755   4.331   3.955
 1493SOL    HW1 4507   1.743   4.318   3.856
 1493SOL    HW2 4508   1.725   4.250   4.004
 1494SOL     OW 4509   0.768   4.868   4.747
 1494SOL    HW1 4510   0.690   4.885   4.807
 1494SOL    HW2 4511   0.802   4.955   4.711
 1495SOL     OW 4512   0.685   4.736   4.389
 1495SOL    HW1 4513   0.754   4.720   4.459
 1495SOL    HW2 4514   0.612   4.793   4.427
 1496SOL     OW 4515   0.335   5.159   4.785
 1496SOL    HW1 4516   0.257   5.128   4.732
 1496SOL    HW2 4517   0.393   5.217   4.728
 1497SOL     OW 4518   1.603   4.171   4.461
 1497SOL    HW1 4519   1.529   4.217   4.411
 1497SOL    HW2 4520   1.654   4.239   4.514
 1498SOL     OW 4521   0.240   4.815   4.610
 1498SOL    HW1 4522   0.254   4.731   4.662
 1498SOL    HW2 4523   0.185   4.879   4.665
 1499SOL     OW 4524   0.606   4.688   3.847
 1499SOL    HW1 4525   0.613   4.772   3.793
 1499SOL    HW2 4526   0.652   4.701   3.935
 1500SOL     OW 4527   0.122   4.367   4.287
 1500SOL    HW1 4528   0.077   4.279   4.304
 1500SOL    HW2 4529   0.121   4.421   4.371
 1501SOL     OW 4530   1.689   4.646   4.336
 1501SOL    HW1 4531   1.784   4.617   4.344
 1501SOL    HW2 4532   1.681   4.711   4.261
 1502SOL     OW 4533   1.641   4.832   4.156
 1502SOL    HW1 4534   1.727   4.834   4.104
 1502SOL    HW2 4535   1.655   4.879   4.244
 1503SOL     OW 4536   0.809   3.728   4.226
 1503SOL    HW1 4537   0.849   3.819   4.217
 1503SOL    HW2 4538   0.709   3.736   4.232
 1504SOL     OW 4539   0.197   4.700   4.988
 1504SOL    HW1 4540   0.286   4.655   4.974
 1504SOL    HW2 4541   0.124   4.635   4.969
 1505SOL     OW 4542   1.525   4.723   3.914
 1505SOL    HW1 4543   1.462   4.647   3.927
 1505SOL    HW2 4544   1.573   4.741   4.000
 1506SOL     OW 4545   1.466   5.141   4.677
 1506SOL    HW1 4546   1.407   5.147   4.757
 1506SOL    HW2 4547   1.451   5.053   4.631
 1507SOL     OW 4548   0.598   4.453   3.994
 1507SOL    HW1 4549   0.622   4.522   3.926
 1507SOL    HW2 4550   0.520   4.486   4.048
 1508SOL     OW 4551   1.281   4.069   4.668
 1508SOL    HW1 4552   1.195   4.019   4.655
 1508SOL    HW2 4553   1.343   4.015   4.724
 1509SOL     OW 4554   0.807   4.329   5.189
 1509SOL    HW1 4555   0.760   4.326   5.278
 1509SOL    HW2 4556   0.756   4.274   5.123
 1510SOL     OW 4557   0.991   4.134   4.966
 1510SOL    HW1 4558   0.914   4.168   5.020
 1510SOL    HW2 4559   0.957   4.083   4.887
 1511SOL     OW 4560   1.041   4.425   4.153
 1511SOL    HW1 4561   1.067   4.421   4.249
 1511SOL    HW2 4562   0.956   4.374   4.139
 1512SOL     OW 4563   0.076   4.535   4.513
 1512SOL    HW1 4564   0.175   4.523   4.522
 1512SOL    HW2 4565   0.052   4.630   4.534
 1513SOL     OW 4566   0.865   4.072   3.919
 1513SOL    HW1 4567   0.924   4.135   3.870
 1513SOL    HW2 4568   0.884   3.978   3.890
 1514SOL     OW 4569   1.362   4.868   4.269
 1514SOL    HW1 4570   1.445   4.839   4.221
 1514SOL    HW2 4571   1.313   4.935   4.213
 1515SOL     OW 4572   0.550   3.920   4.609
 1515SOL    HW1 4573   0.545   3.915   4.709
 1515SOL    HW2 4574   0.552   4.016   4.580
 1516SOL     OW 4575   1.795   4.790   4.597
 1516SOL    HW1 4576   1.733   4.775   4.521
 1516SOL    HW2 4577   1.743   4.801   4.682
 1517SOL     OW 4578   0.321   4.667   3.966
 1517SOL    HW1 4579   0.403   4.706   3.924
 1517SOL    HW2 4580   0.294   4.585   3.917
 1518SOL     OW 4581   1.458   4.459   4.452
 1518SOL    HW1 4582   1.453   4.394   4.527
 1518SOL    HW2 4583   1.538   4.518   4.465
 1519SOL     OW 4584   1.632   5.101   3.805
 1519SOL    HW1 4585   1.600   5.195   3.795
 1519SOL    HW2 4586   1.556   5.038   3.793
 1520SOL     OW 4587   1.400   3.831   4.150
 1520SOL    HW1 4588   1.376   3.794   4.060
 1520SOL    HW2 4589   1.499   3.847   4.154
 1521SOL     OW 4590   0.382   4.424   4.204
 1521SOL    HW1 4591   0.427   4.334   4.201
 1521SOL    HW2 4592   0.288   4.413   4.237
 1522SOL     OW 4593   0.614   3.846   3.841
 1522SOL    HW1 4594   0.712   3.824   3.848
 1522SOL    HW2 4595   0.583   3.829   3.748
 1523SOL     OW 4596   0.922   4.227   4.623
 1523SOL    HW1 4597   0.897   4.218   4.527
 1523SOL    HW2 4598   0.970   4.145   4.654
 1524SOL     OW 4599   0.539   3.788   4.236
 1524SOL    HW1 4600   0.458   3.789   4.294
 1524SOL    HW2 4601   0.542   3.871   4.181
 1525SOL     OW 4602   1.434   4.912   3.765
 1525SOL    HW1 4603   1.466   4.836   3.822
 1525SOL    HW2 4604   1.342   4.939   3.795
 1526SOL     OW 4605   0.297   3.759   3.895
 1526SOL    HW1 4606   0.346   3.843   3.874
 1526SOL    HW2 4607   0.359   3.694   3.940
 1527SOL     OW 4608   0.935   3.960   4.204
 1527SOL    HW1 4609   0.887   4.001   4.126
 1527SOL    HW2 4610   1.034   3.958   4.185
 1528SOL     OW 4611   1.227   5.294   4.517
 1528SOL    HW1 4612   1.248   5.368   4.452
 1528SOL    HW2 4613   1.295   5.294   4.590
 1529SOL     OW 4614   0.459   4.876   4.465
 1529SOL    HW1 4615   0.388   4.849   4.530
 1529SOL    HW2 4616   0.433   4.848   4.372
 1530SOL     OW 4617   1.032   4.273   3.740
 1530SOL    HW1 4618   0.991   4.355   3.701
 1530SOL    HW2 4619   1.096   4.299   3.813
 1531SOL     OW 4620   0.561   3.946   4.871
 1531SOL    HW1 4621   0.599   3.862   4.908
 1531SOL    HW2 4622   0.473   3.965   4.915
 1532SOL     OW 4623   0.866   4.178   4.366
 1532SOL    HW1 4624   0.834   4.250   4.304
 1532SOL    HW2 4625   0.890   4.097   4.313
 1533SOL     OW 4626   1.017   3.763   4.477
 1533SOL    HW1 4627   0.945   3.768   4.408
 1533SOL    HW2 4628   0.993   3.694   4.546
 1534SOL     OW 4629   1.429   4.897   4.591
 1534SOL    HW1 4630   1.374   4.813   4.584
 1534SOL    HW2 4631   1.455   4.926   4.499
 1535SOL     OW 4632   1.466   4.314   4.716
 1535SOL    HW1 4633   1.436   4.219   4.723
 1535SOL    HW2 4634   1.539   4.330   4.782
 1536SOL     OW 4635   1.857   4.557   4.101
 1536SOL    HW1 4636   1.899   4.493   4.165
 1536SOL    HW2 4637   1.819   4.506   4.023
 1537SOL     OW 4638   1.664   5.004   4.381
 1537SOL    HW1 4639   1.763   5.012   4.395
 1537SOL    HW2 4640   1.619   5.088   4.412
 1538SOL     OW 4641   1.390   4.299   3.802
 1538SOL    HW1 4642   1.336   4.278   3.883
 1538SOL    HW2 4643   1.481   4.258   3.811
 1539SOL     OW 4644   0.527   3.980   4.052
 1539SOL    HW1 4645   0.554   3.921   3.977
 1539SOL    HW2 4646   0.527   4.075   4.021
 1540SOL     OW 4647   1.754   4.947   5.312
 1540SOL    HW1 4648   1.845   4.908   5.299
 1540SOL    HW2 4649   1.762   5.043   5.336
 1541SOL     OW 4650   1.064   5.071   5.064
 1541SOL    HW1 4651   0.984   5.048   5.119
 1541SOL    HW2 4652   1.147   5.045   5.113
 1542SOL     OW 4653   1.111   4.919   4.824
 1542SOL    HW1 4654   1.071   4.963   4.905
 1542SOL    HW2 4655   1.070   4.956   4.741
 1543SOL     OW 4656   1.638   4.823   4.803
 1543SOL    HW1 4657   1.643   4.904   4.862
 1543SOL    HW2 4658   1.552   4.825   4.752
 1544SOL     OW 4659   0.705   4.774   4.092
 1544SOL    HW1 4660   0.691   4.781   4.191
 1544SOL    HW2 4661   0.789   4.723   4.074
 1545SOL     OW 4662   0.410   4.537   4.975
 1545SOL    HW1 4663   0.496   4.549   5.025
 1545SOL    HW2 4664   0.368   4.450   5.002
 1546SOL     OW 4665   1.274   4.110   4.986
 1546SOL    HW1 4666   1.295   4.184   5.050
 1546SOL    HW2 4667   1.185   4.127   4.943
 1547SOL     OW 4668   0.367   4.824   4.225
 1547SOL    HW1 4669   0.360   4.907   4.169
 1547SOL    HW2 4670   0.371   4.744   4.165
 1548SOL     OW 4671   0.566   4.261   4.589
 1548SOL    HW1 4672   0.578   4.327   4.515
 1548SOL    HW2 4673   0.612   4.295   4.672
 1549SOL     OW 4674   1.582   4.363   4.196
 1549SOL    HW1 4675   1.551   4.424   4.269
 1549SOL    HW2 4676   1.632   4.415   4.127
 1550SOL     OW 4677   0.573   4.594   4.753
 1550SOL    HW1 4678   0.617   4.683   4.744
 1550SOL    HW2 4679   0.510   4.594   4.830
 1551SOL     OW 4680   1.360   4.586   4.769
 1551SOL    HW1 4681   1.285   4.586   4.703
 1551SOL    HW2 4682   1.397   4.494   4.778
 1552SOL     OW 4683   1.209   4.249   3.999
 1552SOL    HW1 4684   1.222   4.165   4.053
 1552SOL    HW2 4685   1.180   4.323   4.059
 1553SOL     OW 4686   0.307   3.937   4.955
 1553SOL    HW1 4687   0.284   3.974   5.045
 1553SOL    HW2 4688   0.277   3.842   4.949
 1554SOL     OW 4689   0.037   5.034   5.006
 1554SOL    HW1 4690   0.090   4.985   5.074
 1554SOL    HW2 4691   0.059   5.132   5.011
 1555SOL     OW 4692   0.732   4.358   4.788
 1555SOL    HW1 4693   0.791   4.332   4.712
 1555SOL    HW2 4694   0.704   4.454   4.777
 1556SOL     OW 4695   0.307   3.787   4.342
 1556SOL    HW1 4696   0.296   3.881   4.375
 1556SOL    HW2 4697   0.302   3.724   4.419
 1557SOL     OW 4698   1.622   4.091   4.098
 1557SOL    HW1 4699   1.624   4.015   4.162
 1557SOL    HW2 4700   1.574   4.168   4.138
 1558SOL     OW 4701   1.023   4.490   4.690
 1558SOL    HW1 4702   1.038   4.511   4.786
 1558SOL    HW2 4703   0.993   4.395   4.681
 1559SOL     OW 4704   1.540   3.998   3.849
 1559SOL    HW1 4705   1.479   3.923   3.872
 1559SOL    HW2 4706   1.562   4.050   3.932
 1560SOL     OW 4707   1.303   4.562   3.766
 1560SOL    HW1 4708   1.337   4.469   3.781
 1560SOL    HW2 4709   1.321   4.589   3.671
 1561SOL     OW 4710   0.319   4.534   4.673
 1561SOL    HW1 4711   0.412   4.570   4.678
 1561SOL    HW2 4712   0.313   4.449   4.725
 1562SOL     OW 4713   0.339   4.233   4.730
 1562SOL    HW1 4714   0.287   4.150   4.713
 1562SOL    HW2 4715   0.416   4.238   4.666
 1563SOL     OW 4716   1.160   3.931   5.201
 1563SOL    HW1 4717   1.160   3.995   5.278
 1563SOL    HW2 4718   1.188   3.979   5.118
 1564SOL     OW 4719   0.008   5.050   3.924
 1564SOL    HW1 4720  -0.085   5.071   3.893
 1564SOL    HW2 4721   0.018   4.951   3.937
 1565SOL     OW 4722   1.002   4.520   4.962
 1565SOL    HW1 4723   1.043   4.488   5.048
 1565SOL    HW2 4724   0.906   4.493   4.959
 1566SOL     OW 4725   0.040   4.268   4.838
 1566SOL    HW1 4726   0.125   4.235   4.797
 1566SOL    HW2 4727   0.053   4.283   4.936
 1567SOL     OW 4728   0.189   4.244   5.446
 1567SOL    HW1 4729   0.248   4.204   5.376
 1567SOL    HW2 4730   0.131   4.315   5.405
 1568SOL     OW 4731   0.815   4.296   4.049
 1568SOL    HW1 4732   0.822   4.207   4.003
 1568SOL    HW2 4733   0.721   4.330   4.041
 1569SOL     OW 4734   1.657   4.328   4.930
 1569SOL    HW1 4735   1.619   4.259   4.992
 1569SOL    HW2 4736   1.739   4.292   4.886
 1570SOL     OW 4737   0.671   4.188   4.993
 1570SOL    HW1 4738   0.637   4.099   4.963
 1570SOL    HW2 4739   0.697   4.242   4.913
 1571SOL     OW 4740   0.473   4.224   3.915
 1571SOL    HW1 4741   0.534   4.304   3.919
 1571SOL    HW2 4742   0.378   4.255   3.922
 1572SOL     OW 4743   0.159   4.861   5.190
 1572SOL    HW1 4744   0.181   4.800   5.266
 1572SOL    HW2 4745   0.169   4.812   5.104
 1573SOL     OW 4746   1.347   4.783   4.958
 1573SOL    HW1 4747   1.371   4.720   4.884
 1573SOL    HW2 4748   1.257   4.823   4.940
 1574SOL     OW 4749   1.302   4.579   4.033
 1574SOL    HW1 4750   1.216   4.548   4.075
 1574SOL    HW2 4751   1.298   4.565   3.934
 1575SOL     OW 4752   0.083   4.982   4.746
 1575SOL    HW1 4753   0.078   4.981   4.846
 1575SOL    HW2 4754   0.000   4.941   4.708
 1576SOL     OW 4755   1.726   3.859   4.247
 1576SOL    HW1 4756   1.799   3.842   4.180
 1576SOL    HW2 4757   1.695   3.772   4.285
 1577SOL     OW 4758   1.280   4.651   4.396
 1577SOL    HW1 4759   1.340   4.570   4.398
 1577SOL    HW2 4760   1.320   4.720   4.336
 1578SOL     OW 4761   0.830   4.997   5.146
 1578SOL    HW1 4762   0.825   5.030   5.241
 1578SOL    HW2 4763   0.744   5.016   5.100
 1579SOL     OW 4764   1.841   3.899   4.687
 1579SOL    HW1 4765   1.880   3.814   4.651
 1579SOL    HW2 4766   1.743   3.901   4.668
 1580SOL     OW 4767   0.263   4.050   4.444
 1580SOL    HW1 4768   0.184   4.101   4.410
 1580SOL    HW2 4769   0.254   4.035   4.542
 1581SOL     OW 4770   1.194   5.336   3.755
 1581SOL    HW1 4771   1.200   5.243   3.792
 1581SOL    HW2 4772   1.135   5.336   3.675
 1582SOL     OW 4773   0.822   4.726   5.096
 1582SOL    HW1 4774   0.862   4.725   5.004
 1582SOL    HW2 4775   0.832   4.818   5.136
 1583SOL     OW 4776   0.916   4.634   4.015
 1583SOL    HW1 4777   0.979   4.672   3.947
 1583SOL    HW2 4778   0.956   4.551   4.054
 1584SOL     OW 4779   1.039   4.822   4.420
 1584SOL    HW1 4780   0.969   4.775   4.474
 1584SOL    HW2 4781   1.098   4.754   4.377
 1585SOL     OW 4782   1.014   3.960   4.695
 1585SOL    HW1 4783   1.006   3.924   4.602
 1585SOL    HW2 4784   1.012   3.884   4.760
 1586SOL     OW 4785   1.709   4.109   5.105
 1586SOL    HW1 4786   1.782   4.178   5.109
 1586SOL    HW2 4787   1.737   4.034   5.046
 1587SOL     OW 4788   0.672   3.927   5.213
 1587SOL    HW1 4789   0.762   3.911   5.173
 1587SOL    HW2 4790   0.680   3.932   5.312
 1588SOL     OW 4791   0.075   4.069   3.757
 1588SOL    HW1 4792  -0.017   4.041   3.728
 1588SOL    HW2 4793   0.106   4.146   3.701
 1589SOL     OW 4794   0.072   3.890   4.042
 1589SOL    HW1 4795   0.055   3.973   3.988
 1589SOL    HW2 4796   0.162   3.853   4.020
 1590SOL     OW 4797   1.450   4.944   5.357
 1590SOL    HW1 4798   1.441   4.934   5.456
 1590SOL    HW2 4799   1.546   4.937   5.331
 1591SOL     OW 4800   0.390   5.465   5.284
 1591SOL    HW1 4801   0.299   5.506   5.282
 1591SOL    HW2 4802   0.383   5.371   5.316
 1592SOL     OW 4803   1.674   4.607   4.978
 1592SOL    HW1 4804   1.647   4.518   4.941
 1592SOL    HW2 4805   1.675   4.675   4.905
 1593SOL     OW 4806   1.225   4.049   4.173
 1593SOL    HW1 4807   1.290   3.975   4.162
 1593SOL    HW2 4808   1.245   4.099   4.257
 1594SOL     OW 4809   0.594   4.469   4.376
 1594SOL    HW1 4810   0.644   4.554   4.357
 1594SOL    HW2 4811   0.506   4.471   4.328
 1595SOL     OW 4812   1.730   4.658   5.241
 1595SOL    HW1 4813   1.768   4.749   5.256
 1595SOL    HW2 4814   1.722   4.641   5.142
 1596SOL     OW 4815   0.859   4.680   4.585
 1596SOL    HW1 4816   0.913   4.611   4.633
 1596SOL    HW2 4817   0.827   4.749   4.651
 1597SOL     OW 4818   1.083   4.708   3.811
 1597SOL    HW1 4819   1.060   4.761   3.729
 1597SOL    HW2 4820   1.164   4.652   3.792
 1598SOL     OW 4821   0.079   4.964   4.377
 1598SOL    HW1 4822   0.078   4.917   4.465
 1598SOL    HW2 4823   0.161   4.936   4.326
 1599SOL     OW 4824   1.824   3.916   4.951
 1599SOL    HW1 4825   1.820   3.826   4.995
 1599SOL    HW2 4826   1.827   3.905   4.852
 1600SOL     OW 4827   0.428   4.148   4.244
 1600SOL    HW1 4828   0.458   4.076   4.182
 1600SOL    HW2 4829   0.389   4.108   4.327
 1601SOL     OW 4830   0.317   4.271   5.004
 1601SOL    HW1 4831   0.355   4.212   5.076
 1601SOL    HW2 4832   0.357   4.245   4.916
 1602SOL     OW 4833   1.424   3.938   4.836
 1602SOL    HW1 4834   1.476   3.873   4.891
 1602SOL    HW2 4835   1.375   4.001   4.897
 1603SOL     OW 4836   1.001   3.758   4.878
 1603SOL    HW1 4837   0.938   3.686   4.847
 1603SOL    HW2 4838   1.094   3.722   4.878
 1604SOL     OW 4839   0.770   5.054   4.025
 1604SOL    HW1 4840   0.724   4.967   4.042
 1604SOL    HW2 4841   0.861   5.051   4.066
 1605SOL     OW 4842   1.352   3.776   3.892
 1605SOL    HW1 4843   1.387   3.735   3.808
 1605SOL    HW2 4844   1.262   3.738   3.912
 1606SOL     OW 4845   1.300   4.177   4.415
 1606SOL    HW1 4846   1.241   4.257   4.419
 1606SOL    HW2 4847   1.315   4.142   4.508
 1607SOL     OW 4848   1.593   3.945   4.606
 1607SOL    HW1 4849   1.509   3.944   4.660
 1607SOL    HW2 4850   1.595   4.028   4.550
 1608SOL     OW 4851   0.039   4.801   4.024
 1608SOL    HW1 4852   0.138   4.790   4.015
 1608SOL    HW2 4853  -0.001   4.715   4.056
 1609SOL     OW 4854   2.092   0.628   0.113
 1609SOL    HW1 4855   1.999   0.626   0.150
 1609SOL    HW2 4856   2.093   0.589   0.021
 1610SOL     OW 4857   2.087   0.275   0.996
 1610SOL    HW1 4858   2.122   0.258   1.088
 1610SOL    HW2 4859   1.999   0.230   0.984
 1611SOL     OW 4860   1.881   0.368   0.647
 1611SOL    HW1 4861   1.799   0.411   0.686
 1611SOL    HW2 4862   1.853   0.295   0.584
 1612SOL     OW 4863   2.431   1.275   1.165
 1612SOL    HW1 4864   2.338   1.268   1.128
 1612SOL    HW2 4865   2.442   1.364   1.209
 1613SOL     OW 4866   3.417   1.511   0.703
 1613SOL    HW1 4867   3.360   1.495   0.784
 1613SOL    HW2 4868   3.358   1.521   0.623
 1614SOL     OW 4869   2.997   0.703   0.717
 1614SOL    HW1 4870   3.054   0.781   0.692
 1614SOL    HW2 4871   2.937   0.729   0.793
 1615SOL     OW 4872   3.617   0.607   0.231
 1615SOL    HW1 4873   3.605   0.594   0.132
 1615SOL    HW2 4874   3.587   0.526   0.280
 1616SOL     OW 4875   2.630   1.144   1.023
 1616SOL    HW1 4876   2.552   1.161   1.083
 1616SOL    HW2 4877   2.664   1.231   0.987
 1617SOL     OW 4878   2.712   0.798   1.823
 1617SOL    HW1 4879   2.708   0.874   1.888
 1617SOL    HW2 4880   2.734   0.834   1.732
 1618SOL     OW 4881   2.547   1.012   0.665
 1618SOL    HW1 4882   2.616   0.996   0.735
 1618SOL    HW2 4883   2.474   1.069   0.703
 1619SOL     OW 4884   2.548   1.161   1.803
 1619SOL    HW1 4885   2.608   1.240   1.817
 1619SOL    HW2 4886   2.462   1.192   1.762
 1620SOL     OW 4887   2.197   1.435   1.061
 1620SOL    HW1 4888   2.119   1.404   1.008
 1620SOL    HW2 4889   2.255   1.493   1.004
 1621SOL     OW 4890   3.322   1.505   1.339
 1621SOL    HW1 4891   3.346   1.599   1.365
 1621SOL    HW2 4892   3.306   1.451   1.421
 1622SOL     OW 4893   2.300   0.392   1.499
 1622SOL    HW1 4894   2.382   0.336   1.508
 1622SOL    HW2 4895   2.219   0.334   1.503
 1623SOL     OW 4896   3.465   0.447   0.737
 1623SOL    HW1 4897   3.391   0.493   0.687
 1623SOL    HW2 4898   3.516   0.515   0.790
 1624SOL     OW 4899   2.093   1.713   0.483
 1624SOL    HW1 4900   2.127   1.790   0.537
 1624SOL    HW2 4901   2.137   1.713   0.393
 1625SOL     OW 4902   2.989   1.341   1.690
 1625SOL    HW1 4903   3.036   1.341   1.778
 1625SOL    HW2 4904   2.941   1.254   1.679
 1626SOL     OW 4905   2.092   1.434   0.538
 1626SOL    HW1 4906   2.066   1.530   0.538
 1626SOL    HW2 4907   2.021   1.380   0.583
 1627SOL     OW 4908   2.102   1.091   0.886
 1627SOL    HW1 4909   2.116   1.007   0.938
 1627SOL    HW2 4910   2.047   1.155   0.941
 1628SOL     OW 4911   2.482   1.786   1.439
 1628SOL    HW1 4912   2.390   1.769   1.474
 1628SOL    HW2 4913   2.510   1.878   1.465
 1629SOL     OW 4914   2.468   0.964   0.123
 1629SOL    HW1 4915   2.475   1.048   0.069
 1629SOL    HW2 4916   2.514   0.977   0.211
 1630SOL     OW 4917   3.456   0.114   1.480
 1630SOL    HW1 4918   3.438   0.181   1.408
 1630SOL    HW2 4919   3.453   0.160   1.569
 1631SOL     OW 4920   1.984   0.643   0.563
 1631SOL    HW1 4921   1.939   0.555   0.580
 1631SOL    HW2 4922   1.983   0.697   0.647
 1632SOL     OW 4923   3.704   1.767   0.359
 1632SOL    HW1 4924   3.758   1.738   0.439
 1632SOL    HW2 4925   3.734   1.857   0.330
 1633SOL     OW 4926   3.551   0.922   0.612
 1633SOL    HW1 4927   3.646   0.893   0.620
 1633SOL    HW2 4928   3.543   0.987   0.537
 1634SOL     OW 4929   3.503   1.108   0.432
 1634SOL    HW1 4930   3.589   1.110   0.380
 1634SOL    HW2 4931   3.517   1.155   0.520
 1635SOL     OW 4932   1.975   0.737   1.597
 1635SOL    HW1 4933   2.063   0.724   1.642
 1635SOL    HW2 4934   1.962   0.834   1.575
 1636SOL     OW 4935   2.475   1.365   0.726
 1636SOL    HW1 4936   2.426   1.278   0.735
 1636SOL    HW2 4937   2.452   1.408   0.639
 1637SOL     OW 4938   3.155   1.228   1.423
 1637SOL    HW1 4939   3.192   1.155   1.365
 1637SOL    HW2 4940   3.207   1.233   1.508
 1638SOL     OW 4941   2.671   0.004   0.502
 1638SOL    HW1 4942   2.711   0.095   0.493
 1638SOL    HW2 4943   2.571   0.012   0.508
 1639SOL     OW 4944   2.059   0.976   1.264
 1639SOL    HW1 4945   2.148   0.931   1.250
 1639SOL    HW2 4946   1.986   0.911   1.245
 1640SOL     OW 4947   3.387   0.999   0.190
 1640SOL    HW1 4948   3.324   0.923   0.203
 1640SOL    HW2 4949   3.435   1.017   0.276
 1641SOL     OW 4950   3.049   1.792   1.616
 1641SOL    HW1 4951   3.073   1.852   1.540
 1641SOL    HW2 4952   3.056   1.697   1.586
 1642SOL     OW 4953   2.179   0.251   1.801
 1642SOL    HW1 4954   2.250   0.322   1.807
 1642SOL    HW2 4955   2.091   0.290   1.829
 1643SOL     OW 4956   3.328   1.417   0.953
 1643SOL    HW1 4957   3.269   1.423   1.033
 1643SOL    HW2 4958   3.313   1.329   0.907
 1644SOL     OW 4959   3.529   1.714   0.572
 1644SOL    HW1 4960   3.488   1.691   0.484
 1644SOL    HW2 4961   3.511   1.640   0.637
 1645SOL     OW 4962   2.460   0.729   0.270
 1645SOL    HW1 4963   2.484   0.798   0.202
 1645SOL    HW2 4964   2.382   0.762   0.324
 1646SOL     OW 4965   3.143   0.345   0.944
 1646SOL    HW1 4966   3.057   0.295   0.931
 1646SOL    HW2 4967   3.205   0.291   1.000
 1647SOL     OW 4968   3.438   1.662   0.307
 1647SOL    HW1 4969   3.527   1.708   0.310
 1647SOL    HW2 4970   3.417   1.638   0.212
 1648SOL     OW 4971   2.669   0.605   1.465
 1648SOL    HW1 4972   2.622   0.602   1.554
 1648SOL    HW2 4973   2.618   0.550   1.399
 1649SOL     OW 4974   3.256   0.469   1.674
 1649SOL    HW1 4975   3.236   0.512   1.762
 1649SOL    HW2 4976   3.334   0.407   1.683
 1650SOL     OW 4977   2.835   0.890   1.572
 1650SOL    HW1 4978   2.881   0.806   1.543
 1650SOL    HW2 4979   2.779   0.924   1.497
 1651SOL     OW 4980   2.853   0.410   1.242
 1651SOL    HW1 4981   2.776   0.444   1.296
 1651SOL    HW2 4982   2.819   0.359   1.163
 1652SOL     OW 4983   2.903   0.701   0.429
 1652SOL    HW1 4984   2.929   0.697   0.525
 1652SOL    HW2 4985   2.818   0.650   0.415
 1653SOL     OW 4986   1.938   0.811   0.789
 1653SOL    HW1 4987   2.037   0.799   0.798
 1653SOL    HW2 4988   1.914   0.906   0.810
 1654SOL     OW 4989   1.992   1.821   1.571
 1654SOL    HW1 4990   1.982   1.806   1.670
 1654SOL    HW2 4991   1.906   1.857   1.535
 1655SOL     OW 4992   2.727   0.348   0.195
 1655SOL    HW1 4993   2.786   0.411   0.146
 1655SOL    HW2 4994   2.746   0.254   0.166
 1656SOL     OW 4995   3.581   0.585   1.831
 1656SOL    HW1 4996   3.555   0.674   1.795
 1656SOL    HW2 4997   3.579   0.517   1.758
 1657SOL     OW 4998   3.224   1.144   0.545
 1657SOL    HW1 4999   3.307   1.115   0.497
 1657SOL    HW2 5000   3.175   1.211   0.489
 1658SOL     OW 5001   2.412   0.196   0.885
 1658SOL    HW1 5002   2.407   0.191   0.985
 1658SOL    HW2 5003   2.414   0.292   0.856
 1659SOL     OW 5004   2.870   1.456   0.477
 1659SOL    HW1 5005   2.824   1.528   0.425
 1659SOL    HW2 5006   2.866   1.476   0.575
 1660SOL     OW 5007   2.213   1.801   0.853
 1660SOL    HW1 5008   2.263   1.715   0.859
 1660SOL    HW2 5009   2.278   1.878   0.850
 1661SOL     OW 5010   3.657   1.066   0.873
 1661SOL    HW1 5011   3.595   1.051   0.797
 1661SOL    HW2 5012   3.605   1.077   0.958
 1662SOL     OW 5013   3.089   1.550   1.506
 1662SOL    HW1 5014   3.095   1.473   1.570
 1662SOL    HW2 5015   3.037   1.524   1.426
 1663SOL     OW 5016   2.183   0.943   0.242
 1663SOL    HW1 5017   2.265   0.982   0.200
 1663SOL    HW2 5018   2.156   0.861   0.193
 1664SOL     OW 5019   3.320   0.735   0.728
 1664SOL    HW1 5020   3.315   0.670   0.803
 1664SOL    HW2 5021   3.400   0.794   0.741
 1665SOL     OW 5022   2.323   1.266   1.727
 1665SOL    HW1 5023   2.273   1.267   1.641
 1665SOL    HW2 5024   2.260   1.248   1.803
 1666SOL     OW 5025   2.973   1.776   0.237
 1666SOL    HW1 5026   2.913   1.714   0.287
 1666SOL    HW2 5027   3.004   1.732   0.152
 1667SOL     OW 5028   2.064   0.285   1.498
 1667SOL    HW1 5029   1.984   0.345   1.485
 1667SOL    HW2 5030   2.054   0.236   1.584
 1668SOL     OW 5031   3.494   1.377   0.081
 1668SOL    HW1 5032   3.462   1.471   0.071
 1668SOL    HW2 5033   3.418   1.314   0.069
 1669SOL     OW 5034   2.326   1.743   0.323
 1669SOL    HW1 5035   2.359   1.782   0.409
 1669SOL    HW2 5036   2.402   1.736   0.258
 1670SOL     OW 5037   3.262   0.107   0.426
 1670SOL    HW1 5038   3.238   0.070   0.336
 1670SOL    HW2 5039   3.361   0.123   0.430
 1671SOL     OW 5040   2.111   1.785   1.241
 1671SOL    HW1 5041   2.168   1.720   1.291
 1671SOL    HW2 5042   2.095   1.752   1.148
 1672SOL     OW 5043   2.802   1.698   0.904
 1672SOL    HW1 5044   2.882   1.641   0.925
 1672SOL    HW2 5045   2.753   1.658   0.827
 1673SOL     OW 5046   2.244   0.700   0.480
 1673SOL    HW1 5047   2.289   0.610   0.477
 1673SOL    HW2 5048   2.150   0.689   0.513
 1674SOL     OW 5049   3.409   0.222   1.729
 1674SOL    HW1 5050   3.404   0.259   1.821
 1674SOL    HW2 5051   3.337   0.153   1.717
 1675SOL     OW 5052   2.476   0.122   0.117
 1675SOL    HW1 5053   2.574   0.100   0.124
 1675SOL    HW2 5054   2.445   0.105   0.024
 1676SOL     OW 5055   2.643   0.264   1.749
 1676SOL    HW1 5056   2.710   0.203   1.792
 1676SOL    HW2 5057   2.570   0.283   1.814
 1677SOL     OW 5058   2.750   1.514   1.195
 1677SOL    HW1 5059   2.727   1.489   1.101
 1677SOL    HW2 5060   2.811   1.445   1.234
 1678SOL     OW 5061   3.213   0.590   1.433
 1678SOL    HW1 5062   3.241   0.547   1.518
 1678SOL    HW2 5063   3.238   0.686   1.434
 1679SOL     OW 5064   2.665   1.402   0.924
 1679SOL    HW1 5065   2.755   1.416   0.882
 1679SOL    HW2 5066   2.594   1.404   0.853
 1680SOL     OW 5067   2.784   0.503   0.899
 1680SOL    HW1 5068   2.759   0.494   0.803
 1680SOL    HW2 5069   2.832   0.421   0.930
 1681SOL     OW 5070   2.401   0.064   0.512
 1681SOL    HW1 5071   2.320   0.065   0.570
 1681SOL    HW2 5072   2.404   0.147   0.457
 1682SOL     OW 5073   3.296   1.188   0.041
 1682SOL    HW1 5074   3.328   1.112   0.098
 1682SOL    HW2 5075   3.204   1.215   0.071
 1683SOL     OW 5076   2.159   0.035   0.171
 1683SOL    HW1 5077   2.208   0.119   0.150
 1683SOL    HW2 5078   2.221  -0.030   0.216
 1684SOL     OW 5079   2.797   0.236   0.480
 1684SOL    HW1 5080   2.749   0.277   0.402
 1684SOL    HW2 5081   2.896   0.234   0.461
 1685SOL     OW 5082   2.938   0.683   1.464
 1685SOL    HW1 5083   2.858   0.622   1.467
 1685SOL    HW2 5084   3.019   0.630   1.440
 1686SOL     OW 5085   3.089   1.570   0.793
 1686SOL    HW1 5086   3.110   1.644   0.728
 1686SOL    HW2 5087   3.157   1.570   0.866
 1687SOL     OW 5088   2.321   1.152   0.741
 1687SOL    HW1 5089   2.250   1.125   0.806
 1687SOL    HW2 5090   2.295   1.124   0.648
 1688SOL     OW 5091   3.133   1.797   0.591
 1688SOL    HW1 5092   3.177   1.861   0.527
 1688SOL    HW2 5093   3.083   1.849   0.661
 1689SOL     OW 5094   2.894   0.549   0.016
 1689SOL    HW1 5095   2.853   0.631  -0.023
 1689SOL    HW2 5096   2.958   0.575   0.089
 1690SOL     OW 5097   1.940   0.556   1.386
 1690SOL    HW1 5098   2.032   0.555   1.345
 1690SOL    HW2 5099   1.934   0.630   1.453
 1691SOL     OW 5100   2.423   0.222   1.147
 1691SOL    HW1 5101   2.461   0.138   1.184
 1691SOL    HW2 5102   2.335   0.241   1.191
 1692SOL     OW 5103   2.728   0.454   0.642
 1692SOL    HW1 5104   2.696   0.526   0.580
 1692SOL    HW2 5105   2.752   0.373   0.589
 1693SOL     OW 5106   2.879   0.039   0.753
 1693SOL    HW1 5107   2.807   0.044   0.684
 1693SOL    HW2 5108   2.855  -0.030   0.822
 1694SOL     OW 5109   3.291   1.173   0.867
 1694SOL    HW1 5110   3.236   1.089   0.860
 1694SOL    HW2 5111   3.317   1.202   0.775
 1695SOL     OW 5112   3.328   0.590   0.992
 1695SOL    HW1 5113   3.298   0.495   0.999
 1695SOL    HW2 5114   3.401   0.606   1.058
 1696SOL     OW 5115   3.719   0.833   0.377
 1696SOL    HW1 5116   3.761   0.769   0.441
 1696SOL    HW2 5117   3.681   0.782   0.299
 1697SOL     OW 5118   2.350   1.385   0.174
 1697SOL    HW1 5119   2.263   1.370   0.221
 1697SOL    HW2 5120   2.333   1.411   0.079
 1698SOL     OW 5121   3.526   1.280   0.657
 1698SOL    HW1 5122   3.625   1.288   0.671
 1698SOL    HW2 5123   3.481   1.364   0.688
 1699SOL     OW 5124   3.252   0.575   0.078
 1699SOL    HW1 5125   3.198   0.554   0.159
 1699SOL    HW2 5126   3.343   0.534   0.087
 1700SOL     OW 5127   2.389   0.256   0.328
 1700SOL    HW1 5128   2.416   0.197   0.253
 1700SOL    HW2 5129   2.389   0.351   0.297
 1701SOL     OW 5130   3.616   1.223   1.588
 1701SOL    HW1 5131   3.707   1.184   1.575
 1701SOL    HW2 5132   3.624   1.319   1.612
 1702SOL     OW 5133   2.926   1.347   1.340
 1702SOL    HW1 5134   2.846   1.324   1.395
 1702SOL    HW2 5135   3.009   1.321   1.389
 1703SOL     OW 5136   3.454   1.629   1.625
 1703SOL    HW1 5137   3.481   1.663   1.535
 1703SOL    HW2 5138   3.533   1.591   1.671
 1704SOL     OW 5139   2.973   1.195   1.100
 1704SOL    HW1 5140   2.933   1.239   1.181
 1704SOL    HW2 5141   2.932   1.232   1.017
 1705SOL     OW 5142   3.500   1.099   1.079
 1705SOL    HW1 5143   3.505   1.180   1.138
 1705SOL    HW2 5144   3.414   1.101   1.028
 1706SOL     OW 5145   2.777   0.089   1.402
 1706SOL    HW1 5146   2.802   0.069   1.307
 1706SOL    HW2 5147   2.849   0.145   1.444
 1707SOL     OW 5148   2.842   1.116   1.719
 1707SOL    HW1 5149   2.743   1.122   1.729
 1707SOL    HW2 5150   2.865   1.036   1.663
 1708SOL     OW 5151   2.567   1.050   0.368
 1708SOL    HW1 5152   2.553   1.057   0.467
 1708SOL    HW2 5153   2.651   0.999   0.350
 1709SOL     OW 5154   2.272   0.813   1.251
 1709SOL    HW1 5155   2.358   0.825   1.301
 1709SOL    HW2 5156   2.230   0.726   1.278
 1710SOL     OW 5157   3.136   0.386   1.262
 1710SOL    HW1 5158   3.157   0.460   1.326
 1710SOL    HW2 5159   3.047   0.403   1.219
 1711SOL     OW 5160   1.926   1.564   1.331
 1711SOL    HW1 5161   1.880   1.646   1.297
 1711SOL    HW2 5162   2.024   1.583   1.340
 1712SOL     OW 5163   2.229   1.100   0.501
 1712SOL    HW1 5164   2.222   1.183   0.445
 1712SOL    HW2 5165   2.233   1.020   0.441
 1713SOL     OW 5166   2.428   0.537   0.865
 1713SOL    HW1 5167   2.440   0.603   0.791
 1713SOL    HW2 5168   2.474   0.571   0.948
 1714SOL     OW 5169   3.114   1.348   0.388
 1714SOL    HW1 5170   3.164   1.425   0.428
 1714SOL    HW2 5171   3.019   1.350   0.420
 1715SOL     OW 5172   3.134   1.445   1.142
 1715SOL    HW1 5173   3.181   1.458   1.229
 1715SOL    HW2 5174   3.068   1.371   1.151
 1716SOL     OW 5175   3.444   0.639   0.472
 1716SOL    HW1 5176   3.413   0.700   0.545
 1716SOL    HW2 5177   3.494   0.691   0.403
 1717SOL     OW 5178   2.216   1.510   1.329
 1717SOL    HW1 5179   2.195   1.466   1.242
 1717SOL    HW2 5180   2.313   1.536   1.332
 1718SOL     OW 5181   2.264   0.751   1.598
 1718SOL    HW1 5182   2.332   0.806   1.551
 1718SOL    HW2 5183   2.304   0.663   1.625
 1719SOL     OW 5184   3.449   0.779   1.670
 1719SOL    HW1 5185   3.357   0.817   1.665
 1719SOL    HW2 5186   3.509   0.826   1.605
 1720SOL     OW 5187   2.875   0.105   1.770
 1720SOL    HW1 5188   2.881   0.190   1.718
 1720SOL    HW2 5189   2.907   0.029   1.713
 1721SOL     OW 5190   2.366   0.050   1.740
 1721SOL    HW1 5191   2.324  -0.007   1.670
 1721SOL    HW2 5192   2.300   0.119   1.772
 1722SOL     OW 5193   2.435   0.870   1.029
 1722SOL    HW1 5194   2.479   0.959   1.020
 1722SOL    HW2 5195   2.372   0.870   1.106
 1723SOL     OW 5196   3.222   0.862   1.045
 1723SOL    HW1 5197   3.147   0.862   0.979
 1723SOL    HW2 5198   3.259   0.770   1.054
 1724SOL     OW 5199   3.071   0.525   0.275
 1724SOL    HW1 5200   3.084   0.441   0.329
 1724SOL    HW2 5201   3.042   0.599   0.335
 1725SOL     OW 5202   2.169   0.213   1.231
 1725SOL    HW1 5203   2.146   0.250   1.321
 1725SOL    HW2 5204   2.139   0.118   1.225
 1726SOL     OW 5205   1.899   1.310   1.282
 1726SOL    HW1 5206   1.952   1.261   1.350
 1726SOL    HW2 5207   1.921   1.408   1.287
 1727SOL     OW 5208   2.594   0.634   1.064
 1727SOL    HW1 5209   2.653   0.608   0.988
 1727SOL    HW2 5210   2.566   0.730   1.053
 1728SOL     OW 5211   3.590   0.935   1.854
 1728SOL    HW1 5212   3.544   0.928   1.765
 1728SOL    HW2 5213   3.528   0.979   1.920
 1729SOL     OW 5214   2.169   0.063   0.618
 1729SOL    HW1 5215   2.158   0.157   0.651
 1729SOL    HW2 5216   2.164   0.000   0.695
 1730SOL     OW 5217   3.484   0.367   0.374
 1730SOL    HW1 5218   3.486   0.291   0.438
 1730SOL    HW2 5219   3.436   0.444   0.414
 1731SOL     OW 5220   2.885   0.766   0.966
 1731SOL    HW1 5221   2.900   0.787   1.062
 1731SOL    HW2 5222   2.855   0.671   0.957
 1732SOL     OW 5223   2.842   1.573   1.700
 1732SOL    HW1 5224   2.822   1.617   1.612
 1732SOL    HW2 5225   2.881   1.482   1.684
 1733SOL     OW 5226   3.721   1.518   1.605
 1733SOL    HW1 5227   3.735   1.545   1.510
 1733SOL    HW2 5228   3.804   1.540   1.658
 1734SOL     OW 5229   2.212   0.898   1.804
 1734SOL    HW1 5230   2.288   0.942   1.852
 1734SOL    HW2 5231   2.247   0.851   1.722
 1735SOL     OW 5232   3.402   0.274   0.125
 1735SOL    HW1 5233   3.341   0.199   0.148
 1735SOL    HW2 5234   3.424   0.326   0.208
 1736SOL     OW 5235   3.165   0.838   0.042
 1736SOL    HW1 5236   3.199   0.745   0.057
 1736SOL    HW2 5237   3.183   0.865  -0.053
 1737SOL     OW 5238   2.930   1.333   0.849
 1737SOL    HW1 5239   2.937   1.249   0.794
 1737SOL    HW2 5240   2.992   1.402   0.813
 1738SOL     OW 5241   2.181   0.810   0.949
 1738SOL    HW1 5242   2.274   0.846   0.954
 1738SOL    HW2 5243   2.175   0.725   1.001
 1739SOL     OW 5244   2.201   0.509   1.006
 1739SOL    HW1 5245   2.149   0.426   0.989
 1739SOL    HW2 5246   2.278   0.514   0.942
 1740SOL     OW 5247   3.000   0.380   1.678
 1740SOL    HW1 5248   2.955   0.443   1.742
 1740SOL    HW2 5249   3.093   0.411   1.661
 1741SOL     OW 5250   3.022   0.207   1.477
 1741SOL    HW1 5251   3.022   0.271   1.554
 1741SOL    HW2 5252   3.050   0.255   1.394
 1742SOL     OW 5253   1.950   1.801   0.927
 1742SOL    HW1 5254   1.908   1.715   0.900
 1742SOL    HW2 5255   2.044   1.804   0.893
 1743SOL     OW 5256   2.366   1.568   0.910
 1743SOL    HW1 5257   2.432   1.642   0.919
 1743SOL    HW2 5258   2.410   1.489   0.868
 1744SOL     OW 5259   2.864   0.796   1.238
 1744SOL    HW1 5260   2.905   0.764   1.324
 1744SOL    HW2 5261   2.768   0.769   1.235
 1745SOL     OW 5262   1.902   0.544   1.114
 1745SOL    HW1 5263   1.987   0.511   1.073
 1745SOL    HW2 5264   1.915   0.559   1.212
 1746SOL     OW 5265   2.051   0.520   1.722
 1746SOL    HW1 5266   2.110   0.480   1.652
 1746SOL    HW2 5267   1.993   0.591   1.681
 1747SOL     OW 5268   3.231   0.950   1.660
 1747SOL    HW1 5269   3.270   1.039   1.680
 1747SOL    HW2 5270   3.241   0.930   1.563
 1748SOL     OW 5271   2.677   0.572   0.325
 1748SOL    HW1 5272   2.684   0.483   0.279
 1748SOL    HW2 5273   2.583   0.606   0.317
 1749SOL     OW 5274   3.519   0.604   1.206
 1749SOL    HW1 5275   3.481   0.535   1.268
 1749SOL    HW2 5276   3.601   0.568   1.162
 1750SOL     OW 5277   2.114   1.564   1.744
 1750SOL    HW1 5278   2.084   1.621   1.820
 1750SOL    HW2 5279   2.107   1.467   1.770
 1751SOL     OW 5280   2.533   0.464   1.269
 1751SOL    HW1 5281   2.499   0.375   1.239
 1751SOL    HW2 5282   2.559   0.518   1.189
 1752SOL     OW 5283   2.792   1.678   1.465
 1752SOL    HW1 5284   2.768   1.660   1.370
 1752SOL    HW2 5285   2.822   1.772   1.475
 1753SOL     OW 5286   2.335   0.500   0.191
 1753SOL    HW1 5287   2.396   0.580   0.195
 1753SOL    HW2 5288   2.240   0.531   0.198
 1754SOL     OW 5289   2.021   1.137   1.466
 1754SOL    HW1 5290   2.043   1.076   1.542
 1754SOL    HW2 5291   2.031   1.088   1.380
 1755SOL     OW 5292   3.209   1.059   1.234
 1755SOL    HW1 5293   3.233   0.996   1.160
 1755SOL    HW2 5294   3.119   1.099   1.216
 1756SOL     OW 5295   3.164   0.855   0.309
 1756SOL    HW1 5296   3.078   0.824   0.351
 1756SOL    HW2 5297   3.160   0.841   0.210
 1757SOL     OW 5298   3.621   1.747   1.154
 1757SOL    HW1 5299   3.682   1.777   1.081
 1757SOL    HW2 5300   3.583   1.658   1.132
 1758SOL     OW 5301   3.114   1.731   1.128
 1758SOL    HW1 5302   3.198   1.736   1.074
 1758SOL    HW2 5303   3.091   1.635   1.146
 1759SOL     OW 5304   1.945   1.258   1.022
 1759SOL    HW1 5305   1.940   1.257   1.122
 1759SOL    HW2 5306   1.862   1.217   0.984
 1760SOL     OW 5307   2.550   1.662   1.716
 1760SOL    HW1 5308   2.494   1.743   1.725
 1760SOL    HW2 5309   2.602   1.666   1.630
 1761SOL     OW 5310   2.765   0.086   0.133
 1761SOL    HW1 5311   2.816   0.087   0.047
 1761SOL    HW2 5312   2.821   0.044   0.204
 1762SOL     OW 5313   3.588   0.135   0.523
 1762SOL    HW1 5314   3.661   0.118   0.456
 1762SOL    HW2 5315   3.557   0.048   0.561
 1763SOL     OW 5316   3.250   1.573   0.477
 1763SOL    HW1 5317   3.317   1.585   0.403
 1763SOL    HW2 5318   3.210   1.662   0.500
 1764SOL     OW 5319   1.992   1.794   1.851
 1764SOL    HW1 5320   1.951   1.720   1.904
 1764SOL    HW2 5321   2.056   1.845   1.909
 1765SOL     OW 5322   3.142   0.927   0.672
 1765SOL    HW1 5323   3.202   0.846   0.674
 1765SOL    HW2 5324   3.182   0.996   0.612
 1766SOL     OW 5325   2.692   1.273   1.422
 1766SOL    HW1 5326   2.687   1.306   1.517
 1766SOL    HW2 5327   2.606   1.292   1.376
 1767SOL     OW 5328   2.534   1.616   0.154
 1767SOL    HW1 5329   2.543   1.626   0.055
 1767SOL    HW2 5330   2.494   1.527   0.175
 1768SOL     OW 5331   3.512   1.720   1.394
 1768SOL    HW1 5332   3.565   1.730   1.310
 1768SOL    HW2 5333   3.485   1.810   1.428
 1769SOL     OW 5334   3.703   0.175   0.963
 1769SOL    HW1 5335   3.742   0.090   0.927
 1769SOL    HW2 5336   3.605   0.177   0.944
 1770SOL     OW 5337   2.125   0.326   0.720
 1770SOL    HW1 5338   2.046   0.377   0.686
 1770SOL    HW2 5339   2.116   0.311   0.818
 1771SOL     OW 5340   3.056   1.612   0.031
 1771SOL    HW1 5341   3.062   1.519   0.068
 1771SOL    HW2 5342   2.997   1.612  -0.049
 1772SOL     OW 5343   2.684   1.002   1.372
 1772SOL    HW1 5344   2.724   1.001   1.280
 1772SOL    HW2 5345   2.694   1.094   1.412
 1773SOL     OW 5346   2.778   0.910   0.291
 1773SOL    HW1 5347   2.841   0.948   0.223
 1773SOL    HW2 5348   2.818   0.827   0.330
 1774SOL     OW 5349   3.366   1.607   0.044
 1774SOL    HW1 5350   3.274   1.644   0.051
 1774SOL    HW2 5351   3.404   1.627  -0.046
 1775SOL     OW 5352   2.234   1.288   1.490
 1775SOL    HW1 5353   2.221   1.381   1.456
 1775SOL    HW2 5354   2.150   1.236   1.477
 1776SOL     OW 5355   3.476   1.292   1.289
 1776SOL    HW1 5356   3.536   1.295   1.369
 1776SOL    HW2 5357   3.401   1.356   1.302
 1777SOL     OW 5358   2.901   1.098   0.696
 1777SOL    HW1 5359   2.831   1.051   0.750
 1777SOL    HW2 5360   2.960   1.030   0.653
 1778SOL     OW 5361   2.876   0.236   0.971
 1778SOL    HW1 5362   2.868   0.200   0.878
 1778SOL    HW2 5363   2.874   0.160   1.036
 1779SOL     OW 5364   2.452   1.487   0.491
 1779SOL    HW1 5365   2.494   1.429   0.421
 1779SOL    HW2 5366   2.408   1.566   0.447
 1780SOL     OW 5367   3.571   0.385   1.381
 1780SOL    HW1 5368   3.644   0.454   1.385
 1780SOL    HW2 5369   3.599   0.310   1.322
 1781SOL     OW 5370   2.117   1.348   0.290
 1781SOL    HW1 5371   2.021   1.349   0.263
 1781SOL    HW2 5372   2.129   1.401   0.374
 1782SOL     OW 5373   1.967   1.013   1.726
 1782SOL    HW1 5374   1.890   0.980   1.780
 1782SOL    HW2 5375   2.052   0.983   1.768
 1783SOL     OW 5376   2.534   0.203   1.489
 1783SOL    HW1 5377   2.624   0.187   1.449
 1783SOL    HW2 5378   2.542   0.208   1.588
 1784SOL     OW 5379   3.302   0.856   1.398
 1784SOL    HW1 5380   3.245   0.908   1.335
 1784SOL    HW2 5381   3.398   0.868   1.374
 1785SOL     OW 5382   1.934   0.166   0.318
 1785SOL    HW1 5383   1.917   0.249   0.264
 1785SOL    HW2 5384   2.024   0.129   0.296
 1786SOL     OW 5385   3.045   1.335   0.119
 1786SOL    HW1 5386   2.946   1.324   0.121
 1786SOL    HW2 5387   3.079   1.350   0.212
 1787SOL     OW 5388   2.475   0.842   1.431
 1787SOL    HW1 5389   2.531   0.923   1.414
 1787SOL    HW2 5390   2.534   0.762   1.434
 1788SOL     OW 5391   3.355   1.767   0.959
 1788SOL    HW1 5392   3.388   1.831   0.890
 1788SOL    HW2 5393   3.421   1.761   1.034
 1789SOL     OW 5394   2.578   0.565   1.708
 1789SOL    HW1 5395   2.597   0.630   1.782
 1789SOL    HW2 5396   2.638   0.485   1.717
 1790SOL     OW 5397   3.312   1.220   1.633
 1790SOL    HW1 5398   3.303   1.210   1.732
 1790SOL    HW2 5399   3.408   1.213   1.607
 1791SOL     OW 5400   2.252   1.741   1.560
 1791SOL    HW1 5401   2.161   1.782   1.558
 1791SOL    HW2 5402   2.245   1.647   1.592
 1792SOL     OW 5403   3.536   0.883   1.254
 1792SOL    HW1 5404   3.509   0.794   1.217
 1792SOL    HW2 5405   3.537   0.951   1.181
 1793SOL     OW 5406   3.087   0.325   0.449
 1793SOL    HW1 5407   3.152   0.251   0.438
 1793SOL    HW2 5408   3.107   0.375   0.533
 1794SOL     OW 5409   2.456   0.745   0.652
 1794SOL    HW1 5410   2.506   0.830   0.633
 1794SOL    HW2 5411   2.368   0.747   0.604
 1795SOL     OW 5412   3.639   0.342   1.642
 1795SOL    HW1 5413   3.622   0.373   1.548
 1795SOL    HW2 5414   3.555   0.305   1.680
 1796SOL     OW 5415   3.592   0.934   1.517
 1796SOL    HW1 5416   3.630   1.025   1.532
 1796SOL    HW2 5417   3.584   0.917   1.418
 1797SOL     OW 5418   2.721   1.374   0.016
 1797SOL    HW1 5419   2.675   1.389   0.104
 1797SOL    HW2 5420   2.765   1.459  -0.014
 1798SOL     OW 5421   2.523   1.790   0.953
 1798SOL    HW1 5422   2.477   1.878   0.940
 1798SOL    HW2 5423   2.622   1.802   0.946
 1799SOL     OW 5424   2.721   0.956   0.861
 1799SOL    HW1 5425   2.775   0.887   0.909
 1799SOL    HW2 5426   2.689   1.025   0.927
 1800SOL     OW 5427   2.945   0.984   0.087
 1800SOL    HW1 5428   2.922   1.037   0.005
 1800SOL    HW2 5429   3.026   0.928   0.068
 1801SOL     OW 5430   3.723   1.569   0.851
 1801SOL    HW1 5431   3.652   1.557   0.781
 1801SOL    HW2 5432   3.724   1.490   0.911
 1802SOL     OW 5433   2.083   1.314   1.844
 1802SOL    HW1 5434   2.018   1.241   1.823
 1802SOL    HW2 5435   2.087   1.328   1.942
 1803SOL     OW 5436   1.941   1.240   0.653
 1803SOL    HW1 5437   1.940   1.193   0.741
 1803SOL    HW2 5438   2.023   1.212   0.602
 1804SOL     OW 5439   2.534   1.391   1.624
 1804SOL    HW1 5440   2.456   1.341   1.662
 1804SOL    HW2 5441   2.531   1.486   1.655
 1805SOL     OW 5442   3.686   0.192   1.227
 1805SOL    HW1 5443   3.682   0.102   1.271
 1805SOL    HW2 5444   3.689   0.181   1.128
 1806SOL     OW 5445   2.290   0.424   0.520
 1806SOL    HW1 5446   2.320   0.352   0.458
 1806SOL    HW2 5447   2.251   0.384   0.603
 1807SOL     OW 5448   3.567   1.487   1.104
 1807SOL    HW1 5449   3.474   1.462   1.077
 1807SOL    HW2 5450   3.593   1.437   1.186
 1808SOL     OW 5451   2.179   0.547   1.280
 1808SOL    HW1 5452   2.217   0.488   1.352
 1808SOL    HW2 5453   2.219   0.521   1.192
 1809SOL     OW 5454   2.674   1.586   0.687
 1809SOL    HW1 5455   2.706   1.596   0.593
 1809SOL    HW2 5456   2.595   1.524   0.689
 1810SOL     OW 5457   3.286   0.214   1.112
 1810SOL    HW1 5458   3.338   0.149   1.167
 1810SOL    HW2 5459   3.237   0.277   1.173
 1811SOL     OW 5460   2.863   0.034   1.154
 1811SOL    HW1 5461   2.800  -0.038   1.123
 1811SOL    HW2 5462   2.956  -0.002   1.154
 1812SOL     OW 5463   2.632   1.330   0.301
 1812SOL    HW1 5464   2.586   1.243   0.318
 1812SOL    HW2 5465   2.723   1.327   0.342
 1813SOL     OW 5466   2.480   1.567   1.284
 1813SOL    HW1 5467   2.475   1.649   1.341
 1813SOL    HW2 5468   2.569   1.564   1.239
 1814SOL     OW 5469   3.214   0.052   0.168
 1814SOL    HW1 5470   3.249   0.011   0.084
 1814SOL    HW2 5471   3.124   0.014   0.188
 1815SOL     OW 5472   3.162   0.453   0.691
 1815SOL    HW1 5473   3.103   0.533   0.695
 1815SOL    HW2 5474   3.177   0.418   0.784
 1816SOL     OW 5475   3.455   0.221   0.882
 1816SOL    HW1 5476   3.371   0.220   0.936
 1816SOL    HW2 5477   3.457   0.304   0.826
 1817SOL     OW 5478   1.901   1.077   0.300
 1817SOL    HW1 5479   2.000   1.066   0.291
 1817SOL    HW2 5480   1.861   0.991   0.332
 1818SOL     OW 5481   2.737   1.646   0.337
 1818SOL    HW1 5482   2.660   1.611   0.283
 1818SOL    HW2 5483   2.705   1.717   0.399
 1819SOL     OW 5484   2.092   0.628   1.975
 1819SOL    HW1 5485   1.999   0.626   2.012
 1819SOL    HW2 5486   2.093   0.589   1.883
 1820SOL     OW 5487   2.087   0.275   2.858
 1820SOL    HW1 5488   2.122   0.258   2.950
 1820SOL    HW2 5489   1.999   0.230   2.846
 1821SOL     OW 5490   1.881   0.368   2.509
 1821SOL    HW1 5491   1.799   0.411   2.548
 1821SOL    HW2 5492   1.853   0.295   2.446
 1822SOL     OW 5493   2.431   1.275   3.027
 1822SOL    HW1 5494   2.338   1.268   2.990
 1822SOL    HW2 5495   2.442   1.364   3.071
 1823SOL     OW 5496   3.417   1.511   2.565
 1823SOL    HW1 5497   3.360   1.495   2.646
 1823SOL    HW2 5498   3.358   1.521   2.485
 1824SOL     OW 5499   2.997   0.703   2.579
 1824SOL    HW1 5500   3.054   0.781   2.554
 1824SOL    HW2 5501   2.937   0.729   2.655
 1825SOL     OW 5502   3.617   0.607   2.093
 1825SOL    HW1 5503   3.605   0.594   1.994
 1825SOL    HW2 5504   3.587   0.526   2.142
 1826SOL     OW 5505   2.630   1.144   2.885
 1826SOL    HW1 5506   2.552   1.161   2.945
 1826SOL    HW2 5507   2.664   1.231   2.849
 1827SOL     OW 5508   2.712   0.798   3.685
 1827SOL    HW1 5509   2.708   0.874   3.750
 1827SOL    HW2 5510   2.734   0.834   3.594
 1828SOL     OW 5511   2.547   1.012   2.527
 1828SOL    HW1 5512   2.616   0.996   2.597
 1828SOL    HW2 5513   2.474   1.069   2.565
 1829SOL     OW 5514   2.548   1.161   3.665
 1829SOL    HW1 5515   2.608   1.240   3.679
 1829SOL    HW2 5516   2.462   1.192   3.624
 1830SOL     OW 5517   2.197   1.435   2.923
 1830SOL    HW1 5518   2.119   1.404   2.870
 1830SOL    HW2 5519   2.255   1.493   2.866
 1831SOL     OW 5520   3.322   1.505   3.201
 1831SOL    HW1 5521   3.346   1.599   3.227
 1831SOL    HW2 5522   3.306   1.451   3.283
 1832SOL     OW 5523   2.300   0.392   3.361
 1832SOL    HW1 5524   2.382   0.336   3.370
 1832SOL    HW2 5525   2.219   0.334   3.365
 1833SOL     OW 5526   3.465   0.447   2.599
 1833SOL    HW1 5527   3.391   0.493   2.549
 1833SOL    HW2 5528   3.516   0.515   2.652
 1834SOL     OW 5529   2.093   1.713   2.345
 1834SOL    HW1 5530   2.127   1.790   2.399
 1834SOL    HW2 5531   2.137   1.713   2.255
 1835SOL     OW 5532   2.989   1.341   3.552
 1835SOL    HW1 5533   3.036   1.341   3.640
 1835SOL    HW2 5534   2.941   1.254   3.541
 1836SOL     OW 5535   2.092   1.434   2.400
 1836SOL    HW1 5536   2.066   1.530   2.400
 1836SOL    HW2 5537   2.021   1.380   2.445
 1837SOL     OW 5538   2.102   1.091   2.748
 1837SOL    HW1 5539   2.116   1.007   2.800
 1837SOL    HW2 5540   2.047   1.155   2.803
 1838SOL     OW 5541   2.482   1.786   3.301
 1838SOL    HW1 5542   2.390   1.769   3.336
 1838SOL    HW2 5543   2.510   1.878   3.327
 1839SOL     OW 5544   2.468   0.964   1.985
 1839SOL    HW1 5545   2.475   1.048   1.931
 1839SOL    HW2 5546   2.514   0.977   2.073
 1840SOL     OW 5547   3.456   0.114   3.342
 1840SOL    HW1 5548   3.438   0.181   3.270
 1840SOL    HW2 5549   3.453   0.160   3.431
 1841SOL     OW 5550   1.984   0.643   2.425
 1841SOL    HW1 5551   1.939   0.555   2.442
 1841SOL    HW2 5552   1.983   0.697   2.509
 1842SOL     OW 5553   3.704   1.767   2.221
 1842SOL    HW1 5554   3.758   1.738   2.301
 1842SOL    HW2 5555   3.734   1.857   2.192
 1843SOL     OW 5556   1.889   1.596   1.979
 1843SOL    HW1 5557   1.870   1.500   2.000
 1843SOL    HW2 5558   1.856   1.654   2.054
 1844SOL     OW 5559   3.551   0.922   2.474
 1844SOL    HW1 5560   3.646   0.893   2.482
 1844SOL    HW2 5561   3.543   0.987   2.399
 1845SOL     OW 5562   3.503   1.108   2.294
 1845SOL    HW1 5563   3.589   1.110   2.242
 1845SOL    HW2 5564   3.517   1.155   2.382
 1846SOL     OW 5565   1.975   0.737   3.459
 1846SOL    HW1 5566   2.063   0.724   3.504
 1846SOL    HW2 5567   1.962   0.834   3.437
 1847SOL     OW 5568   2.475   1.365   2.588
 1847SOL    HW1 5569   2.426   1.278   2.597
 1847SOL    HW2 5570   2.452   1.408   2.501
 1848SOL     OW 5571   3.155   1.228   3.285
 1848SOL    HW1 5572   3.192   1.155   3.227
 1848SOL    HW2 5573   3.207   1.233   3.370
 1849SOL     OW 5574   2.671   0.004   2.364
 1849SOL    HW1 5575   2.711   0.095   2.355
 1849SOL    HW2 5576   2.571   0.012   2.370
 1850SOL     OW 5577   2.059   0.976   3.126
 1850SOL    HW1 5578   2.148   0.931   3.112
 1850SOL    HW2 5579   1.986   0.911   3.107
 1851SOL     OW 5580   3.387   0.999   2.052
 1851SOL    HW1 5581   3.324   0.923   2.065
 1851SOL    HW2 5582   3.435   1.017   2.138
 1852SOL     OW 5583   3.049   1.792   3.478
 1852SOL    HW1 5584   3.073   1.852   3.402
 1852SOL    HW2 5585   3.056   1.697   3.448
 1853SOL     OW 5586   2.179   0.251   3.663
 1853SOL    HW1 5587   2.250   0.322   3.669
 1853SOL    HW2 5588   2.091   0.290   3.691
 1854SOL     OW 5589   3.328   1.417   2.815
 1854SOL    HW1 5590   3.269   1.423   2.895
 1854SOL    HW2 5591   3.313   1.329   2.769
 1855SOL     OW 5592   3.529   1.714   2.434
 1855SOL    HW1 5593   3.488   1.691   2.346
 1855SOL    HW2 5594   3.511   1.640   2.499
 1856SOL     OW 5595   2.460   0.729   2.132
 1856SOL    HW1 5596   2.484   0.798   2.064
 1856SOL    HW2 5597   2.382   0.762   2.186
 1857SOL     OW 5598   3.143   0.345   2.806
 1857SOL    HW1 5599   3.057   0.295   2.793
 1857SOL    HW2 5600   3.205   0.291   2.862
 1858SOL     OW 5601   3.438   1.662   2.169
 1858SOL    HW1 5602   3.527   1.708   2.172
 1858SOL    HW2 5603   3.417   1.638   2.074
 1859SOL     OW 5604   2.669   0.605   3.327
 1859SOL    HW1 5605   2.622   0.602   3.416
 1859SOL    HW2 5606   2.618   0.550   3.261
 1860SOL     OW 5607   3.256   0.469   3.536
 1860SOL    HW1 5608   3.236   0.512   3.624
 1860SOL    HW2 5609   3.334   0.407   3.545
 1861SOL     OW 5610   2.835   0.890   3.434
 1861SOL    HW1 5611   2.881   0.806   3.405
 1861SOL    HW2 5612   2.779   0.924   3.359
 1862SOL     OW 5613   2.853   0.410   3.104
 1862SOL    HW1 5614   2.776   0.444   3.158
 1862SOL    HW2 5615   2.819   0.359   3.025
 1863SOL     OW 5616   2.903   0.701   2.291
 1863SOL    HW1 5617   2.929   0.697   2.387
 1863SOL    HW2 5618   2.818   0.650   2.277
 1864SOL     OW 5619   1.938   0.811   2.651
 1864SOL    HW1 5620   2.037   0.799   2.660
 1864SOL    HW2 5621   1.914   0.906   2.672
 1865SOL     OW 5622   1.992   1.821   3.433
 1865SOL    HW1 5623   1.982   1.806   3.532
 1865SOL    HW2 5624   1.906   1.857   3.397
 1866SOL     OW 5625   2.727   0.348   2.057
 1866SOL    HW1 5626   2.786   0.411   2.008
 1866SOL    HW2 5627   2.746   0.254   2.028
 1867SOL     OW 5628   3.581   0.585   3.693
 1867SOL    HW1 5629   3.555   0.674   3.657
 1867SOL    HW2 5630   3.579   0.517   3.620
 1868SOL     OW 5631   3.224   1.144   2.407
 1868SOL    HW1 5632   3.307   1.115   2.359
 1868SOL    HW2 5633   3.175   1.211   2.351
 1869SOL     OW 5634   2.412   0.196   2.747
 1869SOL    HW1 5635   2.407   0.191   2.847
 1869SOL    HW2 5636   2.414   0.292   2.718
 1870SOL     OW 5637   2.870   1.456   2.339
 1870SOL    HW1 5638   2.824   1.528   2.287
 1870SOL    HW2 5639   2.866   1.476   2.437
 1871SOL     OW 5640   2.213   1.801   2.715
 1871SOL    HW1 5641   2.263   1.715   2.721
 1871SOL    HW2 5642   2.278   1.878   2.712
 1872SOL     OW 5643   3.657   1.066   2.735
 1872SOL    HW1 5644   3.595   1.051   2.659
 1872SOL    HW2 5645   3.605   1.077   2.820
 1873SOL     OW 5646   3.089   1.550   3.368
 1873SOL    HW1 5647   3.095   1.473   3.432
 1873SOL    HW2 5648   3.037   1.524   3.288
 1874SOL     OW 5649   2.183   0.943   2.104
 1874SOL    HW1 5650   2.265   0.982   2.062
 1874SOL    HW2 5651   2.156   0.861   2.055
 1875SOL     OW 5652   3.320   0.735   2.590
 1875SOL    HW1 5653   3.315   0.670   2.665
 1875SOL    HW2 5654   3.400   0.794   2.603
 1876SOL     OW 5655   2.323   1.266   3.589
 1876SOL    HW1 5656   2.273   1.267   3.503
 1876SOL    HW2 5657   2.260   1.248   3.665
 1877SOL     OW 5658   2.973   1.776   2.099
 1877SOL    HW1 5659   2.913   1.714   2.149
 1877SOL    HW2 5660   3.004   1.732   2.014
 1878SOL     OW 5661   2.064   0.285   3.360
 1878SOL    HW1 5662   1.984   0.345   3.347
 1878SOL    HW2 5663   2.054   0.236   3.446
 1879SOL     OW 5664   3.494   1.377   1.943
 1879SOL    HW1 5665   3.462   1.471   1.933
 1879SOL    HW2 5666   3.418   1.314   1.931
 1880SOL     OW 5667   2.326   1.743   2.185
 1880SOL    HW1 5668   2.359   1.782   2.271
 1880SOL    HW2 5669   2.402   1.736   2.120
 1881SOL     OW 5670   3.262   0.107   2.288
 1881SOL    HW1 5671   3.238   0.070   2.198
 1881SOL    HW2 5672   3.361   0.123   2.292
 1882SOL     OW 5673   2.111   1.785   3.103
 1882SOL    HW1 5674   2.168   1.720   3.153
 1882SOL    HW2 5675   2.095   1.752   3.010
 1883SOL     OW 5676   2.802   1.698   2.766
 1883SOL    HW1 5677   2.882   1.641   2.787
 1883SOL    HW2 5678   2.753   1.658   2.689
 1884SOL     OW 5679   2.244   0.700   2.342
 1884SOL    HW1 5680   2.289   0.610   2.339
 1884SOL    HW2 5681   2.150   0.689   2.375
 1885SOL     OW 5682   3.409   0.222   3.591
 1885SOL    HW1 5683   3.404   0.259   3.683
 1885SOL    HW2 5684   3.337   0.153   3.579
 1886SOL     OW 5685   2.476   0.122   1.979
 1886SOL    HW1 5686   2.574   0.100   1.986
 1886SOL    HW2 5687   2.445   0.105   1.886
 1887SOL     OW 5688   2.643   0.264   3.611
 1887SOL    HW1 5689   2.710   0.203   3.654
 1887SOL    HW2 5690   2.570   0.283   3.676
 1888SOL     OW 5691   2.750   1.514   3.057
 1888SOL    HW1 5692   2.727   1.489   2.963
 1888SOL    HW2 5693   2.811   1.445   3.096
 1889SOL     OW 5694   3.213   0.590   3.295
 1889SOL    HW1 5695   3.241   0.547   3.380
 1889SOL    HW2 5696   3.238   0.686   3.296
 1890SOL     OW 5697   2.665   1.402   2.786
 1890SOL    HW1 5698   2.755   1.416   2.744
 1890SOL    HW2 5699   2.594   1.404   2.715
 1891SOL     OW 5700   2.784   0.503   2.761
 1891SOL    HW1 5701   2.759   0.494   2.665
 1891SOL    HW2 5702   2.832   0.421   2.792
 1892SOL     OW 5703   2.401   0.064   2.374
 1892SOL    HW1 5704   2.320   0.065   2.432
 1892SOL    HW2 5705   2.404   0.147   2.319
 1893SOL     OW 5706   3.296   1.188   1.903
 1893SOL    HW1 5707   3.328   1.112   1.960
 1893SOL    HW2 5708   3.204   1.215   1.933
 1894SOL     OW 5709   2.159   0.035   2.033
 1894SOL    HW1 5710   2.208   0.119   2.012
 1894SOL    HW2 5711   2.221  -0.030   2.078
 1895SOL     OW 5712   2.797   0.236   2.342
 1895SOL    HW1 5713   2.749   0.277   2.264
 1895SOL    HW2 5714   2.896   0.234   2.323
 1896SOL     OW 5715   2.938   0.683   3.326
 1896SOL    HW1 5716   2.858   0.622   3.329
 1896SOL    HW2 5717   3.019   0.630   3.302
 1897SOL     OW 5718   3.089   1.570   2.655
 1897SOL    HW1 5719   3.110   1.644   2.590
 1897SOL    HW2 5720   3.157   1.570   2.728
 1898SOL     OW 5721   2.321   1.152   2.603
 1898SOL    HW1 5722   2.250   1.125   2.668
 1898SOL    HW2 5723   2.295   1.124   2.510
 1899SOL     OW 5724   3.133   1.797   2.453
 1899SOL    HW1 5725   3.177   1.861   2.389
 1899SOL    HW2 5726   3.083   1.849   2.523
 1900SOL     OW 5727   2.894   0.549   1.878
 1900SOL    HW1 5728   2.853   0.631   1.839
 1900SOL    HW2 5729   2.958   0.575   1.951
 1901SOL     OW 5730   1.940   0.556   3.248
 1901SOL    HW1 5731   2.032   0.555   3.207
 1901SOL    HW2 5732   1.934   0.630   3.315
 1902SOL     OW 5733   2.423   0.222   3.009
 1902SOL    HW1 5734   2.461   0.138   3.046
 1902SOL    HW2 5735   2.335   0.241   3.053
 1903SOL     OW 5736   2.728   0.454   2.504
 1903SOL    HW1 5737   2.696   0.526   2.442
 1903SOL    HW2 5738   2.752   0.373   2.451
 1904SOL     OW 5739   2.879   0.039   2.615
 1904SOL    HW1 5740   2.807   0.044   2.546
 1904SOL    HW2 5741   2.855  -0.030   2.684
 1905SOL     OW 5742   3.291   1.173   2.729
 1905SOL    HW1 5743   3.236   1.089   2.722
 1905SOL    HW2 5744   3.317   1.202   2.637
 1906SOL     OW 5745   3.328   0.590   2.854
 1906SOL    HW1 5746   3.298   0.495   2.861
 1906SOL    HW2 5747   3.401   0.606   2.920
 1907SOL     OW 5748   3.719   0.833   2.239
 1907SOL    HW1 5749   3.761   0.769   2.303
 1907SOL    HW2 5750   3.681   0.782   2.161
 1908SOL     OW 5751   2.350   1.385   2.036
 1908SOL    HW1 5752   2.263   1.370   2.083
 1908SOL    HW2 5753   2.333   1.411   1.941
 1909SOL     OW 5754   3.526   1.280   2.519
 1909SOL    HW1 5755   3.625   1.288   2.533
 1909SOL    HW2 5756   3.481   1.364   2.550
 1910SOL     OW 5757   3.252   0.575   1.940
 1910SOL    HW1 5758   3.198   0.554   2.021
 1910SOL    HW2 5759   3.343   0.534   1.949
 1911SOL     OW 5760   2.389   0.256   2.190
 1911SOL    HW1 5761   2.416   0.197   2.115
 1911SOL    HW2 5762   2.389   0.351   2.159
 1912SOL     OW 5763   3.616   1.223   3.450
 1912SOL    HW1 5764   3.707   1.184   3.437
 1912SOL    HW2 5765   3.624   1.319   3.474
 1913SOL     OW 5766   2.926   1.347   3.202
 1913SOL    HW1 5767   2.846   1.324   3.257
 1913SOL    HW2 5768   3.009   1.321   3.251
 1914SOL     OW 5769   3.454   1.629   3.487
 1914SOL    HW1 5770   3.481   1.663   3.397
 1914SOL    HW2 5771   3.533   1.591   3.533
 1915SOL     OW 5772   2.973   1.195   2.962
 1915SOL    HW1 5773   2.933   1.239   3.043
 1915SOL    HW2 5774   2.932   1.232   2.879
 1916SOL     OW 5775   3.500   1.099   2.941
 1916SOL    HW1 5776   3.505   1.180   3.000
 1916SOL    HW2 5777   3.414   1.101   2.890
 1917SOL     OW 5778   2.777   0.089   3.264
 1917SOL    HW1 5779   2.802   0.069   3.169
 1917SOL    HW2 5780   2.849   0.145   3.306
 1918SOL     OW 5781   2.842   1.116   3.581
 1918SOL    HW1 5782   2.743   1.122   3.591
 1918SOL    HW2 5783   2.865   1.036   3.525
 1919SOL     OW 5784   2.567   1.050   2.230
 1919SOL    HW1 5785   2.553   1.057   2.329
 1919SOL    HW2 5786   2.651   0.999   2.212
 1920SOL     OW 5787   2.272   0.813   3.113
 1920SOL    HW1 5788   2.358   0.825   3.163
 1920SOL    HW2 5789   2.230   0.726   3.140
 1921SOL     OW 5790   3.136   0.386   3.124
 1921SOL    HW1 5791   3.157   0.460   3.188
 1921SOL    HW2 5792   3.047   0.403   3.081
 1922SOL     OW 5793   1.926   1.564   3.193
 1922SOL    HW1 5794   1.880   1.646   3.159
 1922SOL    HW2 5795   2.024   1.583   3.202
 1923SOL     OW 5796   2.229   1.100   2.363
 1923SOL    HW1 5797   2.222   1.183   2.307
 1923SOL    HW2 5798   2.233   1.020   2.303
 1924SOL     OW 5799   2.428   0.537   2.727
 1924SOL    HW1 5800   2.440   0.603   2.653
 1924SOL    HW2 5801   2.474   0.571   2.810
 1925SOL     OW 5802   3.114   1.348   2.250
 1925SOL    HW1 5803   3.164   1.425   2.290
 1925SOL    HW2 5804   3.019   1.350   2.282
 1926SOL     OW 5805   3.134   1.445   3.004
 1926SOL    HW1 5806   3.181   1.458   3.091
 1926SOL    HW2 5807   3.068   1.371   3.013
 1927SOL     OW 5808   3.444   0.639   2.334
 1927SOL    HW1 5809   3.413   0.700   2.407
 1927SOL    HW2 5810   3.494   0.691   2.265
 1928SOL     OW 5811   2.216   1.510   3.191
 1928SOL    HW1 5812   2.195   1.466   3.104
 1928SOL    HW2 5813   2.313   1.536   3.194
 1929SOL     OW 5814   2.264   0.751   3.460
 1929SOL    HW1 5815   2.332   0.806   3.413
 1929SOL    HW2 5816   2.304   0.663   3.487
 1930SOL     OW 5817   3.449   0.779   3.532
 1930SOL    HW1 5818   3.357   0.817   3.527
 1930SOL    HW2 5819   3.509   0.826   3.467
 1931SOL     OW 5820   2.875   0.105   3.632
 1931SOL    HW1 5821   2.881   0.190   3.580
 1931SOL    HW2 5822   2.907   0.029   3.575
 1932SOL     OW 5823   2.366   0.050   3.602
 1932SOL    HW1 5824   2.324  -0.007   3.532
 1932SOL    HW2 5825   2.300   0.119   3.634
 1933SOL     OW 5826   2.435   0.870   2.891
 1933SOL    HW1 5827   2.479   0.959   2.882
 1933SOL    HW2 5828   2.372   0.870   2.968
 1934SOL     OW 5829   3.222   0.862   2.907
 1934SOL    HW1 5830   3.147   0.862   2.841
 1934SOL    HW2 5831   3.259   0.770   2.916
 1935SOL     OW 5832   3.071   0.525   2.137
 1935SOL    HW1 5833   3.084   0.441   2.191
 1935SOL    HW2 5834   3.042   0.599   2.197
 1936SOL     OW 5835   2.169   0.213   3.093
 1936SOL    HW1 5836   2.146   0.250   3.183
 1936SOL    HW2 5837   2.139   0.118   3.087
 1937SOL     OW 5838   1.899   1.310   3.144
 1937SOL    HW1 5839   1.952   1.261   3.212
 1937SOL    HW2 5840   1.921   1.408   3.149
 1938SOL     OW 5841   2.594   0.634   2.926
 1938SOL    HW1 5842   2.653   0.608   2.850
 1938SOL    HW2 5843   2.566   0.730   2.915
 1939SOL     OW 5844   3.590   0.935   3.716
 1939SOL    HW1 5845   3.544   0.928   3.627
 1939SOL    HW2 5846   3.528   0.979   3.782
 1940SOL     OW 5847   2.169   0.063   2.480
 1940SOL    HW1 5848   2.158   0.157   2.513
 1940SOL    HW2 5849   2.164   0.000   2.557
 1941SOL     OW 5850   3.484   0.367   2.236
 1941SOL    HW1 5851   3.486   0.291   2.300
 1941SOL    HW2 5852   3.436   0.444   2.276
 1942SOL     OW 5853   2.885   0.766   2.828
 1942SOL    HW1 5854   2.900   0.787   2.924
 1942SOL    HW2 5855   2.855   0.671   2.819
 1943SOL     OW 5856   2.842   1.573   3.562
 1943SOL    HW1 5857   2.822   1.617   3.474
 1943SOL    HW2 5858   2.881   1.482   3.546
 1944SOL     OW 5859   3.721   1.518   3.467
 1944SOL    HW1 5860   3.735   1.545   3.372
 1944SOL    HW2 5861   3.804   1.540   3.520
 1945SOL     OW 5862   2.212   0.898   3.666
 1945SOL    HW1 5863   2.288   0.942   3.714
 1945SOL    HW2 5864   2.247   0.851   3.584
 1946SOL     OW 5865   3.402   0.274   1.987
 1946SOL    HW1 5866   3.341   0.199   2.010
 1946SOL    HW2 5867   3.424   0.326   2.070
 1947SOL     OW 5868   3.165   0.838   1.904
 1947SOL    HW1 5869   3.199   0.745   1.919
 1947SOL    HW2 5870   3.183   0.865   1.809
 1948SOL     OW 5871   2.930   1.333   2.711
 1948SOL    HW1 5872   2.937   1.249   2.656
 1948SOL    HW2 5873   2.992   1.402   2.675
 1949SOL     OW 5874   2.181   0.810   2.811
 1949SOL    HW1 5875   2.274   0.846   2.816
 1949SOL    HW2 5876   2.175   0.725   2.863
 1950SOL     OW 5877   2.201   0.509   2.868
 1950SOL    HW1 5878   2.149   0.426   2.851
 1950SOL    HW2 5879   2.278   0.514   2.804
 1951SOL     OW 5880   3.000   0.380   3.540
 1951SOL    HW1 5881   2.955   0.443   3.604
 1951SOL    HW2 5882   3.093   0.411   3.523
 1952SOL     OW 5883   3.022   0.207   3.339
 1952SOL    HW1 5884   3.022   0.271   3.416
 1952SOL    HW2 5885   3.050   0.255   3.256
 1953SOL     OW 5886   1.870   1.326   2.062
 1953SOL    HW1 5887   1.777   1.347   2.031
 1953SOL    HW2 5888   1.880   1.227   2.075
 1954SOL     OW 5889   1.950   1.801   2.789
 1954SOL    HW1 5890   1.908   1.715   2.762
 1954SOL    HW2 5891   2.044   1.804   2.755
 1955SOL     OW 5892   2.366   1.568   2.772
 1955SOL    HW1 5893   2.432   1.642   2.781
 1955SOL    HW2 5894   2.410   1.489   2.730
 1956SOL     OW 5895   2.864   0.796   3.100
 1956SOL    HW1 5896   2.905   0.764   3.186
 1956SOL    HW2 5897   2.768   0.769   3.097
 1957SOL     OW 5898   1.902   0.544   2.976
 1957SOL    HW1 5899   1.987   0.511   2.935
 1957SOL    HW2 5900   1.915   0.559   3.074
 1958SOL     OW 5901   2.051   0.520   3.584
 1958SOL    HW1 5902   2.110   0.480   3.514
 1958SOL    HW2 5903   1.993   0.591   3.543
 1959SOL     OW 5904   3.231   0.950   3.522
 1959SOL    HW1 5905   3.270   1.039   3.542
 1959SOL    HW2 5906   3.241   0.930   3.425
 1960SOL     OW 5907   2.677   0.572   2.187
 1960SOL    HW1 5908   2.684   0.483   2.141
 1960SOL    HW2 5909   2.583   0.606   2.179
 1961SOL     OW 5910   3.519   0.604   3.068
 1961SOL    HW1 5911   3.481   0.535   3.130
 1961SOL    HW2 5912   3.601   0.568   3.024
 1962SOL     OW 5913   2.114   1.564   3.606
 1962SOL    HW1 5914   2.084   1.621   3.682
 1962SOL    HW2 5915   2.107   1.467   3.632
 1963SOL     OW 5916   2.533   0.464   3.131
 1963SOL    HW1 5917   2.499   0.375   3.101
 1963SOL    HW2 5918   2.559   0.518   3.051
 1964SOL     OW 5919   2.792   1.678   3.327
 1964SOL    HW1 5920   2.768   1.660   3.232
 1964SOL    HW2 5921   2.822   1.772   3.337
 1965SOL     OW 5922   2.335   0.500   2.053
 1965SOL    HW1 5923   2.396   0.580   2.057
 1965SOL    HW2 5924   2.240   0.531   2.060
 1966SOL     OW 5925   2.021   1.137   3.328
 1966SOL    HW1 5926   2.043   1.076   3.404
 1966SOL    HW2 5927   2.031   1.088   3.242
 1967SOL     OW 5928   3.209   1.059   3.096
 1967SOL    HW1 5929   3.233   0.996   3.022
 1967SOL    HW2 5930   3.119   1.099   3.078
 1968SOL     OW 5931   3.164   0.855   2.171
 1968SOL    HW1 5932   3.078   0.824   2.213
 1968SOL    HW2 5933   3.160   0.841   2.072
 1969SOL     OW 5934   3.621   1.747   3.016
 1969SOL    HW1 5935   3.682   1.777   2.943
 1969SOL    HW2 5936   3.583   1.658   2.994
 1970SOL     OW 5937   3.114   1.731   2.990
 1970SOL    HW1 5938   3.198   1.736   2.936
 1970SOL    HW2 5939   3.091   1.635   3.008
 1971SOL     OW 5940   1.945   1.258   2.884
 1971SOL    HW1 5941   1.940   1.257   2.984
 1971SOL    HW2 5942   1.862   1.217   2.846
 1972SOL     OW 5943   2.550   1.662   3.578
 1972SOL    HW1 5944   2.494   1.743   3.587
 1972SOL    HW2 5945   2.602   1.666   3.492
 1973SOL     OW 5946   3.588   0.135   2.385
 1973SOL    HW1 5947   3.661   0.118   2.318
 1973SOL    HW2 5948   3.557   0.048   2.423
 1974SOL     OW 5949   3.250   1.573   2.339
 1974SOL    HW1 5950   3.317   1.585   2.265
 1974SOL    HW2 5951   3.210   1.662   2.362
 1975SOL     OW 5952   1.992   1.794   3.713
 1975SOL    HW1 5953   1.951   1.720   3.766
 1975SOL    HW2 5954   2.056   1.845   3.771
 1976SOL     OW 5955   3.142   0.927   2.534
 1976SOL    HW1 5956   3.202   0.846   2.536
 1976SOL    HW2 5957   3.182   0.996   2.474
 1977SOL     OW 5958   2.692   1.273   3.284
 1977SOL    HW1 5959   2.687   1.306   3.379
 1977SOL    HW2 5960   2.606   1.292   3.238
 1978SOL     OW 5961   2.534   1.616   2.016
 1978SOL    HW1 5962   2.543   1.626   1.917
 1978SOL    HW2 5963   2.494   1.527   2.037
 1979SOL     OW 5964   3.512   1.720   3.256
 1979SOL    HW1 5965   3.565   1.730   3.172
 1979SOL    HW2 5966   3.485   1.810   3.290
 1980SOL     OW 5967   3.703   0.175   2.825
 1980SOL    HW1 5968   3.742   0.090   2.789
 1980SOL    HW2 5969   3.605   0.177   2.806
 1981SOL     OW 5970   2.125   0.326   2.582
 1981SOL    HW1 5971   2.046   0.377   2.548
 1981SOL    HW2 5972   2.116   0.311   2.680
 1982SOL     OW 5973   3.056   1.612   1.893
 1982SOL    HW1 5974   3.062   1.519   1.930
 1982SOL    HW2 5975   2.997   1.612   1.813
 1983SOL     OW 5976   2.684   1.002   3.234
 1983SOL    HW1 5977   2.724   1.001   3.142
 1983SOL    HW2 5978   2.694   1.094   3.274
 1984SOL     OW 5979   2.778   0.910   2.153
 1984SOL    HW1 5980   2.841   0.948   2.085
 1984SOL    HW2 5981   2.818   0.827   2.192
 1985SOL     OW 5982   3.366   1.607   1.906
 1985SOL    HW1 5983   3.274   1.644   1.913
 1985SOL    HW2 5984   3.404   1.627   1.816
 1986SOL     OW 5985   2.234   1.288   3.352
 1986SOL    HW1 5986   2.221   1.381   3.318
 1986SOL    HW2 5987   2.150   1.236   3.339
 1987SOL     OW 5988   3.476   1.292   3.151
 1987SOL    HW1 5989   3.536   1.295   3.231
 1987SOL    HW2 5990   3.401   1.356   3.164
 1988SOL     OW 5991   2.901   1.098   2.558
 1988SOL    HW1 5992   2.831   1.051   2.612
 1988SOL    HW2 5993   2.960   1.030   2.515
 1989SOL     OW 5994   2.876   0.236   2.833
 1989SOL    HW1 5995   2.868   0.200   2.740
 1989SOL    HW2 5996   2.874   0.160   2.898
 1990SOL     OW 5997   2.452   1.487   2.353
 1990SOL    HW1 5998   2.494   1.429   2.283
 1990SOL    HW2 5999   2.408   1.566   2.309
 1991SOL     OW 6000   3.571   0.385   3.243
 1991SOL    HW1 6001   3.644   0.454   3.247
 1991SOL    HW2 6002   3.599   0.310   3.184
 1992SOL     OW 6003   2.117   1.348   2.152
 1992SOL    HW1 6004   2.021   1.349   2.125
 1992SOL    HW2 6005   2.129   1.401   2.236
 1993SOL     OW 6006   1.967   1.013   3.588
 1993SOL    HW1 6007   1.890   0.980   3.642
 1993SOL    HW2 6008   2.052   0.983   3.630
 1994SOL     OW 6009   2.534   0.203   3.351
 1994SOL    HW1 6010   2.624   0.187   3.311
 1994SOL    HW2 6011   2.542   0.208   3.450
 1995SOL     OW 6012   1.937   0.345   1.895
 1995SOL    HW1 6013   1.845   0.317   1.866
 1995SOL    HW2 6014   1.968   0.422   1.839
 1996SOL     OW 6015   3.302   0.856   3.260
 1996SOL    HW1 6016   3.245   0.908   3.197
 1996SOL    HW2 6017   3.398   0.868   3.236
 1997SOL     OW 6018   1.934   0.166   2.180
 1997SOL    HW1 6019   1.917   0.249   2.126
 1997SOL    HW2 6020   2.024   0.129   2.158
 1998SOL     OW 6021   3.045   1.335   1.981
 1998SOL    HW1 6022   2.946   1.324   1.983
 1998SOL    HW2 6023   3.079   1.350   2.074
 1999SOL     OW 6024   2.475   0.842   3.293
 1999SOL    HW1 6025   2.531   0.923   3.276
 1999SOL    HW2 6026   2.534   0.762   3.296
 2000SOL     OW 6027   3.355   1.767   2.821
 2000SOL    HW1 6028   3.388   1.831   2.752
 2000SOL    HW2 6029   3.421   1.761   2.896
 2001SOL     OW 6030   2.578   0.565   3.570
 2001SOL    HW1 6031   2.597   0.630   3.644
 2001SOL    HW2 6032   2.638   0.485   3.579
 2002SOL     OW 6033   3.312   1.220   3.495
 2002SOL    HW1 6034   3.303   1.210   3.594
 2002SOL    HW2 6035   3.408   1.213   3.469
 2003SOL     OW 6036   2.252   1.741   3.422
 2003SOL    HW1 6037   2.161   1.782   3.420
 2003SOL    HW2 6038   2.245   1.647   3.454
 2004SOL     OW 6039   3.536   0.883   3.116
 2004SOL    HW1 6040   3.509   0.794   3.079
 2004SOL    HW2 6041   3.537   0.951   3.043
 2005SOL     OW 6042   3.087   0.325   2.311
 2005SOL    HW1 6043   3.152   0.251   2.300
 2005SOL    HW2 6044   3.107   0.375   2.395
 2006SOL     OW 6045   2.456   0.745   2.514
 2006SOL    HW1 6046   2.506   0.830   2.495
 2006SOL    HW2 6047   2.368   0.747   2.466
 2007SOL     OW 6048   3.639   0.342   3.504
 2007SOL    HW1 6049   3.622   0.373   3.410
 2007SOL    HW2 6050   3.555   0.305   3.542
 2008SOL     OW 6051   3.592   0.934   3.379
 2008SOL    HW1 6052   3.630   1.025   3.394
 2008SOL    HW2 6053   3.584   0.917   3.280
 2009SOL     OW 6054   2.721   1.374   1.878
 2009SOL    HW1 6055   2.675   1.389   1.966
 2009SOL    HW2 6056   2.765   1.459   1.848
 2010SOL     OW 6057   2.523   1.790   2.815
 2010SOL    HW1 6058   2.477   1.878   2.802
 2010SOL    HW2 6059   2.622   1.802   2.808
 2011SOL     OW 6060   2.721   0.956   2.723
 2011SOL    HW1 6061   2.775   0.887   2.771
 2011SOL    HW2 6062   2.689   1.025   2.789
 2012SOL     OW 6063   2.945   0.984   1.949
 2012SOL    HW1 6064   2.922   1.037   1.867
 2012SOL    HW2 6065   3.026   0.928   1.930
 2013SOL     OW 6066   3.723   1.569   2.713
 2013SOL    HW1 6067   3.652   1.557   2.643
 2013SOL    HW2 6068   3.724   1.490   2.773
 2014SOL     OW 6069   2.083   1.314   3.706
 2014SOL    HW1 6070   2.018   1.241   3.685
 2014SOL    HW2 6071   2.087   1.328   3.804
 2015SOL     OW 6072   1.941   1.240   2.515
 2015SOL    HW1 6073   1.940   1.193   2.603
 2015SOL    HW2 6074   2.023   1.212   2.464
 2016SOL     OW 6075   2.534   1.391   3.486
 2016SOL    HW1 6076   2.456   1.341   3.524
 2016SOL    HW2 6077   2.531   1.486   3.517
 2017SOL     OW 6078   3.686   0.192   3.089
 2017SOL    HW1 6079   3.682   0.102   3.133
 2017SOL    HW2 6080   3.689   0.181   2.990
 2018SOL     OW 6081   2.290   0.424   2.382
 2018SOL    HW1 6082   2.320   0.352   2.320
 2018SOL    HW2 6083   2.251   0.384   2.465
 2019SOL     OW 6084   3.567   1.487   2.966
 2019SOL    HW1 6085   3.474   1.462   2.939
 2019SOL    HW2 6086   3.593   1.437   3.048
 2020SOL     OW 6087   2.179   0.547   3.142
 2020SOL    HW1 6088   2.217   0.488   3.214
 2020SOL    HW2 6089   2.219   0.521   3.054
 2021SOL     OW 6090   2.674   1.586   2.549
 2021SOL    HW1 6091   2.706   1.596   2.455
 2021SOL    HW2 6092   2.595   1.524   2.551
 2022SOL     OW 6093   3.286   0.214   2.974
 2022SOL    HW1 6094   3.338   0.149   3.029
 2022SOL    HW2 6095   3.237   0.277   3.035
 2023SOL     OW 6096   2.863   0.034   3.016
 2023SOL    HW1 6097   2.800  -0.038   2.985
 2023SOL    HW2 6098   2.956  -0.002   3.016
 2024SOL     OW 6099   2.632   1.330   2.163
 2024SOL    HW1 6100   2.586   1.243   2.180
 2024SOL    HW2 6101   2.723   1.327   2.204
 2025SOL     OW 6102   2.480   1.567   3.146
 2025SOL    HW1 6103   2.475   1.649   3.203
 2025SOL    HW2 6104   2.569   1.564   3.101
 2026SOL     OW 6105   3.214   0.052   2.030
 2026SOL    HW1 6106   3.249   0.011   1.946
 2026SOL    HW2 6107   3.124   0.014   2.050
 2027SOL     OW 6108   3.162   0.453   2.553
 2027SOL    HW1 6109   3.103   0.533   2.557
 2027SOL    HW2 6110   3.177   0.418   2.646
 2028SOL     OW 6111   3.455   0.221   2.744
 2028SOL    HW1 6112   3.371   0.220   2.798
 2028SOL    HW2 6113   3.457   0.304   2.688
 2029SOL     OW 6114   1.901   1.077   2.162
 2029SOL    HW1 6115   2.000   1.066   2.153
 2029SOL    HW2 6116   1.861   0.991   2.194
 2030SOL     OW 6117   2.737   1.646   2.199
 2030SOL    HW1 6118   2.660   1.611   2.145
 2030SOL    HW2 6119   2.705   1.717   2.261
 2031SOL     OW 6120   2.092   0.628   3.837
 2031SOL    HW1 6121   1.999   0.626   3.874
 2031SOL    HW2 6122   2.093   0.589   3.745
 2032SOL     OW 6123   2.087   0.275   4.720
 2032SOL    HW1 6124   2.122   0.258   4.812
 2032SOL    HW2 6125   1.999   0.230   4.708
 2033SOL     OW 6126   1.881   0.368   4.371
 2033SOL    HW1 6127   1.799   0.411   4.410
 2033SOL    HW2 6128   1.853   0.295   4.308
 2034SOL     OW 6129   2.431   1.275   4.889
 2034SOL    HW1 6130   2.338   1.268   4.852
 2034SOL    HW2 6131   2.442   1.364   4.933
 2035SOL     OW 6132   3.417   1.511   4.427
 2035SOL    HW1 6133   3.360   1.495   4.508
 2035SOL    HW2 6134   3.358   1.521   4.347
 2036SOL     OW 6135   2.997   0.703   4.441
 2036SOL    HW1 6136   3.054   0.781   4.416
 2036SOL    HW2 6137   2.937   0.729   4.517
 2037SOL     OW 6138   3.617   0.607   3.955
 2037SOL    HW1 6139   3.605   0.594   3.856
 2037SOL    HW2 6140   3.587   0.526   4.004
 2038SOL     OW 6141   2.630   1.144   4.747
 2038SOL    HW1 6142   2.552   1.161   4.807
 2038SOL    HW2 6143   2.664   1.231   4.711
 2039SOL     OW 6144   2.547   1.012   4.389
 2039SOL    HW1 6145   2.616   0.996   4.459
 2039SOL    HW2 6146   2.474   1.069   4.427
 2040SOL     OW 6147   2.197   1.435   4.785
 2040SOL    HW1 6148   2.119   1.404   4.732
 2040SOL    HW2 6149   2.255   1.493   4.728
 2041SOL     OW 6150   3.465   0.447   4.461
 2041SOL    HW1 6151   3.391   0.493   4.411
 2041SOL    HW2 6152   3.516   0.515   4.514
 2042SOL     OW 6153   2.093   1.713   4.207
 2042SOL    HW1 6154   2.127   1.790   4.261
 2042SOL    HW2 6155   2.137   1.713   4.117
 2043SOL     OW 6156   2.092   1.434   4.262
 2043SOL    HW1 6157   2.066   1.530   4.262
 2043SOL    HW2 6158   2.021   1.380   4.307
 2044SOL     OW 6159   2.102   1.091   4.610
 2044SOL    HW1 6160   2.116   1.007   4.662
 2044SOL    HW2 6161   2.047   1.155   4.665
 2045SOL     OW 6162   2.482   1.786   5.163
 2045SOL    HW1 6163   2.390   1.769   5.198
 2045SOL    HW2 6164   2.510   1.878   5.189
 2046SOL     OW 6165   2.468   0.964   3.847
 2046SOL    HW1 6166   2.475   1.048   3.793
 2046SOL    HW2 6167   2.514   0.977   3.935
 2047SOL     OW 6168   1.984   0.643   4.287
 2047SOL    HW1 6169   1.939   0.555   4.304
 2047SOL    HW2 6170   1.983   0.697   4.371
 2048SOL     OW 6171   3.704   1.767   4.083
 2048SOL    HW1 6172   3.758   1.738   4.163
 2048SOL    HW2 6173   3.734   1.857   4.054
 2049SOL     OW 6174   1.889   1.596   3.841
 2049SOL    HW1 6175   1.870   1.500   3.862
 2049SOL    HW2 6176   1.856   1.654   3.916
 2050SOL     OW 6177   3.551   0.922   4.336
 2050SOL    HW1 6178   3.646   0.893   4.344
 2050SOL    HW2 6179   3.543   0.987   4.261
 2051SOL     OW 6180   3.503   1.108   4.156
 2051SOL    HW1 6181   3.589   1.110   4.104
 2051SOL    HW2 6182   3.517   1.155   4.244
 2052SOL     OW 6183   2.475   1.365   4.450
 2052SOL    HW1 6184   2.426   1.278   4.459
 2052SOL    HW2 6185   2.452   1.408   4.363
 2053SOL     OW 6186   2.671   0.004   4.226
 2053SOL    HW1 6187   2.711   0.095   4.217
 2053SOL    HW2 6188   2.571   0.012   4.232
 2054SOL     OW 6189   2.059   0.976   4.988
 2054SOL    HW1 6190   2.148   0.931   4.974
 2054SOL    HW2 6191   1.986   0.911   4.969
 2055SOL     OW 6192   3.387   0.999   3.914
 2055SOL    HW1 6193   3.324   0.923   3.927
 2055SOL    HW2 6194   3.435   1.017   4.000
 2056SOL     OW 6195   3.328   1.417   4.677
 2056SOL    HW1 6196   3.269   1.423   4.757
 2056SOL    HW2 6197   3.313   1.329   4.631
 2057SOL     OW 6198   3.529   1.714   4.296
 2057SOL    HW1 6199   3.488   1.691   4.208
 2057SOL    HW2 6200   3.511   1.640   4.361
 2058SOL     OW 6201   2.460   0.729   3.994
 2058SOL    HW1 6202   2.484   0.798   3.926
 2058SOL    HW2 6203   2.382   0.762   4.048
 2059SOL     OW 6204   3.143   0.345   4.668
 2059SOL    HW1 6205   3.057   0.295   4.655
 2059SOL    HW2 6206   3.205   0.291   4.724
 2060SOL     OW 6207   3.438   1.662   4.031
 2060SOL    HW1 6208   3.527   1.708   4.034
 2060SOL    HW2 6209   3.417   1.638   3.936
 2061SOL     OW 6210   2.669   0.605   5.189
 2061SOL    HW1 6211   2.622   0.602   5.278
 2061SOL    HW2 6212   2.618   0.550   5.123
 2062SOL     OW 6213   2.853   0.410   4.966
 2062SOL    HW1 6214   2.776   0.444   5.020
 2062SOL    HW2 6215   2.819   0.359   4.887
 2063SOL     OW 6216   2.903   0.701   4.153
 2063SOL    HW1 6217   2.929   0.697   4.249
 2063SOL    HW2 6218   2.818   0.650   4.139
 2064SOL     OW 6219   1.938   0.811   4.513
 2064SOL    HW1 6220   2.037   0.799   4.522
 2064SOL    HW2 6221   1.914   0.906   4.534
 2065SOL     OW 6222   2.727   0.348   3.919
 2065SOL    HW1 6223   2.786   0.411   3.870
 2065SOL    HW2 6224   2.746   0.254   3.890
 2066SOL     OW 6225   3.224   1.144   4.269
 2066SOL    HW1 6226   3.307   1.115   4.221
 2066SOL    HW2 6227   3.175   1.211   4.213
 2067SOL     OW 6228   2.412   0.196   4.609
 2067SOL    HW1 6229   2.407   0.191   4.709
 2067SOL    HW2 6230   2.414   0.292   4.580
 2068SOL     OW 6231   2.870   1.456   4.201
 2068SOL    HW1 6232   2.824   1.528   4.149
 2068SOL    HW2 6233   2.866   1.476   4.299
 2069SOL     OW 6234   2.213   1.801   4.577
 2069SOL    HW1 6235   2.263   1.715   4.583
 2069SOL    HW2 6236   2.278   1.878   4.574
 2070SOL     OW 6237   3.657   1.066   4.597
 2070SOL    HW1 6238   3.595   1.051   4.521
 2070SOL    HW2 6239   3.605   1.077   4.682
 2071SOL     OW 6240   2.183   0.943   3.966
 2071SOL    HW1 6241   2.265   0.982   3.924
 2071SOL    HW2 6242   2.156   0.861   3.917
 2072SOL     OW 6243   3.320   0.735   4.452
 2072SOL    HW1 6244   3.315   0.670   4.527
 2072SOL    HW2 6245   3.400   0.794   4.465
 2073SOL     OW 6246   2.973   1.776   3.961
 2073SOL    HW1 6247   2.913   1.714   4.011
 2073SOL    HW2 6248   3.004   1.732   3.876
 2074SOL     OW 6249   2.064   0.285   5.222
 2074SOL    HW1 6250   1.984   0.345   5.209
 2074SOL    HW2 6251   2.054   0.236   5.308
 2075SOL     OW 6252   3.494   1.377   3.805
 2075SOL    HW1 6253   3.462   1.471   3.795
 2075SOL    HW2 6254   3.418   1.314   3.793
 2076SOL     OW 6255   2.326   1.743   4.047
 2076SOL    HW1 6256   2.359   1.782   4.133
 2076SOL    HW2 6257   2.402   1.736   3.982
 2077SOL     OW 6258   3.262   0.107   4.150
 2077SOL    HW1 6259   3.238   0.070   4.060
 2077SOL    HW2 6260   3.361   0.123   4.154
 2078SOL     OW 6261   2.111   1.785   4.965
 2078SOL    HW1 6262   2.168   1.720   5.015
 2078SOL    HW2 6263   2.095   1.752   4.872
 2079SOL     OW 6264   2.802   1.698   4.628
 2079SOL    HW1 6265   2.882   1.641   4.649
 2079SOL    HW2 6266   2.753   1.658   4.551
 2080SOL     OW 6267   2.244   0.700   4.204
 2080SOL    HW1 6268   2.289   0.610   4.201
 2080SOL    HW2 6269   2.150   0.689   4.237
 2081SOL     OW 6270   2.476   0.122   3.841
 2081SOL    HW1 6271   2.574   0.100   3.848
 2081SOL    HW2 6272   2.445   0.105   3.748
 2082SOL     OW 6273   2.750   1.514   4.919
 2082SOL    HW1 6274   2.727   1.489   4.825
 2082SOL    HW2 6275   2.811   1.445   4.958
 2083SOL     OW 6276   2.665   1.402   4.648
 2083SOL    HW1 6277   2.755   1.416   4.606
 2083SOL    HW2 6278   2.594   1.404   4.577
 2084SOL     OW 6279   2.784   0.503   4.623
 2084SOL    HW1 6280   2.759   0.494   4.527
 2084SOL    HW2 6281   2.832   0.421   4.654
 2085SOL     OW 6282   2.401   0.064   4.236
 2085SOL    HW1 6283   2.320   0.065   4.294
 2085SOL    HW2 6284   2.404   0.147   4.181
 2086SOL     OW 6285   3.296   1.188   3.765
 2086SOL    HW1 6286   3.328   1.112   3.822
 2086SOL    HW2 6287   3.204   1.215   3.795
 2087SOL     OW 6288   2.159   0.035   3.895
 2087SOL    HW1 6289   2.208   0.119   3.874
 2087SOL    HW2 6290   2.221  -0.030   3.940
 2088SOL     OW 6291   2.797   0.236   4.204
 2088SOL    HW1 6292   2.749   0.277   4.126
 2088SOL    HW2 6293   2.896   0.234   4.185
 2089SOL     OW 6294   3.089   1.570   4.517
 2089SOL    HW1 6295   3.110   1.644   4.452
 2089SOL    HW2 6296   3.157   1.570   4.590
 2090SOL     OW 6297   2.321   1.152   4.465
 2090SOL    HW1 6298   2.250   1.125   4.530
 2090SOL    HW2 6299   2.295   1.124   4.372
 2091SOL     OW 6300   3.133   1.797   4.315
 2091SOL    HW1 6301   3.177   1.861   4.251
 2091SOL    HW2 6302   3.083   1.849   4.385
 2092SOL     OW 6303   2.894   0.549   3.740
 2092SOL    HW1 6304   2.853   0.631   3.701
 2092SOL    HW2 6305   2.958   0.575   3.813
 2093SOL     OW 6306   2.423   0.222   4.871
 2093SOL    HW1 6307   2.461   0.138   4.908
 2093SOL    HW2 6308   2.335   0.241   4.915
 2094SOL     OW 6309   2.728   0.454   4.366
 2094SOL    HW1 6310   2.696   0.526   4.304
 2094SOL    HW2 6311   2.752   0.373   4.313
 2095SOL     OW 6312   2.879   0.039   4.477
 2095SOL    HW1 6313   2.807   0.044   4.408
 2095SOL    HW2 6314   2.855  -0.030   4.546
 2096SOL     OW 6315   3.291   1.173   4.591
 2096SOL    HW1 6316   3.236   1.089   4.584
 2096SOL    HW2 6317   3.317   1.202   4.499
 2097SOL     OW 6318   3.328   0.590   4.716
 2097SOL    HW1 6319   3.298   0.495   4.723
 2097SOL    HW2 6320   3.401   0.606   4.782
 2098SOL     OW 6321   3.719   0.833   4.101
 2098SOL    HW1 6322   3.761   0.769   4.165
 2098SOL    HW2 6323   3.681   0.782   4.023
 2099SOL     OW 6324   2.350   1.385   3.898
 2099SOL    HW1 6325   2.263   1.370   3.945
 2099SOL    HW2 6326   2.333   1.411   3.803
 2100SOL     OW 6327   3.526   1.280   4.381
 2100SOL    HW1 6328   3.625   1.288   4.395
 2100SOL    HW2 6329   3.481   1.364   4.412
 2101SOL     OW 6330   3.252   0.575   3.802
 2101SOL    HW1 6331   3.198   0.554   3.883
 2101SOL    HW2 6332   3.343   0.534   3.811
 2102SOL     OW 6333   2.389   0.256   4.052
 2102SOL    HW1 6334   2.416   0.197   3.977
 2102SOL    HW2 6335   2.389   0.351   4.021
 2103SOL     OW 6336   3.616   1.223   5.312
 2103SOL    HW1 6337   3.707   1.184   5.299
 2103SOL    HW2 6338   3.624   1.319   5.336
 2104SOL     OW 6339   2.973   1.195   4.824
 2104SOL    HW1 6340   2.933   1.239   4.905
 2104SOL    HW2 6341   2.932   1.232   4.741
 2105SOL     OW 6342   3.500   1.099   4.803
 2105SOL    HW1 6343   3.505   1.180   4.862
 2105SOL    HW2 6344   3.414   1.101   4.752
 2106SOL     OW 6345   2.567   1.050   4.092
 2106SOL    HW1 6346   2.553   1.057   4.191
 2106SOL    HW2 6347   2.651   0.999   4.074
 2107SOL     OW 6348   2.272   0.813   4.975
 2107SOL    HW1 6349   2.358   0.825   5.025
 2107SOL    HW2 6350   2.230   0.726   5.002
 2108SOL     OW 6351   3.136   0.386   4.986
 2108SOL    HW1 6352   3.157   0.460   5.050
 2108SOL    HW2 6353   3.047   0.403   4.943
 2109SOL     OW 6354   1.926   1.564   5.055
 2109SOL    HW1 6355   1.880   1.646   5.021
 2109SOL    HW2 6356   2.024   1.583   5.064
 2110SOL     OW 6357   2.229   1.100   4.225
 2110SOL    HW1 6358   2.222   1.183   4.169
 2110SOL    HW2 6359   2.233   1.020   4.165
 2111SOL     OW 6360   2.428   0.537   4.589
 2111SOL    HW1 6361   2.440   0.603   4.515
 2111SOL    HW2 6362   2.474   0.571   4.672
 2112SOL     OW 6363   3.114   1.348   4.112
 2112SOL    HW1 6364   3.164   1.425   4.152
 2112SOL    HW2 6365   3.019   1.350   4.144
 2113SOL     OW 6366   3.134   1.445   4.866
 2113SOL    HW1 6367   3.181   1.458   4.953
 2113SOL    HW2 6368   3.068   1.371   4.875
 2114SOL     OW 6369   3.444   0.639   4.196
 2114SOL    HW1 6370   3.413   0.700   4.269
 2114SOL    HW2 6371   3.494   0.691   4.127
 2115SOL     OW 6372   2.216   1.510   5.053
 2115SOL    HW1 6373   2.195   1.466   4.966
 2115SOL    HW2 6374   2.313   1.536   5.056
 2116SOL     OW 6375   2.435   0.870   4.753
 2116SOL    HW1 6376   2.479   0.959   4.744
 2116SOL    HW2 6377   2.372   0.870   4.830
 2117SOL     OW 6378   3.222   0.862   4.769
 2117SOL    HW1 6379   3.147   0.862   4.703
 2117SOL    HW2 6380   3.259   0.770   4.778
 2118SOL     OW 6381   3.071   0.525   3.999
 2118SOL    HW1 6382   3.084   0.441   4.053
 2118SOL    HW2 6383   3.042   0.599   4.059
 2119SOL     OW 6384   2.169   0.213   4.955
 2119SOL    HW1 6385   2.146   0.250   5.045
 2119SOL    HW2 6386   2.139   0.118   4.949
 2120SOL     OW 6387   1.899   1.310   5.006
 2120SOL    HW1 6388   1.952   1.261   5.074
 2120SOL    HW2 6389   1.921   1.408   5.011
 2121SOL     OW 6390   2.594   0.634   4.788
 2121SOL    HW1 6391   2.653   0.608   4.712
 2121SOL    HW2 6392   2.566   0.730   4.777
 2122SOL     OW 6393   2.169   0.063   4.342
 2122SOL    HW1 6394   2.158   0.157   4.375
 2122SOL    HW2 6395   2.164   0.000   4.419
 2123SOL     OW 6396   3.484   0.367   4.098
 2123SOL    HW1 6397   3.486   0.291   4.162
 2123SOL    HW2 6398   3.436   0.444   4.138
 2124SOL     OW 6399   2.885   0.766   4.690
 2124SOL    HW1 6400   2.900   0.787   4.786
 2124SOL    HW2 6401   2.855   0.671   4.681
 2125SOL     OW 6402   3.721   1.518   5.329
 2125SOL    HW1 6403   3.735   1.545   5.234
 2125SOL    HW2 6404   3.804   1.540   5.382
 2126SOL     OW 6405   3.402   0.274   3.849
 2126SOL    HW1 6406   3.341   0.199   3.872
 2126SOL    HW2 6407   3.424   0.326   3.932
 2127SOL     OW 6408   3.165   0.838   3.766
 2127SOL    HW1 6409   3.199   0.745   3.781
 2127SOL    HW2 6410   3.183   0.865   3.671
 2128SOL     OW 6411   2.930   1.333   4.573
 2128SOL    HW1 6412   2.937   1.249   4.518
 2128SOL    HW2 6413   2.992   1.402   4.537
 2129SOL     OW 6414   2.181   0.810   4.673
 2129SOL    HW1 6415   2.274   0.846   4.678
 2129SOL    HW2 6416   2.175   0.725   4.725
 2130SOL     OW 6417   2.201   0.509   4.730
 2130SOL    HW1 6418   2.149   0.426   4.713
 2130SOL    HW2 6419   2.278   0.514   4.666
 2131SOL     OW 6420   3.022   0.207   5.201
 2131SOL    HW1 6421   3.022   0.271   5.278
 2131SOL    HW2 6422   3.050   0.255   5.118
 2132SOL     OW 6423   1.870   1.326   3.924
 2132SOL    HW1 6424   1.777   1.347   3.893
 2132SOL    HW2 6425   1.880   1.227   3.937
 2133SOL     OW 6426   1.950   1.801   4.651
 2133SOL    HW1 6427   1.908   1.715   4.624
 2133SOL    HW2 6428   2.044   1.804   4.617
 2134SOL     OW 6429   2.366   1.568   4.634
 2134SOL    HW1 6430   2.432   1.642   4.643
 2134SOL    HW2 6431   2.410   1.489   4.592
 2135SOL     OW 6432   2.864   0.796   4.962
 2135SOL    HW1 6433   2.905   0.764   5.048
 2135SOL    HW2 6434   2.768   0.769   4.959
 2136SOL     OW 6435   1.902   0.544   4.838
 2136SOL    HW1 6436   1.987   0.511   4.797
 2136SOL    HW2 6437   1.915   0.559   4.936
 2137SOL     OW 6438   2.051   0.520   5.446
 2137SOL    HW1 6439   2.110   0.480   5.376
 2137SOL    HW2 6440   1.993   0.591   5.405
 2138SOL     OW 6441   2.677   0.572   4.049
 2138SOL    HW1 6442   2.684   0.483   4.003
 2138SOL    HW2 6443   2.583   0.606   4.041
 2139SOL     OW 6444   3.519   0.604   4.930
 2139SOL    HW1 6445   3.481   0.535   4.992
 2139SOL    HW2 6446   3.601   0.568   4.886
 2140SOL     OW 6447   2.533   0.464   4.993
 2140SOL    HW1 6448   2.499   0.375   4.963
 2140SOL    HW2 6449   2.559   0.518   4.913
 2141SOL     OW 6450   2.792   1.678   5.189
 2141SOL    HW1 6451   2.768   1.660   5.094
 2141SOL    HW2 6452   2.822   1.772   5.199
 2142SOL     OW 6453   2.335   0.500   3.915
 2142SOL    HW1 6454   2.396   0.580   3.919
 2142SOL    HW2 6455   2.240   0.531   3.922
 2143SOL     OW 6456   2.021   1.137   5.190
 2143SOL    HW1 6457   2.043   1.076   5.266
 2143SOL    HW2 6458   2.031   1.088   5.104
 2144SOL     OW 6459   3.209   1.059   4.958
 2144SOL    HW1 6460   3.233   0.996   4.884
 2144SOL    HW2 6461   3.119   1.099   4.940
 2145SOL     OW 6462   3.164   0.855   4.033
 2145SOL    HW1 6463   3.078   0.824   4.075
 2145SOL    HW2 6464   3.160   0.841   3.934
 2146SOL     OW 6465   3.621   1.747   4.878
 2146SOL    HW1 6466   3.682   1.777   4.805
 2146SOL    HW2 6467   3.583   1.658   4.856
 2147SOL     OW 6468   3.114   1.731   4.852
 2147SOL    HW1 6469   3.198   1.736   4.798
 2147SOL    HW2 6470   3.091   1.635   4.870
 2148SOL     OW 6471   1.945   1.258   4.746
 2148SOL    HW1 6472   1.940   1.257   4.846
 2148SOL    HW2 6473   1.862   1.217   4.708
 2149SOL     OW 6474   3.588   0.135   4.247
 2149SOL    HW1 6475   3.661   0.118   4.180
 2149SOL    HW2 6476   3.557   0.048   4.285
 2150SOL     OW 6477   3.250   1.573   4.201
 2150SOL    HW1 6478   3.317   1.585   4.127
 2150SOL    HW2 6479   3.210   1.662   4.224
 2151SOL     OW 6480   3.142   0.927   4.396
 2151SOL    HW1 6481   3.202   0.846   4.398
 2151SOL    HW2 6482   3.182   0.996   4.336
 2152SOL     OW 6483   2.534   1.616   3.878
 2152SOL    HW1 6484   2.543   1.626   3.779
 2152SOL    HW2 6485   2.494   1.527   3.899
 2153SOL     OW 6486   3.703   0.175   4.687
 2153SOL    HW1 6487   3.742   0.090   4.651
 2153SOL    HW2 6488   3.605   0.177   4.668
 2154SOL     OW 6489   2.125   0.326   4.444
 2154SOL    HW1 6490   2.046   0.377   4.410
 2154SOL    HW2 6491   2.116   0.311   4.542
 2155SOL     OW 6492   3.056   1.612   3.755
 2155SOL    HW1 6493   3.062   1.519   3.792
 2155SOL    HW2 6494   2.997   1.612   3.675
 2156SOL     OW 6495   2.684   1.002   5.096
 2156SOL    HW1 6496   2.724   1.001   5.004
 2156SOL    HW2 6497   2.694   1.094   5.136
 2157SOL     OW 6498   2.778   0.910   4.015
 2157SOL    HW1 6499   2.841   0.948   3.947
 2157SOL    HW2 6500   2.818   0.827   4.054
 2158SOL     OW 6501   3.366   1.607   3.768
 2158SOL    HW1 6502   3.274   1.644   3.775
 2158SOL    HW2 6503   3.404   1.627   3.678
 2159SOL     OW 6504   2.901   1.098   4.420
 2159SOL    HW1 6505   2.831   1.051   4.474
 2159SOL    HW2 6506   2.960   1.030   4.377
 2160SOL     OW 6507   2.876   0.236   4.695
 2160SOL    HW1 6508   2.868   0.200   4.602
 2160SOL    HW2 6509   2.874   0.160   4.760
 2161SOL     OW 6510   2.452   1.487   4.215
 2161SOL    HW1 6511   2.494   1.429   4.145
 2161SOL    HW2 6512   2.408   1.566   4.171
 2162SOL     OW 6513   3.571   0.385   5.105
 2162SOL    HW1 6514   3.644   0.454   5.109
 2162SOL    HW2 6515   3.599   0.310   5.046
 2163SOL     OW 6516   2.117   1.348   4.014
 2163SOL    HW1 6517   2.021   1.349   3.987
 2163SOL    HW2 6518   2.129   1.401   4.098
 2164SOL     OW 6519   1.937   0.345   3.757
 2164SOL    HW1 6520   1.845   0.317   3.728
 2164SOL    HW2 6521   1.968   0.422   3.701
 2165SOL     OW 6522   1.934   0.166   4.042
 2165SOL    HW1 6523   1.917   0.249   3.988
 2165SOL    HW2 6524   2.024   0.129   4.020
 2166SOL     OW 6525   3.045   1.335   3.843
 2166SOL    HW1 6526   2.946   1.324   3.845
 2166SOL    HW2 6527   3.079   1.350   3.936
 2167SOL     OW 6528   3.355   1.767   4.683
 2167SOL    HW1 6529   3.388   1.831   4.614
 2167SOL    HW2 6530   3.421   1.761   4.758
 2168SOL     OW 6531   3.312   1.220   5.357
 2168SOL    HW1 6532   3.303   1.210   5.456
 2168SOL    HW2 6533   3.408   1.213   5.331
 2169SOL     OW 6534   2.252   1.741   5.284
 2169SOL    HW1 6535   2.161   1.782   5.282
 2169SOL    HW2 6536   2.245   1.647   5.316
 2170SOL     OW 6537   3.536   0.883   4.978
 2170SOL    HW1 6538   3.509   0.794   4.941
 2170SOL    HW2 6539   3.537   0.951   4.905
 2171SOL     OW 6540   3.087   0.325   4.173
 2171SOL    HW1 6541   3.152   0.251   4.162
 2171SOL    HW2 6542   3.107   0.375   4.257
 2172SOL     OW 6543   2.456   0.745   4.376
 2172SOL    HW1 6544   2.506   0.830   4.357
 2172SOL    HW2 6545   2.368   0.747   4.328
 2173SOL     OW 6546   3.592   0.934   5.241
 2173SOL    HW1 6547   3.630   1.025   5.256
 2173SOL    HW2 6548   3.584   0.917   5.142
 2174SOL     OW 6549   2.721   1.374   3.740
 2174SOL    HW1 6550   2.675   1.389   3.828
 2174SOL    HW2 6551   2.765   1.459   3.710
 2175SOL     OW 6552   2.523   1.790   4.677
 2175SOL    HW1 6553   2.477   1.878   4.664
 2175SOL    HW2 6554   2.622   1.802   4.670
 2176SOL     OW 6555   2.721   0.956   4.585
 2176SOL    HW1 6556   2.775   0.887   4.633
 2176SOL    HW2 6557   2.689   1.025   4.651
 2177SOL     OW 6558   2.945   0.984   3.811
 2177SOL    HW1 6559   2.922   1.037   3.729
 2177SOL    HW2 6560   3.026   0.928   3.792
 2178SOL     OW 6561   3.723   1.569   4.575
 2178SOL    HW1 6562   3.652   1.557   4.505
 2178SOL    HW2 6563   3.724   1.490   4.635
 2179SOL     OW 6564   1.941   1.240   4.377
 2179SOL    HW1 6565   1.940   1.193   4.465
 2179SOL    HW2 6566   2.023   1.212   4.326
 2180SOL     OW 6567   3.686   0.192   4.951
 2180SOL    HW1 6568   3.682   0.102   4.995
 2180SOL    HW2 6569   3.689   0.181   4.852
 2181SOL     OW 6570   2.290   0.424   4.244
 2181SOL    HW1 6571   2.320   0.352   4.182
 2181SOL    HW2 6572   2.251   0.384   4.327
 2182SOL     OW 6573   3.567   1.487   4.828
 2182SOL    HW1 6574   3.474   1.462   4.801
 2182SOL    HW2 6575   3.593   1.437   4.910
 2183SOL     OW 6576   2.179   0.547   5.004
 2183SOL    HW1 6577   2.217   0.488   5.076
 2183SOL    HW2 6578   2.219   0.521   4.916
 2184SOL     OW 6579   2.674   1.586   4.411
 2184SOL    HW1 6580   2.706   1.596   4.317
 2184SOL    HW2 6581   2.595   1.524   4.413
 2185SOL     OW 6582   3.286   0.214   4.836
 2185SOL    HW1 6583   3.338   0.149   4.891
 2185SOL    HW2 6584   3.237   0.277   4.897
 2186SOL     OW 6585   2.863   0.034   4.878
 2186SOL    HW1 6586   2.800  -0.038   4.847
 2186SOL    HW2 6587   2.956  -0.002   4.878
 2187SOL     OW 6588   2.632   1.330   4.025
 2187SOL    HW1 6589   2.586   1.243   4.042
 2187SOL    HW2 6590   2.723   1.327   4.066
 2188SOL     OW 6591   3.214   0.052   3.892
 2188SOL    HW1 6592   3.249   0.011   3.808
 2188SOL    HW2 6593   3.124   0.014   3.912
 2189SOL     OW 6594   3.162   0.453   4.415
 2189SOL    HW1 6595   3.103   0.533   4.419
 2189SOL    HW2 6596   3.177   0.418   4.508
 2190SOL     OW 6597   3.455   0.221   4.606
 2190SOL    HW1 6598   3.371   0.220   4.660
 2190SOL    HW2 6599   3.457   0.304   4.550
 2191SOL     OW 6600   1.901   1.077   4.024
 2191SOL    HW1 6601   2.000   1.066   4.015
 2191SOL    HW2 6602   1.861   0.991   4.056
 2192SOL     OW 6603   2.737   1.646   4.061
 2192SOL    HW1 6604   2.660   1.611   4.007
 2192SOL    HW2 6605   2.705   1.717   4.123
 2193SOL     OW 6606   2.092   2.490   0.113
 2193SOL    HW1 6607   1.999   2.488   0.150
 2193SOL    HW2 6608   2.093   2.451   0.021
 2194SOL     OW 6609   2.087   2.137   0.996
 2194SOL    HW1 6610   2.122   2.120   1.088
 2194SOL    HW2 6611   1.999   2.092   0.984
 2195SOL     OW 6612   1.881   2.230   0.647
 2195SOL    HW1 6613   1.799   2.273   0.686
 2195SOL    HW2 6614   1.853   2.157   0.584
 2196SOL     OW 6615   2.431   3.137   1.165
 2196SOL    HW1 6616   2.338   3.130   1.128
 2196SOL    HW2 6617   2.442   3.226   1.209
 2197SOL     OW 6618   3.417   3.373   0.703
 2197SOL    HW1 6619   3.360   3.357   0.784
 2197SOL    HW2 6620   3.358   3.383   0.623
 2198SOL     OW 6621   2.997   2.565   0.717
 2198SOL    HW1 6622   3.054   2.643   0.692
 2198SOL    HW2 6623   2.937   2.591   0.793
 2199SOL     OW 6624   3.617   2.469   0.231
 2199SOL    HW1 6625   3.605   2.456   0.132
 2199SOL    HW2 6626   3.587   2.388   0.280
 2200SOL     OW 6627   2.630   3.006   1.023
 2200SOL    HW1 6628   2.552   3.023   1.083
 2200SOL    HW2 6629   2.664   3.093   0.987
 2201SOL     OW 6630   2.712   2.660   1.823
 2201SOL    HW1 6631   2.708   2.736   1.888
 2201SOL    HW2 6632   2.734   2.696   1.732
 2202SOL     OW 6633   2.547   2.874   0.665
 2202SOL    HW1 6634   2.616   2.858   0.735
 2202SOL    HW2 6635   2.474   2.931   0.703
 2203SOL     OW 6636   2.548   3.023   1.803
 2203SOL    HW1 6637   2.608   3.102   1.817
 2203SOL    HW2 6638   2.462   3.054   1.762
 2204SOL     OW 6639   2.197   3.297   1.061
 2204SOL    HW1 6640   2.119   3.266   1.008
 2204SOL    HW2 6641   2.255   3.355   1.004
 2205SOL     OW 6642   3.322   3.367   1.339
 2205SOL    HW1 6643   3.346   3.461   1.365
 2205SOL    HW2 6644   3.306   3.313   1.421
 2206SOL     OW 6645   2.300   2.254   1.499
 2206SOL    HW1 6646   2.382   2.198   1.508
 2206SOL    HW2 6647   2.219   2.196   1.503
 2207SOL     OW 6648   3.465   2.309   0.737
 2207SOL    HW1 6649   3.391   2.355   0.687
 2207SOL    HW2 6650   3.516   2.377   0.790
 2208SOL     OW 6651   2.093   3.575   0.483
 2208SOL    HW1 6652   2.127   3.652   0.537
 2208SOL    HW2 6653   2.137   3.575   0.393
 2209SOL     OW 6654   2.989   3.203   1.690
 2209SOL    HW1 6655   3.036   3.203   1.778
 2209SOL    HW2 6656   2.941   3.116   1.679
 2210SOL     OW 6657   2.092   3.296   0.538
 2210SOL    HW1 6658   2.066   3.392   0.538
 2210SOL    HW2 6659   2.021   3.242   0.583
 2211SOL     OW 6660   2.102   2.953   0.886
 2211SOL    HW1 6661   2.116   2.869   0.938
 2211SOL    HW2 6662   2.047   3.017   0.941
 2212SOL     OW 6663   2.482   3.648   1.439
 2212SOL    HW1 6664   2.390   3.631   1.474
 2212SOL    HW2 6665   2.510   3.740   1.465
 2213SOL     OW 6666   2.468   2.826   0.123
 2213SOL    HW1 6667   2.475   2.910   0.069
 2213SOL    HW2 6668   2.514   2.839   0.211
 2214SOL     OW 6669   3.456   1.976   1.480
 2214SOL    HW1 6670   3.438   2.043   1.408
 2214SOL    HW2 6671   3.453   2.022   1.569
 2215SOL     OW 6672   1.984   2.505   0.563
 2215SOL    HW1 6673   1.939   2.417   0.580
 2215SOL    HW2 6674   1.983   2.559   0.647
 2216SOL     OW 6675   3.704   3.629   0.359
 2216SOL    HW1 6676   3.758   3.600   0.439
 2216SOL    HW2 6677   3.734   3.719   0.330
 2217SOL     OW 6678   3.551   2.784   0.612
 2217SOL    HW1 6679   3.646   2.755   0.620
 2217SOL    HW2 6680   3.543   2.849   0.537
 2218SOL     OW 6681   3.503   2.970   0.432
 2218SOL    HW1 6682   3.589   2.972   0.380
 2218SOL    HW2 6683   3.517   3.017   0.520
 2219SOL     OW 6684   1.975   2.599   1.597
 2219SOL    HW1 6685   2.063   2.586   1.642
 2219SOL    HW2 6686   1.962   2.696   1.575
 2220SOL     OW 6687   2.475   3.227   0.726
 2220SOL    HW1 6688   2.426   3.140   0.735
 2220SOL    HW2 6689   2.452   3.270   0.639
 2221SOL     OW 6690   3.155   3.090   1.423
 2221SOL    HW1 6691   3.192   3.017   1.365
 2221SOL    HW2 6692   3.207   3.095   1.508
 2222SOL     OW 6693   2.671   1.866   0.502
 2222SOL    HW1 6694   2.711   1.957   0.493
 2222SOL    HW2 6695   2.571   1.874   0.508
 2223SOL     OW 6696   2.059   2.838   1.264
 2223SOL    HW1 6697   2.148   2.793   1.250
 2223SOL    HW2 6698   1.986   2.773   1.245
 2224SOL     OW 6699   3.387   2.861   0.190
 2224SOL    HW1 6700   3.324   2.785   0.203
 2224SOL    HW2 6701   3.435   2.879   0.276
 2225SOL     OW 6702   3.049   3.654   1.616
 2225SOL    HW1 6703   3.073   3.714   1.540
 2225SOL    HW2 6704   3.056   3.559   1.586
 2226SOL     OW 6705   2.179   2.113   1.801
 2226SOL    HW1 6706   2.250   2.184   1.807
 2226SOL    HW2 6707   2.091   2.152   1.829
 2227SOL     OW 6708   3.328   3.279   0.953
 2227SOL    HW1 6709   3.269   3.285   1.033
 2227SOL    HW2 6710   3.313   3.191   0.907
 2228SOL     OW 6711   3.529   3.576   0.572
 2228SOL    HW1 6712   3.488   3.553   0.484
 2228SOL    HW2 6713   3.511   3.502   0.637
 2229SOL     OW 6714   2.460   2.591   0.270
 2229SOL    HW1 6715   2.484   2.660   0.202
 2229SOL    HW2 6716   2.382   2.624   0.324
 2230SOL     OW 6717   3.143   2.207   0.944
 2230SOL    HW1 6718   3.057   2.157   0.931
 2230SOL    HW2 6719   3.205   2.153   1.000
 2231SOL     OW 6720   3.438   3.524   0.307
 2231SOL    HW1 6721   3.527   3.570   0.310
 2231SOL    HW2 6722   3.417   3.500   0.212
 2232SOL     OW 6723   2.669   2.467   1.465
 2232SOL    HW1 6724   2.622   2.464   1.554
 2232SOL    HW2 6725   2.618   2.412   1.399
 2233SOL     OW 6726   3.256   2.331   1.674
 2233SOL    HW1 6727   3.236   2.374   1.762
 2233SOL    HW2 6728   3.334   2.269   1.683
 2234SOL     OW 6729   2.835   2.752   1.572
 2234SOL    HW1 6730   2.881   2.668   1.543
 2234SOL    HW2 6731   2.779   2.786   1.497
 2235SOL     OW 6732   2.853   2.272   1.242
 2235SOL    HW1 6733   2.776   2.306   1.296
 2235SOL    HW2 6734   2.819   2.221   1.163
 2236SOL     OW 6735   2.903   2.563   0.429
 2236SOL    HW1 6736   2.929   2.559   0.525
 2236SOL    HW2 6737   2.818   2.512   0.415
 2237SOL     OW 6738   1.938   2.673   0.789
 2237SOL    HW1 6739   2.037   2.661   0.798
 2237SOL    HW2 6740   1.914   2.768   0.810
 2238SOL     OW 6741   1.992   3.683   1.571
 2238SOL    HW1 6742   1.982   3.668   1.670
 2238SOL    HW2 6743   1.906   3.719   1.535
 2239SOL     OW 6744   2.727   2.210   0.195
 2239SOL    HW1 6745   2.786   2.273   0.146
 2239SOL    HW2 6746   2.746   2.116   0.166
 2240SOL     OW 6747   3.581   2.447   1.831
 2240SOL    HW1 6748   3.555   2.536   1.795
 2240SOL    HW2 6749   3.579   2.379   1.758
 2241SOL     OW 6750   3.224   3.006   0.545
 2241SOL    HW1 6751   3.307   2.977   0.497
 2241SOL    HW2 6752   3.175   3.073   0.489
 2242SOL     OW 6753   2.412   2.058   0.885
 2242SOL    HW1 6754   2.407   2.053   0.985
 2242SOL    HW2 6755   2.414   2.154   0.856
 2243SOL     OW 6756   2.870   3.318   0.477
 2243SOL    HW1 6757   2.824   3.390   0.425
 2243SOL    HW2 6758   2.866   3.338   0.575
 2244SOL     OW 6759   2.213   3.663   0.853
 2244SOL    HW1 6760   2.263   3.577   0.859
 2244SOL    HW2 6761   2.278   3.740   0.850
 2245SOL     OW 6762   3.657   2.928   0.873
 2245SOL    HW1 6763   3.595   2.913   0.797
 2245SOL    HW2 6764   3.605   2.939   0.958
 2246SOL     OW 6765   3.089   3.412   1.506
 2246SOL    HW1 6766   3.095   3.335   1.570
 2246SOL    HW2 6767   3.037   3.386   1.426
 2247SOL     OW 6768   2.183   2.805   0.242
 2247SOL    HW1 6769   2.265   2.844   0.200
 2247SOL    HW2 6770   2.156   2.723   0.193
 2248SOL     OW 6771   3.320   2.597   0.728
 2248SOL    HW1 6772   3.315   2.532   0.803
 2248SOL    HW2 6773   3.400   2.656   0.741
 2249SOL     OW 6774   2.323   3.128   1.727
 2249SOL    HW1 6775   2.273   3.129   1.641
 2249SOL    HW2 6776   2.260   3.110   1.803
 2250SOL     OW 6777   2.973   3.638   0.237
 2250SOL    HW1 6778   2.913   3.576   0.287
 2250SOL    HW2 6779   3.004   3.594   0.152
 2251SOL     OW 6780   2.064   2.147   1.498
 2251SOL    HW1 6781   1.984   2.207   1.485
 2251SOL    HW2 6782   2.054   2.098   1.584
 2252SOL     OW 6783   3.494   3.239   0.081
 2252SOL    HW1 6784   3.462   3.333   0.071
 2252SOL    HW2 6785   3.418   3.176   0.069
 2253SOL     OW 6786   2.326   3.605   0.323
 2253SOL    HW1 6787   2.359   3.644   0.409
 2253SOL    HW2 6788   2.402   3.598   0.258
 2254SOL     OW 6789   3.262   1.969   0.426
 2254SOL    HW1 6790   3.238   1.932   0.336
 2254SOL    HW2 6791   3.361   1.985   0.430
 2255SOL     OW 6792   2.111   3.647   1.241
 2255SOL    HW1 6793   2.168   3.582   1.291
 2255SOL    HW2 6794   2.095   3.614   1.148
 2256SOL     OW 6795   2.802   3.560   0.904
 2256SOL    HW1 6796   2.882   3.503   0.925
 2256SOL    HW2 6797   2.753   3.520   0.827
 2257SOL     OW 6798   2.244   2.562   0.480
 2257SOL    HW1 6799   2.289   2.472   0.477
 2257SOL    HW2 6800   2.150   2.551   0.513
 2258SOL     OW 6801   3.409   2.084   1.729
 2258SOL    HW1 6802   3.404   2.121   1.821
 2258SOL    HW2 6803   3.337   2.015   1.717
 2259SOL     OW 6804   2.643   2.126   1.749
 2259SOL    HW1 6805   2.710   2.065   1.792
 2259SOL    HW2 6806   2.570   2.145   1.814
 2260SOL     OW 6807   2.750   3.376   1.195
 2260SOL    HW1 6808   2.727   3.351   1.101
 2260SOL    HW2 6809   2.811   3.307   1.234
 2261SOL     OW 6810   3.213   2.452   1.433
 2261SOL    HW1 6811   3.241   2.409   1.518
 2261SOL    HW2 6812   3.238   2.548   1.434
 2262SOL     OW 6813   2.665   3.264   0.924
 2262SOL    HW1 6814   2.755   3.278   0.882
 2262SOL    HW2 6815   2.594   3.266   0.853
 2263SOL     OW 6816   2.784   2.365   0.899
 2263SOL    HW1 6817   2.759   2.356   0.803
 2263SOL    HW2 6818   2.832   2.283   0.930
 2264SOL     OW 6819   2.401   1.926   0.512
 2264SOL    HW1 6820   2.320   1.927   0.570
 2264SOL    HW2 6821   2.404   2.009   0.457
 2265SOL     OW 6822   3.296   3.050   0.041
 2265SOL    HW1 6823   3.328   2.974   0.098
 2265SOL    HW2 6824   3.204   3.077   0.071
 2266SOL     OW 6825   2.797   2.098   0.480
 2266SOL    HW1 6826   2.749   2.139   0.402
 2266SOL    HW2 6827   2.896   2.096   0.461
 2267SOL     OW 6828   2.938   2.545   1.464
 2267SOL    HW1 6829   2.858   2.484   1.467
 2267SOL    HW2 6830   3.019   2.492   1.440
 2268SOL     OW 6831   3.089   3.432   0.793
 2268SOL    HW1 6832   3.110   3.506   0.728
 2268SOL    HW2 6833   3.157   3.432   0.866
 2269SOL     OW 6834   2.321   3.014   0.741
 2269SOL    HW1 6835   2.250   2.987   0.806
 2269SOL    HW2 6836   2.295   2.986   0.648
 2270SOL     OW 6837   3.133   3.659   0.591
 2270SOL    HW1 6838   3.177   3.723   0.527
 2270SOL    HW2 6839   3.083   3.711   0.661
 2271SOL     OW 6840   2.894   2.411   0.016
 2271SOL    HW1 6841   2.853   2.493  -0.023
 2271SOL    HW2 6842   2.958   2.437   0.089
 2272SOL     OW 6843   1.940   2.418   1.386
 2272SOL    HW1 6844   2.032   2.417   1.345
 2272SOL    HW2 6845   1.934   2.492   1.453
 2273SOL     OW 6846   2.423   2.084   1.147
 2273SOL    HW1 6847   2.461   2.000   1.184
 2273SOL    HW2 6848   2.335   2.103   1.191
 2274SOL     OW 6849   2.728   2.316   0.642
 2274SOL    HW1 6850   2.696   2.388   0.580
 2274SOL    HW2 6851   2.752   2.235   0.589
 2275SOL     OW 6852   2.879   1.901   0.753
 2275SOL    HW1 6853   2.807   1.906   0.684
 2275SOL    HW2 6854   2.855   1.832   0.822
 2276SOL     OW 6855   3.291   3.035   0.867
 2276SOL    HW1 6856   3.236   2.951   0.860
 2276SOL    HW2 6857   3.317   3.064   0.775
 2277SOL     OW 6858   3.328   2.452   0.992
 2277SOL    HW1 6859   3.298   2.357   0.999
 2277SOL    HW2 6860   3.401   2.468   1.058
 2278SOL     OW 6861   3.719   2.695   0.377
 2278SOL    HW1 6862   3.761   2.631   0.441
 2278SOL    HW2 6863   3.681   2.644   0.299
 2279SOL     OW 6864   2.350   3.247   0.174
 2279SOL    HW1 6865   2.263   3.232   0.221
 2279SOL    HW2 6866   2.333   3.273   0.079
 2280SOL     OW 6867   3.526   3.142   0.657
 2280SOL    HW1 6868   3.625   3.150   0.671
 2280SOL    HW2 6869   3.481   3.226   0.688
 2281SOL     OW 6870   3.252   2.437   0.078
 2281SOL    HW1 6871   3.198   2.416   0.159
 2281SOL    HW2 6872   3.343   2.396   0.087
 2282SOL     OW 6873   2.389   2.118   0.328
 2282SOL    HW1 6874   2.416   2.059   0.253
 2282SOL    HW2 6875   2.389   2.213   0.297
 2283SOL     OW 6876   3.616   3.085   1.588
 2283SOL    HW1 6877   3.707   3.046   1.575
 2283SOL    HW2 6878   3.624   3.181   1.612
 2284SOL     OW 6879   2.926   3.209   1.340
 2284SOL    HW1 6880   2.846   3.186   1.395
 2284SOL    HW2 6881   3.009   3.183   1.389
 2285SOL     OW 6882   3.454   3.491   1.625
 2285SOL    HW1 6883   3.481   3.525   1.535
 2285SOL    HW2 6884   3.533   3.453   1.671
 2286SOL     OW 6885   2.973   3.057   1.100
 2286SOL    HW1 6886   2.933   3.101   1.181
 2286SOL    HW2 6887   2.932   3.094   1.017
 2287SOL     OW 6888   3.500   2.961   1.079
 2287SOL    HW1 6889   3.505   3.042   1.138
 2287SOL    HW2 6890   3.414   2.963   1.028
 2288SOL     OW 6891   2.777   1.951   1.402
 2288SOL    HW1 6892   2.802   1.931   1.307
 2288SOL    HW2 6893   2.849   2.007   1.444
 2289SOL     OW 6894   2.842   2.978   1.719
 2289SOL    HW1 6895   2.743   2.984   1.729
 2289SOL    HW2 6896   2.865   2.898   1.663
 2290SOL     OW 6897   2.567   2.912   0.368
 2290SOL    HW1 6898   2.553   2.919   0.467
 2290SOL    HW2 6899   2.651   2.861   0.350
 2291SOL     OW 6900   2.272   2.675   1.251
 2291SOL    HW1 6901   2.358   2.687   1.301
 2291SOL    HW2 6902   2.230   2.588   1.278
 2292SOL     OW 6903   3.136   2.248   1.262
 2292SOL    HW1 6904   3.157   2.322   1.326
 2292SOL    HW2 6905   3.047   2.265   1.219
 2293SOL     OW 6906   1.926   3.426   1.331
 2293SOL    HW1 6907   1.880   3.508   1.297
 2293SOL    HW2 6908   2.024   3.445   1.340
 2294SOL     OW 6909   2.229   2.962   0.501
 2294SOL    HW1 6910   2.222   3.045   0.445
 2294SOL    HW2 6911   2.233   2.882   0.441
 2295SOL     OW 6912   2.428   2.399   0.865
 2295SOL    HW1 6913   2.440   2.465   0.791
 2295SOL    HW2 6914   2.474   2.433   0.948
 2296SOL     OW 6915   3.114   3.210   0.388
 2296SOL    HW1 6916   3.164   3.287   0.428
 2296SOL    HW2 6917   3.019   3.212   0.420
 2297SOL     OW 6918   3.134   3.307   1.142
 2297SOL    HW1 6919   3.181   3.320   1.229
 2297SOL    HW2 6920   3.068   3.233   1.151
 2298SOL     OW 6921   3.444   2.501   0.472
 2298SOL    HW1 6922   3.413   2.562   0.545
 2298SOL    HW2 6923   3.494   2.553   0.403
 2299SOL     OW 6924   2.216   3.372   1.329
 2299SOL    HW1 6925   2.195   3.328   1.242
 2299SOL    HW2 6926   2.313   3.398   1.332
 2300SOL     OW 6927   2.264   2.613   1.598
 2300SOL    HW1 6928   2.332   2.668   1.551
 2300SOL    HW2 6929   2.304   2.525   1.625
 2301SOL     OW 6930   3.449   2.641   1.670
 2301SOL    HW1 6931   3.357   2.679   1.665
 2301SOL    HW2 6932   3.509   2.688   1.605
 2302SOL     OW 6933   2.875   1.967   1.770
 2302SOL    HW1 6934   2.881   2.052   1.718
 2302SOL    HW2 6935   2.907   1.891   1.713
 2303SOL     OW 6936   2.366   1.912   1.740
 2303SOL    HW1 6937   2.324   1.855   1.670
 2303SOL    HW2 6938   2.300   1.981   1.772
 2304SOL     OW 6939   2.435   2.732   1.029
 2304SOL    HW1 6940   2.479   2.821   1.020
 2304SOL    HW2 6941   2.372   2.732   1.106
 2305SOL     OW 6942   3.222   2.724   1.045
 2305SOL    HW1 6943   3.147   2.724   0.979
 2305SOL    HW2 6944   3.259   2.632   1.054
 2306SOL     OW 6945   3.071   2.387   0.275
 2306SOL    HW1 6946   3.084   2.303   0.329
 2306SOL    HW2 6947   3.042   2.461   0.335
 2307SOL     OW 6948   2.169   2.075   1.231
 2307SOL    HW1 6949   2.146   2.112   1.321
 2307SOL    HW2 6950   2.139   1.980   1.225
 2308SOL     OW 6951   1.899   3.172   1.282
 2308SOL    HW1 6952   1.952   3.123   1.350
 2308SOL    HW2 6953   1.921   3.270   1.287
 2309SOL     OW 6954   2.594   2.496   1.064
 2309SOL    HW1 6955   2.653   2.470   0.988
 2309SOL    HW2 6956   2.566   2.592   1.053
 2310SOL     OW 6957   3.590   2.797   1.854
 2310SOL    HW1 6958   3.544   2.790   1.765
 2310SOL    HW2 6959   3.528   2.841   1.920
 2311SOL     OW 6960   2.169   1.925   0.618
 2311SOL    HW1 6961   2.158   2.019   0.651
 2311SOL    HW2 6962   2.164   1.862   0.695
 2312SOL     OW 6963   3.484   2.229   0.374
 2312SOL    HW1 6964   3.486   2.153   0.438
 2312SOL    HW2 6965   3.436   2.306   0.414
 2313SOL     OW 6966   2.885   2.628   0.966
 2313SOL    HW1 6967   2.900   2.649   1.062
 2313SOL    HW2 6968   2.855   2.533   0.957
 2314SOL     OW 6969   2.842   3.435   1.700
 2314SOL    HW1 6970   2.822   3.479   1.612
 2314SOL    HW2 6971   2.881   3.344   1.684
 2315SOL     OW 6972   3.721   3.380   1.605
 2315SOL    HW1 6973   3.735   3.407   1.510
 2315SOL    HW2 6974   3.804   3.402   1.658
 2316SOL     OW 6975   2.212   2.760   1.804
 2316SOL    HW1 6976   2.288   2.804   1.852
 2316SOL    HW2 6977   2.247   2.713   1.722
 2317SOL     OW 6978   3.402   2.136   0.125
 2317SOL    HW1 6979   3.341   2.061   0.148
 2317SOL    HW2 6980   3.424   2.188   0.208
 2318SOL     OW 6981   3.165   2.700   0.042
 2318SOL    HW1 6982   3.199   2.607   0.057
 2318SOL    HW2 6983   3.183   2.727  -0.053
 2319SOL     OW 6984   2.930   3.195   0.849
 2319SOL    HW1 6985   2.937   3.111   0.794
 2319SOL    HW2 6986   2.992   3.264   0.813
 2320SOL     OW 6987   2.181   2.672   0.949
 2320SOL    HW1 6988   2.274   2.708   0.954
 2320SOL    HW2 6989   2.175   2.587   1.001
 2321SOL     OW 6990   2.201   2.371   1.006
 2321SOL    HW1 6991   2.149   2.288   0.989
 2321SOL    HW2 6992   2.278   2.376   0.942
 2322SOL     OW 6993   3.000   2.242   1.678
 2322SOL    HW1 6994   2.955   2.305   1.742
 2322SOL    HW2 6995   3.093   2.273   1.661
 2323SOL     OW 6996   3.022   2.069   1.477
 2323SOL    HW1 6997   3.022   2.133   1.554
 2323SOL    HW2 6998   3.050   2.117   1.394
 2324SOL     OW 6999   1.950   3.663   0.927
 2324SOL    HW1 7000   1.908   3.577   0.900
 2324SOL    HW2 7001   2.044   3.666   0.893
 2325SOL     OW 7002   2.366   3.430   0.910
 2325SOL    HW1 7003   2.432   3.504   0.919
 2325SOL    HW2 7004   2.410   3.351   0.868
 2326SOL     OW 7005   2.864   2.658   1.238
 2326SOL    HW1 7006   2.905   2.626   1.324
 2326SOL    HW2 7007   2.768   2.631   1.235
 2327SOL     OW 7008   1.902   2.406   1.114
 2327SOL    HW1 7009   1.987   2.373   1.073
 2327SOL    HW2 7010   1.915   2.421   1.212
 2328SOL     OW 7011   2.051   2.382   1.722
 2328SOL    HW1 7012   2.110   2.342   1.652
 2328SOL    HW2 7013   1.993   2.453   1.681
 2329SOL     OW 7014   3.231   2.812   1.660
 2329SOL    HW1 7015   3.270   2.901   1.680
 2329SOL    HW2 7016   3.241   2.792   1.563
 2330SOL     OW 7017   2.677   2.434   0.325
 2330SOL    HW1 7018   2.684   2.345   0.279
 2330SOL    HW2 7019   2.583   2.468   0.317
 2331SOL     OW 7020   3.519   2.466   1.206
 2331SOL    HW1 7021   3.481   2.397   1.268
 2331SOL    HW2 7022   3.601   2.430   1.162
 2332SOL     OW 7023   2.114   3.426   1.744
 2332SOL    HW1 7024   2.084   3.483   1.820
 2332SOL    HW2 7025   2.107   3.329   1.770
 2333SOL     OW 7026   2.533   2.326   1.269
 2333SOL    HW1 7027   2.499   2.237   1.239
 2333SOL    HW2 7028   2.559   2.380   1.189
 2334SOL     OW 7029   2.792   3.540   1.465
 2334SOL    HW1 7030   2.768   3.522   1.370
 2334SOL    HW2 7031   2.822   3.634   1.475
 2335SOL     OW 7032   2.335   2.362   0.191
 2335SOL    HW1 7033   2.396   2.442   0.195
 2335SOL    HW2 7034   2.240   2.393   0.198
 2336SOL     OW 7035   2.021   2.999   1.466
 2336SOL    HW1 7036   2.043   2.938   1.542
 2336SOL    HW2 7037   2.031   2.950   1.380
 2337SOL     OW 7038   3.209   2.921   1.234
 2337SOL    HW1 7039   3.233   2.858   1.160
 2337SOL    HW2 7040   3.119   2.961   1.216
 2338SOL     OW 7041   3.164   2.717   0.309
 2338SOL    HW1 7042   3.078   2.686   0.351
 2338SOL    HW2 7043   3.160   2.703   0.210
 2339SOL     OW 7044   3.621   3.609   1.154
 2339SOL    HW1 7045   3.682   3.639   1.081
 2339SOL    HW2 7046   3.583   3.520   1.132
 2340SOL     OW 7047   3.114   3.593   1.128
 2340SOL    HW1 7048   3.198   3.598   1.074
 2340SOL    HW2 7049   3.091   3.497   1.146
 2341SOL     OW 7050   1.945   3.120   1.022
 2341SOL    HW1 7051   1.940   3.119   1.122
 2341SOL    HW2 7052   1.862   3.079   0.984
 2342SOL     OW 7053   2.550   3.524   1.716
 2342SOL    HW1 7054   2.494   3.605   1.725
 2342SOL    HW2 7055   2.602   3.528   1.630
 2343SOL     OW 7056   2.765   1.948   0.133
 2343SOL    HW1 7057   2.816   1.949   0.047
 2343SOL    HW2 7058   2.821   1.906   0.204
 2344SOL     OW 7059   3.588   1.997   0.523
 2344SOL    HW1 7060   3.661   1.980   0.456
 2344SOL    HW2 7061   3.557   1.910   0.561
 2345SOL     OW 7062   3.250   3.435   0.477
 2345SOL    HW1 7063   3.317   3.447   0.403
 2345SOL    HW2 7064   3.210   3.524   0.500
 2346SOL     OW 7065   1.992   3.656   1.851
 2346SOL    HW1 7066   1.951   3.582   1.904
 2346SOL    HW2 7067   2.056   3.707   1.909
 2347SOL     OW 7068   3.142   2.789   0.672
 2347SOL    HW1 7069   3.202   2.708   0.674
 2347SOL    HW2 7070   3.182   2.858   0.612
 2348SOL     OW 7071   2.692   3.135   1.422
 2348SOL    HW1 7072   2.687   3.168   1.517
 2348SOL    HW2 7073   2.606   3.154   1.376
 2349SOL     OW 7074   2.534   3.478   0.154
 2349SOL    HW1 7075   2.543   3.488   0.055
 2349SOL    HW2 7076   2.494   3.389   0.175
 2350SOL     OW 7077   3.512   3.582   1.394
 2350SOL    HW1 7078   3.565   3.592   1.310
 2350SOL    HW2 7079   3.485   3.672   1.428
 2351SOL     OW 7080   3.703   2.037   0.963
 2351SOL    HW1 7081   3.742   1.952   0.927
 2351SOL    HW2 7082   3.605   2.039   0.944
 2352SOL     OW 7083   2.125   2.188   0.720
 2352SOL    HW1 7084   2.046   2.239   0.686
 2352SOL    HW2 7085   2.116   2.173   0.818
 2353SOL     OW 7086   3.056   3.474   0.031
 2353SOL    HW1 7087   3.062   3.381   0.068
 2353SOL    HW2 7088   2.997   3.474  -0.049
 2354SOL     OW 7089   2.684   2.864   1.372
 2354SOL    HW1 7090   2.724   2.863   1.280
 2354SOL    HW2 7091   2.694   2.956   1.412
 2355SOL     OW 7092   2.778   2.772   0.291
 2355SOL    HW1 7093   2.841   2.810   0.223
 2355SOL    HW2 7094   2.818   2.689   0.330
 2356SOL     OW 7095   3.366   3.469   0.044
 2356SOL    HW1 7096   3.274   3.506   0.051
 2356SOL    HW2 7097   3.404   3.489  -0.046
 2357SOL     OW 7098   2.234   3.150   1.490
 2357SOL    HW1 7099   2.221   3.243   1.456
 2357SOL    HW2 7100   2.150   3.098   1.477
 2358SOL     OW 7101   3.476   3.154   1.289
 2358SOL    HW1 7102   3.536   3.157   1.369
 2358SOL    HW2 7103   3.401   3.218   1.302
 2359SOL     OW 7104   2.901   2.960   0.696
 2359SOL    HW1 7105   2.831   2.913   0.750
 2359SOL    HW2 7106   2.960   2.892   0.653
 2360SOL     OW 7107   2.876   2.098   0.971
 2360SOL    HW1 7108   2.868   2.062   0.878
 2360SOL    HW2 7109   2.874   2.022   1.036
 2361SOL     OW 7110   2.452   3.349   0.491
 2361SOL    HW1 7111   2.494   3.291   0.421
 2361SOL    HW2 7112   2.408   3.428   0.447
 2362SOL     OW 7113   3.571   2.247   1.381
 2362SOL    HW1 7114   3.644   2.316   1.385
 2362SOL    HW2 7115   3.599   2.172   1.322
 2363SOL     OW 7116   2.117   3.210   0.290
 2363SOL    HW1 7117   2.021   3.211   0.263
 2363SOL    HW2 7118   2.129   3.263   0.374
 2364SOL     OW 7119   1.967   2.875   1.726
 2364SOL    HW1 7120   1.890   2.842   1.780
 2364SOL    HW2 7121   2.052   2.845   1.768
 2365SOL     OW 7122   2.534   2.065   1.489
 2365SOL    HW1 7123   2.624   2.049   1.449
 2365SOL    HW2 7124   2.542   2.070   1.588
 2366SOL     OW 7125   3.302   2.718   1.398
 2366SOL    HW1 7126   3.245   2.770   1.335
 2366SOL    HW2 7127   3.398   2.730   1.374
 2367SOL     OW 7128   1.934   2.028   0.318
 2367SOL    HW1 7129   1.917   2.111   0.264
 2367SOL    HW2 7130   2.024   1.991   0.296
 2368SOL     OW 7131   3.045   3.197   0.119
 2368SOL    HW1 7132   2.946   3.186   0.121
 2368SOL    HW2 7133   3.079   3.212   0.212
 2369SOL     OW 7134   2.475   2.704   1.431
 2369SOL    HW1 7135   2.531   2.785   1.414
 2369SOL    HW2 7136   2.534   2.624   1.434
 2370SOL     OW 7137   3.355   3.629   0.959
 2370SOL    HW1 7138   3.388   3.693   0.890
 2370SOL    HW2 7139   3.421   3.623   1.034
 2371SOL     OW 7140   2.578   2.427   1.708
 2371SOL    HW1 7141   2.597   2.492   1.782
 2371SOL    HW2 7142   2.638   2.347   1.717
 2372SOL     OW 7143   3.312   3.082   1.633
 2372SOL    HW1 7144   3.303   3.072   1.732
 2372SOL    HW2 7145   3.408   3.075   1.607
 2373SOL     OW 7146   2.252   3.603   1.560
 2373SOL    HW1 7147   2.161   3.644   1.558
 2373SOL    HW2 7148   2.245   3.509   1.592
 2374SOL     OW 7149   3.536   2.745   1.254
 2374SOL    HW1 7150   3.509   2.656   1.217
 2374SOL    HW2 7151   3.537   2.813   1.181
 2375SOL     OW 7152   3.087   2.187   0.449
 2375SOL    HW1 7153   3.152   2.113   0.438
 2375SOL    HW2 7154   3.107   2.237   0.533
 2376SOL     OW 7155   2.456   2.607   0.652
 2376SOL    HW1 7156   2.506   2.692   0.633
 2376SOL    HW2 7157   2.368   2.609   0.604
 2377SOL     OW 7158   3.639   2.204   1.642
 2377SOL    HW1 7159   3.622   2.235   1.548
 2377SOL    HW2 7160   3.555   2.167   1.680
 2378SOL     OW 7161   3.592   2.796   1.517
 2378SOL    HW1 7162   3.630   2.887   1.532
 2378SOL    HW2 7163   3.584   2.779   1.418
 2379SOL     OW 7164   2.721   3.236   0.016
 2379SOL    HW1 7165   2.675   3.251   0.104
 2379SOL    HW2 7166   2.765   3.321  -0.014
 2380SOL     OW 7167   2.523   3.652   0.953
 2380SOL    HW1 7168   2.477   3.740   0.940
 2380SOL    HW2 7169   2.622   3.664   0.946
 2381SOL     OW 7170   2.721   2.818   0.861
 2381SOL    HW1 7171   2.775   2.749   0.909
 2381SOL    HW2 7172   2.689   2.887   0.927
 2382SOL     OW 7173   2.945   2.846   0.087
 2382SOL    HW1 7174   2.922   2.899   0.005
 2382SOL    HW2 7175   3.026   2.790   0.068
 2383SOL     OW 7176   3.723   3.431   0.851
 2383SOL    HW1 7177   3.652   3.419   0.781
 2383SOL    HW2 7178   3.724   3.352   0.911
 2384SOL     OW 7179   2.083   3.176   1.844
 2384SOL    HW1 7180   2.018   3.103   1.823
 2384SOL    HW2 7181   2.087   3.190   1.942
 2385SOL     OW 7182   1.941   3.102   0.653
 2385SOL    HW1 7183   1.940   3.055   0.741
 2385SOL    HW2 7184   2.023   3.074   0.602
 2386SOL     OW 7185   2.534   3.253   1.624
 2386SOL    HW1 7186   2.456   3.203   1.662
 2386SOL    HW2 7187   2.531   3.348   1.655
 2387SOL     OW 7188   3.686   2.054   1.227
 2387SOL    HW1 7189   3.682   1.964   1.271
 2387SOL    HW2 7190   3.689   2.043   1.128
 2388SOL     OW 7191   2.290   2.286   0.520
 2388SOL    HW1 7192   2.320   2.214   0.458
 2388SOL    HW2 7193   2.251   2.246   0.603
 2389SOL     OW 7194   3.567   3.349   1.104
 2389SOL    HW1 7195   3.474   3.324   1.077
 2389SOL    HW2 7196   3.593   3.299   1.186
 2390SOL     OW 7197   2.179   2.409   1.280
 2390SOL    HW1 7198   2.217   2.350   1.352
 2390SOL    HW2 7199   2.219   2.383   1.192
 2391SOL     OW 7200   2.674   3.448   0.687
 2391SOL    HW1 7201   2.706   3.458   0.593
 2391SOL    HW2 7202   2.595   3.386   0.689
 2392SOL     OW 7203   3.286   2.076   1.112
 2392SOL    HW1 7204   3.338   2.011   1.167
 2392SOL    HW2 7205   3.237   2.139   1.173
 2393SOL     OW 7206   2.863   1.896   1.154
 2393SOL    HW1 7207   2.800   1.824   1.123
 2393SOL    HW2 7208   2.956   1.860   1.154
 2394SOL     OW 7209   2.632   3.192   0.301
 2394SOL    HW1 7210   2.586   3.105   0.318
 2394SOL    HW2 7211   2.723   3.189   0.342
 2395SOL     OW 7212   2.480   3.429   1.284
 2395SOL    HW1 7213   2.475   3.511   1.341
 2395SOL    HW2 7214   2.569   3.426   1.239
 2396SOL     OW 7215   3.214   1.914   0.168
 2396SOL    HW1 7216   3.249   1.873   0.084
 2396SOL    HW2 7217   3.124   1.876   0.188
 2397SOL     OW 7218   3.162   2.315   0.691
 2397SOL    HW1 7219   3.103   2.395   0.695
 2397SOL    HW2 7220   3.177   2.280   0.784
 2398SOL     OW 7221   3.455   2.083   0.882
 2398SOL    HW1 7222   3.371   2.082   0.936
 2398SOL    HW2 7223   3.457   2.166   0.826
 2399SOL     OW 7224   1.901   2.939   0.300
 2399SOL    HW1 7225   2.000   2.928   0.291
 2399SOL    HW2 7226   1.861   2.853   0.332
 2400SOL     OW 7227   2.737   3.508   0.337
 2400SOL    HW1 7228   2.660   3.473   0.283
 2400SOL    HW2 7229   2.705   3.579   0.399
 2401SOL     OW 7230   2.087   2.137   2.858
 2401SOL    HW1 7231   2.122   2.120   2.950
 2401SOL    HW2 7232   1.999   2.092   2.846
 2402SOL     OW 7233   1.881   2.230   2.509
 2402SOL    HW1 7234   1.799   2.273   2.548
 2402SOL    HW2 7235   1.853   2.157   2.446
 2403SOL     OW 7236   2.431   3.137   3.027
 2403SOL    HW1 7237   2.338   3.130   2.990
 2403SOL    HW2 7238   2.442   3.226   3.071
 2404SOL     OW 7239   3.417   3.373   2.565
 2404SOL    HW1 7240   3.360   3.357   2.646
 2404SOL    HW2 7241   3.358   3.383   2.485
 2405SOL     OW 7242   2.997   2.565   2.579
 2405SOL    HW1 7243   3.054   2.643   2.554
 2405SOL    HW2 7244   2.937   2.591   2.655
 2406SOL     OW 7245   3.617   2.469   2.093
 2406SOL    HW1 7246   3.605   2.456   1.994
 2406SOL    HW2 7247   3.587   2.388   2.142
 2407SOL     OW 7248   2.630   3.006   2.885
 2407SOL    HW1 7249   2.552   3.023   2.945
 2407SOL    HW2 7250   2.664   3.093   2.849
 2408SOL     OW 7251   2.712   2.660   3.685
 2408SOL    HW1 7252   2.708   2.736   3.750
 2408SOL    HW2 7253   2.734   2.696   3.594
 2409SOL     OW 7254   2.547   2.874   2.527
 2409SOL    HW1 7255   2.616   2.858   2.597
 2409SOL    HW2 7256   2.474   2.931   2.565
 2410SOL     OW 7257   2.548   3.023   3.665
 2410SOL    HW1 7258   2.608   3.102   3.679
 2410SOL    HW2 7259   2.462   3.054   3.624
 2411SOL     OW 7260   2.197   3.297   2.923
 2411SOL    HW1 7261   2.119   3.266   2.870
 2411SOL    HW2 7262   2.255   3.355   2.866
 2412SOL     OW 7263   3.322   3.367   3.201
 2412SOL    HW1 7264   3.346   3.461   3.227
 2412SOL    HW2 7265   3.306   3.313   3.283
 2413SOL     OW 7266   2.300   2.254   3.361
 2413SOL    HW1 7267   2.382   2.198   3.370
 2413SOL    HW2 7268   2.219   2.196   3.365
 2414SOL     OW 7269   3.465   2.309   2.599
 2414SOL    HW1 7270   3.391   2.355   2.549
 2414SOL    HW2 7271   3.516   2.377   2.652
 2415SOL     OW 7272   2.093   3.575   2.345
 2415SOL    HW1 7273   2.127   3.652   2.399
 2415SOL    HW2 7274   2.137   3.575   2.255
 2416SOL     OW 7275   2.989   3.203   3.552
 2416SOL    HW1 7276   3.036   3.203   3.640
 2416SOL    HW2 7277   2.941   3.116   3.541
 2417SOL     OW 7278   2.092   3.296   2.400
 2417SOL    HW1 7279   2.066   3.392   2.400
 2417SOL    HW2 7280   2.021   3.242   2.445
 2418SOL     OW 7281   2.102   2.953   2.748
 2418SOL    HW1 7282   2.116   2.869   2.800
 2418SOL    HW2 7283   2.047   3.017   2.803
 2419SOL     OW 7284   2.482   3.648   3.301
 2419SOL    HW1 7285   2.390   3.631   3.336
 2419SOL    HW2 7286   2.510   3.740   3.327
 2420SOL     OW 7287   2.468   2.826   1.985
 2420SOL    HW1 7288   2.475   2.910   1.931
 2420SOL    HW2 7289   2.514   2.839   2.073
 2421SOL     OW 7290   3.456   1.976   3.342
 2421SOL    HW1 7291   3.438   2.043   3.270
 2421SOL    HW2 7292   3.453   2.022   3.431
 2422SOL     OW 7293   1.984   2.505   2.425
 2422SOL    HW1 7294   1.939   2.417   2.442
 2422SOL    HW2 7295   1.983   2.559   2.509
 2423SOL     OW 7296   3.704   3.629   2.221
 2423SOL    HW1 7297   3.758   3.600   2.301
 2423SOL    HW2 7298   3.734   3.719   2.192
 2424SOL     OW 7299   1.889   3.458   1.979
 2424SOL    HW1 7300   1.870   3.362   2.000
 2424SOL    HW2 7301   1.856   3.516   2.054
 2425SOL     OW 7302   3.551   2.784   2.474
 2425SOL    HW1 7303   3.646   2.755   2.482
 2425SOL    HW2 7304   3.543   2.849   2.399
 2426SOL     OW 7305   3.503   2.970   2.294
 2426SOL    HW1 7306   3.589   2.972   2.242
 2426SOL    HW2 7307   3.517   3.017   2.382
 2427SOL     OW 7308   1.975   2.599   3.459
 2427SOL    HW1 7309   2.063   2.586   3.504
 2427SOL    HW2 7310   1.962   2.696   3.437
 2428SOL     OW 7311   2.475   3.227   2.588
 2428SOL    HW1 7312   2.426   3.140   2.597
 2428SOL    HW2 7313   2.452   3.270   2.501
 2429SOL     OW 7314   3.155   3.090   3.285
 2429SOL    HW1 7315   3.192   3.017   3.227
 2429SOL    HW2 7316   3.207   3.095   3.370
 2430SOL     OW 7317   2.671   1.866   2.364
 2430SOL    HW1 7318   2.711   1.957   2.355
 2430SOL    HW2 7319   2.571   1.874   2.370
 2431SOL     OW 7320   2.059   2.838   3.126
 2431SOL    HW1 7321   2.148   2.793   3.112
 2431SOL    HW2 7322   1.986   2.773   3.107
 2432SOL     OW 7323   3.387   2.861   2.052
 2432SOL    HW1 7324   3.324   2.785   2.065
 2432SOL    HW2 7325   3.435   2.879   2.138
 2433SOL     OW 7326   3.049   3.654   3.478
 2433SOL    HW1 7327   3.073   3.714   3.402
 2433SOL    HW2 7328   3.056   3.559   3.448
 2434SOL     OW 7329   2.179   2.113   3.663
 2434SOL    HW1 7330   2.250   2.184   3.669
 2434SOL    HW2 7331   2.091   2.152   3.691
 2435SOL     OW 7332   3.328   3.279   2.815
 2435SOL    HW1 7333   3.269   3.285   2.895
 2435SOL    HW2 7334   3.313   3.191   2.769
 2436SOL     OW 7335   3.529   3.576   2.434
 2436SOL    HW1 7336   3.488   3.553   2.346
 2436SOL    HW2 7337   3.511   3.502   2.499
 2437SOL     OW 7338   2.460   2.591   2.132
 2437SOL    HW1 7339   2.484   2.660   2.064
 2437SOL    HW2 7340   2.382   2.624   2.186
 2438SOL     OW 7341   3.143   2.207   2.806
 2438SOL    HW1 7342   3.057   2.157   2.793
 2438SOL    HW2 7343   3.205   2.153   2.862
 2439SOL     OW 7344   3.438   3.524   2.169
 2439SOL    HW1 7345   3.527   3.570   2.172
 2439SOL    HW2 7346   3.417   3.500   2.074
 2440SOL     OW 7347   2.669   2.467   3.327
 2440SOL    HW1 7348   2.622   2.464   3.416
 2440SOL    HW2 7349   2.618   2.412   3.261
 2441SOL     OW 7350   3.256   2.331   3.536
 2441SOL    HW1 7351   3.236   2.374   3.624
 2441SOL    HW2 7352   3.334   2.269   3.545
 2442SOL     OW 7353   2.835   2.752   3.434
 2442SOL    HW1 7354   2.881   2.668   3.405
 2442SOL    HW2 7355   2.779   2.786   3.359
 2443SOL     OW 7356   2.853   2.272   3.104
 2443SOL    HW1 7357   2.776   2.306   3.158
 2443SOL    HW2 7358   2.819   2.221   3.025
 2444SOL     OW 7359   2.903   2.563   2.291
 2444SOL    HW1 7360   2.929   2.559   2.387
 2444SOL    HW2 7361   2.818   2.512   2.277
 2445SOL     OW 7362   1.938   2.673   2.651
 2445SOL    HW1 7363   2.037   2.661   2.660
 2445SOL    HW2 7364   1.914   2.768   2.672
 2446SOL     OW 7365   1.992   3.683   3.433
 2446SOL    HW1 7366   1.982   3.668   3.532
 2446SOL    HW2 7367   1.906   3.719   3.397
 2447SOL     OW 7368   2.727   2.210   2.057
 2447SOL    HW1 7369   2.786   2.273   2.008
 2447SOL    HW2 7370   2.746   2.116   2.028
 2448SOL     OW 7371   3.581   2.447   3.693
 2448SOL    HW1 7372   3.555   2.536   3.657
 2448SOL    HW2 7373   3.579   2.379   3.620
 2449SOL     OW 7374   3.224   3.006   2.407
 2449SOL    HW1 7375   3.307   2.977   2.359
 2449SOL    HW2 7376   3.175   3.073   2.351
 2450SOL     OW 7377   2.412   2.058   2.747
 2450SOL    HW1 7378   2.407   2.053   2.847
 2450SOL    HW2 7379   2.414   2.154   2.718
 2451SOL     OW 7380   2.870   3.318   2.339
 2451SOL    HW1 7381   2.824   3.390   2.287
 2451SOL    HW2 7382   2.866   3.338   2.437
 2452SOL     OW 7383   2.213   3.663   2.715
 2452SOL    HW1 7384   2.263   3.577   2.721
 2452SOL    HW2 7385   2.278   3.740   2.712
 2453SOL     OW 7386   3.657   2.928   2.735
 2453SOL    HW1 7387   3.595   2.913   2.659
 2453SOL    HW2 7388   3.605   2.939   2.820
 2454SOL     OW 7389   3.089   3.412   3.368
 2454SOL    HW1 7390   3.095   3.335   3.432
 2454SOL    HW2 7391   3.037   3.386   3.288
 2455SOL     OW 7392   3.320   2.597   2.590
 2455SOL    HW1 7393   3.315   2.532   2.665
 2455SOL    HW2 7394   3.400   2.656   2.603
 2456SOL     OW 7395   2.323   3.128   3.589
 2456SOL    HW1 7396   2.273   3.129   3.503
 2456SOL    HW2 7397   2.260   3.110   3.665
 2457SOL     OW 7398   2.973   3.638   2.099
 2457SOL    HW1 7399   2.913   3.576   2.149
 2457SOL    HW2 7400   3.004   3.594   2.014
 2458SOL     OW 7401   2.064   2.147   3.360
 2458SOL    HW1 7402   1.984   2.207   3.347
 2458SOL    HW2 7403   2.054   2.098   3.446
 2459SOL     OW 7404   3.494   3.239   1.943
 2459SOL    HW1 7405   3.462   3.333   1.933
 2459SOL    HW2 7406   3.418   3.176   1.931
 2460SOL     OW 7407   2.326   3.605   2.185
 2460SOL    HW1 7408   2.359   3.644   2.271
 2460SOL    HW2 7409   2.402   3.598   2.120
 2461SOL     OW 7410   3.262   1.969   2.288
 2461SOL    HW1 7411   3.238   1.932   2.198
 2461SOL    HW2 7412   3.361   1.985   2.292
 2462SOL     OW 7413   2.111   3.647   3.103
 2462SOL    HW1 7414   2.168   3.582   3.153
 2462SOL    HW2 7415   2.095   3.614   3.010
 2463SOL     OW 7416   2.802   3.560   2.766
 2463SOL    HW1 7417   2.882   3.503   2.787
 2463SOL    HW2 7418   2.753   3.520   2.689
 2464SOL     OW 7419   3.409   2.084   3.591
 2464SOL    HW1 7420   3.404   2.121   3.683
 2464SOL    HW2 7421   3.337   2.015   3.579
 2465SOL     OW 7422   2.476   1.984   1.979
 2465SOL    HW1 7423   2.574   1.962   1.986
 2465SOL    HW2 7424   2.445   1.967   1.886
 2466SOL     OW 7425   2.643   2.126   3.611
 2466SOL    HW1 7426   2.710   2.065   3.654
 2466SOL    HW2 7427   2.570   2.145   3.676
 2467SOL     OW 7428   2.750   3.376   3.057
 2467SOL    HW1 7429   2.727   3.351   2.963
 2467SOL    HW2 7430   2.811   3.307   3.096
 2468SOL     OW 7431   3.213   2.452   3.295
 2468SOL    HW1 7432   3.241   2.409   3.380
 2468SOL    HW2 7433   3.238   2.548   3.296
 2469SOL     OW 7434   2.665   3.264   2.786
 2469SOL    HW1 7435   2.755   3.278   2.744
 2469SOL    HW2 7436   2.594   3.266   2.715
 2470SOL     OW 7437   2.401   1.926   2.374
 2470SOL    HW1 7438   2.320   1.927   2.432
 2470SOL    HW2 7439   2.404   2.009   2.319
 2471SOL     OW 7440   3.296   3.050   1.903
 2471SOL    HW1 7441   3.328   2.974   1.960
 2471SOL    HW2 7442   3.204   3.077   1.933
 2472SOL     OW 7443   2.159   1.897   2.033
 2472SOL    HW1 7444   2.208   1.981   2.012
 2472SOL    HW2 7445   2.221   1.832   2.078
 2473SOL     OW 7446   2.797   2.098   2.342
 2473SOL    HW1 7447   2.749   2.139   2.264
 2473SOL    HW2 7448   2.896   2.096   2.323
 2474SOL     OW 7449   2.938   2.545   3.326
 2474SOL    HW1 7450   2.858   2.484   3.329
 2474SOL    HW2 7451   3.019   2.492   3.302
 2475SOL     OW 7452   3.089   3.432   2.655
 2475SOL    HW1 7453   3.110   3.506   2.590
 2475SOL    HW2 7454   3.157   3.432   2.728
 2476SOL     OW 7455   2.321   3.014   2.603
 2476SOL    HW1 7456   2.250   2.987   2.668
 2476SOL    HW2 7457   2.295   2.986   2.510
 2477SOL     OW 7458   3.133   3.659   2.453
 2477SOL    HW1 7459   3.177   3.723   2.389
 2477SOL    HW2 7460   3.083   3.711   2.523
 2478SOL     OW 7461   2.894   2.411   1.878
 2478SOL    HW1 7462   2.853   2.493   1.839
 2478SOL    HW2 7463   2.958   2.437   1.951
 2479SOL     OW 7464   1.940   2.418   3.248
 2479SOL    HW1 7465   2.032   2.417   3.207
 2479SOL    HW2 7466   1.934   2.492   3.315
 2480SOL     OW 7467   2.423   2.084   3.009
 2480SOL    HW1 7468   2.461   2.000   3.046
 2480SOL    HW2 7469   2.335   2.103   3.053
 2481SOL     OW 7470   2.879   1.901   2.615
 2481SOL    HW1 7471   2.807   1.906   2.546
 2481SOL    HW2 7472   2.855   1.832   2.684
 2482SOL     OW 7473   3.291   3.035   2.729
 2482SOL    HW1 7474   3.236   2.951   2.722
 2482SOL    HW2 7475   3.317   3.064   2.637
 2483SOL     OW 7476   3.328   2.452   2.854
 2483SOL    HW1 7477   3.298   2.357   2.861
 2483SOL    HW2 7478   3.401   2.468   2.920
 2484SOL     OW 7479   3.719   2.695   2.239
 2484SOL    HW1 7480   3.761   2.631   2.303
 2484SOL    HW2 7481   3.681   2.644   2.161
 2485SOL     OW 7482   2.350   3.247   2.036
 2485SOL    HW1 7483   2.263   3.232   2.083
 2485SOL    HW2 7484   2.333   3.273   1.941
 2486SOL     OW 7485   3.526   3.142   2.519
 2486SOL    HW1 7486   3.625   3.150   2.533
 2486SOL    HW2 7487   3.481   3.226   2.550
 2487SOL     OW 7488   3.252   2.437   1.940
 2487SOL    HW1 7489   3.198   2.416   2.021
 2487SOL    HW2 7490   3.343   2.396   1.949
 2488SOL     OW 7491   2.389   2.118   2.190
 2488SOL    HW1 7492   2.416   2.059   2.115
 2488SOL    HW2 7493   2.389   2.213   2.159
 2489SOL     OW 7494   3.616   3.085   3.450
 2489SOL    HW1 7495   3.707   3.046   3.437
 2489SOL    HW2 7496   3.624   3.181   3.474
 2490SOL     OW 7497   2.926   3.209   3.202
 2490SOL    HW1 7498   2.846   3.186   3.257
 2490SOL    HW2 7499   3.009   3.183   3.251
 2491SOL     OW 7500   3.454   3.491   3.487
 2491SOL    HW1 7501   3.481   3.525   3.397
 2491SOL    HW2 7502   3.533   3.453   3.533
 2492SOL     OW 7503   2.973   3.057   2.962
 2492SOL    HW1 7504   2.933   3.101   3.043
 2492SOL    HW2 7505   2.932   3.094   2.879
 2493SOL     OW 7506   3.500   2.961   2.941
 2493SOL    HW1 7507   3.505   3.042   3.000
 2493SOL    HW2 7508   3.414   2.963   2.890
 2494SOL     OW 7509   2.777   1.951   3.264
 2494SOL    HW1 7510   2.802   1.931   3.169
 2494SOL    HW2 7511   2.849   2.007   3.306
 2495SOL     OW 7512   2.842   2.978   3.581
 2495SOL    HW1 7513   2.743   2.984   3.591
 2495SOL    HW2 7514   2.865   2.898   3.525
 2496SOL     OW 7515   2.567   2.912   2.230
 2496SOL    HW1 7516   2.553   2.919   2.329
 2496SOL    HW2 7517   2.651   2.861   2.212
 2497SOL     OW 7518   2.272   2.675   3.113
 2497SOL    HW1 7519   2.358   2.687   3.163
 2497SOL    HW2 7520   2.230   2.588   3.140
 2498SOL     OW 7521   3.136   2.248   3.124
 2498SOL    HW1 7522   3.157   2.322   3.188
 2498SOL    HW2 7523   3.047   2.265   3.081
 2499SOL     OW 7524   1.926   3.426   3.193
 2499SOL    HW1 7525   1.880   3.508   3.159
 2499SOL    HW2 7526   2.024   3.445   3.202
 2500SOL     OW 7527   3.114   3.210   2.250
 2500SOL    HW1 7528   3.164   3.287   2.290
 2500SOL    HW2 7529   3.019   3.212   2.282
 2501SOL     OW 7530   3.134   3.307   3.004
 2501SOL    HW1 7531   3.181   3.320   3.091
 2501SOL    HW2 7532   3.068   3.233   3.013
 2502SOL     OW 7533   3.444   2.501   2.334
 2502SOL    HW1 7534   3.413   2.562   2.407
 2502SOL    HW2 7535   3.494   2.553   2.265
 2503SOL     OW 7536   2.216   3.372   3.191
 2503SOL    HW1 7537   2.195   3.328   3.104
 2503SOL    HW2 7538   2.313   3.398   3.194
 2504SOL     OW 7539   2.264   2.613   3.460
 2504SOL    HW1 7540   2.332   2.668   3.413
 2504SOL    HW2 7541   2.304   2.525   3.487
 2505SOL     OW 7542   3.449   2.641   3.532
 2505SOL    HW1 7543   3.357   2.679   3.527
 2505SOL    HW2 7544   3.509   2.688   3.467
 2506SOL     OW 7545   2.875   1.967   3.632
 2506SOL    HW1 7546   2.881   2.052   3.580
 2506SOL    HW2 7547   2.907   1.891   3.575
 2507SOL     OW 7548   2.366   1.912   3.602
 2507SOL    HW1 7549   2.324   1.855   3.532
 2507SOL    HW2 7550   2.300   1.981   3.634
 2508SOL     OW 7551   2.435   2.732   2.891
 2508SOL    HW1 7552   2.479   2.821   2.882
 2508SOL    HW2 7553   2.372   2.732   2.968
 2509SOL     OW 7554   3.222   2.724   2.907
 2509SOL    HW1 7555   3.147   2.724   2.841
 2509SOL    HW2 7556   3.259   2.632   2.916
 2510SOL     OW 7557   3.071   2.387   2.137
 2510SOL    HW1 7558   3.084   2.303   2.191
 2510SOL    HW2 7559   3.042   2.461   2.197
 2511SOL     OW 7560   2.169   2.075   3.093
 2511SOL    HW1 7561   2.146   2.112   3.183
 2511SOL    HW2 7562   2.139   1.980   3.087
 2512SOL     OW 7563   1.899   3.172   3.144
 2512SOL    HW1 7564   1.952   3.123   3.212
 2512SOL    HW2 7565   1.921   3.270   3.149
 2513SOL     OW 7566   3.590   2.797   3.716
 2513SOL    HW1 7567   3.544   2.790   3.627
 2513SOL    HW2 7568   3.528   2.841   3.782
 2514SOL     OW 7569   2.169   1.925   2.480
 2514SOL    HW1 7570   2.158   2.019   2.513
 2514SOL    HW2 7571   2.164   1.862   2.557
 2515SOL     OW 7572   3.484   2.229   2.236
 2515SOL    HW1 7573   3.486   2.153   2.300
 2515SOL    HW2 7574   3.436   2.306   2.276
 2516SOL     OW 7575   2.842   3.435   3.562
 2516SOL    HW1 7576   2.822   3.479   3.474
 2516SOL    HW2 7577   2.881   3.344   3.546
 2517SOL     OW 7578   3.721   3.380   3.467
 2517SOL    HW1 7579   3.735   3.407   3.372
 2517SOL    HW2 7580   3.804   3.402   3.520
 2518SOL     OW 7581   2.212   2.760   3.666
 2518SOL    HW1 7582   2.288   2.804   3.714
 2518SOL    HW2 7583   2.247   2.713   3.584
 2519SOL     OW 7584   3.402   2.136   1.987
 2519SOL    HW1 7585   3.341   2.061   2.010
 2519SOL    HW2 7586   3.424   2.188   2.070
 2520SOL     OW 7587   3.165   2.700   1.904
 2520SOL    HW1 7588   3.199   2.607   1.919
 2520SOL    HW2 7589   3.183   2.727   1.809
 2521SOL     OW 7590   2.930   3.195   2.711
 2521SOL    HW1 7591   2.937   3.111   2.656
 2521SOL    HW2 7592   2.992   3.264   2.675
 2522SOL     OW 7593   2.181   2.672   2.811
 2522SOL    HW1 7594   2.274   2.708   2.816
 2522SOL    HW2 7595   2.175   2.587   2.863
 2523SOL     OW 7596   2.201   2.371   2.868
 2523SOL    HW1 7597   2.149   2.288   2.851
 2523SOL    HW2 7598   2.278   2.376   2.804
 2524SOL     OW 7599   3.000   2.242   3.540
 2524SOL    HW1 7600   2.955   2.305   3.604
 2524SOL    HW2 7601   3.093   2.273   3.523
 2525SOL     OW 7602   3.022   2.069   3.339
 2525SOL    HW1 7603   3.022   2.133   3.416
 2525SOL    HW2 7604   3.050   2.117   3.256
 2526SOL     OW 7605   1.870   3.188   2.062
 2526SOL    HW1 7606   1.777   3.209   2.031
 2526SOL    HW2 7607   1.880   3.089   2.075
 2527SOL     OW 7608   1.950   3.663   2.789
 2527SOL    HW1 7609   1.908   3.577   2.762
 2527SOL    HW2 7610   2.044   3.666   2.755
 2528SOL     OW 7611   2.366   3.430   2.772
 2528SOL    HW1 7612   2.432   3.504   2.781
 2528SOL    HW2 7613   2.410   3.351   2.730
 2529SOL     OW 7614   2.864   2.658   3.100
 2529SOL    HW1 7615   2.905   2.626   3.186
 2529SOL    HW2 7616   2.768   2.631   3.097
 2530SOL     OW 7617   1.902   2.406   2.976
 2530SOL    HW1 7618   1.987   2.373   2.935
 2530SOL    HW2 7619   1.915   2.421   3.074
 2531SOL     OW 7620   2.051   2.382   3.584
 2531SOL    HW1 7621   2.110   2.342   3.514
 2531SOL    HW2 7622   1.993   2.453   3.543
 2532SOL     OW 7623   3.231   2.812   3.522
 2532SOL    HW1 7624   3.270   2.901   3.542
 2532SOL    HW2 7625   3.241   2.792   3.425
 2533SOL     OW 7626   2.677   2.434   2.187
 2533SOL    HW1 7627   2.684   2.345   2.141
 2533SOL    HW2 7628   2.583   2.468   2.179
 2534SOL     OW 7629   3.519   2.466   3.068
 2534SOL    HW1 7630   3.481   2.397   3.130
 2534SOL    HW2 7631   3.601   2.430   3.024
 2535SOL     OW 7632   2.114   3.426   3.606
 2535SOL    HW1 7633   2.084   3.483   3.682
 2535SOL    HW2 7634   2.107   3.329   3.632
 2536SOL     OW 7635   2.533   2.326   3.131
 2536SOL    HW1 7636   2.499   2.237   3.101
 2536SOL    HW2 7637   2.559   2.380   3.051
 2537SOL     OW 7638   2.792   3.540   3.327
 2537SOL    HW1 7639   2.768   3.522   3.232
 2537SOL    HW2 7640   2.822   3.634   3.337
 2538SOL     OW 7641   2.335   2.362   2.053
 2538SOL    HW1 7642   2.396   2.442   2.057
 2538SOL    HW2 7643   2.240   2.393   2.060
 2539SOL     OW 7644   2.021   2.999   3.328
 2539SOL    HW1 7645   2.043   2.938   3.404
 2539SOL    HW2 7646   2.031   2.950   3.242
 2540SOL     OW 7647   3.209   2.921   3.096
 2540SOL    HW1 7648   3.233   2.858   3.022
 2540SOL    HW2 7649   3.119   2.961   3.078
 2541SOL     OW 7650   3.164   2.717   2.171
 2541SOL    HW1 7651   3.078   2.686   2.213
 2541SOL    HW2 7652   3.160   2.703   2.072
 2542SOL     OW 7653   3.621   3.609   3.016
 2542SOL    HW1 7654   3.682   3.639   2.943
 2542SOL    HW2 7655   3.583   3.520   2.994
 2543SOL     OW 7656   3.114   3.593   2.990
 2543SOL    HW1 7657   3.198   3.598   2.936
 2543SOL    HW2 7658   3.091   3.497   3.008
 2544SOL     OW 7659   1.945   3.120   2.884
 2544SOL    HW1 7660   1.940   3.119   2.984
 2544SOL    HW2 7661   1.862   3.079   2.846
 2545SOL     OW 7662   2.550   3.524   3.578
 2545SOL    HW1 7663   2.494   3.605   3.587
 2545SOL    HW2 7664   2.602   3.528   3.492
 2546SOL     OW 7665   3.588   1.997   2.385
 2546SOL    HW1 7666   3.661   1.980   2.318
 2546SOL    HW2 7667   3.557   1.910   2.423
 2547SOL     OW 7668   3.250   3.435   2.339
 2547SOL    HW1 7669   3.317   3.447   2.265
 2547SOL    HW2 7670   3.210   3.524   2.362
 2548SOL     OW 7671   1.992   3.656   3.713
 2548SOL    HW1 7672   1.951   3.582   3.766
 2548SOL    HW2 7673   2.056   3.707   3.771
 2549SOL     OW 7674   3.142   2.789   2.534
 2549SOL    HW1 7675   3.202   2.708   2.536
 2549SOL    HW2 7676   3.182   2.858   2.474
 2550SOL     OW 7677   2.692   3.135   3.284
 2550SOL    HW1 7678   2.687   3.168   3.379
 2550SOL    HW2 7679   2.606   3.154   3.238
 2551SOL     OW 7680   2.534   3.478   2.016
 2551SOL    HW1 7681   2.543   3.488   1.917
 2551SOL    HW2 7682   2.494   3.389   2.037
 2552SOL     OW 7683   3.512   3.582   3.256
 2552SOL    HW1 7684   3.565   3.592   3.172
 2552SOL    HW2 7685   3.485   3.672   3.290
 2553SOL     OW 7686   3.703   2.037   2.825
 2553SOL    HW1 7687   3.742   1.952   2.789
 2553SOL    HW2 7688   3.605   2.039   2.806
 2554SOL     OW 7689   2.125   2.188   2.582
 2554SOL    HW1 7690   2.046   2.239   2.548
 2554SOL    HW2 7691   2.116   2.173   2.680
 2555SOL     OW 7692   3.056   3.474   1.893
 2555SOL    HW1 7693   3.062   3.381   1.930
 2555SOL    HW2 7694   2.997   3.474   1.813
 2556SOL     OW 7695   2.684   2.864   3.234
 2556SOL    HW1 7696   2.724   2.863   3.142
 2556SOL    HW2 7697   2.694   2.956   3.274
 2557SOL     OW 7698   2.778   2.772   2.153
 2557SOL    HW1 7699   2.841   2.810   2.085
 2557SOL    HW2 7700   2.818   2.689   2.192
 2558SOL     OW 7701   3.366   3.469   1.906
 2558SOL    HW1 7702   3.274   3.506   1.913
 2558SOL    HW2 7703   3.404   3.489   1.816
 2559SOL     OW 7704   2.234   3.150   3.352
 2559SOL    HW1 7705   2.221   3.243   3.318
 2559SOL    HW2 7706   2.150   3.098   3.339
 2560SOL     OW 7707   3.476   3.154   3.151
 2560SOL    HW1 7708   3.536   3.157   3.231
 2560SOL    HW2 7709   3.401   3.218   3.164
 2561SOL     OW 7710   2.901   2.960   2.558
 2561SOL    HW1 7711   2.831   2.913   2.612
 2561SOL    HW2 7712   2.960   2.892   2.515
 2562SOL     OW 7713   2.876   2.098   2.833
 2562SOL    HW1 7714   2.868   2.062   2.740
 2562SOL    HW2 7715   2.874   2.022   2.898
 2563SOL     OW 7716   2.452   3.349   2.353
 2563SOL    HW1 7717   2.494   3.291   2.283
 2563SOL    HW2 7718   2.408   3.428   2.309
 2564SOL     OW 7719   3.571   2.247   3.243
 2564SOL    HW1 7720   3.644   2.316   3.247
 2564SOL    HW2 7721   3.599   2.172   3.184
 2565SOL     OW 7722   2.117   3.210   2.152
 2565SOL    HW1 7723   2.021   3.211   2.125
 2565SOL    HW2 7724   2.129   3.263   2.236
 2566SOL     OW 7725   1.967   2.875   3.588
 2566SOL    HW1 7726   1.890   2.842   3.642
 2566SOL    HW2 7727   2.052   2.845   3.630
 2567SOL     OW 7728   2.534   2.065   3.351
 2567SOL    HW1 7729   2.624   2.049   3.311
 2567SOL    HW2 7730   2.542   2.070   3.450
 2568SOL     OW 7731   1.937   2.207   1.895
 2568SOL    HW1 7732   1.845   2.179   1.866
 2568SOL    HW2 7733   1.968   2.284   1.839
 2569SOL     OW 7734   3.302   2.718   3.260
 2569SOL    HW1 7735   3.245   2.770   3.197
 2569SOL    HW2 7736   3.398   2.730   3.236
 2570SOL     OW 7737   1.934   2.028   2.180
 2570SOL    HW1 7738   1.917   2.111   2.126
 2570SOL    HW2 7739   2.024   1.991   2.158
 2571SOL     OW 7740   3.045   3.197   1.981
 2571SOL    HW1 7741   2.946   3.186   1.983
 2571SOL    HW2 7742   3.079   3.212   2.074
 2572SOL     OW 7743   2.475   2.704   3.293
 2572SOL    HW1 7744   2.531   2.785   3.276
 2572SOL    HW2 7745   2.534   2.624   3.296
 2573SOL     OW 7746   3.355   3.629   2.821
 2573SOL    HW1 7747   3.388   3.693   2.752
 2573SOL    HW2 7748   3.421   3.623   2.896
 2574SOL     OW 7749   2.578   2.427   3.570
 2574SOL    HW1 7750   2.597   2.492   3.644
 2574SOL    HW2 7751   2.638   2.347   3.579
 2575SOL     OW 7752   3.312   3.082   3.495
 2575SOL    HW1 7753   3.303   3.072   3.594
 2575SOL    HW2 7754   3.408   3.075   3.469
 2576SOL     OW 7755   2.252   3.603   3.422
 2576SOL    HW1 7756   2.161   3.644   3.420
 2576SOL    HW2 7757   2.245   3.509   3.454
 2577SOL     OW 7758   3.536   2.745   3.116
 2577SOL    HW1 7759   3.509   2.656   3.079
 2577SOL    HW2 7760   3.537   2.813   3.043
 2578SOL     OW 7761   3.087   2.187   2.311
 2578SOL    HW1 7762   3.152   2.113   2.300
 2578SOL    HW2 7763   3.107   2.237   2.395
 2579SOL     OW 7764   3.639   2.204   3.504
 2579SOL    HW1 7765   3.622   2.235   3.410
 2579SOL    HW2 7766   3.555   2.167   3.542
 2580SOL     OW 7767   3.592   2.796   3.379
 2580SOL    HW1 7768   3.630   2.887   3.394
 2580SOL    HW2 7769   3.584   2.779   3.280
 2581SOL     OW 7770   2.721   3.236   1.878
 2581SOL    HW1 7771   2.675   3.251   1.966
 2581SOL    HW2 7772   2.765   3.321   1.848
 2582SOL     OW 7773   2.523   3.652   2.815
 2582SOL    HW1 7774   2.477   3.740   2.802
 2582SOL    HW2 7775   2.622   3.664   2.808
 2583SOL     OW 7776   2.945   2.846   1.949
 2583SOL    HW1 7777   2.922   2.899   1.867
 2583SOL    HW2 7778   3.026   2.790   1.930
 2584SOL     OW 7779   3.723   3.431   2.713
 2584SOL    HW1 7780   3.652   3.419   2.643
 2584SOL    HW2 7781   3.724   3.352   2.773
 2585SOL     OW 7782   2.083   3.176   3.706
 2585SOL    HW1 7783   2.018   3.103   3.685
 2585SOL    HW2 7784   2.087   3.190   3.804
 2586SOL     OW 7785   1.941   3.102   2.515
 2586SOL    HW1 7786   1.940   3.055   2.603
 2586SOL    HW2 7787   2.023   3.074   2.464
 2587SOL     OW 7788   2.534   3.253   3.486
 2587SOL    HW1 7789   2.456   3.203   3.524
 2587SOL    HW2 7790   2.531   3.348   3.517
 2588SOL     OW 7791   3.686   2.054   3.089
 2588SOL    HW1 7792   3.682   1.964   3.133
 2588SOL    HW2 7793   3.689   2.043   2.990
 2589SOL     OW 7794   3.567   3.349   2.966
 2589SOL    HW1 7795   3.474   3.324   2.939
 2589SOL    HW2 7796   3.593   3.299   3.048
 2590SOL     OW 7797   2.179   2.409   3.142
 2590SOL    HW1 7798   2.217   2.350   3.214
 2590SOL    HW2 7799   2.219   2.383   3.054
 2591SOL     OW 7800   2.674   3.448   2.549
 2591SOL    HW1 7801   2.706   3.458   2.455
 2591SOL    HW2 7802   2.595   3.386   2.551
 2592SOL     OW 7803   3.286   2.076   2.974
 2592SOL    HW1 7804   3.338   2.011   3.029
 2592SOL    HW2 7805   3.237   2.139   3.035
 2593SOL     OW 7806   2.863   1.896   3.016
 2593SOL    HW1 7807   2.800   1.824   2.985
 2593SOL    HW2 7808   2.956   1.860   3.016
 2594SOL     OW 7809   2.632   3.192   2.163
 2594SOL    HW1 7810   2.586   3.105   2.180
 2594SOL    HW2 7811   2.723   3.189   2.204
 2595SOL     OW 7812   2.480   3.429   3.146
 2595SOL    HW1 7813   2.475   3.511   3.203
 2595SOL    HW2 7814   2.569   3.426   3.101
 2596SOL     OW 7815   3.214   1.914   2.030
 2596SOL    HW1 7816   3.249   1.873   1.946
 2596SOL    HW2 7817   3.124   1.876   2.050
 2597SOL     OW 7818   3.162   2.315   2.553
 2597SOL    HW1 7819   3.103   2.395   2.557
 2597SOL    HW2 7820   3.177   2.280   2.646
 2598SOL     OW 7821   3.455   2.083   2.744
 2598SOL    HW1 7822   3.371   2.082   2.798
 2598SOL    HW2 7823   3.457   2.166   2.688
 2599SOL     OW 7824   1.901   2.939   2.162
 2599SOL    HW1 7825   2.000   2.928   2.153
 2599SOL    HW2 7826   1.861   2.853   2.194
 2600SOL     OW 7827   2.737   3.508   2.199
 2600SOL    HW1 7828   2.660   3.473   2.145
 2600SOL    HW2 7829   2.705   3.579   2.261
 2601SOL     OW 7830   2.092   2.490   3.837
 2601SOL    HW1 7831   1.999   2.488   3.874
 2601SOL    HW2 7832   2.093   2.451   3.745
 2602SOL     OW 7833   2.087   2.137   4.720
 2602SOL    HW1 7834   2.122   2.120   4.812
 2602SOL    HW2 7835   1.999   2.092   4.708
 2603SOL     OW 7836   1.881   2.230   4.371
 2603SOL    HW1 7837   1.799   2.273   4.410
 2603SOL    HW2 7838   1.853   2.157   4.308
 2604SOL     OW 7839   2.431   3.137   4.889
 2604SOL    HW1 7840   2.338   3.130   4.852
 2604SOL    HW2 7841   2.442   3.226   4.933
 2605SOL     OW 7842   3.417   3.373   4.427
 2605SOL    HW1 7843   3.360   3.357   4.508
 2605SOL    HW2 7844   3.358   3.383   4.347
 2606SOL     OW 7845   2.997   2.565   4.441
 2606SOL    HW1 7846   3.054   2.643   4.416
 2606SOL    HW2 7847   2.937   2.591   4.517
 2607SOL     OW 7848   3.617   2.469   3.955
 2607SOL    HW1 7849   3.605   2.456   3.856
 2607SOL    HW2 7850   3.587   2.388   4.004
 2608SOL     OW 7851   2.630   3.006   4.747
 2608SOL    HW1 7852   2.552   3.023   4.807
 2608SOL    HW2 7853   2.664   3.093   4.711
 2609SOL     OW 7854   2.547   2.874   4.389
 2609SOL    HW1 7855   2.616   2.858   4.459
 2609SOL    HW2 7856   2.474   2.931   4.427
 2610SOL     OW 7857   2.197   3.297   4.785
 2610SOL    HW1 7858   2.119   3.266   4.732
 2610SOL    HW2 7859   2.255   3.355   4.728
 2611SOL     OW 7860   3.465   2.309   4.461
 2611SOL    HW1 7861   3.391   2.355   4.411
 2611SOL    HW2 7862   3.516   2.377   4.514
 2612SOL     OW 7863   2.093   3.575   4.207
 2612SOL    HW1 7864   2.127   3.652   4.261
 2612SOL    HW2 7865   2.137   3.575   4.117
 2613SOL     OW 7866   2.092   3.296   4.262
 2613SOL    HW1 7867   2.066   3.392   4.262
 2613SOL    HW2 7868   2.021   3.242   4.307
 2614SOL     OW 7869   2.102   2.953   4.610
 2614SOL    HW1 7870   2.116   2.869   4.662
 2614SOL    HW2 7871   2.047   3.017   4.665
 2615SOL     OW 7872   2.482   3.648   5.163
 2615SOL    HW1 7873   2.390   3.631   5.198
 2615SOL    HW2 7874   2.510   3.740   5.189
 2616SOL     OW 7875   2.468   2.826   3.847
 2616SOL    HW1 7876   2.475   2.910   3.793
 2616SOL    HW2 7877   2.514   2.839   3.935
 2617SOL     OW 7878   1.984   2.505   4.287
 2617SOL    HW1 7879   1.939   2.417   4.304
 2617SOL    HW2 7880   1.983   2.559   4.371
 2618SOL     OW 7881   3.704   3.629   4.083
 2618SOL    HW1 7882   3.758   3.600   4.163
 2618SOL    HW2 7883   3.734   3.719   4.054
 2619SOL     OW 7884   1.889   3.458   3.841
 2619SOL    HW1 7885   1.870   3.362   3.862
 2619SOL    HW2 7886   1.856   3.516   3.916
 2620SOL     OW 7887   3.551   2.784   4.336
 2620SOL    HW1 7888   3.646   2.755   4.344
 2620SOL    HW2 7889   3.543   2.849   4.261
 2621SOL     OW 7890   3.503   2.970   4.156
 2621SOL    HW1 7891   3.589   2.972   4.104
 2621SOL    HW2 7892   3.517   3.017   4.244
 2622SOL     OW 7893   2.475   3.227   4.450
 2622SOL    HW1 7894   2.426   3.140   4.459
 2622SOL    HW2 7895   2.452   3.270   4.363
 2623SOL     OW 7896   2.671   1.866   4.226
 2623SOL    HW1 7897   2.711   1.957   4.217
 2623SOL    HW2 7898   2.571   1.874   4.232
 2624SOL     OW 7899   2.059   2.838   4.988
 2624SOL    HW1 7900   2.148   2.793   4.974
 2624SOL    HW2 7901   1.986   2.773   4.969
 2625SOL     OW 7902   3.387   2.861   3.914
 2625SOL    HW1 7903   3.324   2.785   3.927
 2625SOL    HW2 7904   3.435   2.879   4.000
 2626SOL     OW 7905   3.328   3.279   4.677
 2626SOL    HW1 7906   3.269   3.285   4.757
 2626SOL    HW2 7907   3.313   3.191   4.631
 2627SOL     OW 7908   3.529   3.576   4.296
 2627SOL    HW1 7909   3.488   3.553   4.208
 2627SOL    HW2 7910   3.511   3.502   4.361
 2628SOL     OW 7911   2.460   2.591   3.994
 2628SOL    HW1 7912   2.484   2.660   3.926
 2628SOL    HW2 7913   2.382   2.624   4.048
 2629SOL     OW 7914   3.143   2.207   4.668
 2629SOL    HW1 7915   3.057   2.157   4.655
 2629SOL    HW2 7916   3.205   2.153   4.724
 2630SOL     OW 7917   3.438   3.524   4.031
 2630SOL    HW1 7918   3.527   3.570   4.034
 2630SOL    HW2 7919   3.417   3.500   3.936
 2631SOL     OW 7920   2.669   2.467   5.189
 2631SOL    HW1 7921   2.622   2.464   5.278
 2631SOL    HW2 7922   2.618   2.412   5.123
 2632SOL     OW 7923   2.853   2.272   4.966
 2632SOL    HW1 7924   2.776   2.306   5.020
 2632SOL    HW2 7925   2.819   2.221   4.887
 2633SOL     OW 7926   2.903   2.563   4.153
 2633SOL    HW1 7927   2.929   2.559   4.249
 2633SOL    HW2 7928   2.818   2.512   4.139
 2634SOL     OW 7929   1.938   2.673   4.513
 2634SOL    HW1 7930   2.037   2.661   4.522
 2634SOL    HW2 7931   1.914   2.768   4.534
 2635SOL     OW 7932   2.727   2.210   3.919
 2635SOL    HW1 7933   2.786   2.273   3.870
 2635SOL    HW2 7934   2.746   2.116   3.890
 2636SOL     OW 7935   3.224   3.006   4.269
 2636SOL    HW1 7936   3.307   2.977   4.221
 2636SOL    HW2 7937   3.175   3.073   4.213
 2637SOL     OW 7938   2.412   2.058   4.609
 2637SOL    HW1 7939   2.407   2.053   4.709
 2637SOL    HW2 7940   2.414   2.154   4.580
 2638SOL     OW 7941   2.870   3.318   4.201
 2638SOL    HW1 7942   2.824   3.390   4.149
 2638SOL    HW2 7943   2.866   3.338   4.299
 2639SOL     OW 7944   2.213   3.663   4.577
 2639SOL    HW1 7945   2.263   3.577   4.583
 2639SOL    HW2 7946   2.278   3.740   4.574
 2640SOL     OW 7947   3.657   2.928   4.597
 2640SOL    HW1 7948   3.595   2.913   4.521
 2640SOL    HW2 7949   3.605   2.939   4.682
 2641SOL     OW 7950   2.183   2.805   3.966
 2641SOL    HW1 7951   2.265   2.844   3.924
 2641SOL    HW2 7952   2.156   2.723   3.917
 2642SOL     OW 7953   3.320   2.597   4.452
 2642SOL    HW1 7954   3.315   2.532   4.527
 2642SOL    HW2 7955   3.400   2.656   4.465
 2643SOL     OW 7956   2.973   3.638   3.961
 2643SOL    HW1 7957   2.913   3.576   4.011
 2643SOL    HW2 7958   3.004   3.594   3.876
 2644SOL     OW 7959   2.064   2.147   5.222
 2644SOL    HW1 7960   1.984   2.207   5.209
 2644SOL    HW2 7961   2.054   2.098   5.308
 2645SOL     OW 7962   3.494   3.239   3.805
 2645SOL    HW1 7963   3.462   3.333   3.795
 2645SOL    HW2 7964   3.418   3.176   3.793
 2646SOL     OW 7965   2.326   3.605   4.047
 2646SOL    HW1 7966   2.359   3.644   4.133
 2646SOL    HW2 7967   2.402   3.598   3.982
 2647SOL     OW 7968   3.262   1.969   4.150
 2647SOL    HW1 7969   3.238   1.932   4.060
 2647SOL    HW2 7970   3.361   1.985   4.154
 2648SOL     OW 7971   2.111   3.647   4.965
 2648SOL    HW1 7972   2.168   3.582   5.015
 2648SOL    HW2 7973   2.095   3.614   4.872
 2649SOL     OW 7974   2.802   3.560   4.628
 2649SOL    HW1 7975   2.882   3.503   4.649
 2649SOL    HW2 7976   2.753   3.520   4.551
 2650SOL     OW 7977   2.244   2.562   4.204
 2650SOL    HW1 7978   2.289   2.472   4.201
 2650SOL    HW2 7979   2.150   2.551   4.237
 2651SOL     OW 7980   2.476   1.984   3.841
 2651SOL    HW1 7981   2.574   1.962   3.848
 2651SOL    HW2 7982   2.445   1.967   3.748
 2652SOL     OW 7983   2.750   3.376   4.919
 2652SOL    HW1 7984   2.727   3.351   4.825
 2652SOL    HW2 7985   2.811   3.307   4.958
 2653SOL     OW 7986   2.665   3.264   4.648
 2653SOL    HW1 7987   2.755   3.278   4.606
 2653SOL    HW2 7988   2.594   3.266   4.577
 2654SOL     OW 7989   2.784   2.365   4.623
 2654SOL    HW1 7990   2.759   2.356   4.527
 2654SOL    HW2 7991   2.832   2.283   4.654
 2655SOL     OW 7992   2.401   1.926   4.236
 2655SOL    HW1 7993   2.320   1.927   4.294
 2655SOL    HW2 7994   2.404   2.009   4.181
 2656SOL     OW 7995   3.296   3.050   3.765
 2656SOL    HW1 7996   3.328   2.974   3.822
 2656SOL    HW2 7997   3.204   3.077   3.795
 2657SOL     OW 7998   2.159   1.897   3.895
 2657SOL    HW1 7999   2.208   1.981   3.874
 2657SOL    HW2 8000   2.221   1.832   3.940
 2658SOL     OW 8001   2.797   2.098   4.204
 2658SOL    HW1 8002   2.749   2.139   4.126
 2658SOL    HW2 8003   2.896   2.096   4.185
 2659SOL     OW 8004   3.089   3.432   4.517
 2659SOL    HW1 8005   3.110   3.506   4.452
 2659SOL    HW2 8006   3.157   3.432   4.590
 2660SOL     OW 8007   2.321   3.014   4.465
 2660SOL    HW1 8008   2.250   2.987   4.530
 2660SOL    HW2 8009   2.295   2.986   4.372
 2661SOL     OW 8010   3.133   3.659   4.315
 2661SOL    HW1 8011   3.177   3.723   4.251
 2661SOL    HW2 8012   3.083   3.711   4.385
 2662SOL     OW 8013   2.894   2.411   3.740
 2662SOL    HW1 8014   2.853   2.493   3.701
 2662SOL    HW2 8015   2.958   2.437   3.813
 2663SOL     OW 8016   2.423   2.084   4.871
 2663SOL    HW1 8017   2.461   2.000   4.908
 2663SOL    HW2 8018   2.335   2.103   4.915
 2664SOL     OW 8019   2.728   2.316   4.366
 2664SOL    HW1 8020   2.696   2.388   4.304
 2664SOL    HW2 8021   2.752   2.235   4.313
 2665SOL     OW 8022   2.879   1.901   4.477
 2665SOL    HW1 8023   2.807   1.906   4.408
 2665SOL    HW2 8024   2.855   1.832   4.546
 2666SOL     OW 8025   3.291   3.035   4.591
 2666SOL    HW1 8026   3.236   2.951   4.584
 2666SOL    HW2 8027   3.317   3.064   4.499
 2667SOL     OW 8028   3.328   2.452   4.716
 2667SOL    HW1 8029   3.298   2.357   4.723
 2667SOL    HW2 8030   3.401   2.468   4.782
 2668SOL     OW 8031   3.719   2.695   4.101
 2668SOL    HW1 8032   3.761   2.631   4.165
 2668SOL    HW2 8033   3.681   2.644   4.023
 2669SOL     OW 8034   2.350   3.247   3.898
 2669SOL    HW1 8035   2.263   3.232   3.945
 2669SOL    HW2 8036   2.333   3.273   3.803
 2670SOL     OW 8037   3.526   3.142   4.381
 2670SOL    HW1 8038   3.625   3.150   4.395
 2670SOL    HW2 8039   3.481   3.226   4.412
 2671SOL     OW 8040   3.252   2.437   3.802
 2671SOL    HW1 8041   3.198   2.416   3.883
 2671SOL    HW2 8042   3.343   2.396   3.811
 2672SOL     OW 8043   2.389   2.118   4.052
 2672SOL    HW1 8044   2.416   2.059   3.977
 2672SOL    HW2 8045   2.389   2.213   4.021
 2673SOL     OW 8046   3.616   3.085   5.312
 2673SOL    HW1 8047   3.707   3.046   5.299
 2673SOL    HW2 8048   3.624   3.181   5.336
 2674SOL     OW 8049   2.973   3.057   4.824
 2674SOL    HW1 8050   2.933   3.101   4.905
 2674SOL    HW2 8051   2.932   3.094   4.741
 2675SOL     OW 8052   3.500   2.961   4.803
 2675SOL    HW1 8053   3.505   3.042   4.862
 2675SOL    HW2 8054   3.414   2.963   4.752
 2676SOL     OW 8055   2.567   2.912   4.092
 2676SOL    HW1 8056   2.553   2.919   4.191
 2676SOL    HW2 8057   2.651   2.861   4.074
 2677SOL     OW 8058   2.272   2.675   4.975
 2677SOL    HW1 8059   2.358   2.687   5.025
 2677SOL    HW2 8060   2.230   2.588   5.002
 2678SOL     OW 8061   3.136   2.248   4.986
 2678SOL    HW1 8062   3.157   2.322   5.050
 2678SOL    HW2 8063   3.047   2.265   4.943
 2679SOL     OW 8064   1.926   3.426   5.055
 2679SOL    HW1 8065   1.880   3.508   5.021
 2679SOL    HW2 8066   2.024   3.445   5.064
 2680SOL     OW 8067   2.229   2.962   4.225
 2680SOL    HW1 8068   2.222   3.045   4.169
 2680SOL    HW2 8069   2.233   2.882   4.165
 2681SOL     OW 8070   2.428   2.399   4.589
 2681SOL    HW1 8071   2.440   2.465   4.515
 2681SOL    HW2 8072   2.474   2.433   4.672
 2682SOL     OW 8073   3.114   3.210   4.112
 2682SOL    HW1 8074   3.164   3.287   4.152
 2682SOL    HW2 8075   3.019   3.212   4.144
 2683SOL     OW 8076   3.134   3.307   4.866
 2683SOL    HW1 8077   3.181   3.320   4.953
 2683SOL    HW2 8078   3.068   3.233   4.875
 2684SOL     OW 8079   3.444   2.501   4.196
 2684SOL    HW1 8080   3.413   2.562   4.269
 2684SOL    HW2 8081   3.494   2.553   4.127
 2685SOL     OW 8082   2.216   3.372   5.053
 2685SOL    HW1 8083   2.195   3.328   4.966
 2685SOL    HW2 8084   2.313   3.398   5.056
 2686SOL     OW 8085   2.435   2.732   4.753
 2686SOL    HW1 8086   2.479   2.821   4.744
 2686SOL    HW2 8087   2.372   2.732   4.830
 2687SOL     OW 8088   3.222   2.724   4.769
 2687SOL    HW1 8089   3.147   2.724   4.703
 2687SOL    HW2 8090   3.259   2.632   4.778
 2688SOL     OW 8091   3.071   2.387   3.999
 2688SOL    HW1 8092   3.084   2.303   4.053
 2688SOL    HW2 8093   3.042   2.461   4.059
 2689SOL     OW 8094   2.169   2.075   4.955
 2689SOL    HW1 8095   2.146   2.112   5.045
 2689SOL    HW2 8096   2.139   1.980   4.949
 2690SOL     OW 8097   1.899   3.172   5.006
 2690SOL    HW1 8098   1.952   3.123   5.074
 2690SOL    HW2 8099   1.921   3.270   5.011
 2691SOL     OW 8100   2.594   2.496   4.788
 2691SOL    HW1 8101   2.653   2.470   4.712
 2691SOL    HW2 8102   2.566   2.592   4.777
 2692SOL     OW 8103   2.169   1.925   4.342
 2692SOL    HW1 8104   2.158   2.019   4.375
 2692SOL    HW2 8105   2.164   1.862   4.419
 2693SOL     OW 8106   3.484   2.229   4.098
 2693SOL    HW1 8107   3.486   2.153   4.162
 2693SOL    HW2 8108   3.436   2.306   4.138
 2694SOL     OW 8109   2.885   2.628   4.690
 2694SOL    HW1 8110   2.900   2.649   4.786
 2694SOL    HW2 8111   2.855   2.533   4.681
 2695SOL     OW 8112   3.721   3.380   5.329
 2695SOL    HW1 8113   3.735   3.407   5.234
 2695SOL    HW2 8114   3.804   3.402   5.382
 2696SOL     OW 8115   3.402   2.136   3.849
 2696SOL    HW1 8116   3.341   2.061   3.872
 2696SOL    HW2 8117   3.424   2.188   3.932
 2697SOL     OW 8118   3.165   2.700   3.766
 2697SOL    HW1 8119   3.199   2.607   3.781
 2697SOL    HW2 8120   3.183   2.727   3.671
 2698SOL     OW 8121   2.930   3.195   4.573
 2698SOL    HW1 8122   2.937   3.111   4.518
 2698SOL    HW2 8123   2.992   3.264   4.537
 2699SOL     OW 8124   2.181   2.672   4.673
 2699SOL    HW1 8125   2.274   2.708   4.678
 2699SOL    HW2 8126   2.175   2.587   4.725
 2700SOL     OW 8127   2.201   2.371   4.730
 2700SOL    HW1 8128   2.149   2.288   4.713
 2700SOL    HW2 8129   2.278   2.376   4.666
 2701SOL     OW 8130   3.022   2.069   5.201
 2701SOL    HW1 8131   3.022   2.133   5.278
 2701SOL    HW2 8132   3.050   2.117   5.118
 2702SOL     OW 8133   1.870   3.188   3.924
 2702SOL    HW1 8134   1.777   3.209   3.893
 2702SOL    HW2 8135   1.880   3.089   3.937
 2703SOL     OW 8136   1.950   3.663   4.651
 2703SOL    HW1 8137   1.908   3.577   4.624
 2703SOL    HW2 8138   2.044   3.666   4.617
 2704SOL     OW 8139   2.366   3.430   4.634
 2704SOL    HW1 8140   2.432   3.504   4.643
 2704SOL    HW2 8141   2.410   3.351   4.592
 2705SOL     OW 8142   2.864   2.658   4.962
 2705SOL    HW1 8143   2.905   2.626   5.048
 2705SOL    HW2 8144   2.768   2.631   4.959
 2706SOL     OW 8145   1.902   2.406   4.838
 2706SOL    HW1 8146   1.987   2.373   4.797
 2706SOL    HW2 8147   1.915   2.421   4.936
 2707SOL     OW 8148   2.051   2.382   5.446
 2707SOL    HW1 8149   2.110   2.342   5.376
 2707SOL    HW2 8150   1.993   2.453   5.405
 2708SOL     OW 8151   2.677   2.434   4.049
 2708SOL    HW1 8152   2.684   2.345   4.003
 2708SOL    HW2 8153   2.583   2.468   4.041
 2709SOL     OW 8154   3.519   2.466   4.930
 2709SOL    HW1 8155   3.481   2.397   4.992
 2709SOL    HW2 8156   3.601   2.430   4.886
 2710SOL     OW 8157   2.533   2.326   4.993
 2710SOL    HW1 8158   2.499   2.237   4.963
 2710SOL    HW2 8159   2.559   2.380   4.913
 2711SOL     OW 8160   2.792   3.540   5.189
 2711SOL    HW1 8161   2.768   3.522   5.094
 2711SOL    HW2 8162   2.822   3.634   5.199
 2712SOL     OW 8163   2.335   2.362   3.915
 2712SOL    HW1 8164   2.396   2.442   3.919
 2712SOL    HW2 8165   2.240   2.393   3.922
 2713SOL     OW 8166   2.021   2.999   5.190
 2713SOL    HW1 8167   2.043   2.938   5.266
 2713SOL    HW2 8168   2.031   2.950   5.104
 2714SOL     OW 8169   3.209   2.921   4.958
 2714SOL    HW1 8170   3.233   2.858   4.884
 2714SOL    HW2 8171   3.119   2.961   4.940
 2715SOL     OW 8172   3.164   2.717   4.033
 2715SOL    HW1 8173   3.078   2.686   4.075
 2715SOL    HW2 8174   3.160   2.703   3.934
 2716SOL     OW 8175   3.621   3.609   4.878
 2716SOL    HW1 8176   3.682   3.639   4.805
 2716SOL    HW2 8177   3.583   3.520   4.856
 2717SOL     OW 8178   3.114   3.593   4.852
 2717SOL    HW1 8179   3.198   3.598   4.798
 2717SOL    HW2 8180   3.091   3.497   4.870
 2718SOL     OW 8181   1.945   3.120   4.746
 2718SOL    HW1 8182   1.940   3.119   4.846
 2718SOL    HW2 8183   1.862   3.079   4.708
 2719SOL     OW 8184   3.588   1.997   4.247
 2719SOL    HW1 8185   3.661   1.980   4.180
 2719SOL    HW2 8186   3.557   1.910   4.285
 2720SOL     OW 8187   3.250   3.435   4.201
 2720SOL    HW1 8188   3.317   3.447   4.127
 2720SOL    HW2 8189   3.210   3.524   4.224
 2721SOL     OW 8190   3.142   2.789   4.396
 2721SOL    HW1 8191   3.202   2.708   4.398
 2721SOL    HW2 8192   3.182   2.858   4.336
 2722SOL     OW 8193   2.534   3.478   3.878
 2722SOL    HW1 8194   2.543   3.488   3.779
 2722SOL    HW2 8195   2.494   3.389   3.899
 2723SOL     OW 8196   3.703   2.037   4.687
 2723SOL    HW1 8197   3.742   1.952   4.651
 2723SOL    HW2 8198   3.605   2.039   4.668
 2724SOL     OW 8199   2.125   2.188   4.444
 2724SOL    HW1 8200   2.046   2.239   4.410
 2724SOL    HW2 8201   2.116   2.173   4.542
 2725SOL     OW 8202   3.056   3.474   3.755
 2725SOL    HW1 8203   3.062   3.381   3.792
 2725SOL    HW2 8204   2.997   3.474   3.675
 2726SOL     OW 8205   2.684   2.864   5.096
 2726SOL    HW1 8206   2.724   2.863   5.004
 2726SOL    HW2 8207   2.694   2.956   5.136
 2727SOL     OW 8208   2.778   2.772   4.015
 2727SOL    HW1 8209   2.841   2.810   3.947
 2727SOL    HW2 8210   2.818   2.689   4.054
 2728SOL     OW 8211   3.366   3.469   3.768
 2728SOL    HW1 8212   3.274   3.506   3.775
 2728SOL    HW2 8213   3.404   3.489   3.678
 2729SOL     OW 8214   2.901   2.960   4.420
 2729SOL    HW1 8215   2.831   2.913   4.474
 2729SOL    HW2 8216   2.960   2.892   4.377
 2730SOL     OW 8217   2.876   2.098   4.695
 2730SOL    HW1 8218   2.868   2.062   4.602
 2730SOL    HW2 8219   2.874   2.022   4.760
 2731SOL     OW 8220   2.452   3.349   4.215
 2731SOL    HW1 8221   2.494   3.291   4.145
 2731SOL    HW2 8222   2.408   3.428   4.171
 2732SOL     OW 8223   3.571   2.247   5.105
 2732SOL    HW1 8224   3.644   2.316   5.109
 2732SOL    HW2 8225   3.599   2.172   5.046
 2733SOL     OW 8226   2.117   3.210   4.014
 2733SOL    HW1 8227   2.021   3.211   3.987
 2733SOL    HW2 8228   2.129   3.263   4.098
 2734SOL     OW 8229   2.534   2.065   5.213
 2734SOL    HW1 8230   2.624   2.049   5.173
 2734SOL    HW2 8231   2.542   2.070   5.312
 2735SOL     OW 8232   1.937   2.207   3.757
 2735SOL    HW1 8233   1.845   2.179   3.728
 2735SOL    HW2 8234   1.968   2.284   3.701
 2736SOL     OW 8235   1.934   2.028   4.042
 2736SOL    HW1 8236   1.917   2.111   3.988
 2736SOL    HW2 8237   2.024   1.991   4.020
 2737SOL     OW 8238   3.045   3.197   3.843
 2737SOL    HW1 8239   2.946   3.186   3.845
 2737SOL    HW2 8240   3.079   3.212   3.936
 2738SOL     OW 8241   3.355   3.629   4.683
 2738SOL    HW1 8242   3.388   3.693   4.614
 2738SOL    HW2 8243   3.421   3.623   4.758
 2739SOL     OW 8244   3.312   3.082   5.357
 2739SOL    HW1 8245   3.303   3.072   5.456
 2739SOL    HW2 8246   3.408   3.075   5.331
 2740SOL     OW 8247   2.252   3.603   5.284
 2740SOL    HW1 8248   2.161   3.644   5.282
 2740SOL    HW2 8249   2.245   3.509   5.316
 2741SOL     OW 8250   3.536   2.745   4.978
 2741SOL    HW1 8251   3.509   2.656   4.941
 2741SOL    HW2 8252   3.537   2.813   4.905
 2742SOL     OW 8253   3.087   2.187   4.173
 2742SOL    HW1 8254   3.152   2.113   4.162
 2742SOL    HW2 8255   3.107   2.237   4.257
 2743SOL     OW 8256   2.456   2.607   4.376
 2743SOL    HW1 8257   2.506   2.692   4.357
 2743SOL    HW2 8258   2.368   2.609   4.328
 2744SOL     OW 8259   3.592   2.796   5.241
 2744SOL    HW1 8260   3.630   2.887   5.256
 2744SOL    HW2 8261   3.584   2.779   5.142
 2745SOL     OW 8262   2.721   3.236   3.740
 2745SOL    HW1 8263   2.675   3.251   3.828
 2745SOL    HW2 8264   2.765   3.321   3.710
 2746SOL     OW 8265   2.523   3.652   4.677
 2746SOL    HW1 8266   2.477   3.740   4.664
 2746SOL    HW2 8267   2.622   3.664   4.670
 2747SOL     OW 8268   2.721   2.818   4.585
 2747SOL    HW1 8269   2.775   2.749   4.633
 2747SOL    HW2 8270   2.689   2.887   4.651
 2748SOL     OW 8271   2.945   2.846   3.811
 2748SOL    HW1 8272   2.922   2.899   3.729
 2748SOL    HW2 8273   3.026   2.790   3.792
 2749SOL     OW 8274   3.723   3.431   4.575
 2749SOL    HW1 8275   3.652   3.419   4.505
 2749SOL    HW2 8276   3.724   3.352   4.635
 2750SOL     OW 8277   1.941   3.102   4.377
 2750SOL    HW1 8278   1.940   3.055   4.465
 2750SOL    HW2 8279   2.023   3.074   4.326
 2751SOL     OW 8280   3.686   2.054   4.951
 2751SOL    HW1 8281   3.682   1.964   4.995
 2751SOL    HW2 8282   3.689   2.043   4.852
 2752SOL     OW 8283   2.290   2.286   4.244
 2752SOL    HW1 8284   2.320   2.214   4.182
 2752SOL    HW2 8285   2.251   2.246   4.327
 2753SOL     OW 8286   3.567   3.349   4.828
 2753SOL    HW1 8287   3.474   3.324   4.801
 2753SOL    HW2 8288   3.593   3.299   4.910
 2754SOL     OW 8289   2.179   2.409   5.004
 2754SOL    HW1 8290   2.217   2.350   5.076
 2754SOL    HW2 8291   2.219   2.383   4.916
 2755SOL     OW 8292   2.674   3.448   4.411
 2755SOL    HW1 8293   2.706   3.458   4.317
 2755SOL    HW2 8294   2.595   3.386   4.413
 2756SOL     OW 8295   3.286   2.076   4.836
 2756SOL    HW1 8296   3.338   2.011   4.891
 2756SOL    HW2 8297   3.237   2.139   4.897
 2757SOL     OW 8298   2.863   1.896   4.878
 2757SOL    HW1 8299   2.800   1.824   4.847
 2757SOL    HW2 8300   2.956   1.860   4.878
 2758SOL     OW 8301   2.632   3.192   4.025
 2758SOL    HW1 8302   2.586   3.105   4.042
 2758SOL    HW2 8303   2.723   3.189   4.066
 2759SOL     OW 8304   3.214   1.914   3.892
 2759SOL    HW1 8305   3.249   1.873   3.808
 2759SOL    HW2 8306   3.124   1.876   3.912
 2760SOL     OW 8307   3.162   2.315   4.415
 2760SOL    HW1 8308   3.103   2.395   4.419
 2760SOL    HW2 8309   3.177   2.280   4.508
 2761SOL     OW 8310   3.455   2.083   4.606
 2761SOL    HW1 8311   3.371   2.082   4.660
 2761SOL    HW2 8312   3.457   2.166   4.550
 2762SOL     OW 8313   1.901   2.939   4.024
 2762SOL    HW1 8314   2.000   2.928   4.015
 2762SOL    HW2 8315   1.861   2.853   4.056
 2763SOL     OW 8316   2.737   3.508   4.061
 2763SOL    HW1 8317   2.660   3.473   4.007
 2763SOL    HW2 8318   2.705   3.579   4.123
 2764SOL     OW 8319   2.092   4.352   0.113
 2764SOL    HW1 8320   1.999   4.350   0.150
 2764SOL    HW2 8321   2.093   4.313   0.021
 2765SOL     OW 8322   2.087   3.999   0.996
 2765SOL    HW1 8323   2.122   3.982   1.088
 2765SOL    HW2 8324   1.999   3.954   0.984
 2766SOL     OW 8325   1.881   4.092   0.647
 2766SOL    HW1 8326   1.799   4.135   0.686
 2766SOL    HW2 8327   1.853   4.019   0.584
 2767SOL     OW 8328   2.431   4.999   1.165
 2767SOL    HW1 8329   2.338   4.992   1.128
 2767SOL    HW2 8330   2.442   5.088   1.209
 2768SOL     OW 8331   3.417   5.235   0.703
 2768SOL    HW1 8332   3.360   5.219   0.784
 2768SOL    HW2 8333   3.358   5.245   0.623
 2769SOL     OW 8334   2.997   4.427   0.717
 2769SOL    HW1 8335   3.054   4.505   0.692
 2769SOL    HW2 8336   2.937   4.453   0.793
 2770SOL     OW 8337   3.617   4.331   0.231
 2770SOL    HW1 8338   3.605   4.318   0.132
 2770SOL    HW2 8339   3.587   4.250   0.280
 2771SOL     OW 8340   2.630   4.868   1.023
 2771SOL    HW1 8341   2.552   4.885   1.083
 2771SOL    HW2 8342   2.664   4.955   0.987
 2772SOL     OW 8343   2.712   4.522   1.823
 2772SOL    HW1 8344   2.708   4.598   1.888
 2772SOL    HW2 8345   2.734   4.558   1.732
 2773SOL     OW 8346   2.547   4.736   0.665
 2773SOL    HW1 8347   2.616   4.720   0.735
 2773SOL    HW2 8348   2.474   4.793   0.703
 2774SOL     OW 8349   2.548   4.885   1.803
 2774SOL    HW1 8350   2.608   4.964   1.817
 2774SOL    HW2 8351   2.462   4.916   1.762
 2775SOL     OW 8352   2.197   5.159   1.061
 2775SOL    HW1 8353   2.119   5.128   1.008
 2775SOL    HW2 8354   2.255   5.217   1.004
 2776SOL     OW 8355   2.300   4.116   1.499
 2776SOL    HW1 8356   2.382   4.060   1.508
 2776SOL    HW2 8357   2.219   4.058   1.503
 2777SOL     OW 8358   3.465   4.171   0.737
 2777SOL    HW1 8359   3.391   4.217   0.687
 2777SOL    HW2 8360   3.516   4.239   0.790
 2778SOL     OW 8361   2.102   4.815   0.886
 2778SOL    HW1 8362   2.116   4.731   0.938
 2778SOL    HW2 8363   2.047   4.879   0.941
 2779SOL     OW 8364   2.468   4.688   0.123
 2779SOL    HW1 8365   2.475   4.772   0.069
 2779SOL    HW2 8366   2.514   4.701   0.211
 2780SOL     OW 8367   3.456   3.838   1.480
 2780SOL    HW1 8368   3.438   3.905   1.408
 2780SOL    HW2 8369   3.453   3.884   1.569
 2781SOL     OW 8370   1.984   4.367   0.563
 2781SOL    HW1 8371   1.939   4.279   0.580
 2781SOL    HW2 8372   1.983   4.421   0.647
 2782SOL     OW 8373   3.551   4.646   0.612
 2782SOL    HW1 8374   3.646   4.617   0.620
 2782SOL    HW2 8375   3.543   4.711   0.537
 2783SOL     OW 8376   3.503   4.832   0.432
 2783SOL    HW1 8377   3.589   4.834   0.380
 2783SOL    HW2 8378   3.517   4.879   0.520
 2784SOL     OW 8379   1.975   4.461   1.597
 2784SOL    HW1 8380   2.063   4.448   1.642
 2784SOL    HW2 8381   1.962   4.558   1.575
 2785SOL     OW 8382   3.155   4.952   1.423
 2785SOL    HW1 8383   3.192   4.879   1.365
 2785SOL    HW2 8384   3.207   4.957   1.508
 2786SOL     OW 8385   2.671   3.728   0.502
 2786SOL    HW1 8386   2.711   3.819   0.493
 2786SOL    HW2 8387   2.571   3.736   0.508
 2787SOL     OW 8388   2.059   4.700   1.264
 2787SOL    HW1 8389   2.148   4.655   1.250
 2787SOL    HW2 8390   1.986   4.635   1.245
 2788SOL     OW 8391   3.387   4.723   0.190
 2788SOL    HW1 8392   3.324   4.647   0.203
 2788SOL    HW2 8393   3.435   4.741   0.276
 2789SOL     OW 8394   2.179   3.975   1.801
 2789SOL    HW1 8395   2.250   4.046   1.807
 2789SOL    HW2 8396   2.091   4.014   1.829
 2790SOL     OW 8397   3.328   5.141   0.953
 2790SOL    HW1 8398   3.269   5.147   1.033
 2790SOL    HW2 8399   3.313   5.053   0.907
 2791SOL     OW 8400   2.460   4.453   0.270
 2791SOL    HW1 8401   2.484   4.522   0.202
 2791SOL    HW2 8402   2.382   4.486   0.324
 2792SOL     OW 8403   3.143   4.069   0.944
 2792SOL    HW1 8404   3.057   4.019   0.931
 2792SOL    HW2 8405   3.205   4.015   1.000
 2793SOL     OW 8406   2.669   4.329   1.465
 2793SOL    HW1 8407   2.622   4.326   1.554
 2793SOL    HW2 8408   2.618   4.274   1.399
 2794SOL     OW 8409   3.256   4.193   1.674
 2794SOL    HW1 8410   3.236   4.236   1.762
 2794SOL    HW2 8411   3.334   4.131   1.683
 2795SOL     OW 8412   2.835   4.614   1.572
 2795SOL    HW1 8413   2.881   4.530   1.543
 2795SOL    HW2 8414   2.779   4.648   1.497
 2796SOL     OW 8415   2.853   4.134   1.242
 2796SOL    HW1 8416   2.776   4.168   1.296
 2796SOL    HW2 8417   2.819   4.083   1.163
 2797SOL     OW 8418   2.903   4.425   0.429
 2797SOL    HW1 8419   2.929   4.421   0.525
 2797SOL    HW2 8420   2.818   4.374   0.415
 2798SOL     OW 8421   1.938   4.535   0.789
 2798SOL    HW1 8422   2.037   4.523   0.798
 2798SOL    HW2 8423   1.914   4.630   0.810
 2799SOL     OW 8424   2.727   4.072   0.195
 2799SOL    HW1 8425   2.786   4.135   0.146
 2799SOL    HW2 8426   2.746   3.978   0.166
 2800SOL     OW 8427   3.581   4.309   1.831
 2800SOL    HW1 8428   3.555   4.398   1.795
 2800SOL    HW2 8429   3.579   4.241   1.758
 2801SOL     OW 8430   3.224   4.868   0.545
 2801SOL    HW1 8431   3.307   4.839   0.497
 2801SOL    HW2 8432   3.175   4.935   0.489
 2802SOL     OW 8433   2.412   3.920   0.885
 2802SOL    HW1 8434   2.407   3.915   0.985
 2802SOL    HW2 8435   2.414   4.016   0.856
 2803SOL     OW 8436   3.657   4.790   0.873
 2803SOL    HW1 8437   3.595   4.775   0.797
 2803SOL    HW2 8438   3.605   4.801   0.958
 2804SOL     OW 8439   2.183   4.667   0.242
 2804SOL    HW1 8440   2.265   4.706   0.200
 2804SOL    HW2 8441   2.156   4.585   0.193
 2805SOL     OW 8442   3.320   4.459   0.728
 2805SOL    HW1 8443   3.315   4.394   0.803
 2805SOL    HW2 8444   3.400   4.518   0.741
 2806SOL     OW 8445   2.064   4.009   1.498
 2806SOL    HW1 8446   1.984   4.069   1.485
 2806SOL    HW2 8447   2.054   3.960   1.584
 2807SOL     OW 8448   3.494   5.101   0.081
 2807SOL    HW1 8449   3.462   5.195   0.071
 2807SOL    HW2 8450   3.418   5.038   0.069
 2808SOL     OW 8451   3.262   3.831   0.426
 2808SOL    HW1 8452   3.238   3.794   0.336
 2808SOL    HW2 8453   3.361   3.847   0.430
 2809SOL     OW 8454   2.244   4.424   0.480
 2809SOL    HW1 8455   2.289   4.334   0.477
 2809SOL    HW2 8456   2.150   4.413   0.513
 2810SOL     OW 8457   3.409   3.946   1.729
 2810SOL    HW1 8458   3.404   3.983   1.821
 2810SOL    HW2 8459   3.337   3.877   1.717
 2811SOL     OW 8460   2.643   3.988   1.749
 2811SOL    HW1 8461   2.710   3.927   1.792
 2811SOL    HW2 8462   2.570   4.007   1.814
 2812SOL     OW 8463   3.213   4.314   1.433
 2812SOL    HW1 8464   3.241   4.271   1.518
 2812SOL    HW2 8465   3.238   4.410   1.434
 2813SOL     OW 8466   2.784   4.227   0.899
 2813SOL    HW1 8467   2.759   4.218   0.803
 2813SOL    HW2 8468   2.832   4.145   0.930
 2814SOL     OW 8469   2.401   3.788   0.512
 2814SOL    HW1 8470   2.320   3.789   0.570
 2814SOL    HW2 8471   2.404   3.871   0.457
 2815SOL     OW 8472   3.296   4.912   0.041
 2815SOL    HW1 8473   3.328   4.836   0.098
 2815SOL    HW2 8474   3.204   4.939   0.071
 2816SOL     OW 8475   2.797   3.960   0.480
 2816SOL    HW1 8476   2.749   4.001   0.402
 2816SOL    HW2 8477   2.896   3.958   0.461
 2817SOL     OW 8478   2.938   4.407   1.464
 2817SOL    HW1 8479   2.858   4.346   1.467
 2817SOL    HW2 8480   3.019   4.354   1.440
 2818SOL     OW 8481   3.089   5.294   0.793
 2818SOL    HW1 8482   3.110   5.368   0.728
 2818SOL    HW2 8483   3.157   5.294   0.866
 2819SOL     OW 8484   2.321   4.876   0.741
 2819SOL    HW1 8485   2.250   4.849   0.806
 2819SOL    HW2 8486   2.295   4.848   0.648
 2820SOL     OW 8487   2.894   4.273   0.016
 2820SOL    HW1 8488   2.853   4.355  -0.023
 2820SOL    HW2 8489   2.958   4.299   0.089
 2821SOL     OW 8490   1.940   4.280   1.386
 2821SOL    HW1 8491   2.032   4.279   1.345
 2821SOL    HW2 8492   1.934   4.354   1.453
 2822SOL     OW 8493   2.423   3.946   1.147
 2822SOL    HW1 8494   2.461   3.862   1.184
 2822SOL    HW2 8495   2.335   3.965   1.191
 2823SOL     OW 8496   2.728   4.178   0.642
 2823SOL    HW1 8497   2.696   4.250   0.580
 2823SOL    HW2 8498   2.752   4.097   0.589
 2824SOL     OW 8499   2.879   3.763   0.753
 2824SOL    HW1 8500   2.807   3.768   0.684
 2824SOL    HW2 8501   2.855   3.694   0.822
 2825SOL     OW 8502   3.291   4.897   0.867
 2825SOL    HW1 8503   3.236   4.813   0.860
 2825SOL    HW2 8504   3.317   4.926   0.775
 2826SOL     OW 8505   3.328   4.314   0.992
 2826SOL    HW1 8506   3.298   4.219   0.999
 2826SOL    HW2 8507   3.401   4.330   1.058
 2827SOL     OW 8508   3.719   4.557   0.377
 2827SOL    HW1 8509   3.761   4.493   0.441
 2827SOL    HW2 8510   3.681   4.506   0.299
 2828SOL     OW 8511   3.526   5.004   0.657
 2828SOL    HW1 8512   3.625   5.012   0.671
 2828SOL    HW2 8513   3.481   5.088   0.688
 2829SOL     OW 8514   3.252   4.299   0.078
 2829SOL    HW1 8515   3.198   4.278   0.159
 2829SOL    HW2 8516   3.343   4.258   0.087
 2830SOL     OW 8517   2.389   3.980   0.328
 2830SOL    HW1 8518   2.416   3.921   0.253
 2830SOL    HW2 8519   2.389   4.075   0.297
 2831SOL     OW 8520   3.616   4.947   1.588
 2831SOL    HW1 8521   3.707   4.908   1.575
 2831SOL    HW2 8522   3.624   5.043   1.612
 2832SOL     OW 8523   2.926   5.071   1.340
 2832SOL    HW1 8524   2.846   5.048   1.395
 2832SOL    HW2 8525   3.009   5.045   1.389
 2833SOL     OW 8526   2.973   4.919   1.100
 2833SOL    HW1 8527   2.933   4.963   1.181
 2833SOL    HW2 8528   2.932   4.956   1.017
 2834SOL     OW 8529   3.500   4.823   1.079
 2834SOL    HW1 8530   3.505   4.904   1.138
 2834SOL    HW2 8531   3.414   4.825   1.028
 2835SOL     OW 8532   2.777   3.813   1.402
 2835SOL    HW1 8533   2.802   3.793   1.307
 2835SOL    HW2 8534   2.849   3.869   1.444
 2836SOL     OW 8535   2.842   4.840   1.719
 2836SOL    HW1 8536   2.743   4.846   1.729
 2836SOL    HW2 8537   2.865   4.760   1.663
 2837SOL     OW 8538   2.567   4.774   0.368
 2837SOL    HW1 8539   2.553   4.781   0.467
 2837SOL    HW2 8540   2.651   4.723   0.350
 2838SOL     OW 8541   2.272   4.537   1.251
 2838SOL    HW1 8542   2.358   4.549   1.301
 2838SOL    HW2 8543   2.230   4.450   1.278
 2839SOL     OW 8544   3.136   4.110   1.262
 2839SOL    HW1 8545   3.157   4.184   1.326
 2839SOL    HW2 8546   3.047   4.127   1.219
 2840SOL     OW 8547   2.229   4.824   0.501
 2840SOL    HW1 8548   2.222   4.907   0.445
 2840SOL    HW2 8549   2.233   4.744   0.441
 2841SOL     OW 8550   2.428   4.261   0.865
 2841SOL    HW1 8551   2.440   4.327   0.791
 2841SOL    HW2 8552   2.474   4.295   0.948
 2842SOL     OW 8553   3.444   4.363   0.472
 2842SOL    HW1 8554   3.413   4.424   0.545
 2842SOL    HW2 8555   3.494   4.415   0.403
 2843SOL     OW 8556   2.264   4.475   1.598
 2843SOL    HW1 8557   2.332   4.530   1.551
 2843SOL    HW2 8558   2.304   4.387   1.625
 2844SOL     OW 8559   3.449   4.503   1.670
 2844SOL    HW1 8560   3.357   4.541   1.665
 2844SOL    HW2 8561   3.509   4.550   1.605
 2845SOL     OW 8562   2.875   3.829   1.770
 2845SOL    HW1 8563   2.881   3.914   1.718
 2845SOL    HW2 8564   2.907   3.753   1.713
 2846SOL     OW 8565   2.366   3.774   1.740
 2846SOL    HW1 8566   2.324   3.717   1.670
 2846SOL    HW2 8567   2.300   3.843   1.772
 2847SOL     OW 8568   2.435   4.594   1.029
 2847SOL    HW1 8569   2.479   4.683   1.020
 2847SOL    HW2 8570   2.372   4.594   1.106
 2848SOL     OW 8571   3.222   4.586   1.045
 2848SOL    HW1 8572   3.147   4.586   0.979
 2848SOL    HW2 8573   3.259   4.494   1.054
 2849SOL     OW 8574   3.071   4.249   0.275
 2849SOL    HW1 8575   3.084   4.165   0.329
 2849SOL    HW2 8576   3.042   4.323   0.335
 2850SOL     OW 8577   2.169   3.937   1.231
 2850SOL    HW1 8578   2.146   3.974   1.321
 2850SOL    HW2 8579   2.139   3.842   1.225
 2851SOL     OW 8580   2.594   4.358   1.064
 2851SOL    HW1 8581   2.653   4.332   0.988
 2851SOL    HW2 8582   2.566   4.454   1.053
 2852SOL     OW 8583   3.590   4.659   1.854
 2852SOL    HW1 8584   3.544   4.652   1.765
 2852SOL    HW2 8585   3.528   4.703   1.920
 2853SOL     OW 8586   2.169   3.787   0.618
 2853SOL    HW1 8587   2.158   3.881   0.651
 2853SOL    HW2 8588   2.164   3.724   0.695
 2854SOL     OW 8589   3.484   4.091   0.374
 2854SOL    HW1 8590   3.486   4.015   0.438
 2854SOL    HW2 8591   3.436   4.168   0.414
 2855SOL     OW 8592   2.885   4.490   0.966
 2855SOL    HW1 8593   2.900   4.511   1.062
 2855SOL    HW2 8594   2.855   4.395   0.957
 2856SOL     OW 8595   3.721   5.242   1.605
 2856SOL    HW1 8596   3.735   5.269   1.510
 2856SOL    HW2 8597   3.804   5.264   1.658
 2857SOL     OW 8598   2.212   4.622   1.804
 2857SOL    HW1 8599   2.288   4.666   1.852
 2857SOL    HW2 8600   2.247   4.575   1.722
 2858SOL     OW 8601   3.402   3.998   0.125
 2858SOL    HW1 8602   3.341   3.923   0.148
 2858SOL    HW2 8603   3.424   4.050   0.208
 2859SOL     OW 8604   3.165   4.562   0.042
 2859SOL    HW1 8605   3.199   4.469   0.057
 2859SOL    HW2 8606   3.183   4.589  -0.053
 2860SOL     OW 8607   2.181   4.534   0.949
 2860SOL    HW1 8608   2.274   4.570   0.954
 2860SOL    HW2 8609   2.175   4.449   1.001
 2861SOL     OW 8610   2.201   4.233   1.006
 2861SOL    HW1 8611   2.149   4.150   0.989
 2861SOL    HW2 8612   2.278   4.238   0.942
 2862SOL     OW 8613   3.000   4.104   1.678
 2862SOL    HW1 8614   2.955   4.167   1.742
 2862SOL    HW2 8615   3.093   4.135   1.661
 2863SOL     OW 8616   3.022   3.931   1.477
 2863SOL    HW1 8617   3.022   3.995   1.554
 2863SOL    HW2 8618   3.050   3.979   1.394
 2864SOL     OW 8619   2.864   4.520   1.238
 2864SOL    HW1 8620   2.905   4.488   1.324
 2864SOL    HW2 8621   2.768   4.493   1.235
 2865SOL     OW 8622   1.902   4.268   1.114
 2865SOL    HW1 8623   1.987   4.235   1.073
 2865SOL    HW2 8624   1.915   4.283   1.212
 2866SOL     OW 8625   2.051   4.244   1.722
 2866SOL    HW1 8626   2.110   4.204   1.652
 2866SOL    HW2 8627   1.993   4.315   1.681
 2867SOL     OW 8628   3.231   4.674   1.660
 2867SOL    HW1 8629   3.270   4.763   1.680
 2867SOL    HW2 8630   3.241   4.654   1.563
 2868SOL     OW 8631   2.677   4.296   0.325
 2868SOL    HW1 8632   2.684   4.207   0.279
 2868SOL    HW2 8633   2.583   4.330   0.317
 2869SOL     OW 8634   3.519   4.328   1.206
 2869SOL    HW1 8635   3.481   4.259   1.268
 2869SOL    HW2 8636   3.601   4.292   1.162
 2870SOL     OW 8637   2.533   4.188   1.269
 2870SOL    HW1 8638   2.499   4.099   1.239
 2870SOL    HW2 8639   2.559   4.242   1.189
 2871SOL     OW 8640   2.335   4.224   0.191
 2871SOL    HW1 8641   2.396   4.304   0.195
 2871SOL    HW2 8642   2.240   4.255   0.198
 2872SOL     OW 8643   2.021   4.861   1.466
 2872SOL    HW1 8644   2.043   4.800   1.542
 2872SOL    HW2 8645   2.031   4.812   1.380
 2873SOL     OW 8646   3.209   4.783   1.234
 2873SOL    HW1 8647   3.233   4.720   1.160
 2873SOL    HW2 8648   3.119   4.823   1.216
 2874SOL     OW 8649   3.164   4.579   0.309
 2874SOL    HW1 8650   3.078   4.548   0.351
 2874SOL    HW2 8651   3.160   4.565   0.210
 2875SOL     OW 8652   1.945   4.982   1.022
 2875SOL    HW1 8653   1.940   4.981   1.122
 2875SOL    HW2 8654   1.862   4.941   0.984
 2876SOL     OW 8655   2.765   3.810   0.133
 2876SOL    HW1 8656   2.816   3.811   0.047
 2876SOL    HW2 8657   2.821   3.768   0.204
 2877SOL     OW 8658   3.588   3.859   0.523
 2877SOL    HW1 8659   3.661   3.842   0.456
 2877SOL    HW2 8660   3.557   3.772   0.561
 2878SOL     OW 8661   3.142   4.651   0.672
 2878SOL    HW1 8662   3.202   4.570   0.674
 2878SOL    HW2 8663   3.182   4.720   0.612
 2879SOL     OW 8664   2.692   4.997   1.422
 2879SOL    HW1 8665   2.687   5.030   1.517
 2879SOL    HW2 8666   2.606   5.016   1.376
 2880SOL     OW 8667   3.703   3.899   0.963
 2880SOL    HW1 8668   3.742   3.814   0.927
 2880SOL    HW2 8669   3.605   3.901   0.944
 2881SOL     OW 8670   2.125   4.050   0.720
 2881SOL    HW1 8671   2.046   4.101   0.686
 2881SOL    HW2 8672   2.116   4.035   0.818
 2882SOL     OW 8673   2.684   4.726   1.372
 2882SOL    HW1 8674   2.724   4.725   1.280
 2882SOL    HW2 8675   2.694   4.818   1.412
 2883SOL     OW 8676   2.778   4.634   0.291
 2883SOL    HW1 8677   2.841   4.672   0.223
 2883SOL    HW2 8678   2.818   4.551   0.330
 2884SOL     OW 8679   2.234   5.012   1.490
 2884SOL    HW1 8680   2.221   5.105   1.456
 2884SOL    HW2 8681   2.150   4.960   1.477
 2885SOL     OW 8682   3.476   5.016   1.289
 2885SOL    HW1 8683   3.536   5.019   1.369
 2885SOL    HW2 8684   3.401   5.080   1.302
 2886SOL     OW 8685   2.901   4.822   0.696
 2886SOL    HW1 8686   2.831   4.775   0.750
 2886SOL    HW2 8687   2.960   4.754   0.653
 2887SOL     OW 8688   2.876   3.960   0.971
 2887SOL    HW1 8689   2.868   3.924   0.878
 2887SOL    HW2 8690   2.874   3.884   1.036
 2888SOL     OW 8691   3.571   4.109   1.381
 2888SOL    HW1 8692   3.644   4.178   1.385
 2888SOL    HW2 8693   3.599   4.034   1.322
 2889SOL     OW 8694   1.967   4.737   1.726
 2889SOL    HW1 8695   1.890   4.704   1.780
 2889SOL    HW2 8696   2.052   4.707   1.768
 2890SOL     OW 8697   2.534   3.927   1.489
 2890SOL    HW1 8698   2.624   3.911   1.449
 2890SOL    HW2 8699   2.542   3.932   1.588
 2891SOL     OW 8700   3.302   4.580   1.398
 2891SOL    HW1 8701   3.245   4.632   1.335
 2891SOL    HW2 8702   3.398   4.592   1.374
 2892SOL     OW 8703   1.934   3.890   0.318
 2892SOL    HW1 8704   1.917   3.973   0.264
 2892SOL    HW2 8705   2.024   3.853   0.296
 2893SOL     OW 8706   2.475   4.566   1.431
 2893SOL    HW1 8707   2.531   4.647   1.414
 2893SOL    HW2 8708   2.534   4.486   1.434
 2894SOL     OW 8709   2.578   4.289   1.708
 2894SOL    HW1 8710   2.597   4.354   1.782
 2894SOL    HW2 8711   2.638   4.209   1.717
 2895SOL     OW 8712   3.312   4.944   1.633
 2895SOL    HW1 8713   3.303   4.934   1.732
 2895SOL    HW2 8714   3.408   4.937   1.607
 2896SOL     OW 8715   3.536   4.607   1.254
 2896SOL    HW1 8716   3.509   4.518   1.217
 2896SOL    HW2 8717   3.537   4.675   1.181
 2897SOL     OW 8718   3.087   4.049   0.449
 2897SOL    HW1 8719   3.152   3.975   0.438
 2897SOL    HW2 8720   3.107   4.099   0.533
 2898SOL     OW 8721   2.456   4.469   0.652
 2898SOL    HW1 8722   2.506   4.554   0.633
 2898SOL    HW2 8723   2.368   4.471   0.604
 2899SOL     OW 8724   3.639   4.066   1.642
 2899SOL    HW1 8725   3.622   4.097   1.548
 2899SOL    HW2 8726   3.555   4.029   1.680
 2900SOL     OW 8727   3.592   4.658   1.517
 2900SOL    HW1 8728   3.630   4.749   1.532
 2900SOL    HW2 8729   3.584   4.641   1.418
 2901SOL     OW 8730   2.721   4.680   0.861
 2901SOL    HW1 8731   2.775   4.611   0.909
 2901SOL    HW2 8732   2.689   4.749   0.927
 2902SOL     OW 8733   2.945   4.708   0.087
 2902SOL    HW1 8734   2.922   4.761   0.005
 2902SOL    HW2 8735   3.026   4.652   0.068
 2903SOL     OW 8736   2.083   5.038   1.844
 2903SOL    HW1 8737   2.018   4.965   1.823
 2903SOL    HW2 8738   2.087   5.052   1.942
 2904SOL     OW 8739   1.941   4.964   0.653
 2904SOL    HW1 8740   1.940   4.917   0.741
 2904SOL    HW2 8741   2.023   4.936   0.602
 2905SOL     OW 8742   3.686   3.916   1.227
 2905SOL    HW1 8743   3.682   3.826   1.271
 2905SOL    HW2 8744   3.689   3.905   1.128
 2906SOL     OW 8745   2.290   4.148   0.520
 2906SOL    HW1 8746   2.320   4.076   0.458
 2906SOL    HW2 8747   2.251   4.108   0.603
 2907SOL     OW 8748   2.179   4.271   1.280
 2907SOL    HW1 8749   2.217   4.212   1.352
 2907SOL    HW2 8750   2.219   4.245   1.192
 2908SOL     OW 8751   3.286   3.938   1.112
 2908SOL    HW1 8752   3.338   3.873   1.167
 2908SOL    HW2 8753   3.237   4.001   1.173
 2909SOL     OW 8754   2.863   3.758   1.154
 2909SOL    HW1 8755   2.800   3.686   1.123
 2909SOL    HW2 8756   2.956   3.722   1.154
 2910SOL     OW 8757   2.632   5.054   0.301
 2910SOL    HW1 8758   2.586   4.967   0.318
 2910SOL    HW2 8759   2.723   5.051   0.342
 2911SOL     OW 8760   3.214   3.776   0.168
 2911SOL    HW1 8761   3.249   3.735   0.084
 2911SOL    HW2 8762   3.124   3.738   0.188
 2912SOL     OW 8763   3.162   4.177   0.691
 2912SOL    HW1 8764   3.103   4.257   0.695
 2912SOL    HW2 8765   3.177   4.142   0.784
 2913SOL     OW 8766   3.455   3.945   0.882
 2913SOL    HW1 8767   3.371   3.944   0.936
 2913SOL    HW2 8768   3.457   4.028   0.826
 2914SOL     OW 8769   1.901   4.801   0.300
 2914SOL    HW1 8770   2.000   4.790   0.291
 2914SOL    HW2 8771   1.861   4.715   0.332
 2915SOL     OW 8772   2.092   4.352   1.975
 2915SOL    HW1 8773   1.999   4.350   2.012
 2915SOL    HW2 8774   2.093   4.313   1.883
 2916SOL     OW 8775   2.087   3.999   2.858
 2916SOL    HW1 8776   2.122   3.982   2.950
 2916SOL    HW2 8777   1.999   3.954   2.846
 2917SOL     OW 8778   1.881   4.092   2.509
 2917SOL    HW1 8779   1.799   4.135   2.548
 2917SOL    HW2 8780   1.853   4.019   2.446
 2918SOL     OW 8781   2.431   4.999   3.027
 2918SOL    HW1 8782   2.338   4.992   2.990
 2918SOL    HW2 8783   2.442   5.088   3.071
 2919SOL     OW 8784   3.417   5.235   2.565
 2919SOL    HW1 8785   3.360   5.219   2.646
 2919SOL    HW2 8786   3.358   5.245   2.485
 2920SOL     OW 8787   2.997   4.427   2.579
 2920SOL    HW1 8788   3.054   4.505   2.554
 2920SOL    HW2 8789   2.937   4.453   2.655
 2921SOL     OW 8790   3.617   4.331   2.093
 2921SOL    HW1 8791   3.605   4.318   1.994
 2921SOL    HW2 8792   3.587   4.250   2.142
 2922SOL     OW 8793   2.630   4.868   2.885
 2922SOL    HW1 8794   2.552   4.885   2.945
 2922SOL    HW2 8795   2.664   4.955   2.849
 2923SOL     OW 8796   2.712   4.522   3.685
 2923SOL    HW1 8797   2.708   4.598   3.750
 2923SOL    HW2 8798   2.734   4.558   3.594
 2924SOL     OW 8799   2.547   4.736   2.527
 2924SOL    HW1 8800   2.616   4.720   2.597
 2924SOL    HW2 8801   2.474   4.793   2.565
 2925SOL     OW 8802   2.548   4.885   3.665
 2925SOL    HW1 8803   2.608   4.964   3.679
 2925SOL    HW2 8804   2.462   4.916   3.624
 2926SOL     OW 8805   2.197   5.159   2.923
 2926SOL    HW1 8806   2.119   5.128   2.870
 2926SOL    HW2 8807   2.255   5.217   2.866
 2927SOL     OW 8808   2.300   4.116   3.361
 2927SOL    HW1 8809   2.382   4.060   3.370
 2927SOL    HW2 8810   2.219   4.058   3.365
 2928SOL     OW 8811   3.465   4.171   2.599
 2928SOL    HW1 8812   3.391   4.217   2.549
 2928SOL    HW2 8813   3.516   4.239   2.652
 2929SOL     OW 8814   2.102   4.815   2.748
 2929SOL    HW1 8815   2.116   4.731   2.800
 2929SOL    HW2 8816   2.047   4.879   2.803
 2930SOL     OW 8817   2.468   4.688   1.985
 2930SOL    HW1 8818   2.475   4.772   1.931
 2930SOL    HW2 8819   2.514   4.701   2.073
 2931SOL     OW 8820   3.456   3.838   3.342
 2931SOL    HW1 8821   3.438   3.905   3.270
 2931SOL    HW2 8822   3.453   3.884   3.431
 2932SOL     OW 8823   1.984   4.367   2.425
 2932SOL    HW1 8824   1.939   4.279   2.442
 2932SOL    HW2 8825   1.983   4.421   2.509
 2933SOL     OW 8826   3.551   4.646   2.474
 2933SOL    HW1 8827   3.646   4.617   2.482
 2933SOL    HW2 8828   3.543   4.711   2.399
 2934SOL     OW 8829   3.503   4.832   2.294
 2934SOL    HW1 8830   3.589   4.834   2.242
 2934SOL    HW2 8831   3.517   4.879   2.382
 2935SOL     OW 8832   1.975   4.461   3.459
 2935SOL    HW1 8833   2.063   4.448   3.504
 2935SOL    HW2 8834   1.962   4.558   3.437
 2936SOL     OW 8835   3.155   4.952   3.285
 2936SOL    HW1 8836   3.192   4.879   3.227
 2936SOL    HW2 8837   3.207   4.957   3.370
 2937SOL     OW 8838   2.671   3.728   2.364
 2937SOL    HW1 8839   2.711   3.819   2.355
 2937SOL    HW2 8840   2.571   3.736   2.370
 2938SOL     OW 8841   2.059   4.700   3.126
 2938SOL    HW1 8842   2.148   4.655   3.112
 2938SOL    HW2 8843   1.986   4.635   3.107
 2939SOL     OW 8844   3.387   4.723   2.052
 2939SOL    HW1 8845   3.324   4.647   2.065
 2939SOL    HW2 8846   3.435   4.741   2.138
 2940SOL     OW 8847   2.179   3.975   3.663
 2940SOL    HW1 8848   2.250   4.046   3.669
 2940SOL    HW2 8849   2.091   4.014   3.691
 2941SOL     OW 8850   3.328   5.141   2.815
 2941SOL    HW1 8851   3.269   5.147   2.895
 2941SOL    HW2 8852   3.313   5.053   2.769
 2942SOL     OW 8853   2.460   4.453   2.132
 2942SOL    HW1 8854   2.484   4.522   2.064
 2942SOL    HW2 8855   2.382   4.486   2.186
 2943SOL     OW 8856   3.143   4.069   2.806
 2943SOL    HW1 8857   3.057   4.019   2.793
 2943SOL    HW2 8858   3.205   4.015   2.862
 2944SOL     OW 8859   2.669   4.329   3.327
 2944SOL    HW1 8860   2.622   4.326   3.416
 2944SOL    HW2 8861   2.618   4.274   3.261
 2945SOL     OW 8862   3.256   4.193   3.536
 2945SOL    HW1 8863   3.236   4.236   3.624
 2945SOL    HW2 8864   3.334   4.131   3.545
 2946SOL     OW 8865   2.835   4.614   3.434
 2946SOL    HW1 8866   2.881   4.530   3.405
 2946SOL    HW2 8867   2.779   4.648   3.359
 2947SOL     OW 8868   2.853   4.134   3.104
 2947SOL    HW1 8869   2.776   4.168   3.158
 2947SOL    HW2 8870   2.819   4.083   3.025
 2948SOL     OW 8871   2.903   4.425   2.291
 2948SOL    HW1 8872   2.929   4.421   2.387
 2948SOL    HW2 8873   2.818   4.374   2.277
 2949SOL     OW 8874   1.938   4.535   2.651
 2949SOL    HW1 8875   2.037   4.523   2.660
 2949SOL    HW2 8876   1.914   4.630   2.672
 2950SOL     OW 8877   2.727   4.072   2.057
 2950SOL    HW1 8878   2.786   4.135   2.008
 2950SOL    HW2 8879   2.746   3.978   2.028
 2951SOL     OW 8880   3.581   4.309   3.693
 2951SOL    HW1 8881   3.555   4.398   3.657
 2951SOL    HW2 8882   3.579   4.241   3.620
 2952SOL     OW 8883   3.224   4.868   2.407
 2952SOL    HW1 8884   3.307   4.839   2.359
 2952SOL    HW2 8885   3.175   4.935   2.351
 2953SOL     OW 8886   2.412   3.920   2.747
 2953SOL    HW1 8887   2.407   3.915   2.847
 2953SOL    HW2 8888   2.414   4.016   2.718
 2954SOL     OW 8889   3.657   4.790   2.735
 2954SOL    HW1 8890   3.595   4.775   2.659
 2954SOL    HW2 8891   3.605   4.801   2.820
 2955SOL     OW 8892   2.183   4.667   2.104
 2955SOL    HW1 8893   2.265   4.706   2.062
 2955SOL    HW2 8894   2.156   4.585   2.055
 2956SOL     OW 8895   3.320   4.459   2.590
 2956SOL    HW1 8896   3.315   4.394   2.665
 2956SOL    HW2 8897   3.400   4.518   2.603
 2957SOL     OW 8898   2.064   4.009   3.360
 2957SOL    HW1 8899   1.984   4.069   3.347
 2957SOL    HW2 8900   2.054   3.960   3.446
 2958SOL     OW 8901   3.494   5.101   1.943
 2958SOL    HW1 8902   3.462   5.195   1.933
 2958SOL    HW2 8903   3.418   5.038   1.931
 2959SOL     OW 8904   3.262   3.831   2.288
 2959SOL    HW1 8905   3.238   3.794   2.198
 2959SOL    HW2 8906   3.361   3.847   2.292
 2960SOL     OW 8907   2.244   4.424   2.342
 2960SOL    HW1 8908   2.289   4.334   2.339
 2960SOL    HW2 8909   2.150   4.413   2.375
 2961SOL     OW 8910   3.409   3.946   3.591
 2961SOL    HW1 8911   3.404   3.983   3.683
 2961SOL    HW2 8912   3.337   3.877   3.579
 2962SOL     OW 8913   2.476   3.846   1.979
 2962SOL    HW1 8914   2.574   3.824   1.986
 2962SOL    HW2 8915   2.445   3.829   1.886
 2963SOL     OW 8916   2.643   3.988   3.611
 2963SOL    HW1 8917   2.710   3.927   3.654
 2963SOL    HW2 8918   2.570   4.007   3.676
 2964SOL     OW 8919   3.213   4.314   3.295
 2964SOL    HW1 8920   3.241   4.271   3.380
 2964SOL    HW2 8921   3.238   4.410   3.296
 2965SOL     OW 8922   2.784   4.227   2.761
 2965SOL    HW1 8923   2.759   4.218   2.665
 2965SOL    HW2 8924   2.832   4.145   2.792
 2966SOL     OW 8925   2.401   3.788   2.374
 2966SOL    HW1 8926   2.320   3.789   2.432
 2966SOL    HW2 8927   2.404   3.871   2.319
 2967SOL     OW 8928   3.296   4.912   1.903
 2967SOL    HW1 8929   3.328   4.836   1.960
 2967SOL    HW2 8930   3.204   4.939   1.933
 2968SOL     OW 8931   2.159   3.759   2.033
 2968SOL    HW1 8932   2.208   3.843   2.012
 2968SOL    HW2 8933   2.221   3.694   2.078
 2969SOL     OW 8934   2.797   3.960   2.342
 2969SOL    HW1 8935   2.749   4.001   2.264
 2969SOL    HW2 8936   2.896   3.958   2.323
 2970SOL     OW 8937   2.938   4.407   3.326
 2970SOL    HW1 8938   2.858   4.346   3.329
 2970SOL    HW2 8939   3.019   4.354   3.302
 2971SOL     OW 8940   3.089   5.294   2.655
 2971SOL    HW1 8941   3.110   5.368   2.590
 2971SOL    HW2 8942   3.157   5.294   2.728
 2972SOL     OW 8943   2.321   4.876   2.603
 2972SOL    HW1 8944   2.250   4.849   2.668
 2972SOL    HW2 8945   2.295   4.848   2.510
 2973SOL     OW 8946   2.894   4.273   1.878
 2973SOL    HW1 8947   2.853   4.355   1.839
 2973SOL    HW2 8948   2.958   4.299   1.951
 2974SOL     OW 8949   1.940   4.280   3.248
 2974SOL    HW1 8950   2.032   4.279   3.207
 2974SOL    HW2 8951   1.934   4.354   3.315
 2975SOL     OW 8952   2.423   3.946   3.009
 2975SOL    HW1 8953   2.461   3.862   3.046
 2975SOL    HW2 8954   2.335   3.965   3.053
 2976SOL     OW 8955   2.728   4.178   2.504
 2976SOL    HW1 8956   2.696   4.250   2.442
 2976SOL    HW2 8957   2.752   4.097   2.451
 2977SOL     OW 8958   2.879   3.763   2.615
 2977SOL    HW1 8959   2.807   3.768   2.546
 2977SOL    HW2 8960   2.855   3.694   2.684
 2978SOL     OW 8961   3.291   4.897   2.729
 2978SOL    HW1 8962   3.236   4.813   2.722
 2978SOL    HW2 8963   3.317   4.926   2.637
 2979SOL     OW 8964   3.328   4.314   2.854
 2979SOL    HW1 8965   3.298   4.219   2.861
 2979SOL    HW2 8966   3.401   4.330   2.920
 2980SOL     OW 8967   3.719   4.557   2.239
 2980SOL    HW1 8968   3.761   4.493   2.303
 2980SOL    HW2 8969   3.681   4.506   2.161
 2981SOL     OW 8970   3.526   5.004   2.519
 2981SOL    HW1 8971   3.625   5.012   2.533
 2981SOL    HW2 8972   3.481   5.088   2.550
 2982SOL     OW 8973   3.252   4.299   1.940
 2982SOL    HW1 8974   3.198   4.278   2.021
 2982SOL    HW2 8975   3.343   4.258   1.949
 2983SOL     OW 8976   2.389   3.980   2.190
 2983SOL    HW1 8977   2.416   3.921   2.115
 2983SOL    HW2 8978   2.389   4.075   2.159
 2984SOL     OW 8979   3.616   4.947   3.450
 2984SOL    HW1 8980   3.707   4.908   3.437
 2984SOL    HW2 8981   3.624   5.043   3.474
 2985SOL     OW 8982   2.926   5.071   3.202
 2985SOL    HW1 8983   2.846   5.048   3.257
 2985SOL    HW2 8984   3.009   5.045   3.251
 2986SOL     OW 8985   2.973   4.919   2.962
 2986SOL    HW1 8986   2.933   4.963   3.043
 2986SOL    HW2 8987   2.932   4.956   2.879
 2987SOL     OW 8988   3.500   4.823   2.941
 2987SOL    HW1 8989   3.505   4.904   3.000
 2987SOL    HW2 8990   3.414   4.825   2.890
 2988SOL     OW 8991   2.777   3.813   3.264
 2988SOL    HW1 8992   2.802   3.793   3.169
 2988SOL    HW2 8993   2.849   3.869   3.306
 2989SOL     OW 8994   2.842   4.840   3.581
 2989SOL    HW1 8995   2.743   4.846   3.591
 2989SOL    HW2 8996   2.865   4.760   3.525
 2990SOL     OW 8997   2.567   4.774   2.230
 2990SOL    HW1 8998   2.553   4.781   2.329
 2990SOL    HW2 8999   2.651   4.723   2.212
 2991SOL     OW 9000   2.272   4.537   3.113
 2991SOL    HW1 9001   2.358   4.549   3.163
 2991SOL    HW2 9002   2.230   4.450   3.140
 2992SOL     OW 9003   3.136   4.110   3.124
 2992SOL    HW1 9004   3.157   4.184   3.188
 2992SOL    HW2 9005   3.047   4.127   3.081
 2993SOL     OW 9006   2.229   4.824   2.363
 2993SOL    HW1 9007   2.222   4.907   2.307
 2993SOL    HW2 9008   2.233   4.744   2.303
 2994SOL     OW 9009   2.428   4.261   2.727
 2994SOL    HW1 9010   2.440   4.327   2.653
 2994SOL    HW2 9011   2.474   4.295   2.810
 2995SOL     OW 9012   3.444   4.363   2.334
 2995SOL    HW1 9013   3.413   4.424   2.407
 2995SOL    HW2 9014   3.494   4.415   2.265
 2996SOL     OW 9015   2.264   4.475   3.460
 2996SOL    HW1 9016   2.332   4.530   3.413
 2996SOL    HW2 9017   2.304   4.387   3.487
 2997SOL     OW 9018   3.449   4.503   3.532
 2997SOL    HW1 9019   3.357   4.541   3.527
 2997SOL    HW2 9020   3.509   4.550   3.467
 2998SOL     OW 9021   2.875   3.829   3.632
 2998SOL    HW1 9022   2.881   3.914   3.580
 2998SOL    HW2 9023   2.907   3.753   3.575
 2999SOL     OW 9024   2.366   3.774   3.602
 2999SOL    HW1 9025   2.324   3.717   3.532
 2999SOL    HW2 9026   2.300   3.843   3.634
 3000SOL     OW 9027   2.435   4.594   2.891
 3000SOL    HW1 9028   2.479   4.683   2.882
 3000SOL    HW2 9029   2.372   4.594   2.968
 3001SOL     OW 9030   3.222   4.586   2.907
 3001SOL    HW1 9031   3.147   4.586   2.841
 3001SOL    HW2 9032   3.259   4.494   2.916
 3002SOL     OW 9033   3.071   4.249   2.137
 3002SOL    HW1 9034   3.084   4.165   2.191
 3002SOL    HW2 9035   3.042   4.323   2.197
 3003SOL     OW 9036   2.169   3.937   3.093
 3003SOL    HW1 9037   2.146   3.974   3.183
 3003SOL    HW2 9038   2.139   3.842   3.087
 3004SOL     OW 9039   2.594   4.358   2.926
 3004SOL    HW1 9040   2.653   4.332   2.850
 3004SOL    HW2 9041   2.566   4.454   2.915
 3005SOL     OW 9042   3.590   4.659   3.716
 3005SOL    HW1 9043   3.544   4.652   3.627
 3005SOL    HW2 9044   3.528   4.703   3.782
 3006SOL     OW 9045   2.169   3.787   2.480
 3006SOL    HW1 9046   2.158   3.881   2.513
 3006SOL    HW2 9047   2.164   3.724   2.557
 3007SOL     OW 9048   3.484   4.091   2.236
 3007SOL    HW1 9049   3.486   4.015   2.300
 3007SOL    HW2 9050   3.436   4.168   2.276
 3008SOL     OW 9051   2.885   4.490   2.828
 3008SOL    HW1 9052   2.900   4.511   2.924
 3008SOL    HW2 9053   2.855   4.395   2.819
 3009SOL     OW 9054   3.721   5.242   3.467
 3009SOL    HW1 9055   3.735   5.269   3.372
 3009SOL    HW2 9056   3.804   5.264   3.520
 3010SOL     OW 9057   2.212   4.622   3.666
 3010SOL    HW1 9058   2.288   4.666   3.714
 3010SOL    HW2 9059   2.247   4.575   3.584
 3011SOL     OW 9060   3.402   3.998   1.987
 3011SOL    HW1 9061   3.341   3.923   2.010
 3011SOL    HW2 9062   3.424   4.050   2.070
 3012SOL     OW 9063   3.165   4.562   1.904
 3012SOL    HW1 9064   3.199   4.469   1.919
 3012SOL    HW2 9065   3.183   4.589   1.809
 3013SOL     OW 9066   2.181   4.534   2.811
 3013SOL    HW1 9067   2.274   4.570   2.816
 3013SOL    HW2 9068   2.175   4.449   2.863
 3014SOL     OW 9069   2.201   4.233   2.868
 3014SOL    HW1 9070   2.149   4.150   2.851
 3014SOL    HW2 9071   2.278   4.238   2.804
 3015SOL     OW 9072   3.000   4.104   3.540
 3015SOL    HW1 9073   2.955   4.167   3.604
 3015SOL    HW2 9074   3.093   4.135   3.523
 3016SOL     OW 9075   3.022   3.931   3.339
 3016SOL    HW1 9076   3.022   3.995   3.416
 3016SOL    HW2 9077   3.050   3.979   3.256
 3017SOL     OW 9078   1.870   5.050   2.062
 3017SOL    HW1 9079   1.777   5.071   2.031
 3017SOL    HW2 9080   1.880   4.951   2.075
 3018SOL     OW 9081   2.864   4.520   3.100
 3018SOL    HW1 9082   2.905   4.488   3.186
 3018SOL    HW2 9083   2.768   4.493   3.097
 3019SOL     OW 9084   1.902   4.268   2.976
 3019SOL    HW1 9085   1.987   4.235   2.935
 3019SOL    HW2 9086   1.915   4.283   3.074
 3020SOL     OW 9087   2.051   4.244   3.584
 3020SOL    HW1 9088   2.110   4.204   3.514
 3020SOL    HW2 9089   1.993   4.315   3.543
 3021SOL     OW 9090   3.231   4.674   3.522
 3021SOL    HW1 9091   3.270   4.763   3.542
 3021SOL    HW2 9092   3.241   4.654   3.425
 3022SOL     OW 9093   2.677   4.296   2.187
 3022SOL    HW1 9094   2.684   4.207   2.141
 3022SOL    HW2 9095   2.583   4.330   2.179
 3023SOL     OW 9096   3.519   4.328   3.068
 3023SOL    HW1 9097   3.481   4.259   3.130
 3023SOL    HW2 9098   3.601   4.292   3.024
 3024SOL     OW 9099   2.533   4.188   3.131
 3024SOL    HW1 9100   2.499   4.099   3.101
 3024SOL    HW2 9101   2.559   4.242   3.051
 3025SOL     OW 9102   2.335   4.224   2.053
 3025SOL    HW1 9103   2.396   4.304   2.057
 3025SOL    HW2 9104   2.240   4.255   2.060
 3026SOL     OW 9105   2.021   4.861   3.328
 3026SOL    HW1 9106   2.043   4.800   3.404
 3026SOL    HW2 9107   2.031   4.812   3.242
 3027SOL     OW 9108   3.209   4.783   3.096
 3027SOL    HW1 9109   3.233   4.720   3.022
 3027SOL    HW2 9110   3.119   4.823   3.078
 3028SOL     OW 9111   3.164   4.579   2.171
 3028SOL    HW1 9112   3.078   4.548   2.213
 3028SOL    HW2 9113   3.160   4.565   2.072
 3029SOL     OW 9114   1.945   4.982   2.884
 3029SOL    HW1 9115   1.940   4.981   2.984
 3029SOL    HW2 9116   1.862   4.941   2.846
 3030SOL     OW 9117   3.588   3.859   2.385
 3030SOL    HW1 9118   3.661   3.842   2.318
 3030SOL    HW2 9119   3.557   3.772   2.423
 3031SOL     OW 9120   3.142   4.651   2.534
 3031SOL    HW1 9121   3.202   4.570   2.536
 3031SOL    HW2 9122   3.182   4.720   2.474
 3032SOL     OW 9123   2.692   4.997   3.284
 3032SOL    HW1 9124   2.687   5.030   3.379
 3032SOL    HW2 9125   2.606   5.016   3.238
 3033SOL     OW 9126   3.703   3.899   2.825
 3033SOL    HW1 9127   3.742   3.814   2.789
 3033SOL    HW2 9128   3.605   3.901   2.806
 3034SOL     OW 9129   2.125   4.050   2.582
 3034SOL    HW1 9130   2.046   4.101   2.548
 3034SOL    HW2 9131   2.116   4.035   2.680
 3035SOL     OW 9132   3.056   5.336   1.893
 3035SOL    HW1 9133   3.062   5.243   1.930
 3035SOL    HW2 9134   2.997   5.336   1.813
 3036SOL     OW 9135   2.684   4.726   3.234
 3036SOL    HW1 9136   2.724   4.725   3.142
 3036SOL    HW2 9137   2.694   4.818   3.274
 3037SOL     OW 9138   2.778   4.634   2.153
 3037SOL    HW1 9139   2.841   4.672   2.085
 3037SOL    HW2 9140   2.818   4.551   2.192
 3038SOL     OW 9141   2.234   5.012   3.352
 3038SOL    HW1 9142   2.221   5.105   3.318
 3038SOL    HW2 9143   2.150   4.960   3.339
 3039SOL     OW 9144   3.476   5.016   3.151
 3039SOL    HW1 9145   3.536   5.019   3.231
 3039SOL    HW2 9146   3.401   5.080   3.164
 3040SOL     OW 9147   2.901   4.822   2.558
 3040SOL    HW1 9148   2.831   4.775   2.612
 3040SOL    HW2 9149   2.960   4.754   2.515
 3041SOL     OW 9150   2.876   3.960   2.833
 3041SOL    HW1 9151   2.868   3.924   2.740
 3041SOL    HW2 9152   2.874   3.884   2.898
 3042SOL     OW 9153   3.571   4.109   3.243
 3042SOL    HW1 9154   3.644   4.178   3.247
 3042SOL    HW2 9155   3.599   4.034   3.184
 3043SOL     OW 9156   1.967   4.737   3.588
 3043SOL    HW1 9157   1.890   4.704   3.642
 3043SOL    HW2 9158   2.052   4.707   3.630
 3044SOL     OW 9159   2.534   3.927   3.351
 3044SOL    HW1 9160   2.624   3.911   3.311
 3044SOL    HW2 9161   2.542   3.932   3.450
 3045SOL     OW 9162   1.937   4.069   1.895
 3045SOL    HW1 9163   1.845   4.041   1.866
 3045SOL    HW2 9164   1.968   4.146   1.839
 3046SOL     OW 9165   3.302   4.580   3.260
 3046SOL    HW1 9166   3.245   4.632   3.197
 3046SOL    HW2 9167   3.398   4.592   3.236
 3047SOL     OW 9168   1.934   3.890   2.180
 3047SOL    HW1 9169   1.917   3.973   2.126
 3047SOL    HW2 9170   2.024   3.853   2.158
 3048SOL     OW 9171   2.475   4.566   3.293
 3048SOL    HW1 9172   2.531   4.647   3.276
 3048SOL    HW2 9173   2.534   4.486   3.296
 3049SOL     OW 9174   2.578   4.289   3.570
 3049SOL    HW1 9175   2.597   4.354   3.644
 3049SOL    HW2 9176   2.638   4.209   3.579
 3050SOL     OW 9177   3.312   4.944   3.495
 3050SOL    HW1 9178   3.303   4.934   3.594
 3050SOL    HW2 9179   3.408   4.937   3.469
 3051SOL     OW 9180   3.536   4.607   3.116
 3051SOL    HW1 9181   3.509   4.518   3.079
 3051SOL    HW2 9182   3.537   4.675   3.043
 3052SOL     OW 9183   3.087   4.049   2.311
 3052SOL    HW1 9184   3.152   3.975   2.300
 3052SOL    HW2 9185   3.107   4.099   2.395
 3053SOL     OW 9186   2.456   4.469   2.514
 3053SOL    HW1 9187   2.506   4.554   2.495
 3053SOL    HW2 9188   2.368   4.471   2.466
 3054SOL     OW 9189   3.639   4.066   3.504
 3054SOL    HW1 9190   3.622   4.097   3.410
 3054SOL    HW2 9191   3.555   4.029   3.542
 3055SOL     OW 9192   3.592   4.658   3.379
 3055SOL    HW1 9193   3.630   4.749   3.394
 3055SOL    HW2 9194   3.584   4.641   3.280
 3056SOL     OW 9195   2.721   4.680   2.723
 3056SOL    HW1 9196   2.775   4.611   2.771
 3056SOL    HW2 9197   2.689   4.749   2.789
 3057SOL     OW 9198   2.945   4.708   1.949
 3057SOL    HW1 9199   2.922   4.761   1.867
 3057SOL    HW2 9200   3.026   4.652   1.930
 3058SOL     OW 9201   2.083   5.038   3.706
 3058SOL    HW1 9202   2.018   4.965   3.685
 3058SOL    HW2 9203   2.087   5.052   3.804
 3059SOL     OW 9204   1.941   4.964   2.515
 3059SOL    HW1 9205   1.940   4.917   2.603
 3059SOL    HW2 9206   2.023   4.936   2.464
 3060SOL     OW 9207   3.686   3.916   3.089
 3060SOL    HW1 9208   3.682   3.826   3.133
 3060SOL    HW2 9209   3.689   3.905   2.990
 3061SOL     OW 9210   2.290   4.148   2.382
 3061SOL    HW1 9211   2.320   4.076   2.320
 3061SOL    HW2 9212   2.251   4.108   2.465
 3062SOL     OW 9213   2.179   4.271   3.142
 3062SOL    HW1 9214   2.217   4.212   3.214
 3062SOL    HW2 9215   2.219   4.245   3.054
 3063SOL     OW 9216   3.286   3.938   2.974
 3063SOL    HW1 9217   3.338   3.873   3.029
 3063SOL    HW2 9218   3.237   4.001   3.035
 3064SOL     OW 9219   2.863   3.758   3.016
 3064SOL    HW1 9220   2.800   3.686   2.985
 3064SOL    HW2 9221   2.956   3.722   3.016
 3065SOL     OW 9222   2.632   5.054   2.163
 3065SOL    HW1 9223   2.586   4.967   2.180
 3065SOL    HW2 9224   2.723   5.051   2.204
 3066SOL     OW 9225   3.214   3.776   2.030
 3066SOL    HW1 9226   3.249   3.735   1.946
 3066SOL    HW2 9227   3.124   3.738   2.050
 3067SOL     OW 9228   3.162   4.177   2.553
 3067SOL    HW1 9229   3.103   4.257   2.557
 3067SOL    HW2 9230   3.177   4.142   2.646
 3068SOL     OW 9231   3.455   3.945   2.744
 3068SOL    HW1 9232   3.371   3.944   2.798
 3068SOL    HW2 9233   3.457   4.028   2.688
 3069SOL     OW 9234   1.901   4.801   2.162
 3069SOL    HW1 9235   2.000   4.790   2.153
 3069SOL    HW2 9236   1.861   4.715   2.194
 3070SOL     OW 9237   2.092   4.352   3.837
 3070SOL    HW1 9238   1.999   4.350   3.874
 3070SOL    HW2 9239   2.093   4.313   3.745
 3071SOL     OW 9240   2.087   3.999   4.720
 3071SOL    HW1 9241   2.122   3.982   4.812
 3071SOL    HW2 9242   1.999   3.954   4.708
 3072SOL     OW 9243   1.881   4.092   4.371
 3072SOL    HW1 9244   1.799   4.135   4.410
 3072SOL    HW2 9245   1.853   4.019   4.308
 3073SOL     OW 9246   2.431   4.999   4.889
 3073SOL    HW1 9247   2.338   4.992   4.852
 3073SOL    HW2 9248   2.442   5.088   4.933
 3074SOL     OW 9249   3.417   5.235   4.427
 3074SOL    HW1 9250   3.360   5.219   4.508
 3074SOL    HW2 9251   3.358   5.245   4.347
 3075SOL     OW 9252   2.997   4.427   4.441
 3075SOL    HW1 9253   3.054   4.505   4.416
 3075SOL    HW2 9254   2.937   4.453   4.517
 3076SOL     OW 9255   3.617   4.331   3.955
 3076SOL    HW1 9256   3.605   4.318   3.856
 3076SOL    HW2 9257   3.587   4.250   4.004
 3077SOL     OW 9258   2.630   4.868   4.747
 3077SOL    HW1 9259   2.552   4.885   4.807
 3077SOL    HW2 9260   2.664   4.955   4.711
 3078SOL     OW 9261   2.547   4.736   4.389
 3078SOL    HW1 9262   2.616   4.720   4.459
 3078SOL    HW2 9263   2.474   4.793   4.427
 3079SOL     OW 9264   2.197   5.159   4.785
 3079SOL    HW1 9265   2.119   5.128   4.732
 3079SOL    HW2 9266   2.255   5.217   4.728
 3080SOL     OW 9267   3.465   4.171   4.461
 3080SOL    HW1 9268   3.391   4.217   4.411
 3080SOL    HW2 9269   3.516   4.239   4.514
 3081SOL     OW 9270   2.102   4.815   4.610
 3081SOL    HW1 9271   2.116   4.731   4.662
 3081SOL    HW2 9272   2.047   4.879   4.665
 3082SOL     OW 9273   2.468   4.688   3.847
 3082SOL    HW1 9274   2.475   4.772   3.793
 3082SOL    HW2 9275   2.514   4.701   3.935
 3083SOL     OW 9276   1.984   4.367   4.287
 3083SOL    HW1 9277   1.939   4.279   4.304
 3083SOL    HW2 9278   1.983   4.421   4.371
 3084SOL     OW 9279   3.551   4.646   4.336
 3084SOL    HW1 9280   3.646   4.617   4.344
 3084SOL    HW2 9281   3.543   4.711   4.261
 3085SOL     OW 9282   3.503   4.832   4.156
 3085SOL    HW1 9283   3.589   4.834   4.104
 3085SOL    HW2 9284   3.517   4.879   4.244
 3086SOL     OW 9285   2.671   3.728   4.226
 3086SOL    HW1 9286   2.711   3.819   4.217
 3086SOL    HW2 9287   2.571   3.736   4.232
 3087SOL     OW 9288   2.059   4.700   4.988
 3087SOL    HW1 9289   2.148   4.655   4.974
 3087SOL    HW2 9290   1.986   4.635   4.969
 3088SOL     OW 9291   3.387   4.723   3.914
 3088SOL    HW1 9292   3.324   4.647   3.927
 3088SOL    HW2 9293   3.435   4.741   4.000
 3089SOL     OW 9294   3.328   5.141   4.677
 3089SOL    HW1 9295   3.269   5.147   4.757
 3089SOL    HW2 9296   3.313   5.053   4.631
 3090SOL     OW 9297   2.460   4.453   3.994
 3090SOL    HW1 9298   2.484   4.522   3.926
 3090SOL    HW2 9299   2.382   4.486   4.048
 3091SOL     OW 9300   3.143   4.069   4.668
 3091SOL    HW1 9301   3.057   4.019   4.655
 3091SOL    HW2 9302   3.205   4.015   4.724
 3092SOL     OW 9303   2.669   4.329   5.189
 3092SOL    HW1 9304   2.622   4.326   5.278
 3092SOL    HW2 9305   2.618   4.274   5.123
 3093SOL     OW 9306   2.853   4.134   4.966
 3093SOL    HW1 9307   2.776   4.168   5.020
 3093SOL    HW2 9308   2.819   4.083   4.887
 3094SOL     OW 9309   2.903   4.425   4.153
 3094SOL    HW1 9310   2.929   4.421   4.249
 3094SOL    HW2 9311   2.818   4.374   4.139
 3095SOL     OW 9312   1.938   4.535   4.513
 3095SOL    HW1 9313   2.037   4.523   4.522
 3095SOL    HW2 9314   1.914   4.630   4.534
 3096SOL     OW 9315   2.727   4.072   3.919
 3096SOL    HW1 9316   2.786   4.135   3.870
 3096SOL    HW2 9317   2.746   3.978   3.890
 3097SOL     OW 9318   3.224   4.868   4.269
 3097SOL    HW1 9319   3.307   4.839   4.221
 3097SOL    HW2 9320   3.175   4.935   4.213
 3098SOL     OW 9321   2.412   3.920   4.609
 3098SOL    HW1 9322   2.407   3.915   4.709
 3098SOL    HW2 9323   2.414   4.016   4.580
 3099SOL     OW 9324   3.657   4.790   4.597
 3099SOL    HW1 9325   3.595   4.775   4.521
 3099SOL    HW2 9326   3.605   4.801   4.682
 3100SOL     OW 9327   2.183   4.667   3.966
 3100SOL    HW1 9328   2.265   4.706   3.924
 3100SOL    HW2 9329   2.156   4.585   3.917
 3101SOL     OW 9330   3.320   4.459   4.452
 3101SOL    HW1 9331   3.315   4.394   4.527
 3101SOL    HW2 9332   3.400   4.518   4.465
 3102SOL     OW 9333   2.064   4.009   5.222
 3102SOL    HW1 9334   1.984   4.069   5.209
 3102SOL    HW2 9335   2.054   3.960   5.308
 3103SOL     OW 9336   3.494   5.101   3.805
 3103SOL    HW1 9337   3.462   5.195   3.795
 3103SOL    HW2 9338   3.418   5.038   3.793
 3104SOL     OW 9339   3.262   3.831   4.150
 3104SOL    HW1 9340   3.238   3.794   4.060
 3104SOL    HW2 9341   3.361   3.847   4.154
 3105SOL     OW 9342   2.244   4.424   4.204
 3105SOL    HW1 9343   2.289   4.334   4.201
 3105SOL    HW2 9344   2.150   4.413   4.237
 3106SOL     OW 9345   2.476   3.846   3.841
 3106SOL    HW1 9346   2.574   3.824   3.848
 3106SOL    HW2 9347   2.445   3.829   3.748
 3107SOL     OW 9348   2.784   4.227   4.623
 3107SOL    HW1 9349   2.759   4.218   4.527
 3107SOL    HW2 9350   2.832   4.145   4.654
 3108SOL     OW 9351   2.401   3.788   4.236
 3108SOL    HW1 9352   2.320   3.789   4.294
 3108SOL    HW2 9353   2.404   3.871   4.181
 3109SOL     OW 9354   3.296   4.912   3.765
 3109SOL    HW1 9355   3.328   4.836   3.822
 3109SOL    HW2 9356   3.204   4.939   3.795
 3110SOL     OW 9357   2.159   3.759   3.895
 3110SOL    HW1 9358   2.208   3.843   3.874
 3110SOL    HW2 9359   2.221   3.694   3.940
 3111SOL     OW 9360   2.797   3.960   4.204
 3111SOL    HW1 9361   2.749   4.001   4.126
 3111SOL    HW2 9362   2.896   3.958   4.185
 3112SOL     OW 9363   3.089   5.294   4.517
 3112SOL    HW1 9364   3.110   5.368   4.452
 3112SOL    HW2 9365   3.157   5.294   4.590
 3113SOL     OW 9366   2.321   4.876   4.465
 3113SOL    HW1 9367   2.250   4.849   4.530
 3113SOL    HW2 9368   2.295   4.848   4.372
 3114SOL     OW 9369   2.894   4.273   3.740
 3114SOL    HW1 9370   2.853   4.355   3.701
 3114SOL    HW2 9371   2.958   4.299   3.813
 3115SOL     OW 9372   2.423   3.946   4.871
 3115SOL    HW1 9373   2.461   3.862   4.908
 3115SOL    HW2 9374   2.335   3.965   4.915
 3116SOL     OW 9375   2.728   4.178   4.366
 3116SOL    HW1 9376   2.696   4.250   4.304
 3116SOL    HW2 9377   2.752   4.097   4.313
 3117SOL     OW 9378   2.879   3.763   4.477
 3117SOL    HW1 9379   2.807   3.768   4.408
 3117SOL    HW2 9380   2.855   3.694   4.546
 3118SOL     OW 9381   3.291   4.897   4.591
 3118SOL    HW1 9382   3.236   4.813   4.584
 3118SOL    HW2 9383   3.317   4.926   4.499
 3119SOL     OW 9384   3.328   4.314   4.716
 3119SOL    HW1 9385   3.298   4.219   4.723
 3119SOL    HW2 9386   3.401   4.330   4.782
 3120SOL     OW 9387   3.719   4.557   4.101
 3120SOL    HW1 9388   3.761   4.493   4.165
 3120SOL    HW2 9389   3.681   4.506   4.023
 3121SOL     OW 9390   3.526   5.004   4.381
 3121SOL    HW1 9391   3.625   5.012   4.395
 3121SOL    HW2 9392   3.481   5.088   4.412
 3122SOL     OW 9393   3.252   4.299   3.802
 3122SOL    HW1 9394   3.198   4.278   3.883
 3122SOL    HW2 9395   3.343   4.258   3.811
 3123SOL     OW 9396   2.389   3.980   4.052
 3123SOL    HW1 9397   2.416   3.921   3.977
 3123SOL    HW2 9398   2.389   4.075   4.021
 3124SOL     OW 9399   3.616   4.947   5.312
 3124SOL    HW1 9400   3.707   4.908   5.299
 3124SOL    HW2 9401   3.624   5.043   5.336
 3125SOL     OW 9402   2.926   5.071   5.064
 3125SOL    HW1 9403   2.846   5.048   5.119
 3125SOL    HW2 9404   3.009   5.045   5.113
 3126SOL     OW 9405   2.973   4.919   4.824
 3126SOL    HW1 9406   2.933   4.963   4.905
 3126SOL    HW2 9407   2.932   4.956   4.741
 3127SOL     OW 9408   3.500   4.823   4.803
 3127SOL    HW1 9409   3.505   4.904   4.862
 3127SOL    HW2 9410   3.414   4.825   4.752
 3128SOL     OW 9411   2.567   4.774   4.092
 3128SOL    HW1 9412   2.553   4.781   4.191
 3128SOL    HW2 9413   2.651   4.723   4.074
 3129SOL     OW 9414   2.272   4.537   4.975
 3129SOL    HW1 9415   2.358   4.549   5.025
 3129SOL    HW2 9416   2.230   4.450   5.002
 3130SOL     OW 9417   3.136   4.110   4.986
 3130SOL    HW1 9418   3.157   4.184   5.050
 3130SOL    HW2 9419   3.047   4.127   4.943
 3131SOL     OW 9420   2.229   4.824   4.225
 3131SOL    HW1 9421   2.222   4.907   4.169
 3131SOL    HW2 9422   2.233   4.744   4.165
 3132SOL     OW 9423   2.428   4.261   4.589
 3132SOL    HW1 9424   2.440   4.327   4.515
 3132SOL    HW2 9425   2.474   4.295   4.672
 3133SOL     OW 9426   3.444   4.363   4.196
 3133SOL    HW1 9427   3.413   4.424   4.269
 3133SOL    HW2 9428   3.494   4.415   4.127
 3134SOL     OW 9429   2.435   4.594   4.753
 3134SOL    HW1 9430   2.479   4.683   4.744
 3134SOL    HW2 9431   2.372   4.594   4.830
 3135SOL     OW 9432   3.222   4.586   4.769
 3135SOL    HW1 9433   3.147   4.586   4.703
 3135SOL    HW2 9434   3.259   4.494   4.778
 3136SOL     OW 9435   3.071   4.249   3.999
 3136SOL    HW1 9436   3.084   4.165   4.053
 3136SOL    HW2 9437   3.042   4.323   4.059
 3137SOL     OW 9438   2.169   3.937   4.955
 3137SOL    HW1 9439   2.146   3.974   5.045
 3137SOL    HW2 9440   2.139   3.842   4.949
 3138SOL     OW 9441   2.594   4.358   4.788
 3138SOL    HW1 9442   2.653   4.332   4.712
 3138SOL    HW2 9443   2.566   4.454   4.777
 3139SOL     OW 9444   2.169   3.787   4.342
 3139SOL    HW1 9445   2.158   3.881   4.375
 3139SOL    HW2 9446   2.164   3.724   4.419
 3140SOL     OW 9447   3.484   4.091   4.098
 3140SOL    HW1 9448   3.486   4.015   4.162
 3140SOL    HW2 9449   3.436   4.168   4.138
 3141SOL     OW 9450   2.885   4.490   4.690
 3141SOL    HW1 9451   2.900   4.511   4.786
 3141SOL    HW2 9452   2.855   4.395   4.681
 3142SOL     OW 9453   3.402   3.998   3.849
 3142SOL    HW1 9454   3.341   3.923   3.872
 3142SOL    HW2 9455   3.424   4.050   3.932
 3143SOL     OW 9456   3.165   4.562   3.766
 3143SOL    HW1 9457   3.199   4.469   3.781
 3143SOL    HW2 9458   3.183   4.589   3.671
 3144SOL     OW 9459   2.181   4.534   4.673
 3144SOL    HW1 9460   2.274   4.570   4.678
 3144SOL    HW2 9461   2.175   4.449   4.725
 3145SOL     OW 9462   2.201   4.233   4.730
 3145SOL    HW1 9463   2.149   4.150   4.713
 3145SOL    HW2 9464   2.278   4.238   4.666
 3146SOL     OW 9465   3.022   3.931   5.201
 3146SOL    HW1 9466   3.022   3.995   5.278
 3146SOL    HW2 9467   3.050   3.979   5.118
 3147SOL     OW 9468   1.870   5.050   3.924
 3147SOL    HW1 9469   1.777   5.071   3.893
 3147SOL    HW2 9470   1.880   4.951   3.937
 3148SOL     OW 9471   2.864   4.520   4.962
 3148SOL    HW1 9472   2.905   4.488   5.048
 3148SOL    HW2 9473   2.768   4.493   4.959
 3149SOL     OW 9474   1.902   4.268   4.838
 3149SOL    HW1 9475   1.987   4.235   4.797
 3149SOL    HW2 9476   1.915   4.283   4.936
 3150SOL     OW 9477   2.051   4.244   5.446
 3150SOL    HW1 9478   2.110   4.204   5.376
 3150SOL    HW2 9479   1.993   4.315   5.405
 3151SOL     OW 9480   2.677   4.296   4.049
 3151SOL    HW1 9481   2.684   4.207   4.003
 3151SOL    HW2 9482   2.583   4.330   4.041
 3152SOL     OW 9483   3.519   4.328   4.930
 3152SOL    HW1 9484   3.481   4.259   4.992
 3152SOL    HW2 9485   3.601   4.292   4.886
 3153SOL     OW 9486   2.533   4.188   4.993
 3153SOL    HW1 9487   2.499   4.099   4.963
 3153SOL    HW2 9488   2.559   4.242   4.913
 3154SOL     OW 9489   2.335   4.224   3.915
 3154SOL    HW1 9490   2.396   4.304   3.919
 3154SOL    HW2 9491   2.240   4.255   3.922
 3155SOL     OW 9492   2.021   4.861   5.190
 3155SOL    HW1 9493   2.043   4.800   5.266
 3155SOL    HW2 9494   2.031   4.812   5.104
 3156SOL     OW 9495   3.209   4.783   4.958
 3156SOL    HW1 9496   3.233   4.720   4.884
 3156SOL    HW2 9497   3.119   4.823   4.940
 3157SOL     OW 9498   3.164   4.579   4.033
 3157SOL    HW1 9499   3.078   4.548   4.075
 3157SOL    HW2 9500   3.160   4.565   3.934
 3158SOL     OW 9501   1.945   4.982   4.746
 3158SOL    HW1 9502   1.940   4.981   4.846
 3158SOL    HW2 9503   1.862   4.941   4.708
 3159SOL     OW 9504   3.588   3.859   4.247
 3159SOL    HW1 9505   3.661   3.842   4.180
 3159SOL    HW2 9506   3.557   3.772   4.285
 3160SOL     OW 9507   3.142   4.651   4.396
 3160SOL    HW1 9508   3.202   4.570   4.398
 3160SOL    HW2 9509   3.182   4.720   4.336
 3161SOL     OW 9510   2.692   4.997   5.146
 3161SOL    HW1 9511   2.687   5.030   5.241
 3161SOL    HW2 9512   2.606   5.016   5.100
 3162SOL     OW 9513   3.703   3.899   4.687
 3162SOL    HW1 9514   3.742   3.814   4.651
 3162SOL    HW2 9515   3.605   3.901   4.668
 3163SOL     OW 9516   2.125   4.050   4.444
 3163SOL    HW1 9517   2.046   4.101   4.410
 3163SOL    HW2 9518   2.116   4.035   4.542
 3164SOL     OW 9519   3.056   5.336   3.755
 3164SOL    HW1 9520   3.062   5.243   3.792
 3164SOL    HW2 9521   2.997   5.336   3.675
 3165SOL     OW 9522   2.684   4.726   5.096
 3165SOL    HW1 9523   2.724   4.725   5.004
 3165SOL    HW2 9524   2.694   4.818   5.136
 3166SOL     OW 9525   2.778   4.634   4.015
 3166SOL    HW1 9526   2.841   4.672   3.947
 3166SOL    HW2 9527   2.818   4.551   4.054
 3167SOL     OW 9528   2.901   4.822   4.420
 3167SOL    HW1 9529   2.831   4.775   4.474
 3167SOL    HW2 9530   2.960   4.754   4.377
 3168SOL     OW 9531   2.876   3.960   4.695
 3168SOL    HW1 9532   2.868   3.924   4.602
 3168SOL    HW2 9533   2.874   3.884   4.760
 3169SOL     OW 9534   3.571   4.109   5.105
 3169SOL    HW1 9535   3.644   4.178   5.109
 3169SOL    HW2 9536   3.599   4.034   5.046
 3170SOL     OW 9537   2.534   3.927   5.213
 3170SOL    HW1 9538   2.624   3.911   5.173
 3170SOL    HW2 9539   2.542   3.932   5.312
 3171SOL     OW 9540   1.937   4.069   3.757
 3171SOL    HW1 9541   1.845   4.041   3.728
 3171SOL    HW2 9542   1.968   4.146   3.701
 3172SOL     OW 9543   1.934   3.890   4.042
 3172SOL    HW1 9544   1.917   3.973   3.988
 3172SOL    HW2 9545   2.024   3.853   4.020
 3173SOL     OW 9546   3.312   4.944   5.357
 3173SOL    HW1 9547   3.303   4.934   5.456
 3173SOL    HW2 9548   3.408   4.937   5.331
 3174SOL     OW 9549   3.536   4.607   4.978
 3174SOL    HW1 9550   3.509   4.518   4.941
 3174SOL    HW2 9551   3.537   4.675   4.905
 3175SOL     OW 9552   3.087   4.049   4.173
 3175SOL    HW1 9553   3.152   3.975   4.162
 3175SOL    HW2 9554   3.107   4.099   4.257
 3176SOL     OW 9555   2.456   4.469   4.376
 3176SOL    HW1 9556   2.506   4.554   4.357
 3176SOL    HW2 9557   2.368   4.471   4.328
 3177SOL     OW 9558   3.592   4.658   5.241
 3177SOL    HW1 9559   3.630   4.749   5.256
 3177SOL    HW2 9560   3.584   4.641   5.142
 3178SOL     OW 9561   2.721   4.680   4.585
 3178SOL    HW1 9562   2.775   4.611   4.633
 3178SOL    HW2 9563   2.689   4.749   4.651
 3179SOL     OW 9564   2.945   4.708   3.811
 3179SOL    HW1 9565   2.922   4.761   3.729
 3179SOL    HW2 9566   3.026   4.652   3.792
 3180SOL     OW 9567   1.941   4.964   4.377
 3180SOL    HW1 9568   1.940   4.917   4.465
 3180SOL    HW2 9569   2.023   4.936   4.326
 3181SOL     OW 9570   3.686   3.916   4.951
 3181SOL    HW1 9571   3.682   3.826   4.995
 3181SOL    HW2 9572   3.689   3.905   4.852
 3182SOL     OW 9573   2.290   4.148   4.244
 3182SOL    HW1 9574   2.320   4.076   4.182
 3182SOL    HW2 9575   2.251   4.108   4.327
 3183SOL     OW 9576   2.179   4.271   5.004
 3183SOL    HW1 9577   2.217   4.212   5.076
 3183SOL    HW2 9578   2.219   4.245   4.916
 3184SOL     OW 9579   3.286   3.938   4.836
 3184SOL    HW1 9580   3.338   3.873   4.891
 3184SOL    HW2 9581   3.237   4.001   4.897
 3185SOL     OW 9582   2.863   3.758   4.878
 3185SOL    HW1 9583   2.800   3.686   4.847
 3185SOL    HW2 9584   2.956   3.722   4.878
 3186SOL     OW 9585   2.632   5.054   4.025
 3186SOL    HW1 9586   2.586   4.967   4.042
 3186SOL    HW2 9587   2.723   5.051   4.066
 3187SOL     OW 9588   3.214   3.776   3.892
 3187SOL    HW1 9589   3.249   3.735   3.808
 3187SOL    HW2 9590   3.124   3.738   3.912
 3188SOL     OW 9591   3.162   4.177   4.415
 3188SOL    HW1 9592   3.103   4.257   4.419
 3188SOL    HW2 9593   3.177   4.142   4.508
 3189SOL     OW 9594   3.455   3.945   4.606
 3189SOL    HW1 9595   3.371   3.944   4.660
 3189SOL    HW2 9596   3.457   4.028   4.550
 3190SOL     OW 9597   1.901   4.801   4.024
 3190SOL    HW1 9598   2.000   4.790   4.015
 3190SOL    HW2 9599   1.861   4.715   4.056
 3191SOL     OW 9600   3.954   0.628   0.113
 3191SOL    HW1 9601   3.861   0.626   0.150
 3191SOL    HW2 9602   3.955   0.589   0.021
 3192SOL     OW 9603   3.949   0.275   0.996
 3192SOL    HW1 9604   3.984   0.258   1.088
 3192SOL    HW2 9605   3.861   0.230   0.984
 3193SOL     OW 9606   3.743   0.368   0.647
 3193SOL    HW1 9607   3.661   0.411   0.686
 3193SOL    HW2 9608   3.715   0.295   0.584
 3194SOL     OW 9609   4.293   1.275   1.165
 3194SOL    HW1 9610   4.200   1.268   1.128
 3194SOL    HW2 9611   4.304   1.364   1.209
 3195SOL     OW 9612   4.859   0.703   0.717
 3195SOL    HW1 9613   4.916   0.781   0.692
 3195SOL    HW2 9614   4.799   0.729   0.793
 3196SOL     OW 9615   4.492   1.144   1.023
 3196SOL    HW1 9616   4.414   1.161   1.083
 3196SOL    HW2 9617   4.526   1.231   0.987
 3197SOL     OW 9618   4.574   0.798   1.823
 3197SOL    HW1 9619   4.570   0.874   1.888
 3197SOL    HW2 9620   4.596   0.834   1.732
 3198SOL     OW 9621   4.409   1.012   0.665
 3198SOL    HW1 9622   4.478   0.996   0.735
 3198SOL    HW2 9623   4.336   1.069   0.703
 3199SOL     OW 9624   4.410   1.161   1.803
 3199SOL    HW1 9625   4.470   1.240   1.817
 3199SOL    HW2 9626   4.324   1.192   1.762
 3200SOL     OW 9627   4.059   1.435   1.061
 3200SOL    HW1 9628   3.981   1.404   1.008
 3200SOL    HW2 9629   4.117   1.493   1.004
 3201SOL     OW 9630   4.162   0.392   1.499
 3201SOL    HW1 9631   4.244   0.336   1.508
 3201SOL    HW2 9632   4.081   0.334   1.503
 3202SOL     OW 9633   3.955   1.713   0.483
 3202SOL    HW1 9634   3.989   1.790   0.537
 3202SOL    HW2 9635   3.999   1.713   0.393
 3203SOL     OW 9636   4.851   1.341   1.690
 3203SOL    HW1 9637   4.898   1.341   1.778
 3203SOL    HW2 9638   4.803   1.254   1.679
 3204SOL     OW 9639   3.954   1.434   0.538
 3204SOL    HW1 9640   3.928   1.530   0.538
 3204SOL    HW2 9641   3.883   1.380   0.583
 3205SOL     OW 9642   3.964   1.091   0.886
 3205SOL    HW1 9643   3.978   1.007   0.938
 3205SOL    HW2 9644   3.909   1.155   0.941
 3206SOL     OW 9645   4.344   1.786   1.439
 3206SOL    HW1 9646   4.252   1.769   1.474
 3206SOL    HW2 9647   4.372   1.878   1.465
 3207SOL     OW 9648   4.330   0.964   0.123
 3207SOL    HW1 9649   4.337   1.048   0.069
 3207SOL    HW2 9650   4.376   0.977   0.211
 3208SOL     OW 9651   3.846   0.643   0.563
 3208SOL    HW1 9652   3.801   0.555   0.580
 3208SOL    HW2 9653   3.845   0.697   0.647
 3209SOL     OW 9654   3.837   0.737   1.597
 3209SOL    HW1 9655   3.925   0.724   1.642
 3209SOL    HW2 9656   3.824   0.834   1.575
 3210SOL     OW 9657   4.337   1.365   0.726
 3210SOL    HW1 9658   4.288   1.278   0.735
 3210SOL    HW2 9659   4.314   1.408   0.639
 3211SOL     OW 9660   5.017   1.228   1.423
 3211SOL    HW1 9661   5.054   1.155   1.365
 3211SOL    HW2 9662   5.069   1.233   1.508
 3212SOL     OW 9663   4.533   0.004   0.502
 3212SOL    HW1 9664   4.573   0.095   0.493
 3212SOL    HW2 9665   4.433   0.012   0.508
 3213SOL     OW 9666   3.921   0.976   1.264
 3213SOL    HW1 9667   4.010   0.931   1.250
 3213SOL    HW2 9668   3.848   0.911   1.245
 3214SOL     OW 9669   4.911   1.792   1.616
 3214SOL    HW1 9670   4.935   1.852   1.540
 3214SOL    HW2 9671   4.918   1.697   1.586
 3215SOL     OW 9672   4.041   0.251   1.801
 3215SOL    HW1 9673   4.112   0.322   1.807
 3215SOL    HW2 9674   3.953   0.290   1.829
 3216SOL     OW 9675   4.322   0.729   0.270
 3216SOL    HW1 9676   4.346   0.798   0.202
 3216SOL    HW2 9677   4.244   0.762   0.324
 3217SOL     OW 9678   5.005   0.345   0.944
 3217SOL    HW1 9679   4.919   0.295   0.931
 3217SOL    HW2 9680   5.067   0.291   1.000
 3218SOL     OW 9681   4.531   0.605   1.465
 3218SOL    HW1 9682   4.484   0.602   1.554
 3218SOL    HW2 9683   4.480   0.550   1.399
 3219SOL     OW 9684   5.118   0.469   1.674
 3219SOL    HW1 9685   5.098   0.512   1.762
 3219SOL    HW2 9686   5.196   0.407   1.683
 3220SOL     OW 9687   4.697   0.890   1.572
 3220SOL    HW1 9688   4.743   0.806   1.543
 3220SOL    HW2 9689   4.641   0.924   1.497
 3221SOL     OW 9690   4.715   0.410   1.242
 3221SOL    HW1 9691   4.638   0.444   1.296
 3221SOL    HW2 9692   4.681   0.359   1.163
 3222SOL     OW 9693   4.765   0.701   0.429
 3222SOL    HW1 9694   4.791   0.697   0.525
 3222SOL    HW2 9695   4.680   0.650   0.415
 3223SOL     OW 9696   3.800   0.811   0.789
 3223SOL    HW1 9697   3.899   0.799   0.798
 3223SOL    HW2 9698   3.776   0.906   0.810
 3224SOL     OW 9699   3.854   1.821   1.571
 3224SOL    HW1 9700   3.844   1.806   1.670
 3224SOL    HW2 9701   3.768   1.857   1.535
 3225SOL     OW 9702   4.589   0.348   0.195
 3225SOL    HW1 9703   4.648   0.411   0.146
 3225SOL    HW2 9704   4.608   0.254   0.166
 3226SOL     OW 9705   5.086   1.144   0.545
 3226SOL    HW1 9706   5.169   1.115   0.497
 3226SOL    HW2 9707   5.037   1.211   0.489
 3227SOL     OW 9708   4.274   0.196   0.885
 3227SOL    HW1 9709   4.269   0.191   0.985
 3227SOL    HW2 9710   4.276   0.292   0.856
 3228SOL     OW 9711   4.732   1.456   0.477
 3228SOL    HW1 9712   4.686   1.528   0.425
 3228SOL    HW2 9713   4.728   1.476   0.575
 3229SOL     OW 9714   4.075   1.801   0.853
 3229SOL    HW1 9715   4.125   1.715   0.859
 3229SOL    HW2 9716   4.140   1.878   0.850
 3230SOL     OW 9717   4.951   1.550   1.506
 3230SOL    HW1 9718   4.957   1.473   1.570
 3230SOL    HW2 9719   4.899   1.524   1.426
 3231SOL     OW 9720   4.045   0.943   0.242
 3231SOL    HW1 9721   4.127   0.982   0.200
 3231SOL    HW2 9722   4.018   0.861   0.193
 3232SOL     OW 9723   4.185   1.266   1.727
 3232SOL    HW1 9724   4.135   1.267   1.641
 3232SOL    HW2 9725   4.122   1.248   1.803
 3233SOL     OW 9726   4.835   1.776   0.237
 3233SOL    HW1 9727   4.775   1.714   0.287
 3233SOL    HW2 9728   4.866   1.732   0.152
 3234SOL     OW 9729   3.926   0.285   1.498
 3234SOL    HW1 9730   3.846   0.345   1.485
 3234SOL    HW2 9731   3.916   0.236   1.584
 3235SOL     OW 9732   5.356   1.377   0.081
 3235SOL    HW1 9733   5.324   1.471   0.071
 3235SOL    HW2 9734   5.280   1.314   0.069
 3236SOL     OW 9735   4.188   1.743   0.323
 3236SOL    HW1 9736   4.221   1.782   0.409
 3236SOL    HW2 9737   4.264   1.736   0.258
 3237SOL     OW 9738   3.973   1.785   1.241
 3237SOL    HW1 9739   4.030   1.720   1.291
 3237SOL    HW2 9740   3.957   1.752   1.148
 3238SOL     OW 9741   4.664   1.698   0.904
 3238SOL    HW1 9742   4.744   1.641   0.925
 3238SOL    HW2 9743   4.615   1.658   0.827
 3239SOL     OW 9744   4.106   0.700   0.480
 3239SOL    HW1 9745   4.151   0.610   0.477
 3239SOL    HW2 9746   4.012   0.689   0.513
 3240SOL     OW 9747   4.338   0.122   0.117
 3240SOL    HW1 9748   4.436   0.100   0.124
 3240SOL    HW2 9749   4.307   0.105   0.024
 3241SOL     OW 9750   4.505   0.264   1.749
 3241SOL    HW1 9751   4.572   0.203   1.792
 3241SOL    HW2 9752   4.432   0.283   1.814
 3242SOL     OW 9753   4.612   1.514   1.195
 3242SOL    HW1 9754   4.589   1.489   1.101
 3242SOL    HW2 9755   4.673   1.445   1.234
 3243SOL     OW 9756   4.527   1.402   0.924
 3243SOL    HW1 9757   4.617   1.416   0.882
 3243SOL    HW2 9758   4.456   1.404   0.853
 3244SOL     OW 9759   4.646   0.503   0.899
 3244SOL    HW1 9760   4.621   0.494   0.803
 3244SOL    HW2 9761   4.694   0.421   0.930
 3245SOL     OW 9762   4.263   0.064   0.512
 3245SOL    HW1 9763   4.182   0.065   0.570
 3245SOL    HW2 9764   4.266   0.147   0.457
 3246SOL     OW 9765   4.021   0.035   0.171
 3246SOL    HW1 9766   4.070   0.119   0.150
 3246SOL    HW2 9767   4.083  -0.030   0.216
 3247SOL     OW 9768   4.659   0.236   0.480
 3247SOL    HW1 9769   4.611   0.277   0.402
 3247SOL    HW2 9770   4.758   0.234   0.461
 3248SOL     OW 9771   4.800   0.683   1.464
 3248SOL    HW1 9772   4.720   0.622   1.467
 3248SOL    HW2 9773   4.881   0.630   1.440
 3249SOL     OW 9774   4.951   1.570   0.793
 3249SOL    HW1 9775   4.972   1.644   0.728
 3249SOL    HW2 9776   5.019   1.570   0.866
 3250SOL     OW 9777   4.183   1.152   0.741
 3250SOL    HW1 9778   4.112   1.125   0.806
 3250SOL    HW2 9779   4.157   1.124   0.648
 3251SOL     OW 9780   4.995   1.797   0.591
 3251SOL    HW1 9781   5.039   1.861   0.527
 3251SOL    HW2 9782   4.945   1.849   0.661
 3252SOL     OW 9783   4.756   0.549   0.016
 3252SOL    HW1 9784   4.715   0.631  -0.023
 3252SOL    HW2 9785   4.820   0.575   0.089
 3253SOL     OW 9786   3.802   0.556   1.386
 3253SOL    HW1 9787   3.894   0.555   1.345
 3253SOL    HW2 9788   3.796   0.630   1.453
 3254SOL     OW 9789   4.285   0.222   1.147
 3254SOL    HW1 9790   4.323   0.138   1.184
 3254SOL    HW2 9791   4.197   0.241   1.191
 3255SOL     OW 9792   4.590   0.454   0.642
 3255SOL    HW1 9793   4.558   0.526   0.580
 3255SOL    HW2 9794   4.614   0.373   0.589
 3256SOL     OW 9795   4.741   0.039   0.753
 3256SOL    HW1 9796   4.669   0.044   0.684
 3256SOL    HW2 9797   4.717  -0.030   0.822
 3257SOL     OW 9798   4.212   1.385   0.174
 3257SOL    HW1 9799   4.125   1.370   0.221
 3257SOL    HW2 9800   4.195   1.411   0.079
 3258SOL     OW 9801   4.251   0.256   0.328
 3258SOL    HW1 9802   4.278   0.197   0.253
 3258SOL    HW2 9803   4.251   0.351   0.297
 3259SOL     OW 9804   4.788   1.347   1.340
 3259SOL    HW1 9805   4.708   1.324   1.395
 3259SOL    HW2 9806   4.871   1.321   1.389
 3260SOL     OW 9807   4.835   1.195   1.100
 3260SOL    HW1 9808   4.795   1.239   1.181
 3260SOL    HW2 9809   4.794   1.232   1.017
 3261SOL     OW 9810   4.639   0.089   1.402
 3261SOL    HW1 9811   4.664   0.069   1.307
 3261SOL    HW2 9812   4.711   0.145   1.444
 3262SOL     OW 9813   4.704   1.116   1.719
 3262SOL    HW1 9814   4.605   1.122   1.729
 3262SOL    HW2 9815   4.727   1.036   1.663
 3263SOL     OW 9816   4.429   1.050   0.368
 3263SOL    HW1 9817   4.415   1.057   0.467
 3263SOL    HW2 9818   4.513   0.999   0.350
 3264SOL     OW 9819   4.134   0.813   1.251
 3264SOL    HW1 9820   4.220   0.825   1.301
 3264SOL    HW2 9821   4.092   0.726   1.278
 3265SOL     OW 9822   4.998   0.386   1.262
 3265SOL    HW1 9823   5.019   0.460   1.326
 3265SOL    HW2 9824   4.909   0.403   1.219
 3266SOL     OW 9825   3.788   1.564   1.331
 3266SOL    HW1 9826   3.742   1.646   1.297
 3266SOL    HW2 9827   3.886   1.583   1.340
 3267SOL     OW 9828   4.091   1.100   0.501
 3267SOL    HW1 9829   4.084   1.183   0.445
 3267SOL    HW2 9830   4.095   1.020   0.441
 3268SOL     OW 9831   4.290   0.537   0.865
 3268SOL    HW1 9832   4.302   0.603   0.791
 3268SOL    HW2 9833   4.336   0.571   0.948
 3269SOL     OW 9834   4.976   1.348   0.388
 3269SOL    HW1 9835   5.026   1.425   0.428
 3269SOL    HW2 9836   4.881   1.350   0.420
 3270SOL     OW 9837   4.996   1.445   1.142
 3270SOL    HW1 9838   5.043   1.458   1.229
 3270SOL    HW2 9839   4.930   1.371   1.151
 3271SOL     OW 9840   4.078   1.510   1.329
 3271SOL    HW1 9841   4.057   1.466   1.242
 3271SOL    HW2 9842   4.175   1.536   1.332
 3272SOL     OW 9843   4.126   0.751   1.598
 3272SOL    HW1 9844   4.194   0.806   1.551
 3272SOL    HW2 9845   4.166   0.663   1.625
 3273SOL     OW 9846   4.737   0.105   1.770
 3273SOL    HW1 9847   4.743   0.190   1.718
 3273SOL    HW2 9848   4.769   0.029   1.713
 3274SOL     OW 9849   4.228   0.050   1.740
 3274SOL    HW1 9850   4.186  -0.007   1.670
 3274SOL    HW2 9851   4.162   0.119   1.772
 3275SOL     OW 9852   4.297   0.870   1.029
 3275SOL    HW1 9853   4.341   0.959   1.020
 3275SOL    HW2 9854   4.234   0.870   1.106
 3276SOL     OW 9855   5.084   0.862   1.045
 3276SOL    HW1 9856   5.009   0.862   0.979
 3276SOL    HW2 9857   5.121   0.770   1.054
 3277SOL     OW 9858   4.933   0.525   0.275
 3277SOL    HW1 9859   4.946   0.441   0.329
 3277SOL    HW2 9860   4.904   0.599   0.335
 3278SOL     OW 9861   4.031   0.213   1.231
 3278SOL    HW1 9862   4.008   0.250   1.321
 3278SOL    HW2 9863   4.001   0.118   1.225
 3279SOL     OW 9864   3.761   1.310   1.282
 3279SOL    HW1 9865   3.814   1.261   1.350
 3279SOL    HW2 9866   3.783   1.408   1.287
 3280SOL     OW 9867   4.456   0.634   1.064
 3280SOL    HW1 9868   4.515   0.608   0.988
 3280SOL    HW2 9869   4.428   0.730   1.053
 3281SOL     OW 9870   4.031   0.063   0.618
 3281SOL    HW1 9871   4.020   0.157   0.651
 3281SOL    HW2 9872   4.026   0.000   0.695
 3282SOL     OW 9873   4.747   0.766   0.966
 3282SOL    HW1 9874   4.762   0.787   1.062
 3282SOL    HW2 9875   4.717   0.671   0.957
 3283SOL     OW 9876   4.704   1.573   1.700
 3283SOL    HW1 9877   4.684   1.617   1.612
 3283SOL    HW2 9878   4.743   1.482   1.684
 3284SOL     OW 9879   4.074   0.898   1.804
 3284SOL    HW1 9880   4.150   0.942   1.852
 3284SOL    HW2 9881   4.109   0.851   1.722
 3285SOL     OW 9882   5.027   0.838   0.042
 3285SOL    HW1 9883   5.061   0.745   0.057
 3285SOL    HW2 9884   5.045   0.865  -0.053
 3286SOL     OW 9885   4.792   1.333   0.849
 3286SOL    HW1 9886   4.799   1.249   0.794
 3286SOL    HW2 9887   4.854   1.402   0.813
 3287SOL     OW 9888   4.043   0.810   0.949
 3287SOL    HW1 9889   4.136   0.846   0.954
 3287SOL    HW2 9890   4.037   0.725   1.001
 3288SOL     OW 9891   4.063   0.509   1.006
 3288SOL    HW1 9892   4.011   0.426   0.989
 3288SOL    HW2 9893   4.140   0.514   0.942
 3289SOL     OW 9894   4.862   0.380   1.678
 3289SOL    HW1 9895   4.817   0.443   1.742
 3289SOL    HW2 9896   4.955   0.411   1.661
 3290SOL     OW 9897   4.884   0.207   1.477
 3290SOL    HW1 9898   4.884   0.271   1.554
 3290SOL    HW2 9899   4.912   0.255   1.394
 3291SOL     OW 9900   3.812   1.801   0.927
 3291SOL    HW1 9901   3.770   1.715   0.900
 3291SOL    HW2 9902   3.906   1.804   0.893
 3292SOL     OW 9903   4.228   1.568   0.910
 3292SOL    HW1 9904   4.294   1.642   0.919
 3292SOL    HW2 9905   4.272   1.489   0.868
 3293SOL     OW 9906   4.726   0.796   1.238
 3293SOL    HW1 9907   4.767   0.764   1.324
 3293SOL    HW2 9908   4.630   0.769   1.235
 3294SOL     OW 9909   3.764   0.544   1.114
 3294SOL    HW1 9910   3.849   0.511   1.073
 3294SOL    HW2 9911   3.777   0.559   1.212
 3295SOL     OW 9912   3.913   0.520   1.722
 3295SOL    HW1 9913   3.972   0.480   1.652
 3295SOL    HW2 9914   3.855   0.591   1.681
 3296SOL     OW 9915   4.539   0.572   0.325
 3296SOL    HW1 9916   4.546   0.483   0.279
 3296SOL    HW2 9917   4.445   0.606   0.317
 3297SOL     OW 9918   3.976   1.564   1.744
 3297SOL    HW1 9919   3.946   1.621   1.820
 3297SOL    HW2 9920   3.969   1.467   1.770
 3298SOL     OW 9921   4.395   0.464   1.269
 3298SOL    HW1 9922   4.361   0.375   1.239
 3298SOL    HW2 9923   4.421   0.518   1.189
 3299SOL     OW 9924   4.654   1.678   1.465
 3299SOL    HW1 9925   4.630   1.660   1.370
 3299SOL    HW2 9926   4.684   1.772   1.475
 3300SOL     OW 9927   4.197   0.500   0.191
 3300SOL    HW1 9928   4.258   0.580   0.195
 3300SOL    HW2 9929   4.102   0.531   0.198
 3301SOL     OW 9930   3.883   1.137   1.466
 3301SOL    HW1 9931   3.905   1.076   1.542
 3301SOL    HW2 9932   3.893   1.088   1.380
 3302SOL     OW 9933   5.071   1.059   1.234
 3302SOL    HW1 9934   5.095   0.996   1.160
 3302SOL    HW2 9935   4.981   1.099   1.216
 3303SOL     OW 9936   5.026   0.855   0.309
 3303SOL    HW1 9937   4.940   0.824   0.351
 3303SOL    HW2 9938   5.022   0.841   0.210
 3304SOL     OW 9939   4.976   1.731   1.128
 3304SOL    HW1 9940   5.060   1.736   1.074
 3304SOL    HW2 9941   4.953   1.635   1.146
 3305SOL     OW 9942   3.807   1.258   1.022
 3305SOL    HW1 9943   3.802   1.257   1.122
 3305SOL    HW2 9944   3.724   1.217   0.984
 3306SOL     OW 9945   4.412   1.662   1.716
 3306SOL    HW1 9946   4.356   1.743   1.725
 3306SOL    HW2 9947   4.464   1.666   1.630
 3307SOL     OW 9948   4.627   0.086   0.133
 3307SOL    HW1 9949   4.678   0.087   0.047
 3307SOL    HW2 9950   4.683   0.044   0.204
 3308SOL     OW 9951   5.112   1.573   0.477
 3308SOL    HW1 9952   5.179   1.585   0.403
 3308SOL    HW2 9953   5.072   1.662   0.500
 3309SOL     OW 9954   3.854   1.794   1.851
 3309SOL    HW1 9955   3.813   1.720   1.904
 3309SOL    HW2 9956   3.918   1.845   1.909
 3310SOL     OW 9957   5.004   0.927   0.672
 3310SOL    HW1 9958   5.064   0.846   0.674
 3310SOL    HW2 9959   5.044   0.996   0.612
 3311SOL     OW 9960   4.554   1.273   1.422
 3311SOL    HW1 9961   4.549   1.306   1.517
 3311SOL    HW2 9962   4.468   1.292   1.376
 3312SOL     OW 9963   4.396   1.616   0.154
 3312SOL    HW1 9964   4.405   1.626   0.055
 3312SOL    HW2 9965   4.356   1.527   0.175
 3313SOL     OW 9966   3.987   0.326   0.720
 3313SOL    HW1 9967   3.908   0.377   0.686
 3313SOL    HW2 9968   3.978   0.311   0.818
 3314SOL     OW 9969   4.918   1.612   0.031
 3314SOL    HW1 9970   4.924   1.519   0.068
 3314SOL    HW2 9971   4.859   1.612  -0.049
 3315SOL     OW 9972   4.546   1.002   1.372
 3315SOL    HW1 9973   4.586   1.001   1.280
 3315SOL    HW2 9974   4.556   1.094   1.412
 3316SOL     OW 9975   4.640   0.910   0.291
 3316SOL    HW1 9976   4.703   0.948   0.223
 3316SOL    HW2 9977   4.680   0.827   0.330
 3317SOL     OW 9978   4.096   1.288   1.490
 3317SOL    HW1 9979   4.083   1.381   1.456
 3317SOL    HW2 9980   4.012   1.236   1.477
 3318SOL     OW 9981   4.763   1.098   0.696
 3318SOL    HW1 9982   4.693   1.051   0.750
 3318SOL    HW2 9983   4.822   1.030   0.653
 3319SOL     OW 9984   4.738   0.236   0.971
 3319SOL    HW1 9985   4.730   0.200   0.878
 3319SOL    HW2 9986   4.736   0.160   1.036
 3320SOL     OW 9987   4.314   1.487   0.491
 3320SOL    HW1 9988   4.356   1.429   0.421
 3320SOL    HW2 9989   4.270   1.566   0.447
 3321SOL     OW 9990   3.979   1.348   0.290
 3321SOL    HW1 9991   3.883   1.349   0.263
 3321SOL    HW2 9992   3.991   1.401   0.374
 3322SOL     OW 9993   3.829   1.013   1.726
 3322SOL    HW1 9994   3.752   0.980   1.780
 3322SOL    HW2 9995   3.914   0.983   1.768
 3323SOL     OW 9996   4.396   0.203   1.489
 3323SOL    HW1 9997   4.486   0.187   1.449
 3323SOL    HW2 9998   4.404   0.208   1.588
 3324SOL     OW 9999   5.164   0.856   1.398
 3324SOL    HW110000   5.107   0.908   1.335
 3324SOL    HW210001   5.260   0.868   1.374
 3325SOL     OW10002   3.796   0.166   0.318
 3325SOL    HW110003   3.779   0.249   0.264
 3325SOL    HW210004   3.886   0.129   0.296
 3326SOL     OW10005   4.337   0.842   1.431
 3326SOL    HW110006   4.393   0.923   1.414
 3326SOL    HW210007   4.396   0.762   1.434
 3327SOL     OW10008   4.440   0.565   1.708
 3327SOL    HW110009   4.459   0.630   1.782
 3327SOL    HW210010   4.500   0.485   1.717
 3328SOL     OW10011   5.174   1.220   1.633
 3328SOL    HW110012   5.165   1.210   1.732
 3328SOL    HW210013   5.270   1.213   1.607
 3329SOL     OW10014   4.114   1.741   1.560
 3329SOL    HW110015   4.023   1.782   1.558
 3329SOL    HW210016   4.107   1.647   1.592
 3330SOL     OW10017   4.949   0.325   0.449
 3330SOL    HW110018   5.014   0.251   0.438
 3330SOL    HW210019   4.969   0.375   0.533
 3331SOL     OW10020   4.318   0.745   0.652
 3331SOL    HW110021   4.368   0.830   0.633
 3331SOL    HW210022   4.230   0.747   0.604
 3332SOL     OW10023   4.583   1.374   0.016
 3332SOL    HW110024   4.537   1.389   0.104
 3332SOL    HW210025   4.627   1.459  -0.014
 3333SOL     OW10026   4.385   1.790   0.953
 3333SOL    HW110027   4.339   1.878   0.940
 3333SOL    HW210028   4.484   1.802   0.946
 3334SOL     OW10029   4.583   0.956   0.861
 3334SOL    HW110030   4.637   0.887   0.909
 3334SOL    HW210031   4.551   1.025   0.927
 3335SOL     OW10032   4.807   0.984   0.087
 3335SOL    HW110033   4.784   1.037   0.005
 3335SOL    HW210034   4.888   0.928   0.068
 3336SOL     OW10035   3.945   1.314   1.844
 3336SOL    HW110036   3.880   1.241   1.823
 3336SOL    HW210037   3.949   1.328   1.942
 3337SOL     OW10038   3.803   1.240   0.653
 3337SOL    HW110039   3.802   1.193   0.741
 3337SOL    HW210040   3.885   1.212   0.602
 3338SOL     OW10041   4.396   1.391   1.624
 3338SOL    HW110042   4.318   1.341   1.662
 3338SOL    HW210043   4.393   1.486   1.655
 3339SOL     OW10044   4.152   0.424   0.520
 3339SOL    HW110045   4.182   0.352   0.458
 3339SOL    HW210046   4.113   0.384   0.603
 3340SOL     OW10047   4.041   0.547   1.280
 3340SOL    HW110048   4.079   0.488   1.352
 3340SOL    HW210049   4.081   0.521   1.192
 3341SOL     OW10050   4.536   1.586   0.687
 3341SOL    HW110051   4.568   1.596   0.593
 3341SOL    HW210052   4.457   1.524   0.689
 3342SOL     OW10053   4.725   0.034   1.154
 3342SOL    HW110054   4.662  -0.038   1.123
 3342SOL    HW210055   4.818  -0.002   1.154
 3343SOL     OW10056   4.494   1.330   0.301
 3343SOL    HW110057   4.448   1.243   0.318
 3343SOL    HW210058   4.585   1.327   0.342
 3344SOL     OW10059   4.342   1.567   1.284
 3344SOL    HW110060   4.337   1.649   1.341
 3344SOL    HW210061   4.431   1.564   1.239
 3345SOL     OW10062   3.763   1.077   0.300
 3345SOL    HW110063   3.862   1.066   0.291
 3345SOL    HW210064   3.723   0.991   0.332
 3346SOL     OW10065   4.599   1.646   0.337
 3346SOL    HW110066   4.522   1.611   0.283
 3346SOL    HW210067   4.567   1.717   0.399
 3347SOL     OW10068   3.954   0.628   1.975
 3347SOL    HW110069   3.861   0.626   2.012
 3347SOL    HW210070   3.955   0.589   1.883
 3348SOL     OW10071   3.949   0.275   2.858
 3348SOL    HW110072   3.984   0.258   2.950
 3348SOL    HW210073   3.861   0.230   2.846
 3349SOL     OW10074   3.743   0.368   2.509
 3349SOL    HW110075   3.661   0.411   2.548
 3349SOL    HW210076   3.715   0.295   2.446
 3350SOL     OW10077   4.293   1.275   3.027
 3350SOL    HW110078   4.200   1.268   2.990
 3350SOL    HW210079   4.304   1.364   3.071
 3351SOL     OW10080   4.859   0.703   2.579
 3351SOL    HW110081   4.916   0.781   2.554
 3351SOL    HW210082   4.799   0.729   2.655
 3352SOL     OW10083   4.492   1.144   2.885
 3352SOL    HW110084   4.414   1.161   2.945
 3352SOL    HW210085   4.526   1.231   2.849
 3353SOL     OW10086   4.574   0.798   3.685
 3353SOL    HW110087   4.570   0.874   3.750
 3353SOL    HW210088   4.596   0.834   3.594
 3354SOL     OW10089   4.409   1.012   2.527
 3354SOL    HW110090   4.478   0.996   2.597
 3354SOL    HW210091   4.336   1.069   2.565
 3355SOL     OW10092   4.410   1.161   3.665
 3355SOL    HW110093   4.470   1.240   3.679
 3355SOL    HW210094   4.324   1.192   3.624
 3356SOL     OW10095   4.059   1.435   2.923
 3356SOL    HW110096   3.981   1.404   2.870
 3356SOL    HW210097   4.117   1.493   2.866
 3357SOL     OW10098   4.162   0.392   3.361
 3357SOL    HW110099   4.244   0.336   3.370
 3357SOL    HW210100   4.081   0.334   3.365
 3358SOL     OW10101   3.955   1.713   2.345
 3358SOL    HW110102   3.989   1.790   2.399
 3358SOL    HW210103   3.999   1.713   2.255
 3359SOL     OW10104   4.851   1.341   3.552
 3359SOL    HW110105   4.898   1.341   3.640
 3359SOL    HW210106   4.803   1.254   3.541
 3360SOL     OW10107   3.954   1.434   2.400
 3360SOL    HW110108   3.928   1.530   2.400
 3360SOL    HW210109   3.883   1.380   2.445
 3361SOL     OW10110   3.964   1.091   2.748
 3361SOL    HW110111   3.978   1.007   2.800
 3361SOL    HW210112   3.909   1.155   2.803
 3362SOL     OW10113   4.344   1.786   3.301
 3362SOL    HW110114   4.252   1.769   3.336
 3362SOL    HW210115   4.372   1.878   3.327
 3363SOL     OW10116   4.330   0.964   1.985
 3363SOL    HW110117   4.337   1.048   1.931
 3363SOL    HW210118   4.376   0.977   2.073
 3364SOL     OW10119   3.846   0.643   2.425
 3364SOL    HW110120   3.801   0.555   2.442
 3364SOL    HW210121   3.845   0.697   2.509
 3365SOL     OW10122   3.751   1.596   1.979
 3365SOL    HW110123   3.732   1.500   2.000
 3365SOL    HW210124   3.718   1.654   2.054
 3366SOL     OW10125   3.837   0.737   3.459
 3366SOL    HW110126   3.925   0.724   3.504
 3366SOL    HW210127   3.824   0.834   3.437
 3367SOL     OW10128   4.337   1.365   2.588
 3367SOL    HW110129   4.288   1.278   2.597
 3367SOL    HW210130   4.314   1.408   2.501
 3368SOL     OW10131   5.017   1.228   3.285
 3368SOL    HW110132   5.054   1.155   3.227
 3368SOL    HW210133   5.069   1.233   3.370
 3369SOL     OW10134   4.533   0.004   2.364
 3369SOL    HW110135   4.573   0.095   2.355
 3369SOL    HW210136   4.433   0.012   2.370
 3370SOL     OW10137   3.921   0.976   3.126
 3370SOL    HW110138   4.010   0.931   3.112
 3370SOL    HW210139   3.848   0.911   3.107
 3371SOL     OW10140   4.911   1.792   3.478
 3371SOL    HW110141   4.935   1.852   3.402
 3371SOL    HW210142   4.918   1.697   3.448
 3372SOL     OW10143   4.041   0.251   3.663
 3372SOL    HW110144   4.112   0.322   3.669
 3372SOL    HW210145   3.953   0.290   3.691
 3373SOL     OW10146   4.322   0.729   2.132
 3373SOL    HW110147   4.346   0.798   2.064
 3373SOL    HW210148   4.244   0.762   2.186
 3374SOL     OW10149   5.005   0.345   2.806
 3374SOL    HW110150   4.919   0.295   2.793
 3374SOL    HW210151   5.067   0.291   2.862
 3375SOL     OW10152   4.531   0.605   3.327
 3375SOL    HW110153   4.484   0.602   3.416
 3375SOL    HW210154   4.480   0.550   3.261
 3376SOL     OW10155   5.118   0.469   3.536
 3376SOL    HW110156   5.098   0.512   3.624
 3376SOL    HW210157   5.196   0.407   3.545
 3377SOL     OW10158   4.697   0.890   3.434
 3377SOL    HW110159   4.743   0.806   3.405
 3377SOL    HW210160   4.641   0.924   3.359
 3378SOL     OW10161   4.715   0.410   3.104
 3378SOL    HW110162   4.638   0.444   3.158
 3378SOL    HW210163   4.681   0.359   3.025
 3379SOL     OW10164   4.765   0.701   2.291
 3379SOL    HW110165   4.791   0.697   2.387
 3379SOL    HW210166   4.680   0.650   2.277
 3380SOL     OW10167   3.800   0.811   2.651
 3380SOL    HW110168   3.899   0.799   2.660
 3380SOL    HW210169   3.776   0.906   2.672
 3381SOL     OW10170   3.854   1.821   3.433
 3381SOL    HW110171   3.844   1.806   3.532
 3381SOL    HW210172   3.768   1.857   3.397
 3382SOL     OW10173   4.589   0.348   2.057
 3382SOL    HW110174   4.648   0.411   2.008
 3382SOL    HW210175   4.608   0.254   2.028
 3383SOL     OW10176   5.086   1.144   2.407
 3383SOL    HW110177   5.169   1.115   2.359
 3383SOL    HW210178   5.037   1.211   2.351
 3384SOL     OW10179   4.274   0.196   2.747
 3384SOL    HW110180   4.269   0.191   2.847
 3384SOL    HW210181   4.276   0.292   2.718
 3385SOL     OW10182   4.732   1.456   2.339
 3385SOL    HW110183   4.686   1.528   2.287
 3385SOL    HW210184   4.728   1.476   2.437
 3386SOL     OW10185   4.075   1.801   2.715
 3386SOL    HW110186   4.125   1.715   2.721
 3386SOL    HW210187   4.140   1.878   2.712
 3387SOL     OW10188   4.951   1.550   3.368
 3387SOL    HW110189   4.957   1.473   3.432
 3387SOL    HW210190   4.899   1.524   3.288
 3388SOL     OW10191   4.045   0.943   2.104
 3388SOL    HW110192   4.127   0.982   2.062
 3388SOL    HW210193   4.018   0.861   2.055
 3389SOL     OW10194   4.185   1.266   3.589
 3389SOL    HW110195   4.135   1.267   3.503
 3389SOL    HW210196   4.122   1.248   3.665
 3390SOL     OW10197   4.835   1.776   2.099
 3390SOL    HW110198   4.775   1.714   2.149
 3390SOL    HW210199   4.866   1.732   2.014
 3391SOL     OW10200   3.926   0.285   3.360
 3391SOL    HW110201   3.846   0.345   3.347
 3391SOL    HW210202   3.916   0.236   3.446
 3392SOL     OW10203   4.188   1.743   2.185
 3392SOL    HW110204   4.221   1.782   2.271
 3392SOL    HW210205   4.264   1.736   2.120
 3393SOL     OW10206   3.973   1.785   3.103
 3393SOL    HW110207   4.030   1.720   3.153
 3393SOL    HW210208   3.957   1.752   3.010
 3394SOL     OW10209   4.664   1.698   2.766
 3394SOL    HW110210   4.744   1.641   2.787
 3394SOL    HW210211   4.615   1.658   2.689
 3395SOL     OW10212   4.106   0.700   2.342
 3395SOL    HW110213   4.151   0.610   2.339
 3395SOL    HW210214   4.012   0.689   2.375
 3396SOL     OW10215   4.338   0.122   1.979
 3396SOL    HW110216   4.436   0.100   1.986
 3396SOL    HW210217   4.307   0.105   1.886
 3397SOL     OW10218   4.505   0.264   3.611
 3397SOL    HW110219   4.572   0.203   3.654
 3397SOL    HW210220   4.432   0.283   3.676
 3398SOL     OW10221   4.612   1.514   3.057
 3398SOL    HW110222   4.589   1.489   2.963
 3398SOL    HW210223   4.673   1.445   3.096
 3399SOL     OW10224   4.527   1.402   2.786
 3399SOL    HW110225   4.617   1.416   2.744
 3399SOL    HW210226   4.456   1.404   2.715
 3400SOL     OW10227   4.646   0.503   2.761
 3400SOL    HW110228   4.621   0.494   2.665
 3400SOL    HW210229   4.694   0.421   2.792
 3401SOL     OW10230   4.263   0.064   2.374
 3401SOL    HW110231   4.182   0.065   2.432
 3401SOL    HW210232   4.266   0.147   2.319
 3402SOL     OW10233   4.021   0.035   2.033
 3402SOL    HW110234   4.070   0.119   2.012
 3402SOL    HW210235   4.083  -0.030   2.078
 3403SOL     OW10236   4.659   0.236   2.342
 3403SOL    HW110237   4.611   0.277   2.264
 3403SOL    HW210238   4.758   0.234   2.323
 3404SOL     OW10239   4.800   0.683   3.326
 3404SOL    HW110240   4.720   0.622   3.329
 3404SOL    HW210241   4.881   0.630   3.302
 3405SOL     OW10242   4.951   1.570   2.655
 3405SOL    HW110243   4.972   1.644   2.590
 3405SOL    HW210244   5.019   1.570   2.728
 3406SOL     OW10245   4.183   1.152   2.603
 3406SOL    HW110246   4.112   1.125   2.668
 3406SOL    HW210247   4.157   1.124   2.510
 3407SOL     OW10248   4.995   1.797   2.453
 3407SOL    HW110249   5.039   1.861   2.389
 3407SOL    HW210250   4.945   1.849   2.523
 3408SOL     OW10251   4.756   0.549   1.878
 3408SOL    HW110252   4.715   0.631   1.839
 3408SOL    HW210253   4.820   0.575   1.951
 3409SOL     OW10254   3.802   0.556   3.248
 3409SOL    HW110255   3.894   0.555   3.207
 3409SOL    HW210256   3.796   0.630   3.315
 3410SOL     OW10257   4.285   0.222   3.009
 3410SOL    HW110258   4.323   0.138   3.046
 3410SOL    HW210259   4.197   0.241   3.053
 3411SOL     OW10260   4.590   0.454   2.504
 3411SOL    HW110261   4.558   0.526   2.442
 3411SOL    HW210262   4.614   0.373   2.451
 3412SOL     OW10263   4.741   0.039   2.615
 3412SOL    HW110264   4.669   0.044   2.546
 3412SOL    HW210265   4.717  -0.030   2.684
 3413SOL     OW10266   4.212   1.385   2.036
 3413SOL    HW110267   4.125   1.370   2.083
 3413SOL    HW210268   4.195   1.411   1.941
 3414SOL     OW10269   4.251   0.256   2.190
 3414SOL    HW110270   4.278   0.197   2.115
 3414SOL    HW210271   4.251   0.351   2.159
 3415SOL     OW10272   4.788   1.347   3.202
 3415SOL    HW110273   4.708   1.324   3.257
 3415SOL    HW210274   4.871   1.321   3.251
 3416SOL     OW10275   4.835   1.195   2.962
 3416SOL    HW110276   4.795   1.239   3.043
 3416SOL    HW210277   4.794   1.232   2.879
 3417SOL     OW10278   4.639   0.089   3.264
 3417SOL    HW110279   4.664   0.069   3.169
 3417SOL    HW210280   4.711   0.145   3.306
 3418SOL     OW10281   4.704   1.116   3.581
 3418SOL    HW110282   4.605   1.122   3.591
 3418SOL    HW210283   4.727   1.036   3.525
 3419SOL     OW10284   4.429   1.050   2.230
 3419SOL    HW110285   4.415   1.057   2.329
 3419SOL    HW210286   4.513   0.999   2.212
 3420SOL     OW10287   4.134   0.813   3.113
 3420SOL    HW110288   4.220   0.825   3.163
 3420SOL    HW210289   4.092   0.726   3.140
 3421SOL     OW10290   4.998   0.386   3.124
 3421SOL    HW110291   5.019   0.460   3.188
 3421SOL    HW210292   4.909   0.403   3.081
 3422SOL     OW10293   3.788   1.564   3.193
 3422SOL    HW110294   3.742   1.646   3.159
 3422SOL    HW210295   3.886   1.583   3.202
 3423SOL     OW10296   4.091   1.100   2.363
 3423SOL    HW110297   4.084   1.183   2.307
 3423SOL    HW210298   4.095   1.020   2.303
 3424SOL     OW10299   4.290   0.537   2.727
 3424SOL    HW110300   4.302   0.603   2.653
 3424SOL    HW210301   4.336   0.571   2.810
 3425SOL     OW10302   4.976   1.348   2.250
 3425SOL    HW110303   5.026   1.425   2.290
 3425SOL    HW210304   4.881   1.350   2.282
 3426SOL     OW10305   4.996   1.445   3.004
 3426SOL    HW110306   5.043   1.458   3.091
 3426SOL    HW210307   4.930   1.371   3.013
 3427SOL     OW10308   4.078   1.510   3.191
 3427SOL    HW110309   4.057   1.466   3.104
 3427SOL    HW210310   4.175   1.536   3.194
 3428SOL     OW10311   4.126   0.751   3.460
 3428SOL    HW110312   4.194   0.806   3.413
 3428SOL    HW210313   4.166   0.663   3.487
 3429SOL     OW10314   4.737   0.105   3.632
 3429SOL    HW110315   4.743   0.190   3.580
 3429SOL    HW210316   4.769   0.029   3.575
 3430SOL     OW10317   4.228   0.050   3.602
 3430SOL    HW110318   4.186  -0.007   3.532
 3430SOL    HW210319   4.162   0.119   3.634
 3431SOL     OW10320   4.297   0.870   2.891
 3431SOL    HW110321   4.341   0.959   2.882
 3431SOL    HW210322   4.234   0.870   2.968
 3432SOL     OW10323   5.084   0.862   2.907
 3432SOL    HW110324   5.009   0.862   2.841
 3432SOL    HW210325   5.121   0.770   2.916
 3433SOL     OW10326   4.933   0.525   2.137
 3433SOL    HW110327   4.946   0.441   2.191
 3433SOL    HW210328   4.904   0.599   2.197
 3434SOL     OW10329   4.031   0.213   3.093
 3434SOL    HW110330   4.008   0.250   3.183
 3434SOL    HW210331   4.001   0.118   3.087
 3435SOL     OW10332   3.761   1.310   3.144
 3435SOL    HW110333   3.814   1.261   3.212
 3435SOL    HW210334   3.783   1.408   3.149
 3436SOL     OW10335   4.456   0.634   2.926
 3436SOL    HW110336   4.515   0.608   2.850
 3436SOL    HW210337   4.428   0.730   2.915
 3437SOL     OW10338   4.031   0.063   2.480
 3437SOL    HW110339   4.020   0.157   2.513
 3437SOL    HW210340   4.026   0.000   2.557
 3438SOL     OW10341   5.346   0.367   2.236
 3438SOL    HW110342   5.348   0.291   2.300
 3438SOL    HW210343   5.298   0.444   2.276
 3439SOL     OW10344   4.747   0.766   2.828
 3439SOL    HW110345   4.762   0.787   2.924
 3439SOL    HW210346   4.717   0.671   2.819
 3440SOL     OW10347   4.704   1.573   3.562
 3440SOL    HW110348   4.684   1.617   3.474
 3440SOL    HW210349   4.743   1.482   3.546
 3441SOL     OW10350   4.074   0.898   3.666
 3441SOL    HW110351   4.150   0.942   3.714
 3441SOL    HW210352   4.109   0.851   3.584
 3442SOL     OW10353   5.027   0.838   1.904
 3442SOL    HW110354   5.061   0.745   1.919
 3442SOL    HW210355   5.045   0.865   1.809
 3443SOL     OW10356   4.792   1.333   2.711
 3443SOL    HW110357   4.799   1.249   2.656
 3443SOL    HW210358   4.854   1.402   2.675
 3444SOL     OW10359   4.043   0.810   2.811
 3444SOL    HW110360   4.136   0.846   2.816
 3444SOL    HW210361   4.037   0.725   2.863
 3445SOL     OW10362   4.063   0.509   2.868
 3445SOL    HW110363   4.011   0.426   2.851
 3445SOL    HW210364   4.140   0.514   2.804
 3446SOL     OW10365   4.862   0.380   3.540
 3446SOL    HW110366   4.817   0.443   3.604
 3446SOL    HW210367   4.955   0.411   3.523
 3447SOL     OW10368   4.884   0.207   3.339
 3447SOL    HW110369   4.884   0.271   3.416
 3447SOL    HW210370   4.912   0.255   3.256
 3448SOL     OW10371   3.732   1.326   2.062
 3448SOL    HW110372   3.639   1.347   2.031
 3448SOL    HW210373   3.742   1.227   2.075
 3449SOL     OW10374   3.812   1.801   2.789
 3449SOL    HW110375   3.770   1.715   2.762
 3449SOL    HW210376   3.906   1.804   2.755
 3450SOL     OW10377   4.228   1.568   2.772
 3450SOL    HW110378   4.294   1.642   2.781
 3450SOL    HW210379   4.272   1.489   2.730
 3451SOL     OW10380   4.726   0.796   3.100
 3451SOL    HW110381   4.767   0.764   3.186
 3451SOL    HW210382   4.630   0.769   3.097
 3452SOL     OW10383   3.764   0.544   2.976
 3452SOL    HW110384   3.849   0.511   2.935
 3452SOL    HW210385   3.777   0.559   3.074
 3453SOL     OW10386   3.913   0.520   3.584
 3453SOL    HW110387   3.972   0.480   3.514
 3453SOL    HW210388   3.855   0.591   3.543
 3454SOL     OW10389   4.539   0.572   2.187
 3454SOL    HW110390   4.546   0.483   2.141
 3454SOL    HW210391   4.445   0.606   2.179
 3455SOL     OW10392   3.976   1.564   3.606
 3455SOL    HW110393   3.946   1.621   3.682
 3455SOL    HW210394   3.969   1.467   3.632
 3456SOL     OW10395   4.395   0.464   3.131
 3456SOL    HW110396   4.361   0.375   3.101
 3456SOL    HW210397   4.421   0.518   3.051
 3457SOL     OW10398   4.654   1.678   3.327
 3457SOL    HW110399   4.630   1.660   3.232
 3457SOL    HW210400   4.684   1.772   3.337
 3458SOL     OW10401   4.197   0.500   2.053
 3458SOL    HW110402   4.258   0.580   2.057
 3458SOL    HW210403   4.102   0.531   2.060
 3459SOL     OW10404   3.883   1.137   3.328
 3459SOL    HW110405   3.905   1.076   3.404
 3459SOL    HW210406   3.893   1.088   3.242
 3460SOL     OW10407   5.071   1.059   3.096
 3460SOL    HW110408   5.095   0.996   3.022
 3460SOL    HW210409   4.981   1.099   3.078
 3461SOL     OW10410   5.026   0.855   2.171
 3461SOL    HW110411   4.940   0.824   2.213
 3461SOL    HW210412   5.022   0.841   2.072
 3462SOL     OW10413   4.976   1.731   2.990
 3462SOL    HW110414   5.060   1.736   2.936
 3462SOL    HW210415   4.953   1.635   3.008
 3463SOL     OW10416   3.807   1.258   2.884
 3463SOL    HW110417   3.802   1.257   2.984
 3463SOL    HW210418   3.724   1.217   2.846
 3464SOL     OW10419   4.412   1.662   3.578
 3464SOL    HW110420   4.356   1.743   3.587
 3464SOL    HW210421   4.464   1.666   3.492
 3465SOL     OW10422   5.112   1.573   2.339
 3465SOL    HW110423   5.179   1.585   2.265
 3465SOL    HW210424   5.072   1.662   2.362
 3466SOL     OW10425   3.854   1.794   3.713
 3466SOL    HW110426   3.813   1.720   3.766
 3466SOL    HW210427   3.918   1.845   3.771
 3467SOL     OW10428   5.004   0.927   2.534
 3467SOL    HW110429   5.064   0.846   2.536
 3467SOL    HW210430   5.044   0.996   2.474
 3468SOL     OW10431   4.554   1.273   3.284
 3468SOL    HW110432   4.549   1.306   3.379
 3468SOL    HW210433   4.468   1.292   3.238
 3469SOL     OW10434   4.396   1.616   2.016
 3469SOL    HW110435   4.405   1.626   1.917
 3469SOL    HW210436   4.356   1.527   2.037
 3470SOL     OW10437   3.987   0.326   2.582
 3470SOL    HW110438   3.908   0.377   2.548
 3470SOL    HW210439   3.978   0.311   2.680
 3471SOL     OW10440   4.918   1.612   1.893
 3471SOL    HW110441   4.924   1.519   1.930
 3471SOL    HW210442   4.859   1.612   1.813
 3472SOL     OW10443   4.546   1.002   3.234
 3472SOL    HW110444   4.586   1.001   3.142
 3472SOL    HW210445   4.556   1.094   3.274
 3473SOL     OW10446   4.640   0.910   2.153
 3473SOL    HW110447   4.703   0.948   2.085
 3473SOL    HW210448   4.680   0.827   2.192
 3474SOL     OW10449   4.096   1.288   3.352
 3474SOL    HW110450   4.083   1.381   3.318
 3474SOL    HW210451   4.012   1.236   3.339
 3475SOL     OW10452   4.763   1.098   2.558
 3475SOL    HW110453   4.693   1.051   2.612
 3475SOL    HW210454   4.822   1.030   2.515
 3476SOL     OW10455   4.738   0.236   2.833
 3476SOL    HW110456   4.730   0.200   2.740
 3476SOL    HW210457   4.736   0.160   2.898
 3477SOL     OW10458   4.314   1.487   2.353
 3477SOL    HW110459   4.356   1.429   2.283
 3477SOL    HW210460   4.270   1.566   2.309
 3478SOL     OW10461   3.979   1.348   2.152
 3478SOL    HW110462   3.883   1.349   2.125
 3478SOL    HW210463   3.991   1.401   2.236
 3479SOL     OW10464   3.829   1.013   3.588
 3479SOL    HW110465   3.752   0.980   3.642
 3479SOL    HW210466   3.914   0.983   3.630
 3480SOL     OW10467   4.396   0.203   3.351
 3480SOL    HW110468   4.486   0.187   3.311
 3480SOL    HW210469   4.404   0.208   3.450
 3481SOL     OW10470   3.799   0.345   1.895
 3481SOL    HW110471   3.707   0.317   1.866
 3481SOL    HW210472   3.830   0.422   1.839
 3482SOL     OW10473   5.164   0.856   3.260
 3482SOL    HW110474   5.107   0.908   3.197
 3482SOL    HW210475   5.260   0.868   3.236
 3483SOL     OW10476   3.796   0.166   2.180
 3483SOL    HW110477   3.779   0.249   2.126
 3483SOL    HW210478   3.886   0.129   2.158
 3484SOL     OW10479   4.337   0.842   3.293
 3484SOL    HW110480   4.393   0.923   3.276
 3484SOL    HW210481   4.396   0.762   3.296
 3485SOL     OW10482   4.440   0.565   3.570
 3485SOL    HW110483   4.459   0.630   3.644
 3485SOL    HW210484   4.500   0.485   3.579
 3486SOL     OW10485   5.174   1.220   3.495
 3486SOL    HW110486   5.165   1.210   3.594
 3486SOL    HW210487   5.270   1.213   3.469
 3487SOL     OW10488   4.114   1.741   3.422
 3487SOL    HW110489   4.023   1.782   3.420
 3487SOL    HW210490   4.107   1.647   3.454
 3488SOL     OW10491   4.949   0.325   2.311
 3488SOL    HW110492   5.014   0.251   2.300
 3488SOL    HW210493   4.969   0.375   2.395
 3489SOL     OW10494   4.318   0.745   2.514
 3489SOL    HW110495   4.368   0.830   2.495
 3489SOL    HW210496   4.230   0.747   2.466
 3490SOL     OW10497   4.583   1.374   1.878
 3490SOL    HW110498   4.537   1.389   1.966
 3490SOL    HW210499   4.627   1.459   1.848
 3491SOL     OW10500   4.385   1.790   2.815
 3491SOL    HW110501   4.339   1.878   2.802
 3491SOL    HW210502   4.484   1.802   2.808
 3492SOL     OW10503   4.583   0.956   2.723
 3492SOL    HW110504   4.637   0.887   2.771
 3492SOL    HW210505   4.551   1.025   2.789
 3493SOL     OW10506   4.807   0.984   1.949
 3493SOL    HW110507   4.784   1.037   1.867
 3493SOL    HW210508   4.888   0.928   1.930
 3494SOL     OW10509   3.945   1.314   3.706
 3494SOL    HW110510   3.880   1.241   3.685
 3494SOL    HW210511   3.949   1.328   3.804
 3495SOL     OW10512   3.803   1.240   2.515
 3495SOL    HW110513   3.802   1.193   2.603
 3495SOL    HW210514   3.885   1.212   2.464
 3496SOL     OW10515   4.396   1.391   3.486
 3496SOL    HW110516   4.318   1.341   3.524
 3496SOL    HW210517   4.393   1.486   3.517
 3497SOL     OW10518   4.152   0.424   2.382
 3497SOL    HW110519   4.182   0.352   2.320
 3497SOL    HW210520   4.113   0.384   2.465
 3498SOL     OW10521   4.041   0.547   3.142
 3498SOL    HW110522   4.079   0.488   3.214
 3498SOL    HW210523   4.081   0.521   3.054
 3499SOL     OW10524   4.536   1.586   2.549
 3499SOL    HW110525   4.568   1.596   2.455
 3499SOL    HW210526   4.457   1.524   2.551
 3500SOL     OW10527   4.725   0.034   3.016
 3500SOL    HW110528   4.662  -0.038   2.985
 3500SOL    HW210529   4.818  -0.002   3.016
 3501SOL     OW10530   4.494   1.330   2.163
 3501SOL    HW110531   4.448   1.243   2.180
 3501SOL    HW210532   4.585   1.327   2.204
 3502SOL     OW10533   4.342   1.567   3.146
 3502SOL    HW110534   4.337   1.649   3.203
 3502SOL    HW210535   4.431   1.564   3.101
 3503SOL     OW10536   3.763   1.077   2.162
 3503SOL    HW110537   3.862   1.066   2.153
 3503SOL    HW210538   3.723   0.991   2.194
 3504SOL     OW10539   4.599   1.646   2.199
 3504SOL    HW110540   4.522   1.611   2.145
 3504SOL    HW210541   4.567   1.717   2.261
 3505SOL     OW10542   3.954   0.628   3.837
 3505SOL    HW110543   3.861   0.626   3.874
 3505SOL    HW210544   3.955   0.589   3.745
 3506SOL     OW10545   3.949   0.275   4.720
 3506SOL    HW110546   3.984   0.258   4.812
 3506SOL    HW210547   3.861   0.230   4.708
 3507SOL     OW10548   3.743   0.368   4.371
 3507SOL    HW110549   3.661   0.411   4.410
 3507SOL    HW210550   3.715   0.295   4.308
 3508SOL     OW10551   4.293   1.275   4.889
 3508SOL    HW110552   4.200   1.268   4.852
 3508SOL    HW210553   4.304   1.364   4.933
 3509SOL     OW10554   4.859   0.703   4.441
 3509SOL    HW110555   4.916   0.781   4.416
 3509SOL    HW210556   4.799   0.729   4.517
 3510SOL     OW10557   4.492   1.144   4.747
 3510SOL    HW110558   4.414   1.161   4.807
 3510SOL    HW210559   4.526   1.231   4.711
 3511SOL     OW10560   4.409   1.012   4.389
 3511SOL    HW110561   4.478   0.996   4.459
 3511SOL    HW210562   4.336   1.069   4.427
 3512SOL     OW10563   4.059   1.435   4.785
 3512SOL    HW110564   3.981   1.404   4.732
 3512SOL    HW210565   4.117   1.493   4.728
 3513SOL     OW10566   3.955   1.713   4.207
 3513SOL    HW110567   3.989   1.790   4.261
 3513SOL    HW210568   3.999   1.713   4.117
 3514SOL     OW10569   3.954   1.434   4.262
 3514SOL    HW110570   3.928   1.530   4.262
 3514SOL    HW210571   3.883   1.380   4.307
 3515SOL     OW10572   3.964   1.091   4.610
 3515SOL    HW110573   3.978   1.007   4.662
 3515SOL    HW210574   3.909   1.155   4.665
 3516SOL     OW10575   4.344   1.786   5.163
 3516SOL    HW110576   4.252   1.769   5.198
 3516SOL    HW210577   4.372   1.878   5.189
 3517SOL     OW10578   4.330   0.964   3.847
 3517SOL    HW110579   4.337   1.048   3.793
 3517SOL    HW210580   4.376   0.977   3.935
 3518SOL     OW10581   3.846   0.643   4.287
 3518SOL    HW110582   3.801   0.555   4.304
 3518SOL    HW210583   3.845   0.697   4.371
 3519SOL     OW10584   3.751   1.596   3.841
 3519SOL    HW110585   3.732   1.500   3.862
 3519SOL    HW210586   3.718   1.654   3.916
 3520SOL     OW10587   4.337   1.365   4.450
 3520SOL    HW110588   4.288   1.278   4.459
 3520SOL    HW210589   4.314   1.408   4.363
 3521SOL     OW10590   4.533   0.004   4.226
 3521SOL    HW110591   4.573   0.095   4.217
 3521SOL    HW210592   4.433   0.012   4.232
 3522SOL     OW10593   3.921   0.976   4.988
 3522SOL    HW110594   4.010   0.931   4.974
 3522SOL    HW210595   3.848   0.911   4.969
 3523SOL     OW10596   4.322   0.729   3.994
 3523SOL    HW110597   4.346   0.798   3.926
 3523SOL    HW210598   4.244   0.762   4.048
 3524SOL     OW10599   5.005   0.345   4.668
 3524SOL    HW110600   4.919   0.295   4.655
 3524SOL    HW210601   5.067   0.291   4.724
 3525SOL     OW10602   4.531   0.605   5.189
 3525SOL    HW110603   4.484   0.602   5.278
 3525SOL    HW210604   4.480   0.550   5.123
 3526SOL     OW10605   4.715   0.410   4.966
 3526SOL    HW110606   4.638   0.444   5.020
 3526SOL    HW210607   4.681   0.359   4.887
 3527SOL     OW10608   4.765   0.701   4.153
 3527SOL    HW110609   4.791   0.697   4.249
 3527SOL    HW210610   4.680   0.650   4.139
 3528SOL     OW10611   3.800   0.811   4.513
 3528SOL    HW110612   3.899   0.799   4.522
 3528SOL    HW210613   3.776   0.906   4.534
 3529SOL     OW10614   4.589   0.348   3.919
 3529SOL    HW110615   4.648   0.411   3.870
 3529SOL    HW210616   4.608   0.254   3.890
 3530SOL     OW10617   5.086   1.144   4.269
 3530SOL    HW110618   5.169   1.115   4.221
 3530SOL    HW210619   5.037   1.211   4.213
 3531SOL     OW10620   4.274   0.196   4.609
 3531SOL    HW110621   4.269   0.191   4.709
 3531SOL    HW210622   4.276   0.292   4.580
 3532SOL     OW10623   4.732   1.456   4.201
 3532SOL    HW110624   4.686   1.528   4.149
 3532SOL    HW210625   4.728   1.476   4.299
 3533SOL     OW10626   4.075   1.801   4.577
 3533SOL    HW110627   4.125   1.715   4.583
 3533SOL    HW210628   4.140   1.878   4.574
 3534SOL     OW10629   4.045   0.943   3.966
 3534SOL    HW110630   4.127   0.982   3.924
 3534SOL    HW210631   4.018   0.861   3.917
 3535SOL     OW10632   4.835   1.776   3.961
 3535SOL    HW110633   4.775   1.714   4.011
 3535SOL    HW210634   4.866   1.732   3.876
 3536SOL     OW10635   3.926   0.285   5.222
 3536SOL    HW110636   3.846   0.345   5.209
 3536SOL    HW210637   3.916   0.236   5.308
 3537SOL     OW10638   4.188   1.743   4.047
 3537SOL    HW110639   4.221   1.782   4.133
 3537SOL    HW210640   4.264   1.736   3.982
 3538SOL     OW10641   3.973   1.785   4.965
 3538SOL    HW110642   4.030   1.720   5.015
 3538SOL    HW210643   3.957   1.752   4.872
 3539SOL     OW10644   4.664   1.698   4.628
 3539SOL    HW110645   4.744   1.641   4.649
 3539SOL    HW210646   4.615   1.658   4.551
 3540SOL     OW10647   4.106   0.700   4.204
 3540SOL    HW110648   4.151   0.610   4.201
 3540SOL    HW210649   4.012   0.689   4.237
 3541SOL     OW10650   4.338   0.122   3.841
 3541SOL    HW110651   4.436   0.100   3.848
 3541SOL    HW210652   4.307   0.105   3.748
 3542SOL     OW10653   4.612   1.514   4.919
 3542SOL    HW110654   4.589   1.489   4.825
 3542SOL    HW210655   4.673   1.445   4.958
 3543SOL     OW10656   4.527   1.402   4.648
 3543SOL    HW110657   4.617   1.416   4.606
 3543SOL    HW210658   4.456   1.404   4.577
 3544SOL     OW10659   4.646   0.503   4.623
 3544SOL    HW110660   4.621   0.494   4.527
 3544SOL    HW210661   4.694   0.421   4.654
 3545SOL     OW10662   4.263   0.064   4.236
 3545SOL    HW110663   4.182   0.065   4.294
 3545SOL    HW210664   4.266   0.147   4.181
 3546SOL     OW10665   4.021   0.035   3.895
 3546SOL    HW110666   4.070   0.119   3.874
 3546SOL    HW210667   4.083  -0.030   3.940
 3547SOL     OW10668   4.659   0.236   4.204
 3547SOL    HW110669   4.611   0.277   4.126
 3547SOL    HW210670   4.758   0.234   4.185
 3548SOL     OW10671   4.951   1.570   4.517
 3548SOL    HW110672   4.972   1.644   4.452
 3548SOL    HW210673   5.019   1.570   4.590
 3549SOL     OW10674   4.183   1.152   4.465
 3549SOL    HW110675   4.112   1.125   4.530
 3549SOL    HW210676   4.157   1.124   4.372
 3550SOL     OW10677   4.995   1.797   4.315
 3550SOL    HW110678   5.039   1.861   4.251
 3550SOL    HW210679   4.945   1.849   4.385
 3551SOL     OW10680   4.756   0.549   3.740
 3551SOL    HW110681   4.715   0.631   3.701
 3551SOL    HW210682   4.820   0.575   3.813
 3552SOL     OW10683   4.285   0.222   4.871
 3552SOL    HW110684   4.323   0.138   4.908
 3552SOL    HW210685   4.197   0.241   4.915
 3553SOL     OW10686   4.590   0.454   4.366
 3553SOL    HW110687   4.558   0.526   4.304
 3553SOL    HW210688   4.614   0.373   4.313
 3554SOL     OW10689   4.741   0.039   4.477
 3554SOL    HW110690   4.669   0.044   4.408
 3554SOL    HW210691   4.717  -0.030   4.546
 3555SOL     OW10692   4.212   1.385   3.898
 3555SOL    HW110693   4.125   1.370   3.945
 3555SOL    HW210694   4.195   1.411   3.803
 3556SOL     OW10695   4.251   0.256   4.052
 3556SOL    HW110696   4.278   0.197   3.977
 3556SOL    HW210697   4.251   0.351   4.021
 3557SOL     OW10698   5.316   1.629   5.349
 3557SOL    HW110699   5.343   1.663   5.259
 3557SOL    HW210700   5.395   1.591   5.395
 3558SOL     OW10701   4.835   1.195   4.824
 3558SOL    HW110702   4.795   1.239   4.905
 3558SOL    HW210703   4.794   1.232   4.741
 3559SOL     OW10704   4.429   1.050   4.092
 3559SOL    HW110705   4.415   1.057   4.191
 3559SOL    HW210706   4.513   0.999   4.074
 3560SOL     OW10707   4.134   0.813   4.975
 3560SOL    HW110708   4.220   0.825   5.025
 3560SOL    HW210709   4.092   0.726   5.002
 3561SOL     OW10710   4.998   0.386   4.986
 3561SOL    HW110711   5.019   0.460   5.050
 3561SOL    HW210712   4.909   0.403   4.943
 3562SOL     OW10713   3.788   1.564   5.055
 3562SOL    HW110714   3.742   1.646   5.021
 3562SOL    HW210715   3.886   1.583   5.064
 3563SOL     OW10716   4.091   1.100   4.225
 3563SOL    HW110717   4.084   1.183   4.169
 3563SOL    HW210718   4.095   1.020   4.165
 3564SOL     OW10719   4.290   0.537   4.589
 3564SOL    HW110720   4.302   0.603   4.515
 3564SOL    HW210721   4.336   0.571   4.672
 3565SOL     OW10722   4.976   1.348   4.112
 3565SOL    HW110723   5.026   1.425   4.152
 3565SOL    HW210724   4.881   1.350   4.144
 3566SOL     OW10725   4.996   1.445   4.866
 3566SOL    HW110726   5.043   1.458   4.953
 3566SOL    HW210727   4.930   1.371   4.875
 3567SOL     OW10728   4.078   1.510   5.053
 3567SOL    HW110729   4.057   1.466   4.966
 3567SOL    HW210730   4.175   1.536   5.056
 3568SOL     OW10731   4.297   0.870   4.753
 3568SOL    HW110732   4.341   0.959   4.744
 3568SOL    HW210733   4.234   0.870   4.830
 3569SOL     OW10734   5.084   0.862   4.769
 3569SOL    HW110735   5.009   0.862   4.703
 3569SOL    HW210736   5.121   0.770   4.778
 3570SOL     OW10737   4.933   0.525   3.999
 3570SOL    HW110738   4.946   0.441   4.053
 3570SOL    HW210739   4.904   0.599   4.059
 3571SOL     OW10740   4.031   0.213   4.955
 3571SOL    HW110741   4.008   0.250   5.045
 3571SOL    HW210742   4.001   0.118   4.949
 3572SOL     OW10743   3.761   1.310   5.006
 3572SOL    HW110744   3.814   1.261   5.074
 3572SOL    HW210745   3.783   1.408   5.011
 3573SOL     OW10746   4.456   0.634   4.788
 3573SOL    HW110747   4.515   0.608   4.712
 3573SOL    HW210748   4.428   0.730   4.777
 3574SOL     OW10749   4.031   0.063   4.342
 3574SOL    HW110750   4.020   0.157   4.375
 3574SOL    HW210751   4.026   0.000   4.419
 3575SOL     OW10752   5.346   0.367   4.098
 3575SOL    HW110753   5.348   0.291   4.162
 3575SOL    HW210754   5.298   0.444   4.138
 3576SOL     OW10755   4.747   0.766   4.690
 3576SOL    HW110756   4.762   0.787   4.786
 3576SOL    HW210757   4.717   0.671   4.681
 3577SOL     OW10758   5.027   0.838   3.766
 3577SOL    HW110759   5.061   0.745   3.781
 3577SOL    HW210760   5.045   0.865   3.671
 3578SOL     OW10761   4.792   1.333   4.573
 3578SOL    HW110762   4.799   1.249   4.518
 3578SOL    HW210763   4.854   1.402   4.537
 3579SOL     OW10764   4.043   0.810   4.673
 3579SOL    HW110765   4.136   0.846   4.678
 3579SOL    HW210766   4.037   0.725   4.725
 3580SOL     OW10767   4.063   0.509   4.730
 3580SOL    HW110768   4.011   0.426   4.713
 3580SOL    HW210769   4.140   0.514   4.666
 3581SOL     OW10770   4.884   0.207   5.201
 3581SOL    HW110771   4.884   0.271   5.278
 3581SOL    HW210772   4.912   0.255   5.118
 3582SOL     OW10773   3.732   1.326   3.924
 3582SOL    HW110774   3.639   1.347   3.893
 3582SOL    HW210775   3.742   1.227   3.937
 3583SOL     OW10776   3.812   1.801   4.651
 3583SOL    HW110777   3.770   1.715   4.624
 3583SOL    HW210778   3.906   1.804   4.617
 3584SOL     OW10779   4.228   1.568   4.634
 3584SOL    HW110780   4.294   1.642   4.643
 3584SOL    HW210781   4.272   1.489   4.592
 3585SOL     OW10782   4.726   0.796   4.962
 3585SOL    HW110783   4.767   0.764   5.048
 3585SOL    HW210784   4.630   0.769   4.959
 3586SOL     OW10785   3.764   0.544   4.838
 3586SOL    HW110786   3.849   0.511   4.797
 3586SOL    HW210787   3.777   0.559   4.936
 3587SOL     OW10788   3.913   0.520   5.446
 3587SOL    HW110789   3.972   0.480   5.376
 3587SOL    HW210790   3.855   0.591   5.405
 3588SOL     OW10791   4.539   0.572   4.049
 3588SOL    HW110792   4.546   0.483   4.003
 3588SOL    HW210793   4.445   0.606   4.041
 3589SOL     OW10794   4.395   0.464   4.993
 3589SOL    HW110795   4.361   0.375   4.963
 3589SOL    HW210796   4.421   0.518   4.913
 3590SOL     OW10797   4.654   1.678   5.189
 3590SOL    HW110798   4.630   1.660   5.094
 3590SOL    HW210799   4.684   1.772   5.199
 3591SOL     OW10800   4.197   0.500   3.915
 3591SOL    HW110801   4.258   0.580   3.919
 3591SOL    HW210802   4.102   0.531   3.922
 3592SOL     OW10803   3.883   1.137   5.190
 3592SOL    HW110804   3.905   1.076   5.266
 3592SOL    HW210805   3.893   1.088   5.104
 3593SOL     OW10806   5.071   1.059   4.958
 3593SOL    HW110807   5.095   0.996   4.884
 3593SOL    HW210808   4.981   1.099   4.940
 3594SOL     OW10809   5.026   0.855   4.033
 3594SOL    HW110810   4.940   0.824   4.075
 3594SOL    HW210811   5.022   0.841   3.934
 3595SOL     OW10812   4.976   1.731   4.852
 3595SOL    HW110813   5.060   1.736   4.798
 3595SOL    HW210814   4.953   1.635   4.870
 3596SOL     OW10815   3.807   1.258   4.746
 3596SOL    HW110816   3.802   1.257   4.846
 3596SOL    HW210817   3.724   1.217   4.708
 3597SOL     OW10818   5.112   1.573   4.201
 3597SOL    HW110819   5.179   1.585   4.127
 3597SOL    HW210820   5.072   1.662   4.224
 3598SOL     OW10821   5.004   0.927   4.396
 3598SOL    HW110822   5.064   0.846   4.398
 3598SOL    HW210823   5.044   0.996   4.336
 3599SOL     OW10824   4.396   1.616   3.878
 3599SOL    HW110825   4.405   1.626   3.779
 3599SOL    HW210826   4.356   1.527   3.899
 3600SOL     OW10827   3.987   0.326   4.444
 3600SOL    HW110828   3.908   0.377   4.410
 3600SOL    HW210829   3.978   0.311   4.542
 3601SOL     OW10830   4.918   1.612   3.755
 3601SOL    HW110831   4.924   1.519   3.792
 3601SOL    HW210832   4.859   1.612   3.675
 3602SOL     OW10833   4.546   1.002   5.096
 3602SOL    HW110834   4.586   1.001   5.004
 3602SOL    HW210835   4.556   1.094   5.136
 3603SOL     OW10836   4.640   0.910   4.015
 3603SOL    HW110837   4.703   0.948   3.947
 3603SOL    HW210838   4.680   0.827   4.054
 3604SOL     OW10839   4.763   1.098   4.420
 3604SOL    HW110840   4.693   1.051   4.474
 3604SOL    HW210841   4.822   1.030   4.377
 3605SOL     OW10842   4.738   0.236   4.695
 3605SOL    HW110843   4.730   0.200   4.602
 3605SOL    HW210844   4.736   0.160   4.760
 3606SOL     OW10845   4.314   1.487   4.215
 3606SOL    HW110846   4.356   1.429   4.145
 3606SOL    HW210847   4.270   1.566   4.171
 3607SOL     OW10848   3.979   1.348   4.014
 3607SOL    HW110849   3.883   1.349   3.987
 3607SOL    HW210850   3.991   1.401   4.098
 3608SOL     OW10851   3.799   0.345   3.757
 3608SOL    HW110852   3.707   0.317   3.728
 3608SOL    HW210853   3.830   0.422   3.701
 3609SOL     OW10854   3.796   0.166   4.042
 3609SOL    HW110855   3.779   0.249   3.988
 3609SOL    HW210856   3.886   0.129   4.020
 3610SOL     OW10857   4.114   1.741   5.284
 3610SOL    HW110858   4.023   1.782   5.282
 3610SOL    HW210859   4.107   1.647   5.316
 3611SOL     OW10860   4.949   0.325   4.173
 3611SOL    HW110861   5.014   0.251   4.162
 3611SOL    HW210862   4.969   0.375   4.257
 3612SOL     OW10863   4.318   0.745   4.376
 3612SOL    HW110864   4.368   0.830   4.357
 3612SOL    HW210865   4.230   0.747   4.328
 3613SOL     OW10866   4.583   1.374   3.740
 3613SOL    HW110867   4.537   1.389   3.828
 3613SOL    HW210868   4.627   1.459   3.710
 3614SOL     OW10869   4.385   1.790   4.677
 3614SOL    HW110870   4.339   1.878   4.664
 3614SOL    HW210871   4.484   1.802   4.670
 3615SOL     OW10872   4.583   0.956   4.585
 3615SOL    HW110873   4.637   0.887   4.633
 3615SOL    HW210874   4.551   1.025   4.651
 3616SOL     OW10875   4.807   0.984   3.811
 3616SOL    HW110876   4.784   1.037   3.729
 3616SOL    HW210877   4.888   0.928   3.792
 3617SOL     OW10878   3.803   1.240   4.377
 3617SOL    HW110879   3.802   1.193   4.465
 3617SOL    HW210880   3.885   1.212   4.326
 3618SOL     OW10881   4.152   0.424   4.244
 3618SOL    HW110882   4.182   0.352   4.182
 3618SOL    HW210883   4.113   0.384   4.327
 3619SOL     OW10884   4.041   0.547   5.004
 3619SOL    HW110885   4.079   0.488   5.076
 3619SOL    HW210886   4.081   0.521   4.916
 3620SOL     OW10887   4.536   1.586   4.411
 3620SOL    HW110888   4.568   1.596   4.317
 3620SOL    HW210889   4.457   1.524   4.413
 3621SOL     OW10890   5.148   0.214   4.836
 3621SOL    HW110891   5.200   0.149   4.891
 3621SOL    HW210892   5.099   0.277   4.897
 3622SOL     OW10893   4.725   0.034   4.878
 3622SOL    HW110894   4.662  -0.038   4.847
 3622SOL    HW210895   4.818  -0.002   4.878
 3623SOL     OW10896   4.494   1.330   4.025
 3623SOL    HW110897   4.448   1.243   4.042
 3623SOL    HW210898   4.585   1.327   4.066
 3624SOL     OW10899   3.763   1.077   4.024
 3624SOL    HW110900   3.862   1.066   4.015
 3624SOL    HW210901   3.723   0.991   4.056
 3625SOL     OW10902   4.599   1.646   4.061
 3625SOL    HW110903   4.522   1.611   4.007
 3625SOL    HW210904   4.567   1.717   4.123
 3626SOL     OW10905   3.954   2.490   0.113
 3626SOL    HW110906   3.861   2.488   0.150
 3626SOL    HW210907   3.955   2.451   0.021
 3627SOL     OW10908   3.949   2.137   0.996
 3627SOL    HW110909   3.984   2.120   1.088
 3627SOL    HW210910   3.861   2.092   0.984
 3628SOL     OW10911   3.743   2.230   0.647
 3628SOL    HW110912   3.661   2.273   0.686
 3628SOL    HW210913   3.715   2.157   0.584
 3629SOL     OW10914   4.293   3.137   1.165
 3629SOL    HW110915   4.200   3.130   1.128
 3629SOL    HW210916   4.304   3.226   1.209
 3630SOL     OW10917   4.859   2.565   0.717
 3630SOL    HW110918   4.916   2.643   0.692
 3630SOL    HW210919   4.799   2.591   0.793
 3631SOL     OW10920   4.492   3.006   1.023
 3631SOL    HW110921   4.414   3.023   1.083
 3631SOL    HW210922   4.526   3.093   0.987
 3632SOL     OW10923   4.574   2.660   1.823
 3632SOL    HW110924   4.570   2.736   1.888
 3632SOL    HW210925   4.596   2.696   1.732
 3633SOL     OW10926   4.409   2.874   0.665
 3633SOL    HW110927   4.478   2.858   0.735
 3633SOL    HW210928   4.336   2.931   0.703
 3634SOL     OW10929   4.410   3.023   1.803
 3634SOL    HW110930   4.470   3.102   1.817
 3634SOL    HW210931   4.324   3.054   1.762
 3635SOL     OW10932   4.059   3.297   1.061
 3635SOL    HW110933   3.981   3.266   1.008
 3635SOL    HW210934   4.117   3.355   1.004
 3636SOL     OW10935   4.162   2.254   1.499
 3636SOL    HW110936   4.244   2.198   1.508
 3636SOL    HW210937   4.081   2.196   1.503
 3637SOL     OW10938   3.955   3.575   0.483
 3637SOL    HW110939   3.989   3.652   0.537
 3637SOL    HW210940   3.999   3.575   0.393
 3638SOL     OW10941   4.851   3.203   1.690
 3638SOL    HW110942   4.898   3.203   1.778
 3638SOL    HW210943   4.803   3.116   1.679
 3639SOL     OW10944   3.954   3.296   0.538
 3639SOL    HW110945   3.928   3.392   0.538
 3639SOL    HW210946   3.883   3.242   0.583
 3640SOL     OW10947   3.964   2.953   0.886
 3640SOL    HW110948   3.978   2.869   0.938
 3640SOL    HW210949   3.909   3.017   0.941
 3641SOL     OW10950   4.344   3.648   1.439
 3641SOL    HW110951   4.252   3.631   1.474
 3641SOL    HW210952   4.372   3.740   1.465
 3642SOL     OW10953   4.330   2.826   0.123
 3642SOL    HW110954   4.337   2.910   0.069
 3642SOL    HW210955   4.376   2.839   0.211
 3643SOL     OW10956   3.846   2.505   0.563
 3643SOL    HW110957   3.801   2.417   0.580
 3643SOL    HW210958   3.845   2.559   0.647
 3644SOL     OW10959   3.837   2.599   1.597
 3644SOL    HW110960   3.925   2.586   1.642
 3644SOL    HW210961   3.824   2.696   1.575
 3645SOL     OW10962   4.337   3.227   0.726
 3645SOL    HW110963   4.288   3.140   0.735
 3645SOL    HW210964   4.314   3.270   0.639
 3646SOL     OW10965   5.017   3.090   1.423
 3646SOL    HW110966   5.054   3.017   1.365
 3646SOL    HW210967   5.069   3.095   1.508
 3647SOL     OW10968   4.533   1.866   0.502
 3647SOL    HW110969   4.573   1.957   0.493
 3647SOL    HW210970   4.433   1.874   0.508
 3648SOL     OW10971   3.921   2.838   1.264
 3648SOL    HW110972   4.010   2.793   1.250
 3648SOL    HW210973   3.848   2.773   1.245
 3649SOL     OW10974   4.911   3.654   1.616
 3649SOL    HW110975   4.935   3.714   1.540
 3649SOL    HW210976   4.918   3.559   1.586
 3650SOL     OW10977   4.041   2.113   1.801
 3650SOL    HW110978   4.112   2.184   1.807
 3650SOL    HW210979   3.953   2.152   1.829
 3651SOL     OW10980   4.322   2.591   0.270
 3651SOL    HW110981   4.346   2.660   0.202
 3651SOL    HW210982   4.244   2.624   0.324
 3652SOL     OW10983   5.005   2.207   0.944
 3652SOL    HW110984   4.919   2.157   0.931
 3652SOL    HW210985   5.067   2.153   1.000
 3653SOL     OW10986   4.531   2.467   1.465
 3653SOL    HW110987   4.484   2.464   1.554
 3653SOL    HW210988   4.480   2.412   1.399
 3654SOL     OW10989   5.118   2.331   1.674
 3654SOL    HW110990   5.098   2.374   1.762
 3654SOL    HW210991   5.196   2.269   1.683
 3655SOL     OW10992   4.697   2.752   1.572
 3655SOL    HW110993   4.743   2.668   1.543
 3655SOL    HW210994   4.641   2.786   1.497
 3656SOL     OW10995   4.715   2.272   1.242
 3656SOL    HW110996   4.638   2.306   1.296
 3656SOL    HW210997   4.681   2.221   1.163
 3657SOL     OW10998   4.765   2.563   0.429
 3657SOL    HW110999   4.791   2.559   0.525
 3657SOL    HW211000   4.680   2.512   0.415
 3658SOL     OW11001   3.800   2.673   0.789
 3658SOL    HW111002   3.899   2.661   0.798
 3658SOL    HW211003   3.776   2.768   0.810
 3659SOL     OW11004   3.854   3.683   1.571
 3659SOL    HW111005   3.844   3.668   1.670
 3659SOL    HW211006   3.768   3.719   1.535
 3660SOL     OW11007   4.589   2.210   0.195
 3660SOL    HW111008   4.648   2.273   0.146
 3660SOL    HW211009   4.608   2.116   0.166
 3661SOL     OW11010   5.086   3.006   0.545
 3661SOL    HW111011   5.169   2.977   0.497
 3661SOL    HW211012   5.037   3.073   0.489
 3662SOL     OW11013   4.274   2.058   0.885
 3662SOL    HW111014   4.269   2.053   0.985
 3662SOL    HW211015   4.276   2.154   0.856
 3663SOL     OW11016   4.732   3.318   0.477
 3663SOL    HW111017   4.686   3.390   0.425
 3663SOL    HW211018   4.728   3.338   0.575
 3664SOL     OW11019   4.075   3.663   0.853
 3664SOL    HW111020   4.125   3.577   0.859
 3664SOL    HW211021   4.140   3.740   0.850
 3665SOL     OW11022   4.951   3.412   1.506
 3665SOL    HW111023   4.957   3.335   1.570
 3665SOL    HW211024   4.899   3.386   1.426
 3666SOL     OW11025   4.045   2.805   0.242
 3666SOL    HW111026   4.127   2.844   0.200
 3666SOL    HW211027   4.018   2.723   0.193
 3667SOL     OW11028   4.185   3.128   1.727
 3667SOL    HW111029   4.135   3.129   1.641
 3667SOL    HW211030   4.122   3.110   1.803
 3668SOL     OW11031   4.835   3.638   0.237
 3668SOL    HW111032   4.775   3.576   0.287
 3668SOL    HW211033   4.866   3.594   0.152
 3669SOL     OW11034   3.926   2.147   1.498
 3669SOL    HW111035   3.846   2.207   1.485
 3669SOL    HW211036   3.916   2.098   1.584
 3670SOL     OW11037   5.356   3.239   0.081
 3670SOL    HW111038   5.324   3.333   0.071
 3670SOL    HW211039   5.280   3.176   0.069
 3671SOL     OW11040   4.188   3.605   0.323
 3671SOL    HW111041   4.221   3.644   0.409
 3671SOL    HW211042   4.264   3.598   0.258
 3672SOL     OW11043   3.973   3.647   1.241
 3672SOL    HW111044   4.030   3.582   1.291
 3672SOL    HW211045   3.957   3.614   1.148
 3673SOL     OW11046   4.664   3.560   0.904
 3673SOL    HW111047   4.744   3.503   0.925
 3673SOL    HW211048   4.615   3.520   0.827
 3674SOL     OW11049   4.106   2.562   0.480
 3674SOL    HW111050   4.151   2.472   0.477
 3674SOL    HW211051   4.012   2.551   0.513
 3675SOL     OW11052   4.505   2.126   1.749
 3675SOL    HW111053   4.572   2.065   1.792
 3675SOL    HW211054   4.432   2.145   1.814
 3676SOL     OW11055   4.612   3.376   1.195
 3676SOL    HW111056   4.589   3.351   1.101
 3676SOL    HW211057   4.673   3.307   1.234
 3677SOL     OW11058   4.527   3.264   0.924
 3677SOL    HW111059   4.617   3.278   0.882
 3677SOL    HW211060   4.456   3.266   0.853
 3678SOL     OW11061   4.646   2.365   0.899
 3678SOL    HW111062   4.621   2.356   0.803
 3678SOL    HW211063   4.694   2.283   0.930
 3679SOL     OW11064   4.263   1.926   0.512
 3679SOL    HW111065   4.182   1.927   0.570
 3679SOL    HW211066   4.266   2.009   0.457
 3680SOL     OW11067   4.659   2.098   0.480
 3680SOL    HW111068   4.611   2.139   0.402
 3680SOL    HW211069   4.758   2.096   0.461
 3681SOL     OW11070   4.800   2.545   1.464
 3681SOL    HW111071   4.720   2.484   1.467
 3681SOL    HW211072   4.881   2.492   1.440
 3682SOL     OW11073   4.951   3.432   0.793
 3682SOL    HW111074   4.972   3.506   0.728
 3682SOL    HW211075   5.019   3.432   0.866
 3683SOL     OW11076   4.183   3.014   0.741
 3683SOL    HW111077   4.112   2.987   0.806
 3683SOL    HW211078   4.157   2.986   0.648
 3684SOL     OW11079   4.995   3.659   0.591
 3684SOL    HW111080   5.039   3.723   0.527
 3684SOL    HW211081   4.945   3.711   0.661
 3685SOL     OW11082   4.756   2.411   0.016
 3685SOL    HW111083   4.715   2.493  -0.023
 3685SOL    HW211084   4.820   2.437   0.089
 3686SOL     OW11085   3.802   2.418   1.386
 3686SOL    HW111086   3.894   2.417   1.345
 3686SOL    HW211087   3.796   2.492   1.453
 3687SOL     OW11088   4.285   2.084   1.147
 3687SOL    HW111089   4.323   2.000   1.184
 3687SOL    HW211090   4.197   2.103   1.191
 3688SOL     OW11091   4.590   2.316   0.642
 3688SOL    HW111092   4.558   2.388   0.580
 3688SOL    HW211093   4.614   2.235   0.589
 3689SOL     OW11094   4.741   1.901   0.753
 3689SOL    HW111095   4.669   1.906   0.684
 3689SOL    HW211096   4.717   1.832   0.822
 3690SOL     OW11097   4.212   3.247   0.174
 3690SOL    HW111098   4.125   3.232   0.221
 3690SOL    HW211099   4.195   3.273   0.079
 3691SOL     OW11100   4.251   2.118   0.328
 3691SOL    HW111101   4.278   2.059   0.253
 3691SOL    HW211102   4.251   2.213   0.297
 3692SOL     OW11103   4.788   3.209   1.340
 3692SOL    HW111104   4.708   3.186   1.395
 3692SOL    HW211105   4.871   3.183   1.389
 3693SOL     OW11106   4.835   3.057   1.100
 3693SOL    HW111107   4.795   3.101   1.181
 3693SOL    HW211108   4.794   3.094   1.017
 3694SOL     OW11109   4.639   1.951   1.402
 3694SOL    HW111110   4.664   1.931   1.307
 3694SOL    HW211111   4.711   2.007   1.444
 3695SOL     OW11112   4.704   2.978   1.719
 3695SOL    HW111113   4.605   2.984   1.729
 3695SOL    HW211114   4.727   2.898   1.663
 3696SOL     OW11115   4.429   2.912   0.368
 3696SOL    HW111116   4.415   2.919   0.467
 3696SOL    HW211117   4.513   2.861   0.350
 3697SOL     OW11118   4.134   2.675   1.251
 3697SOL    HW111119   4.220   2.687   1.301
 3697SOL    HW211120   4.092   2.588   1.278
 3698SOL     OW11121   4.998   2.248   1.262
 3698SOL    HW111122   5.019   2.322   1.326
 3698SOL    HW211123   4.909   2.265   1.219
 3699SOL     OW11124   3.788   3.426   1.331
 3699SOL    HW111125   3.742   3.508   1.297
 3699SOL    HW211126   3.886   3.445   1.340
 3700SOL     OW11127   4.091   2.962   0.501
 3700SOL    HW111128   4.084   3.045   0.445
 3700SOL    HW211129   4.095   2.882   0.441
 3701SOL     OW11130   4.290   2.399   0.865
 3701SOL    HW111131   4.302   2.465   0.791
 3701SOL    HW211132   4.336   2.433   0.948
 3702SOL     OW11133   4.976   3.210   0.388
 3702SOL    HW111134   5.026   3.287   0.428
 3702SOL    HW211135   4.881   3.212   0.420
 3703SOL     OW11136   4.996   3.307   1.142
 3703SOL    HW111137   5.043   3.320   1.229
 3703SOL    HW211138   4.930   3.233   1.151
 3704SOL     OW11139   4.078   3.372   1.329
 3704SOL    HW111140   4.057   3.328   1.242
 3704SOL    HW211141   4.175   3.398   1.332
 3705SOL     OW11142   4.126   2.613   1.598
 3705SOL    HW111143   4.194   2.668   1.551
 3705SOL    HW211144   4.166   2.525   1.625
 3706SOL     OW11145   4.737   1.967   1.770
 3706SOL    HW111146   4.743   2.052   1.718
 3706SOL    HW211147   4.769   1.891   1.713
 3707SOL     OW11148   4.228   1.912   1.740
 3707SOL    HW111149   4.186   1.855   1.670
 3707SOL    HW211150   4.162   1.981   1.772
 3708SOL     OW11151   4.297   2.732   1.029
 3708SOL    HW111152   4.341   2.821   1.020
 3708SOL    HW211153   4.234   2.732   1.106
 3709SOL     OW11154   5.084   2.724   1.045
 3709SOL    HW111155   5.009   2.724   0.979
 3709SOL    HW211156   5.121   2.632   1.054
 3710SOL     OW11157   4.933   2.387   0.275
 3710SOL    HW111158   4.946   2.303   0.329
 3710SOL    HW211159   4.904   2.461   0.335
 3711SOL     OW11160   4.031   2.075   1.231
 3711SOL    HW111161   4.008   2.112   1.321
 3711SOL    HW211162   4.001   1.980   1.225
 3712SOL     OW11163   3.761   3.172   1.282
 3712SOL    HW111164   3.814   3.123   1.350
 3712SOL    HW211165   3.783   3.270   1.287
 3713SOL     OW11166   4.456   2.496   1.064
 3713SOL    HW111167   4.515   2.470   0.988
 3713SOL    HW211168   4.428   2.592   1.053
 3714SOL     OW11169   4.031   1.925   0.618
 3714SOL    HW111170   4.020   2.019   0.651
 3714SOL    HW211171   4.026   1.862   0.695
 3715SOL     OW11172   4.747   2.628   0.966
 3715SOL    HW111173   4.762   2.649   1.062
 3715SOL    HW211174   4.717   2.533   0.957
 3716SOL     OW11175   4.704   3.435   1.700
 3716SOL    HW111176   4.684   3.479   1.612
 3716SOL    HW211177   4.743   3.344   1.684
 3717SOL     OW11178   4.074   2.760   1.804
 3717SOL    HW111179   4.150   2.804   1.852
 3717SOL    HW211180   4.109   2.713   1.722
 3718SOL     OW11181   5.027   2.700   0.042
 3718SOL    HW111182   5.061   2.607   0.057
 3718SOL    HW211183   5.045   2.727  -0.053
 3719SOL     OW11184   4.792   3.195   0.849
 3719SOL    HW111185   4.799   3.111   0.794
 3719SOL    HW211186   4.854   3.264   0.813
 3720SOL     OW11187   4.043   2.672   0.949
 3720SOL    HW111188   4.136   2.708   0.954
 3720SOL    HW211189   4.037   2.587   1.001
 3721SOL     OW11190   4.063   2.371   1.006
 3721SOL    HW111191   4.011   2.288   0.989
 3721SOL    HW211192   4.140   2.376   0.942
 3722SOL     OW11193   4.862   2.242   1.678
 3722SOL    HW111194   4.817   2.305   1.742
 3722SOL    HW211195   4.955   2.273   1.661
 3723SOL     OW11196   4.884   2.069   1.477
 3723SOL    HW111197   4.884   2.133   1.554
 3723SOL    HW211198   4.912   2.117   1.394
 3724SOL     OW11199   3.812   3.663   0.927
 3724SOL    HW111200   3.770   3.577   0.900
 3724SOL    HW211201   3.906   3.666   0.893
 3725SOL     OW11202   4.228   3.430   0.910
 3725SOL    HW111203   4.294   3.504   0.919
 3725SOL    HW211204   4.272   3.351   0.868
 3726SOL     OW11205   4.726   2.658   1.238
 3726SOL    HW111206   4.767   2.626   1.324
 3726SOL    HW211207   4.630   2.631   1.235
 3727SOL     OW11208   3.764   2.406   1.114
 3727SOL    HW111209   3.849   2.373   1.073
 3727SOL    HW211210   3.777   2.421   1.212
 3728SOL     OW11211   3.913   2.382   1.722
 3728SOL    HW111212   3.972   2.342   1.652
 3728SOL    HW211213   3.855   2.453   1.681
 3729SOL     OW11214   4.539   2.434   0.325
 3729SOL    HW111215   4.546   2.345   0.279
 3729SOL    HW211216   4.445   2.468   0.317
 3730SOL     OW11217   3.976   3.426   1.744
 3730SOL    HW111218   3.946   3.483   1.820
 3730SOL    HW211219   3.969   3.329   1.770
 3731SOL     OW11220   4.395   2.326   1.269
 3731SOL    HW111221   4.361   2.237   1.239
 3731SOL    HW211222   4.421   2.380   1.189
 3732SOL     OW11223   4.654   3.540   1.465
 3732SOL    HW111224   4.630   3.522   1.370
 3732SOL    HW211225   4.684   3.634   1.475
 3733SOL     OW11226   4.197   2.362   0.191
 3733SOL    HW111227   4.258   2.442   0.195
 3733SOL    HW211228   4.102   2.393   0.198
 3734SOL     OW11229   3.883   2.999   1.466
 3734SOL    HW111230   3.905   2.938   1.542
 3734SOL    HW211231   3.893   2.950   1.380
 3735SOL     OW11232   5.071   2.921   1.234
 3735SOL    HW111233   5.095   2.858   1.160
 3735SOL    HW211234   4.981   2.961   1.216
 3736SOL     OW11235   5.026   2.717   0.309
 3736SOL    HW111236   4.940   2.686   0.351
 3736SOL    HW211237   5.022   2.703   0.210
 3737SOL     OW11238   4.976   3.593   1.128
 3737SOL    HW111239   5.060   3.598   1.074
 3737SOL    HW211240   4.953   3.497   1.146
 3738SOL     OW11241   3.807   3.120   1.022
 3738SOL    HW111242   3.802   3.119   1.122
 3738SOL    HW211243   3.724   3.079   0.984
 3739SOL     OW11244   4.412   3.524   1.716
 3739SOL    HW111245   4.356   3.605   1.725
 3739SOL    HW211246   4.464   3.528   1.630
 3740SOL     OW11247   4.627   1.948   0.133
 3740SOL    HW111248   4.678   1.949   0.047
 3740SOL    HW211249   4.683   1.906   0.204
 3741SOL     OW11250   5.112   3.435   0.477
 3741SOL    HW111251   5.179   3.447   0.403
 3741SOL    HW211252   5.072   3.524   0.500
 3742SOL     OW11253   3.854   3.656   1.851
 3742SOL    HW111254   3.813   3.582   1.904
 3742SOL    HW211255   3.918   3.707   1.909
 3743SOL     OW11256   5.004   2.789   0.672
 3743SOL    HW111257   5.064   2.708   0.674
 3743SOL    HW211258   5.044   2.858   0.612
 3744SOL     OW11259   4.554   3.135   1.422
 3744SOL    HW111260   4.549   3.168   1.517
 3744SOL    HW211261   4.468   3.154   1.376
 3745SOL     OW11262   4.396   3.478   0.154
 3745SOL    HW111263   4.405   3.488   0.055
 3745SOL    HW211264   4.356   3.389   0.175
 3746SOL     OW11265   3.987   2.188   0.720
 3746SOL    HW111266   3.908   2.239   0.686
 3746SOL    HW211267   3.978   2.173   0.818
 3747SOL     OW11268   4.918   3.474   0.031
 3747SOL    HW111269   4.924   3.381   0.068
 3747SOL    HW211270   4.859   3.474  -0.049
 3748SOL     OW11271   4.546   2.864   1.372
 3748SOL    HW111272   4.586   2.863   1.280
 3748SOL    HW211273   4.556   2.956   1.412
 3749SOL     OW11274   4.640   2.772   0.291
 3749SOL    HW111275   4.703   2.810   0.223
 3749SOL    HW211276   4.680   2.689   0.330
 3750SOL     OW11277   4.096   3.150   1.490
 3750SOL    HW111278   4.083   3.243   1.456
 3750SOL    HW211279   4.012   3.098   1.477
 3751SOL     OW11280   4.763   2.960   0.696
 3751SOL    HW111281   4.693   2.913   0.750
 3751SOL    HW211282   4.822   2.892   0.653
 3752SOL     OW11283   4.738   2.098   0.971
 3752SOL    HW111284   4.730   2.062   0.878
 3752SOL    HW211285   4.736   2.022   1.036
 3753SOL     OW11286   4.314   3.349   0.491
 3753SOL    HW111287   4.356   3.291   0.421
 3753SOL    HW211288   4.270   3.428   0.447
 3754SOL     OW11289   3.979   3.210   0.290
 3754SOL    HW111290   3.883   3.211   0.263
 3754SOL    HW211291   3.991   3.263   0.374
 3755SOL     OW11292   3.829   2.875   1.726
 3755SOL    HW111293   3.752   2.842   1.780
 3755SOL    HW211294   3.914   2.845   1.768
 3756SOL     OW11295   4.396   2.065   1.489
 3756SOL    HW111296   4.486   2.049   1.449
 3756SOL    HW211297   4.404   2.070   1.588
 3757SOL     OW11298   5.164   2.718   1.398
 3757SOL    HW111299   5.107   2.770   1.335
 3757SOL    HW211300   5.260   2.730   1.374
 3758SOL     OW11301   3.796   2.028   0.318
 3758SOL    HW111302   3.779   2.111   0.264
 3758SOL    HW211303   3.886   1.991   0.296
 3759SOL     OW11304   4.337   2.704   1.431
 3759SOL    HW111305   4.393   2.785   1.414
 3759SOL    HW211306   4.396   2.624   1.434
 3760SOL     OW11307   4.440   2.427   1.708
 3760SOL    HW111308   4.459   2.492   1.782
 3760SOL    HW211309   4.500   2.347   1.717
 3761SOL     OW11310   5.174   3.082   1.633
 3761SOL    HW111311   5.165   3.072   1.732
 3761SOL    HW211312   5.270   3.075   1.607
 3762SOL     OW11313   4.114   3.603   1.560
 3762SOL    HW111314   4.023   3.644   1.558
 3762SOL    HW211315   4.107   3.509   1.592
 3763SOL     OW11316   4.949   2.187   0.449
 3763SOL    HW111317   5.014   2.113   0.438
 3763SOL    HW211318   4.969   2.237   0.533
 3764SOL     OW11319   4.318   2.607   0.652
 3764SOL    HW111320   4.368   2.692   0.633
 3764SOL    HW211321   4.230   2.609   0.604
 3765SOL     OW11322   4.583   3.236   0.016
 3765SOL    HW111323   4.537   3.251   0.104
 3765SOL    HW211324   4.627   3.321  -0.014
 3766SOL     OW11325   4.385   3.652   0.953
 3766SOL    HW111326   4.339   3.740   0.940
 3766SOL    HW211327   4.484   3.664   0.946
 3767SOL     OW11328   4.583   2.818   0.861
 3767SOL    HW111329   4.637   2.749   0.909
 3767SOL    HW211330   4.551   2.887   0.927
 3768SOL     OW11331   4.807   2.846   0.087
 3768SOL    HW111332   4.784   2.899   0.005
 3768SOL    HW211333   4.888   2.790   0.068
 3769SOL     OW11334   3.945   3.176   1.844
 3769SOL    HW111335   3.880   3.103   1.823
 3769SOL    HW211336   3.949   3.190   1.942
 3770SOL     OW11337   3.803   3.102   0.653
 3770SOL    HW111338   3.802   3.055   0.741
 3770SOL    HW211339   3.885   3.074   0.602
 3771SOL     OW11340   4.396   3.253   1.624
 3771SOL    HW111341   4.318   3.203   1.662
 3771SOL    HW211342   4.393   3.348   1.655
 3772SOL     OW11343   4.152   2.286   0.520
 3772SOL    HW111344   4.182   2.214   0.458
 3772SOL    HW211345   4.113   2.246   0.603
 3773SOL     OW11346   4.041   2.409   1.280
 3773SOL    HW111347   4.079   2.350   1.352
 3773SOL    HW211348   4.081   2.383   1.192
 3774SOL     OW11349   4.536   3.448   0.687
 3774SOL    HW111350   4.568   3.458   0.593
 3774SOL    HW211351   4.457   3.386   0.689
 3775SOL     OW11352   5.148   2.076   1.112
 3775SOL    HW111353   5.200   2.011   1.167
 3775SOL    HW211354   5.099   2.139   1.173
 3776SOL     OW11355   4.725   1.896   1.154
 3776SOL    HW111356   4.662   1.824   1.123
 3776SOL    HW211357   4.818   1.860   1.154
 3777SOL     OW11358   4.494   3.192   0.301
 3777SOL    HW111359   4.448   3.105   0.318
 3777SOL    HW211360   4.585   3.189   0.342
 3778SOL     OW11361   4.342   3.429   1.284
 3778SOL    HW111362   4.337   3.511   1.341
 3778SOL    HW211363   4.431   3.426   1.239
 3779SOL     OW11364   3.763   2.939   0.300
 3779SOL    HW111365   3.862   2.928   0.291
 3779SOL    HW211366   3.723   2.853   0.332
 3780SOL     OW11367   4.599   3.508   0.337
 3780SOL    HW111368   4.522   3.473   0.283
 3780SOL    HW211369   4.567   3.579   0.399
 3781SOL     OW11370   3.954   2.490   1.975
 3781SOL    HW111371   3.861   2.488   2.012
 3781SOL    HW211372   3.955   2.451   1.883
 3782SOL     OW11373   3.949   2.137   2.858
 3782SOL    HW111374   3.984   2.120   2.950
 3782SOL    HW211375   3.861   2.092   2.846
 3783SOL     OW11376   3.743   2.230   2.509
 3783SOL    HW111377   3.661   2.273   2.548
 3783SOL    HW211378   3.715   2.157   2.446
 3784SOL     OW11379   4.293   3.137   3.027
 3784SOL    HW111380   4.200   3.130   2.990
 3784SOL    HW211381   4.304   3.226   3.071
 3785SOL     OW11382   4.859   2.565   2.579
 3785SOL    HW111383   4.916   2.643   2.554
 3785SOL    HW211384   4.799   2.591   2.655
 3786SOL     OW11385   4.492   3.006   2.885
 3786SOL    HW111386   4.414   3.023   2.945
 3786SOL    HW211387   4.526   3.093   2.849
 3787SOL     OW11388   4.574   2.660   3.685
 3787SOL    HW111389   4.570   2.736   3.750
 3787SOL    HW211390   4.596   2.696   3.594
 3788SOL     OW11391   4.409   2.874   2.527
 3788SOL    HW111392   4.478   2.858   2.597
 3788SOL    HW211393   4.336   2.931   2.565
 3789SOL     OW11394   4.410   3.023   3.665
 3789SOL    HW111395   4.470   3.102   3.679
 3789SOL    HW211396   4.324   3.054   3.624
 3790SOL     OW11397   4.059   3.297   2.923
 3790SOL    HW111398   3.981   3.266   2.870
 3790SOL    HW211399   4.117   3.355   2.866
 3791SOL     OW11400   4.162   2.254   3.361
 3791SOL    HW111401   4.244   2.198   3.370
 3791SOL    HW211402   4.081   2.196   3.365
 3792SOL     OW11403   3.955   3.575   2.345
 3792SOL    HW111404   3.989   3.652   2.399
 3792SOL    HW211405   3.999   3.575   2.255
 3793SOL     OW11406   4.851   3.203   3.552
 3793SOL    HW111407   4.898   3.203   3.640
 3793SOL    HW211408   4.803   3.116   3.541
 3794SOL     OW11409   3.954   3.296   2.400
 3794SOL    HW111410   3.928   3.392   2.400
 3794SOL    HW211411   3.883   3.242   2.445
 3795SOL     OW11412   3.964   2.953   2.748
 3795SOL    HW111413   3.978   2.869   2.800
 3795SOL    HW211414   3.909   3.017   2.803
 3796SOL     OW11415   4.344   3.648   3.301
 3796SOL    HW111416   4.252   3.631   3.336
 3796SOL    HW211417   4.372   3.740   3.327
 3797SOL     OW11418   4.330   2.826   1.985
 3797SOL    HW111419   4.337   2.910   1.931
 3797SOL    HW211420   4.376   2.839   2.073
 3798SOL     OW11421   3.846   2.505   2.425
 3798SOL    HW111422   3.801   2.417   2.442
 3798SOL    HW211423   3.845   2.559   2.509
 3799SOL     OW11424   3.751   3.458   1.979
 3799SOL    HW111425   3.732   3.362   2.000
 3799SOL    HW211426   3.718   3.516   2.054
 3800SOL     OW11427   3.837   2.599   3.459
 3800SOL    HW111428   3.925   2.586   3.504
 3800SOL    HW211429   3.824   2.696   3.437
 3801SOL     OW11430   4.337   3.227   2.588
 3801SOL    HW111431   4.288   3.140   2.597
 3801SOL    HW211432   4.314   3.270   2.501
 3802SOL     OW11433   5.017   3.090   3.285
 3802SOL    HW111434   5.054   3.017   3.227
 3802SOL    HW211435   5.069   3.095   3.370
 3803SOL     OW11436   4.533   1.866   2.364
 3803SOL    HW111437   4.573   1.957   2.355
 3803SOL    HW211438   4.433   1.874   2.370
 3804SOL     OW11439   3.921   2.838   3.126
 3804SOL    HW111440   4.010   2.793   3.112
 3804SOL    HW211441   3.848   2.773   3.107
 3805SOL     OW11442   4.911   3.654   3.478
 3805SOL    HW111443   4.935   3.714   3.402
 3805SOL    HW211444   4.918   3.559   3.448
 3806SOL     OW11445   4.041   2.113   3.663
 3806SOL    HW111446   4.112   2.184   3.669
 3806SOL    HW211447   3.953   2.152   3.691
 3807SOL     OW11448   4.322   2.591   2.132
 3807SOL    HW111449   4.346   2.660   2.064
 3807SOL    HW211450   4.244   2.624   2.186
 3808SOL     OW11451   5.005   2.207   2.806
 3808SOL    HW111452   4.919   2.157   2.793
 3808SOL    HW211453   5.067   2.153   2.862
 3809SOL     OW11454   4.531   2.467   3.327
 3809SOL    HW111455   4.484   2.464   3.416
 3809SOL    HW211456   4.480   2.412   3.261
 3810SOL     OW11457   5.118   2.331   3.536
 3810SOL    HW111458   5.098   2.374   3.624
 3810SOL    HW211459   5.196   2.269   3.545
 3811SOL     OW11460   4.697   2.752   3.434
 3811SOL    HW111461   4.743   2.668   3.405
 3811SOL    HW211462   4.641   2.786   3.359
 3812SOL     OW11463   4.715   2.272   3.104
 3812SOL    HW111464   4.638   2.306   3.158
 3812SOL    HW211465   4.681   2.221   3.025
 3813SOL     OW11466   4.765   2.563   2.291
 3813SOL    HW111467   4.791   2.559   2.387
 3813SOL    HW211468   4.680   2.512   2.277
 3814SOL     OW11469   3.800   2.673   2.651
 3814SOL    HW111470   3.899   2.661   2.660
 3814SOL    HW211471   3.776   2.768   2.672
 3815SOL     OW11472   3.854   3.683   3.433
 3815SOL    HW111473   3.844   3.668   3.532
 3815SOL    HW211474   3.768   3.719   3.397
 3816SOL     OW11475   4.589   2.210   2.057
 3816SOL    HW111476   4.648   2.273   2.008
 3816SOL    HW211477   4.608   2.116   2.028
 3817SOL     OW11478   5.086   3.006   2.407
 3817SOL    HW111479   5.169   2.977   2.359
 3817SOL    HW211480   5.037   3.073   2.351
 3818SOL     OW11481   4.274   2.058   2.747
 3818SOL    HW111482   4.269   2.053   2.847
 3818SOL    HW211483   4.276   2.154   2.718
 3819SOL     OW11484   4.732   3.318   2.339
 3819SOL    HW111485   4.686   3.390   2.287
 3819SOL    HW211486   4.728   3.338   2.437
 3820SOL     OW11487   4.075   3.663   2.715
 3820SOL    HW111488   4.125   3.577   2.721
 3820SOL    HW211489   4.140   3.740   2.712
 3821SOL     OW11490   4.951   3.412   3.368
 3821SOL    HW111491   4.957   3.335   3.432
 3821SOL    HW211492   4.899   3.386   3.288
 3822SOL     OW11493   4.045   2.805   2.104
 3822SOL    HW111494   4.127   2.844   2.062
 3822SOL    HW211495   4.018   2.723   2.055
 3823SOL     OW11496   4.185   3.128   3.589
 3823SOL    HW111497   4.135   3.129   3.503
 3823SOL    HW211498   4.122   3.110   3.665
 3824SOL     OW11499   4.835   3.638   2.099
 3824SOL    HW111500   4.775   3.576   2.149
 3824SOL    HW211501   4.866   3.594   2.014
 3825SOL     OW11502   3.926   2.147   3.360
 3825SOL    HW111503   3.846   2.207   3.347
 3825SOL    HW211504   3.916   2.098   3.446
 3826SOL     OW11505   4.188   3.605   2.185
 3826SOL    HW111506   4.221   3.644   2.271
 3826SOL    HW211507   4.264   3.598   2.120
 3827SOL     OW11508   3.973   3.647   3.103
 3827SOL    HW111509   4.030   3.582   3.153
 3827SOL    HW211510   3.957   3.614   3.010
 3828SOL     OW11511   4.664   3.560   2.766
 3828SOL    HW111512   4.744   3.503   2.787
 3828SOL    HW211513   4.615   3.520   2.689
 3829SOL     OW11514   4.106   2.562   2.342
 3829SOL    HW111515   4.151   2.472   2.339
 3829SOL    HW211516   4.012   2.551   2.375
 3830SOL     OW11517   4.338   1.984   1.979
 3830SOL    HW111518   4.436   1.962   1.986
 3830SOL    HW211519   4.307   1.967   1.886
 3831SOL     OW11520   4.505   2.126   3.611
 3831SOL    HW111521   4.572   2.065   3.654
 3831SOL    HW211522   4.432   2.145   3.676
 3832SOL     OW11523   4.612   3.376   3.057
 3832SOL    HW111524   4.589   3.351   2.963
 3832SOL    HW211525   4.673   3.307   3.096
 3833SOL     OW11526   4.527   3.264   2.786
 3833SOL    HW111527   4.617   3.278   2.744
 3833SOL    HW211528   4.456   3.266   2.715
 3834SOL     OW11529   4.646   2.365   2.761
 3834SOL    HW111530   4.621   2.356   2.665
 3834SOL    HW211531   4.694   2.283   2.792
 3835SOL     OW11532   4.263   1.926   2.374
 3835SOL    HW111533   4.182   1.927   2.432
 3835SOL    HW211534   4.266   2.009   2.319
 3836SOL     OW11535   4.021   1.897   2.033
 3836SOL    HW111536   4.070   1.981   2.012
 3836SOL    HW211537   4.083   1.832   2.078
 3837SOL     OW11538   4.659   2.098   2.342
 3837SOL    HW111539   4.611   2.139   2.264
 3837SOL    HW211540   4.758   2.096   2.323
 3838SOL     OW11541   4.800   2.545   3.326
 3838SOL    HW111542   4.720   2.484   3.329
 3838SOL    HW211543   4.881   2.492   3.302
 3839SOL     OW11544   4.951   3.432   2.655
 3839SOL    HW111545   4.972   3.506   2.590
 3839SOL    HW211546   5.019   3.432   2.728
 3840SOL     OW11547   4.183   3.014   2.603
 3840SOL    HW111548   4.112   2.987   2.668
 3840SOL    HW211549   4.157   2.986   2.510
 3841SOL     OW11550   4.995   3.659   2.453
 3841SOL    HW111551   5.039   3.723   2.389
 3841SOL    HW211552   4.945   3.711   2.523
 3842SOL     OW11553   4.756   2.411   1.878
 3842SOL    HW111554   4.715   2.493   1.839
 3842SOL    HW211555   4.820   2.437   1.951
 3843SOL     OW11556   3.802   2.418   3.248
 3843SOL    HW111557   3.894   2.417   3.207
 3843SOL    HW211558   3.796   2.492   3.315
 3844SOL     OW11559   4.285   2.084   3.009
 3844SOL    HW111560   4.323   2.000   3.046
 3844SOL    HW211561   4.197   2.103   3.053
 3845SOL     OW11562   4.590   2.316   2.504
 3845SOL    HW111563   4.558   2.388   2.442
 3845SOL    HW211564   4.614   2.235   2.451
 3846SOL     OW11565   4.741   1.901   2.615
 3846SOL    HW111566   4.669   1.906   2.546
 3846SOL    HW211567   4.717   1.832   2.684
 3847SOL     OW11568   4.212   3.247   2.036
 3847SOL    HW111569   4.125   3.232   2.083
 3847SOL    HW211570   4.195   3.273   1.941
 3848SOL     OW11571   4.251   2.118   2.190
 3848SOL    HW111572   4.278   2.059   2.115
 3848SOL    HW211573   4.251   2.213   2.159
 3849SOL     OW11574   4.788   3.209   3.202
 3849SOL    HW111575   4.708   3.186   3.257
 3849SOL    HW211576   4.871   3.183   3.251
 3850SOL     OW11577   4.835   3.057   2.962
 3850SOL    HW111578   4.795   3.101   3.043
 3850SOL    HW211579   4.794   3.094   2.879
 3851SOL     OW11580   4.639   1.951   3.264
 3851SOL    HW111581   4.664   1.931   3.169
 3851SOL    HW211582   4.711   2.007   3.306
 3852SOL     OW11583   4.704   2.978   3.581
 3852SOL    HW111584   4.605   2.984   3.591
 3852SOL    HW211585   4.727   2.898   3.525
 3853SOL     OW11586   4.429   2.912   2.230
 3853SOL    HW111587   4.415   2.919   2.329
 3853SOL    HW211588   4.513   2.861   2.212
 3854SOL     OW11589   4.134   2.675   3.113
 3854SOL    HW111590   4.220   2.687   3.163
 3854SOL    HW211591   4.092   2.588   3.140
 3855SOL     OW11592   4.998   2.248   3.124
 3855SOL    HW111593   5.019   2.322   3.188
 3855SOL    HW211594   4.909   2.265   3.081
 3856SOL     OW11595   3.788   3.426   3.193
 3856SOL    HW111596   3.742   3.508   3.159
 3856SOL    HW211597   3.886   3.445   3.202
 3857SOL     OW11598   4.091   2.962   2.363
 3857SOL    HW111599   4.084   3.045   2.307
 3857SOL    HW211600   4.095   2.882   2.303
 3858SOL     OW11601   4.290   2.399   2.727
 3858SOL    HW111602   4.302   2.465   2.653
 3858SOL    HW211603   4.336   2.433   2.810
 3859SOL     OW11604   4.976   3.210   2.250
 3859SOL    HW111605   5.026   3.287   2.290
 3859SOL    HW211606   4.881   3.212   2.282
 3860SOL     OW11607   4.996   3.307   3.004
 3860SOL    HW111608   5.043   3.320   3.091
 3860SOL    HW211609   4.930   3.233   3.013
 3861SOL     OW11610   4.078   3.372   3.191
 3861SOL    HW111611   4.057   3.328   3.104
 3861SOL    HW211612   4.175   3.398   3.194
 3862SOL     OW11613   4.126   2.613   3.460
 3862SOL    HW111614   4.194   2.668   3.413
 3862SOL    HW211615   4.166   2.525   3.487
 3863SOL     OW11616   4.737   1.967   3.632
 3863SOL    HW111617   4.743   2.052   3.580
 3863SOL    HW211618   4.769   1.891   3.575
 3864SOL     OW11619   4.228   1.912   3.602
 3864SOL    HW111620   4.186   1.855   3.532
 3864SOL    HW211621   4.162   1.981   3.634
 3865SOL     OW11622   4.297   2.732   2.891
 3865SOL    HW111623   4.341   2.821   2.882
 3865SOL    HW211624   4.234   2.732   2.968
 3866SOL     OW11625   5.084   2.724   2.907
 3866SOL    HW111626   5.009   2.724   2.841
 3866SOL    HW211627   5.121   2.632   2.916
 3867SOL     OW11628   4.933   2.387   2.137
 3867SOL    HW111629   4.946   2.303   2.191
 3867SOL    HW211630   4.904   2.461   2.197
 3868SOL     OW11631   4.031   2.075   3.093
 3868SOL    HW111632   4.008   2.112   3.183
 3868SOL    HW211633   4.001   1.980   3.087
 3869SOL     OW11634   3.761   3.172   3.144
 3869SOL    HW111635   3.814   3.123   3.212
 3869SOL    HW211636   3.783   3.270   3.149
 3870SOL     OW11637   4.456   2.496   2.926
 3870SOL    HW111638   4.515   2.470   2.850
 3870SOL    HW211639   4.428   2.592   2.915
 3871SOL     OW11640   4.031   1.925   2.480
 3871SOL    HW111641   4.020   2.019   2.513
 3871SOL    HW211642   4.026   1.862   2.557
 3872SOL     OW11643   5.346   2.229   2.236
 3872SOL    HW111644   5.348   2.153   2.300
 3872SOL    HW211645   5.298   2.306   2.276
 3873SOL     OW11646   4.747   2.628   2.828
 3873SOL    HW111647   4.762   2.649   2.924
 3873SOL    HW211648   4.717   2.533   2.819
 3874SOL     OW11649   4.704   3.435   3.562
 3874SOL    HW111650   4.684   3.479   3.474
 3874SOL    HW211651   4.743   3.344   3.546
 3875SOL     OW11652   4.074   2.760   3.666
 3875SOL    HW111653   4.150   2.804   3.714
 3875SOL    HW211654   4.109   2.713   3.584
 3876SOL     OW11655   5.027   2.700   1.904
 3876SOL    HW111656   5.061   2.607   1.919
 3876SOL    HW211657   5.045   2.727   1.809
 3877SOL     OW11658   4.792   3.195   2.711
 3877SOL    HW111659   4.799   3.111   2.656
 3877SOL    HW211660   4.854   3.264   2.675
 3878SOL     OW11661   4.043   2.672   2.811
 3878SOL    HW111662   4.136   2.708   2.816
 3878SOL    HW211663   4.037   2.587   2.863
 3879SOL     OW11664   4.063   2.371   2.868
 3879SOL    HW111665   4.011   2.288   2.851
 3879SOL    HW211666   4.140   2.376   2.804
 3880SOL     OW11667   4.862   2.242   3.540
 3880SOL    HW111668   4.817   2.305   3.604
 3880SOL    HW211669   4.955   2.273   3.523
 3881SOL     OW11670   4.884   2.069   3.339
 3881SOL    HW111671   4.884   2.133   3.416
 3881SOL    HW211672   4.912   2.117   3.256
 3882SOL     OW11673   3.732   3.188   2.062
 3882SOL    HW111674   3.639   3.209   2.031
 3882SOL    HW211675   3.742   3.089   2.075
 3883SOL     OW11676   3.812   3.663   2.789
 3883SOL    HW111677   3.770   3.577   2.762
 3883SOL    HW211678   3.906   3.666   2.755
 3884SOL     OW11679   4.228   3.430   2.772
 3884SOL    HW111680   4.294   3.504   2.781
 3884SOL    HW211681   4.272   3.351   2.730
 3885SOL     OW11682   4.726   2.658   3.100
 3885SOL    HW111683   4.767   2.626   3.186
 3885SOL    HW211684   4.630   2.631   3.097
 3886SOL     OW11685   3.764   2.406   2.976
 3886SOL    HW111686   3.849   2.373   2.935
 3886SOL    HW211687   3.777   2.421   3.074
 3887SOL     OW11688   3.913   2.382   3.584
 3887SOL    HW111689   3.972   2.342   3.514
 3887SOL    HW211690   3.855   2.453   3.543
 3888SOL     OW11691   4.539   2.434   2.187
 3888SOL    HW111692   4.546   2.345   2.141
 3888SOL    HW211693   4.445   2.468   2.179
 3889SOL     OW11694   3.976   3.426   3.606
 3889SOL    HW111695   3.946   3.483   3.682
 3889SOL    HW211696   3.969   3.329   3.632
 3890SOL     OW11697   4.395   2.326   3.131
 3890SOL    HW111698   4.361   2.237   3.101
 3890SOL    HW211699   4.421   2.380   3.051
 3891SOL     OW11700   4.654   3.540   3.327
 3891SOL    HW111701   4.630   3.522   3.232
 3891SOL    HW211702   4.684   3.634   3.337
 3892SOL     OW11703   4.197   2.362   2.053
 3892SOL    HW111704   4.258   2.442   2.057
 3892SOL    HW211705   4.102   2.393   2.060
 3893SOL     OW11706   3.883   2.999   3.328
 3893SOL    HW111707   3.905   2.938   3.404
 3893SOL    HW211708   3.893   2.950   3.242
 3894SOL     OW11709   5.071   2.921   3.096
 3894SOL    HW111710   5.095   2.858   3.022
 3894SOL    HW211711   4.981   2.961   3.078
 3895SOL     OW11712   5.026   2.717   2.171
 3895SOL    HW111713   4.940   2.686   2.213
 3895SOL    HW211714   5.022   2.703   2.072
 3896SOL     OW11715   4.976   3.593   2.990
 3896SOL    HW111716   5.060   3.598   2.936
 3896SOL    HW211717   4.953   3.497   3.008
 3897SOL     OW11718   3.807   3.120   2.884
 3897SOL    HW111719   3.802   3.119   2.984
 3897SOL    HW211720   3.724   3.079   2.846
 3898SOL     OW11721   4.412   3.524   3.578
 3898SOL    HW111722   4.356   3.605   3.587
 3898SOL    HW211723   4.464   3.528   3.492
 3899SOL     OW11724   5.112   3.435   2.339
 3899SOL    HW111725   5.179   3.447   2.265
 3899SOL    HW211726   5.072   3.524   2.362
 3900SOL     OW11727   3.854   3.656   3.713
 3900SOL    HW111728   3.813   3.582   3.766
 3900SOL    HW211729   3.918   3.707   3.771
 3901SOL     OW11730   5.004   2.789   2.534
 3901SOL    HW111731   5.064   2.708   2.536
 3901SOL    HW211732   5.044   2.858   2.474
 3902SOL     OW11733   4.554   3.135   3.284
 3902SOL    HW111734   4.549   3.168   3.379
 3902SOL    HW211735   4.468   3.154   3.238
 3903SOL     OW11736   4.396   3.478   2.016
 3903SOL    HW111737   4.405   3.488   1.917
 3903SOL    HW211738   4.356   3.389   2.037
 3904SOL     OW11739   3.987   2.188   2.582
 3904SOL    HW111740   3.908   2.239   2.548
 3904SOL    HW211741   3.978   2.173   2.680
 3905SOL     OW11742   4.918   3.474   1.893
 3905SOL    HW111743   4.924   3.381   1.930
 3905SOL    HW211744   4.859   3.474   1.813
 3906SOL     OW11745   4.546   2.864   3.234
 3906SOL    HW111746   4.586   2.863   3.142
 3906SOL    HW211747   4.556   2.956   3.274
 3907SOL     OW11748   4.640   2.772   2.153
 3907SOL    HW111749   4.703   2.810   2.085
 3907SOL    HW211750   4.680   2.689   2.192
 3908SOL     OW11751   4.096   3.150   3.352
 3908SOL    HW111752   4.083   3.243   3.318
 3908SOL    HW211753   4.012   3.098   3.339
 3909SOL     OW11754   4.763   2.960   2.558
 3909SOL    HW111755   4.693   2.913   2.612
 3909SOL    HW211756   4.822   2.892   2.515
 3910SOL     OW11757   4.738   2.098   2.833
 3910SOL    HW111758   4.730   2.062   2.740
 3910SOL    HW211759   4.736   2.022   2.898
 3911SOL     OW11760   4.314   3.349   2.353
 3911SOL    HW111761   4.356   3.291   2.283
 3911SOL    HW211762   4.270   3.428   2.309
 3912SOL     OW11763   3.979   3.210   2.152
 3912SOL    HW111764   3.883   3.211   2.125
 3912SOL    HW211765   3.991   3.263   2.236
 3913SOL     OW11766   3.829   2.875   3.588
 3913SOL    HW111767   3.752   2.842   3.642
 3913SOL    HW211768   3.914   2.845   3.630
 3914SOL     OW11769   4.396   2.065   3.351
 3914SOL    HW111770   4.486   2.049   3.311
 3914SOL    HW211771   4.404   2.070   3.450
 3915SOL     OW11772   3.799   2.207   1.895
 3915SOL    HW111773   3.707   2.179   1.866
 3915SOL    HW211774   3.830   2.284   1.839
 3916SOL     OW11775   5.164   2.718   3.260
 3916SOL    HW111776   5.107   2.770   3.197
 3916SOL    HW211777   5.260   2.730   3.236
 3917SOL     OW11778   3.796   2.028   2.180
 3917SOL    HW111779   3.779   2.111   2.126
 3917SOL    HW211780   3.886   1.991   2.158
 3918SOL     OW11781   4.337   2.704   3.293
 3918SOL    HW111782   4.393   2.785   3.276
 3918SOL    HW211783   4.396   2.624   3.296
 3919SOL     OW11784   4.440   2.427   3.570
 3919SOL    HW111785   4.459   2.492   3.644
 3919SOL    HW211786   4.500   2.347   3.579
 3920SOL     OW11787   5.174   3.082   3.495
 3920SOL    HW111788   5.165   3.072   3.594
 3920SOL    HW211789   5.270   3.075   3.469
 3921SOL     OW11790   4.114   3.603   3.422
 3921SOL    HW111791   4.023   3.644   3.420
 3921SOL    HW211792   4.107   3.509   3.454
 3922SOL     OW11793   4.949   2.187   2.311
 3922SOL    HW111794   5.014   2.113   2.300
 3922SOL    HW211795   4.969   2.237   2.395
 3923SOL     OW11796   4.318   2.607   2.514
 3923SOL    HW111797   4.368   2.692   2.495
 3923SOL    HW211798   4.230   2.609   2.466
 3924SOL     OW11799   4.583   3.236   1.878
 3924SOL    HW111800   4.537   3.251   1.966
 3924SOL    HW211801   4.627   3.321   1.848
 3925SOL     OW11802   4.385   3.652   2.815
 3925SOL    HW111803   4.339   3.740   2.802
 3925SOL    HW211804   4.484   3.664   2.808
 3926SOL     OW11805   4.583   2.818   2.723
 3926SOL    HW111806   4.637   2.749   2.771
 3926SOL    HW211807   4.551   2.887   2.789
 3927SOL     OW11808   4.807   2.846   1.949
 3927SOL    HW111809   4.784   2.899   1.867
 3927SOL    HW211810   4.888   2.790   1.930
 3928SOL     OW11811   3.945   3.176   3.706
 3928SOL    HW111812   3.880   3.103   3.685
 3928SOL    HW211813   3.949   3.190   3.804
 3929SOL     OW11814   3.803   3.102   2.515
 3929SOL    HW111815   3.802   3.055   2.603
 3929SOL    HW211816   3.885   3.074   2.464
 3930SOL     OW11817   4.396   3.253   3.486
 3930SOL    HW111818   4.318   3.203   3.524
 3930SOL    HW211819   4.393   3.348   3.517
 3931SOL     OW11820   4.152   2.286   2.382
 3931SOL    HW111821   4.182   2.214   2.320
 3931SOL    HW211822   4.113   2.246   2.465
 3932SOL     OW11823   4.041   2.409   3.142
 3932SOL    HW111824   4.079   2.350   3.214
 3932SOL    HW211825   4.081   2.383   3.054
 3933SOL     OW11826   4.536   3.448   2.549
 3933SOL    HW111827   4.568   3.458   2.455
 3933SOL    HW211828   4.457   3.386   2.551
 3934SOL     OW11829   5.148   2.076   2.974
 3934SOL    HW111830   5.200   2.011   3.029
 3934SOL    HW211831   5.099   2.139   3.035
 3935SOL     OW11832   4.725   1.896   3.016
 3935SOL    HW111833   4.662   1.824   2.985
 3935SOL    HW211834   4.818   1.860   3.016
 3936SOL     OW11835   4.494   3.192   2.163
 3936SOL    HW111836   4.448   3.105   2.180
 3936SOL    HW211837   4.585   3.189   2.204
 3937SOL     OW11838   4.342   3.429   3.146
 3937SOL    HW111839   4.337   3.511   3.203
 3937SOL    HW211840   4.431   3.426   3.101
 3938SOL     OW11841   5.076   1.914   2.030
 3938SOL    HW111842   5.111   1.873   1.946
 3938SOL    HW211843   4.986   1.876   2.050
 3939SOL     OW11844   3.763   2.939   2.162
 3939SOL    HW111845   3.862   2.928   2.153
 3939SOL    HW211846   3.723   2.853   2.194
 3940SOL     OW11847   4.599   3.508   2.199
 3940SOL    HW111848   4.522   3.473   2.145
 3940SOL    HW211849   4.567   3.579   2.261
 3941SOL     OW11850   3.954   2.490   3.837
 3941SOL    HW111851   3.861   2.488   3.874
 3941SOL    HW211852   3.955   2.451   3.745
 3942SOL     OW11853   3.949   2.137   4.720
 3942SOL    HW111854   3.984   2.120   4.812
 3942SOL    HW211855   3.861   2.092   4.708
 3943SOL     OW11856   3.743   2.230   4.371
 3943SOL    HW111857   3.661   2.273   4.410
 3943SOL    HW211858   3.715   2.157   4.308
 3944SOL     OW11859   4.293   3.137   4.889
 3944SOL    HW111860   4.200   3.130   4.852
 3944SOL    HW211861   4.304   3.226   4.933
 3945SOL     OW11862   4.859   2.565   4.441
 3945SOL    HW111863   4.916   2.643   4.416
 3945SOL    HW211864   4.799   2.591   4.517
 3946SOL     OW11865   4.492   3.006   4.747
 3946SOL    HW111866   4.414   3.023   4.807
 3946SOL    HW211867   4.526   3.093   4.711
 3947SOL     OW11868   4.409   2.874   4.389
 3947SOL    HW111869   4.478   2.858   4.459
 3947SOL    HW211870   4.336   2.931   4.427
 3948SOL     OW11871   4.059   3.297   4.785
 3948SOL    HW111872   3.981   3.266   4.732
 3948SOL    HW211873   4.117   3.355   4.728
 3949SOL     OW11874   3.955   3.575   4.207
 3949SOL    HW111875   3.989   3.652   4.261
 3949SOL    HW211876   3.999   3.575   4.117
 3950SOL     OW11877   3.954   3.296   4.262
 3950SOL    HW111878   3.928   3.392   4.262
 3950SOL    HW211879   3.883   3.242   4.307
 3951SOL     OW11880   3.964   2.953   4.610
 3951SOL    HW111881   3.978   2.869   4.662
 3951SOL    HW211882   3.909   3.017   4.665
 3952SOL     OW11883   4.344   3.648   5.163
 3952SOL    HW111884   4.252   3.631   5.198
 3952SOL    HW211885   4.372   3.740   5.189
 3953SOL     OW11886   4.330   2.826   3.847
 3953SOL    HW111887   4.337   2.910   3.793
 3953SOL    HW211888   4.376   2.839   3.935
 3954SOL     OW11889   3.846   2.505   4.287
 3954SOL    HW111890   3.801   2.417   4.304
 3954SOL    HW211891   3.845   2.559   4.371
 3955SOL     OW11892   3.751   3.458   3.841
 3955SOL    HW111893   3.732   3.362   3.862
 3955SOL    HW211894   3.718   3.516   3.916
 3956SOL     OW11895   4.337   3.227   4.450
 3956SOL    HW111896   4.288   3.140   4.459
 3956SOL    HW211897   4.314   3.270   4.363
 3957SOL     OW11898   4.533   1.866   4.226
 3957SOL    HW111899   4.573   1.957   4.217
 3957SOL    HW211900   4.433   1.874   4.232
 3958SOL     OW11901   3.921   2.838   4.988
 3958SOL    HW111902   4.010   2.793   4.974
 3958SOL    HW211903   3.848   2.773   4.969
 3959SOL     OW11904   4.322   2.591   3.994
 3959SOL    HW111905   4.346   2.660   3.926
 3959SOL    HW211906   4.244   2.624   4.048
 3960SOL     OW11907   5.005   2.207   4.668
 3960SOL    HW111908   4.919   2.157   4.655
 3960SOL    HW211909   5.067   2.153   4.724
 3961SOL     OW11910   4.531   2.467   5.189
 3961SOL    HW111911   4.484   2.464   5.278
 3961SOL    HW211912   4.480   2.412   5.123
 3962SOL     OW11913   4.715   2.272   4.966
 3962SOL    HW111914   4.638   2.306   5.020
 3962SOL    HW211915   4.681   2.221   4.887
 3963SOL     OW11916   4.765   2.563   4.153
 3963SOL    HW111917   4.791   2.559   4.249
 3963SOL    HW211918   4.680   2.512   4.139
 3964SOL     OW11919   3.800   2.673   4.513
 3964SOL    HW111920   3.899   2.661   4.522
 3964SOL    HW211921   3.776   2.768   4.534
 3965SOL     OW11922   4.589   2.210   3.919
 3965SOL    HW111923   4.648   2.273   3.870
 3965SOL    HW211924   4.608   2.116   3.890
 3966SOL     OW11925   5.086   3.006   4.269
 3966SOL    HW111926   5.169   2.977   4.221
 3966SOL    HW211927   5.037   3.073   4.213
 3967SOL     OW11928   4.274   2.058   4.609
 3967SOL    HW111929   4.269   2.053   4.709
 3967SOL    HW211930   4.276   2.154   4.580
 3968SOL     OW11931   4.732   3.318   4.201
 3968SOL    HW111932   4.686   3.390   4.149
 3968SOL    HW211933   4.728   3.338   4.299
 3969SOL     OW11934   4.075   3.663   4.577
 3969SOL    HW111935   4.125   3.577   4.583
 3969SOL    HW211936   4.140   3.740   4.574
 3970SOL     OW11937   4.045   2.805   3.966
 3970SOL    HW111938   4.127   2.844   3.924
 3970SOL    HW211939   4.018   2.723   3.917
 3971SOL     OW11940   4.835   3.638   3.961
 3971SOL    HW111941   4.775   3.576   4.011
 3971SOL    HW211942   4.866   3.594   3.876
 3972SOL     OW11943   3.926   2.147   5.222
 3972SOL    HW111944   3.846   2.207   5.209
 3972SOL    HW211945   3.916   2.098   5.308
 3973SOL     OW11946   4.188   3.605   4.047
 3973SOL    HW111947   4.221   3.644   4.133
 3973SOL    HW211948   4.264   3.598   3.982
 3974SOL     OW11949   3.973   3.647   4.965
 3974SOL    HW111950   4.030   3.582   5.015
 3974SOL    HW211951   3.957   3.614   4.872
 3975SOL     OW11952   4.664   3.560   4.628
 3975SOL    HW111953   4.744   3.503   4.649
 3975SOL    HW211954   4.615   3.520   4.551
 3976SOL     OW11955   4.106   2.562   4.204
 3976SOL    HW111956   4.151   2.472   4.201
 3976SOL    HW211957   4.012   2.551   4.237
 3977SOL     OW11958   4.338   1.984   3.841
 3977SOL    HW111959   4.436   1.962   3.848
 3977SOL    HW211960   4.307   1.967   3.748
 3978SOL     OW11961   4.612   3.376   4.919
 3978SOL    HW111962   4.589   3.351   4.825
 3978SOL    HW211963   4.673   3.307   4.958
 3979SOL     OW11964   4.527   3.264   4.648
 3979SOL    HW111965   4.617   3.278   4.606
 3979SOL    HW211966   4.456   3.266   4.577
 3980SOL     OW11967   4.646   2.365   4.623
 3980SOL    HW111968   4.621   2.356   4.527
 3980SOL    HW211969   4.694   2.283   4.654
 3981SOL     OW11970   4.263   1.926   4.236
 3981SOL    HW111971   4.182   1.927   4.294
 3981SOL    HW211972   4.266   2.009   4.181
 3982SOL     OW11973   4.021   1.897   3.895
 3982SOL    HW111974   4.070   1.981   3.874
 3982SOL    HW211975   4.083   1.832   3.940
 3983SOL     OW11976   4.659   2.098   4.204
 3983SOL    HW111977   4.611   2.139   4.126
 3983SOL    HW211978   4.758   2.096   4.185
 3984SOL     OW11979   4.951   3.432   4.517
 3984SOL    HW111980   4.972   3.506   4.452
 3984SOL    HW211981   5.019   3.432   4.590
 3985SOL     OW11982   4.183   3.014   4.465
 3985SOL    HW111983   4.112   2.987   4.530
 3985SOL    HW211984   4.157   2.986   4.372
 3986SOL     OW11985   4.995   3.659   4.315
 3986SOL    HW111986   5.039   3.723   4.251
 3986SOL    HW211987   4.945   3.711   4.385
 3987SOL     OW11988   4.756   2.411   3.740
 3987SOL    HW111989   4.715   2.493   3.701
 3987SOL    HW211990   4.820   2.437   3.813
 3988SOL     OW11991   4.285   2.084   4.871
 3988SOL    HW111992   4.323   2.000   4.908
 3988SOL    HW211993   4.197   2.103   4.915
 3989SOL     OW11994   4.590   2.316   4.366
 3989SOL    HW111995   4.558   2.388   4.304
 3989SOL    HW211996   4.614   2.235   4.313
 3990SOL     OW11997   4.741   1.901   4.477
 3990SOL    HW111998   4.669   1.906   4.408
 3990SOL    HW211999   4.717   1.832   4.546
 3991SOL     OW12000   4.212   3.247   3.898
 3991SOL    HW112001   4.125   3.232   3.945
 3991SOL    HW212002   4.195   3.273   3.803
 3992SOL     OW12003   4.251   2.118   4.052
 3992SOL    HW112004   4.278   2.059   3.977
 3992SOL    HW212005   4.251   2.213   4.021
 3993SOL     OW12006   5.316   3.491   5.349
 3993SOL    HW112007   5.343   3.525   5.259
 3993SOL    HW212008   5.395   3.453   5.395
 3994SOL     OW12009   4.835   3.057   4.824
 3994SOL    HW112010   4.795   3.101   4.905
 3994SOL    HW212011   4.794   3.094   4.741
 3995SOL     OW12012   4.429   2.912   4.092
 3995SOL    HW112013   4.415   2.919   4.191
 3995SOL    HW212014   4.513   2.861   4.074
 3996SOL     OW12015   4.134   2.675   4.975
 3996SOL    HW112016   4.220   2.687   5.025
 3996SOL    HW212017   4.092   2.588   5.002
 3997SOL     OW12018   4.998   2.248   4.986
 3997SOL    HW112019   5.019   2.322   5.050
 3997SOL    HW212020   4.909   2.265   4.943
 3998SOL     OW12021   3.788   3.426   5.055
 3998SOL    HW112022   3.742   3.508   5.021
 3998SOL    HW212023   3.886   3.445   5.064
 3999SOL     OW12024   4.091   2.962   4.225
 3999SOL    HW112025   4.084   3.045   4.169
 3999SOL    HW212026   4.095   2.882   4.165
 4000SOL     OW12027   4.290   2.399   4.589
 4000SOL    HW112028   4.302   2.465   4.515
 4000SOL    HW212029   4.336   2.433   4.672
 4001SOL     OW12030   4.976   3.210   4.112
 4001SOL    HW112031   5.026   3.287   4.152
 4001SOL    HW212032   4.881   3.212   4.144
 4002SOL     OW12033   4.996   3.307   4.866
 4002SOL    HW112034   5.043   3.320   4.953
 4002SOL    HW212035   4.930   3.233   4.875
 4003SOL     OW12036   4.078   3.372   5.053
 4003SOL    HW112037   4.057   3.328   4.966
 4003SOL    HW212038   4.175   3.398   5.056
 4004SOL     OW12039   4.297   2.732   4.753
 4004SOL    HW112040   4.341   2.821   4.744
 4004SOL    HW212041   4.234   2.732   4.830
 4005SOL     OW12042   5.084   2.724   4.769
 4005SOL    HW112043   5.009   2.724   4.703
 4005SOL    HW212044   5.121   2.632   4.778
 4006SOL     OW12045   4.933   2.387   3.999
 4006SOL    HW112046   4.946   2.303   4.053
 4006SOL    HW212047   4.904   2.461   4.059
 4007SOL     OW12048   4.031   2.075   4.955
 4007SOL    HW112049   4.008   2.112   5.045
 4007SOL    HW212050   4.001   1.980   4.949
 4008SOL     OW12051   3.761   3.172   5.006
 4008SOL    HW112052   3.814   3.123   5.074
 4008SOL    HW212053   3.783   3.270   5.011
 4009SOL     OW12054   4.456   2.496   4.788
 4009SOL    HW112055   4.515   2.470   4.712
 4009SOL    HW212056   4.428   2.592   4.777
 4010SOL     OW12057   4.031   1.925   4.342
 4010SOL    HW112058   4.020   2.019   4.375
 4010SOL    HW212059   4.026   1.862   4.419
 4011SOL     OW12060   5.346   2.229   4.098
 4011SOL    HW112061   5.348   2.153   4.162
 4011SOL    HW212062   5.298   2.306   4.138
 4012SOL     OW12063   4.747   2.628   4.690
 4012SOL    HW112064   4.762   2.649   4.786
 4012SOL    HW212065   4.717   2.533   4.681
 4013SOL     OW12066   5.027   2.700   3.766
 4013SOL    HW112067   5.061   2.607   3.781
 4013SOL    HW212068   5.045   2.727   3.671
 4014SOL     OW12069   4.792   3.195   4.573
 4014SOL    HW112070   4.799   3.111   4.518
 4014SOL    HW212071   4.854   3.264   4.537
 4015SOL     OW12072   4.043   2.672   4.673
 4015SOL    HW112073   4.136   2.708   4.678
 4015SOL    HW212074   4.037   2.587   4.725
 4016SOL     OW12075   4.063   2.371   4.730
 4016SOL    HW112076   4.011   2.288   4.713
 4016SOL    HW212077   4.140   2.376   4.666
 4017SOL     OW12078   4.884   2.069   5.201
 4017SOL    HW112079   4.884   2.133   5.278
 4017SOL    HW212080   4.912   2.117   5.118
 4018SOL     OW12081   3.732   3.188   3.924
 4018SOL    HW112082   3.639   3.209   3.893
 4018SOL    HW212083   3.742   3.089   3.937
 4019SOL     OW12084   3.812   3.663   4.651
 4019SOL    HW112085   3.770   3.577   4.624
 4019SOL    HW212086   3.906   3.666   4.617
 4020SOL     OW12087   4.228   3.430   4.634
 4020SOL    HW112088   4.294   3.504   4.643
 4020SOL    HW212089   4.272   3.351   4.592
 4021SOL     OW12090   4.726   2.658   4.962
 4021SOL    HW112091   4.767   2.626   5.048
 4021SOL    HW212092   4.630   2.631   4.959
 4022SOL     OW12093   3.764   2.406   4.838
 4022SOL    HW112094   3.849   2.373   4.797
 4022SOL    HW212095   3.777   2.421   4.936
 4023SOL     OW12096   3.913   2.382   5.446
 4023SOL    HW112097   3.972   2.342   5.376
 4023SOL    HW212098   3.855   2.453   5.405
 4024SOL     OW12099   4.539   2.434   4.049
 4024SOL    HW112100   4.546   2.345   4.003
 4024SOL    HW212101   4.445   2.468   4.041
 4025SOL     OW12102   4.395   2.326   4.993
 4025SOL    HW112103   4.361   2.237   4.963
 4025SOL    HW212104   4.421   2.380   4.913
 4026SOL     OW12105   4.654   3.540   5.189
 4026SOL    HW112106   4.630   3.522   5.094
 4026SOL    HW212107   4.684   3.634   5.199
 4027SOL     OW12108   4.197   2.362   3.915
 4027SOL    HW112109   4.258   2.442   3.919
 4027SOL    HW212110   4.102   2.393   3.922
 4028SOL     OW12111   3.883   2.999   5.190
 4028SOL    HW112112   3.905   2.938   5.266
 4028SOL    HW212113   3.893   2.950   5.104
 4029SOL     OW12114   5.071   2.921   4.958
 4029SOL    HW112115   5.095   2.858   4.884
 4029SOL    HW212116   4.981   2.961   4.940
 4030SOL     OW12117   5.026   2.717   4.033
 4030SOL    HW112118   4.940   2.686   4.075
 4030SOL    HW212119   5.022   2.703   3.934
 4031SOL     OW12120   4.976   3.593   4.852
 4031SOL    HW112121   5.060   3.598   4.798
 4031SOL    HW212122   4.953   3.497   4.870
 4032SOL     OW12123   3.807   3.120   4.746
 4032SOL    HW112124   3.802   3.119   4.846
 4032SOL    HW212125   3.724   3.079   4.708
 4033SOL     OW12126   5.112   3.435   4.201
 4033SOL    HW112127   5.179   3.447   4.127
 4033SOL    HW212128   5.072   3.524   4.224
 4034SOL     OW12129   5.004   2.789   4.396
 4034SOL    HW112130   5.064   2.708   4.398
 4034SOL    HW212131   5.044   2.858   4.336
 4035SOL     OW12132   4.396   3.478   3.878
 4035SOL    HW112133   4.405   3.488   3.779
 4035SOL    HW212134   4.356   3.389   3.899
 4036SOL     OW12135   3.987   2.188   4.444
 4036SOL    HW112136   3.908   2.239   4.410
 4036SOL    HW212137   3.978   2.173   4.542
 4037SOL     OW12138   4.918   3.474   3.755
 4037SOL    HW112139   4.924   3.381   3.792
 4037SOL    HW212140   4.859   3.474   3.675
 4038SOL     OW12141   4.546   2.864   5.096
 4038SOL    HW112142   4.586   2.863   5.004
 4038SOL    HW212143   4.556   2.956   5.136
 4039SOL     OW12144   4.640   2.772   4.015
 4039SOL    HW112145   4.703   2.810   3.947
 4039SOL    HW212146   4.680   2.689   4.054
 4040SOL     OW12147   4.763   2.960   4.420
 4040SOL    HW112148   4.693   2.913   4.474
 4040SOL    HW212149   4.822   2.892   4.377
 4041SOL     OW12150   4.738   2.098   4.695
 4041SOL    HW112151   4.730   2.062   4.602
 4041SOL    HW212152   4.736   2.022   4.760
 4042SOL     OW12153   4.314   3.349   4.215
 4042SOL    HW112154   4.356   3.291   4.145
 4042SOL    HW212155   4.270   3.428   4.171
 4043SOL     OW12156   3.979   3.210   4.014
 4043SOL    HW112157   3.883   3.211   3.987
 4043SOL    HW212158   3.991   3.263   4.098
 4044SOL     OW12159   4.396   2.065   5.213
 4044SOL    HW112160   4.486   2.049   5.173
 4044SOL    HW212161   4.404   2.070   5.312
 4045SOL     OW12162   3.799   2.207   3.757
 4045SOL    HW112163   3.707   2.179   3.728
 4045SOL    HW212164   3.830   2.284   3.701
 4046SOL     OW12165   3.796   2.028   4.042
 4046SOL    HW112166   3.779   2.111   3.988
 4046SOL    HW212167   3.886   1.991   4.020
 4047SOL     OW12168   4.114   3.603   5.284
 4047SOL    HW112169   4.023   3.644   5.282
 4047SOL    HW212170   4.107   3.509   5.316
 4048SOL     OW12171   4.949   2.187   4.173
 4048SOL    HW112172   5.014   2.113   4.162
 4048SOL    HW212173   4.969   2.237   4.257
 4049SOL     OW12174   4.318   2.607   4.376
 4049SOL    HW112175   4.368   2.692   4.357
 4049SOL    HW212176   4.230   2.609   4.328
 4050SOL     OW12177   4.583   3.236   3.740
 4050SOL    HW112178   4.537   3.251   3.828
 4050SOL    HW212179   4.627   3.321   3.710
 4051SOL     OW12180   4.385   3.652   4.677
 4051SOL    HW112181   4.339   3.740   4.664
 4051SOL    HW212182   4.484   3.664   4.670
 4052SOL     OW12183   4.583   2.818   4.585
 4052SOL    HW112184   4.637   2.749   4.633
 4052SOL    HW212185   4.551   2.887   4.651
 4053SOL     OW12186   4.807   2.846   3.811
 4053SOL    HW112187   4.784   2.899   3.729
 4053SOL    HW212188   4.888   2.790   3.792
 4054SOL     OW12189   3.803   3.102   4.377
 4054SOL    HW112190   3.802   3.055   4.465
 4054SOL    HW212191   3.885   3.074   4.326
 4055SOL     OW12192   4.152   2.286   4.244
 4055SOL    HW112193   4.182   2.214   4.182
 4055SOL    HW212194   4.113   2.246   4.327
 4056SOL     OW12195   4.041   2.409   5.004
 4056SOL    HW112196   4.079   2.350   5.076
 4056SOL    HW212197   4.081   2.383   4.916
 4057SOL     OW12198   4.536   3.448   4.411
 4057SOL    HW112199   4.568   3.458   4.317
 4057SOL    HW212200   4.457   3.386   4.413
 4058SOL     OW12201   5.148   2.076   4.836
 4058SOL    HW112202   5.200   2.011   4.891
 4058SOL    HW212203   5.099   2.139   4.897
 4059SOL     OW12204   4.725   1.896   4.878
 4059SOL    HW112205   4.662   1.824   4.847
 4059SOL    HW212206   4.818   1.860   4.878
 4060SOL     OW12207   4.494   3.192   4.025
 4060SOL    HW112208   4.448   3.105   4.042
 4060SOL    HW212209   4.585   3.189   4.066
 4061SOL     OW12210   5.076   1.914   3.892
 4061SOL    HW112211   5.111   1.873   3.808
 4061SOL    HW212212   4.986   1.876   3.912
 4062SOL     OW12213   3.763   2.939   4.024
 4062SOL    HW112214   3.862   2.928   4.015
 4062SOL    HW212215   3.723   2.853   4.056
 4063SOL     OW12216   4.599   3.508   4.061
 4063SOL    HW112217   4.522   3.473   4.007
 4063SOL    HW212218   4.567   3.579   4.123
 4064SOL     OW12219   3.954   4.352   0.113
 4064SOL    HW112220   3.861   4.350   0.150
 4064SOL    HW212221   3.955   4.313   0.021
 4065SOL     OW12222   3.949   3.999   0.996
 4065SOL    HW112223   3.984   3.982   1.088
 4065SOL    HW212224   3.861   3.954   0.984
 4066SOL     OW12225   3.743   4.092   0.647
 4066SOL    HW112226   3.661   4.135   0.686
 4066SOL    HW212227   3.715   4.019   0.584
 4067SOL     OW12228   4.293   4.999   1.165
 4067SOL    HW112229   4.200   4.992   1.128
 4067SOL    HW212230   4.304   5.088   1.209
 4068SOL     OW12231   4.859   4.427   0.717
 4068SOL    HW112232   4.916   4.505   0.692
 4068SOL    HW212233   4.799   4.453   0.793
 4069SOL     OW12234   4.492   4.868   1.023
 4069SOL    HW112235   4.414   4.885   1.083
 4069SOL    HW212236   4.526   4.955   0.987
 4070SOL     OW12237   4.574   4.522   1.823
 4070SOL    HW112238   4.570   4.598   1.888
 4070SOL    HW212239   4.596   4.558   1.732
 4071SOL     OW12240   4.409   4.736   0.665
 4071SOL    HW112241   4.478   4.720   0.735
 4071SOL    HW212242   4.336   4.793   0.703
 4072SOL     OW12243   4.410   4.885   1.803
 4072SOL    HW112244   4.470   4.964   1.817
 4072SOL    HW212245   4.324   4.916   1.762
 4073SOL     OW12246   4.059   5.159   1.061
 4073SOL    HW112247   3.981   5.128   1.008
 4073SOL    HW212248   4.117   5.217   1.004
 4074SOL     OW12249   4.162   4.116   1.499
 4074SOL    HW112250   4.244   4.060   1.508
 4074SOL    HW212251   4.081   4.058   1.503
 4075SOL     OW12252   3.964   4.815   0.886
 4075SOL    HW112253   3.978   4.731   0.938
 4075SOL    HW212254   3.909   4.879   0.941
 4076SOL     OW12255   4.330   4.688   0.123
 4076SOL    HW112256   4.337   4.772   0.069
 4076SOL    HW212257   4.376   4.701   0.211
 4077SOL     OW12258   3.846   4.367   0.563
 4077SOL    HW112259   3.801   4.279   0.580
 4077SOL    HW212260   3.845   4.421   0.647
 4078SOL     OW12261   3.837   4.461   1.597
 4078SOL    HW112262   3.925   4.448   1.642
 4078SOL    HW212263   3.824   4.558   1.575
 4079SOL     OW12264   5.017   4.952   1.423
 4079SOL    HW112265   5.054   4.879   1.365
 4079SOL    HW212266   5.069   4.957   1.508
 4080SOL     OW12267   4.533   3.728   0.502
 4080SOL    HW112268   4.573   3.819   0.493
 4080SOL    HW212269   4.433   3.736   0.508
 4081SOL     OW12270   3.921   4.700   1.264
 4081SOL    HW112271   4.010   4.655   1.250
 4081SOL    HW212272   3.848   4.635   1.245
 4082SOL     OW12273   4.041   3.975   1.801
 4082SOL    HW112274   4.112   4.046   1.807
 4082SOL    HW212275   3.953   4.014   1.829
 4083SOL     OW12276   4.322   4.453   0.270
 4083SOL    HW112277   4.346   4.522   0.202
 4083SOL    HW212278   4.244   4.486   0.324
 4084SOL     OW12279   5.005   4.069   0.944
 4084SOL    HW112280   4.919   4.019   0.931
 4084SOL    HW212281   5.067   4.015   1.000
 4085SOL     OW12282   4.531   4.329   1.465
 4085SOL    HW112283   4.484   4.326   1.554
 4085SOL    HW212284   4.480   4.274   1.399
 4086SOL     OW12285   5.118   4.193   1.674
 4086SOL    HW112286   5.098   4.236   1.762
 4086SOL    HW212287   5.196   4.131   1.683
 4087SOL     OW12288   4.697   4.614   1.572
 4087SOL    HW112289   4.743   4.530   1.543
 4087SOL    HW212290   4.641   4.648   1.497
 4088SOL     OW12291   4.715   4.134   1.242
 4088SOL    HW112292   4.638   4.168   1.296
 4088SOL    HW212293   4.681   4.083   1.163
 4089SOL     OW12294   4.765   4.425   0.429
 4089SOL    HW112295   4.791   4.421   0.525
 4089SOL    HW212296   4.680   4.374   0.415
 4090SOL     OW12297   3.800   4.535   0.789
 4090SOL    HW112298   3.899   4.523   0.798
 4090SOL    HW212299   3.776   4.630   0.810
 4091SOL     OW12300   4.589   4.072   0.195
 4091SOL    HW112301   4.648   4.135   0.146
 4091SOL    HW212302   4.608   3.978   0.166
 4092SOL     OW12303   5.086   4.868   0.545
 4092SOL    HW112304   5.169   4.839   0.497
 4092SOL    HW212305   5.037   4.935   0.489
 4093SOL     OW12306   4.274   3.920   0.885
 4093SOL    HW112307   4.269   3.915   0.985
 4093SOL    HW212308   4.276   4.016   0.856
 4094SOL     OW12309   4.045   4.667   0.242
 4094SOL    HW112310   4.127   4.706   0.200
 4094SOL    HW212311   4.018   4.585   0.193
 4095SOL     OW12312   3.926   4.009   1.498
 4095SOL    HW112313   3.846   4.069   1.485
 4095SOL    HW212314   3.916   3.960   1.584
 4096SOL     OW12315   4.106   4.424   0.480
 4096SOL    HW112316   4.151   4.334   0.477
 4096SOL    HW212317   4.012   4.413   0.513
 4097SOL     OW12318   4.505   3.988   1.749
 4097SOL    HW112319   4.572   3.927   1.792
 4097SOL    HW212320   4.432   4.007   1.814
 4098SOL     OW12321   4.646   4.227   0.899
 4098SOL    HW112322   4.621   4.218   0.803
 4098SOL    HW212323   4.694   4.145   0.930
 4099SOL     OW12324   4.263   3.788   0.512
 4099SOL    HW112325   4.182   3.789   0.570
 4099SOL    HW212326   4.266   3.871   0.457
 4100SOL     OW12327   4.659   3.960   0.480
 4100SOL    HW112328   4.611   4.001   0.402
 4100SOL    HW212329   4.758   3.958   0.461
 4101SOL     OW12330   4.800   4.407   1.464
 4101SOL    HW112331   4.720   4.346   1.467
 4101SOL    HW212332   4.881   4.354   1.440
 4102SOL     OW12333   4.951   5.294   0.793
 4102SOL    HW112334   4.972   5.368   0.728
 4102SOL    HW212335   5.019   5.294   0.866
 4103SOL     OW12336   4.183   4.876   0.741
 4103SOL    HW112337   4.112   4.849   0.806
 4103SOL    HW212338   4.157   4.848   0.648
 4104SOL     OW12339   4.756   4.273   0.016
 4104SOL    HW112340   4.715   4.355  -0.023
 4104SOL    HW212341   4.820   4.299   0.089
 4105SOL     OW12342   3.802   4.280   1.386
 4105SOL    HW112343   3.894   4.279   1.345
 4105SOL    HW212344   3.796   4.354   1.453
 4106SOL     OW12345   4.285   3.946   1.147
 4106SOL    HW112346   4.323   3.862   1.184
 4106SOL    HW212347   4.197   3.965   1.191
 4107SOL     OW12348   4.590   4.178   0.642
 4107SOL    HW112349   4.558   4.250   0.580
 4107SOL    HW212350   4.614   4.097   0.589
 4108SOL     OW12351   4.741   3.763   0.753
 4108SOL    HW112352   4.669   3.768   0.684
 4108SOL    HW212353   4.717   3.694   0.822
 4109SOL     OW12354   4.251   3.980   0.328
 4109SOL    HW112355   4.278   3.921   0.253
 4109SOL    HW212356   4.251   4.075   0.297
 4110SOL     OW12357   4.788   5.071   1.340
 4110SOL    HW112358   4.708   5.048   1.395
 4110SOL    HW212359   4.871   5.045   1.389
 4111SOL     OW12360   4.835   4.919   1.100
 4111SOL    HW112361   4.795   4.963   1.181
 4111SOL    HW212362   4.794   4.956   1.017
 4112SOL     OW12363   4.639   3.813   1.402
 4112SOL    HW112364   4.664   3.793   1.307
 4112SOL    HW212365   4.711   3.869   1.444
 4113SOL     OW12366   4.704   4.840   1.719
 4113SOL    HW112367   4.605   4.846   1.729
 4113SOL    HW212368   4.727   4.760   1.663
 4114SOL     OW12369   4.429   4.774   0.368
 4114SOL    HW112370   4.415   4.781   0.467
 4114SOL    HW212371   4.513   4.723   0.350
 4115SOL     OW12372   4.134   4.537   1.251
 4115SOL    HW112373   4.220   4.549   1.301
 4115SOL    HW212374   4.092   4.450   1.278
 4116SOL     OW12375   4.998   4.110   1.262
 4116SOL    HW112376   5.019   4.184   1.326
 4116SOL    HW212377   4.909   4.127   1.219
 4117SOL     OW12378   4.091   4.824   0.501
 4117SOL    HW112379   4.084   4.907   0.445
 4117SOL    HW212380   4.095   4.744   0.441
 4118SOL     OW12381   4.290   4.261   0.865
 4118SOL    HW112382   4.302   4.327   0.791
 4118SOL    HW212383   4.336   4.295   0.948
 4119SOL     OW12384   4.976   5.072   0.388
 4119SOL    HW112385   5.026   5.149   0.428
 4119SOL    HW212386   4.881   5.074   0.420
 4120SOL     OW12387   4.126   4.475   1.598
 4120SOL    HW112388   4.194   4.530   1.551
 4120SOL    HW212389   4.166   4.387   1.625
 4121SOL     OW12390   4.737   3.829   1.770
 4121SOL    HW112391   4.743   3.914   1.718
 4121SOL    HW212392   4.769   3.753   1.713
 4122SOL     OW12393   4.228   3.774   1.740
 4122SOL    HW112394   4.186   3.717   1.670
 4122SOL    HW212395   4.162   3.843   1.772
 4123SOL     OW12396   4.297   4.594   1.029
 4123SOL    HW112397   4.341   4.683   1.020
 4123SOL    HW212398   4.234   4.594   1.106
 4124SOL     OW12399   5.084   4.586   1.045
 4124SOL    HW112400   5.009   4.586   0.979
 4124SOL    HW212401   5.121   4.494   1.054
 4125SOL     OW12402   4.933   4.249   0.275
 4125SOL    HW112403   4.946   4.165   0.329
 4125SOL    HW212404   4.904   4.323   0.335
 4126SOL     OW12405   4.031   3.937   1.231
 4126SOL    HW112406   4.008   3.974   1.321
 4126SOL    HW212407   4.001   3.842   1.225
 4127SOL     OW12408   4.456   4.358   1.064
 4127SOL    HW112409   4.515   4.332   0.988
 4127SOL    HW212410   4.428   4.454   1.053
 4128SOL     OW12411   4.031   3.787   0.618
 4128SOL    HW112412   4.020   3.881   0.651
 4128SOL    HW212413   4.026   3.724   0.695
 4129SOL     OW12414   4.747   4.490   0.966
 4129SOL    HW112415   4.762   4.511   1.062
 4129SOL    HW212416   4.717   4.395   0.957
 4130SOL     OW12417   4.074   4.622   1.804
 4130SOL    HW112418   4.150   4.666   1.852
 4130SOL    HW212419   4.109   4.575   1.722
 4131SOL     OW12420   5.027   4.562   0.042
 4131SOL    HW112421   5.061   4.469   0.057
 4131SOL    HW212422   5.045   4.589  -0.053
 4132SOL     OW12423   4.043   4.534   0.949
 4132SOL    HW112424   4.136   4.570   0.954
 4132SOL    HW212425   4.037   4.449   1.001
 4133SOL     OW12426   4.063   4.233   1.006
 4133SOL    HW112427   4.011   4.150   0.989
 4133SOL    HW212428   4.140   4.238   0.942
 4134SOL     OW12429   4.862   4.104   1.678
 4134SOL    HW112430   4.817   4.167   1.742
 4134SOL    HW212431   4.955   4.135   1.661
 4135SOL     OW12432   4.884   3.931   1.477
 4135SOL    HW112433   4.884   3.995   1.554
 4135SOL    HW212434   4.912   3.979   1.394
 4136SOL     OW12435   4.726   4.520   1.238
 4136SOL    HW112436   4.767   4.488   1.324
 4136SOL    HW212437   4.630   4.493   1.235
 4137SOL     OW12438   3.764   4.268   1.114
 4137SOL    HW112439   3.849   4.235   1.073
 4137SOL    HW212440   3.777   4.283   1.212
 4138SOL     OW12441   3.913   4.244   1.722
 4138SOL    HW112442   3.972   4.204   1.652
 4138SOL    HW212443   3.855   4.315   1.681
 4139SOL     OW12444   4.539   4.296   0.325
 4139SOL    HW112445   4.546   4.207   0.279
 4139SOL    HW212446   4.445   4.330   0.317
 4140SOL     OW12447   4.395   4.188   1.269
 4140SOL    HW112448   4.361   4.099   1.239
 4140SOL    HW212449   4.421   4.242   1.189
 4141SOL     OW12450   4.197   4.224   0.191
 4141SOL    HW112451   4.258   4.304   0.195
 4141SOL    HW212452   4.102   4.255   0.198
 4142SOL     OW12453   3.883   4.861   1.466
 4142SOL    HW112454   3.905   4.800   1.542
 4142SOL    HW212455   3.893   4.812   1.380
 4143SOL     OW12456   5.071   4.783   1.234
 4143SOL    HW112457   5.095   4.720   1.160
 4143SOL    HW212458   4.981   4.823   1.216
 4144SOL     OW12459   5.026   4.579   0.309
 4144SOL    HW112460   4.940   4.548   0.351
 4144SOL    HW212461   5.022   4.565   0.210
 4145SOL     OW12462   3.807   4.982   1.022
 4145SOL    HW112463   3.802   4.981   1.122
 4145SOL    HW212464   3.724   4.941   0.984
 4146SOL     OW12465   4.627   3.810   0.133
 4146SOL    HW112466   4.678   3.811   0.047
 4146SOL    HW212467   4.683   3.768   0.204
 4147SOL     OW12468   5.004   4.651   0.672
 4147SOL    HW112469   5.064   4.570   0.674
 4147SOL    HW212470   5.044   4.720   0.612
 4148SOL     OW12471   4.554   4.997   1.422
 4148SOL    HW112472   4.549   5.030   1.517
 4148SOL    HW212473   4.468   5.016   1.376
 4149SOL     OW12474   3.987   4.050   0.720
 4149SOL    HW112475   3.908   4.101   0.686
 4149SOL    HW212476   3.978   4.035   0.818
 4150SOL     OW12477   4.546   4.726   1.372
 4150SOL    HW112478   4.586   4.725   1.280
 4150SOL    HW212479   4.556   4.818   1.412
 4151SOL     OW12480   4.640   4.634   0.291
 4151SOL    HW112481   4.703   4.672   0.223
 4151SOL    HW212482   4.680   4.551   0.330
 4152SOL     OW12483   4.096   5.012   1.490
 4152SOL    HW112484   4.083   5.105   1.456
 4152SOL    HW212485   4.012   4.960   1.477
 4153SOL     OW12486   4.763   4.822   0.696
 4153SOL    HW112487   4.693   4.775   0.750
 4153SOL    HW212488   4.822   4.754   0.653
 4154SOL     OW12489   4.738   3.960   0.971
 4154SOL    HW112490   4.730   3.924   0.878
 4154SOL    HW212491   4.736   3.884   1.036
 4155SOL     OW12492   3.829   4.737   1.726
 4155SOL    HW112493   3.752   4.704   1.780
 4155SOL    HW212494   3.914   4.707   1.768
 4156SOL     OW12495   4.396   3.927   1.489
 4156SOL    HW112496   4.486   3.911   1.449
 4156SOL    HW212497   4.404   3.932   1.588
 4157SOL     OW12498   5.164   4.580   1.398
 4157SOL    HW112499   5.107   4.632   1.335
 4157SOL    HW212500   5.260   4.592   1.374
 4158SOL     OW12501   3.796   3.890   0.318
 4158SOL    HW112502   3.779   3.973   0.264
 4158SOL    HW212503   3.886   3.853   0.296
 4159SOL     OW12504   4.337   4.566   1.431
 4159SOL    HW112505   4.393   4.647   1.414
 4159SOL    HW212506   4.396   4.486   1.434
 4160SOL     OW12507   4.440   4.289   1.708
 4160SOL    HW112508   4.459   4.354   1.782
 4160SOL    HW212509   4.500   4.209   1.717
 4161SOL     OW12510   5.174   4.944   1.633
 4161SOL    HW112511   5.165   4.934   1.732
 4161SOL    HW212512   5.270   4.937   1.607
 4162SOL     OW12513   4.949   4.049   0.449
 4162SOL    HW112514   5.014   3.975   0.438
 4162SOL    HW212515   4.969   4.099   0.533
 4163SOL     OW12516   4.318   4.469   0.652
 4163SOL    HW112517   4.368   4.554   0.633
 4163SOL    HW212518   4.230   4.471   0.604
 4164SOL     OW12519   4.583   4.680   0.861
 4164SOL    HW112520   4.637   4.611   0.909
 4164SOL    HW212521   4.551   4.749   0.927
 4165SOL     OW12522   4.807   4.708   0.087
 4165SOL    HW112523   4.784   4.761   0.005
 4165SOL    HW212524   4.888   4.652   0.068
 4166SOL     OW12525   3.945   5.038   1.844
 4166SOL    HW112526   3.880   4.965   1.823
 4166SOL    HW212527   3.949   5.052   1.942
 4167SOL     OW12528   3.803   4.964   0.653
 4167SOL    HW112529   3.802   4.917   0.741
 4167SOL    HW212530   3.885   4.936   0.602
 4168SOL     OW12531   4.152   4.148   0.520
 4168SOL    HW112532   4.182   4.076   0.458
 4168SOL    HW212533   4.113   4.108   0.603
 4169SOL     OW12534   4.041   4.271   1.280
 4169SOL    HW112535   4.079   4.212   1.352
 4169SOL    HW212536   4.081   4.245   1.192
 4170SOL     OW12537   5.148   3.938   1.112
 4170SOL    HW112538   5.200   3.873   1.167
 4170SOL    HW212539   5.099   4.001   1.173
 4171SOL     OW12540   4.725   3.758   1.154
 4171SOL    HW112541   4.662   3.686   1.123
 4171SOL    HW212542   4.818   3.722   1.154
 4172SOL     OW12543   4.494   5.054   0.301
 4172SOL    HW112544   4.448   4.967   0.318
 4172SOL    HW212545   4.585   5.051   0.342
 4173SOL     OW12546   3.763   4.801   0.300
 4173SOL    HW112547   3.862   4.790   0.291
 4173SOL    HW212548   3.723   4.715   0.332
 4174SOL     OW12549   3.954   4.352   1.975
 4174SOL    HW112550   3.861   4.350   2.012
 4174SOL    HW212551   3.955   4.313   1.883
 4175SOL     OW12552   3.949   3.999   2.858
 4175SOL    HW112553   3.984   3.982   2.950
 4175SOL    HW212554   3.861   3.954   2.846
 4176SOL     OW12555   3.743   4.092   2.509
 4176SOL    HW112556   3.661   4.135   2.548
 4176SOL    HW212557   3.715   4.019   2.446
 4177SOL     OW12558   4.293   4.999   3.027
 4177SOL    HW112559   4.200   4.992   2.990
 4177SOL    HW212560   4.304   5.088   3.071
 4178SOL     OW12561   4.859   4.427   2.579
 4178SOL    HW112562   4.916   4.505   2.554
 4178SOL    HW212563   4.799   4.453   2.655
 4179SOL     OW12564   4.492   4.868   2.885
 4179SOL    HW112565   4.414   4.885   2.945
 4179SOL    HW212566   4.526   4.955   2.849
 4180SOL     OW12567   4.574   4.522   3.685
 4180SOL    HW112568   4.570   4.598   3.750
 4180SOL    HW212569   4.596   4.558   3.594
 4181SOL     OW12570   4.409   4.736   2.527
 4181SOL    HW112571   4.478   4.720   2.597
 4181SOL    HW212572   4.336   4.793   2.565
 4182SOL     OW12573   4.410   4.885   3.665
 4182SOL    HW112574   4.470   4.964   3.679
 4182SOL    HW212575   4.324   4.916   3.624
 4183SOL     OW12576   4.059   5.159   2.923
 4183SOL    HW112577   3.981   5.128   2.870
 4183SOL    HW212578   4.117   5.217   2.866
 4184SOL     OW12579   4.162   4.116   3.361
 4184SOL    HW112580   4.244   4.060   3.370
 4184SOL    HW212581   4.081   4.058   3.365
 4185SOL     OW12582   3.964   4.815   2.748
 4185SOL    HW112583   3.978   4.731   2.800
 4185SOL    HW212584   3.909   4.879   2.803
 4186SOL     OW12585   4.330   4.688   1.985
 4186SOL    HW112586   4.337   4.772   1.931
 4186SOL    HW212587   4.376   4.701   2.073
 4187SOL     OW12588   3.846   4.367   2.425
 4187SOL    HW112589   3.801   4.279   2.442
 4187SOL    HW212590   3.845   4.421   2.509
 4188SOL     OW12591   3.837   4.461   3.459
 4188SOL    HW112592   3.925   4.448   3.504
 4188SOL    HW212593   3.824   4.558   3.437
 4189SOL     OW12594   5.017   4.952   3.285
 4189SOL    HW112595   5.054   4.879   3.227
 4189SOL    HW212596   5.069   4.957   3.370
 4190SOL     OW12597   4.533   3.728   2.364
 4190SOL    HW112598   4.573   3.819   2.355
 4190SOL    HW212599   4.433   3.736   2.370
 4191SOL     OW12600   3.921   4.700   3.126
 4191SOL    HW112601   4.010   4.655   3.112
 4191SOL    HW212602   3.848   4.635   3.107
 4192SOL     OW12603   4.041   3.975   3.663
 4192SOL    HW112604   4.112   4.046   3.669
 4192SOL    HW212605   3.953   4.014   3.691
 4193SOL     OW12606   4.322   4.453   2.132
 4193SOL    HW112607   4.346   4.522   2.064
 4193SOL    HW212608   4.244   4.486   2.186
 4194SOL     OW12609   5.005   4.069   2.806
 4194SOL    HW112610   4.919   4.019   2.793
 4194SOL    HW212611   5.067   4.015   2.862
 4195SOL     OW12612   4.531   4.329   3.327
 4195SOL    HW112613   4.484   4.326   3.416
 4195SOL    HW212614   4.480   4.274   3.261
 4196SOL     OW12615   5.118   4.193   3.536
 4196SOL    HW112616   5.098   4.236   3.624
 4196SOL    HW212617   5.196   4.131   3.545
 4197SOL     OW12618   4.697   4.614   3.434
 4197SOL    HW112619   4.743   4.530   3.405
 4197SOL    HW212620   4.641   4.648   3.359
 4198SOL     OW12621   4.715   4.134   3.104
 4198SOL    HW112622   4.638   4.168   3.158
 4198SOL    HW212623   4.681   4.083   3.025
 4199SOL     OW12624   4.765   4.425   2.291
 4199SOL    HW112625   4.791   4.421   2.387
 4199SOL    HW212626   4.680   4.374   2.277
 4200SOL     OW12627   3.800   4.535   2.651
 4200SOL    HW112628   3.899   4.523   2.660
 4200SOL    HW212629   3.776   4.630   2.672
 4201SOL     OW12630   4.589   4.072   2.057
 4201SOL    HW112631   4.648   4.135   2.008
 4201SOL    HW212632   4.608   3.978   2.028
 4202SOL     OW12633   5.086   4.868   2.407
 4202SOL    HW112634   5.169   4.839   2.359
 4202SOL    HW212635   5.037   4.935   2.351
 4203SOL     OW12636   4.274   3.920   2.747
 4203SOL    HW112637   4.269   3.915   2.847
 4203SOL    HW212638   4.276   4.016   2.718
 4204SOL     OW12639   4.045   4.667   2.104
 4204SOL    HW112640   4.127   4.706   2.062
 4204SOL    HW212641   4.018   4.585   2.055
 4205SOL     OW12642   3.926   4.009   3.360
 4205SOL    HW112643   3.846   4.069   3.347
 4205SOL    HW212644   3.916   3.960   3.446
 4206SOL     OW12645   4.106   4.424   2.342
 4206SOL    HW112646   4.151   4.334   2.339
 4206SOL    HW212647   4.012   4.413   2.375
 4207SOL     OW12648   4.338   3.846   1.979
 4207SOL    HW112649   4.436   3.824   1.986
 4207SOL    HW212650   4.307   3.829   1.886
 4208SOL     OW12651   4.505   3.988   3.611
 4208SOL    HW112652   4.572   3.927   3.654
 4208SOL    HW212653   4.432   4.007   3.676
 4209SOL     OW12654   4.646   4.227   2.761
 4209SOL    HW112655   4.621   4.218   2.665
 4209SOL    HW212656   4.694   4.145   2.792
 4210SOL     OW12657   4.263   3.788   2.374
 4210SOL    HW112658   4.182   3.789   2.432
 4210SOL    HW212659   4.266   3.871   2.319
 4211SOL     OW12660   4.021   3.759   2.033
 4211SOL    HW112661   4.070   3.843   2.012
 4211SOL    HW212662   4.083   3.694   2.078
 4212SOL     OW12663   4.659   3.960   2.342
 4212SOL    HW112664   4.611   4.001   2.264
 4212SOL    HW212665   4.758   3.958   2.323
 4213SOL     OW12666   4.800   4.407   3.326
 4213SOL    HW112667   4.720   4.346   3.329
 4213SOL    HW212668   4.881   4.354   3.302
 4214SOL     OW12669   4.951   5.294   2.655
 4214SOL    HW112670   4.972   5.368   2.590
 4214SOL    HW212671   5.019   5.294   2.728
 4215SOL     OW12672   4.183   4.876   2.603
 4215SOL    HW112673   4.112   4.849   2.668
 4215SOL    HW212674   4.157   4.848   2.510
 4216SOL     OW12675   4.756   4.273   1.878
 4216SOL    HW112676   4.715   4.355   1.839
 4216SOL    HW212677   4.820   4.299   1.951
 4217SOL     OW12678   3.802   4.280   3.248
 4217SOL    HW112679   3.894   4.279   3.207
 4217SOL    HW212680   3.796   4.354   3.315
 4218SOL     OW12681   4.285   3.946   3.009
 4218SOL    HW112682   4.323   3.862   3.046
 4218SOL    HW212683   4.197   3.965   3.053
 4219SOL     OW12684   4.590   4.178   2.504
 4219SOL    HW112685   4.558   4.250   2.442
 4219SOL    HW212686   4.614   4.097   2.451
 4220SOL     OW12687   4.741   3.763   2.615
 4220SOL    HW112688   4.669   3.768   2.546
 4220SOL    HW212689   4.717   3.694   2.684
 4221SOL     OW12690   4.251   3.980   2.190
 4221SOL    HW112691   4.278   3.921   2.115
 4221SOL    HW212692   4.251   4.075   2.159
 4222SOL     OW12693   4.788   5.071   3.202
 4222SOL    HW112694   4.708   5.048   3.257
 4222SOL    HW212695   4.871   5.045   3.251
 4223SOL     OW12696   4.835   4.919   2.962
 4223SOL    HW112697   4.795   4.963   3.043
 4223SOL    HW212698   4.794   4.956   2.879
 4224SOL     OW12699   4.639   3.813   3.264
 4224SOL    HW112700   4.664   3.793   3.169
 4224SOL    HW212701   4.711   3.869   3.306
 4225SOL     OW12702   4.704   4.840   3.581
 4225SOL    HW112703   4.605   4.846   3.591
 4225SOL    HW212704   4.727   4.760   3.525
 4226SOL     OW12705   4.429   4.774   2.230
 4226SOL    HW112706   4.415   4.781   2.329
 4226SOL    HW212707   4.513   4.723   2.212
 4227SOL     OW12708   4.134   4.537   3.113
 4227SOL    HW112709   4.220   4.549   3.163
 4227SOL    HW212710   4.092   4.450   3.140
 4228SOL     OW12711   4.998   4.110   3.124
 4228SOL    HW112712   5.019   4.184   3.188
 4228SOL    HW212713   4.909   4.127   3.081
 4229SOL     OW12714   4.091   4.824   2.363
 4229SOL    HW112715   4.084   4.907   2.307
 4229SOL    HW212716   4.095   4.744   2.303
 4230SOL     OW12717   4.290   4.261   2.727
 4230SOL    HW112718   4.302   4.327   2.653
 4230SOL    HW212719   4.336   4.295   2.810
 4231SOL     OW12720   4.976   5.072   2.250
 4231SOL    HW112721   5.026   5.149   2.290
 4231SOL    HW212722   4.881   5.074   2.282
 4232SOL     OW12723   4.126   4.475   3.460
 4232SOL    HW112724   4.194   4.530   3.413
 4232SOL    HW212725   4.166   4.387   3.487
 4233SOL     OW12726   4.737   3.829   3.632
 4233SOL    HW112727   4.743   3.914   3.580
 4233SOL    HW212728   4.769   3.753   3.575
 4234SOL     OW12729   4.228   3.774   3.602
 4234SOL    HW112730   4.186   3.717   3.532
 4234SOL    HW212731   4.162   3.843   3.634
 4235SOL     OW12732   4.297   4.594   2.891
 4235SOL    HW112733   4.341   4.683   2.882
 4235SOL    HW212734   4.234   4.594   2.968
 4236SOL     OW12735   5.084   4.586   2.907
 4236SOL    HW112736   5.009   4.586   2.841
 4236SOL    HW212737   5.121   4.494   2.916
 4237SOL     OW12738   4.933   4.249   2.137
 4237SOL    HW112739   4.946   4.165   2.191
 4237SOL    HW212740   4.904   4.323   2.197
 4238SOL     OW12741   4.031   3.937   3.093
 4238SOL    HW112742   4.008   3.974   3.183
 4238SOL    HW212743   4.001   3.842   3.087
 4239SOL     OW12744   4.456   4.358   2.926
 4239SOL    HW112745   4.515   4.332   2.850
 4239SOL    HW212746   4.428   4.454   2.915
 4240SOL     OW12747   4.031   3.787   2.480
 4240SOL    HW112748   4.020   3.881   2.513
 4240SOL    HW212749   4.026   3.724   2.557
 4241SOL     OW12750   5.346   4.091   2.236
 4241SOL    HW112751   5.348   4.015   2.300
 4241SOL    HW212752   5.298   4.168   2.276
 4242SOL     OW12753   4.747   4.490   2.828
 4242SOL    HW112754   4.762   4.511   2.924
 4242SOL    HW212755   4.717   4.395   2.819
 4243SOL     OW12756   4.074   4.622   3.666
 4243SOL    HW112757   4.150   4.666   3.714
 4243SOL    HW212758   4.109   4.575   3.584
 4244SOL     OW12759   5.027   4.562   1.904
 4244SOL    HW112760   5.061   4.469   1.919
 4244SOL    HW212761   5.045   4.589   1.809
 4245SOL     OW12762   4.043   4.534   2.811
 4245SOL    HW112763   4.136   4.570   2.816
 4245SOL    HW212764   4.037   4.449   2.863
 4246SOL     OW12765   4.063   4.233   2.868
 4246SOL    HW112766   4.011   4.150   2.851
 4246SOL    HW212767   4.140   4.238   2.804
 4247SOL     OW12768   4.862   4.104   3.540
 4247SOL    HW112769   4.817   4.167   3.604
 4247SOL    HW212770   4.955   4.135   3.523
 4248SOL     OW12771   4.884   3.931   3.339
 4248SOL    HW112772   4.884   3.995   3.416
 4248SOL    HW212773   4.912   3.979   3.256
 4249SOL     OW12774   3.732   5.050   2.062
 4249SOL    HW112775   3.639   5.071   2.031
 4249SOL    HW212776   3.742   4.951   2.075
 4250SOL     OW12777   4.726   4.520   3.100
 4250SOL    HW112778   4.767   4.488   3.186
 4250SOL    HW212779   4.630   4.493   3.097
 4251SOL     OW12780   3.764   4.268   2.976
 4251SOL    HW112781   3.849   4.235   2.935
 4251SOL    HW212782   3.777   4.283   3.074
 4252SOL     OW12783   3.913   4.244   3.584
 4252SOL    HW112784   3.972   4.204   3.514
 4252SOL    HW212785   3.855   4.315   3.543
 4253SOL     OW12786   4.539   4.296   2.187
 4253SOL    HW112787   4.546   4.207   2.141
 4253SOL    HW212788   4.445   4.330   2.179
 4254SOL     OW12789   4.395   4.188   3.131
 4254SOL    HW112790   4.361   4.099   3.101
 4254SOL    HW212791   4.421   4.242   3.051
 4255SOL     OW12792   4.197   4.224   2.053
 4255SOL    HW112793   4.258   4.304   2.057
 4255SOL    HW212794   4.102   4.255   2.060
 4256SOL     OW12795   3.883   4.861   3.328
 4256SOL    HW112796   3.905   4.800   3.404
 4256SOL    HW212797   3.893   4.812   3.242
 4257SOL     OW12798   5.071   4.783   3.096
 4257SOL    HW112799   5.095   4.720   3.022
 4257SOL    HW212800   4.981   4.823   3.078
 4258SOL     OW12801   5.026   4.579   2.171
 4258SOL    HW112802   4.940   4.548   2.213
 4258SOL    HW212803   5.022   4.565   2.072
 4259SOL     OW12804   3.807   4.982   2.884
 4259SOL    HW112805   3.802   4.981   2.984
 4259SOL    HW212806   3.724   4.941   2.846
 4260SOL     OW12807   5.004   4.651   2.534
 4260SOL    HW112808   5.064   4.570   2.536
 4260SOL    HW212809   5.044   4.720   2.474
 4261SOL     OW12810   4.554   4.997   3.284
 4261SOL    HW112811   4.549   5.030   3.379
 4261SOL    HW212812   4.468   5.016   3.238
 4262SOL     OW12813   3.987   4.050   2.582
 4262SOL    HW112814   3.908   4.101   2.548
 4262SOL    HW212815   3.978   4.035   2.680
 4263SOL     OW12816   4.918   5.336   1.893
 4263SOL    HW112817   4.924   5.243   1.930
 4263SOL    HW212818   4.859   5.336   1.813
 4264SOL     OW12819   4.546   4.726   3.234
 4264SOL    HW112820   4.586   4.725   3.142
 4264SOL    HW212821   4.556   4.818   3.274
 4265SOL     OW12822   4.640   4.634   2.153
 4265SOL    HW112823   4.703   4.672   2.085
 4265SOL    HW212824   4.680   4.551   2.192
 4266SOL     OW12825   4.096   5.012   3.352
 4266SOL    HW112826   4.083   5.105   3.318
 4266SOL    HW212827   4.012   4.960   3.339
 4267SOL     OW12828   4.763   4.822   2.558
 4267SOL    HW112829   4.693   4.775   2.612
 4267SOL    HW212830   4.822   4.754   2.515
 4268SOL     OW12831   4.738   3.960   2.833
 4268SOL    HW112832   4.730   3.924   2.740
 4268SOL    HW212833   4.736   3.884   2.898
 4269SOL     OW12834   3.829   4.737   3.588
 4269SOL    HW112835   3.752   4.704   3.642
 4269SOL    HW212836   3.914   4.707   3.630
 4270SOL     OW12837   4.396   3.927   3.351
 4270SOL    HW112838   4.486   3.911   3.311
 4270SOL    HW212839   4.404   3.932   3.450
 4271SOL     OW12840   3.799   4.069   1.895
 4271SOL    HW112841   3.707   4.041   1.866
 4271SOL    HW212842   3.830   4.146   1.839
 4272SOL     OW12843   5.164   4.580   3.260
 4272SOL    HW112844   5.107   4.632   3.197
 4272SOL    HW212845   5.260   4.592   3.236
 4273SOL     OW12846   3.796   3.890   2.180
 4273SOL    HW112847   3.779   3.973   2.126
 4273SOL    HW212848   3.886   3.853   2.158
 4274SOL     OW12849   4.337   4.566   3.293
 4274SOL    HW112850   4.393   4.647   3.276
 4274SOL    HW212851   4.396   4.486   3.296
 4275SOL     OW12852   4.440   4.289   3.570
 4275SOL    HW112853   4.459   4.354   3.644
 4275SOL    HW212854   4.500   4.209   3.579
 4276SOL     OW12855   5.174   4.944   3.495
 4276SOL    HW112856   5.165   4.934   3.594
 4276SOL    HW212857   5.270   4.937   3.469
 4277SOL     OW12858   4.949   4.049   2.311
 4277SOL    HW112859   5.014   3.975   2.300
 4277SOL    HW212860   4.969   4.099   2.395
 4278SOL     OW12861   4.318   4.469   2.514
 4278SOL    HW112862   4.368   4.554   2.495
 4278SOL    HW212863   4.230   4.471   2.466
 4279SOL     OW12864   4.583   4.680   2.723
 4279SOL    HW112865   4.637   4.611   2.771
 4279SOL    HW212866   4.551   4.749   2.789
 4280SOL     OW12867   4.807   4.708   1.949
 4280SOL    HW112868   4.784   4.761   1.867
 4280SOL    HW212869   4.888   4.652   1.930
 4281SOL     OW12870   3.945   5.038   3.706
 4281SOL    HW112871   3.880   4.965   3.685
 4281SOL    HW212872   3.949   5.052   3.804
 4282SOL     OW12873   3.803   4.964   2.515
 4282SOL    HW112874   3.802   4.917   2.603
 4282SOL    HW212875   3.885   4.936   2.464
 4283SOL     OW12876   4.152   4.148   2.382
 4283SOL    HW112877   4.182   4.076   2.320
 4283SOL    HW212878   4.113   4.108   2.465
 4284SOL     OW12879   4.041   4.271   3.142
 4284SOL    HW112880   4.079   4.212   3.214
 4284SOL    HW212881   4.081   4.245   3.054
 4285SOL     OW12882   5.148   3.938   2.974
 4285SOL    HW112883   5.200   3.873   3.029
 4285SOL    HW212884   5.099   4.001   3.035
 4286SOL     OW12885   4.725   3.758   3.016
 4286SOL    HW112886   4.662   3.686   2.985
 4286SOL    HW212887   4.818   3.722   3.016
 4287SOL     OW12888   4.494   5.054   2.163
 4287SOL    HW112889   4.448   4.967   2.180
 4287SOL    HW212890   4.585   5.051   2.204
 4288SOL     OW12891   5.076   3.776   2.030
 4288SOL    HW112892   5.111   3.735   1.946
 4288SOL    HW212893   4.986   3.738   2.050
 4289SOL     OW12894   3.763   4.801   2.162
 4289SOL    HW112895   3.862   4.790   2.153
 4289SOL    HW212896   3.723   4.715   2.194
 4290SOL     OW12897   3.954   4.352   3.837
 4290SOL    HW112898   3.861   4.350   3.874
 4290SOL    HW212899   3.955   4.313   3.745
 4291SOL     OW12900   3.949   3.999   4.720
 4291SOL    HW112901   3.984   3.982   4.812
 4291SOL    HW212902   3.861   3.954   4.708
 4292SOL     OW12903   3.743   4.092   4.371
 4292SOL    HW112904   3.661   4.135   4.410
 4292SOL    HW212905   3.715   4.019   4.308
 4293SOL     OW12906   4.293   4.999   4.889
 4293SOL    HW112907   4.200   4.992   4.852
 4293SOL    HW212908   4.304   5.088   4.933
 4294SOL     OW12909   4.859   4.427   4.441
 4294SOL    HW112910   4.916   4.505   4.416
 4294SOL    HW212911   4.799   4.453   4.517
 4295SOL     OW12912   4.492   4.868   4.747
 4295SOL    HW112913   4.414   4.885   4.807
 4295SOL    HW212914   4.526   4.955   4.711
 4296SOL     OW12915   4.409   4.736   4.389
 4296SOL    HW112916   4.478   4.720   4.459
 4296SOL    HW212917   4.336   4.793   4.427
 4297SOL     OW12918   4.059   5.159   4.785
 4297SOL    HW112919   3.981   5.128   4.732
 4297SOL    HW212920   4.117   5.217   4.728
 4298SOL     OW12921   3.964   4.815   4.610
 4298SOL    HW112922   3.978   4.731   4.662
 4298SOL    HW212923   3.909   4.879   4.665
 4299SOL     OW12924   4.330   4.688   3.847
 4299SOL    HW112925   4.337   4.772   3.793
 4299SOL    HW212926   4.376   4.701   3.935
 4300SOL     OW12927   3.846   4.367   4.287
 4300SOL    HW112928   3.801   4.279   4.304
 4300SOL    HW212929   3.845   4.421   4.371
 4301SOL     OW12930   4.533   3.728   4.226
 4301SOL    HW112931   4.573   3.819   4.217
 4301SOL    HW212932   4.433   3.736   4.232
 4302SOL     OW12933   3.921   4.700   4.988
 4302SOL    HW112934   4.010   4.655   4.974
 4302SOL    HW212935   3.848   4.635   4.969
 4303SOL     OW12936   4.322   4.453   3.994
 4303SOL    HW112937   4.346   4.522   3.926
 4303SOL    HW212938   4.244   4.486   4.048
 4304SOL     OW12939   5.005   4.069   4.668
 4304SOL    HW112940   4.919   4.019   4.655
 4304SOL    HW212941   5.067   4.015   4.724
 4305SOL     OW12942   4.531   4.329   5.189
 4305SOL    HW112943   4.484   4.326   5.278
 4305SOL    HW212944   4.480   4.274   5.123
 4306SOL     OW12945   4.715   4.134   4.966
 4306SOL    HW112946   4.638   4.168   5.020
 4306SOL    HW212947   4.681   4.083   4.887
 4307SOL     OW12948   4.765   4.425   4.153
 4307SOL    HW112949   4.791   4.421   4.249
 4307SOL    HW212950   4.680   4.374   4.139
 4308SOL     OW12951   3.800   4.535   4.513
 4308SOL    HW112952   3.899   4.523   4.522
 4308SOL    HW212953   3.776   4.630   4.534
 4309SOL     OW12954   4.589   4.072   3.919
 4309SOL    HW112955   4.648   4.135   3.870
 4309SOL    HW212956   4.608   3.978   3.890
 4310SOL     OW12957   5.086   4.868   4.269
 4310SOL    HW112958   5.169   4.839   4.221
 4310SOL    HW212959   5.037   4.935   4.213
 4311SOL     OW12960   4.274   3.920   4.609
 4311SOL    HW112961   4.269   3.915   4.709
 4311SOL    HW212962   4.276   4.016   4.580
 4312SOL     OW12963   4.045   4.667   3.966
 4312SOL    HW112964   4.127   4.706   3.924
 4312SOL    HW212965   4.018   4.585   3.917
 4313SOL     OW12966   3.926   4.009   5.222
 4313SOL    HW112967   3.846   4.069   5.209
 4313SOL    HW212968   3.916   3.960   5.308
 4314SOL     OW12969   4.106   4.424   4.204
 4314SOL    HW112970   4.151   4.334   4.201
 4314SOL    HW212971   4.012   4.413   4.237
 4315SOL     OW12972   4.338   3.846   3.841
 4315SOL    HW112973   4.436   3.824   3.848
 4315SOL    HW212974   4.307   3.829   3.748
 4316SOL     OW12975   4.646   4.227   4.623
 4316SOL    HW112976   4.621   4.218   4.527
 4316SOL    HW212977   4.694   4.145   4.654
 4317SOL     OW12978   4.263   3.788   4.236
 4317SOL    HW112979   4.182   3.789   4.294
 4317SOL    HW212980   4.266   3.871   4.181
 4318SOL     OW12981   4.021   3.759   3.895
 4318SOL    HW112982   4.070   3.843   3.874
 4318SOL    HW212983   4.083   3.694   3.940
 4319SOL     OW12984   4.659   3.960   4.204
 4319SOL    HW112985   4.611   4.001   4.126
 4319SOL    HW212986   4.758   3.958   4.185
 4320SOL     OW12987   4.951   5.294   4.517
 4320SOL    HW112988   4.972   5.368   4.452
 4320SOL    HW212989   5.019   5.294   4.590
 4321SOL     OW12990   4.183   4.876   4.465
 4321SOL    HW112991   4.112   4.849   4.530
 4321SOL    HW212992   4.157   4.848   4.372
 4322SOL     OW12993   4.756   4.273   3.740
 4322SOL    HW112994   4.715   4.355   3.701
 4322SOL    HW212995   4.820   4.299   3.813
 4323SOL     OW12996   4.285   3.946   4.871
 4323SOL    HW112997   4.323   3.862   4.908
 4323SOL    HW212998   4.197   3.965   4.915
 4324SOL     OW12999   4.590   4.178   4.366
 4324SOL    HW113000   4.558   4.250   4.304
 4324SOL    HW213001   4.614   4.097   4.313
 4325SOL     OW13002   4.741   3.763   4.477
 4325SOL    HW113003   4.669   3.768   4.408
 4325SOL    HW213004   4.717   3.694   4.546
 4326SOL     OW13005   4.251   3.980   4.052
 4326SOL    HW113006   4.278   3.921   3.977
 4326SOL    HW213007   4.251   4.075   4.021
 4327SOL     OW13008   4.788   5.071   5.064
 4327SOL    HW113009   4.708   5.048   5.119
 4327SOL    HW213010   4.871   5.045   5.113
 4328SOL     OW13011   4.835   4.919   4.824
 4328SOL    HW113012   4.795   4.963   4.905
 4328SOL    HW213013   4.794   4.956   4.741
 4329SOL     OW13014   4.429   4.774   4.092
 4329SOL    HW113015   4.415   4.781   4.191
 4329SOL    HW213016   4.513   4.723   4.074
 4330SOL     OW13017   4.134   4.537   4.975
 4330SOL    HW113018   4.220   4.549   5.025
 4330SOL    HW213019   4.092   4.450   5.002
 4331SOL     OW13020   4.998   4.110   4.986
 4331SOL    HW113021   5.019   4.184   5.050
 4331SOL    HW213022   4.909   4.127   4.943
 4332SOL     OW13023   4.091   4.824   4.225
 4332SOL    HW113024   4.084   4.907   4.169
 4332SOL    HW213025   4.095   4.744   4.165
 4333SOL     OW13026   4.290   4.261   4.589
 4333SOL    HW113027   4.302   4.327   4.515
 4333SOL    HW213028   4.336   4.295   4.672
 4334SOL     OW13029   4.976   5.072   4.112
 4334SOL    HW113030   5.026   5.149   4.152
 4334SOL    HW213031   4.881   5.074   4.144
 4335SOL     OW13032   4.297   4.594   4.753
 4335SOL    HW113033   4.341   4.683   4.744
 4335SOL    HW213034   4.234   4.594   4.830
 4336SOL     OW13035   5.084   4.586   4.769
 4336SOL    HW113036   5.009   4.586   4.703
 4336SOL    HW213037   5.121   4.494   4.778
 4337SOL     OW13038   4.933   4.249   3.999
 4337SOL    HW113039   4.946   4.165   4.053
 4337SOL    HW213040   4.904   4.323   4.059
 4338SOL     OW13041   4.031   3.937   4.955
 4338SOL    HW113042   4.008   3.974   5.045
 4338SOL    HW213043   4.001   3.842   4.949
 4339SOL     OW13044   4.456   4.358   4.788
 4339SOL    HW113045   4.515   4.332   4.712
 4339SOL    HW213046   4.428   4.454   4.777
 4340SOL     OW13047   4.031   3.787   4.342
 4340SOL    HW113048   4.020   3.881   4.375
 4340SOL    HW213049   4.026   3.724   4.419
 4341SOL     OW13050   5.346   4.091   4.098
 4341SOL    HW113051   5.348   4.015   4.162
 4341SOL    HW213052   5.298   4.168   4.138
 4342SOL     OW13053   4.747   4.490   4.690
 4342SOL    HW113054   4.762   4.511   4.786
 4342SOL    HW213055   4.717   4.395   4.681
 4343SOL     OW13056   5.027   4.562   3.766
 4343SOL    HW113057   5.061   4.469   3.781
 4343SOL    HW213058   5.045   4.589   3.671
 4344SOL     OW13059   4.043   4.534   4.673
 4344SOL    HW113060   4.136   4.570   4.678
 4344SOL    HW213061   4.037   4.449   4.725
 4345SOL     OW13062   4.063   4.233   4.730
 4345SOL    HW113063   4.011   4.150   4.713
 4345SOL    HW213064   4.140   4.238   4.666
 4346SOL     OW13065   4.884   3.931   5.201
 4346SOL    HW113066   4.884   3.995   5.278
 4346SOL    HW213067   4.912   3.979   5.118
 4347SOL     OW13068   3.732   5.050   3.924
 4347SOL    HW113069   3.639   5.071   3.893
 4347SOL    HW213070   3.742   4.951   3.937
 4348SOL     OW13071   4.726   4.520   4.962
 4348SOL    HW113072   4.767   4.488   5.048
 4348SOL    HW213073   4.630   4.493   4.959
 4349SOL     OW13074   3.764   4.268   4.838
 4349SOL    HW113075   3.849   4.235   4.797
 4349SOL    HW213076   3.777   4.283   4.936
 4350SOL     OW13077   3.913   4.244   5.446
 4350SOL    HW113078   3.972   4.204   5.376
 4350SOL    HW213079   3.855   4.315   5.405
 4351SOL     OW13080   4.539   4.296   4.049
 4351SOL    HW113081   4.546   4.207   4.003
 4351SOL    HW213082   4.445   4.330   4.041
 4352SOL     OW13083   4.395   4.188   4.993
 4352SOL    HW113084   4.361   4.099   4.963
 4352SOL    HW213085   4.421   4.242   4.913
 4353SOL     OW13086   4.197   4.224   3.915
 4353SOL    HW113087   4.258   4.304   3.919
 4353SOL    HW213088   4.102   4.255   3.922
 4354SOL     OW13089   3.883   4.861   5.190
 4354SOL    HW113090   3.905   4.800   5.266
 4354SOL    HW213091   3.893   4.812   5.104
 4355SOL     OW13092   5.071   4.783   4.958
 4355SOL    HW113093   5.095   4.720   4.884
 4355SOL    HW213094   4.981   4.823   4.940
 4356SOL     OW13095   5.026   4.579   4.033
 4356SOL    HW113096   4.940   4.548   4.075
 4356SOL    HW213097   5.022   4.565   3.934
 4357SOL     OW13098   3.807   4.982   4.746
 4357SOL    HW113099   3.802   4.981   4.846
 4357SOL    HW213100   3.724   4.941   4.708
 4358SOL     OW13101   5.004   4.651   4.396
 4358SOL    HW113102   5.064   4.570   4.398
 4358SOL    HW213103   5.044   4.720   4.336
 4359SOL     OW13104   4.554   4.997   5.146
 4359SOL    HW113105   4.549   5.030   5.241
 4359SOL    HW213106   4.468   5.016   5.100
 4360SOL     OW13107   3.987   4.050   4.444
 4360SOL    HW113108   3.908   4.101   4.410
 4360SOL    HW213109   3.978   4.035   4.542
 4361SOL     OW13110   4.918   5.336   3.755
 4361SOL    HW113111   4.924   5.243   3.792
 4361SOL    HW213112   4.859   5.336   3.675
 4362SOL     OW13113   4.546   4.726   5.096
 4362SOL    HW113114   4.586   4.725   5.004
 4362SOL    HW213115   4.556   4.818   5.136
 4363SOL     OW13116   4.640   4.634   4.015
 4363SOL    HW113117   4.703   4.672   3.947
 4363SOL    HW213118   4.680   4.551   4.054
 4364SOL     OW13119   4.763   4.822   4.420
 4364SOL    HW113120   4.693   4.775   4.474
 4364SOL    HW213121   4.822   4.754   4.377
 4365SOL     OW13122   4.738   3.960   4.695
 4365SOL    HW113123   4.730   3.924   4.602
 4365SOL    HW213124   4.736   3.884   4.760
 4366SOL     OW13125   4.396   3.927   5.213
 4366SOL    HW113126   4.486   3.911   5.173
 4366SOL    HW213127   4.404   3.932   5.312
 4367SOL     OW13128   3.799   4.069   3.757
 4367SOL    HW113129   3.707   4.041   3.728
 4367SOL    HW213130   3.830   4.146   3.701
 4368SOL     OW13131   3.796   3.890   4.042
 4368SOL    HW113132   3.779   3.973   3.988
 4368SOL    HW213133   3.886   3.853   4.020
 4369SOL     OW13134   4.949   4.049   4.173
 4369SOL    HW113135   5.014   3.975   4.162
 4369SOL    HW213136   4.969   4.099   4.257
 4370SOL     OW13137   4.318   4.469   4.376
 4370SOL    HW113138   4.368   4.554   4.357
 4370SOL    HW213139   4.230   4.471   4.328
 4371SOL     OW13140   4.583   4.680   4.585
 4371SOL    HW113141   4.637   4.611   4.633
 4371SOL    HW213142   4.551   4.749   4.651
 4372SOL     OW13143   4.807   4.708   3.811
 4372SOL    HW113144   4.784   4.761   3.729
 4372SOL    HW213145   4.888   4.652   3.792
 4373SOL     OW13146   3.803   4.964   4.377
 4373SOL    HW113147   3.802   4.917   4.465
 4373SOL    HW213148   3.885   4.936   4.326
 4374SOL     OW13149   4.152   4.148   4.244
 4374SOL    HW113150   4.182   4.076   4.182
 4374SOL    HW213151   4.113   4.108   4.327
 4375SOL     OW13152   4.041   4.271   5.004
 4375SOL    HW113153   4.079   4.212   5.076
 4375SOL    HW213154   4.081   4.245   4.916
 4376SOL     OW13155   5.148   3.938   4.836
 4376SOL    HW113156   5.200   3.873   4.891
 4376SOL    HW213157   5.099   4.001   4.897
 4377SOL     OW13158   4.725   3.758   4.878
 4377SOL    HW113159   4.662   3.686   4.847
 4377SOL    HW213160   4.818   3.722   4.878
 4378SOL     OW13161   4.494   5.054   4.025
 4378SOL    HW113162   4.448   4.967   4.042
 4378SOL    HW213163   4.585   5.051   4.066
 4379SOL     OW13164   5.076   3.776   3.892
 4379SOL    HW113165   5.111   3.735   3.808
 4379SOL    HW213166   4.986   3.738   3.912
 4380SOL     OW13167   3.763   4.801   4.024
 4380SOL    HW113168   3.862   4.790   4.015
 4380SOL    HW213169   3.723   4.715   4.056
   5.12080   5.12080   5.12080
