mobley_2523689_GMX.gro created by acpype (v: 2023.10.27) on Wed May 20 23:59:23 2026
   23
    1MOL     C1    1   2.773   2.557   2.213
    1MOL     C2    2   2.641   2.594   2.192
    1MOL     C3    3   2.810   2.502   2.335
    1MOL     C4    4   2.545   2.576   2.293
    1MOL     C5    5   2.714   2.484   2.436
    1MOL     C6    6   2.579   2.521   2.417
    1MOL     C7    7   2.463   2.425   2.740
    1MOL     C8    8   2.319   2.453   2.750
    1MOL     C9    9   2.266   2.504   2.639
    1MOL    C10   10   2.346   2.532   2.515
    1MOL     N1   11   2.540   2.446   2.638
    1MOL     N2   12   2.483   2.501   2.524
    1MOL     N3   13   2.255   2.424   2.870
    1MOL     O1   14   2.289   2.579   2.417
    1MOL    CL1   15   2.097   2.544   2.634
    1MOL     H1   16   2.847   2.571   2.135
    1MOL     H2   17   2.611   2.638   2.097
    1MOL     H3   18   2.913   2.472   2.353
    1MOL     H4   19   2.444   2.608   2.269
    1MOL     H5   20   2.747   2.440   2.529
    1MOL     H6   21   2.510   2.380   2.830
    1MOL     H7   22   2.312   2.443   2.953
    1MOL     H8   23   2.163   2.467   2.877
   5.01451   5.01451   5.01451
