; mobley_3265457_GMX_OPLS.top created by acpype (v: 2023.10.27) on Wed May 20 23:56:28 2026

; Include forcefield parameters
#include "ffoplsaa.itp"

; Include mobley_3265457_GMX.itp topology
#include "mobley_3265457_GMX.itp"

; Ligand position restraints
#ifdef POSRES_LIG
#include "posre_mobley_3265457.itp"
#endif

[ system ]
 mobley_3265457

[ molecules ]
; Compound        nmols
 mobley_3265457   1     
