%VERSION  VERSION_STAMP = V0001.000  DATE = 05/20/26  23:56:35                  
%FLAG TITLE                                                                     
%FORMAT(20a4)                                                                   
SAMPL4_011                                                                      
%FLAG POINTERS                                                                  
%FORMAT(10I8)                                                                   
      23      10       9      14      17      19      16      31       0       0
     102       1      14      19      31      11      13       8      11       0
       0       0       0       0       0       0       0       0      23       0
       0
%FLAG ATOM_NAME                                                                 
%FORMAT(20a4)                                                                   
C1  C2  C3  C4  C5  C6  C7  C8  C9  O1  O2  O3  O4  Cl1 H1  H2  H3  H4  H5  H6  
H7  H8  H9  
%FLAG CHARGE                                                                    
%FORMAT(5E16.8)                                                                 
 -2.00445300E+00 -3.45494808E+00  7.12491930E-01  2.24316513E+00  1.45960623E+00
  9.18403920E-01  1.05598228E+01  2.16298701E+00  2.07187551E+00 -9.67786353E+00
 -8.76674853E+00 -6.32131587E+00 -5.75642457E+00 -1.11884922E+00  3.07956870E+00
  3.49868160E-01  9.36024884E-01  9.36024884E-01  9.36024884E-01  8.81357984E-01
  8.81357984E-01  8.81357984E-01  8.09070120E+00
%FLAG ATOMIC_NUMBER                                                             
%FORMAT(10I8)                                                                   
       6       6       6       6       6       6       6       6       6       8
       8       8       8      17       1       1       1       1       1       1
       1       1       1
%FLAG MASS                                                                      
%FORMAT(5E16.8)                                                                 
  1.20100000E+01  1.20100000E+01  1.20100000E+01  1.20100000E+01  1.20100000E+01
  1.20100000E+01  1.20100000E+01  1.20100000E+01  1.20100000E+01  1.60000000E+01
  1.60000000E+01  1.60000000E+01  1.60000000E+01  3.54500000E+01  1.00800000E+00
  1.00800000E+00  1.00800000E+00  1.00800000E+00  1.00800000E+00  1.00800000E+00
  1.00800000E+00  1.00800000E+00  1.00800000E+00
%FLAG ATOM_TYPE_INDEX                                                           
%FORMAT(10I8)                                                                   
       1       1       1       1       1       1       1       2       2       3
       4       5       5       6       7       8       9       9       9       9
       9       9      10
%FLAG NUMBER_EXCLUDED_ATOMS                                                     
%FORMAT(10I8)                                                                   
      13      11      13      10      11       8       4       4       4       1
       3       4       4       1       1       1       2       1       1       2
       1       1       1
%FLAG NONBONDED_PARM_INDEX                                                      
%FORMAT(10I8)                                                                   
       1       2       4       7      11      16      22      29      37      46
       2       3       5       8      12      17      23      30      38      47
       4       5       6       9      13      18      24      31      39      48
       7       8       9      10      14      19      25      32      40      49
      11      12      13      14      15      20      26      33      41      50
      16      17      18      19      20      21      27      34      42      51
      22      23      24      25      26      27      28      35      43      52
      29      30      31      32      33      34      35      36      44      53
      37      38      39      40      41      42      43      44      45      54
      46      47      48      49      50      51      52      53      54      55
%FLAG RESIDUE_LABEL                                                             
%FORMAT(20a4)                                                                   
MOL 
%FLAG RESIDUE_POINTER                                                           
%FORMAT(10I8)                                                                   
       1
%FLAG BOND_FORCE_CONSTANT                                                       
%FORMAT(5E16.8)                                                                 
  3.54250000E+02  3.60690000E+02  2.62840000E+02  3.43340000E+02  3.48550000E+02
  1.87980000E+02  5.90600000E+02  3.22470000E+02  2.82270000E+02  3.44220000E+02
  5.35510000E+02
%FLAG BOND_EQUIL_VALUE                                                          
%FORMAT(5E16.8)                                                                 
  1.39860000E+00  1.08600000E+00  1.49070000E+00  1.36880000E+00  1.36440000E+00
  1.75720000E+00  1.21900000E+00  1.11230000E+00  1.42730000E+00  1.09690000E+00
  9.72500000E-01
%FLAG ANGLE_FORCE_CONSTANT                                                      
%FORMAT(5E16.8)                                                                 
  6.36700000E+01  6.14400000E+01  7.90000000E+01  4.49000000E+01  6.40600000E+01
  7.79600000E+01  4.32700000E+01  7.88600000E+01  8.82600000E+01  6.74100000E+01
  5.99800000E+01  5.62000000E+01  3.56400000E+01
%FLAG ANGLE_EQUIL_VALUE                                                         
%FORMAT(5E16.8)                                                                 
  2.09474507E+00  2.10015559E+00  2.07886256E+00  2.09230160E+00  2.08357495E+00
  2.13977458E+00  2.00957296E+00  2.09265067E+00  2.06629619E+00  1.89507931E+00
  2.10521705E+00  1.92579712E+00  1.89455572E+00
%FLAG DIHEDRAL_FORCE_CONSTANT                                                   
%FORMAT(5E16.8)                                                                 
  3.62500000E+00  5.80000000E-01  1.00000000E+00  1.66000000E+00  8.55000000E-01
  3.83333333E-01  1.10000000E+00  1.05000000E+01
%FLAG DIHEDRAL_PERIODICITY                                                      
%FORMAT(5E16.8)                                                                 
  2.00000000E+00  2.00000000E+00  2.00000000E+00  2.00000000E+00  2.00000000E+00
  3.00000000E+00  2.00000000E+00  2.00000000E+00
%FLAG DIHEDRAL_PHASE                                                            
%FORMAT(5E16.8)                                                                 
  3.14159400E+00  3.14159400E+00  3.14159400E+00  3.14159400E+00  3.14159400E+00
  0.00000000E+00  3.14159400E+00  3.14159400E+00
%FLAG SCEE_SCALE_FACTOR                                                         
%FORMAT(5E16.8)                                                                 
  1.20000000E+00  1.20000000E+00  1.20000000E+00  1.20000000E+00  1.20000000E+00
  1.20000000E+00  0.00000000E+00  0.00000000E+00
%FLAG SCNB_SCALE_FACTOR                                                         
%FORMAT(5E16.8)                                                                 
  2.00000000E+00  2.00000000E+00  2.00000000E+00  2.00000000E+00  2.00000000E+00
  2.00000000E+00  0.00000000E+00  0.00000000E+00
%FLAG SOLTY                                                                     
%FORMAT(5E16.8)                                                                 
  0.00000000E+00  0.00000000E+00  0.00000000E+00  0.00000000E+00  0.00000000E+00
  0.00000000E+00  0.00000000E+00  0.00000000E+00  0.00000000E+00  0.00000000E+00
  0.00000000E+00
%FLAG LENNARD_JONES_ACOEF                                                       
%FORMAT(5E16.8)                                                                 
  6.96551276E+05  8.43969952E+05  1.02073671E+06  5.17507491E+05  6.30925504E+05
  3.76435470E+05  5.92438683E+05  7.18991463E+05  4.37717034E+05  5.03152404E+05
  4.46121722E+05  5.42502534E+05  3.27367585E+05  3.78207390E+05  2.83662575E+05
  1.49062160E+06  1.80018612E+06  1.11993097E+06  1.27155594E+06  9.60982218E+05
  3.17107030E+06  7.52549148E+04  9.27554496E+04  5.27277400E+04  6.30298721E+04
  4.65732396E+04  1.66104821E+05  6.90855956E+03  6.27751680E+04  7.75673747E+04
  4.36069364E+04  5.24591488E+04  3.86549715E+04  1.39186903E+05  5.62610481E+03
  4.56536476E+03  5.63013422E+04  6.97998263E+04  3.86646725E+04  4.69084694E+04
  3.44374471E+04  1.25585106E+05  4.88692384E+03  3.94664935E+03  3.39005767E+03
  2.25372434E+02  3.03553352E+02  1.15813907E+02  1.74176419E+02  1.16469347E+02
  5.83653537E+02  8.53132435E+00  6.05535196E+00  4.36660257E+00  1.10360882E-05
%FLAG LENNARD_JONES_BCOEF                                                       
%FORMAT(5E16.8)                                                                 
  5.24668528E+02  5.90251928E+02  6.63431737E+02  4.98871431E+02  5.62969425E+02
  4.69350655E+02  4.76608379E+02  5.36620538E+02  4.51916854E+02  4.32634597E+02
  3.88758656E+02  4.38146883E+02  3.67361018E+02  3.52573684E+02  2.87011518E+02
  9.81118883E+02  1.10195051E+03  9.38113535E+02  8.92559477E+02  7.29357620E+02
  1.82923847E+03  1.09570372E+02  1.24325688E+02  1.01173582E+02  9.87712192E+01
  7.98066064E+01  2.08087638E+02  2.10929191E+01  1.00073628E+02  1.13692208E+02
  9.20079458E+01  9.01089277E+01  7.27065100E+01  1.90482178E+02  1.90347353E+01
  1.71467049E+01  1.01040256E+02  1.14981426E+02  9.23664132E+01  9.08431526E+01
  7.31636661E+01  1.92900608E+02  1.89134207E+01  1.69967767E+01  1.67944276E+01
  4.40751799E+00  5.22789272E+00  3.48534600E+00  3.81654050E+00  2.93355636E+00
  9.06673074E+00  5.44840215E-01  4.59018960E-01  4.15568027E-01  4.55498033E-04
%FLAG BONDS_INC_HYDROGEN                                                        
%FORMAT(10I8)                                                                   
       0      42       2      18      45       8      21      48      10      21
      51      10      21      54      10      24      57      10      24      60
      10      24      63      10      30      66      11
%FLAG BONDS_WITHOUT_HYDROGEN                                                    
%FORMAT(10I8)                                                                   
       0       3       1       0       6       1       3      15       1       3
      18       3       6       9       1       6      33       4       9      12
       1       9      30       5      12      15       1      12      36       4
      15      39       6      18      27       7      21      33       9      24
      36       9
%FLAG ANGLES_INC_HYDROGEN                                                       
%FORMAT(10I8)                                                                   
       3       0      42       4       3      18      45       7       6       0
      42       4       9      30      66      10      27      18      45      11
      33      21      48      12      33      21      51      12      33      21
      54      12      36      24      57      12      36      24      60      12
      36      24      63      12      48      21      51      13      48      21
      54      13      51      21      54      13      57      24      60      13
      57      24      63      13      60      24      63      13
%FLAG ANGLES_WITHOUT_HYDROGEN                                                   
%FORMAT(10I8)                                                                   
       0       3      15       1       0       3      18       2       0       6
       9       1       0       6      33       3       3       0       6       1
       3      15      12       1       3      15      39       5       3      18
      27       6       6       9      12       1       6       9      30       8
       6      33      21       9       9       6      33       3       9      12
      15       1       9      12      36       3      12       9      30       8
      12      15      39       5      12      36      24       9      15       3
      18       2      15      12      36       3
%FLAG DIHEDRALS_INC_HYDROGEN                                                    
%FORMAT(10I8)                                                                   
       0       3      18      45       3       6       9      30      66       5
       6      33      21      48       6       6      33      21      51       6
       6      33      21      54       6      42       0       6       9       1
      12       9      30      66       5      12      36      24      57       6
      12      36      24      60       6      12      36      24      63       6
      42       0       3      15       1      15       3      18      45       3
      42       0       3      18       1      42       0       6      33       1
      42       0      -6      -3       7       3      45     -18     -27       8
%FLAG DIHEDRALS_WITHOUT_HYDROGEN                                                
%FORMAT(10I8)                                                                   
       0       3      15      12       1       0       3      15      39       1
       0       3      18      27       2       0       6      -9      12       1
       0       6       9      30       1       0       6      33      21       4
       3       0       6       9       1       3       0       6      33       1
       3      15     -12       9       1       3      15      12      36       1
       6       0       3      15       1       6       0       3      18       1
       6       9     -12      15       1       6       9      12      36       1
       9       6      33      21       4       9      12      15      39       1
       9      12      36      24       4      12       9       6      33       1
      12      15       3      18       1      15       3      18      27       2
      15      12       9      30       1      15      12      36      24       4
      18       3      15      39       1      30       9       6      33       1
      30       9      12      36       1      36      12      15      39       1
      18       0      -3     -15       7       0       9      -6     -33       7
       6      12      -9     -30       7       9      15     -12     -36       7
       3      12     -15     -39       7
%FLAG EXCLUDED_ATOMS_LIST                                                       
%FORMAT(10I8)                                                                   
       2       3       4       5       6       7       8      10      11      12
      14      15      16       3       4       5       6       7      10      12
      13      14      15      16       4       5       6       7       8      11
      12      13      15      17      18      19      23       5       6       8
       9      11      12      13      14      15      23       6       7       9
      11      12      13      14      20      21      22      23       7       9
      10      11      13      14      15      16      10      14      15      16
      12      17      18      19      13      20      21      22      16      12
      13      23      15      17      18      19      14      20      21      22
       0       0       0      18      19      19       0      21      22      22
       0       0
%FLAG HBOND_ACOEF                                                               
%FORMAT(5E16.8)                                                                 

%FLAG HBOND_BCOEF                                                               
%FORMAT(5E16.8)                                                                 

%FLAG HBCUT                                                                     
%FORMAT(5E16.8)                                                                 

%FLAG AMBER_ATOM_TYPE                                                           
%FORMAT(20a4)                                                                   
ca  ca  ca  ca  ca  ca  c   c3  c3  o   oh  os  os  cl  ha  h4  h1  h1  h1  h1  
h1  h1  ho  
%FLAG TREE_CHAIN_CLASSIFICATION                                                 
%FORMAT(20a4)                                                                   
BLA BLA BLA BLA BLA BLA BLA BLA BLA BLA BLA BLA BLA BLA BLA BLA BLA BLA BLA BLA 
BLA BLA BLA 
%FLAG JOIN_ARRAY                                                                
%FORMAT(10I8)                                                                   
       0       0       0       0       0       0       0       0       0       0
       0       0       0       0       0       0       0       0       0       0
       0       0       0
%FLAG IROTAT                                                                    
%FORMAT(10I8)                                                                   
       0       0       0       0       0       0       0       0       0       0
       0       0       0       0       0       0       0       0       0       0
       0       0       0
%FLAG RADIUS_SET                                                                
%FORMAT(1a80)                                                                   
modified Bondi radii (mbondi)                                                   
%FLAG RADII                                                                     
%FORMAT(5E16.8)                                                                 
  1.70000000E+00  1.70000000E+00  1.70000000E+00  1.70000000E+00  1.70000000E+00
  1.70000000E+00  1.70000000E+00  1.70000000E+00  1.70000000E+00  1.50000000E+00
  1.50000000E+00  1.50000000E+00  1.50000000E+00  1.70000000E+00  1.30000000E+00
  1.30000000E+00  1.30000000E+00  1.30000000E+00  1.30000000E+00  1.30000000E+00
  1.30000000E+00  1.30000000E+00  8.00000000E-01
%FLAG SCREEN                                                                    
%FORMAT(5E16.8)                                                                 
  7.20000000E-01  7.20000000E-01  7.20000000E-01  7.20000000E-01  7.20000000E-01
  7.20000000E-01  7.20000000E-01  7.20000000E-01  7.20000000E-01  8.50000000E-01
  8.50000000E-01  8.50000000E-01  8.50000000E-01  8.00000000E-01  8.50000000E-01
  8.50000000E-01  8.50000000E-01  8.50000000E-01  8.50000000E-01  8.50000000E-01
  8.50000000E-01  8.50000000E-01  8.50000000E-01
%FLAG IPOL                                                                      
%FORMAT(1I8)                                                                    
       0
