mobley_3265457_GMX.gro created by acpype (v: 2023.10.27) on Wed May 20 23:56:28 2026
 23
    1  MOL   C1    1   0.284  -0.170   0.325
    1  MOL   C2    2   0.165  -0.099   0.330
    1  MOL   C3    3   0.343  -0.201   0.202
    1  MOL   C4    4   0.281  -0.159   0.084
    1  MOL   C5    5   0.161  -0.088   0.088
    1  MOL   C6    6   0.103  -0.057   0.211
    1  MOL   C7    7   0.108  -0.069   0.461
    1  MOL   C8    8   0.516  -0.308   0.324
    1  MOL   C9    9   0.010  -0.139  -0.088
    1  MOL   O1   10   0.076  -0.157   0.541
    1  MOL   O2   11   0.338  -0.189  -0.037
    1  MOL   O3   12   0.459  -0.270   0.198
    1  MOL   O4   13   0.103  -0.049  -0.028
    1  MOL  CL1   14  -0.045   0.031   0.216
    1  MOL   H1   15   0.333  -0.202   0.417
    1  MOL   H2   16   0.095   0.038   0.487
    1  MOL   H3   17   0.609  -0.364   0.307
    1  MOL   H4   18   0.445  -0.371   0.378
    1  MOL   H5   19   0.537  -0.219   0.382
    1  MOL   H6   20  -0.030  -0.096  -0.180
    1  MOL   H7   21  -0.072  -0.158  -0.017
    1  MOL   H8   22   0.061  -0.233  -0.111
    1  MOL   H9   23   0.420  -0.239  -0.023
   13.61400     8.17400    14.41400
