; mobley_3265457_GMX_OPLS.itp created by acpype (v: 2023.10.27) on Wed May 20 23:56:28 2026

; For OPLS atomtypes manual fine tuning
; AC_at:OPLS_at:OPLScode: Possible_Alternatives (see ffoplsaa.atp and ffoplsaanb.itp)
; ca:CA:opls_145: ['166', '501', '502']
; c:C:opls_235: ['271']
; c3:CT:opls_135: ['136', '137', '149', '157', '158', '206', '209', '210', '223B', '224B', '245', '246', '274', '283', '284', '285', '292', '292B', '293B', '296', '307', '308', '505']
; o:O:opls_236: ['272']
; oh:OH:opls_154: ['167']
; os:x:opls_x: []
; cl:x:opls_x: []
; ha:HA:opls_146: []
; h4:HA:opls_146: []
; h1:HC:opls_140: []
; ho:HO:opls_155: ['168']

[ moleculetype ]
;name            nrexcl
 mobley_3265457   3

[ atoms ]
;   nr  type  resi  res  atom  cgnr     charge      mass       ; qtot   bond_type
     1 opls_145     1   MOL    C1    1    -0.110000     12.01100 ; qtot -0.110  CA  
     2 opls_145     1   MOL    C2    2    -0.189600     12.01100 ; qtot -0.300  CA  
     3 opls_145     1   MOL    C3    3     0.039100     12.01100 ; qtot -0.260  CA  
     4 opls_145     1   MOL    C4    4     0.123100     12.01100 ; qtot -0.137  CA  
     5 opls_145     1   MOL    C5    5     0.080100     12.01100 ; qtot -0.057  CA  
     6 opls_145     1   MOL    C6    6     0.050400     12.01100 ; qtot -0.007  CA  
     7 opls_235     1   MOL    C7    7     0.579498     12.01100 ; qtot  0.573  C   
     8 opls_135     1   MOL    C8    8     0.118700     12.01100 ; qtot  0.691  CT  
     9 opls_135     1   MOL    C9    9     0.113700     12.01100 ; qtot  0.805  CT  
    10 opls_236     1   MOL    O1   10    -0.531100     15.99940 ; qtot  0.274  O   
    11 opls_154     1   MOL    O2   11    -0.481100     15.99940 ; qtot -0.207  OH  
    12 opls_x     1   MOL    O3   12    -0.346900      0.00000 ; qtot -0.554  x   
    13 opls_x     1   MOL    O4   13    -0.315900      0.00000 ; qtot -0.870  x   
    14 opls_x     1   MOL   CL1   14    -0.061400      0.00000 ; qtot -0.931  x   
    15 opls_146     1   MOL    H1   15     0.169000      1.00800 ; qtot -0.762  HA  
    16 opls_146     1   MOL    H2   16     0.019200      1.00800 ; qtot -0.743  HA  
    17 opls_140     1   MOL    H3   17     0.051367      1.00800 ; qtot -0.692  HC  
    18 opls_140     1   MOL    H4   18     0.051367      1.00800 ; qtot -0.640  HC  
    19 opls_140     1   MOL    H5   19     0.051367      1.00800 ; qtot -0.589  HC  
    20 opls_140     1   MOL    H6   20     0.048367      1.00800 ; qtot -0.541  HC  
    21 opls_140     1   MOL    H7   21     0.048367      1.00800 ; qtot -0.492  HC  
    22 opls_140     1   MOL    H8   22     0.048367      1.00800 ; qtot -0.444  HC  
    23 opls_155     1   MOL    H9   23     0.444000      1.00800 ; qtot  0.000  HO  

[ bonds ]
;   ai     aj funct   r             k
     1      2   1 ;    1.3986e-01    2.9644e+05 ;     C1 - C2         CA - CA    
     1      3   1 ;    1.3986e-01    2.9644e+05 ;     C1 - C3         CA - CA    
     1     15   1 ;    1.0860e-01    3.0183e+05 ;     C1 - H1         CA - HA    
     2      6   1 ;    1.3986e-01    2.9644e+05 ;     C2 - C6         CA - CA    
     2      7   1 ;    1.4907e-01    2.1994e+05 ;     C2 - C7         CA - C     
     3      4   1 ;    1.3986e-01    2.9644e+05 ;     C3 - C4         CA - CA    
     3     12   1 ;    1.3688e-01    2.8731e+05 ;     C3 - O3         CA - x     
     4      5   1 ;    1.3986e-01    2.9644e+05 ;     C4 - C5         CA - CA    
     4     11   1 ;    1.3644e-01    2.9167e+05 ;     C4 - O2         CA - OH    
     5      6   1 ;    1.3986e-01    2.9644e+05 ;     C5 - C6         CA - CA    
     5     13   1 ;    1.3688e-01    2.8731e+05 ;     C5 - O4         CA - x     
     6     14   1 ;    1.7572e-01    1.5730e+05 ;     C6 - CL1        CA - x     
     7     10   1 ;    1.2190e-01    4.9421e+05 ;     C7 - O1          C - O     
     7     16   1 ;    1.1123e-01    2.6984e+05 ;     C7 - H2          C - HA    
     8     12   1 ;    1.4273e-01    2.3620e+05 ;     C8 - O3         CT - x     
     8     17   1 ;    1.0969e-01    2.8804e+05 ;     C8 - H3         CT - HC    
     8     18   1 ;    1.0969e-01    2.8804e+05 ;     C8 - H4         CT - HC    
     8     19   1 ;    1.0969e-01    2.8804e+05 ;     C8 - H5         CT - HC    
     9     13   1 ;    1.4273e-01    2.3620e+05 ;     C9 - O4         CT - x     
     9     20   1 ;    1.0969e-01    2.8804e+05 ;     C9 - H6         CT - HC    
     9     21   1 ;    1.0969e-01    2.8804e+05 ;     C9 - H7         CT - HC    
     9     22   1 ;    1.0969e-01    2.8804e+05 ;     C9 - H8         CT - HC    
    11     23   1 ;    9.7250e-02    4.4811e+05 ;     O2 - H9         OH - HO    

[ pairs ]
;   ai     aj    funct
     1      5      1 ;     C1 - C5    
     1      8      1 ;     C1 - C8    
     1     10      1 ;     C1 - O1    
     1     11      1 ;     C1 - O2    
     1     14      1 ;     C1 - CL1   
     1     16      1 ;     C1 - H2    
     2      4      1 ;     C2 - C4    
     2     12      1 ;     C2 - O3    
     2     13      1 ;     C2 - O4    
     3      6      1 ;     C3 - C6    
     3      7      1 ;     C3 - C7    
     3     13      1 ;     C3 - O4    
     3     17      1 ;     C3 - H3    
     3     18      1 ;     C3 - H4    
     3     19      1 ;     C3 - H5    
     3     23      1 ;     C3 - H9    
     4      8      1 ;     C4 - C8    
     4      9      1 ;     C4 - C9    
     4     14      1 ;     C4 - CL1   
     5      7      1 ;     C5 - C7    
     5     12      1 ;     C5 - O3    
     5     20      1 ;     C5 - H6    
     5     21      1 ;     C5 - H7    
     5     22      1 ;     C5 - H8    
     5     23      1 ;     C5 - H9    
     6      9      1 ;     C6 - C9    
     6     10      1 ;     C6 - O1    
     6     11      1 ;     C6 - O2    
     6     16      1 ;     C6 - H2    
     7     14      1 ;     C7 - CL1   
    11     12      1 ;     O2 - O3    
    11     13      1 ;     O2 - O4    
    13     14      1 ;     O4 - CL1   
    15      4      1 ;     H1 - C4    
    15      6      1 ;     H1 - C6    
    15      7      1 ;     H1 - C7    
    15     12      1 ;     H1 - O3    

[ angles ]
;   ai     aj     ak    funct   theta         cth
     1      2      6      1 ;    1.2002e+02    5.3279e+02 ;     C1 - C2   - C6       CA -   CA - CA  
     1      2      7      1 ;    1.2033e+02    5.1413e+02 ;     C1 - C2   - C7       CA -   CA - C   
     1      3      4      1 ;    1.2002e+02    5.3279e+02 ;     C1 - C3   - C4       CA -   CA - CA  
     1      3     12      1 ;    1.1911e+02    6.6107e+02 ;     C1 - C3   - O3       CA -   CA - x   
     2      1      3      1 ;    1.2002e+02    5.3279e+02 ;     C2 - C1   - C3       CA -   CA - CA  
     2      1     15      1 ;    1.1988e+02    3.7572e+02 ;     C2 - C1   - H1       CA -   CA - HA  
     2      6      5      1 ;    1.2002e+02    5.3279e+02 ;     C2 - C6   - C5       CA -   CA - CA  
     2      6     14      1 ;    1.1938e+02    5.3605e+02 ;     C2 - C6   - CL1      CA -   CA - x   
     2      7     10      1 ;    1.2260e+02    6.5237e+02 ;     C2 - C7   - O1       CA -    C - O   
     2      7     16      1 ;    1.1514e+02    3.6208e+02 ;     C2 - C7   - H2       CA -    C - HA  
     3      1     15      1 ;    1.1988e+02    3.7572e+02 ;     C3 - C1   - H1       CA -   CA - HA  
     3      4      5      1 ;    1.2002e+02    5.3279e+02 ;     C3 - C4   - C5       CA -   CA - CA  
     3      4     11      1 ;    1.1990e+02    6.5990e+02 ;     C3 - C4   - O2       CA -   CA - OH  
     3     12      8      1 ;    1.1839e+02    7.3856e+02 ;     C3 - O3   - C8       CA -    x - CT  
     4      3     12      1 ;    1.1911e+02    6.6107e+02 ;     C4 - C3   - O3       CA -   CA - x   
     4      5      6      1 ;    1.2002e+02    5.3279e+02 ;     C4 - C5   - C6       CA -   CA - CA  
     4      5     13      1 ;    1.1911e+02    6.6107e+02 ;     C4 - C5   - O4       CA -   CA - x   
     4     11     23      1 ;    1.0858e+02    5.6409e+02 ;     C4 - O2   - H9       CA -   OH - HO  
     5      4     11      1 ;    1.1990e+02    6.5990e+02 ;     C5 - C4   - O2       CA -   CA - OH  
     5      6     14      1 ;    1.1938e+02    5.3605e+02 ;     C5 - C6   - CL1      CA -   CA - x   
     5     13      9      1 ;    1.1839e+02    7.3856e+02 ;     C5 - O4   - C9       CA -    x - CT  
     6      2      7      1 ;    1.2033e+02    5.1413e+02 ;     C6 - C2   - C7       CA -   CA - C   
     6      5     13      1 ;    1.1911e+02    6.6107e+02 ;     C6 - C5   - O4       CA -   CA - x   
    10      7     16      1 ;    1.2062e+02    5.0191e+02 ;     O1 - C7   - H2        O -    C - HA  
    12      8     17      1 ;    1.1034e+02    4.7028e+02 ;     O3 - C8   - H3        x -   CT - HC  
    12      8     18      1 ;    1.1034e+02    4.7028e+02 ;     O3 - C8   - H4        x -   CT - HC  
    12      8     19      1 ;    1.1034e+02    4.7028e+02 ;     O3 - C8   - H5        x -   CT - HC  
    13      9     20      1 ;    1.1034e+02    4.7028e+02 ;     O4 - C9   - H6        x -   CT - HC  
    13      9     21      1 ;    1.1034e+02    4.7028e+02 ;     O4 - C9   - H7        x -   CT - HC  
    13      9     22      1 ;    1.1034e+02    4.7028e+02 ;     O4 - C9   - H8        x -   CT - HC  
    17      8     18      1 ;    1.0855e+02    2.9824e+02 ;     H3 - C8   - H4       HC -   CT - HC  
    17      8     19      1 ;    1.0855e+02    2.9824e+02 ;     H3 - C8   - H5       HC -   CT - HC  
    18      8     19      1 ;    1.0855e+02    2.9824e+02 ;     H4 - C8   - H5       HC -   CT - HC  
    20      9     21      1 ;    1.0855e+02    2.9824e+02 ;     H6 - C9   - H7       HC -   CT - HC  
    20      9     22      1 ;    1.0855e+02    2.9824e+02 ;     H6 - C9   - H8       HC -   CT - HC  
    21      9     22      1 ;    1.0855e+02    2.9824e+02 ;     H7 - C9   - H8       HC -   CT - HC  

[ dihedrals ] ; propers
; for gromacs 4.5 or higher, using funct 9
;    i      j      k      l   func   phase     kd      pn
     1      2      6      5      9 ;   180.00  15.16700   2 ;     C1-    C2-    C6-    C5
     1      2      6     14      9 ;   180.00  15.16700   2 ;     C1-    C2-    C6-   CL1
     1      2      7     10      9 ;   180.00   2.42672   2 ;     C1-    C2-    C7-    O1
     1      2      7     16      9 ;   180.00   4.18400   2 ;     C1-    C2-    C7-    H2
     1      3      4      5      9 ;   180.00  15.16700   2 ;     C1-    C3-    C4-    C5
     1      3      4     11      9 ;   180.00  15.16700   2 ;     C1-    C3-    C4-    O2
     1      3     12      8      9 ;   180.00   6.94544   2 ;     C1-    C3-    O3-    C8
     2      1      3      4      9 ;   180.00  15.16700   2 ;     C2-    C1-    C3-    C4
     2      1      3     12      9 ;   180.00  15.16700   2 ;     C2-    C1-    C3-    O3
     2      6      5      4      9 ;   180.00  15.16700   2 ;     C2-    C6-    C5-    C4
     2      6      5     13      9 ;   180.00  15.16700   2 ;     C2-    C6-    C5-    O4
     3      1      2      6      9 ;   180.00  15.16700   2 ;     C3-    C1-    C2-    C6
     3      1      2      7      9 ;   180.00  15.16700   2 ;     C3-    C1-    C2-    C7
     3      4      5      6      9 ;   180.00  15.16700   2 ;     C3-    C4-    C5-    C6
     3      4      5     13      9 ;   180.00  15.16700   2 ;     C3-    C4-    C5-    O4
     3      4     11     23      9 ;   180.00   3.57732   2 ;     C3-    C4-    O2-    H9
     3     12      8     17      9 ;     0.00   1.60387   3 ;     C3-    O3-    C8-    H3
     3     12      8     18      9 ;     0.00   1.60387   3 ;     C3-    O3-    C8-    H4
     3     12      8     19      9 ;     0.00   1.60387   3 ;     C3-    O3-    C8-    H5
     4      3     12      8      9 ;   180.00   6.94544   2 ;     C4-    C3-    O3-    C8
     4      5      6     14      9 ;   180.00  15.16700   2 ;     C4-    C5-    C6-   CL1
     4      5     13      9      9 ;   180.00   6.94544   2 ;     C4-    C5-    O4-    C9
     5      4      3     12      9 ;   180.00  15.16700   2 ;     C5-    C4-    C3-    O3
     5      4     11     23      9 ;   180.00   3.57732   2 ;     C5-    C4-    O2-    H9
     5      6      2      7      9 ;   180.00  15.16700   2 ;     C5-    C6-    C2-    C7
     5     13      9     20      9 ;     0.00   1.60387   3 ;     C5-    O4-    C9-    H6
     5     13      9     21      9 ;     0.00   1.60387   3 ;     C5-    O4-    C9-    H7
     5     13      9     22      9 ;     0.00   1.60387   3 ;     C5-    O4-    C9-    H8
     6      2      7     10      9 ;   180.00   2.42672   2 ;     C6-    C2-    C7-    O1
     6      2      7     16      9 ;   180.00   4.18400   2 ;     C6-    C2-    C7-    H2
     6      5      4     11      9 ;   180.00  15.16700   2 ;     C6-    C5-    C4-    O2
     6      5     13      9      9 ;   180.00   6.94544   2 ;     C6-    C5-    O4-    C9
     7      2      6     14      9 ;   180.00  15.16700   2 ;     C7-    C2-    C6-   CL1
    11      4      3     12      9 ;   180.00  15.16700   2 ;     O2-    C4-    C3-    O3
    11      4      5     13      9 ;   180.00  15.16700   2 ;     O2-    C4-    C5-    O4
    13      5      6     14      9 ;   180.00  15.16700   2 ;     O4-    C5-    C6-   CL1
    15      1      2      6      9 ;   180.00  15.16700   2 ;     H1-    C1-    C2-    C6
    15      1      2      7      9 ;   180.00  15.16700   2 ;     H1-    C1-    C2-    C7
    15      1      3      4      9 ;   180.00  15.16700   2 ;     H1-    C1-    C3-    C4
    15      1      3     12      9 ;   180.00  15.16700   2 ;     H1-    C1-    C3-    O3

[ dihedrals ] ; impropers
; treated as propers in GROMACS to use correct AMBER analytical function
;    i      j      k      l   func   phase     kd      pn
     1      4      3     12      4 ;   180.00   4.60240   2 ;     C1-    C4-    C3-    O3
     2      5      6     14      4 ;   180.00   4.60240   2 ;     C2-    C5-    C6-   CL1
     2     16      7     10      4 ;   180.00  43.93200   2 ;     C2-    H2-    C7-    O1
     3      5      4     11      4 ;   180.00   4.60240   2 ;     C3-    C5-    C4-    O2
     4      6      5     13      4 ;   180.00   4.60240   2 ;     C4-    C6-    C5-    O4
     7      1      2      6      4 ;   180.00   4.60240   2 ;     C7-    C1-    C2-    C6
    15      1      3      2      4 ;   180.00   4.60240   2 ;     H1-    C1-    C3-    C2
