SAMPL4_011
    23
   2.8440000  -1.7000000   3.2480000   1.6480000  -0.9850000   3.2960000
   3.4250000  -2.0050000   2.0170000   2.8100000  -1.5940000   0.8350000
   1.6130000  -0.8790000   0.8830000   1.0320000  -0.5750000   2.1140000
   1.0810000  -0.6920000   4.6080000   5.1570000  -3.0850000   3.2370000
   0.0950000  -1.3890000  -0.8750000   0.7560000  -1.5700000   5.4090000
   3.3800000  -1.8930000  -0.3680000   4.5940000  -2.7040000   1.9840000
   1.0260000  -0.4860000  -0.2840000  -0.4540000   0.3140000   2.1630000
   3.3290000  -2.0230000   4.1660000   0.9450000   0.3770000   4.8740000
   6.0860000  -3.6360000   3.0680000   4.4450000  -3.7100000   3.7820000
   5.3700000  -2.1860000   3.8200000  -0.2990000  -0.9560000  -1.7980000
  -0.7210000  -1.5840000  -0.1740000   0.6070000  -2.3270000  -1.1050000
   4.2010000  -2.3900000  -0.2330000
