mobley_1563176_GMX.gro created by acpype (v: 2023.10.27) on Wed May 20 23:44:24 2026
   15
    1MOL     C1    1   2.353   2.457   2.432
    1MOL     C2    2   2.353   2.325   2.357
    1MOL     C3    3   2.230   2.313   2.266
    1MOL     C4    4   2.219   2.178   2.195
    1MOL     S1    5   2.359   2.144   2.084
    1MOL     H1    6   2.441   2.464   2.497
    1MOL     H2    7   2.264   2.466   2.495
    1MOL     H3    8   2.355   2.542   2.363
    1MOL     H4    9   2.354   2.243   2.429
    1MOL     H5   10   2.445   2.318   2.298
    1MOL     H6   11   2.229   2.394   2.193
    1MOL     H7   12   2.140   2.326   2.327
    1MOL     H8   13   2.213   2.096   2.269
    1MOL     H9   14   2.128   2.175   2.135
    1MOL    H10   15   2.377   2.017   2.121
   4.59519   4.59519   4.59519
