mobley_3425174_GMX.gro created by acpype (v: 2023.10.27) on Wed May 20 23:53:41 2026
    5
    1MOL     C1    1   2.140   2.128   2.122
    1MOL     F1    2   2.061   2.138   2.011
    1MOL    CL1    3   2.040   2.136   2.267
    1MOL     H1    4   2.211   2.210   2.122
    1MOL     H2    5   2.192   2.032   2.119
   4.25687   4.25687   4.25687
