mobley_7893124_GMX.gro created by acpype (v: 2023.10.27) on Wed May 20 23:44:10 2026
 24
    1  MOL   C1    1  -0.214  -0.277   0.357
    1  MOL   C2    2  -0.098  -0.202   0.337
    1  MOL   C3    3  -0.328  -0.251   0.281
    1  MOL   C4    4  -0.097  -0.101   0.241
    1  MOL   C5    5  -0.327  -0.150   0.185
    1  MOL   C6    6  -0.211  -0.078   0.168
    1  MOL   C7    7  -0.101   0.003  -0.043
    1  MOL   C8    8  -0.178   0.168   0.130
    1  MOL   C9    9  -0.343   0.050  -0.013
    1  MOL  C10   10  -0.209   0.033   0.062
    1  MOL   H1   11  -0.215  -0.356   0.432
    1  MOL   H2   12  -0.009  -0.222   0.396
    1  MOL   H3   13  -0.418  -0.310   0.297
    1  MOL   H4   14  -0.006  -0.043   0.226
    1  MOL   H5   15  -0.416  -0.131   0.127
    1  MOL   H6   16  -0.100   0.079  -0.122
    1  MOL   H7   17   0.000   0.000   0.000
    1  MOL   H8   18  -0.118  -0.095  -0.091
    1  MOL   H9   19  -0.079   0.169   0.176
    1  MOL  H10   20  -0.179   0.250   0.057
    1  MOL  H11   21  -0.251   0.192   0.207
    1  MOL  H12   22  -0.337   0.130  -0.088
    1  MOL  H13   23  -0.370  -0.042  -0.067
    1  MOL  H14   24  -0.425   0.075   0.055
    8.49600    12.12000    11.08600
