tert_butylbenzene
    24
  -2.1380000  -2.7710000   3.5730000  -0.9810000  -2.0190000   3.3700000
  -3.2800000  -2.5130000   2.8140000  -0.9660000  -1.0090000   2.4080000
  -3.2650000  -1.5020000   1.8530000  -2.1080000  -0.7840000   1.6810000
  -1.0060000   0.0250000  -0.4340000  -1.7780000   1.6830000   1.2950000
  -3.4290000   0.4950000  -0.1340000  -2.0900000   0.3300000   0.6220000
  -2.1510000  -3.5580000   4.3220000  -0.0920000  -2.2210000   3.9610000
  -4.1810000  -3.0980000   2.9730000  -0.0590000  -0.4280000   2.2570000
  -4.1590000  -1.3080000   1.2660000  -0.9950000   0.7880000  -1.2210000
   0.0000000   0.0000000   0.0000000  -1.1820000  -0.9450000  -0.9120000
  -0.7880000   1.6940000   1.7650000  -1.7940000   2.5020000   0.5660000
  -2.5140000   1.9160000   2.0740000  -3.3660000   1.2990000  -0.8770000
  -3.7040000  -0.4190000  -0.6720000  -4.2480000   0.7500000   0.5480000
