mobley_525934_GMX.gro created by acpype (v: 2023.10.27) on Thu May 21 00:04:43 2026
    6
    1MOL    H11    1   2.018   2.185   2.153
    1MOL     C1    2   2.121   2.155   2.143
    1MOL    H12    3   2.133   2.045   2.166
    1MOL    H13    4   2.161   2.172   2.041
    1MOL     S1    5   2.221   2.250   2.261
    1MOL     H1    6   2.340   2.190   2.232
   4.33159   4.33159   4.33159
