mobley_525934_GMX.gro created by acpype (v: 2023.10.27) on Thu May 21 00:04:43 2026
 7941
    1MOL    H11    1   2.018   2.185   2.153
    1MOL     C1    2   2.121   2.155   2.143
    1MOL    H12    3   2.133   2.045   2.166
    1MOL    H13    4   2.161   2.172   2.041
    1MOL     S1    5   2.221   2.250   2.261
    1MOL     H1    6   2.340   2.190   2.232
    2SOL     OW    7   0.230   0.628   0.113
    2SOL    HW1    8   0.137   0.626   0.150
    2SOL    HW2    9   0.231   0.589   0.021
    3SOL     OW   10   0.225   0.275   0.996
    3SOL    HW1   11   0.260   0.258   1.088
    3SOL    HW2   12   0.137   0.230   0.984
    4SOL     OW   13   0.019   0.368   0.647
    4SOL    HW1   14  -0.063   0.411   0.686
    4SOL    HW2   15  -0.009   0.295   0.584
    5SOL     OW   16   0.569   1.275   1.165
    5SOL    HW1   17   0.476   1.268   1.128
    5SOL    HW2   18   0.580   1.364   1.209
    6SOL     OW   19   1.555   1.511   0.703
    6SOL    HW1   20   1.498   1.495   0.784
    6SOL    HW2   21   1.496   1.521   0.623
    7SOL     OW   22   1.135   0.703   0.717
    7SOL    HW1   23   1.192   0.781   0.692
    7SOL    HW2   24   1.075   0.729   0.793
    8SOL     OW   25   1.755   0.607   0.231
    8SOL    HW1   26   1.743   0.594   0.132
    8SOL    HW2   27   1.725   0.526   0.280
    9SOL     OW   28   0.768   1.144   1.023
    9SOL    HW1   29   0.690   1.161   1.083
    9SOL    HW2   30   0.802   1.231   0.987
   10SOL     OW   31   0.850   0.798   1.823
   10SOL    HW1   32   0.846   0.874   1.888
   10SOL    HW2   33   0.872   0.834   1.732
   11SOL     OW   34   0.685   1.012   0.665
   11SOL    HW1   35   0.754   0.996   0.735
   11SOL    HW2   36   0.612   1.069   0.703
   12SOL     OW   37   0.686   1.161   1.803
   12SOL    HW1   38   0.746   1.240   1.817
   12SOL    HW2   39   0.600   1.192   1.762
   13SOL     OW   40   0.335   1.435   1.061
   13SOL    HW1   41   0.257   1.404   1.008
   13SOL    HW2   42   0.393   1.493   1.004
   14SOL     OW   43   1.460   1.505   1.339
   14SOL    HW1   44   1.484   1.599   1.365
   14SOL    HW2   45   1.444   1.451   1.421
   15SOL     OW   46   0.438   0.392   1.499
   15SOL    HW1   47   0.520   0.336   1.508
   15SOL    HW2   48   0.357   0.334   1.503
   16SOL     OW   49   1.603   0.447   0.737
   16SOL    HW1   50   1.529   0.493   0.687
   16SOL    HW2   51   1.654   0.515   0.790
   17SOL     OW   52   0.231   1.713   0.483
   17SOL    HW1   53   0.265   1.790   0.537
   17SOL    HW2   54   0.275   1.713   0.393
   18SOL     OW   55   1.127   1.341   1.690
   18SOL    HW1   56   1.174   1.341   1.778
   18SOL    HW2   57   1.079   1.254   1.679
   19SOL     OW   58   0.230   1.434   0.538
   19SOL    HW1   59   0.204   1.530   0.538
   19SOL    HW2   60   0.159   1.380   0.583
   20SOL     OW   61   0.240   1.091   0.886
   20SOL    HW1   62   0.254   1.007   0.938
   20SOL    HW2   63   0.185   1.155   0.941
   21SOL     OW   64   0.620   1.786   1.439
   21SOL    HW1   65   0.528   1.769   1.474
   21SOL    HW2   66   0.648   1.878   1.465
   22SOL     OW   67   0.606   0.964   0.123
   22SOL    HW1   68   0.613   1.048   0.069
   22SOL    HW2   69   0.652   0.977   0.211
   23SOL     OW   70   1.594   0.114   1.480
   23SOL    HW1   71   1.576   0.181   1.408
   23SOL    HW2   72   1.591   0.160   1.569
   24SOL     OW   73   0.122   0.643   0.563
   24SOL    HW1   74   0.077   0.555   0.580
   24SOL    HW2   75   0.121   0.697   0.647
   25SOL     OW   76   1.842   1.767   0.359
   25SOL    HW1   77   1.896   1.738   0.439
   25SOL    HW2   78   1.872   1.857   0.330
   26SOL     OW   79   0.027   1.596   0.117
   26SOL    HW1   80   0.008   1.500   0.138
   26SOL    HW2   81  -0.006   1.654   0.192
   27SOL     OW   82   1.689   0.922   0.612
   27SOL    HW1   83   1.784   0.893   0.620
   27SOL    HW2   84   1.681   0.987   0.537
   28SOL     OW   85   1.641   1.108   0.432
   28SOL    HW1   86   1.727   1.110   0.380
   28SOL    HW2   87   1.655   1.155   0.520
   29SOL     OW   88   0.113   0.737   1.597
   29SOL    HW1   89   0.201   0.724   1.642
   29SOL    HW2   90   0.100   0.834   1.575
   30SOL     OW   91   0.613   1.365   0.726
   30SOL    HW1   92   0.564   1.278   0.735
   30SOL    HW2   93   0.590   1.408   0.639
   31SOL     OW   94   1.293   1.228   1.423
   31SOL    HW1   95   1.330   1.155   1.365
   31SOL    HW2   96   1.345   1.233   1.508
   32SOL     OW   97   0.809   0.004   0.502
   32SOL    HW1   98   0.849   0.095   0.493
   32SOL    HW2   99   0.709   0.012   0.508
   33SOL     OW  100   0.197   0.976   1.264
   33SOL    HW1  101   0.286   0.931   1.250
   33SOL    HW2  102   0.124   0.911   1.245
   34SOL     OW  103   1.525   0.999   0.190
   34SOL    HW1  104   1.462   0.923   0.203
   34SOL    HW2  105   1.573   1.017   0.276
   35SOL     OW  106   1.187   1.792   1.616
   35SOL    HW1  107   1.211   1.852   1.540
   35SOL    HW2  108   1.194   1.697   1.586
   36SOL     OW  109   0.317   0.251   1.801
   36SOL    HW1  110   0.388   0.322   1.807
   36SOL    HW2  111   0.229   0.290   1.829
   37SOL     OW  112   1.466   1.417   0.953
   37SOL    HW1  113   1.407   1.423   1.033
   37SOL    HW2  114   1.451   1.329   0.907
   38SOL     OW  115   1.667   1.714   0.572
   38SOL    HW1  116   1.626   1.691   0.484
   38SOL    HW2  117   1.649   1.640   0.637
   39SOL     OW  118   0.598   0.729   0.270
   39SOL    HW1  119   0.622   0.798   0.202
   39SOL    HW2  120   0.520   0.762   0.324
   40SOL     OW  121   1.281   0.345   0.944
   40SOL    HW1  122   1.195   0.295   0.931
   40SOL    HW2  123   1.343   0.291   1.000
   41SOL     OW  124   1.576   1.662   0.307
   41SOL    HW1  125   1.665   1.708   0.310
   41SOL    HW2  126   1.555   1.638   0.212
   42SOL     OW  127   0.807   0.605   1.465
   42SOL    HW1  128   0.760   0.602   1.554
   42SOL    HW2  129   0.756   0.550   1.399
   43SOL     OW  130   1.394   0.469   1.674
   43SOL    HW1  131   1.374   0.512   1.762
   43SOL    HW2  132   1.472   0.407   1.683
   44SOL     OW  133   0.973   0.890   1.572
   44SOL    HW1  134   1.019   0.806   1.543
   44SOL    HW2  135   0.917   0.924   1.497
   45SOL     OW  136   0.991   0.410   1.242
   45SOL    HW1  137   0.914   0.444   1.296
   45SOL    HW2  138   0.957   0.359   1.163
   46SOL     OW  139   1.041   0.701   0.429
   46SOL    HW1  140   1.067   0.697   0.525
   46SOL    HW2  141   0.956   0.650   0.415
   47SOL     OW  142   0.076   0.811   0.789
   47SOL    HW1  143   0.175   0.799   0.798
   47SOL    HW2  144   0.052   0.906   0.810
   48SOL     OW  145   0.130   1.821   1.571
   48SOL    HW1  146   0.120   1.806   1.670
   48SOL    HW2  147   0.044   1.857   1.535
   49SOL     OW  148   0.865   0.348   0.195
   49SOL    HW1  149   0.924   0.411   0.146
   49SOL    HW2  150   0.884   0.254   0.166
   50SOL     OW  151   1.719   0.585   1.831
   50SOL    HW1  152   1.693   0.674   1.795
   50SOL    HW2  153   1.717   0.517   1.758
   51SOL     OW  154   1.362   1.144   0.545
   51SOL    HW1  155   1.445   1.115   0.497
   51SOL    HW2  156   1.313   1.211   0.489
   52SOL     OW  157   0.550   0.196   0.885
   52SOL    HW1  158   0.545   0.191   0.985
   52SOL    HW2  159   0.552   0.292   0.856
   53SOL     OW  160   1.008   1.456   0.477
   53SOL    HW1  161   0.962   1.528   0.425
   53SOL    HW2  162   1.004   1.476   0.575
   54SOL     OW  163   0.351   1.801   0.853
   54SOL    HW1  164   0.401   1.715   0.859
   54SOL    HW2  165   0.416   1.878   0.850
   55SOL     OW  166   1.795   1.066   0.873
   55SOL    HW1  167   1.733   1.051   0.797
   55SOL    HW2  168   1.743   1.077   0.958
   56SOL     OW  169   1.227   1.550   1.506
   56SOL    HW1  170   1.233   1.473   1.570
   56SOL    HW2  171   1.175   1.524   1.426
   57SOL     OW  172   0.321   0.943   0.242
   57SOL    HW1  173   0.403   0.982   0.200
   57SOL    HW2  174   0.294   0.861   0.193
   58SOL     OW  175   1.458   0.735   0.728
   58SOL    HW1  176   1.453   0.670   0.803
   58SOL    HW2  177   1.538   0.794   0.741
   59SOL     OW  178   0.461   1.266   1.727
   59SOL    HW1  179   0.411   1.267   1.641
   59SOL    HW2  180   0.398   1.248   1.803
   60SOL     OW  181   1.111   1.776   0.237
   60SOL    HW1  182   1.051   1.714   0.287
   60SOL    HW2  183   1.142   1.732   0.152
   61SOL     OW  184   0.202   0.285   1.498
   61SOL    HW1  185   0.122   0.345   1.485
   61SOL    HW2  186   0.192   0.236   1.584
   62SOL     OW  187   1.632   1.377   0.081
   62SOL    HW1  188   1.600   1.471   0.071
   62SOL    HW2  189   1.556   1.314   0.069
   63SOL     OW  190   0.464   1.743   0.323
   63SOL    HW1  191   0.497   1.782   0.409
   63SOL    HW2  192   0.540   1.736   0.258
   64SOL     OW  193   1.400   0.107   0.426
   64SOL    HW1  194   1.376   0.070   0.336
   64SOL    HW2  195   1.499   0.123   0.430
   65SOL     OW  196   0.249   1.785   1.241
   65SOL    HW1  197   0.306   1.720   1.291
   65SOL    HW2  198   0.233   1.752   1.148
   66SOL     OW  199   0.940   1.698   0.904
   66SOL    HW1  200   1.020   1.641   0.925
   66SOL    HW2  201   0.891   1.658   0.827
   67SOL     OW  202   0.382   0.700   0.480
   67SOL    HW1  203   0.427   0.610   0.477
   67SOL    HW2  204   0.288   0.689   0.513
   68SOL     OW  205   1.547   0.222   1.729
   68SOL    HW1  206   1.542   0.259   1.821
   68SOL    HW2  207   1.475   0.153   1.717
   69SOL     OW  208   0.614   0.122   0.117
   69SOL    HW1  209   0.712   0.100   0.124
   69SOL    HW2  210   0.583   0.105   0.024
   70SOL     OW  211   0.781   0.264   1.749
   70SOL    HW1  212   0.848   0.203   1.792
   70SOL    HW2  213   0.708   0.283   1.814
   71SOL     OW  214   0.888   1.514   1.195
   71SOL    HW1  215   0.865   1.489   1.101
   71SOL    HW2  216   0.949   1.445   1.234
   72SOL     OW  217   1.351   0.590   1.433
   72SOL    HW1  218   1.379   0.547   1.518
   72SOL    HW2  219   1.376   0.686   1.434
   73SOL     OW  220   0.803   1.402   0.924
   73SOL    HW1  221   0.893   1.416   0.882
   73SOL    HW2  222   0.732   1.404   0.853
   74SOL     OW  223   0.922   0.503   0.899
   74SOL    HW1  224   0.897   0.494   0.803
   74SOL    HW2  225   0.970   0.421   0.930
   75SOL     OW  226   0.539   0.064   0.512
   75SOL    HW1  227   0.458   0.065   0.570
   75SOL    HW2  228   0.542   0.147   0.457
   76SOL     OW  229   1.434   1.188   0.041
   76SOL    HW1  230   1.466   1.112   0.098
   76SOL    HW2  231   1.342   1.215   0.071
   77SOL     OW  232   0.297   0.035   0.171
   77SOL    HW1  233   0.346   0.119   0.150
   77SOL    HW2  234   0.359  -0.030   0.216
   78SOL     OW  235   0.935   0.236   0.480
   78SOL    HW1  236   0.887   0.277   0.402
   78SOL    HW2  237   1.034   0.234   0.461
   79SOL     OW  238   1.076   0.683   1.464
   79SOL    HW1  239   0.996   0.622   1.467
   79SOL    HW2  240   1.157   0.630   1.440
   80SOL     OW  241   1.227   1.570   0.793
   80SOL    HW1  242   1.248   1.644   0.728
   80SOL    HW2  243   1.295   1.570   0.866
   81SOL     OW  244   0.459   1.152   0.741
   81SOL    HW1  245   0.388   1.125   0.806
   81SOL    HW2  246   0.433   1.124   0.648
   82SOL     OW  247   1.271   1.797   0.591
   82SOL    HW1  248   1.315   1.861   0.527
   82SOL    HW2  249   1.221   1.849   0.661
   83SOL     OW  250   1.032   0.549   0.016
   83SOL    HW1  251   0.991   0.631  -0.023
   83SOL    HW2  252   1.096   0.575   0.089
   84SOL     OW  253   0.078   0.556   1.386
   84SOL    HW1  254   0.170   0.555   1.345
   84SOL    HW2  255   0.072   0.630   1.453
   85SOL     OW  256   0.561   0.222   1.147
   85SOL    HW1  257   0.599   0.138   1.184
   85SOL    HW2  258   0.473   0.241   1.191
   86SOL     OW  259   0.866   0.454   0.642
   86SOL    HW1  260   0.834   0.526   0.580
   86SOL    HW2  261   0.890   0.373   0.589
   87SOL     OW  262   1.017   0.039   0.753
   87SOL    HW1  263   0.945   0.044   0.684
   87SOL    HW2  264   0.993  -0.030   0.822
   88SOL     OW  265   1.429   1.173   0.867
   88SOL    HW1  266   1.374   1.089   0.860
   88SOL    HW2  267   1.455   1.202   0.775
   89SOL     OW  268   1.466   0.590   0.992
   89SOL    HW1  269   1.436   0.495   0.999
   89SOL    HW2  270   1.539   0.606   1.058
   90SOL     OW  271   1.857   0.833   0.377
   90SOL    HW1  272   1.899   0.769   0.441
   90SOL    HW2  273   1.819   0.782   0.299
   91SOL     OW  274   0.488   1.385   0.174
   91SOL    HW1  275   0.401   1.370   0.221
   91SOL    HW2  276   0.471   1.411   0.079
   92SOL     OW  277   1.664   1.280   0.657
   92SOL    HW1  278   1.763   1.288   0.671
   92SOL    HW2  279   1.619   1.364   0.688
   93SOL     OW  280   1.390   0.575   0.078
   93SOL    HW1  281   1.336   0.554   0.159
   93SOL    HW2  282   1.481   0.534   0.087
   94SOL     OW  283   0.527   0.256   0.328
   94SOL    HW1  284   0.554   0.197   0.253
   94SOL    HW2  285   0.527   0.351   0.297
   95SOL     OW  286   1.754   1.223   1.588
   95SOL    HW1  287   1.845   1.184   1.575
   95SOL    HW2  288   1.762   1.319   1.612
   96SOL     OW  289   1.064   1.347   1.340
   96SOL    HW1  290   0.984   1.324   1.395
   96SOL    HW2  291   1.147   1.321   1.389
   97SOL     OW  292   1.592   1.629   1.625
   97SOL    HW1  293   1.619   1.663   1.535
   97SOL    HW2  294   1.671   1.591   1.671
   98SOL     OW  295   1.111   1.195   1.100
   98SOL    HW1  296   1.071   1.239   1.181
   98SOL    HW2  297   1.070   1.232   1.017
   99SOL     OW  298   1.638   1.099   1.079
   99SOL    HW1  299   1.643   1.180   1.138
   99SOL    HW2  300   1.552   1.101   1.028
  100SOL     OW  301   0.915   0.089   1.402
  100SOL    HW1  302   0.940   0.069   1.307
  100SOL    HW2  303   0.987   0.145   1.444
  101SOL     OW  304   0.980   1.116   1.719
  101SOL    HW1  305   0.881   1.122   1.729
  101SOL    HW2  306   1.003   1.036   1.663
  102SOL     OW  307   0.705   1.050   0.368
  102SOL    HW1  308   0.691   1.057   0.467
  102SOL    HW2  309   0.789   0.999   0.350
  103SOL     OW  310   0.410   0.813   1.251
  103SOL    HW1  311   0.496   0.825   1.301
  103SOL    HW2  312   0.368   0.726   1.278
  104SOL     OW  313   1.274   0.386   1.262
  104SOL    HW1  314   1.295   0.460   1.326
  104SOL    HW2  315   1.185   0.403   1.219
  105SOL     OW  316   0.064   1.564   1.331
  105SOL    HW1  317   0.018   1.646   1.297
  105SOL    HW2  318   0.162   1.583   1.340
  106SOL     OW  319   0.367   1.100   0.501
  106SOL    HW1  320   0.360   1.183   0.445
  106SOL    HW2  321   0.371   1.020   0.441
  107SOL     OW  322   0.566   0.537   0.865
  107SOL    HW1  323   0.578   0.603   0.791
  107SOL    HW2  324   0.612   0.571   0.948
  108SOL     OW  325   1.252   1.348   0.388
  108SOL    HW1  326   1.302   1.425   0.428
  108SOL    HW2  327   1.157   1.350   0.420
  109SOL     OW  328   1.272   1.445   1.142
  109SOL    HW1  329   1.319   1.458   1.229
  109SOL    HW2  330   1.206   1.371   1.151
  110SOL     OW  331   1.582   0.639   0.472
  110SOL    HW1  332   1.551   0.700   0.545
  110SOL    HW2  333   1.632   0.691   0.403
  111SOL     OW  334   0.354   1.510   1.329
  111SOL    HW1  335   0.333   1.466   1.242
  111SOL    HW2  336   0.451   1.536   1.332
  112SOL     OW  337   0.402   0.751   1.598
  112SOL    HW1  338   0.470   0.806   1.551
  112SOL    HW2  339   0.442   0.663   1.625
  113SOL     OW  340   1.587   0.779   1.670
  113SOL    HW1  341   1.495   0.817   1.665
  113SOL    HW2  342   1.647   0.826   1.605
  114SOL     OW  343   1.013   0.105   1.770
  114SOL    HW1  344   1.019   0.190   1.718
  114SOL    HW2  345   1.045   0.029   1.713
  115SOL     OW  346   0.504   0.050   1.740
  115SOL    HW1  347   0.462  -0.007   1.670
  115SOL    HW2  348   0.438   0.119   1.772
  116SOL     OW  349   0.573   0.870   1.029
  116SOL    HW1  350   0.617   0.959   1.020
  116SOL    HW2  351   0.510   0.870   1.106
  117SOL     OW  352   1.360   0.862   1.045
  117SOL    HW1  353   1.285   0.862   0.979
  117SOL    HW2  354   1.397   0.770   1.054
  118SOL     OW  355   1.209   0.525   0.275
  118SOL    HW1  356   1.222   0.441   0.329
  118SOL    HW2  357   1.180   0.599   0.335
  119SOL     OW  358   0.307   0.213   1.231
  119SOL    HW1  359   0.284   0.250   1.321
  119SOL    HW2  360   0.277   0.118   1.225
  120SOL     OW  361   0.037   1.310   1.282
  120SOL    HW1  362   0.090   1.261   1.350
  120SOL    HW2  363   0.059   1.408   1.287
  121SOL     OW  364   0.732   0.634   1.064
  121SOL    HW1  365   0.791   0.608   0.988
  121SOL    HW2  366   0.704   0.730   1.053
  122SOL     OW  367   1.728   0.935   1.854
  122SOL    HW1  368   1.682   0.928   1.765
  122SOL    HW2  369   1.666   0.979   1.920
  123SOL     OW  370   0.307   0.063   0.618
  123SOL    HW1  371   0.296   0.157   0.651
  123SOL    HW2  372   0.302   0.000   0.695
  124SOL     OW  373   1.622   0.367   0.374
  124SOL    HW1  374   1.624   0.291   0.438
  124SOL    HW2  375   1.574   0.444   0.414
  125SOL     OW  376   1.023   0.766   0.966
  125SOL    HW1  377   1.038   0.787   1.062
  125SOL    HW2  378   0.993   0.671   0.957
  126SOL     OW  379   0.980   1.573   1.700
  126SOL    HW1  380   0.960   1.617   1.612
  126SOL    HW2  381   1.019   1.482   1.684
  127SOL     OW  382   1.859   1.518   1.605
  127SOL    HW1  383   1.873   1.545   1.510
  127SOL    HW2  384   1.942   1.540   1.658
  128SOL     OW  385   0.350   0.898   1.804
  128SOL    HW1  386   0.426   0.942   1.852
  128SOL    HW2  387   0.385   0.851   1.722
  129SOL     OW  388   1.540   0.274   0.125
  129SOL    HW1  389   1.479   0.199   0.148
  129SOL    HW2  390   1.562   0.326   0.208
  130SOL     OW  391   1.303   0.838   0.042
  130SOL    HW1  392   1.337   0.745   0.057
  130SOL    HW2  393   1.321   0.865  -0.053
  131SOL     OW  394   1.068   1.333   0.849
  131SOL    HW1  395   1.075   1.249   0.794
  131SOL    HW2  396   1.130   1.402   0.813
  132SOL     OW  397   0.319   0.810   0.949
  132SOL    HW1  398   0.412   0.846   0.954
  132SOL    HW2  399   0.313   0.725   1.001
  133SOL     OW  400   0.339   0.509   1.006
  133SOL    HW1  401   0.287   0.426   0.989
  133SOL    HW2  402   0.416   0.514   0.942
  134SOL     OW  403   1.138   0.380   1.678
  134SOL    HW1  404   1.093   0.443   1.742
  134SOL    HW2  405   1.231   0.411   1.661
  135SOL     OW  406   1.160   0.207   1.477
  135SOL    HW1  407   1.160   0.271   1.554
  135SOL    HW2  408   1.188   0.255   1.394
  136SOL     OW  409   0.008   1.326   0.200
  136SOL    HW1  410  -0.085   1.347   0.169
  136SOL    HW2  411   0.018   1.227   0.213
  137SOL     OW  412   0.088   1.801   0.927
  137SOL    HW1  413   0.046   1.715   0.900
  137SOL    HW2  414   0.182   1.804   0.893
  138SOL     OW  415   0.504   1.568   0.910
  138SOL    HW1  416   0.570   1.642   0.919
  138SOL    HW2  417   0.548   1.489   0.868
  139SOL     OW  418   1.002   0.796   1.238
  139SOL    HW1  419   1.043   0.764   1.324
  139SOL    HW2  420   0.906   0.769   1.235
  140SOL     OW  421   0.040   0.544   1.114
  140SOL    HW1  422   0.125   0.511   1.073
  140SOL    HW2  423   0.053   0.559   1.212
  141SOL     OW  424   0.189   0.520   1.722
  141SOL    HW1  425   0.248   0.480   1.652
  141SOL    HW2  426   0.131   0.591   1.681
  142SOL     OW  427   1.369   0.950   1.660
  142SOL    HW1  428   1.408   1.039   1.680
  142SOL    HW2  429   1.379   0.930   1.563
  143SOL     OW  430   0.815   0.572   0.325
  143SOL    HW1  431   0.822   0.483   0.279
  143SOL    HW2  432   0.721   0.606   0.317
  144SOL     OW  433   1.657   0.604   1.206
  144SOL    HW1  434   1.619   0.535   1.268
  144SOL    HW2  435   1.739   0.568   1.162
  145SOL     OW  436   0.252   1.564   1.744
  145SOL    HW1  437   0.222   1.621   1.820
  145SOL    HW2  438   0.245   1.467   1.770
  146SOL     OW  439   0.671   0.464   1.269
  146SOL    HW1  440   0.637   0.375   1.239
  146SOL    HW2  441   0.697   0.518   1.189
  147SOL     OW  442   0.930   1.678   1.465
  147SOL    HW1  443   0.906   1.660   1.370
  147SOL    HW2  444   0.960   1.772   1.475
  148SOL     OW  445   0.473   0.500   0.191
  148SOL    HW1  446   0.534   0.580   0.195
  148SOL    HW2  447   0.378   0.531   0.198
  149SOL     OW  448   0.159   1.137   1.466
  149SOL    HW1  449   0.181   1.076   1.542
  149SOL    HW2  450   0.169   1.088   1.380
  150SOL     OW  451   1.347   1.059   1.234
  150SOL    HW1  452   1.371   0.996   1.160
  150SOL    HW2  453   1.257   1.099   1.216
  151SOL     OW  454   1.302   0.855   0.309
  151SOL    HW1  455   1.216   0.824   0.351
  151SOL    HW2  456   1.298   0.841   0.210
  152SOL     OW  457   1.759   1.747   1.154
  152SOL    HW1  458   1.820   1.777   1.081
  152SOL    HW2  459   1.721   1.658   1.132
  153SOL     OW  460   1.252   1.731   1.128
  153SOL    HW1  461   1.336   1.736   1.074
  153SOL    HW2  462   1.229   1.635   1.146
  154SOL     OW  463   0.083   1.258   1.022
  154SOL    HW1  464   0.078   1.257   1.122
  154SOL    HW2  465   0.000   1.217   0.984
  155SOL     OW  466   0.688   1.662   1.716
  155SOL    HW1  467   0.632   1.743   1.725
  155SOL    HW2  468   0.740   1.666   1.630
  156SOL     OW  469   0.903   0.086   0.133
  156SOL    HW1  470   0.954   0.087   0.047
  156SOL    HW2  471   0.959   0.044   0.204
  157SOL     OW  472   1.726   0.135   0.523
  157SOL    HW1  473   1.799   0.118   0.456
  157SOL    HW2  474   1.695   0.048   0.561
  158SOL     OW  475   1.388   1.573   0.477
  158SOL    HW1  476   1.455   1.585   0.403
  158SOL    HW2  477   1.348   1.662   0.500
  159SOL     OW  478   0.130   1.794   1.851
  159SOL    HW1  479   0.089   1.720   1.904
  159SOL    HW2  480   0.194   1.845   1.909
  160SOL     OW  481   1.280   0.927   0.672
  160SOL    HW1  482   1.340   0.846   0.674
  160SOL    HW2  483   1.320   0.996   0.612
  161SOL     OW  484   0.830   1.273   1.422
  161SOL    HW1  485   0.825   1.306   1.517
  161SOL    HW2  486   0.744   1.292   1.376
  162SOL     OW  487   0.672   1.616   0.154
  162SOL    HW1  488   0.681   1.626   0.055
  162SOL    HW2  489   0.632   1.527   0.175
  163SOL     OW  490   1.650   1.720   1.394
  163SOL    HW1  491   1.703   1.730   1.310
  163SOL    HW2  492   1.623   1.810   1.428
  164SOL     OW  493   1.841   0.175   0.963
  164SOL    HW1  494   1.880   0.090   0.927
  164SOL    HW2  495   1.743   0.177   0.944
  165SOL     OW  496   0.263   0.326   0.720
  165SOL    HW1  497   0.184   0.377   0.686
  165SOL    HW2  498   0.254   0.311   0.818
  166SOL     OW  499   1.194   1.612   0.031
  166SOL    HW1  500   1.200   1.519   0.068
  166SOL    HW2  501   1.135   1.612  -0.049
  167SOL     OW  502   0.822   1.002   1.372
  167SOL    HW1  503   0.862   1.001   1.280
  167SOL    HW2  504   0.832   1.094   1.412
  168SOL     OW  505   0.916   0.910   0.291
  168SOL    HW1  506   0.979   0.948   0.223
  168SOL    HW2  507   0.956   0.827   0.330
  169SOL     OW  508   1.504   1.607   0.044
  169SOL    HW1  509   1.412   1.644   0.051
  169SOL    HW2  510   1.542   1.627  -0.046
  170SOL     OW  511   0.372   1.288   1.490
  170SOL    HW1  512   0.359   1.381   1.456
  170SOL    HW2  513   0.288   1.236   1.477
  171SOL     OW  514   1.614   1.292   1.289
  171SOL    HW1  515   1.674   1.295   1.369
  171SOL    HW2  516   1.539   1.356   1.302
  172SOL     OW  517   1.039   1.098   0.696
  172SOL    HW1  518   0.969   1.051   0.750
  172SOL    HW2  519   1.098   1.030   0.653
  173SOL     OW  520   1.014   0.236   0.971
  173SOL    HW1  521   1.006   0.200   0.878
  173SOL    HW2  522   1.012   0.160   1.036
  174SOL     OW  523   0.590   1.487   0.491
  174SOL    HW1  524   0.632   1.429   0.421
  174SOL    HW2  525   0.546   1.566   0.447
  175SOL     OW  526   1.709   0.385   1.381
  175SOL    HW1  527   1.782   0.454   1.385
  175SOL    HW2  528   1.737   0.310   1.322
  176SOL     OW  529   0.255   1.348   0.290
  176SOL    HW1  530   0.159   1.349   0.263
  176SOL    HW2  531   0.267   1.401   0.374
  177SOL     OW  532   0.105   1.013   1.726
  177SOL    HW1  533   0.028   0.980   1.780
  177SOL    HW2  534   0.190   0.983   1.768
  178SOL     OW  535   0.672   0.203   1.489
  178SOL    HW1  536   0.762   0.187   1.449
  178SOL    HW2  537   0.680   0.208   1.588
  179SOL     OW  538   0.075   0.345   0.033
  179SOL    HW1  539  -0.017   0.317   0.004
  179SOL    HW2  540   0.106   0.422  -0.023
  180SOL     OW  541   1.440   0.856   1.398
  180SOL    HW1  542   1.383   0.908   1.335
  180SOL    HW2  543   1.536   0.868   1.374
  181SOL     OW  544   0.072   0.166   0.318
  181SOL    HW1  545   0.055   0.249   0.264
  181SOL    HW2  546   0.162   0.129   0.296
  182SOL     OW  547   1.183   1.335   0.119
  182SOL    HW1  548   1.084   1.324   0.121
  182SOL    HW2  549   1.217   1.350   0.212
  183SOL     OW  550   0.613   0.842   1.431
  183SOL    HW1  551   0.669   0.923   1.414
  183SOL    HW2  552   0.672   0.762   1.434
  184SOL     OW  553   1.493   1.767   0.959
  184SOL    HW1  554   1.526   1.831   0.890
  184SOL    HW2  555   1.559   1.761   1.034
  185SOL     OW  556   0.716   0.565   1.708
  185SOL    HW1  557   0.735   0.630   1.782
  185SOL    HW2  558   0.776   0.485   1.717
  186SOL     OW  559   1.450   1.220   1.633
  186SOL    HW1  560   1.441   1.210   1.732
  186SOL    HW2  561   1.546   1.213   1.607
  187SOL     OW  562   0.390   1.741   1.560
  187SOL    HW1  563   0.299   1.782   1.558
  187SOL    HW2  564   0.383   1.647   1.592
  188SOL     OW  565   1.674   0.883   1.254
  188SOL    HW1  566   1.647   0.794   1.217
  188SOL    HW2  567   1.675   0.951   1.181
  189SOL     OW  568   1.225   0.325   0.449
  189SOL    HW1  569   1.290   0.251   0.438
  189SOL    HW2  570   1.245   0.375   0.533
  190SOL     OW  571   0.594   0.745   0.652
  190SOL    HW1  572   0.644   0.830   0.633
  190SOL    HW2  573   0.506   0.747   0.604
  191SOL     OW  574   1.777   0.342   1.642
  191SOL    HW1  575   1.760   0.373   1.548
  191SOL    HW2  576   1.693   0.305   1.680
  192SOL     OW  577   1.730   0.934   1.517
  192SOL    HW1  578   1.768   1.025   1.532
  192SOL    HW2  579   1.722   0.917   1.418
  193SOL     OW  580   0.859   1.374   0.016
  193SOL    HW1  581   0.813   1.389   0.104
  193SOL    HW2  582   0.903   1.459  -0.014
  194SOL     OW  583   0.661   1.790   0.953
  194SOL    HW1  584   0.615   1.878   0.940
  194SOL    HW2  585   0.760   1.802   0.946
  195SOL     OW  586   0.859   0.956   0.861
  195SOL    HW1  587   0.913   0.887   0.909
  195SOL    HW2  588   0.827   1.025   0.927
  196SOL     OW  589   1.083   0.984   0.087
  196SOL    HW1  590   1.060   1.037   0.005
  196SOL    HW2  591   1.164   0.928   0.068
  197SOL     OW  592   1.861   1.569   0.851
  197SOL    HW1  593   1.790   1.557   0.781
  197SOL    HW2  594   1.862   1.490   0.911
  198SOL     OW  595   0.221   1.314   1.844
  198SOL    HW1  596   0.156   1.241   1.823
  198SOL    HW2  597   0.225   1.328   1.942
  199SOL     OW  598   0.079   1.240   0.653
  199SOL    HW1  599   0.078   1.193   0.741
  199SOL    HW2  600   0.161   1.212   0.602
  200SOL     OW  601   0.672   1.391   1.624
  200SOL    HW1  602   0.594   1.341   1.662
  200SOL    HW2  603   0.669   1.486   1.655
  201SOL     OW  604   1.824   0.192   1.227
  201SOL    HW1  605   1.820   0.102   1.271
  201SOL    HW2  606   1.827   0.181   1.128
  202SOL     OW  607   0.428   0.424   0.520
  202SOL    HW1  608   0.458   0.352   0.458
  202SOL    HW2  609   0.389   0.384   0.603
  203SOL     OW  610   1.705   1.487   1.104
  203SOL    HW1  611   1.612   1.462   1.077
  203SOL    HW2  612   1.731   1.437   1.186
  204SOL     OW  613   0.317   0.547   1.280
  204SOL    HW1  614   0.355   0.488   1.352
  204SOL    HW2  615   0.357   0.521   1.192
  205SOL     OW  616   0.812   1.586   0.687
  205SOL    HW1  617   0.844   1.596   0.593
  205SOL    HW2  618   0.733   1.524   0.689
  206SOL     OW  619   1.424   0.214   1.112
  206SOL    HW1  620   1.476   0.149   1.167
  206SOL    HW2  621   1.375   0.277   1.173
  207SOL     OW  622   1.001   0.034   1.154
  207SOL    HW1  623   0.938  -0.038   1.123
  207SOL    HW2  624   1.094  -0.002   1.154
  208SOL     OW  625   0.770   1.330   0.301
  208SOL    HW1  626   0.724   1.243   0.318
  208SOL    HW2  627   0.861   1.327   0.342
  209SOL     OW  628   0.618   1.567   1.284
  209SOL    HW1  629   0.613   1.649   1.341
  209SOL    HW2  630   0.707   1.564   1.239
  210SOL     OW  631   1.352   0.052   0.168
  210SOL    HW1  632   1.387   0.011   0.084
  210SOL    HW2  633   1.262   0.014   0.188
  211SOL     OW  634   1.300   0.453   0.691
  211SOL    HW1  635   1.241   0.533   0.695
  211SOL    HW2  636   1.315   0.418   0.784
  212SOL     OW  637   1.593   0.221   0.882
  212SOL    HW1  638   1.509   0.220   0.936
  212SOL    HW2  639   1.595   0.304   0.826
  213SOL     OW  640   0.039   1.077   0.300
  213SOL    HW1  641   0.138   1.066   0.291
  213SOL    HW2  642  -0.001   0.991   0.332
  214SOL     OW  643   0.875   1.646   0.337
  214SOL    HW1  644   0.798   1.611   0.283
  214SOL    HW2  645   0.843   1.717   0.399
  215SOL     OW  646   0.230   0.628   1.975
  215SOL    HW1  647   0.137   0.626   2.012
  215SOL    HW2  648   0.231   0.589   1.883
  216SOL     OW  649   0.225   0.275   2.858
  216SOL    HW1  650   0.260   0.258   2.950
  216SOL    HW2  651   0.137   0.230   2.846
  217SOL     OW  652   0.019   0.368   2.509
  217SOL    HW1  653  -0.063   0.411   2.548
  217SOL    HW2  654  -0.009   0.295   2.446
  218SOL     OW  655   0.569   1.275   3.027
  218SOL    HW1  656   0.476   1.268   2.990
  218SOL    HW2  657   0.580   1.364   3.071
  219SOL     OW  658   1.555   1.511   2.565
  219SOL    HW1  659   1.498   1.495   2.646
  219SOL    HW2  660   1.496   1.521   2.485
  220SOL     OW  661   1.135   0.703   2.579
  220SOL    HW1  662   1.192   0.781   2.554
  220SOL    HW2  663   1.075   0.729   2.655
  221SOL     OW  664   1.755   0.607   2.093
  221SOL    HW1  665   1.743   0.594   1.994
  221SOL    HW2  666   1.725   0.526   2.142
  222SOL     OW  667   0.768   1.144   2.885
  222SOL    HW1  668   0.690   1.161   2.945
  222SOL    HW2  669   0.802   1.231   2.849
  223SOL     OW  670   0.850   0.798   3.685
  223SOL    HW1  671   0.846   0.874   3.750
  223SOL    HW2  672   0.872   0.834   3.594
  224SOL     OW  673   0.685   1.012   2.527
  224SOL    HW1  674   0.754   0.996   2.597
  224SOL    HW2  675   0.612   1.069   2.565
  225SOL     OW  676   0.686   1.161   3.665
  225SOL    HW1  677   0.746   1.240   3.679
  225SOL    HW2  678   0.600   1.192   3.624
  226SOL     OW  679   0.335   1.435   2.923
  226SOL    HW1  680   0.257   1.404   2.870
  226SOL    HW2  681   0.393   1.493   2.866
  227SOL     OW  682   1.460   1.505   3.201
  227SOL    HW1  683   1.484   1.599   3.227
  227SOL    HW2  684   1.444   1.451   3.283
  228SOL     OW  685   0.438   0.392   3.361
  228SOL    HW1  686   0.520   0.336   3.370
  228SOL    HW2  687   0.357   0.334   3.365
  229SOL     OW  688   1.603   0.447   2.599
  229SOL    HW1  689   1.529   0.493   2.549
  229SOL    HW2  690   1.654   0.515   2.652
  230SOL     OW  691   0.231   1.713   2.345
  230SOL    HW1  692   0.265   1.790   2.399
  230SOL    HW2  693   0.275   1.713   2.255
  231SOL     OW  694   1.127   1.341   3.552
  231SOL    HW1  695   1.174   1.341   3.640
  231SOL    HW2  696   1.079   1.254   3.541
  232SOL     OW  697   0.230   1.434   2.400
  232SOL    HW1  698   0.204   1.530   2.400
  232SOL    HW2  699   0.159   1.380   2.445
  233SOL     OW  700   0.240   1.091   2.748
  233SOL    HW1  701   0.254   1.007   2.800
  233SOL    HW2  702   0.185   1.155   2.803
  234SOL     OW  703   0.620   1.786   3.301
  234SOL    HW1  704   0.528   1.769   3.336
  234SOL    HW2  705   0.648   1.878   3.327
  235SOL     OW  706   0.606   0.964   1.985
  235SOL    HW1  707   0.613   1.048   1.931
  235SOL    HW2  708   0.652   0.977   2.073
  236SOL     OW  709   1.594   0.114   3.342
  236SOL    HW1  710   1.576   0.181   3.270
  236SOL    HW2  711   1.591   0.160   3.431
  237SOL     OW  712   0.122   0.643   2.425
  237SOL    HW1  713   0.077   0.555   2.442
  237SOL    HW2  714   0.121   0.697   2.509
  238SOL     OW  715   1.842   1.767   2.221
  238SOL    HW1  716   1.896   1.738   2.301
  238SOL    HW2  717   1.872   1.857   2.192
  239SOL     OW  718   0.027   1.596   1.979
  239SOL    HW1  719   0.008   1.500   2.000
  239SOL    HW2  720  -0.006   1.654   2.054
  240SOL     OW  721   1.689   0.922   2.474
  240SOL    HW1  722   1.784   0.893   2.482
  240SOL    HW2  723   1.681   0.987   2.399
  241SOL     OW  724   1.641   1.108   2.294
  241SOL    HW1  725   1.727   1.110   2.242
  241SOL    HW2  726   1.655   1.155   2.382
  242SOL     OW  727   0.113   0.737   3.459
  242SOL    HW1  728   0.201   0.724   3.504
  242SOL    HW2  729   0.100   0.834   3.437
  243SOL     OW  730   0.613   1.365   2.588
  243SOL    HW1  731   0.564   1.278   2.597
  243SOL    HW2  732   0.590   1.408   2.501
  244SOL     OW  733   1.293   1.228   3.285
  244SOL    HW1  734   1.330   1.155   3.227
  244SOL    HW2  735   1.345   1.233   3.370
  245SOL     OW  736   0.809   0.004   2.364
  245SOL    HW1  737   0.849   0.095   2.355
  245SOL    HW2  738   0.709   0.012   2.370
  246SOL     OW  739   0.197   0.976   3.126
  246SOL    HW1  740   0.286   0.931   3.112
  246SOL    HW2  741   0.124   0.911   3.107
  247SOL     OW  742   1.525   0.999   2.052
  247SOL    HW1  743   1.462   0.923   2.065
  247SOL    HW2  744   1.573   1.017   2.138
  248SOL     OW  745   1.187   1.792   3.478
  248SOL    HW1  746   1.211   1.852   3.402
  248SOL    HW2  747   1.194   1.697   3.448
  249SOL     OW  748   0.317   0.251   3.663
  249SOL    HW1  749   0.388   0.322   3.669
  249SOL    HW2  750   0.229   0.290   3.691
  250SOL     OW  751   1.466   1.417   2.815
  250SOL    HW1  752   1.407   1.423   2.895
  250SOL    HW2  753   1.451   1.329   2.769
  251SOL     OW  754   1.667   1.714   2.434
  251SOL    HW1  755   1.626   1.691   2.346
  251SOL    HW2  756   1.649   1.640   2.499
  252SOL     OW  757   0.598   0.729   2.132
  252SOL    HW1  758   0.622   0.798   2.064
  252SOL    HW2  759   0.520   0.762   2.186
  253SOL     OW  760   1.281   0.345   2.806
  253SOL    HW1  761   1.195   0.295   2.793
  253SOL    HW2  762   1.343   0.291   2.862
  254SOL     OW  763   1.576   1.662   2.169
  254SOL    HW1  764   1.665   1.708   2.172
  254SOL    HW2  765   1.555   1.638   2.074
  255SOL     OW  766   0.807   0.605   3.327
  255SOL    HW1  767   0.760   0.602   3.416
  255SOL    HW2  768   0.756   0.550   3.261
  256SOL     OW  769   1.394   0.469   3.536
  256SOL    HW1  770   1.374   0.512   3.624
  256SOL    HW2  771   1.472   0.407   3.545
  257SOL     OW  772   0.973   0.890   3.434
  257SOL    HW1  773   1.019   0.806   3.405
  257SOL    HW2  774   0.917   0.924   3.359
  258SOL     OW  775   0.991   0.410   3.104
  258SOL    HW1  776   0.914   0.444   3.158
  258SOL    HW2  777   0.957   0.359   3.025
  259SOL     OW  778   1.041   0.701   2.291
  259SOL    HW1  779   1.067   0.697   2.387
  259SOL    HW2  780   0.956   0.650   2.277
  260SOL     OW  781   0.076   0.811   2.651
  260SOL    HW1  782   0.175   0.799   2.660
  260SOL    HW2  783   0.052   0.906   2.672
  261SOL     OW  784   0.130   1.821   3.433
  261SOL    HW1  785   0.120   1.806   3.532
  261SOL    HW2  786   0.044   1.857   3.397
  262SOL     OW  787   0.865   0.348   2.057
  262SOL    HW1  788   0.924   0.411   2.008
  262SOL    HW2  789   0.884   0.254   2.028
  263SOL     OW  790   1.719   0.585   3.693
  263SOL    HW1  791   1.693   0.674   3.657
  263SOL    HW2  792   1.717   0.517   3.620
  264SOL     OW  793   1.362   1.144   2.407
  264SOL    HW1  794   1.445   1.115   2.359
  264SOL    HW2  795   1.313   1.211   2.351
  265SOL     OW  796   0.550   0.196   2.747
  265SOL    HW1  797   0.545   0.191   2.847
  265SOL    HW2  798   0.552   0.292   2.718
  266SOL     OW  799   1.008   1.456   2.339
  266SOL    HW1  800   0.962   1.528   2.287
  266SOL    HW2  801   1.004   1.476   2.437
  267SOL     OW  802   0.351   1.801   2.715
  267SOL    HW1  803   0.401   1.715   2.721
  267SOL    HW2  804   0.416   1.878   2.712
  268SOL     OW  805   1.795   1.066   2.735
  268SOL    HW1  806   1.733   1.051   2.659
  268SOL    HW2  807   1.743   1.077   2.820
  269SOL     OW  808   1.227   1.550   3.368
  269SOL    HW1  809   1.233   1.473   3.432
  269SOL    HW2  810   1.175   1.524   3.288
  270SOL     OW  811   0.321   0.943   2.104
  270SOL    HW1  812   0.403   0.982   2.062
  270SOL    HW2  813   0.294   0.861   2.055
  271SOL     OW  814   1.458   0.735   2.590
  271SOL    HW1  815   1.453   0.670   2.665
  271SOL    HW2  816   1.538   0.794   2.603
  272SOL     OW  817   0.461   1.266   3.589
  272SOL    HW1  818   0.411   1.267   3.503
  272SOL    HW2  819   0.398   1.248   3.665
  273SOL     OW  820   1.111   1.776   2.099
  273SOL    HW1  821   1.051   1.714   2.149
  273SOL    HW2  822   1.142   1.732   2.014
  274SOL     OW  823   0.202   0.285   3.360
  274SOL    HW1  824   0.122   0.345   3.347
  274SOL    HW2  825   0.192   0.236   3.446
  275SOL     OW  826   1.632   1.377   1.943
  275SOL    HW1  827   1.600   1.471   1.933
  275SOL    HW2  828   1.556   1.314   1.931
  276SOL     OW  829   0.464   1.743   2.185
  276SOL    HW1  830   0.497   1.782   2.271
  276SOL    HW2  831   0.540   1.736   2.120
  277SOL     OW  832   1.400   0.107   2.288
  277SOL    HW1  833   1.376   0.070   2.198
  277SOL    HW2  834   1.499   0.123   2.292
  278SOL     OW  835   0.249   1.785   3.103
  278SOL    HW1  836   0.306   1.720   3.153
  278SOL    HW2  837   0.233   1.752   3.010
  279SOL     OW  838   0.940   1.698   2.766
  279SOL    HW1  839   1.020   1.641   2.787
  279SOL    HW2  840   0.891   1.658   2.689
  280SOL     OW  841   0.382   0.700   2.342
  280SOL    HW1  842   0.427   0.610   2.339
  280SOL    HW2  843   0.288   0.689   2.375
  281SOL     OW  844   1.547   0.222   3.591
  281SOL    HW1  845   1.542   0.259   3.683
  281SOL    HW2  846   1.475   0.153   3.579
  282SOL     OW  847   0.614   0.122   1.979
  282SOL    HW1  848   0.712   0.100   1.986
  282SOL    HW2  849   0.583   0.105   1.886
  283SOL     OW  850   0.781   0.264   3.611
  283SOL    HW1  851   0.848   0.203   3.654
  283SOL    HW2  852   0.708   0.283   3.676
  284SOL     OW  853   0.888   1.514   3.057
  284SOL    HW1  854   0.865   1.489   2.963
  284SOL    HW2  855   0.949   1.445   3.096
  285SOL     OW  856   1.351   0.590   3.295
  285SOL    HW1  857   1.379   0.547   3.380
  285SOL    HW2  858   1.376   0.686   3.296
  286SOL     OW  859   0.803   1.402   2.786
  286SOL    HW1  860   0.893   1.416   2.744
  286SOL    HW2  861   0.732   1.404   2.715
  287SOL     OW  862   0.922   0.503   2.761
  287SOL    HW1  863   0.897   0.494   2.665
  287SOL    HW2  864   0.970   0.421   2.792
  288SOL     OW  865   0.539   0.064   2.374
  288SOL    HW1  866   0.458   0.065   2.432
  288SOL    HW2  867   0.542   0.147   2.319
  289SOL     OW  868   1.434   1.188   1.903
  289SOL    HW1  869   1.466   1.112   1.960
  289SOL    HW2  870   1.342   1.215   1.933
  290SOL     OW  871   0.297   0.035   2.033
  290SOL    HW1  872   0.346   0.119   2.012
  290SOL    HW2  873   0.359  -0.030   2.078
  291SOL     OW  874   0.935   0.236   2.342
  291SOL    HW1  875   0.887   0.277   2.264
  291SOL    HW2  876   1.034   0.234   2.323
  292SOL     OW  877   1.076   0.683   3.326
  292SOL    HW1  878   0.996   0.622   3.329
  292SOL    HW2  879   1.157   0.630   3.302
  293SOL     OW  880   1.227   1.570   2.655
  293SOL    HW1  881   1.248   1.644   2.590
  293SOL    HW2  882   1.295   1.570   2.728
  294SOL     OW  883   0.459   1.152   2.603
  294SOL    HW1  884   0.388   1.125   2.668
  294SOL    HW2  885   0.433   1.124   2.510
  295SOL     OW  886   1.271   1.797   2.453
  295SOL    HW1  887   1.315   1.861   2.389
  295SOL    HW2  888   1.221   1.849   2.523
  296SOL     OW  889   1.032   0.549   1.878
  296SOL    HW1  890   0.991   0.631   1.839
  296SOL    HW2  891   1.096   0.575   1.951
  297SOL     OW  892   0.078   0.556   3.248
  297SOL    HW1  893   0.170   0.555   3.207
  297SOL    HW2  894   0.072   0.630   3.315
  298SOL     OW  895   0.561   0.222   3.009
  298SOL    HW1  896   0.599   0.138   3.046
  298SOL    HW2  897   0.473   0.241   3.053
  299SOL     OW  898   0.866   0.454   2.504
  299SOL    HW1  899   0.834   0.526   2.442
  299SOL    HW2  900   0.890   0.373   2.451
  300SOL     OW  901   1.017   0.039   2.615
  300SOL    HW1  902   0.945   0.044   2.546
  300SOL    HW2  903   0.993  -0.030   2.684
  301SOL     OW  904   1.429   1.173   2.729
  301SOL    HW1  905   1.374   1.089   2.722
  301SOL    HW2  906   1.455   1.202   2.637
  302SOL     OW  907   1.466   0.590   2.854
  302SOL    HW1  908   1.436   0.495   2.861
  302SOL    HW2  909   1.539   0.606   2.920
  303SOL     OW  910   1.857   0.833   2.239
  303SOL    HW1  911   1.899   0.769   2.303
  303SOL    HW2  912   1.819   0.782   2.161
  304SOL     OW  913   0.488   1.385   2.036
  304SOL    HW1  914   0.401   1.370   2.083
  304SOL    HW2  915   0.471   1.411   1.941
  305SOL     OW  916   1.664   1.280   2.519
  305SOL    HW1  917   1.763   1.288   2.533
  305SOL    HW2  918   1.619   1.364   2.550
  306SOL     OW  919   1.390   0.575   1.940
  306SOL    HW1  920   1.336   0.554   2.021
  306SOL    HW2  921   1.481   0.534   1.949
  307SOL     OW  922   0.527   0.256   2.190
  307SOL    HW1  923   0.554   0.197   2.115
  307SOL    HW2  924   0.527   0.351   2.159
  308SOL     OW  925   1.754   1.223   3.450
  308SOL    HW1  926   1.845   1.184   3.437
  308SOL    HW2  927   1.762   1.319   3.474
  309SOL     OW  928   1.064   1.347   3.202
  309SOL    HW1  929   0.984   1.324   3.257
  309SOL    HW2  930   1.147   1.321   3.251
  310SOL     OW  931   1.592   1.629   3.487
  310SOL    HW1  932   1.619   1.663   3.397
  310SOL    HW2  933   1.671   1.591   3.533
  311SOL     OW  934   1.111   1.195   2.962
  311SOL    HW1  935   1.071   1.239   3.043
  311SOL    HW2  936   1.070   1.232   2.879
  312SOL     OW  937   1.638   1.099   2.941
  312SOL    HW1  938   1.643   1.180   3.000
  312SOL    HW2  939   1.552   1.101   2.890
  313SOL     OW  940   0.915   0.089   3.264
  313SOL    HW1  941   0.940   0.069   3.169
  313SOL    HW2  942   0.987   0.145   3.306
  314SOL     OW  943   0.980   1.116   3.581
  314SOL    HW1  944   0.881   1.122   3.591
  314SOL    HW2  945   1.003   1.036   3.525
  315SOL     OW  946   0.705   1.050   2.230
  315SOL    HW1  947   0.691   1.057   2.329
  315SOL    HW2  948   0.789   0.999   2.212
  316SOL     OW  949   0.410   0.813   3.113
  316SOL    HW1  950   0.496   0.825   3.163
  316SOL    HW2  951   0.368   0.726   3.140
  317SOL     OW  952   1.274   0.386   3.124
  317SOL    HW1  953   1.295   0.460   3.188
  317SOL    HW2  954   1.185   0.403   3.081
  318SOL     OW  955   0.064   1.564   3.193
  318SOL    HW1  956   0.018   1.646   3.159
  318SOL    HW2  957   0.162   1.583   3.202
  319SOL     OW  958   0.367   1.100   2.363
  319SOL    HW1  959   0.360   1.183   2.307
  319SOL    HW2  960   0.371   1.020   2.303
  320SOL     OW  961   0.566   0.537   2.727
  320SOL    HW1  962   0.578   0.603   2.653
  320SOL    HW2  963   0.612   0.571   2.810
  321SOL     OW  964   1.252   1.348   2.250
  321SOL    HW1  965   1.302   1.425   2.290
  321SOL    HW2  966   1.157   1.350   2.282
  322SOL     OW  967   1.272   1.445   3.004
  322SOL    HW1  968   1.319   1.458   3.091
  322SOL    HW2  969   1.206   1.371   3.013
  323SOL     OW  970   1.582   0.639   2.334
  323SOL    HW1  971   1.551   0.700   2.407
  323SOL    HW2  972   1.632   0.691   2.265
  324SOL     OW  973   0.354   1.510   3.191
  324SOL    HW1  974   0.333   1.466   3.104
  324SOL    HW2  975   0.451   1.536   3.194
  325SOL     OW  976   0.402   0.751   3.460
  325SOL    HW1  977   0.470   0.806   3.413
  325SOL    HW2  978   0.442   0.663   3.487
  326SOL     OW  979   1.587   0.779   3.532
  326SOL    HW1  980   1.495   0.817   3.527
  326SOL    HW2  981   1.647   0.826   3.467
  327SOL     OW  982   1.013   0.105   3.632
  327SOL    HW1  983   1.019   0.190   3.580
  327SOL    HW2  984   1.045   0.029   3.575
  328SOL     OW  985   0.504   0.050   3.602
  328SOL    HW1  986   0.462  -0.007   3.532
  328SOL    HW2  987   0.438   0.119   3.634
  329SOL     OW  988   0.573   0.870   2.891
  329SOL    HW1  989   0.617   0.959   2.882
  329SOL    HW2  990   0.510   0.870   2.968
  330SOL     OW  991   1.360   0.862   2.907
  330SOL    HW1  992   1.285   0.862   2.841
  330SOL    HW2  993   1.397   0.770   2.916
  331SOL     OW  994   1.209   0.525   2.137
  331SOL    HW1  995   1.222   0.441   2.191
  331SOL    HW2  996   1.180   0.599   2.197
  332SOL     OW  997   0.307   0.213   3.093
  332SOL    HW1  998   0.284   0.250   3.183
  332SOL    HW2  999   0.277   0.118   3.087
  333SOL     OW 1000   0.037   1.310   3.144
  333SOL    HW1 1001   0.090   1.261   3.212
  333SOL    HW2 1002   0.059   1.408   3.149
  334SOL     OW 1003   0.732   0.634   2.926
  334SOL    HW1 1004   0.791   0.608   2.850
  334SOL    HW2 1005   0.704   0.730   2.915
  335SOL     OW 1006   1.728   0.935   3.716
  335SOL    HW1 1007   1.682   0.928   3.627
  335SOL    HW2 1008   1.666   0.979   3.782
  336SOL     OW 1009   0.307   0.063   2.480
  336SOL    HW1 1010   0.296   0.157   2.513
  336SOL    HW2 1011   0.302   0.000   2.557
  337SOL     OW 1012   1.622   0.367   2.236
  337SOL    HW1 1013   1.624   0.291   2.300
  337SOL    HW2 1014   1.574   0.444   2.276
  338SOL     OW 1015   1.023   0.766   2.828
  338SOL    HW1 1016   1.038   0.787   2.924
  338SOL    HW2 1017   0.993   0.671   2.819
  339SOL     OW 1018   0.980   1.573   3.562
  339SOL    HW1 1019   0.960   1.617   3.474
  339SOL    HW2 1020   1.019   1.482   3.546
  340SOL     OW 1021   1.859   1.518   3.467
  340SOL    HW1 1022   1.873   1.545   3.372
  340SOL    HW2 1023   1.942   1.540   3.520
  341SOL     OW 1024   0.350   0.898   3.666
  341SOL    HW1 1025   0.426   0.942   3.714
  341SOL    HW2 1026   0.385   0.851   3.584
  342SOL     OW 1027   1.540   0.274   1.987
  342SOL    HW1 1028   1.479   0.199   2.010
  342SOL    HW2 1029   1.562   0.326   2.070
  343SOL     OW 1030   1.303   0.838   1.904
  343SOL    HW1 1031   1.337   0.745   1.919
  343SOL    HW2 1032   1.321   0.865   1.809
  344SOL     OW 1033   1.068   1.333   2.711
  344SOL    HW1 1034   1.075   1.249   2.656
  344SOL    HW2 1035   1.130   1.402   2.675
  345SOL     OW 1036   0.319   0.810   2.811
  345SOL    HW1 1037   0.412   0.846   2.816
  345SOL    HW2 1038   0.313   0.725   2.863
  346SOL     OW 1039   0.339   0.509   2.868
  346SOL    HW1 1040   0.287   0.426   2.851
  346SOL    HW2 1041   0.416   0.514   2.804
  347SOL     OW 1042   1.138   0.380   3.540
  347SOL    HW1 1043   1.093   0.443   3.604
  347SOL    HW2 1044   1.231   0.411   3.523
  348SOL     OW 1045   1.160   0.207   3.339
  348SOL    HW1 1046   1.160   0.271   3.416
  348SOL    HW2 1047   1.188   0.255   3.256
  349SOL     OW 1048   0.008   1.326   2.062
  349SOL    HW1 1049  -0.085   1.347   2.031
  349SOL    HW2 1050   0.018   1.227   2.075
  350SOL     OW 1051   0.088   1.801   2.789
  350SOL    HW1 1052   0.046   1.715   2.762
  350SOL    HW2 1053   0.182   1.804   2.755
  351SOL     OW 1054   0.504   1.568   2.772
  351SOL    HW1 1055   0.570   1.642   2.781
  351SOL    HW2 1056   0.548   1.489   2.730
  352SOL     OW 1057   1.002   0.796   3.100
  352SOL    HW1 1058   1.043   0.764   3.186
  352SOL    HW2 1059   0.906   0.769   3.097
  353SOL     OW 1060   0.040   0.544   2.976
  353SOL    HW1 1061   0.125   0.511   2.935
  353SOL    HW2 1062   0.053   0.559   3.074
  354SOL     OW 1063   0.189   0.520   3.584
  354SOL    HW1 1064   0.248   0.480   3.514
  354SOL    HW2 1065   0.131   0.591   3.543
  355SOL     OW 1066   1.369   0.950   3.522
  355SOL    HW1 1067   1.408   1.039   3.542
  355SOL    HW2 1068   1.379   0.930   3.425
  356SOL     OW 1069   0.815   0.572   2.187
  356SOL    HW1 1070   0.822   0.483   2.141
  356SOL    HW2 1071   0.721   0.606   2.179
  357SOL     OW 1072   1.657   0.604   3.068
  357SOL    HW1 1073   1.619   0.535   3.130
  357SOL    HW2 1074   1.739   0.568   3.024
  358SOL     OW 1075   0.252   1.564   3.606
  358SOL    HW1 1076   0.222   1.621   3.682
  358SOL    HW2 1077   0.245   1.467   3.632
  359SOL     OW 1078   0.671   0.464   3.131
  359SOL    HW1 1079   0.637   0.375   3.101
  359SOL    HW2 1080   0.697   0.518   3.051
  360SOL     OW 1081   0.930   1.678   3.327
  360SOL    HW1 1082   0.906   1.660   3.232
  360SOL    HW2 1083   0.960   1.772   3.337
  361SOL     OW 1084   0.473   0.500   2.053
  361SOL    HW1 1085   0.534   0.580   2.057
  361SOL    HW2 1086   0.378   0.531   2.060
  362SOL     OW 1087   0.159   1.137   3.328
  362SOL    HW1 1088   0.181   1.076   3.404
  362SOL    HW2 1089   0.169   1.088   3.242
  363SOL     OW 1090   1.347   1.059   3.096
  363SOL    HW1 1091   1.371   0.996   3.022
  363SOL    HW2 1092   1.257   1.099   3.078
  364SOL     OW 1093   1.302   0.855   2.171
  364SOL    HW1 1094   1.216   0.824   2.213
  364SOL    HW2 1095   1.298   0.841   2.072
  365SOL     OW 1096   1.759   1.747   3.016
  365SOL    HW1 1097   1.820   1.777   2.943
  365SOL    HW2 1098   1.721   1.658   2.994
  366SOL     OW 1099   1.252   1.731   2.990
  366SOL    HW1 1100   1.336   1.736   2.936
  366SOL    HW2 1101   1.229   1.635   3.008
  367SOL     OW 1102   0.083   1.258   2.884
  367SOL    HW1 1103   0.078   1.257   2.984
  367SOL    HW2 1104   0.000   1.217   2.846
  368SOL     OW 1105   0.688   1.662   3.578
  368SOL    HW1 1106   0.632   1.743   3.587
  368SOL    HW2 1107   0.740   1.666   3.492
  369SOL     OW 1108   1.726   0.135   2.385
  369SOL    HW1 1109   1.799   0.118   2.318
  369SOL    HW2 1110   1.695   0.048   2.423
  370SOL     OW 1111   1.388   1.573   2.339
  370SOL    HW1 1112   1.455   1.585   2.265
  370SOL    HW2 1113   1.348   1.662   2.362
  371SOL     OW 1114   0.130   1.794   3.713
  371SOL    HW1 1115   0.089   1.720   3.766
  371SOL    HW2 1116   0.194   1.845   3.771
  372SOL     OW 1117   1.280   0.927   2.534
  372SOL    HW1 1118   1.340   0.846   2.536
  372SOL    HW2 1119   1.320   0.996   2.474
  373SOL     OW 1120   0.830   1.273   3.284
  373SOL    HW1 1121   0.825   1.306   3.379
  373SOL    HW2 1122   0.744   1.292   3.238
  374SOL     OW 1123   0.672   1.616   2.016
  374SOL    HW1 1124   0.681   1.626   1.917
  374SOL    HW2 1125   0.632   1.527   2.037
  375SOL     OW 1126   1.650   1.720   3.256
  375SOL    HW1 1127   1.703   1.730   3.172
  375SOL    HW2 1128   1.623   1.810   3.290
  376SOL     OW 1129   1.841   0.175   2.825
  376SOL    HW1 1130   1.880   0.090   2.789
  376SOL    HW2 1131   1.743   0.177   2.806
  377SOL     OW 1132   0.263   0.326   2.582
  377SOL    HW1 1133   0.184   0.377   2.548
  377SOL    HW2 1134   0.254   0.311   2.680
  378SOL     OW 1135   1.194   1.612   1.893
  378SOL    HW1 1136   1.200   1.519   1.930
  378SOL    HW2 1137   1.135   1.612   1.813
  379SOL     OW 1138   0.822   1.002   3.234
  379SOL    HW1 1139   0.862   1.001   3.142
  379SOL    HW2 1140   0.832   1.094   3.274
  380SOL     OW 1141   0.916   0.910   2.153
  380SOL    HW1 1142   0.979   0.948   2.085
  380SOL    HW2 1143   0.956   0.827   2.192
  381SOL     OW 1144   1.504   1.607   1.906
  381SOL    HW1 1145   1.412   1.644   1.913
  381SOL    HW2 1146   1.542   1.627   1.816
  382SOL     OW 1147   0.372   1.288   3.352
  382SOL    HW1 1148   0.359   1.381   3.318
  382SOL    HW2 1149   0.288   1.236   3.339
  383SOL     OW 1150   1.614   1.292   3.151
  383SOL    HW1 1151   1.674   1.295   3.231
  383SOL    HW2 1152   1.539   1.356   3.164
  384SOL     OW 1153   1.039   1.098   2.558
  384SOL    HW1 1154   0.969   1.051   2.612
  384SOL    HW2 1155   1.098   1.030   2.515
  385SOL     OW 1156   1.014   0.236   2.833
  385SOL    HW1 1157   1.006   0.200   2.740
  385SOL    HW2 1158   1.012   0.160   2.898
  386SOL     OW 1159   0.590   1.487   2.353
  386SOL    HW1 1160   0.632   1.429   2.283
  386SOL    HW2 1161   0.546   1.566   2.309
  387SOL     OW 1162   1.709   0.385   3.243
  387SOL    HW1 1163   1.782   0.454   3.247
  387SOL    HW2 1164   1.737   0.310   3.184
  388SOL     OW 1165   0.255   1.348   2.152
  388SOL    HW1 1166   0.159   1.349   2.125
  388SOL    HW2 1167   0.267   1.401   2.236
  389SOL     OW 1168   0.105   1.013   3.588
  389SOL    HW1 1169   0.028   0.980   3.642
  389SOL    HW2 1170   0.190   0.983   3.630
  390SOL     OW 1171   0.672   0.203   3.351
  390SOL    HW1 1172   0.762   0.187   3.311
  390SOL    HW2 1173   0.680   0.208   3.450
  391SOL     OW 1174   0.075   0.345   1.895
  391SOL    HW1 1175  -0.017   0.317   1.866
  391SOL    HW2 1176   0.106   0.422   1.839
  392SOL     OW 1177   1.440   0.856   3.260
  392SOL    HW1 1178   1.383   0.908   3.197
  392SOL    HW2 1179   1.536   0.868   3.236
  393SOL     OW 1180   0.072   0.166   2.180
  393SOL    HW1 1181   0.055   0.249   2.126
  393SOL    HW2 1182   0.162   0.129   2.158
  394SOL     OW 1183   1.183   1.335   1.981
  394SOL    HW1 1184   1.084   1.324   1.983
  394SOL    HW2 1185   1.217   1.350   2.074
  395SOL     OW 1186   0.613   0.842   3.293
  395SOL    HW1 1187   0.669   0.923   3.276
  395SOL    HW2 1188   0.672   0.762   3.296
  396SOL     OW 1189   1.493   1.767   2.821
  396SOL    HW1 1190   1.526   1.831   2.752
  396SOL    HW2 1191   1.559   1.761   2.896
  397SOL     OW 1192   0.716   0.565   3.570
  397SOL    HW1 1193   0.735   0.630   3.644
  397SOL    HW2 1194   0.776   0.485   3.579
  398SOL     OW 1195   1.450   1.220   3.495
  398SOL    HW1 1196   1.441   1.210   3.594
  398SOL    HW2 1197   1.546   1.213   3.469
  399SOL     OW 1198   0.390   1.741   3.422
  399SOL    HW1 1199   0.299   1.782   3.420
  399SOL    HW2 1200   0.383   1.647   3.454
  400SOL     OW 1201   1.674   0.883   3.116
  400SOL    HW1 1202   1.647   0.794   3.079
  400SOL    HW2 1203   1.675   0.951   3.043
  401SOL     OW 1204   1.225   0.325   2.311
  401SOL    HW1 1205   1.290   0.251   2.300
  401SOL    HW2 1206   1.245   0.375   2.395
  402SOL     OW 1207   0.594   0.745   2.514
  402SOL    HW1 1208   0.644   0.830   2.495
  402SOL    HW2 1209   0.506   0.747   2.466
  403SOL     OW 1210   1.777   0.342   3.504
  403SOL    HW1 1211   1.760   0.373   3.410
  403SOL    HW2 1212   1.693   0.305   3.542
  404SOL     OW 1213   1.730   0.934   3.379
  404SOL    HW1 1214   1.768   1.025   3.394
  404SOL    HW2 1215   1.722   0.917   3.280
  405SOL     OW 1216   0.859   1.374   1.878
  405SOL    HW1 1217   0.813   1.389   1.966
  405SOL    HW2 1218   0.903   1.459   1.848
  406SOL     OW 1219   0.661   1.790   2.815
  406SOL    HW1 1220   0.615   1.878   2.802
  406SOL    HW2 1221   0.760   1.802   2.808
  407SOL     OW 1222   0.859   0.956   2.723
  407SOL    HW1 1223   0.913   0.887   2.771
  407SOL    HW2 1224   0.827   1.025   2.789
  408SOL     OW 1225   1.083   0.984   1.949
  408SOL    HW1 1226   1.060   1.037   1.867
  408SOL    HW2 1227   1.164   0.928   1.930
  409SOL     OW 1228   1.861   1.569   2.713
  409SOL    HW1 1229   1.790   1.557   2.643
  409SOL    HW2 1230   1.862   1.490   2.773
  410SOL     OW 1231   0.221   1.314   3.706
  410SOL    HW1 1232   0.156   1.241   3.685
  410SOL    HW2 1233   0.225   1.328   3.804
  411SOL     OW 1234   0.079   1.240   2.515
  411SOL    HW1 1235   0.078   1.193   2.603
  411SOL    HW2 1236   0.161   1.212   2.464
  412SOL     OW 1237   0.672   1.391   3.486
  412SOL    HW1 1238   0.594   1.341   3.524
  412SOL    HW2 1239   0.669   1.486   3.517
  413SOL     OW 1240   1.824   0.192   3.089
  413SOL    HW1 1241   1.820   0.102   3.133
  413SOL    HW2 1242   1.827   0.181   2.990
  414SOL     OW 1243   0.428   0.424   2.382
  414SOL    HW1 1244   0.458   0.352   2.320
  414SOL    HW2 1245   0.389   0.384   2.465
  415SOL     OW 1246   1.705   1.487   2.966
  415SOL    HW1 1247   1.612   1.462   2.939
  415SOL    HW2 1248   1.731   1.437   3.048
  416SOL     OW 1249   0.317   0.547   3.142
  416SOL    HW1 1250   0.355   0.488   3.214
  416SOL    HW2 1251   0.357   0.521   3.054
  417SOL     OW 1252   0.812   1.586   2.549
  417SOL    HW1 1253   0.844   1.596   2.455
  417SOL    HW2 1254   0.733   1.524   2.551
  418SOL     OW 1255   1.424   0.214   2.974
  418SOL    HW1 1256   1.476   0.149   3.029
  418SOL    HW2 1257   1.375   0.277   3.035
  419SOL     OW 1258   1.001   0.034   3.016
  419SOL    HW1 1259   0.938  -0.038   2.985
  419SOL    HW2 1260   1.094  -0.002   3.016
  420SOL     OW 1261   0.770   1.330   2.163
  420SOL    HW1 1262   0.724   1.243   2.180
  420SOL    HW2 1263   0.861   1.327   2.204
  421SOL     OW 1264   0.618   1.567   3.146
  421SOL    HW1 1265   0.613   1.649   3.203
  421SOL    HW2 1266   0.707   1.564   3.101
  422SOL     OW 1267   1.352   0.052   2.030
  422SOL    HW1 1268   1.387   0.011   1.946
  422SOL    HW2 1269   1.262   0.014   2.050
  423SOL     OW 1270   1.300   0.453   2.553
  423SOL    HW1 1271   1.241   0.533   2.557
  423SOL    HW2 1272   1.315   0.418   2.646
  424SOL     OW 1273   1.593   0.221   2.744
  424SOL    HW1 1274   1.509   0.220   2.798
  424SOL    HW2 1275   1.595   0.304   2.688
  425SOL     OW 1276   0.039   1.077   2.162
  425SOL    HW1 1277   0.138   1.066   2.153
  425SOL    HW2 1278  -0.001   0.991   2.194
  426SOL     OW 1279   0.875   1.646   2.199
  426SOL    HW1 1280   0.798   1.611   2.145
  426SOL    HW2 1281   0.843   1.717   2.261
  427SOL     OW 1282   0.230   0.628   3.837
  427SOL    HW1 1283   0.137   0.626   3.874
  427SOL    HW2 1284   0.231   0.589   3.745
  428SOL     OW 1285   1.755   0.607   3.955
  428SOL    HW1 1286   1.743   0.594   3.856
  428SOL    HW2 1287   1.725   0.526   4.004
  429SOL     OW 1288   0.231   1.713   4.207
  429SOL    HW1 1289   0.265   1.790   4.261
  429SOL    HW2 1290   0.275   1.713   4.117
  430SOL     OW 1291   0.230   1.434   4.262
  430SOL    HW1 1292   0.204   1.530   4.262
  430SOL    HW2 1293   0.159   1.380   4.307
  431SOL     OW 1294   0.606   0.964   3.847
  431SOL    HW1 1295   0.613   1.048   3.793
  431SOL    HW2 1296   0.652   0.977   3.935
  432SOL     OW 1297   1.842   1.767   4.083
  432SOL    HW1 1298   1.896   1.738   4.163
  432SOL    HW2 1299   1.872   1.857   4.054
  433SOL     OW 1300   0.027   1.596   3.841
  433SOL    HW1 1301   0.008   1.500   3.862
  433SOL    HW2 1302  -0.006   1.654   3.916
  434SOL     OW 1303   1.689   0.922   4.336
  434SOL    HW1 1304   1.784   0.893   4.344
  434SOL    HW2 1305   1.681   0.987   4.261
  435SOL     OW 1306   1.641   1.108   4.156
  435SOL    HW1 1307   1.727   1.110   4.104
  435SOL    HW2 1308   1.655   1.155   4.244
  436SOL     OW 1309   0.809   0.004   4.226
  436SOL    HW1 1310   0.849   0.095   4.217
  436SOL    HW2 1311   0.709   0.012   4.232
  437SOL     OW 1312   1.525   0.999   3.914
  437SOL    HW1 1313   1.462   0.923   3.927
  437SOL    HW2 1314   1.573   1.017   4.000
  438SOL     OW 1315   0.598   0.729   3.994
  438SOL    HW1 1316   0.622   0.798   3.926
  438SOL    HW2 1317   0.520   0.762   4.048
  439SOL     OW 1318   1.576   1.662   4.031
  439SOL    HW1 1319   1.665   1.708   4.034
  439SOL    HW2 1320   1.555   1.638   3.936
  440SOL     OW 1321   0.865   0.348   3.919
  440SOL    HW1 1322   0.924   0.411   3.870
  440SOL    HW2 1323   0.884   0.254   3.890
  441SOL     OW 1324   0.321   0.943   3.966
  441SOL    HW1 1325   0.403   0.982   3.924
  441SOL    HW2 1326   0.294   0.861   3.917
  442SOL     OW 1327   1.111   1.776   3.961
  442SOL    HW1 1328   1.051   1.714   4.011
  442SOL    HW2 1329   1.142   1.732   3.876
  443SOL     OW 1330   1.632   1.377   3.805
  443SOL    HW1 1331   1.600   1.471   3.795
  443SOL    HW2 1332   1.556   1.314   3.793
  444SOL     OW 1333   0.464   1.743   4.047
  444SOL    HW1 1334   0.497   1.782   4.133
  444SOL    HW2 1335   0.540   1.736   3.982
  445SOL     OW 1336   1.400   0.107   4.150
  445SOL    HW1 1337   1.376   0.070   4.060
  445SOL    HW2 1338   1.499   0.123   4.154
  446SOL     OW 1339   0.382   0.700   4.204
  446SOL    HW1 1340   0.427   0.610   4.201
  446SOL    HW2 1341   0.288   0.689   4.237
  447SOL     OW 1342   0.614   0.122   3.841
  447SOL    HW1 1343   0.712   0.100   3.848
  447SOL    HW2 1344   0.583   0.105   3.748
  448SOL     OW 1345   1.434   1.188   3.765
  448SOL    HW1 1346   1.466   1.112   3.822
  448SOL    HW2 1347   1.342   1.215   3.795
  449SOL     OW 1348   0.297   0.035   3.895
  449SOL    HW1 1349   0.346   0.119   3.874
  449SOL    HW2 1350   0.359  -0.030   3.940
  450SOL     OW 1351   0.935   0.236   4.204
  450SOL    HW1 1352   0.887   0.277   4.126
  450SOL    HW2 1353   1.034   0.234   4.185
  451SOL     OW 1354   0.459   1.152   4.465
  451SOL    HW1 1355   0.388   1.125   4.530
  451SOL    HW2 1356   0.433   1.124   4.372
  452SOL     OW 1357   1.271   1.797   4.315
  452SOL    HW1 1358   1.315   1.861   4.251
  452SOL    HW2 1359   1.221   1.849   4.385
  453SOL     OW 1360   1.032   0.549   3.740
  453SOL    HW1 1361   0.991   0.631   3.701
  453SOL    HW2 1362   1.096   0.575   3.813
  454SOL     OW 1363   1.857   0.833   4.101
  454SOL    HW1 1364   1.899   0.769   4.165
  454SOL    HW2 1365   1.819   0.782   4.023
  455SOL     OW 1366   0.488   1.385   3.898
  455SOL    HW1 1367   0.401   1.370   3.945
  455SOL    HW2 1368   0.471   1.411   3.803
  456SOL     OW 1369   1.390   0.575   3.802
  456SOL    HW1 1370   1.336   0.554   3.883
  456SOL    HW2 1371   1.481   0.534   3.811
  457SOL     OW 1372   0.527   0.256   4.052
  457SOL    HW1 1373   0.554   0.197   3.977
  457SOL    HW2 1374   0.527   0.351   4.021
  458SOL     OW 1375   0.705   1.050   4.092
  458SOL    HW1 1376   0.691   1.057   4.191
  458SOL    HW2 1377   0.789   0.999   4.074
  459SOL     OW 1378   0.367   1.100   4.225
  459SOL    HW1 1379   0.360   1.183   4.169
  459SOL    HW2 1380   0.371   1.020   4.165
  460SOL     OW 1381   1.252   1.348   4.112
  460SOL    HW1 1382   1.302   1.425   4.152
  460SOL    HW2 1383   1.157   1.350   4.144
  461SOL     OW 1384   1.582   0.639   4.196
  461SOL    HW1 1385   1.551   0.700   4.269
  461SOL    HW2 1386   1.632   0.691   4.127
  462SOL     OW 1387   1.209   0.525   3.999
  462SOL    HW1 1388   1.222   0.441   4.053
  462SOL    HW2 1389   1.180   0.599   4.059
  463SOL     OW 1390   1.622   0.367   4.098
  463SOL    HW1 1391   1.624   0.291   4.162
  463SOL    HW2 1392   1.574   0.444   4.138
  464SOL     OW 1393   1.540   0.274   3.849
  464SOL    HW1 1394   1.479   0.199   3.872
  464SOL    HW2 1395   1.562   0.326   3.932
  465SOL     OW 1396   1.303   0.838   3.766
  465SOL    HW1 1397   1.337   0.745   3.781
  465SOL    HW2 1398   1.321   0.865   3.671
  466SOL     OW 1399   0.008   1.326   3.924
  466SOL    HW1 1400  -0.085   1.347   3.893
  466SOL    HW2 1401   0.018   1.227   3.937
  467SOL     OW 1402   0.815   0.572   4.049
  467SOL    HW1 1403   0.822   0.483   4.003
  467SOL    HW2 1404   0.721   0.606   4.041
  468SOL     OW 1405   0.473   0.500   3.915
  468SOL    HW1 1406   0.534   0.580   3.919
  468SOL    HW2 1407   0.378   0.531   3.922
  469SOL     OW 1408   1.302   0.855   4.033
  469SOL    HW1 1409   1.216   0.824   4.075
  469SOL    HW2 1410   1.298   0.841   3.934
  470SOL     OW 1411   1.726   0.135   4.247
  470SOL    HW1 1412   1.799   0.118   4.180
  470SOL    HW2 1413   1.695   0.048   4.285
  471SOL     OW 1414   1.388   1.573   4.201
  471SOL    HW1 1415   1.455   1.585   4.127
  471SOL    HW2 1416   1.348   1.662   4.224
  472SOL     OW 1417   0.672   1.616   3.878
  472SOL    HW1 1418   0.681   1.626   3.779
  472SOL    HW2 1419   0.632   1.527   3.899
  473SOL     OW 1420   1.194   1.612   3.755
  473SOL    HW1 1421   1.200   1.519   3.792
  473SOL    HW2 1422   1.135   1.612   3.675
  474SOL     OW 1423   0.916   0.910   4.015
  474SOL    HW1 1424   0.979   0.948   3.947
  474SOL    HW2 1425   0.956   0.827   4.054
  475SOL     OW 1426   1.504   1.607   3.768
  475SOL    HW1 1427   1.412   1.644   3.775
  475SOL    HW2 1428   1.542   1.627   3.678
  476SOL     OW 1429   0.590   1.487   4.215
  476SOL    HW1 1430   0.632   1.429   4.145
  476SOL    HW2 1431   0.546   1.566   4.171
  477SOL     OW 1432   0.255   1.348   4.014
  477SOL    HW1 1433   0.159   1.349   3.987
  477SOL    HW2 1434   0.267   1.401   4.098
  478SOL     OW 1435   0.075   0.345   3.757
  478SOL    HW1 1436  -0.017   0.317   3.728
  478SOL    HW2 1437   0.106   0.422   3.701
  479SOL     OW 1438   0.072   0.166   4.042
  479SOL    HW1 1439   0.055   0.249   3.988
  479SOL    HW2 1440   0.162   0.129   4.020
  480SOL     OW 1441   1.183   1.335   3.843
  480SOL    HW1 1442   1.084   1.324   3.845
  480SOL    HW2 1443   1.217   1.350   3.936
  481SOL     OW 1444   1.225   0.325   4.173
  481SOL    HW1 1445   1.290   0.251   4.162
  481SOL    HW2 1446   1.245   0.375   4.257
  482SOL     OW 1447   0.594   0.745   4.376
  482SOL    HW1 1448   0.644   0.830   4.357
  482SOL    HW2 1449   0.506   0.747   4.328
  483SOL     OW 1450   0.859   1.374   3.740
  483SOL    HW1 1451   0.813   1.389   3.828
  483SOL    HW2 1452   0.903   1.459   3.710
  484SOL     OW 1453   1.083   0.984   3.811
  484SOL    HW1 1454   1.060   1.037   3.729
  484SOL    HW2 1455   1.164   0.928   3.792
  485SOL     OW 1456   0.428   0.424   4.244
  485SOL    HW1 1457   0.458   0.352   4.182
  485SOL    HW2 1458   0.389   0.384   4.327
  486SOL     OW 1459   0.770   1.330   4.025
  486SOL    HW1 1460   0.724   1.243   4.042
  486SOL    HW2 1461   0.861   1.327   4.066
  487SOL     OW 1462   1.352   0.052   3.892
  487SOL    HW1 1463   1.387   0.011   3.808
  487SOL    HW2 1464   1.262   0.014   3.912
  488SOL     OW 1465   0.039   1.077   4.024
  488SOL    HW1 1466   0.138   1.066   4.015
  488SOL    HW2 1467  -0.001   0.991   4.056
  489SOL     OW 1468   0.875   1.646   4.061
  489SOL    HW1 1469   0.798   1.611   4.007
  489SOL    HW2 1470   0.843   1.717   4.123
  490SOL     OW 1471   0.230   2.490   0.113
  490SOL    HW1 1472   0.137   2.488   0.150
  490SOL    HW2 1473   0.231   2.451   0.021
  491SOL     OW 1474   0.225   2.137   0.996
  491SOL    HW1 1475   0.260   2.120   1.088
  491SOL    HW2 1476   0.137   2.092   0.984
  492SOL     OW 1477   0.019   2.230   0.647
  492SOL    HW1 1478  -0.063   2.273   0.686
  492SOL    HW2 1479  -0.009   2.157   0.584
  493SOL     OW 1480   0.569   3.137   1.165
  493SOL    HW1 1481   0.476   3.130   1.128
  493SOL    HW2 1482   0.580   3.226   1.209
  494SOL     OW 1483   1.555   3.373   0.703
  494SOL    HW1 1484   1.498   3.357   0.784
  494SOL    HW2 1485   1.496   3.383   0.623
  495SOL     OW 1486   1.135   2.565   0.717
  495SOL    HW1 1487   1.192   2.643   0.692
  495SOL    HW2 1488   1.075   2.591   0.793
  496SOL     OW 1489   1.755   2.469   0.231
  496SOL    HW1 1490   1.743   2.456   0.132
  496SOL    HW2 1491   1.725   2.388   0.280
  497SOL     OW 1492   0.768   3.006   1.023
  497SOL    HW1 1493   0.690   3.023   1.083
  497SOL    HW2 1494   0.802   3.093   0.987
  498SOL     OW 1495   0.850   2.660   1.823
  498SOL    HW1 1496   0.846   2.736   1.888
  498SOL    HW2 1497   0.872   2.696   1.732
  499SOL     OW 1498   0.685   2.874   0.665
  499SOL    HW1 1499   0.754   2.858   0.735
  499SOL    HW2 1500   0.612   2.931   0.703
  500SOL     OW 1501   0.686   3.023   1.803
  500SOL    HW1 1502   0.746   3.102   1.817
  500SOL    HW2 1503   0.600   3.054   1.762
  501SOL     OW 1504   0.335   3.297   1.061
  501SOL    HW1 1505   0.257   3.266   1.008
  501SOL    HW2 1506   0.393   3.355   1.004
  502SOL     OW 1507   1.460   3.367   1.339
  502SOL    HW1 1508   1.484   3.461   1.365
  502SOL    HW2 1509   1.444   3.313   1.421
  503SOL     OW 1510   0.438   2.254   1.499
  503SOL    HW1 1511   0.520   2.198   1.508
  503SOL    HW2 1512   0.357   2.196   1.503
  504SOL     OW 1513   1.603   2.309   0.737
  504SOL    HW1 1514   1.529   2.355   0.687
  504SOL    HW2 1515   1.654   2.377   0.790
  505SOL     OW 1516   0.231   3.575   0.483
  505SOL    HW1 1517   0.265   3.652   0.537
  505SOL    HW2 1518   0.275   3.575   0.393
  506SOL     OW 1519   1.127   3.203   1.690
  506SOL    HW1 1520   1.174   3.203   1.778
  506SOL    HW2 1521   1.079   3.116   1.679
  507SOL     OW 1522   0.230   3.296   0.538
  507SOL    HW1 1523   0.204   3.392   0.538
  507SOL    HW2 1524   0.159   3.242   0.583
  508SOL     OW 1525   0.240   2.953   0.886
  508SOL    HW1 1526   0.254   2.869   0.938
  508SOL    HW2 1527   0.185   3.017   0.941
  509SOL     OW 1528   0.620   3.648   1.439
  509SOL    HW1 1529   0.528   3.631   1.474
  509SOL    HW2 1530   0.648   3.740   1.465
  510SOL     OW 1531   0.606   2.826   0.123
  510SOL    HW1 1532   0.613   2.910   0.069
  510SOL    HW2 1533   0.652   2.839   0.211
  511SOL     OW 1534   1.594   1.976   1.480
  511SOL    HW1 1535   1.576   2.043   1.408
  511SOL    HW2 1536   1.591   2.022   1.569
  512SOL     OW 1537   0.122   2.505   0.563
  512SOL    HW1 1538   0.077   2.417   0.580
  512SOL    HW2 1539   0.121   2.559   0.647
  513SOL     OW 1540   1.842   3.629   0.359
  513SOL    HW1 1541   1.896   3.600   0.439
  513SOL    HW2 1542   1.872   3.719   0.330
  514SOL     OW 1543   0.027   3.458   0.117
  514SOL    HW1 1544   0.008   3.362   0.138
  514SOL    HW2 1545  -0.006   3.516   0.192
  515SOL     OW 1546   1.689   2.784   0.612
  515SOL    HW1 1547   1.784   2.755   0.620
  515SOL    HW2 1548   1.681   2.849   0.537
  516SOL     OW 1549   1.641   2.970   0.432
  516SOL    HW1 1550   1.727   2.972   0.380
  516SOL    HW2 1551   1.655   3.017   0.520
  517SOL     OW 1552   0.113   2.599   1.597
  517SOL    HW1 1553   0.201   2.586   1.642
  517SOL    HW2 1554   0.100   2.696   1.575
  518SOL     OW 1555   0.613   3.227   0.726
  518SOL    HW1 1556   0.564   3.140   0.735
  518SOL    HW2 1557   0.590   3.270   0.639
  519SOL     OW 1558   1.293   3.090   1.423
  519SOL    HW1 1559   1.330   3.017   1.365
  519SOL    HW2 1560   1.345   3.095   1.508
  520SOL     OW 1561   0.809   1.866   0.502
  520SOL    HW1 1562   0.849   1.957   0.493
  520SOL    HW2 1563   0.709   1.874   0.508
  521SOL     OW 1564   0.197   2.838   1.264
  521SOL    HW1 1565   0.286   2.793   1.250
  521SOL    HW2 1566   0.124   2.773   1.245
  522SOL     OW 1567   1.525   2.861   0.190
  522SOL    HW1 1568   1.462   2.785   0.203
  522SOL    HW2 1569   1.573   2.879   0.276
  523SOL     OW 1570   1.187   3.654   1.616
  523SOL    HW1 1571   1.211   3.714   1.540
  523SOL    HW2 1572   1.194   3.559   1.586
  524SOL     OW 1573   0.317   2.113   1.801
  524SOL    HW1 1574   0.388   2.184   1.807
  524SOL    HW2 1575   0.229   2.152   1.829
  525SOL     OW 1576   1.466   3.279   0.953
  525SOL    HW1 1577   1.407   3.285   1.033
  525SOL    HW2 1578   1.451   3.191   0.907
  526SOL     OW 1579   1.667   3.576   0.572
  526SOL    HW1 1580   1.626   3.553   0.484
  526SOL    HW2 1581   1.649   3.502   0.637
  527SOL     OW 1582   0.598   2.591   0.270
  527SOL    HW1 1583   0.622   2.660   0.202
  527SOL    HW2 1584   0.520   2.624   0.324
  528SOL     OW 1585   1.281   2.207   0.944
  528SOL    HW1 1586   1.195   2.157   0.931
  528SOL    HW2 1587   1.343   2.153   1.000
  529SOL     OW 1588   1.576   3.524   0.307
  529SOL    HW1 1589   1.665   3.570   0.310
  529SOL    HW2 1590   1.555   3.500   0.212
  530SOL     OW 1591   0.807   2.467   1.465
  530SOL    HW1 1592   0.760   2.464   1.554
  530SOL    HW2 1593   0.756   2.412   1.399
  531SOL     OW 1594   1.394   2.331   1.674
  531SOL    HW1 1595   1.374   2.374   1.762
  531SOL    HW2 1596   1.472   2.269   1.683
  532SOL     OW 1597   0.973   2.752   1.572
  532SOL    HW1 1598   1.019   2.668   1.543
  532SOL    HW2 1599   0.917   2.786   1.497
  533SOL     OW 1600   0.991   2.272   1.242
  533SOL    HW1 1601   0.914   2.306   1.296
  533SOL    HW2 1602   0.957   2.221   1.163
  534SOL     OW 1603   1.041   2.563   0.429
  534SOL    HW1 1604   1.067   2.559   0.525
  534SOL    HW2 1605   0.956   2.512   0.415
  535SOL     OW 1606   0.076   2.673   0.789
  535SOL    HW1 1607   0.175   2.661   0.798
  535SOL    HW2 1608   0.052   2.768   0.810
  536SOL     OW 1609   0.130   3.683   1.571
  536SOL    HW1 1610   0.120   3.668   1.670
  536SOL    HW2 1611   0.044   3.719   1.535
  537SOL     OW 1612   0.865   2.210   0.195
  537SOL    HW1 1613   0.924   2.273   0.146
  537SOL    HW2 1614   0.884   2.116   0.166
  538SOL     OW 1615   1.719   2.447   1.831
  538SOL    HW1 1616   1.693   2.536   1.795
  538SOL    HW2 1617   1.717   2.379   1.758
  539SOL     OW 1618   1.362   3.006   0.545
  539SOL    HW1 1619   1.445   2.977   0.497
  539SOL    HW2 1620   1.313   3.073   0.489
  540SOL     OW 1621   0.550   2.058   0.885
  540SOL    HW1 1622   0.545   2.053   0.985
  540SOL    HW2 1623   0.552   2.154   0.856
  541SOL     OW 1624   1.008   3.318   0.477
  541SOL    HW1 1625   0.962   3.390   0.425
  541SOL    HW2 1626   1.004   3.338   0.575
  542SOL     OW 1627   0.351   3.663   0.853
  542SOL    HW1 1628   0.401   3.577   0.859
  542SOL    HW2 1629   0.416   3.740   0.850
  543SOL     OW 1630   1.795   2.928   0.873
  543SOL    HW1 1631   1.733   2.913   0.797
  543SOL    HW2 1632   1.743   2.939   0.958
  544SOL     OW 1633   1.227   3.412   1.506
  544SOL    HW1 1634   1.233   3.335   1.570
  544SOL    HW2 1635   1.175   3.386   1.426
  545SOL     OW 1636   0.321   2.805   0.242
  545SOL    HW1 1637   0.403   2.844   0.200
  545SOL    HW2 1638   0.294   2.723   0.193
  546SOL     OW 1639   1.458   2.597   0.728
  546SOL    HW1 1640   1.453   2.532   0.803
  546SOL    HW2 1641   1.538   2.656   0.741
  547SOL     OW 1642   0.461   3.128   1.727
  547SOL    HW1 1643   0.411   3.129   1.641
  547SOL    HW2 1644   0.398   3.110   1.803
  548SOL     OW 1645   1.111   3.638   0.237
  548SOL    HW1 1646   1.051   3.576   0.287
  548SOL    HW2 1647   1.142   3.594   0.152
  549SOL     OW 1648   0.202   2.147   1.498
  549SOL    HW1 1649   0.122   2.207   1.485
  549SOL    HW2 1650   0.192   2.098   1.584
  550SOL     OW 1651   1.632   3.239   0.081
  550SOL    HW1 1652   1.600   3.333   0.071
  550SOL    HW2 1653   1.556   3.176   0.069
  551SOL     OW 1654   0.464   3.605   0.323
  551SOL    HW1 1655   0.497   3.644   0.409
  551SOL    HW2 1656   0.540   3.598   0.258
  552SOL     OW 1657   1.400   1.969   0.426
  552SOL    HW1 1658   1.376   1.932   0.336
  552SOL    HW2 1659   1.499   1.985   0.430
  553SOL     OW 1660   0.249   3.647   1.241
  553SOL    HW1 1661   0.306   3.582   1.291
  553SOL    HW2 1662   0.233   3.614   1.148
  554SOL     OW 1663   0.940   3.560   0.904
  554SOL    HW1 1664   1.020   3.503   0.925
  554SOL    HW2 1665   0.891   3.520   0.827
  555SOL     OW 1666   0.382   2.562   0.480
  555SOL    HW1 1667   0.427   2.472   0.477
  555SOL    HW2 1668   0.288   2.551   0.513
  556SOL     OW 1669   1.547   2.084   1.729
  556SOL    HW1 1670   1.542   2.121   1.821
  556SOL    HW2 1671   1.475   2.015   1.717
  557SOL     OW 1672   0.614   1.984   0.117
  557SOL    HW1 1673   0.712   1.962   0.124
  557SOL    HW2 1674   0.583   1.967   0.024
  558SOL     OW 1675   0.781   2.126   1.749
  558SOL    HW1 1676   0.848   2.065   1.792
  558SOL    HW2 1677   0.708   2.145   1.814
  559SOL     OW 1678   0.888   3.376   1.195
  559SOL    HW1 1679   0.865   3.351   1.101
  559SOL    HW2 1680   0.949   3.307   1.234
  560SOL     OW 1681   1.351   2.452   1.433
  560SOL    HW1 1682   1.379   2.409   1.518
  560SOL    HW2 1683   1.376   2.548   1.434
  561SOL     OW 1684   0.803   3.264   0.924
  561SOL    HW1 1685   0.893   3.278   0.882
  561SOL    HW2 1686   0.732   3.266   0.853
  562SOL     OW 1687   0.922   2.365   0.899
  562SOL    HW1 1688   0.897   2.356   0.803
  562SOL    HW2 1689   0.970   2.283   0.930
  563SOL     OW 1690   0.539   1.926   0.512
  563SOL    HW1 1691   0.458   1.927   0.570
  563SOL    HW2 1692   0.542   2.009   0.457
  564SOL     OW 1693   1.434   3.050   0.041
  564SOL    HW1 1694   1.466   2.974   0.098
  564SOL    HW2 1695   1.342   3.077   0.071
  565SOL     OW 1696   0.297   1.897   0.171
  565SOL    HW1 1697   0.346   1.981   0.150
  565SOL    HW2 1698   0.359   1.832   0.216
  566SOL     OW 1699   0.935   2.098   0.480
  566SOL    HW1 1700   0.887   2.139   0.402
  566SOL    HW2 1701   1.034   2.096   0.461
  567SOL     OW 1702   1.076   2.545   1.464
  567SOL    HW1 1703   0.996   2.484   1.467
  567SOL    HW2 1704   1.157   2.492   1.440
  568SOL     OW 1705   1.227   3.432   0.793
  568SOL    HW1 1706   1.248   3.506   0.728
  568SOL    HW2 1707   1.295   3.432   0.866
  569SOL     OW 1708   0.459   3.014   0.741
  569SOL    HW1 1709   0.388   2.987   0.806
  569SOL    HW2 1710   0.433   2.986   0.648
  570SOL     OW 1711   1.271   3.659   0.591
  570SOL    HW1 1712   1.315   3.723   0.527
  570SOL    HW2 1713   1.221   3.711   0.661
  571SOL     OW 1714   1.032   2.411   0.016
  571SOL    HW1 1715   0.991   2.493  -0.023
  571SOL    HW2 1716   1.096   2.437   0.089
  572SOL     OW 1717   0.078   2.418   1.386
  572SOL    HW1 1718   0.170   2.417   1.345
  572SOL    HW2 1719   0.072   2.492   1.453
  573SOL     OW 1720   0.561   2.084   1.147
  573SOL    HW1 1721   0.599   2.000   1.184
  573SOL    HW2 1722   0.473   2.103   1.191
  574SOL     OW 1723   0.866   2.316   0.642
  574SOL    HW1 1724   0.834   2.388   0.580
  574SOL    HW2 1725   0.890   2.235   0.589
  575SOL     OW 1726   1.017   1.901   0.753
  575SOL    HW1 1727   0.945   1.906   0.684
  575SOL    HW2 1728   0.993   1.832   0.822
  576SOL     OW 1729   1.429   3.035   0.867
  576SOL    HW1 1730   1.374   2.951   0.860
  576SOL    HW2 1731   1.455   3.064   0.775
  577SOL     OW 1732   1.466   2.452   0.992
  577SOL    HW1 1733   1.436   2.357   0.999
  577SOL    HW2 1734   1.539   2.468   1.058
  578SOL     OW 1735   1.857   2.695   0.377
  578SOL    HW1 1736   1.899   2.631   0.441
  578SOL    HW2 1737   1.819   2.644   0.299
  579SOL     OW 1738   0.488   3.247   0.174
  579SOL    HW1 1739   0.401   3.232   0.221
  579SOL    HW2 1740   0.471   3.273   0.079
  580SOL     OW 1741   1.664   3.142   0.657
  580SOL    HW1 1742   1.763   3.150   0.671
  580SOL    HW2 1743   1.619   3.226   0.688
  581SOL     OW 1744   1.390   2.437   0.078
  581SOL    HW1 1745   1.336   2.416   0.159
  581SOL    HW2 1746   1.481   2.396   0.087
  582SOL     OW 1747   0.527   2.118   0.328
  582SOL    HW1 1748   0.554   2.059   0.253
  582SOL    HW2 1749   0.527   2.213   0.297
  583SOL     OW 1750   1.754   3.085   1.588
  583SOL    HW1 1751   1.845   3.046   1.575
  583SOL    HW2 1752   1.762   3.181   1.612
  584SOL     OW 1753   1.064   3.209   1.340
  584SOL    HW1 1754   0.984   3.186   1.395
  584SOL    HW2 1755   1.147   3.183   1.389
  585SOL     OW 1756   1.592   3.491   1.625
  585SOL    HW1 1757   1.619   3.525   1.535
  585SOL    HW2 1758   1.671   3.453   1.671
  586SOL     OW 1759   1.111   3.057   1.100
  586SOL    HW1 1760   1.071   3.101   1.181
  586SOL    HW2 1761   1.070   3.094   1.017
  587SOL     OW 1762   1.638   2.961   1.079
  587SOL    HW1 1763   1.643   3.042   1.138
  587SOL    HW2 1764   1.552   2.963   1.028
  588SOL     OW 1765   0.915   1.951   1.402
  588SOL    HW1 1766   0.940   1.931   1.307
  588SOL    HW2 1767   0.987   2.007   1.444
  589SOL     OW 1768   0.980   2.978   1.719
  589SOL    HW1 1769   0.881   2.984   1.729
  589SOL    HW2 1770   1.003   2.898   1.663
  590SOL     OW 1771   0.705   2.912   0.368
  590SOL    HW1 1772   0.691   2.919   0.467
  590SOL    HW2 1773   0.789   2.861   0.350
  591SOL     OW 1774   0.410   2.675   1.251
  591SOL    HW1 1775   0.496   2.687   1.301
  591SOL    HW2 1776   0.368   2.588   1.278
  592SOL     OW 1777   1.274   2.248   1.262
  592SOL    HW1 1778   1.295   2.322   1.326
  592SOL    HW2 1779   1.185   2.265   1.219
  593SOL     OW 1780   0.064   3.426   1.331
  593SOL    HW1 1781   0.018   3.508   1.297
  593SOL    HW2 1782   0.162   3.445   1.340
  594SOL     OW 1783   0.367   2.962   0.501
  594SOL    HW1 1784   0.360   3.045   0.445
  594SOL    HW2 1785   0.371   2.882   0.441
  595SOL     OW 1786   0.566   2.399   0.865
  595SOL    HW1 1787   0.578   2.465   0.791
  595SOL    HW2 1788   0.612   2.433   0.948
  596SOL     OW 1789   1.252   3.210   0.388
  596SOL    HW1 1790   1.302   3.287   0.428
  596SOL    HW2 1791   1.157   3.212   0.420
  597SOL     OW 1792   1.272   3.307   1.142
  597SOL    HW1 1793   1.319   3.320   1.229
  597SOL    HW2 1794   1.206   3.233   1.151
  598SOL     OW 1795   1.582   2.501   0.472
  598SOL    HW1 1796   1.551   2.562   0.545
  598SOL    HW2 1797   1.632   2.553   0.403
  599SOL     OW 1798   0.354   3.372   1.329
  599SOL    HW1 1799   0.333   3.328   1.242
  599SOL    HW2 1800   0.451   3.398   1.332
  600SOL     OW 1801   0.402   2.613   1.598
  600SOL    HW1 1802   0.470   2.668   1.551
  600SOL    HW2 1803   0.442   2.525   1.625
  601SOL     OW 1804   1.587   2.641   1.670
  601SOL    HW1 1805   1.495   2.679   1.665
  601SOL    HW2 1806   1.647   2.688   1.605
  602SOL     OW 1807   1.013   1.967   1.770
  602SOL    HW1 1808   1.019   2.052   1.718
  602SOL    HW2 1809   1.045   1.891   1.713
  603SOL     OW 1810   0.504   1.912   1.740
  603SOL    HW1 1811   0.462   1.855   1.670
  603SOL    HW2 1812   0.438   1.981   1.772
  604SOL     OW 1813   0.573   2.732   1.029
  604SOL    HW1 1814   0.617   2.821   1.020
  604SOL    HW2 1815   0.510   2.732   1.106
  605SOL     OW 1816   1.360   2.724   1.045
  605SOL    HW1 1817   1.285   2.724   0.979
  605SOL    HW2 1818   1.397   2.632   1.054
  606SOL     OW 1819   1.209   2.387   0.275
  606SOL    HW1 1820   1.222   2.303   0.329
  606SOL    HW2 1821   1.180   2.461   0.335
  607SOL     OW 1822   0.307   2.075   1.231
  607SOL    HW1 1823   0.284   2.112   1.321
  607SOL    HW2 1824   0.277   1.980   1.225
  608SOL     OW 1825   0.037   3.172   1.282
  608SOL    HW1 1826   0.090   3.123   1.350
  608SOL    HW2 1827   0.059   3.270   1.287
  609SOL     OW 1828   0.732   2.496   1.064
  609SOL    HW1 1829   0.791   2.470   0.988
  609SOL    HW2 1830   0.704   2.592   1.053
  610SOL     OW 1831   1.728   2.797   1.854
  610SOL    HW1 1832   1.682   2.790   1.765
  610SOL    HW2 1833   1.666   2.841   1.920
  611SOL     OW 1834   0.307   1.925   0.618
  611SOL    HW1 1835   0.296   2.019   0.651
  611SOL    HW2 1836   0.302   1.862   0.695
  612SOL     OW 1837   1.622   2.229   0.374
  612SOL    HW1 1838   1.624   2.153   0.438
  612SOL    HW2 1839   1.574   2.306   0.414
  613SOL     OW 1840   1.023   2.628   0.966
  613SOL    HW1 1841   1.038   2.649   1.062
  613SOL    HW2 1842   0.993   2.533   0.957
  614SOL     OW 1843   0.980   3.435   1.700
  614SOL    HW1 1844   0.960   3.479   1.612
  614SOL    HW2 1845   1.019   3.344   1.684
  615SOL     OW 1846   1.859   3.380   1.605
  615SOL    HW1 1847   1.873   3.407   1.510
  615SOL    HW2 1848   1.942   3.402   1.658
  616SOL     OW 1849   0.350   2.760   1.804
  616SOL    HW1 1850   0.426   2.804   1.852
  616SOL    HW2 1851   0.385   2.713   1.722
  617SOL     OW 1852   1.540   2.136   0.125
  617SOL    HW1 1853   1.479   2.061   0.148
  617SOL    HW2 1854   1.562   2.188   0.208
  618SOL     OW 1855   1.303   2.700   0.042
  618SOL    HW1 1856   1.337   2.607   0.057
  618SOL    HW2 1857   1.321   2.727  -0.053
  619SOL     OW 1858   1.068   3.195   0.849
  619SOL    HW1 1859   1.075   3.111   0.794
  619SOL    HW2 1860   1.130   3.264   0.813
  620SOL     OW 1861   0.319   2.672   0.949
  620SOL    HW1 1862   0.412   2.708   0.954
  620SOL    HW2 1863   0.313   2.587   1.001
  621SOL     OW 1864   0.339   2.371   1.006
  621SOL    HW1 1865   0.287   2.288   0.989
  621SOL    HW2 1866   0.416   2.376   0.942
  622SOL     OW 1867   1.138   2.242   1.678
  622SOL    HW1 1868   1.093   2.305   1.742
  622SOL    HW2 1869   1.231   2.273   1.661
  623SOL     OW 1870   1.160   2.069   1.477
  623SOL    HW1 1871   1.160   2.133   1.554
  623SOL    HW2 1872   1.188   2.117   1.394
  624SOL     OW 1873   0.008   3.188   0.200
  624SOL    HW1 1874  -0.085   3.209   0.169
  624SOL    HW2 1875   0.018   3.089   0.213
  625SOL     OW 1876   0.088   3.663   0.927
  625SOL    HW1 1877   0.046   3.577   0.900
  625SOL    HW2 1878   0.182   3.666   0.893
  626SOL     OW 1879   0.504   3.430   0.910
  626SOL    HW1 1880   0.570   3.504   0.919
  626SOL    HW2 1881   0.548   3.351   0.868
  627SOL     OW 1882   1.002   2.658   1.238
  627SOL    HW1 1883   1.043   2.626   1.324
  627SOL    HW2 1884   0.906   2.631   1.235
  628SOL     OW 1885   0.040   2.406   1.114
  628SOL    HW1 1886   0.125   2.373   1.073
  628SOL    HW2 1887   0.053   2.421   1.212
  629SOL     OW 1888   0.189   2.382   1.722
  629SOL    HW1 1889   0.248   2.342   1.652
  629SOL    HW2 1890   0.131   2.453   1.681
  630SOL     OW 1891   1.369   2.812   1.660
  630SOL    HW1 1892   1.408   2.901   1.680
  630SOL    HW2 1893   1.379   2.792   1.563
  631SOL     OW 1894   0.815   2.434   0.325
  631SOL    HW1 1895   0.822   2.345   0.279
  631SOL    HW2 1896   0.721   2.468   0.317
  632SOL     OW 1897   1.657   2.466   1.206
  632SOL    HW1 1898   1.619   2.397   1.268
  632SOL    HW2 1899   1.739   2.430   1.162
  633SOL     OW 1900   0.252   3.426   1.744
  633SOL    HW1 1901   0.222   3.483   1.820
  633SOL    HW2 1902   0.245   3.329   1.770
  634SOL     OW 1903   0.671   2.326   1.269
  634SOL    HW1 1904   0.637   2.237   1.239
  634SOL    HW2 1905   0.697   2.380   1.189
  635SOL     OW 1906   0.930   3.540   1.465
  635SOL    HW1 1907   0.906   3.522   1.370
  635SOL    HW2 1908   0.960   3.634   1.475
  636SOL     OW 1909   0.473   2.362   0.191
  636SOL    HW1 1910   0.534   2.442   0.195
  636SOL    HW2 1911   0.378   2.393   0.198
  637SOL     OW 1912   0.159   2.999   1.466
  637SOL    HW1 1913   0.181   2.938   1.542
  637SOL    HW2 1914   0.169   2.950   1.380
  638SOL     OW 1915   1.347   2.921   1.234
  638SOL    HW1 1916   1.371   2.858   1.160
  638SOL    HW2 1917   1.257   2.961   1.216
  639SOL     OW 1918   1.302   2.717   0.309
  639SOL    HW1 1919   1.216   2.686   0.351
  639SOL    HW2 1920   1.298   2.703   0.210
  640SOL     OW 1921   1.759   3.609   1.154
  640SOL    HW1 1922   1.820   3.639   1.081
  640SOL    HW2 1923   1.721   3.520   1.132
  641SOL     OW 1924   1.252   3.593   1.128
  641SOL    HW1 1925   1.336   3.598   1.074
  641SOL    HW2 1926   1.229   3.497   1.146
  642SOL     OW 1927   0.083   3.120   1.022
  642SOL    HW1 1928   0.078   3.119   1.122
  642SOL    HW2 1929   0.000   3.079   0.984
  643SOL     OW 1930   0.688   3.524   1.716
  643SOL    HW1 1931   0.632   3.605   1.725
  643SOL    HW2 1932   0.740   3.528   1.630
  644SOL     OW 1933   0.903   1.948   0.133
  644SOL    HW1 1934   0.954   1.949   0.047
  644SOL    HW2 1935   0.959   1.906   0.204
  645SOL     OW 1936   1.726   1.997   0.523
  645SOL    HW1 1937   1.799   1.980   0.456
  645SOL    HW2 1938   1.695   1.910   0.561
  646SOL     OW 1939   1.388   3.435   0.477
  646SOL    HW1 1940   1.455   3.447   0.403
  646SOL    HW2 1941   1.348   3.524   0.500
  647SOL     OW 1942   0.130   3.656   1.851
  647SOL    HW1 1943   0.089   3.582   1.904
  647SOL    HW2 1944   0.194   3.707   1.909
  648SOL     OW 1945   1.280   2.789   0.672
  648SOL    HW1 1946   1.340   2.708   0.674
  648SOL    HW2 1947   1.320   2.858   0.612
  649SOL     OW 1948   0.830   3.135   1.422
  649SOL    HW1 1949   0.825   3.168   1.517
  649SOL    HW2 1950   0.744   3.154   1.376
  650SOL     OW 1951   0.672   3.478   0.154
  650SOL    HW1 1952   0.681   3.488   0.055
  650SOL    HW2 1953   0.632   3.389   0.175
  651SOL     OW 1954   1.650   3.582   1.394
  651SOL    HW1 1955   1.703   3.592   1.310
  651SOL    HW2 1956   1.623   3.672   1.428
  652SOL     OW 1957   1.841   2.037   0.963
  652SOL    HW1 1958   1.880   1.952   0.927
  652SOL    HW2 1959   1.743   2.039   0.944
  653SOL     OW 1960   0.263   2.188   0.720
  653SOL    HW1 1961   0.184   2.239   0.686
  653SOL    HW2 1962   0.254   2.173   0.818
  654SOL     OW 1963   1.194   3.474   0.031
  654SOL    HW1 1964   1.200   3.381   0.068
  654SOL    HW2 1965   1.135   3.474  -0.049
  655SOL     OW 1966   0.822   2.864   1.372
  655SOL    HW1 1967   0.862   2.863   1.280
  655SOL    HW2 1968   0.832   2.956   1.412
  656SOL     OW 1969   0.916   2.772   0.291
  656SOL    HW1 1970   0.979   2.810   0.223
  656SOL    HW2 1971   0.956   2.689   0.330
  657SOL     OW 1972   1.504   3.469   0.044
  657SOL    HW1 1973   1.412   3.506   0.051
  657SOL    HW2 1974   1.542   3.489  -0.046
  658SOL     OW 1975   0.372   3.150   1.490
  658SOL    HW1 1976   0.359   3.243   1.456
  658SOL    HW2 1977   0.288   3.098   1.477
  659SOL     OW 1978   1.614   3.154   1.289
  659SOL    HW1 1979   1.674   3.157   1.369
  659SOL    HW2 1980   1.539   3.218   1.302
  660SOL     OW 1981   1.039   2.960   0.696
  660SOL    HW1 1982   0.969   2.913   0.750
  660SOL    HW2 1983   1.098   2.892   0.653
  661SOL     OW 1984   1.014   2.098   0.971
  661SOL    HW1 1985   1.006   2.062   0.878
  661SOL    HW2 1986   1.012   2.022   1.036
  662SOL     OW 1987   0.590   3.349   0.491
  662SOL    HW1 1988   0.632   3.291   0.421
  662SOL    HW2 1989   0.546   3.428   0.447
  663SOL     OW 1990   1.709   2.247   1.381
  663SOL    HW1 1991   1.782   2.316   1.385
  663SOL    HW2 1992   1.737   2.172   1.322
  664SOL     OW 1993   0.255   3.210   0.290
  664SOL    HW1 1994   0.159   3.211   0.263
  664SOL    HW2 1995   0.267   3.263   0.374
  665SOL     OW 1996   0.105   2.875   1.726
  665SOL    HW1 1997   0.028   2.842   1.780
  665SOL    HW2 1998   0.190   2.845   1.768
  666SOL     OW 1999   0.672   2.065   1.489
  666SOL    HW1 2000   0.762   2.049   1.449
  666SOL    HW2 2001   0.680   2.070   1.588
  667SOL     OW 2002   0.075   2.207   0.033
  667SOL    HW1 2003  -0.017   2.179   0.004
  667SOL    HW2 2004   0.106   2.284  -0.023
  668SOL     OW 2005   1.440   2.718   1.398
  668SOL    HW1 2006   1.383   2.770   1.335
  668SOL    HW2 2007   1.536   2.730   1.374
  669SOL     OW 2008   0.072   2.028   0.318
  669SOL    HW1 2009   0.055   2.111   0.264
  669SOL    HW2 2010   0.162   1.991   0.296
  670SOL     OW 2011   1.183   3.197   0.119
  670SOL    HW1 2012   1.084   3.186   0.121
  670SOL    HW2 2013   1.217   3.212   0.212
  671SOL     OW 2014   0.613   2.704   1.431
  671SOL    HW1 2015   0.669   2.785   1.414
  671SOL    HW2 2016   0.672   2.624   1.434
  672SOL     OW 2017   1.493   3.629   0.959
  672SOL    HW1 2018   1.526   3.693   0.890
  672SOL    HW2 2019   1.559   3.623   1.034
  673SOL     OW 2020   0.716   2.427   1.708
  673SOL    HW1 2021   0.735   2.492   1.782
  673SOL    HW2 2022   0.776   2.347   1.717
  674SOL     OW 2023   1.450   3.082   1.633
  674SOL    HW1 2024   1.441   3.072   1.732
  674SOL    HW2 2025   1.546   3.075   1.607
  675SOL     OW 2026   0.390   3.603   1.560
  675SOL    HW1 2027   0.299   3.644   1.558
  675SOL    HW2 2028   0.383   3.509   1.592
  676SOL     OW 2029   1.674   2.745   1.254
  676SOL    HW1 2030   1.647   2.656   1.217
  676SOL    HW2 2031   1.675   2.813   1.181
  677SOL     OW 2032   1.225   2.187   0.449
  677SOL    HW1 2033   1.290   2.113   0.438
  677SOL    HW2 2034   1.245   2.237   0.533
  678SOL     OW 2035   0.594   2.607   0.652
  678SOL    HW1 2036   0.644   2.692   0.633
  678SOL    HW2 2037   0.506   2.609   0.604
  679SOL     OW 2038   1.777   2.204   1.642
  679SOL    HW1 2039   1.760   2.235   1.548
  679SOL    HW2 2040   1.693   2.167   1.680
  680SOL     OW 2041   1.730   2.796   1.517
  680SOL    HW1 2042   1.768   2.887   1.532
  680SOL    HW2 2043   1.722   2.779   1.418
  681SOL     OW 2044   0.859   3.236   0.016
  681SOL    HW1 2045   0.813   3.251   0.104
  681SOL    HW2 2046   0.903   3.321  -0.014
  682SOL     OW 2047   0.661   3.652   0.953
  682SOL    HW1 2048   0.615   3.740   0.940
  682SOL    HW2 2049   0.760   3.664   0.946
  683SOL     OW 2050   0.859   2.818   0.861
  683SOL    HW1 2051   0.913   2.749   0.909
  683SOL    HW2 2052   0.827   2.887   0.927
  684SOL     OW 2053   1.083   2.846   0.087
  684SOL    HW1 2054   1.060   2.899   0.005
  684SOL    HW2 2055   1.164   2.790   0.068
  685SOL     OW 2056   1.861   3.431   0.851
  685SOL    HW1 2057   1.790   3.419   0.781
  685SOL    HW2 2058   1.862   3.352   0.911
  686SOL     OW 2059   0.221   3.176   1.844
  686SOL    HW1 2060   0.156   3.103   1.823
  686SOL    HW2 2061   0.225   3.190   1.942
  687SOL     OW 2062   0.079   3.102   0.653
  687SOL    HW1 2063   0.078   3.055   0.741
  687SOL    HW2 2064   0.161   3.074   0.602
  688SOL     OW 2065   0.672   3.253   1.624
  688SOL    HW1 2066   0.594   3.203   1.662
  688SOL    HW2 2067   0.669   3.348   1.655
  689SOL     OW 2068   1.824   2.054   1.227
  689SOL    HW1 2069   1.820   1.964   1.271
  689SOL    HW2 2070   1.827   2.043   1.128
  690SOL     OW 2071   0.428   2.286   0.520
  690SOL    HW1 2072   0.458   2.214   0.458
  690SOL    HW2 2073   0.389   2.246   0.603
  691SOL     OW 2074   1.705   3.349   1.104
  691SOL    HW1 2075   1.612   3.324   1.077
  691SOL    HW2 2076   1.731   3.299   1.186
  692SOL     OW 2077   0.317   2.409   1.280
  692SOL    HW1 2078   0.355   2.350   1.352
  692SOL    HW2 2079   0.357   2.383   1.192
  693SOL     OW 2080   0.812   3.448   0.687
  693SOL    HW1 2081   0.844   3.458   0.593
  693SOL    HW2 2082   0.733   3.386   0.689
  694SOL     OW 2083   1.424   2.076   1.112
  694SOL    HW1 2084   1.476   2.011   1.167
  694SOL    HW2 2085   1.375   2.139   1.173
  695SOL     OW 2086   1.001   1.896   1.154
  695SOL    HW1 2087   0.938   1.824   1.123
  695SOL    HW2 2088   1.094   1.860   1.154
  696SOL     OW 2089   0.770   3.192   0.301
  696SOL    HW1 2090   0.724   3.105   0.318
  696SOL    HW2 2091   0.861   3.189   0.342
  697SOL     OW 2092   0.618   3.429   1.284
  697SOL    HW1 2093   0.613   3.511   1.341
  697SOL    HW2 2094   0.707   3.426   1.239
  698SOL     OW 2095   1.352   1.914   0.168
  698SOL    HW1 2096   1.387   1.873   0.084
  698SOL    HW2 2097   1.262   1.876   0.188
  699SOL     OW 2098   1.300   2.315   0.691
  699SOL    HW1 2099   1.241   2.395   0.695
  699SOL    HW2 2100   1.315   2.280   0.784
  700SOL     OW 2101   1.593   2.083   0.882
  700SOL    HW1 2102   1.509   2.082   0.936
  700SOL    HW2 2103   1.595   2.166   0.826
  701SOL     OW 2104   0.039   2.939   0.300
  701SOL    HW1 2105   0.138   2.928   0.291
  701SOL    HW2 2106  -0.001   2.853   0.332
  702SOL     OW 2107   0.875   3.508   0.337
  702SOL    HW1 2108   0.798   3.473   0.283
  702SOL    HW2 2109   0.843   3.579   0.399
  703SOL     OW 2110   0.230   2.490   1.975
  703SOL    HW1 2111   0.137   2.488   2.012
  703SOL    HW2 2112   0.231   2.451   1.883
  704SOL     OW 2113   0.225   2.137   2.858
  704SOL    HW1 2114   0.260   2.120   2.950
  704SOL    HW2 2115   0.137   2.092   2.846
  705SOL     OW 2116   0.019   2.230   2.509
  705SOL    HW1 2117  -0.063   2.273   2.548
  705SOL    HW2 2118  -0.009   2.157   2.446
  706SOL     OW 2119   0.569   3.137   3.027
  706SOL    HW1 2120   0.476   3.130   2.990
  706SOL    HW2 2121   0.580   3.226   3.071
  707SOL     OW 2122   1.555   3.373   2.565
  707SOL    HW1 2123   1.498   3.357   2.646
  707SOL    HW2 2124   1.496   3.383   2.485
  708SOL     OW 2125   1.135   2.565   2.579
  708SOL    HW1 2126   1.192   2.643   2.554
  708SOL    HW2 2127   1.075   2.591   2.655
  709SOL     OW 2128   1.755   2.469   2.093
  709SOL    HW1 2129   1.743   2.456   1.994
  709SOL    HW2 2130   1.725   2.388   2.142
  710SOL     OW 2131   0.768   3.006   2.885
  710SOL    HW1 2132   0.690   3.023   2.945
  710SOL    HW2 2133   0.802   3.093   2.849
  711SOL     OW 2134   0.850   2.660   3.685
  711SOL    HW1 2135   0.846   2.736   3.750
  711SOL    HW2 2136   0.872   2.696   3.594
  712SOL     OW 2137   0.685   2.874   2.527
  712SOL    HW1 2138   0.754   2.858   2.597
  712SOL    HW2 2139   0.612   2.931   2.565
  713SOL     OW 2140   0.686   3.023   3.665
  713SOL    HW1 2141   0.746   3.102   3.679
  713SOL    HW2 2142   0.600   3.054   3.624
  714SOL     OW 2143   0.335   3.297   2.923
  714SOL    HW1 2144   0.257   3.266   2.870
  714SOL    HW2 2145   0.393   3.355   2.866
  715SOL     OW 2146   1.460   3.367   3.201
  715SOL    HW1 2147   1.484   3.461   3.227
  715SOL    HW2 2148   1.444   3.313   3.283
  716SOL     OW 2149   0.438   2.254   3.361
  716SOL    HW1 2150   0.520   2.198   3.370
  716SOL    HW2 2151   0.357   2.196   3.365
  717SOL     OW 2152   1.603   2.309   2.599
  717SOL    HW1 2153   1.529   2.355   2.549
  717SOL    HW2 2154   1.654   2.377   2.652
  718SOL     OW 2155   0.231   3.575   2.345
  718SOL    HW1 2156   0.265   3.652   2.399
  718SOL    HW2 2157   0.275   3.575   2.255
  719SOL     OW 2158   1.127   3.203   3.552
  719SOL    HW1 2159   1.174   3.203   3.640
  719SOL    HW2 2160   1.079   3.116   3.541
  720SOL     OW 2161   0.230   3.296   2.400
  720SOL    HW1 2162   0.204   3.392   2.400
  720SOL    HW2 2163   0.159   3.242   2.445
  721SOL     OW 2164   0.240   2.953   2.748
  721SOL    HW1 2165   0.254   2.869   2.800
  721SOL    HW2 2166   0.185   3.017   2.803
  722SOL     OW 2167   0.620   3.648   3.301
  722SOL    HW1 2168   0.528   3.631   3.336
  722SOL    HW2 2169   0.648   3.740   3.327
  723SOL     OW 2170   0.606   2.826   1.985
  723SOL    HW1 2171   0.613   2.910   1.931
  723SOL    HW2 2172   0.652   2.839   2.073
  724SOL     OW 2173   1.594   1.976   3.342
  724SOL    HW1 2174   1.576   2.043   3.270
  724SOL    HW2 2175   1.591   2.022   3.431
  725SOL     OW 2176   0.122   2.505   2.425
  725SOL    HW1 2177   0.077   2.417   2.442
  725SOL    HW2 2178   0.121   2.559   2.509
  726SOL     OW 2179   1.842   3.629   2.221
  726SOL    HW1 2180   1.896   3.600   2.301
  726SOL    HW2 2181   1.872   3.719   2.192
  727SOL     OW 2182   0.027   3.458   1.979
  727SOL    HW1 2183   0.008   3.362   2.000
  727SOL    HW2 2184  -0.006   3.516   2.054
  728SOL     OW 2185   1.689   2.784   2.474
  728SOL    HW1 2186   1.784   2.755   2.482
  728SOL    HW2 2187   1.681   2.849   2.399
  729SOL     OW 2188   1.641   2.970   2.294
  729SOL    HW1 2189   1.727   2.972   2.242
  729SOL    HW2 2190   1.655   3.017   2.382
  730SOL     OW 2191   0.113   2.599   3.459
  730SOL    HW1 2192   0.201   2.586   3.504
  730SOL    HW2 2193   0.100   2.696   3.437
  731SOL     OW 2194   0.613   3.227   2.588
  731SOL    HW1 2195   0.564   3.140   2.597
  731SOL    HW2 2196   0.590   3.270   2.501
  732SOL     OW 2197   1.293   3.090   3.285
  732SOL    HW1 2198   1.330   3.017   3.227
  732SOL    HW2 2199   1.345   3.095   3.370
  733SOL     OW 2200   0.809   1.866   2.364
  733SOL    HW1 2201   0.849   1.957   2.355
  733SOL    HW2 2202   0.709   1.874   2.370
  734SOL     OW 2203   0.197   2.838   3.126
  734SOL    HW1 2204   0.286   2.793   3.112
  734SOL    HW2 2205   0.124   2.773   3.107
  735SOL     OW 2206   1.525   2.861   2.052
  735SOL    HW1 2207   1.462   2.785   2.065
  735SOL    HW2 2208   1.573   2.879   2.138
  736SOL     OW 2209   1.187   3.654   3.478
  736SOL    HW1 2210   1.211   3.714   3.402
  736SOL    HW2 2211   1.194   3.559   3.448
  737SOL     OW 2212   0.317   2.113   3.663
  737SOL    HW1 2213   0.388   2.184   3.669
  737SOL    HW2 2214   0.229   2.152   3.691
  738SOL     OW 2215   1.466   3.279   2.815
  738SOL    HW1 2216   1.407   3.285   2.895
  738SOL    HW2 2217   1.451   3.191   2.769
  739SOL     OW 2218   1.667   3.576   2.434
  739SOL    HW1 2219   1.626   3.553   2.346
  739SOL    HW2 2220   1.649   3.502   2.499
  740SOL     OW 2221   0.598   2.591   2.132
  740SOL    HW1 2222   0.622   2.660   2.064
  740SOL    HW2 2223   0.520   2.624   2.186
  741SOL     OW 2224   1.281   2.207   2.806
  741SOL    HW1 2225   1.195   2.157   2.793
  741SOL    HW2 2226   1.343   2.153   2.862
  742SOL     OW 2227   1.576   3.524   2.169
  742SOL    HW1 2228   1.665   3.570   2.172
  742SOL    HW2 2229   1.555   3.500   2.074
  743SOL     OW 2230   0.807   2.467   3.327
  743SOL    HW1 2231   0.760   2.464   3.416
  743SOL    HW2 2232   0.756   2.412   3.261
  744SOL     OW 2233   1.394   2.331   3.536
  744SOL    HW1 2234   1.374   2.374   3.624
  744SOL    HW2 2235   1.472   2.269   3.545
  745SOL     OW 2236   0.973   2.752   3.434
  745SOL    HW1 2237   1.019   2.668   3.405
  745SOL    HW2 2238   0.917   2.786   3.359
  746SOL     OW 2239   0.991   2.272   3.104
  746SOL    HW1 2240   0.914   2.306   3.158
  746SOL    HW2 2241   0.957   2.221   3.025
  747SOL     OW 2242   1.041   2.563   2.291
  747SOL    HW1 2243   1.067   2.559   2.387
  747SOL    HW2 2244   0.956   2.512   2.277
  748SOL     OW 2245   0.076   2.673   2.651
  748SOL    HW1 2246   0.175   2.661   2.660
  748SOL    HW2 2247   0.052   2.768   2.672
  749SOL     OW 2248   0.130   3.683   3.433
  749SOL    HW1 2249   0.120   3.668   3.532
  749SOL    HW2 2250   0.044   3.719   3.397
  750SOL     OW 2251   0.865   2.210   2.057
  750SOL    HW1 2252   0.924   2.273   2.008
  750SOL    HW2 2253   0.884   2.116   2.028
  751SOL     OW 2254   1.719   2.447   3.693
  751SOL    HW1 2255   1.693   2.536   3.657
  751SOL    HW2 2256   1.717   2.379   3.620
  752SOL     OW 2257   1.362   3.006   2.407
  752SOL    HW1 2258   1.445   2.977   2.359
  752SOL    HW2 2259   1.313   3.073   2.351
  753SOL     OW 2260   0.550   2.058   2.747
  753SOL    HW1 2261   0.545   2.053   2.847
  753SOL    HW2 2262   0.552   2.154   2.718
  754SOL     OW 2263   1.008   3.318   2.339
  754SOL    HW1 2264   0.962   3.390   2.287
  754SOL    HW2 2265   1.004   3.338   2.437
  755SOL     OW 2266   0.351   3.663   2.715
  755SOL    HW1 2267   0.401   3.577   2.721
  755SOL    HW2 2268   0.416   3.740   2.712
  756SOL     OW 2269   1.795   2.928   2.735
  756SOL    HW1 2270   1.733   2.913   2.659
  756SOL    HW2 2271   1.743   2.939   2.820
  757SOL     OW 2272   1.227   3.412   3.368
  757SOL    HW1 2273   1.233   3.335   3.432
  757SOL    HW2 2274   1.175   3.386   3.288
  758SOL     OW 2275   0.321   2.805   2.104
  758SOL    HW1 2276   0.403   2.844   2.062
  758SOL    HW2 2277   0.294   2.723   2.055
  759SOL     OW 2278   1.458   2.597   2.590
  759SOL    HW1 2279   1.453   2.532   2.665
  759SOL    HW2 2280   1.538   2.656   2.603
  760SOL     OW 2281   0.461   3.128   3.589
  760SOL    HW1 2282   0.411   3.129   3.503
  760SOL    HW2 2283   0.398   3.110   3.665
  761SOL     OW 2284   1.111   3.638   2.099
  761SOL    HW1 2285   1.051   3.576   2.149
  761SOL    HW2 2286   1.142   3.594   2.014
  762SOL     OW 2287   0.202   2.147   3.360
  762SOL    HW1 2288   0.122   2.207   3.347
  762SOL    HW2 2289   0.192   2.098   3.446
  763SOL     OW 2290   1.632   3.239   1.943
  763SOL    HW1 2291   1.600   3.333   1.933
  763SOL    HW2 2292   1.556   3.176   1.931
  764SOL     OW 2293   0.464   3.605   2.185
  764SOL    HW1 2294   0.497   3.644   2.271
  764SOL    HW2 2295   0.540   3.598   2.120
  765SOL     OW 2296   1.400   1.969   2.288
  765SOL    HW1 2297   1.376   1.932   2.198
  765SOL    HW2 2298   1.499   1.985   2.292
  766SOL     OW 2299   0.249   3.647   3.103
  766SOL    HW1 2300   0.306   3.582   3.153
  766SOL    HW2 2301   0.233   3.614   3.010
  767SOL     OW 2302   0.940   3.560   2.766
  767SOL    HW1 2303   1.020   3.503   2.787
  767SOL    HW2 2304   0.891   3.520   2.689
  768SOL     OW 2305   0.382   2.562   2.342
  768SOL    HW1 2306   0.427   2.472   2.339
  768SOL    HW2 2307   0.288   2.551   2.375
  769SOL     OW 2308   1.547   2.084   3.591
  769SOL    HW1 2309   1.542   2.121   3.683
  769SOL    HW2 2310   1.475   2.015   3.579
  770SOL     OW 2311   0.614   1.984   1.979
  770SOL    HW1 2312   0.712   1.962   1.986
  770SOL    HW2 2313   0.583   1.967   1.886
  771SOL     OW 2314   0.781   2.126   3.611
  771SOL    HW1 2315   0.848   2.065   3.654
  771SOL    HW2 2316   0.708   2.145   3.676
  772SOL     OW 2317   0.888   3.376   3.057
  772SOL    HW1 2318   0.865   3.351   2.963
  772SOL    HW2 2319   0.949   3.307   3.096
  773SOL     OW 2320   1.351   2.452   3.295
  773SOL    HW1 2321   1.379   2.409   3.380
  773SOL    HW2 2322   1.376   2.548   3.296
  774SOL     OW 2323   0.803   3.264   2.786
  774SOL    HW1 2324   0.893   3.278   2.744
  774SOL    HW2 2325   0.732   3.266   2.715
  775SOL     OW 2326   0.922   2.365   2.761
  775SOL    HW1 2327   0.897   2.356   2.665
  775SOL    HW2 2328   0.970   2.283   2.792
  776SOL     OW 2329   0.539   1.926   2.374
  776SOL    HW1 2330   0.458   1.927   2.432
  776SOL    HW2 2331   0.542   2.009   2.319
  777SOL     OW 2332   1.434   3.050   1.903
  777SOL    HW1 2333   1.466   2.974   1.960
  777SOL    HW2 2334   1.342   3.077   1.933
  778SOL     OW 2335   0.297   1.897   2.033
  778SOL    HW1 2336   0.346   1.981   2.012
  778SOL    HW2 2337   0.359   1.832   2.078
  779SOL     OW 2338   0.935   2.098   2.342
  779SOL    HW1 2339   0.887   2.139   2.264
  779SOL    HW2 2340   1.034   2.096   2.323
  780SOL     OW 2341   1.076   2.545   3.326
  780SOL    HW1 2342   0.996   2.484   3.329
  780SOL    HW2 2343   1.157   2.492   3.302
  781SOL     OW 2344   1.227   3.432   2.655
  781SOL    HW1 2345   1.248   3.506   2.590
  781SOL    HW2 2346   1.295   3.432   2.728
  782SOL     OW 2347   0.459   3.014   2.603
  782SOL    HW1 2348   0.388   2.987   2.668
  782SOL    HW2 2349   0.433   2.986   2.510
  783SOL     OW 2350   1.271   3.659   2.453
  783SOL    HW1 2351   1.315   3.723   2.389
  783SOL    HW2 2352   1.221   3.711   2.523
  784SOL     OW 2353   1.032   2.411   1.878
  784SOL    HW1 2354   0.991   2.493   1.839
  784SOL    HW2 2355   1.096   2.437   1.951
  785SOL     OW 2356   0.078   2.418   3.248
  785SOL    HW1 2357   0.170   2.417   3.207
  785SOL    HW2 2358   0.072   2.492   3.315
  786SOL     OW 2359   0.561   2.084   3.009
  786SOL    HW1 2360   0.599   2.000   3.046
  786SOL    HW2 2361   0.473   2.103   3.053
  787SOL     OW 2362   0.866   2.316   2.504
  787SOL    HW1 2363   0.834   2.388   2.442
  787SOL    HW2 2364   0.890   2.235   2.451
  788SOL     OW 2365   1.017   1.901   2.615
  788SOL    HW1 2366   0.945   1.906   2.546
  788SOL    HW2 2367   0.993   1.832   2.684
  789SOL     OW 2368   1.429   3.035   2.729
  789SOL    HW1 2369   1.374   2.951   2.722
  789SOL    HW2 2370   1.455   3.064   2.637
  790SOL     OW 2371   1.466   2.452   2.854
  790SOL    HW1 2372   1.436   2.357   2.861
  790SOL    HW2 2373   1.539   2.468   2.920
  791SOL     OW 2374   1.857   2.695   2.239
  791SOL    HW1 2375   1.899   2.631   2.303
  791SOL    HW2 2376   1.819   2.644   2.161
  792SOL     OW 2377   0.488   3.247   2.036
  792SOL    HW1 2378   0.401   3.232   2.083
  792SOL    HW2 2379   0.471   3.273   1.941
  793SOL     OW 2380   1.664   3.142   2.519
  793SOL    HW1 2381   1.763   3.150   2.533
  793SOL    HW2 2382   1.619   3.226   2.550
  794SOL     OW 2383   1.390   2.437   1.940
  794SOL    HW1 2384   1.336   2.416   2.021
  794SOL    HW2 2385   1.481   2.396   1.949
  795SOL     OW 2386   0.527   2.118   2.190
  795SOL    HW1 2387   0.554   2.059   2.115
  795SOL    HW2 2388   0.527   2.213   2.159
  796SOL     OW 2389   1.754   3.085   3.450
  796SOL    HW1 2390   1.845   3.046   3.437
  796SOL    HW2 2391   1.762   3.181   3.474
  797SOL     OW 2392   1.064   3.209   3.202
  797SOL    HW1 2393   0.984   3.186   3.257
  797SOL    HW2 2394   1.147   3.183   3.251
  798SOL     OW 2395   1.592   3.491   3.487
  798SOL    HW1 2396   1.619   3.525   3.397
  798SOL    HW2 2397   1.671   3.453   3.533
  799SOL     OW 2398   1.111   3.057   2.962
  799SOL    HW1 2399   1.071   3.101   3.043
  799SOL    HW2 2400   1.070   3.094   2.879
  800SOL     OW 2401   1.638   2.961   2.941
  800SOL    HW1 2402   1.643   3.042   3.000
  800SOL    HW2 2403   1.552   2.963   2.890
  801SOL     OW 2404   0.915   1.951   3.264
  801SOL    HW1 2405   0.940   1.931   3.169
  801SOL    HW2 2406   0.987   2.007   3.306
  802SOL     OW 2407   0.980   2.978   3.581
  802SOL    HW1 2408   0.881   2.984   3.591
  802SOL    HW2 2409   1.003   2.898   3.525
  803SOL     OW 2410   0.705   2.912   2.230
  803SOL    HW1 2411   0.691   2.919   2.329
  803SOL    HW2 2412   0.789   2.861   2.212
  804SOL     OW 2413   0.410   2.675   3.113
  804SOL    HW1 2414   0.496   2.687   3.163
  804SOL    HW2 2415   0.368   2.588   3.140
  805SOL     OW 2416   1.274   2.248   3.124
  805SOL    HW1 2417   1.295   2.322   3.188
  805SOL    HW2 2418   1.185   2.265   3.081
  806SOL     OW 2419   0.064   3.426   3.193
  806SOL    HW1 2420   0.018   3.508   3.159
  806SOL    HW2 2421   0.162   3.445   3.202
  807SOL     OW 2422   0.367   2.962   2.363
  807SOL    HW1 2423   0.360   3.045   2.307
  807SOL    HW2 2424   0.371   2.882   2.303
  808SOL     OW 2425   0.566   2.399   2.727
  808SOL    HW1 2426   0.578   2.465   2.653
  808SOL    HW2 2427   0.612   2.433   2.810
  809SOL     OW 2428   1.252   3.210   2.250
  809SOL    HW1 2429   1.302   3.287   2.290
  809SOL    HW2 2430   1.157   3.212   2.282
  810SOL     OW 2431   1.272   3.307   3.004
  810SOL    HW1 2432   1.319   3.320   3.091
  810SOL    HW2 2433   1.206   3.233   3.013
  811SOL     OW 2434   1.582   2.501   2.334
  811SOL    HW1 2435   1.551   2.562   2.407
  811SOL    HW2 2436   1.632   2.553   2.265
  812SOL     OW 2437   0.354   3.372   3.191
  812SOL    HW1 2438   0.333   3.328   3.104
  812SOL    HW2 2439   0.451   3.398   3.194
  813SOL     OW 2440   0.402   2.613   3.460
  813SOL    HW1 2441   0.470   2.668   3.413
  813SOL    HW2 2442   0.442   2.525   3.487
  814SOL     OW 2443   1.587   2.641   3.532
  814SOL    HW1 2444   1.495   2.679   3.527
  814SOL    HW2 2445   1.647   2.688   3.467
  815SOL     OW 2446   1.013   1.967   3.632
  815SOL    HW1 2447   1.019   2.052   3.580
  815SOL    HW2 2448   1.045   1.891   3.575
  816SOL     OW 2449   0.504   1.912   3.602
  816SOL    HW1 2450   0.462   1.855   3.532
  816SOL    HW2 2451   0.438   1.981   3.634
  817SOL     OW 2452   0.573   2.732   2.891
  817SOL    HW1 2453   0.617   2.821   2.882
  817SOL    HW2 2454   0.510   2.732   2.968
  818SOL     OW 2455   1.360   2.724   2.907
  818SOL    HW1 2456   1.285   2.724   2.841
  818SOL    HW2 2457   1.397   2.632   2.916
  819SOL     OW 2458   1.209   2.387   2.137
  819SOL    HW1 2459   1.222   2.303   2.191
  819SOL    HW2 2460   1.180   2.461   2.197
  820SOL     OW 2461   0.307   2.075   3.093
  820SOL    HW1 2462   0.284   2.112   3.183
  820SOL    HW2 2463   0.277   1.980   3.087
  821SOL     OW 2464   0.037   3.172   3.144
  821SOL    HW1 2465   0.090   3.123   3.212
  821SOL    HW2 2466   0.059   3.270   3.149
  822SOL     OW 2467   0.732   2.496   2.926
  822SOL    HW1 2468   0.791   2.470   2.850
  822SOL    HW2 2469   0.704   2.592   2.915
  823SOL     OW 2470   1.728   2.797   3.716
  823SOL    HW1 2471   1.682   2.790   3.627
  823SOL    HW2 2472   1.666   2.841   3.782
  824SOL     OW 2473   0.307   1.925   2.480
  824SOL    HW1 2474   0.296   2.019   2.513
  824SOL    HW2 2475   0.302   1.862   2.557
  825SOL     OW 2476   1.622   2.229   2.236
  825SOL    HW1 2477   1.624   2.153   2.300
  825SOL    HW2 2478   1.574   2.306   2.276
  826SOL     OW 2479   1.023   2.628   2.828
  826SOL    HW1 2480   1.038   2.649   2.924
  826SOL    HW2 2481   0.993   2.533   2.819
  827SOL     OW 2482   0.980   3.435   3.562
  827SOL    HW1 2483   0.960   3.479   3.474
  827SOL    HW2 2484   1.019   3.344   3.546
  828SOL     OW 2485   1.859   3.380   3.467
  828SOL    HW1 2486   1.873   3.407   3.372
  828SOL    HW2 2487   1.942   3.402   3.520
  829SOL     OW 2488   0.350   2.760   3.666
  829SOL    HW1 2489   0.426   2.804   3.714
  829SOL    HW2 2490   0.385   2.713   3.584
  830SOL     OW 2491   1.540   2.136   1.987
  830SOL    HW1 2492   1.479   2.061   2.010
  830SOL    HW2 2493   1.562   2.188   2.070
  831SOL     OW 2494   1.303   2.700   1.904
  831SOL    HW1 2495   1.337   2.607   1.919
  831SOL    HW2 2496   1.321   2.727   1.809
  832SOL     OW 2497   1.068   3.195   2.711
  832SOL    HW1 2498   1.075   3.111   2.656
  832SOL    HW2 2499   1.130   3.264   2.675
  833SOL     OW 2500   0.319   2.672   2.811
  833SOL    HW1 2501   0.412   2.708   2.816
  833SOL    HW2 2502   0.313   2.587   2.863
  834SOL     OW 2503   0.339   2.371   2.868
  834SOL    HW1 2504   0.287   2.288   2.851
  834SOL    HW2 2505   0.416   2.376   2.804
  835SOL     OW 2506   1.138   2.242   3.540
  835SOL    HW1 2507   1.093   2.305   3.604
  835SOL    HW2 2508   1.231   2.273   3.523
  836SOL     OW 2509   1.160   2.069   3.339
  836SOL    HW1 2510   1.160   2.133   3.416
  836SOL    HW2 2511   1.188   2.117   3.256
  837SOL     OW 2512   0.008   3.188   2.062
  837SOL    HW1 2513  -0.085   3.209   2.031
  837SOL    HW2 2514   0.018   3.089   2.075
  838SOL     OW 2515   0.088   3.663   2.789
  838SOL    HW1 2516   0.046   3.577   2.762
  838SOL    HW2 2517   0.182   3.666   2.755
  839SOL     OW 2518   0.504   3.430   2.772
  839SOL    HW1 2519   0.570   3.504   2.781
  839SOL    HW2 2520   0.548   3.351   2.730
  840SOL     OW 2521   1.002   2.658   3.100
  840SOL    HW1 2522   1.043   2.626   3.186
  840SOL    HW2 2523   0.906   2.631   3.097
  841SOL     OW 2524   0.040   2.406   2.976
  841SOL    HW1 2525   0.125   2.373   2.935
  841SOL    HW2 2526   0.053   2.421   3.074
  842SOL     OW 2527   0.189   2.382   3.584
  842SOL    HW1 2528   0.248   2.342   3.514
  842SOL    HW2 2529   0.131   2.453   3.543
  843SOL     OW 2530   1.369   2.812   3.522
  843SOL    HW1 2531   1.408   2.901   3.542
  843SOL    HW2 2532   1.379   2.792   3.425
  844SOL     OW 2533   0.815   2.434   2.187
  844SOL    HW1 2534   0.822   2.345   2.141
  844SOL    HW2 2535   0.721   2.468   2.179
  845SOL     OW 2536   1.657   2.466   3.068
  845SOL    HW1 2537   1.619   2.397   3.130
  845SOL    HW2 2538   1.739   2.430   3.024
  846SOL     OW 2539   0.252   3.426   3.606
  846SOL    HW1 2540   0.222   3.483   3.682
  846SOL    HW2 2541   0.245   3.329   3.632
  847SOL     OW 2542   0.671   2.326   3.131
  847SOL    HW1 2543   0.637   2.237   3.101
  847SOL    HW2 2544   0.697   2.380   3.051
  848SOL     OW 2545   0.930   3.540   3.327
  848SOL    HW1 2546   0.906   3.522   3.232
  848SOL    HW2 2547   0.960   3.634   3.337
  849SOL     OW 2548   0.473   2.362   2.053
  849SOL    HW1 2549   0.534   2.442   2.057
  849SOL    HW2 2550   0.378   2.393   2.060
  850SOL     OW 2551   0.159   2.999   3.328
  850SOL    HW1 2552   0.181   2.938   3.404
  850SOL    HW2 2553   0.169   2.950   3.242
  851SOL     OW 2554   1.347   2.921   3.096
  851SOL    HW1 2555   1.371   2.858   3.022
  851SOL    HW2 2556   1.257   2.961   3.078
  852SOL     OW 2557   1.302   2.717   2.171
  852SOL    HW1 2558   1.216   2.686   2.213
  852SOL    HW2 2559   1.298   2.703   2.072
  853SOL     OW 2560   1.759   3.609   3.016
  853SOL    HW1 2561   1.820   3.639   2.943
  853SOL    HW2 2562   1.721   3.520   2.994
  854SOL     OW 2563   1.252   3.593   2.990
  854SOL    HW1 2564   1.336   3.598   2.936
  854SOL    HW2 2565   1.229   3.497   3.008
  855SOL     OW 2566   0.083   3.120   2.884
  855SOL    HW1 2567   0.078   3.119   2.984
  855SOL    HW2 2568   0.000   3.079   2.846
  856SOL     OW 2569   0.688   3.524   3.578
  856SOL    HW1 2570   0.632   3.605   3.587
  856SOL    HW2 2571   0.740   3.528   3.492
  857SOL     OW 2572   1.726   1.997   2.385
  857SOL    HW1 2573   1.799   1.980   2.318
  857SOL    HW2 2574   1.695   1.910   2.423
  858SOL     OW 2575   1.388   3.435   2.339
  858SOL    HW1 2576   1.455   3.447   2.265
  858SOL    HW2 2577   1.348   3.524   2.362
  859SOL     OW 2578   0.130   3.656   3.713
  859SOL    HW1 2579   0.089   3.582   3.766
  859SOL    HW2 2580   0.194   3.707   3.771
  860SOL     OW 2581   1.280   2.789   2.534
  860SOL    HW1 2582   1.340   2.708   2.536
  860SOL    HW2 2583   1.320   2.858   2.474
  861SOL     OW 2584   0.830   3.135   3.284
  861SOL    HW1 2585   0.825   3.168   3.379
  861SOL    HW2 2586   0.744   3.154   3.238
  862SOL     OW 2587   0.672   3.478   2.016
  862SOL    HW1 2588   0.681   3.488   1.917
  862SOL    HW2 2589   0.632   3.389   2.037
  863SOL     OW 2590   1.650   3.582   3.256
  863SOL    HW1 2591   1.703   3.592   3.172
  863SOL    HW2 2592   1.623   3.672   3.290
  864SOL     OW 2593   1.841   2.037   2.825
  864SOL    HW1 2594   1.880   1.952   2.789
  864SOL    HW2 2595   1.743   2.039   2.806
  865SOL     OW 2596   0.263   2.188   2.582
  865SOL    HW1 2597   0.184   2.239   2.548
  865SOL    HW2 2598   0.254   2.173   2.680
  866SOL     OW 2599   1.194   3.474   1.893
  866SOL    HW1 2600   1.200   3.381   1.930
  866SOL    HW2 2601   1.135   3.474   1.813
  867SOL     OW 2602   0.822   2.864   3.234
  867SOL    HW1 2603   0.862   2.863   3.142
  867SOL    HW2 2604   0.832   2.956   3.274
  868SOL     OW 2605   0.916   2.772   2.153
  868SOL    HW1 2606   0.979   2.810   2.085
  868SOL    HW2 2607   0.956   2.689   2.192
  869SOL     OW 2608   1.504   3.469   1.906
  869SOL    HW1 2609   1.412   3.506   1.913
  869SOL    HW2 2610   1.542   3.489   1.816
  870SOL     OW 2611   0.372   3.150   3.352
  870SOL    HW1 2612   0.359   3.243   3.318
  870SOL    HW2 2613   0.288   3.098   3.339
  871SOL     OW 2614   1.614   3.154   3.151
  871SOL    HW1 2615   1.674   3.157   3.231
  871SOL    HW2 2616   1.539   3.218   3.164
  872SOL     OW 2617   1.039   2.960   2.558
  872SOL    HW1 2618   0.969   2.913   2.612
  872SOL    HW2 2619   1.098   2.892   2.515
  873SOL     OW 2620   1.014   2.098   2.833
  873SOL    HW1 2621   1.006   2.062   2.740
  873SOL    HW2 2622   1.012   2.022   2.898
  874SOL     OW 2623   0.590   3.349   2.353
  874SOL    HW1 2624   0.632   3.291   2.283
  874SOL    HW2 2625   0.546   3.428   2.309
  875SOL     OW 2626   1.709   2.247   3.243
  875SOL    HW1 2627   1.782   2.316   3.247
  875SOL    HW2 2628   1.737   2.172   3.184
  876SOL     OW 2629   0.255   3.210   2.152
  876SOL    HW1 2630   0.159   3.211   2.125
  876SOL    HW2 2631   0.267   3.263   2.236
  877SOL     OW 2632   0.105   2.875   3.588
  877SOL    HW1 2633   0.028   2.842   3.642
  877SOL    HW2 2634   0.190   2.845   3.630
  878SOL     OW 2635   0.672   2.065   3.351
  878SOL    HW1 2636   0.762   2.049   3.311
  878SOL    HW2 2637   0.680   2.070   3.450
  879SOL     OW 2638   0.075   2.207   1.895
  879SOL    HW1 2639  -0.017   2.179   1.866
  879SOL    HW2 2640   0.106   2.284   1.839
  880SOL     OW 2641   1.440   2.718   3.260
  880SOL    HW1 2642   1.383   2.770   3.197
  880SOL    HW2 2643   1.536   2.730   3.236
  881SOL     OW 2644   0.072   2.028   2.180
  881SOL    HW1 2645   0.055   2.111   2.126
  881SOL    HW2 2646   0.162   1.991   2.158
  882SOL     OW 2647   1.183   3.197   1.981
  882SOL    HW1 2648   1.084   3.186   1.983
  882SOL    HW2 2649   1.217   3.212   2.074
  883SOL     OW 2650   0.613   2.704   3.293
  883SOL    HW1 2651   0.669   2.785   3.276
  883SOL    HW2 2652   0.672   2.624   3.296
  884SOL     OW 2653   1.493   3.629   2.821
  884SOL    HW1 2654   1.526   3.693   2.752
  884SOL    HW2 2655   1.559   3.623   2.896
  885SOL     OW 2656   0.716   2.427   3.570
  885SOL    HW1 2657   0.735   2.492   3.644
  885SOL    HW2 2658   0.776   2.347   3.579
  886SOL     OW 2659   1.450   3.082   3.495
  886SOL    HW1 2660   1.441   3.072   3.594
  886SOL    HW2 2661   1.546   3.075   3.469
  887SOL     OW 2662   0.390   3.603   3.422
  887SOL    HW1 2663   0.299   3.644   3.420
  887SOL    HW2 2664   0.383   3.509   3.454
  888SOL     OW 2665   1.674   2.745   3.116
  888SOL    HW1 2666   1.647   2.656   3.079
  888SOL    HW2 2667   1.675   2.813   3.043
  889SOL     OW 2668   1.225   2.187   2.311
  889SOL    HW1 2669   1.290   2.113   2.300
  889SOL    HW2 2670   1.245   2.237   2.395
  890SOL     OW 2671   0.594   2.607   2.514
  890SOL    HW1 2672   0.644   2.692   2.495
  890SOL    HW2 2673   0.506   2.609   2.466
  891SOL     OW 2674   1.777   2.204   3.504
  891SOL    HW1 2675   1.760   2.235   3.410
  891SOL    HW2 2676   1.693   2.167   3.542
  892SOL     OW 2677   1.730   2.796   3.379
  892SOL    HW1 2678   1.768   2.887   3.394
  892SOL    HW2 2679   1.722   2.779   3.280
  893SOL     OW 2680   0.859   3.236   1.878
  893SOL    HW1 2681   0.813   3.251   1.966
  893SOL    HW2 2682   0.903   3.321   1.848
  894SOL     OW 2683   0.661   3.652   2.815
  894SOL    HW1 2684   0.615   3.740   2.802
  894SOL    HW2 2685   0.760   3.664   2.808
  895SOL     OW 2686   0.859   2.818   2.723
  895SOL    HW1 2687   0.913   2.749   2.771
  895SOL    HW2 2688   0.827   2.887   2.789
  896SOL     OW 2689   1.083   2.846   1.949
  896SOL    HW1 2690   1.060   2.899   1.867
  896SOL    HW2 2691   1.164   2.790   1.930
  897SOL     OW 2692   1.861   3.431   2.713
  897SOL    HW1 2693   1.790   3.419   2.643
  897SOL    HW2 2694   1.862   3.352   2.773
  898SOL     OW 2695   0.221   3.176   3.706
  898SOL    HW1 2696   0.156   3.103   3.685
  898SOL    HW2 2697   0.225   3.190   3.804
  899SOL     OW 2698   0.079   3.102   2.515
  899SOL    HW1 2699   0.078   3.055   2.603
  899SOL    HW2 2700   0.161   3.074   2.464
  900SOL     OW 2701   0.672   3.253   3.486
  900SOL    HW1 2702   0.594   3.203   3.524
  900SOL    HW2 2703   0.669   3.348   3.517
  901SOL     OW 2704   1.824   2.054   3.089
  901SOL    HW1 2705   1.820   1.964   3.133
  901SOL    HW2 2706   1.827   2.043   2.990
  902SOL     OW 2707   0.428   2.286   2.382
  902SOL    HW1 2708   0.458   2.214   2.320
  902SOL    HW2 2709   0.389   2.246   2.465
  903SOL     OW 2710   1.705   3.349   2.966
  903SOL    HW1 2711   1.612   3.324   2.939
  903SOL    HW2 2712   1.731   3.299   3.048
  904SOL     OW 2713   0.317   2.409   3.142
  904SOL    HW1 2714   0.355   2.350   3.214
  904SOL    HW2 2715   0.357   2.383   3.054
  905SOL     OW 2716   0.812   3.448   2.549
  905SOL    HW1 2717   0.844   3.458   2.455
  905SOL    HW2 2718   0.733   3.386   2.551
  906SOL     OW 2719   1.424   2.076   2.974
  906SOL    HW1 2720   1.476   2.011   3.029
  906SOL    HW2 2721   1.375   2.139   3.035
  907SOL     OW 2722   1.001   1.896   3.016
  907SOL    HW1 2723   0.938   1.824   2.985
  907SOL    HW2 2724   1.094   1.860   3.016
  908SOL     OW 2725   0.770   3.192   2.163
  908SOL    HW1 2726   0.724   3.105   2.180
  908SOL    HW2 2727   0.861   3.189   2.204
  909SOL     OW 2728   0.618   3.429   3.146
  909SOL    HW1 2729   0.613   3.511   3.203
  909SOL    HW2 2730   0.707   3.426   3.101
  910SOL     OW 2731   1.352   1.914   2.030
  910SOL    HW1 2732   1.387   1.873   1.946
  910SOL    HW2 2733   1.262   1.876   2.050
  911SOL     OW 2734   1.300   2.315   2.553
  911SOL    HW1 2735   1.241   2.395   2.557
  911SOL    HW2 2736   1.315   2.280   2.646
  912SOL     OW 2737   1.593   2.083   2.744
  912SOL    HW1 2738   1.509   2.082   2.798
  912SOL    HW2 2739   1.595   2.166   2.688
  913SOL     OW 2740   0.039   2.939   2.162
  913SOL    HW1 2741   0.138   2.928   2.153
  913SOL    HW2 2742  -0.001   2.853   2.194
  914SOL     OW 2743   0.875   3.508   2.199
  914SOL    HW1 2744   0.798   3.473   2.145
  914SOL    HW2 2745   0.843   3.579   2.261
  915SOL     OW 2746   0.230   2.490   3.837
  915SOL    HW1 2747   0.137   2.488   3.874
  915SOL    HW2 2748   0.231   2.451   3.745
  916SOL     OW 2749   1.755   2.469   3.955
  916SOL    HW1 2750   1.743   2.456   3.856
  916SOL    HW2 2751   1.725   2.388   4.004
  917SOL     OW 2752   0.231   3.575   4.207
  917SOL    HW1 2753   0.265   3.652   4.261
  917SOL    HW2 2754   0.275   3.575   4.117
  918SOL     OW 2755   0.230   3.296   4.262
  918SOL    HW1 2756   0.204   3.392   4.262
  918SOL    HW2 2757   0.159   3.242   4.307
  919SOL     OW 2758   0.606   2.826   3.847
  919SOL    HW1 2759   0.613   2.910   3.793
  919SOL    HW2 2760   0.652   2.839   3.935
  920SOL     OW 2761   1.842   3.629   4.083
  920SOL    HW1 2762   1.896   3.600   4.163
  920SOL    HW2 2763   1.872   3.719   4.054
  921SOL     OW 2764   0.027   3.458   3.841
  921SOL    HW1 2765   0.008   3.362   3.862
  921SOL    HW2 2766  -0.006   3.516   3.916
  922SOL     OW 2767   1.689   2.784   4.336
  922SOL    HW1 2768   1.784   2.755   4.344
  922SOL    HW2 2769   1.681   2.849   4.261
  923SOL     OW 2770   1.641   2.970   4.156
  923SOL    HW1 2771   1.727   2.972   4.104
  923SOL    HW2 2772   1.655   3.017   4.244
  924SOL     OW 2773   0.809   1.866   4.226
  924SOL    HW1 2774   0.849   1.957   4.217
  924SOL    HW2 2775   0.709   1.874   4.232
  925SOL     OW 2776   1.525   2.861   3.914
  925SOL    HW1 2777   1.462   2.785   3.927
  925SOL    HW2 2778   1.573   2.879   4.000
  926SOL     OW 2779   0.598   2.591   3.994
  926SOL    HW1 2780   0.622   2.660   3.926
  926SOL    HW2 2781   0.520   2.624   4.048
  927SOL     OW 2782   1.576   3.524   4.031
  927SOL    HW1 2783   1.665   3.570   4.034
  927SOL    HW2 2784   1.555   3.500   3.936
  928SOL     OW 2785   0.865   2.210   3.919
  928SOL    HW1 2786   0.924   2.273   3.870
  928SOL    HW2 2787   0.884   2.116   3.890
  929SOL     OW 2788   0.321   2.805   3.966
  929SOL    HW1 2789   0.403   2.844   3.924
  929SOL    HW2 2790   0.294   2.723   3.917
  930SOL     OW 2791   1.111   3.638   3.961
  930SOL    HW1 2792   1.051   3.576   4.011
  930SOL    HW2 2793   1.142   3.594   3.876
  931SOL     OW 2794   1.632   3.239   3.805
  931SOL    HW1 2795   1.600   3.333   3.795
  931SOL    HW2 2796   1.556   3.176   3.793
  932SOL     OW 2797   0.464   3.605   4.047
  932SOL    HW1 2798   0.497   3.644   4.133
  932SOL    HW2 2799   0.540   3.598   3.982
  933SOL     OW 2800   1.400   1.969   4.150
  933SOL    HW1 2801   1.376   1.932   4.060
  933SOL    HW2 2802   1.499   1.985   4.154
  934SOL     OW 2803   0.382   2.562   4.204
  934SOL    HW1 2804   0.427   2.472   4.201
  934SOL    HW2 2805   0.288   2.551   4.237
  935SOL     OW 2806   0.614   1.984   3.841
  935SOL    HW1 2807   0.712   1.962   3.848
  935SOL    HW2 2808   0.583   1.967   3.748
  936SOL     OW 2809   1.434   3.050   3.765
  936SOL    HW1 2810   1.466   2.974   3.822
  936SOL    HW2 2811   1.342   3.077   3.795
  937SOL     OW 2812   0.297   1.897   3.895
  937SOL    HW1 2813   0.346   1.981   3.874
  937SOL    HW2 2814   0.359   1.832   3.940
  938SOL     OW 2815   0.935   2.098   4.204
  938SOL    HW1 2816   0.887   2.139   4.126
  938SOL    HW2 2817   1.034   2.096   4.185
  939SOL     OW 2818   0.459   3.014   4.465
  939SOL    HW1 2819   0.388   2.987   4.530
  939SOL    HW2 2820   0.433   2.986   4.372
  940SOL     OW 2821   1.271   3.659   4.315
  940SOL    HW1 2822   1.315   3.723   4.251
  940SOL    HW2 2823   1.221   3.711   4.385
  941SOL     OW 2824   1.032   2.411   3.740
  941SOL    HW1 2825   0.991   2.493   3.701
  941SOL    HW2 2826   1.096   2.437   3.813
  942SOL     OW 2827   1.857   2.695   4.101
  942SOL    HW1 2828   1.899   2.631   4.165
  942SOL    HW2 2829   1.819   2.644   4.023
  943SOL     OW 2830   0.488   3.247   3.898
  943SOL    HW1 2831   0.401   3.232   3.945
  943SOL    HW2 2832   0.471   3.273   3.803
  944SOL     OW 2833   1.390   2.437   3.802
  944SOL    HW1 2834   1.336   2.416   3.883
  944SOL    HW2 2835   1.481   2.396   3.811
  945SOL     OW 2836   0.527   2.118   4.052
  945SOL    HW1 2837   0.554   2.059   3.977
  945SOL    HW2 2838   0.527   2.213   4.021
  946SOL     OW 2839   0.705   2.912   4.092
  946SOL    HW1 2840   0.691   2.919   4.191
  946SOL    HW2 2841   0.789   2.861   4.074
  947SOL     OW 2842   0.367   2.962   4.225
  947SOL    HW1 2843   0.360   3.045   4.169
  947SOL    HW2 2844   0.371   2.882   4.165
  948SOL     OW 2845   1.252   3.210   4.112
  948SOL    HW1 2846   1.302   3.287   4.152
  948SOL    HW2 2847   1.157   3.212   4.144
  949SOL     OW 2848   1.582   2.501   4.196
  949SOL    HW1 2849   1.551   2.562   4.269
  949SOL    HW2 2850   1.632   2.553   4.127
  950SOL     OW 2851   1.209   2.387   3.999
  950SOL    HW1 2852   1.222   2.303   4.053
  950SOL    HW2 2853   1.180   2.461   4.059
  951SOL     OW 2854   1.622   2.229   4.098
  951SOL    HW1 2855   1.624   2.153   4.162
  951SOL    HW2 2856   1.574   2.306   4.138
  952SOL     OW 2857   1.540   2.136   3.849
  952SOL    HW1 2858   1.479   2.061   3.872
  952SOL    HW2 2859   1.562   2.188   3.932
  953SOL     OW 2860   1.303   2.700   3.766
  953SOL    HW1 2861   1.337   2.607   3.781
  953SOL    HW2 2862   1.321   2.727   3.671
  954SOL     OW 2863   0.008   3.188   3.924
  954SOL    HW1 2864  -0.085   3.209   3.893
  954SOL    HW2 2865   0.018   3.089   3.937
  955SOL     OW 2866   0.815   2.434   4.049
  955SOL    HW1 2867   0.822   2.345   4.003
  955SOL    HW2 2868   0.721   2.468   4.041
  956SOL     OW 2869   0.473   2.362   3.915
  956SOL    HW1 2870   0.534   2.442   3.919
  956SOL    HW2 2871   0.378   2.393   3.922
  957SOL     OW 2872   1.302   2.717   4.033
  957SOL    HW1 2873   1.216   2.686   4.075
  957SOL    HW2 2874   1.298   2.703   3.934
  958SOL     OW 2875   1.726   1.997   4.247
  958SOL    HW1 2876   1.799   1.980   4.180
  958SOL    HW2 2877   1.695   1.910   4.285
  959SOL     OW 2878   1.388   3.435   4.201
  959SOL    HW1 2879   1.455   3.447   4.127
  959SOL    HW2 2880   1.348   3.524   4.224
  960SOL     OW 2881   0.672   3.478   3.878
  960SOL    HW1 2882   0.681   3.488   3.779
  960SOL    HW2 2883   0.632   3.389   3.899
  961SOL     OW 2884   1.194   3.474   3.755
  961SOL    HW1 2885   1.200   3.381   3.792
  961SOL    HW2 2886   1.135   3.474   3.675
  962SOL     OW 2887   0.916   2.772   4.015
  962SOL    HW1 2888   0.979   2.810   3.947
  962SOL    HW2 2889   0.956   2.689   4.054
  963SOL     OW 2890   1.504   3.469   3.768
  963SOL    HW1 2891   1.412   3.506   3.775
  963SOL    HW2 2892   1.542   3.489   3.678
  964SOL     OW 2893   0.590   3.349   4.215
  964SOL    HW1 2894   0.632   3.291   4.145
  964SOL    HW2 2895   0.546   3.428   4.171
  965SOL     OW 2896   0.255   3.210   4.014
  965SOL    HW1 2897   0.159   3.211   3.987
  965SOL    HW2 2898   0.267   3.263   4.098
  966SOL     OW 2899   0.075   2.207   3.757
  966SOL    HW1 2900  -0.017   2.179   3.728
  966SOL    HW2 2901   0.106   2.284   3.701
  967SOL     OW 2902   0.072   2.028   4.042
  967SOL    HW1 2903   0.055   2.111   3.988
  967SOL    HW2 2904   0.162   1.991   4.020
  968SOL     OW 2905   1.183   3.197   3.843
  968SOL    HW1 2906   1.084   3.186   3.845
  968SOL    HW2 2907   1.217   3.212   3.936
  969SOL     OW 2908   1.225   2.187   4.173
  969SOL    HW1 2909   1.290   2.113   4.162
  969SOL    HW2 2910   1.245   2.237   4.257
  970SOL     OW 2911   0.594   2.607   4.376
  970SOL    HW1 2912   0.644   2.692   4.357
  970SOL    HW2 2913   0.506   2.609   4.328
  971SOL     OW 2914   0.859   3.236   3.740
  971SOL    HW1 2915   0.813   3.251   3.828
  971SOL    HW2 2916   0.903   3.321   3.710
  972SOL     OW 2917   1.083   2.846   3.811
  972SOL    HW1 2918   1.060   2.899   3.729
  972SOL    HW2 2919   1.164   2.790   3.792
  973SOL     OW 2920   0.428   2.286   4.244
  973SOL    HW1 2921   0.458   2.214   4.182
  973SOL    HW2 2922   0.389   2.246   4.327
  974SOL     OW 2923   0.770   3.192   4.025
  974SOL    HW1 2924   0.724   3.105   4.042
  974SOL    HW2 2925   0.861   3.189   4.066
  975SOL     OW 2926   1.352   1.914   3.892
  975SOL    HW1 2927   1.387   1.873   3.808
  975SOL    HW2 2928   1.262   1.876   3.912
  976SOL     OW 2929   0.039   2.939   4.024
  976SOL    HW1 2930   0.138   2.928   4.015
  976SOL    HW2 2931  -0.001   2.853   4.056
  977SOL     OW 2932   0.875   3.508   4.061
  977SOL    HW1 2933   0.798   3.473   4.007
  977SOL    HW2 2934   0.843   3.579   4.123
  978SOL     OW 2935   0.225   3.999   0.996
  978SOL    HW1 2936   0.260   3.982   1.088
  978SOL    HW2 2937   0.137   3.954   0.984
  979SOL     OW 2938   0.019   4.092   0.647
  979SOL    HW1 2939  -0.063   4.135   0.686
  979SOL    HW2 2940  -0.009   4.019   0.584
  980SOL     OW 2941   1.755   4.331   0.231
  980SOL    HW1 2942   1.743   4.318   0.132
  980SOL    HW2 2943   1.725   4.250   0.280
  981SOL     OW 2944   0.438   4.116   1.499
  981SOL    HW1 2945   0.520   4.060   1.508
  981SOL    HW2 2946   0.357   4.058   1.503
  982SOL     OW 2947   1.603   4.171   0.737
  982SOL    HW1 2948   1.529   4.217   0.687
  982SOL    HW2 2949   1.654   4.239   0.790
  983SOL     OW 2950   1.594   3.838   1.480
  983SOL    HW1 2951   1.576   3.905   1.408
  983SOL    HW2 2952   1.591   3.884   1.569
  984SOL     OW 2953   0.122   4.367   0.563
  984SOL    HW1 2954   0.077   4.279   0.580
  984SOL    HW2 2955   0.121   4.421   0.647
  985SOL     OW 2956   0.809   3.728   0.502
  985SOL    HW1 2957   0.849   3.819   0.493
  985SOL    HW2 2958   0.709   3.736   0.508
  986SOL     OW 2959   0.317   3.975   1.801
  986SOL    HW1 2960   0.388   4.046   1.807
  986SOL    HW2 2961   0.229   4.014   1.829
  987SOL     OW 2962   1.281   4.069   0.944
  987SOL    HW1 2963   1.195   4.019   0.931
  987SOL    HW2 2964   1.343   4.015   1.000
  988SOL     OW 2965   1.394   4.193   1.674
  988SOL    HW1 2966   1.374   4.236   1.762
  988SOL    HW2 2967   1.472   4.131   1.683
  989SOL     OW 2968   0.991   4.134   1.242
  989SOL    HW1 2969   0.914   4.168   1.296
  989SOL    HW2 2970   0.957   4.083   1.163
  990SOL     OW 2971   0.076   4.535   0.789
  990SOL    HW1 2972   0.175   4.523   0.798
  990SOL    HW2 2973   0.052   4.630   0.810
  991SOL     OW 2974   0.865   4.072   0.195
  991SOL    HW1 2975   0.924   4.135   0.146
  991SOL    HW2 2976   0.884   3.978   0.166
  992SOL     OW 2977   1.719   4.309   1.831
  992SOL    HW1 2978   1.693   4.398   1.795
  992SOL    HW2 2979   1.717   4.241   1.758
  993SOL     OW 2980   0.550   3.920   0.885
  993SOL    HW1 2981   0.545   3.915   0.985
  993SOL    HW2 2982   0.552   4.016   0.856
  994SOL     OW 2983   1.458   4.459   0.728
  994SOL    HW1 2984   1.453   4.394   0.803
  994SOL    HW2 2985   1.538   4.518   0.741
  995SOL     OW 2986   0.202   4.009   1.498
  995SOL    HW1 2987   0.122   4.069   1.485
  995SOL    HW2 2988   0.192   3.960   1.584
  996SOL     OW 2989   1.400   3.831   0.426
  996SOL    HW1 2990   1.376   3.794   0.336
  996SOL    HW2 2991   1.499   3.847   0.430
  997SOL     OW 2992   1.547   3.946   1.729
  997SOL    HW1 2993   1.542   3.983   1.821
  997SOL    HW2 2994   1.475   3.877   1.717
  998SOL     OW 2995   0.614   3.846   0.117
  998SOL    HW1 2996   0.712   3.824   0.124
  998SOL    HW2 2997   0.583   3.829   0.024
  999SOL     OW 2998   0.781   3.988   1.749
  999SOL    HW1 2999   0.848   3.927   1.792
  999SOL    HW2 3000   0.708   4.007   1.814
 1000SOL     OW 3001   1.351   4.314   1.433
 1000SOL    HW1 3002   1.379   4.271   1.518
 1000SOL    HW2 3003   1.376   4.410   1.434
 1001SOL     OW 3004   0.539   3.788   0.512
 1001SOL    HW1 3005   0.458   3.789   0.570
 1001SOL    HW2 3006   0.542   3.871   0.457
 1002SOL     OW 3007   0.297   3.759   0.171
 1002SOL    HW1 3008   0.346   3.843   0.150
 1002SOL    HW2 3009   0.359   3.694   0.216
 1003SOL     OW 3010   0.935   3.960   0.480
 1003SOL    HW1 3011   0.887   4.001   0.402
 1003SOL    HW2 3012   1.034   3.958   0.461
 1004SOL     OW 3013   0.078   4.280   1.386
 1004SOL    HW1 3014   0.170   4.279   1.345
 1004SOL    HW2 3015   0.072   4.354   1.453
 1005SOL     OW 3016   0.561   3.946   1.147
 1005SOL    HW1 3017   0.599   3.862   1.184
 1005SOL    HW2 3018   0.473   3.965   1.191
 1006SOL     OW 3019   1.017   3.763   0.753
 1006SOL    HW1 3020   0.945   3.768   0.684
 1006SOL    HW2 3021   0.993   3.694   0.822
 1007SOL     OW 3022   1.466   4.314   0.992
 1007SOL    HW1 3023   1.436   4.219   0.999
 1007SOL    HW2 3024   1.539   4.330   1.058
 1008SOL     OW 3025   0.527   3.980   0.328
 1008SOL    HW1 3026   0.554   3.921   0.253
 1008SOL    HW2 3027   0.527   4.075   0.297
 1009SOL     OW 3028   0.915   3.813   1.402
 1009SOL    HW1 3029   0.940   3.793   1.307
 1009SOL    HW2 3030   0.987   3.869   1.444
 1010SOL     OW 3031   1.274   4.110   1.262
 1010SOL    HW1 3032   1.295   4.184   1.326
 1010SOL    HW2 3033   1.185   4.127   1.219
 1011SOL     OW 3034   0.566   4.261   0.865
 1011SOL    HW1 3035   0.578   4.327   0.791
 1011SOL    HW2 3036   0.612   4.295   0.948
 1012SOL     OW 3037   1.013   3.829   1.770
 1012SOL    HW1 3038   1.019   3.914   1.718
 1012SOL    HW2 3039   1.045   3.753   1.713
 1013SOL     OW 3040   0.504   3.774   1.740
 1013SOL    HW1 3041   0.462   3.717   1.670
 1013SOL    HW2 3042   0.438   3.843   1.772
 1014SOL     OW 3043   0.307   3.937   1.231
 1014SOL    HW1 3044   0.284   3.974   1.321
 1014SOL    HW2 3045   0.277   3.842   1.225
 1015SOL     OW 3046   0.732   4.358   1.064
 1015SOL    HW1 3047   0.791   4.332   0.988
 1015SOL    HW2 3048   0.704   4.454   1.053
 1016SOL     OW 3049   0.307   3.787   0.618
 1016SOL    HW1 3050   0.296   3.881   0.651
 1016SOL    HW2 3051   0.302   3.724   0.695
 1017SOL     OW 3052   1.622   4.091   0.374
 1017SOL    HW1 3053   1.624   4.015   0.438
 1017SOL    HW2 3054   1.574   4.168   0.414
 1018SOL     OW 3055   1.540   3.998   0.125
 1018SOL    HW1 3056   1.479   3.923   0.148
 1018SOL    HW2 3057   1.562   4.050   0.208
 1019SOL     OW 3058   0.339   4.233   1.006
 1019SOL    HW1 3059   0.287   4.150   0.989
 1019SOL    HW2 3060   0.416   4.238   0.942
 1020SOL     OW 3061   1.138   4.104   1.678
 1020SOL    HW1 3062   1.093   4.167   1.742
 1020SOL    HW2 3063   1.231   4.135   1.661
 1021SOL     OW 3064   1.160   3.931   1.477
 1021SOL    HW1 3065   1.160   3.995   1.554
 1021SOL    HW2 3066   1.188   3.979   1.394
 1022SOL     OW 3067   0.040   4.268   1.114
 1022SOL    HW1 3068   0.125   4.235   1.073
 1022SOL    HW2 3069   0.053   4.283   1.212
 1023SOL     OW 3070   0.189   4.244   1.722
 1023SOL    HW1 3071   0.248   4.204   1.652
 1023SOL    HW2 3072   0.131   4.315   1.681
 1024SOL     OW 3073   0.815   4.296   0.325
 1024SOL    HW1 3074   0.822   4.207   0.279
 1024SOL    HW2 3075   0.721   4.330   0.317
 1025SOL     OW 3076   1.657   4.328   1.206
 1025SOL    HW1 3077   1.619   4.259   1.268
 1025SOL    HW2 3078   1.739   4.292   1.162
 1026SOL     OW 3079   0.671   4.188   1.269
 1026SOL    HW1 3080   0.637   4.099   1.239
 1026SOL    HW2 3081   0.697   4.242   1.189
 1027SOL     OW 3082   0.903   3.810   0.133
 1027SOL    HW1 3083   0.954   3.811   0.047
 1027SOL    HW2 3084   0.959   3.768   0.204
 1028SOL     OW 3085   1.726   3.859   0.523
 1028SOL    HW1 3086   1.799   3.842   0.456
 1028SOL    HW2 3087   1.695   3.772   0.561
 1029SOL     OW 3088   1.841   3.899   0.963
 1029SOL    HW1 3089   1.880   3.814   0.927
 1029SOL    HW2 3090   1.743   3.901   0.944
 1030SOL     OW 3091   0.263   4.050   0.720
 1030SOL    HW1 3092   0.184   4.101   0.686
 1030SOL    HW2 3093   0.254   4.035   0.818
 1031SOL     OW 3094   1.014   3.960   0.971
 1031SOL    HW1 3095   1.006   3.924   0.878
 1031SOL    HW2 3096   1.012   3.884   1.036
 1032SOL     OW 3097   1.709   4.109   1.381
 1032SOL    HW1 3098   1.782   4.178   1.385
 1032SOL    HW2 3099   1.737   4.034   1.322
 1033SOL     OW 3100   0.672   3.927   1.489
 1033SOL    HW1 3101   0.762   3.911   1.449
 1033SOL    HW2 3102   0.680   3.932   1.588
 1034SOL     OW 3103   0.075   4.069   0.033
 1034SOL    HW1 3104  -0.017   4.041   0.004
 1034SOL    HW2 3105   0.106   4.146  -0.023
 1035SOL     OW 3106   0.072   3.890   0.318
 1035SOL    HW1 3107   0.055   3.973   0.264
 1035SOL    HW2 3108   0.162   3.853   0.296
 1036SOL     OW 3109   0.716   4.289   1.708
 1036SOL    HW1 3110   0.735   4.354   1.782
 1036SOL    HW2 3111   0.776   4.209   1.717
 1037SOL     OW 3112   1.225   4.049   0.449
 1037SOL    HW1 3113   1.290   3.975   0.438
 1037SOL    HW2 3114   1.245   4.099   0.533
 1038SOL     OW 3115   1.777   4.066   1.642
 1038SOL    HW1 3116   1.760   4.097   1.548
 1038SOL    HW2 3117   1.693   4.029   1.680
 1039SOL     OW 3118   1.824   3.916   1.227
 1039SOL    HW1 3119   1.820   3.826   1.271
 1039SOL    HW2 3120   1.827   3.905   1.128
 1040SOL     OW 3121   0.428   4.148   0.520
 1040SOL    HW1 3122   0.458   4.076   0.458
 1040SOL    HW2 3123   0.389   4.108   0.603
 1041SOL     OW 3124   0.317   4.271   1.280
 1041SOL    HW1 3125   0.355   4.212   1.352
 1041SOL    HW2 3126   0.357   4.245   1.192
 1042SOL     OW 3127   1.424   3.938   1.112
 1042SOL    HW1 3128   1.476   3.873   1.167
 1042SOL    HW2 3129   1.375   4.001   1.173
 1043SOL     OW 3130   1.001   3.758   1.154
 1043SOL    HW1 3131   0.938   3.686   1.123
 1043SOL    HW2 3132   1.094   3.722   1.154
 1044SOL     OW 3133   1.352   3.776   0.168
 1044SOL    HW1 3134   1.387   3.735   0.084
 1044SOL    HW2 3135   1.262   3.738   0.188
 1045SOL     OW 3136   1.300   4.177   0.691
 1045SOL    HW1 3137   1.241   4.257   0.695
 1045SOL    HW2 3138   1.315   4.142   0.784
 1046SOL     OW 3139   1.593   3.945   0.882
 1046SOL    HW1 3140   1.509   3.944   0.936
 1046SOL    HW2 3141   1.595   4.028   0.826
 1047SOL     OW 3142   0.225   3.999   2.858
 1047SOL    HW1 3143   0.260   3.982   2.950
 1047SOL    HW2 3144   0.137   3.954   2.846
 1048SOL     OW 3145   0.019   4.092   2.509
 1048SOL    HW1 3146  -0.063   4.135   2.548
 1048SOL    HW2 3147  -0.009   4.019   2.446
 1049SOL     OW 3148   1.755   4.331   2.093
 1049SOL    HW1 3149   1.743   4.318   1.994
 1049SOL    HW2 3150   1.725   4.250   2.142
 1050SOL     OW 3151   0.438   4.116   3.361
 1050SOL    HW1 3152   0.520   4.060   3.370
 1050SOL    HW2 3153   0.357   4.058   3.365
 1051SOL     OW 3154   1.603   4.171   2.599
 1051SOL    HW1 3155   1.529   4.217   2.549
 1051SOL    HW2 3156   1.654   4.239   2.652
 1052SOL     OW 3157   1.594   3.838   3.342
 1052SOL    HW1 3158   1.576   3.905   3.270
 1052SOL    HW2 3159   1.591   3.884   3.431
 1053SOL     OW 3160   0.122   4.367   2.425
 1053SOL    HW1 3161   0.077   4.279   2.442
 1053SOL    HW2 3162   0.121   4.421   2.509
 1054SOL     OW 3163   0.809   3.728   2.364
 1054SOL    HW1 3164   0.849   3.819   2.355
 1054SOL    HW2 3165   0.709   3.736   2.370
 1055SOL     OW 3166   0.317   3.975   3.663
 1055SOL    HW1 3167   0.388   4.046   3.669
 1055SOL    HW2 3168   0.229   4.014   3.691
 1056SOL     OW 3169   1.281   4.069   2.806
 1056SOL    HW1 3170   1.195   4.019   2.793
 1056SOL    HW2 3171   1.343   4.015   2.862
 1057SOL     OW 3172   1.394   4.193   3.536
 1057SOL    HW1 3173   1.374   4.236   3.624
 1057SOL    HW2 3174   1.472   4.131   3.545
 1058SOL     OW 3175   0.991   4.134   3.104
 1058SOL    HW1 3176   0.914   4.168   3.158
 1058SOL    HW2 3177   0.957   4.083   3.025
 1059SOL     OW 3178   0.076   4.535   2.651
 1059SOL    HW1 3179   0.175   4.523   2.660
 1059SOL    HW2 3180   0.052   4.630   2.672
 1060SOL     OW 3181   0.865   4.072   2.057
 1060SOL    HW1 3182   0.924   4.135   2.008
 1060SOL    HW2 3183   0.884   3.978   2.028
 1061SOL     OW 3184   1.719   4.309   3.693
 1061SOL    HW1 3185   1.693   4.398   3.657
 1061SOL    HW2 3186   1.717   4.241   3.620
 1062SOL     OW 3187   0.550   3.920   2.747
 1062SOL    HW1 3188   0.545   3.915   2.847
 1062SOL    HW2 3189   0.552   4.016   2.718
 1063SOL     OW 3190   1.458   4.459   2.590
 1063SOL    HW1 3191   1.453   4.394   2.665
 1063SOL    HW2 3192   1.538   4.518   2.603
 1064SOL     OW 3193   0.202   4.009   3.360
 1064SOL    HW1 3194   0.122   4.069   3.347
 1064SOL    HW2 3195   0.192   3.960   3.446
 1065SOL     OW 3196   1.400   3.831   2.288
 1065SOL    HW1 3197   1.376   3.794   2.198
 1065SOL    HW2 3198   1.499   3.847   2.292
 1066SOL     OW 3199   1.547   3.946   3.591
 1066SOL    HW1 3200   1.542   3.983   3.683
 1066SOL    HW2 3201   1.475   3.877   3.579
 1067SOL     OW 3202   0.614   3.846   1.979
 1067SOL    HW1 3203   0.712   3.824   1.986
 1067SOL    HW2 3204   0.583   3.829   1.886
 1068SOL     OW 3205   0.781   3.988   3.611
 1068SOL    HW1 3206   0.848   3.927   3.654
 1068SOL    HW2 3207   0.708   4.007   3.676
 1069SOL     OW 3208   1.351   4.314   3.295
 1069SOL    HW1 3209   1.379   4.271   3.380
 1069SOL    HW2 3210   1.376   4.410   3.296
 1070SOL     OW 3211   0.539   3.788   2.374
 1070SOL    HW1 3212   0.458   3.789   2.432
 1070SOL    HW2 3213   0.542   3.871   2.319
 1071SOL     OW 3214   0.297   3.759   2.033
 1071SOL    HW1 3215   0.346   3.843   2.012
 1071SOL    HW2 3216   0.359   3.694   2.078
 1072SOL     OW 3217   0.935   3.960   2.342
 1072SOL    HW1 3218   0.887   4.001   2.264
 1072SOL    HW2 3219   1.034   3.958   2.323
 1073SOL     OW 3220   0.078   4.280   3.248
 1073SOL    HW1 3221   0.170   4.279   3.207
 1073SOL    HW2 3222   0.072   4.354   3.315
 1074SOL     OW 3223   0.561   3.946   3.009
 1074SOL    HW1 3224   0.599   3.862   3.046
 1074SOL    HW2 3225   0.473   3.965   3.053
 1075SOL     OW 3226   1.017   3.763   2.615
 1075SOL    HW1 3227   0.945   3.768   2.546
 1075SOL    HW2 3228   0.993   3.694   2.684
 1076SOL     OW 3229   1.466   4.314   2.854
 1076SOL    HW1 3230   1.436   4.219   2.861
 1076SOL    HW2 3231   1.539   4.330   2.920
 1077SOL     OW 3232   0.527   3.980   2.190
 1077SOL    HW1 3233   0.554   3.921   2.115
 1077SOL    HW2 3234   0.527   4.075   2.159
 1078SOL     OW 3235   0.915   3.813   3.264
 1078SOL    HW1 3236   0.940   3.793   3.169
 1078SOL    HW2 3237   0.987   3.869   3.306
 1079SOL     OW 3238   1.274   4.110   3.124
 1079SOL    HW1 3239   1.295   4.184   3.188
 1079SOL    HW2 3240   1.185   4.127   3.081
 1080SOL     OW 3241   0.566   4.261   2.727
 1080SOL    HW1 3242   0.578   4.327   2.653
 1080SOL    HW2 3243   0.612   4.295   2.810
 1081SOL     OW 3244   1.013   3.829   3.632
 1081SOL    HW1 3245   1.019   3.914   3.580
 1081SOL    HW2 3246   1.045   3.753   3.575
 1082SOL     OW 3247   0.504   3.774   3.602
 1082SOL    HW1 3248   0.462   3.717   3.532
 1082SOL    HW2 3249   0.438   3.843   3.634
 1083SOL     OW 3250   0.307   3.937   3.093
 1083SOL    HW1 3251   0.284   3.974   3.183
 1083SOL    HW2 3252   0.277   3.842   3.087
 1084SOL     OW 3253   0.732   4.358   2.926
 1084SOL    HW1 3254   0.791   4.332   2.850
 1084SOL    HW2 3255   0.704   4.454   2.915
 1085SOL     OW 3256   0.307   3.787   2.480
 1085SOL    HW1 3257   0.296   3.881   2.513
 1085SOL    HW2 3258   0.302   3.724   2.557
 1086SOL     OW 3259   1.622   4.091   2.236
 1086SOL    HW1 3260   1.624   4.015   2.300
 1086SOL    HW2 3261   1.574   4.168   2.276
 1087SOL     OW 3262   1.540   3.998   1.987
 1087SOL    HW1 3263   1.479   3.923   2.010
 1087SOL    HW2 3264   1.562   4.050   2.070
 1088SOL     OW 3265   0.339   4.233   2.868
 1088SOL    HW1 3266   0.287   4.150   2.851
 1088SOL    HW2 3267   0.416   4.238   2.804
 1089SOL     OW 3268   1.138   4.104   3.540
 1089SOL    HW1 3269   1.093   4.167   3.604
 1089SOL    HW2 3270   1.231   4.135   3.523
 1090SOL     OW 3271   1.160   3.931   3.339
 1090SOL    HW1 3272   1.160   3.995   3.416
 1090SOL    HW2 3273   1.188   3.979   3.256
 1091SOL     OW 3274   0.040   4.268   2.976
 1091SOL    HW1 3275   0.125   4.235   2.935
 1091SOL    HW2 3276   0.053   4.283   3.074
 1092SOL     OW 3277   0.189   4.244   3.584
 1092SOL    HW1 3278   0.248   4.204   3.514
 1092SOL    HW2 3279   0.131   4.315   3.543
 1093SOL     OW 3280   0.815   4.296   2.187
 1093SOL    HW1 3281   0.822   4.207   2.141
 1093SOL    HW2 3282   0.721   4.330   2.179
 1094SOL     OW 3283   1.657   4.328   3.068
 1094SOL    HW1 3284   1.619   4.259   3.130
 1094SOL    HW2 3285   1.739   4.292   3.024
 1095SOL     OW 3286   0.671   4.188   3.131
 1095SOL    HW1 3287   0.637   4.099   3.101
 1095SOL    HW2 3288   0.697   4.242   3.051
 1096SOL     OW 3289   1.726   3.859   2.385
 1096SOL    HW1 3290   1.799   3.842   2.318
 1096SOL    HW2 3291   1.695   3.772   2.423
 1097SOL     OW 3292   1.841   3.899   2.825
 1097SOL    HW1 3293   1.880   3.814   2.789
 1097SOL    HW2 3294   1.743   3.901   2.806
 1098SOL     OW 3295   0.263   4.050   2.582
 1098SOL    HW1 3296   0.184   4.101   2.548
 1098SOL    HW2 3297   0.254   4.035   2.680
 1099SOL     OW 3298   1.014   3.960   2.833
 1099SOL    HW1 3299   1.006   3.924   2.740
 1099SOL    HW2 3300   1.012   3.884   2.898
 1100SOL     OW 3301   1.709   4.109   3.243
 1100SOL    HW1 3302   1.782   4.178   3.247
 1100SOL    HW2 3303   1.737   4.034   3.184
 1101SOL     OW 3304   0.672   3.927   3.351
 1101SOL    HW1 3305   0.762   3.911   3.311
 1101SOL    HW2 3306   0.680   3.932   3.450
 1102SOL     OW 3307   0.075   4.069   1.895
 1102SOL    HW1 3308  -0.017   4.041   1.866
 1102SOL    HW2 3309   0.106   4.146   1.839
 1103SOL     OW 3310   0.072   3.890   2.180
 1103SOL    HW1 3311   0.055   3.973   2.126
 1103SOL    HW2 3312   0.162   3.853   2.158
 1104SOL     OW 3313   0.716   4.289   3.570
 1104SOL    HW1 3314   0.735   4.354   3.644
 1104SOL    HW2 3315   0.776   4.209   3.579
 1105SOL     OW 3316   1.225   4.049   2.311
 1105SOL    HW1 3317   1.290   3.975   2.300
 1105SOL    HW2 3318   1.245   4.099   2.395
 1106SOL     OW 3319   1.777   4.066   3.504
 1106SOL    HW1 3320   1.760   4.097   3.410
 1106SOL    HW2 3321   1.693   4.029   3.542
 1107SOL     OW 3322   1.824   3.916   3.089
 1107SOL    HW1 3323   1.820   3.826   3.133
 1107SOL    HW2 3324   1.827   3.905   2.990
 1108SOL     OW 3325   0.428   4.148   2.382
 1108SOL    HW1 3326   0.458   4.076   2.320
 1108SOL    HW2 3327   0.389   4.108   2.465
 1109SOL     OW 3328   0.317   4.271   3.142
 1109SOL    HW1 3329   0.355   4.212   3.214
 1109SOL    HW2 3330   0.357   4.245   3.054
 1110SOL     OW 3331   1.424   3.938   2.974
 1110SOL    HW1 3332   1.476   3.873   3.029
 1110SOL    HW2 3333   1.375   4.001   3.035
 1111SOL     OW 3334   1.001   3.758   3.016
 1111SOL    HW1 3335   0.938   3.686   2.985
 1111SOL    HW2 3336   1.094   3.722   3.016
 1112SOL     OW 3337   1.352   3.776   2.030
 1112SOL    HW1 3338   1.387   3.735   1.946
 1112SOL    HW2 3339   1.262   3.738   2.050
 1113SOL     OW 3340   1.300   4.177   2.553
 1113SOL    HW1 3341   1.241   4.257   2.557
 1113SOL    HW2 3342   1.315   4.142   2.646
 1114SOL     OW 3343   1.593   3.945   2.744
 1114SOL    HW1 3344   1.509   3.944   2.798
 1114SOL    HW2 3345   1.595   4.028   2.688
 1115SOL     OW 3346   1.135   4.427   4.441
 1115SOL    HW1 3347   1.192   4.505   4.416
 1115SOL    HW2 3348   1.075   4.453   4.517
 1116SOL     OW 3349   1.755   4.331   3.955
 1116SOL    HW1 3350   1.743   4.318   3.856
 1116SOL    HW2 3351   1.725   4.250   4.004
 1117SOL     OW 3352   0.809   3.728   4.226
 1117SOL    HW1 3353   0.849   3.819   4.217
 1117SOL    HW2 3354   0.709   3.736   4.232
 1118SOL     OW 3355   0.865   4.072   3.919
 1118SOL    HW1 3356   0.924   4.135   3.870
 1118SOL    HW2 3357   0.884   3.978   3.890
 1119SOL     OW 3358   1.400   3.831   4.150
 1119SOL    HW1 3359   1.376   3.794   4.060
 1119SOL    HW2 3360   1.499   3.847   4.154
 1120SOL     OW 3361   0.382   4.424   4.204
 1120SOL    HW1 3362   0.427   4.334   4.201
 1120SOL    HW2 3363   0.288   4.413   4.237
 1121SOL     OW 3364   0.614   3.846   3.841
 1121SOL    HW1 3365   0.712   3.824   3.848
 1121SOL    HW2 3366   0.583   3.829   3.748
 1122SOL     OW 3367   0.297   3.759   3.895
 1122SOL    HW1 3368   0.346   3.843   3.874
 1122SOL    HW2 3369   0.359   3.694   3.940
 1123SOL     OW 3370   0.935   3.960   4.204
 1123SOL    HW1 3371   0.887   4.001   4.126
 1123SOL    HW2 3372   1.034   3.958   4.185
 1124SOL     OW 3373   0.527   3.980   4.052
 1124SOL    HW1 3374   0.554   3.921   3.977
 1124SOL    HW2 3375   0.527   4.075   4.021
 1125SOL     OW 3376   1.622   4.091   4.098
 1125SOL    HW1 3377   1.624   4.015   4.162
 1125SOL    HW2 3378   1.574   4.168   4.138
 1126SOL     OW 3379   1.540   3.998   3.849
 1126SOL    HW1 3380   1.479   3.923   3.872
 1126SOL    HW2 3381   1.562   4.050   3.932
 1127SOL     OW 3382   0.815   4.296   4.049
 1127SOL    HW1 3383   0.822   4.207   4.003
 1127SOL    HW2 3384   0.721   4.330   4.041
 1128SOL     OW 3385   1.726   3.859   4.247
 1128SOL    HW1 3386   1.799   3.842   4.180
 1128SOL    HW2 3387   1.695   3.772   4.285
 1129SOL     OW 3388   0.075   4.069   3.757
 1129SOL    HW1 3389  -0.017   4.041   3.728
 1129SOL    HW2 3390   0.106   4.146   3.701
 1130SOL     OW 3391   0.072   3.890   4.042
 1130SOL    HW1 3392   0.055   3.973   3.988
 1130SOL    HW2 3393   0.162   3.853   4.020
 1131SOL     OW 3394   1.225   4.049   4.173
 1131SOL    HW1 3395   1.290   3.975   4.162
 1131SOL    HW2 3396   1.245   4.099   4.257
 1132SOL     OW 3397   0.428   4.148   4.244
 1132SOL    HW1 3398   0.458   4.076   4.182
 1132SOL    HW2 3399   0.389   4.108   4.327
 1133SOL     OW 3400   1.352   3.776   3.892
 1133SOL    HW1 3401   1.387   3.735   3.808
 1133SOL    HW2 3402   1.262   3.738   3.912
 1134SOL     OW 3403   2.092   0.628   0.113
 1134SOL    HW1 3404   1.999   0.626   0.150
 1134SOL    HW2 3405   2.093   0.589   0.021
 1135SOL     OW 3406   2.087   0.275   0.996
 1135SOL    HW1 3407   2.122   0.258   1.088
 1135SOL    HW2 3408   1.999   0.230   0.984
 1136SOL     OW 3409   1.881   0.368   0.647
 1136SOL    HW1 3410   1.799   0.411   0.686
 1136SOL    HW2 3411   1.853   0.295   0.584
 1137SOL     OW 3412   2.431   1.275   1.165
 1137SOL    HW1 3413   2.338   1.268   1.128
 1137SOL    HW2 3414   2.442   1.364   1.209
 1138SOL     OW 3415   3.417   1.511   0.703
 1138SOL    HW1 3416   3.360   1.495   0.784
 1138SOL    HW2 3417   3.358   1.521   0.623
 1139SOL     OW 3418   2.997   0.703   0.717
 1139SOL    HW1 3419   3.054   0.781   0.692
 1139SOL    HW2 3420   2.937   0.729   0.793
 1140SOL     OW 3421   3.617   0.607   0.231
 1140SOL    HW1 3422   3.605   0.594   0.132
 1140SOL    HW2 3423   3.587   0.526   0.280
 1141SOL     OW 3424   2.630   1.144   1.023
 1141SOL    HW1 3425   2.552   1.161   1.083
 1141SOL    HW2 3426   2.664   1.231   0.987
 1142SOL     OW 3427   2.712   0.798   1.823
 1142SOL    HW1 3428   2.708   0.874   1.888
 1142SOL    HW2 3429   2.734   0.834   1.732
 1143SOL     OW 3430   2.547   1.012   0.665
 1143SOL    HW1 3431   2.616   0.996   0.735
 1143SOL    HW2 3432   2.474   1.069   0.703
 1144SOL     OW 3433   2.548   1.161   1.803
 1144SOL    HW1 3434   2.608   1.240   1.817
 1144SOL    HW2 3435   2.462   1.192   1.762
 1145SOL     OW 3436   2.197   1.435   1.061
 1145SOL    HW1 3437   2.119   1.404   1.008
 1145SOL    HW2 3438   2.255   1.493   1.004
 1146SOL     OW 3439   3.322   1.505   1.339
 1146SOL    HW1 3440   3.346   1.599   1.365
 1146SOL    HW2 3441   3.306   1.451   1.421
 1147SOL     OW 3442   2.300   0.392   1.499
 1147SOL    HW1 3443   2.382   0.336   1.508
 1147SOL    HW2 3444   2.219   0.334   1.503
 1148SOL     OW 3445   3.465   0.447   0.737
 1148SOL    HW1 3446   3.391   0.493   0.687
 1148SOL    HW2 3447   3.516   0.515   0.790
 1149SOL     OW 3448   2.093   1.713   0.483
 1149SOL    HW1 3449   2.127   1.790   0.537
 1149SOL    HW2 3450   2.137   1.713   0.393
 1150SOL     OW 3451   2.989   1.341   1.690
 1150SOL    HW1 3452   3.036   1.341   1.778
 1150SOL    HW2 3453   2.941   1.254   1.679
 1151SOL     OW 3454   2.092   1.434   0.538
 1151SOL    HW1 3455   2.066   1.530   0.538
 1151SOL    HW2 3456   2.021   1.380   0.583
 1152SOL     OW 3457   2.102   1.091   0.886
 1152SOL    HW1 3458   2.116   1.007   0.938
 1152SOL    HW2 3459   2.047   1.155   0.941
 1153SOL     OW 3460   2.482   1.786   1.439
 1153SOL    HW1 3461   2.390   1.769   1.474
 1153SOL    HW2 3462   2.510   1.878   1.465
 1154SOL     OW 3463   2.468   0.964   0.123
 1154SOL    HW1 3464   2.475   1.048   0.069
 1154SOL    HW2 3465   2.514   0.977   0.211
 1155SOL     OW 3466   3.456   0.114   1.480
 1155SOL    HW1 3467   3.438   0.181   1.408
 1155SOL    HW2 3468   3.453   0.160   1.569
 1156SOL     OW 3469   1.984   0.643   0.563
 1156SOL    HW1 3470   1.939   0.555   0.580
 1156SOL    HW2 3471   1.983   0.697   0.647
 1157SOL     OW 3472   3.704   1.767   0.359
 1157SOL    HW1 3473   3.758   1.738   0.439
 1157SOL    HW2 3474   3.734   1.857   0.330
 1158SOL     OW 3475   1.889   1.596   0.117
 1158SOL    HW1 3476   1.870   1.500   0.138
 1158SOL    HW2 3477   1.856   1.654   0.192
 1159SOL     OW 3478   3.551   0.922   0.612
 1159SOL    HW1 3479   3.646   0.893   0.620
 1159SOL    HW2 3480   3.543   0.987   0.537
 1160SOL     OW 3481   3.503   1.108   0.432
 1160SOL    HW1 3482   3.589   1.110   0.380
 1160SOL    HW2 3483   3.517   1.155   0.520
 1161SOL     OW 3484   1.975   0.737   1.597
 1161SOL    HW1 3485   2.063   0.724   1.642
 1161SOL    HW2 3486   1.962   0.834   1.575
 1162SOL     OW 3487   2.475   1.365   0.726
 1162SOL    HW1 3488   2.426   1.278   0.735
 1162SOL    HW2 3489   2.452   1.408   0.639
 1163SOL     OW 3490   3.155   1.228   1.423
 1163SOL    HW1 3491   3.192   1.155   1.365
 1163SOL    HW2 3492   3.207   1.233   1.508
 1164SOL     OW 3493   2.671   0.004   0.502
 1164SOL    HW1 3494   2.711   0.095   0.493
 1164SOL    HW2 3495   2.571   0.012   0.508
 1165SOL     OW 3496   2.059   0.976   1.264
 1165SOL    HW1 3497   2.148   0.931   1.250
 1165SOL    HW2 3498   1.986   0.911   1.245
 1166SOL     OW 3499   3.387   0.999   0.190
 1166SOL    HW1 3500   3.324   0.923   0.203
 1166SOL    HW2 3501   3.435   1.017   0.276
 1167SOL     OW 3502   3.049   1.792   1.616
 1167SOL    HW1 3503   3.073   1.852   1.540
 1167SOL    HW2 3504   3.056   1.697   1.586
 1168SOL     OW 3505   2.179   0.251   1.801
 1168SOL    HW1 3506   2.250   0.322   1.807
 1168SOL    HW2 3507   2.091   0.290   1.829
 1169SOL     OW 3508   3.328   1.417   0.953
 1169SOL    HW1 3509   3.269   1.423   1.033
 1169SOL    HW2 3510   3.313   1.329   0.907
 1170SOL     OW 3511   3.529   1.714   0.572
 1170SOL    HW1 3512   3.488   1.691   0.484
 1170SOL    HW2 3513   3.511   1.640   0.637
 1171SOL     OW 3514   2.460   0.729   0.270
 1171SOL    HW1 3515   2.484   0.798   0.202
 1171SOL    HW2 3516   2.382   0.762   0.324
 1172SOL     OW 3517   3.143   0.345   0.944
 1172SOL    HW1 3518   3.057   0.295   0.931
 1172SOL    HW2 3519   3.205   0.291   1.000
 1173SOL     OW 3520   3.438   1.662   0.307
 1173SOL    HW1 3521   3.527   1.708   0.310
 1173SOL    HW2 3522   3.417   1.638   0.212
 1174SOL     OW 3523   2.669   0.605   1.465
 1174SOL    HW1 3524   2.622   0.602   1.554
 1174SOL    HW2 3525   2.618   0.550   1.399
 1175SOL     OW 3526   3.256   0.469   1.674
 1175SOL    HW1 3527   3.236   0.512   1.762
 1175SOL    HW2 3528   3.334   0.407   1.683
 1176SOL     OW 3529   2.835   0.890   1.572
 1176SOL    HW1 3530   2.881   0.806   1.543
 1176SOL    HW2 3531   2.779   0.924   1.497
 1177SOL     OW 3532   2.853   0.410   1.242
 1177SOL    HW1 3533   2.776   0.444   1.296
 1177SOL    HW2 3534   2.819   0.359   1.163
 1178SOL     OW 3535   2.903   0.701   0.429
 1178SOL    HW1 3536   2.929   0.697   0.525
 1178SOL    HW2 3537   2.818   0.650   0.415
 1179SOL     OW 3538   1.938   0.811   0.789
 1179SOL    HW1 3539   2.037   0.799   0.798
 1179SOL    HW2 3540   1.914   0.906   0.810
 1180SOL     OW 3541   1.992   1.821   1.571
 1180SOL    HW1 3542   1.982   1.806   1.670
 1180SOL    HW2 3543   1.906   1.857   1.535
 1181SOL     OW 3544   2.727   0.348   0.195
 1181SOL    HW1 3545   2.786   0.411   0.146
 1181SOL    HW2 3546   2.746   0.254   0.166
 1182SOL     OW 3547   3.581   0.585   1.831
 1182SOL    HW1 3548   3.555   0.674   1.795
 1182SOL    HW2 3549   3.579   0.517   1.758
 1183SOL     OW 3550   3.224   1.144   0.545
 1183SOL    HW1 3551   3.307   1.115   0.497
 1183SOL    HW2 3552   3.175   1.211   0.489
 1184SOL     OW 3553   2.412   0.196   0.885
 1184SOL    HW1 3554   2.407   0.191   0.985
 1184SOL    HW2 3555   2.414   0.292   0.856
 1185SOL     OW 3556   2.870   1.456   0.477
 1185SOL    HW1 3557   2.824   1.528   0.425
 1185SOL    HW2 3558   2.866   1.476   0.575
 1186SOL     OW 3559   2.213   1.801   0.853
 1186SOL    HW1 3560   2.263   1.715   0.859
 1186SOL    HW2 3561   2.278   1.878   0.850
 1187SOL     OW 3562   3.657   1.066   0.873
 1187SOL    HW1 3563   3.595   1.051   0.797
 1187SOL    HW2 3564   3.605   1.077   0.958
 1188SOL     OW 3565   3.089   1.550   1.506
 1188SOL    HW1 3566   3.095   1.473   1.570
 1188SOL    HW2 3567   3.037   1.524   1.426
 1189SOL     OW 3568   2.183   0.943   0.242
 1189SOL    HW1 3569   2.265   0.982   0.200
 1189SOL    HW2 3570   2.156   0.861   0.193
 1190SOL     OW 3571   3.320   0.735   0.728
 1190SOL    HW1 3572   3.315   0.670   0.803
 1190SOL    HW2 3573   3.400   0.794   0.741
 1191SOL     OW 3574   2.323   1.266   1.727
 1191SOL    HW1 3575   2.273   1.267   1.641
 1191SOL    HW2 3576   2.260   1.248   1.803
 1192SOL     OW 3577   2.973   1.776   0.237
 1192SOL    HW1 3578   2.913   1.714   0.287
 1192SOL    HW2 3579   3.004   1.732   0.152
 1193SOL     OW 3580   2.064   0.285   1.498
 1193SOL    HW1 3581   1.984   0.345   1.485
 1193SOL    HW2 3582   2.054   0.236   1.584
 1194SOL     OW 3583   3.494   1.377   0.081
 1194SOL    HW1 3584   3.462   1.471   0.071
 1194SOL    HW2 3585   3.418   1.314   0.069
 1195SOL     OW 3586   2.326   1.743   0.323
 1195SOL    HW1 3587   2.359   1.782   0.409
 1195SOL    HW2 3588   2.402   1.736   0.258
 1196SOL     OW 3589   3.262   0.107   0.426
 1196SOL    HW1 3590   3.238   0.070   0.336
 1196SOL    HW2 3591   3.361   0.123   0.430
 1197SOL     OW 3592   2.111   1.785   1.241
 1197SOL    HW1 3593   2.168   1.720   1.291
 1197SOL    HW2 3594   2.095   1.752   1.148
 1198SOL     OW 3595   2.802   1.698   0.904
 1198SOL    HW1 3596   2.882   1.641   0.925
 1198SOL    HW2 3597   2.753   1.658   0.827
 1199SOL     OW 3598   2.244   0.700   0.480
 1199SOL    HW1 3599   2.289   0.610   0.477
 1199SOL    HW2 3600   2.150   0.689   0.513
 1200SOL     OW 3601   3.409   0.222   1.729
 1200SOL    HW1 3602   3.404   0.259   1.821
 1200SOL    HW2 3603   3.337   0.153   1.717
 1201SOL     OW 3604   2.476   0.122   0.117
 1201SOL    HW1 3605   2.574   0.100   0.124
 1201SOL    HW2 3606   2.445   0.105   0.024
 1202SOL     OW 3607   2.643   0.264   1.749
 1202SOL    HW1 3608   2.710   0.203   1.792
 1202SOL    HW2 3609   2.570   0.283   1.814
 1203SOL     OW 3610   2.750   1.514   1.195
 1203SOL    HW1 3611   2.727   1.489   1.101
 1203SOL    HW2 3612   2.811   1.445   1.234
 1204SOL     OW 3613   3.213   0.590   1.433
 1204SOL    HW1 3614   3.241   0.547   1.518
 1204SOL    HW2 3615   3.238   0.686   1.434
 1205SOL     OW 3616   2.665   1.402   0.924
 1205SOL    HW1 3617   2.755   1.416   0.882
 1205SOL    HW2 3618   2.594   1.404   0.853
 1206SOL     OW 3619   2.784   0.503   0.899
 1206SOL    HW1 3620   2.759   0.494   0.803
 1206SOL    HW2 3621   2.832   0.421   0.930
 1207SOL     OW 3622   2.401   0.064   0.512
 1207SOL    HW1 3623   2.320   0.065   0.570
 1207SOL    HW2 3624   2.404   0.147   0.457
 1208SOL     OW 3625   3.296   1.188   0.041
 1208SOL    HW1 3626   3.328   1.112   0.098
 1208SOL    HW2 3627   3.204   1.215   0.071
 1209SOL     OW 3628   2.159   0.035   0.171
 1209SOL    HW1 3629   2.208   0.119   0.150
 1209SOL    HW2 3630   2.221  -0.030   0.216
 1210SOL     OW 3631   2.797   0.236   0.480
 1210SOL    HW1 3632   2.749   0.277   0.402
 1210SOL    HW2 3633   2.896   0.234   0.461
 1211SOL     OW 3634   2.938   0.683   1.464
 1211SOL    HW1 3635   2.858   0.622   1.467
 1211SOL    HW2 3636   3.019   0.630   1.440
 1212SOL     OW 3637   3.089   1.570   0.793
 1212SOL    HW1 3638   3.110   1.644   0.728
 1212SOL    HW2 3639   3.157   1.570   0.866
 1213SOL     OW 3640   2.321   1.152   0.741
 1213SOL    HW1 3641   2.250   1.125   0.806
 1213SOL    HW2 3642   2.295   1.124   0.648
 1214SOL     OW 3643   3.133   1.797   0.591
 1214SOL    HW1 3644   3.177   1.861   0.527
 1214SOL    HW2 3645   3.083   1.849   0.661
 1215SOL     OW 3646   2.894   0.549   0.016
 1215SOL    HW1 3647   2.853   0.631  -0.023
 1215SOL    HW2 3648   2.958   0.575   0.089
 1216SOL     OW 3649   1.940   0.556   1.386
 1216SOL    HW1 3650   2.032   0.555   1.345
 1216SOL    HW2 3651   1.934   0.630   1.453
 1217SOL     OW 3652   2.423   0.222   1.147
 1217SOL    HW1 3653   2.461   0.138   1.184
 1217SOL    HW2 3654   2.335   0.241   1.191
 1218SOL     OW 3655   2.728   0.454   0.642
 1218SOL    HW1 3656   2.696   0.526   0.580
 1218SOL    HW2 3657   2.752   0.373   0.589
 1219SOL     OW 3658   2.879   0.039   0.753
 1219SOL    HW1 3659   2.807   0.044   0.684
 1219SOL    HW2 3660   2.855  -0.030   0.822
 1220SOL     OW 3661   3.291   1.173   0.867
 1220SOL    HW1 3662   3.236   1.089   0.860
 1220SOL    HW2 3663   3.317   1.202   0.775
 1221SOL     OW 3664   3.328   0.590   0.992
 1221SOL    HW1 3665   3.298   0.495   0.999
 1221SOL    HW2 3666   3.401   0.606   1.058
 1222SOL     OW 3667   3.719   0.833   0.377
 1222SOL    HW1 3668   3.761   0.769   0.441
 1222SOL    HW2 3669   3.681   0.782   0.299
 1223SOL     OW 3670   2.350   1.385   0.174
 1223SOL    HW1 3671   2.263   1.370   0.221
 1223SOL    HW2 3672   2.333   1.411   0.079
 1224SOL     OW 3673   3.526   1.280   0.657
 1224SOL    HW1 3674   3.625   1.288   0.671
 1224SOL    HW2 3675   3.481   1.364   0.688
 1225SOL     OW 3676   3.252   0.575   0.078
 1225SOL    HW1 3677   3.198   0.554   0.159
 1225SOL    HW2 3678   3.343   0.534   0.087
 1226SOL     OW 3679   2.389   0.256   0.328
 1226SOL    HW1 3680   2.416   0.197   0.253
 1226SOL    HW2 3681   2.389   0.351   0.297
 1227SOL     OW 3682   3.616   1.223   1.588
 1227SOL    HW1 3683   3.707   1.184   1.575
 1227SOL    HW2 3684   3.624   1.319   1.612
 1228SOL     OW 3685   2.926   1.347   1.340
 1228SOL    HW1 3686   2.846   1.324   1.395
 1228SOL    HW2 3687   3.009   1.321   1.389
 1229SOL     OW 3688   3.454   1.629   1.625
 1229SOL    HW1 3689   3.481   1.663   1.535
 1229SOL    HW2 3690   3.533   1.591   1.671
 1230SOL     OW 3691   2.973   1.195   1.100
 1230SOL    HW1 3692   2.933   1.239   1.181
 1230SOL    HW2 3693   2.932   1.232   1.017
 1231SOL     OW 3694   3.500   1.099   1.079
 1231SOL    HW1 3695   3.505   1.180   1.138
 1231SOL    HW2 3696   3.414   1.101   1.028
 1232SOL     OW 3697   2.777   0.089   1.402
 1232SOL    HW1 3698   2.802   0.069   1.307
 1232SOL    HW2 3699   2.849   0.145   1.444
 1233SOL     OW 3700   2.842   1.116   1.719
 1233SOL    HW1 3701   2.743   1.122   1.729
 1233SOL    HW2 3702   2.865   1.036   1.663
 1234SOL     OW 3703   2.567   1.050   0.368
 1234SOL    HW1 3704   2.553   1.057   0.467
 1234SOL    HW2 3705   2.651   0.999   0.350
 1235SOL     OW 3706   2.272   0.813   1.251
 1235SOL    HW1 3707   2.358   0.825   1.301
 1235SOL    HW2 3708   2.230   0.726   1.278
 1236SOL     OW 3709   3.136   0.386   1.262
 1236SOL    HW1 3710   3.157   0.460   1.326
 1236SOL    HW2 3711   3.047   0.403   1.219
 1237SOL     OW 3712   1.926   1.564   1.331
 1237SOL    HW1 3713   1.880   1.646   1.297
 1237SOL    HW2 3714   2.024   1.583   1.340
 1238SOL     OW 3715   2.229   1.100   0.501
 1238SOL    HW1 3716   2.222   1.183   0.445
 1238SOL    HW2 3717   2.233   1.020   0.441
 1239SOL     OW 3718   2.428   0.537   0.865
 1239SOL    HW1 3719   2.440   0.603   0.791
 1239SOL    HW2 3720   2.474   0.571   0.948
 1240SOL     OW 3721   3.114   1.348   0.388
 1240SOL    HW1 3722   3.164   1.425   0.428
 1240SOL    HW2 3723   3.019   1.350   0.420
 1241SOL     OW 3724   3.134   1.445   1.142
 1241SOL    HW1 3725   3.181   1.458   1.229
 1241SOL    HW2 3726   3.068   1.371   1.151
 1242SOL     OW 3727   3.444   0.639   0.472
 1242SOL    HW1 3728   3.413   0.700   0.545
 1242SOL    HW2 3729   3.494   0.691   0.403
 1243SOL     OW 3730   2.216   1.510   1.329
 1243SOL    HW1 3731   2.195   1.466   1.242
 1243SOL    HW2 3732   2.313   1.536   1.332
 1244SOL     OW 3733   2.264   0.751   1.598
 1244SOL    HW1 3734   2.332   0.806   1.551
 1244SOL    HW2 3735   2.304   0.663   1.625
 1245SOL     OW 3736   3.449   0.779   1.670
 1245SOL    HW1 3737   3.357   0.817   1.665
 1245SOL    HW2 3738   3.509   0.826   1.605
 1246SOL     OW 3739   2.875   0.105   1.770
 1246SOL    HW1 3740   2.881   0.190   1.718
 1246SOL    HW2 3741   2.907   0.029   1.713
 1247SOL     OW 3742   2.366   0.050   1.740
 1247SOL    HW1 3743   2.324  -0.007   1.670
 1247SOL    HW2 3744   2.300   0.119   1.772
 1248SOL     OW 3745   2.435   0.870   1.029
 1248SOL    HW1 3746   2.479   0.959   1.020
 1248SOL    HW2 3747   2.372   0.870   1.106
 1249SOL     OW 3748   3.222   0.862   1.045
 1249SOL    HW1 3749   3.147   0.862   0.979
 1249SOL    HW2 3750   3.259   0.770   1.054
 1250SOL     OW 3751   3.071   0.525   0.275
 1250SOL    HW1 3752   3.084   0.441   0.329
 1250SOL    HW2 3753   3.042   0.599   0.335
 1251SOL     OW 3754   2.169   0.213   1.231
 1251SOL    HW1 3755   2.146   0.250   1.321
 1251SOL    HW2 3756   2.139   0.118   1.225
 1252SOL     OW 3757   1.899   1.310   1.282
 1252SOL    HW1 3758   1.952   1.261   1.350
 1252SOL    HW2 3759   1.921   1.408   1.287
 1253SOL     OW 3760   2.594   0.634   1.064
 1253SOL    HW1 3761   2.653   0.608   0.988
 1253SOL    HW2 3762   2.566   0.730   1.053
 1254SOL     OW 3763   3.590   0.935   1.854
 1254SOL    HW1 3764   3.544   0.928   1.765
 1254SOL    HW2 3765   3.528   0.979   1.920
 1255SOL     OW 3766   2.169   0.063   0.618
 1255SOL    HW1 3767   2.158   0.157   0.651
 1255SOL    HW2 3768   2.164   0.000   0.695
 1256SOL     OW 3769   3.484   0.367   0.374
 1256SOL    HW1 3770   3.486   0.291   0.438
 1256SOL    HW2 3771   3.436   0.444   0.414
 1257SOL     OW 3772   2.885   0.766   0.966
 1257SOL    HW1 3773   2.900   0.787   1.062
 1257SOL    HW2 3774   2.855   0.671   0.957
 1258SOL     OW 3775   2.842   1.573   1.700
 1258SOL    HW1 3776   2.822   1.617   1.612
 1258SOL    HW2 3777   2.881   1.482   1.684
 1259SOL     OW 3778   3.721   1.518   1.605
 1259SOL    HW1 3779   3.735   1.545   1.510
 1259SOL    HW2 3780   3.804   1.540   1.658
 1260SOL     OW 3781   2.212   0.898   1.804
 1260SOL    HW1 3782   2.288   0.942   1.852
 1260SOL    HW2 3783   2.247   0.851   1.722
 1261SOL     OW 3784   3.402   0.274   0.125
 1261SOL    HW1 3785   3.341   0.199   0.148
 1261SOL    HW2 3786   3.424   0.326   0.208
 1262SOL     OW 3787   3.165   0.838   0.042
 1262SOL    HW1 3788   3.199   0.745   0.057
 1262SOL    HW2 3789   3.183   0.865  -0.053
 1263SOL     OW 3790   2.930   1.333   0.849
 1263SOL    HW1 3791   2.937   1.249   0.794
 1263SOL    HW2 3792   2.992   1.402   0.813
 1264SOL     OW 3793   2.181   0.810   0.949
 1264SOL    HW1 3794   2.274   0.846   0.954
 1264SOL    HW2 3795   2.175   0.725   1.001
 1265SOL     OW 3796   2.201   0.509   1.006
 1265SOL    HW1 3797   2.149   0.426   0.989
 1265SOL    HW2 3798   2.278   0.514   0.942
 1266SOL     OW 3799   3.000   0.380   1.678
 1266SOL    HW1 3800   2.955   0.443   1.742
 1266SOL    HW2 3801   3.093   0.411   1.661
 1267SOL     OW 3802   3.022   0.207   1.477
 1267SOL    HW1 3803   3.022   0.271   1.554
 1267SOL    HW2 3804   3.050   0.255   1.394
 1268SOL     OW 3805   1.870   1.326   0.200
 1268SOL    HW1 3806   1.777   1.347   0.169
 1268SOL    HW2 3807   1.880   1.227   0.213
 1269SOL     OW 3808   1.950   1.801   0.927
 1269SOL    HW1 3809   1.908   1.715   0.900
 1269SOL    HW2 3810   2.044   1.804   0.893
 1270SOL     OW 3811   2.366   1.568   0.910
 1270SOL    HW1 3812   2.432   1.642   0.919
 1270SOL    HW2 3813   2.410   1.489   0.868
 1271SOL     OW 3814   2.864   0.796   1.238
 1271SOL    HW1 3815   2.905   0.764   1.324
 1271SOL    HW2 3816   2.768   0.769   1.235
 1272SOL     OW 3817   1.902   0.544   1.114
 1272SOL    HW1 3818   1.987   0.511   1.073
 1272SOL    HW2 3819   1.915   0.559   1.212
 1273SOL     OW 3820   2.051   0.520   1.722
 1273SOL    HW1 3821   2.110   0.480   1.652
 1273SOL    HW2 3822   1.993   0.591   1.681
 1274SOL     OW 3823   3.231   0.950   1.660
 1274SOL    HW1 3824   3.270   1.039   1.680
 1274SOL    HW2 3825   3.241   0.930   1.563
 1275SOL     OW 3826   2.677   0.572   0.325
 1275SOL    HW1 3827   2.684   0.483   0.279
 1275SOL    HW2 3828   2.583   0.606   0.317
 1276SOL     OW 3829   3.519   0.604   1.206
 1276SOL    HW1 3830   3.481   0.535   1.268
 1276SOL    HW2 3831   3.601   0.568   1.162
 1277SOL     OW 3832   2.114   1.564   1.744
 1277SOL    HW1 3833   2.084   1.621   1.820
 1277SOL    HW2 3834   2.107   1.467   1.770
 1278SOL     OW 3835   2.533   0.464   1.269
 1278SOL    HW1 3836   2.499   0.375   1.239
 1278SOL    HW2 3837   2.559   0.518   1.189
 1279SOL     OW 3838   2.792   1.678   1.465
 1279SOL    HW1 3839   2.768   1.660   1.370
 1279SOL    HW2 3840   2.822   1.772   1.475
 1280SOL     OW 3841   2.335   0.500   0.191
 1280SOL    HW1 3842   2.396   0.580   0.195
 1280SOL    HW2 3843   2.240   0.531   0.198
 1281SOL     OW 3844   2.021   1.137   1.466
 1281SOL    HW1 3845   2.043   1.076   1.542
 1281SOL    HW2 3846   2.031   1.088   1.380
 1282SOL     OW 3847   3.209   1.059   1.234
 1282SOL    HW1 3848   3.233   0.996   1.160
 1282SOL    HW2 3849   3.119   1.099   1.216
 1283SOL     OW 3850   3.164   0.855   0.309
 1283SOL    HW1 3851   3.078   0.824   0.351
 1283SOL    HW2 3852   3.160   0.841   0.210
 1284SOL     OW 3853   3.621   1.747   1.154
 1284SOL    HW1 3854   3.682   1.777   1.081
 1284SOL    HW2 3855   3.583   1.658   1.132
 1285SOL     OW 3856   3.114   1.731   1.128
 1285SOL    HW1 3857   3.198   1.736   1.074
 1285SOL    HW2 3858   3.091   1.635   1.146
 1286SOL     OW 3859   1.945   1.258   1.022
 1286SOL    HW1 3860   1.940   1.257   1.122
 1286SOL    HW2 3861   1.862   1.217   0.984
 1287SOL     OW 3862   2.550   1.662   1.716
 1287SOL    HW1 3863   2.494   1.743   1.725
 1287SOL    HW2 3864   2.602   1.666   1.630
 1288SOL     OW 3865   2.765   0.086   0.133
 1288SOL    HW1 3866   2.816   0.087   0.047
 1288SOL    HW2 3867   2.821   0.044   0.204
 1289SOL     OW 3868   3.588   0.135   0.523
 1289SOL    HW1 3869   3.661   0.118   0.456
 1289SOL    HW2 3870   3.557   0.048   0.561
 1290SOL     OW 3871   3.250   1.573   0.477
 1290SOL    HW1 3872   3.317   1.585   0.403
 1290SOL    HW2 3873   3.210   1.662   0.500
 1291SOL     OW 3874   1.992   1.794   1.851
 1291SOL    HW1 3875   1.951   1.720   1.904
 1291SOL    HW2 3876   2.056   1.845   1.909
 1292SOL     OW 3877   3.142   0.927   0.672
 1292SOL    HW1 3878   3.202   0.846   0.674
 1292SOL    HW2 3879   3.182   0.996   0.612
 1293SOL     OW 3880   2.692   1.273   1.422
 1293SOL    HW1 3881   2.687   1.306   1.517
 1293SOL    HW2 3882   2.606   1.292   1.376
 1294SOL     OW 3883   2.534   1.616   0.154
 1294SOL    HW1 3884   2.543   1.626   0.055
 1294SOL    HW2 3885   2.494   1.527   0.175
 1295SOL     OW 3886   3.512   1.720   1.394
 1295SOL    HW1 3887   3.565   1.730   1.310
 1295SOL    HW2 3888   3.485   1.810   1.428
 1296SOL     OW 3889   3.703   0.175   0.963
 1296SOL    HW1 3890   3.742   0.090   0.927
 1296SOL    HW2 3891   3.605   0.177   0.944
 1297SOL     OW 3892   2.125   0.326   0.720
 1297SOL    HW1 3893   2.046   0.377   0.686
 1297SOL    HW2 3894   2.116   0.311   0.818
 1298SOL     OW 3895   3.056   1.612   0.031
 1298SOL    HW1 3896   3.062   1.519   0.068
 1298SOL    HW2 3897   2.997   1.612  -0.049
 1299SOL     OW 3898   2.684   1.002   1.372
 1299SOL    HW1 3899   2.724   1.001   1.280
 1299SOL    HW2 3900   2.694   1.094   1.412
 1300SOL     OW 3901   2.778   0.910   0.291
 1300SOL    HW1 3902   2.841   0.948   0.223
 1300SOL    HW2 3903   2.818   0.827   0.330
 1301SOL     OW 3904   3.366   1.607   0.044
 1301SOL    HW1 3905   3.274   1.644   0.051
 1301SOL    HW2 3906   3.404   1.627  -0.046
 1302SOL     OW 3907   2.234   1.288   1.490
 1302SOL    HW1 3908   2.221   1.381   1.456
 1302SOL    HW2 3909   2.150   1.236   1.477
 1303SOL     OW 3910   3.476   1.292   1.289
 1303SOL    HW1 3911   3.536   1.295   1.369
 1303SOL    HW2 3912   3.401   1.356   1.302
 1304SOL     OW 3913   2.901   1.098   0.696
 1304SOL    HW1 3914   2.831   1.051   0.750
 1304SOL    HW2 3915   2.960   1.030   0.653
 1305SOL     OW 3916   2.876   0.236   0.971
 1305SOL    HW1 3917   2.868   0.200   0.878
 1305SOL    HW2 3918   2.874   0.160   1.036
 1306SOL     OW 3919   2.452   1.487   0.491
 1306SOL    HW1 3920   2.494   1.429   0.421
 1306SOL    HW2 3921   2.408   1.566   0.447
 1307SOL     OW 3922   3.571   0.385   1.381
 1307SOL    HW1 3923   3.644   0.454   1.385
 1307SOL    HW2 3924   3.599   0.310   1.322
 1308SOL     OW 3925   2.117   1.348   0.290
 1308SOL    HW1 3926   2.021   1.349   0.263
 1308SOL    HW2 3927   2.129   1.401   0.374
 1309SOL     OW 3928   1.967   1.013   1.726
 1309SOL    HW1 3929   1.890   0.980   1.780
 1309SOL    HW2 3930   2.052   0.983   1.768
 1310SOL     OW 3931   2.534   0.203   1.489
 1310SOL    HW1 3932   2.624   0.187   1.449
 1310SOL    HW2 3933   2.542   0.208   1.588
 1311SOL     OW 3934   1.937   0.345   0.033
 1311SOL    HW1 3935   1.845   0.317   0.004
 1311SOL    HW2 3936   1.968   0.422  -0.023
 1312SOL     OW 3937   3.302   0.856   1.398
 1312SOL    HW1 3938   3.245   0.908   1.335
 1312SOL    HW2 3939   3.398   0.868   1.374
 1313SOL     OW 3940   1.934   0.166   0.318
 1313SOL    HW1 3941   1.917   0.249   0.264
 1313SOL    HW2 3942   2.024   0.129   0.296
 1314SOL     OW 3943   3.045   1.335   0.119
 1314SOL    HW1 3944   2.946   1.324   0.121
 1314SOL    HW2 3945   3.079   1.350   0.212
 1315SOL     OW 3946   2.475   0.842   1.431
 1315SOL    HW1 3947   2.531   0.923   1.414
 1315SOL    HW2 3948   2.534   0.762   1.434
 1316SOL     OW 3949   3.355   1.767   0.959
 1316SOL    HW1 3950   3.388   1.831   0.890
 1316SOL    HW2 3951   3.421   1.761   1.034
 1317SOL     OW 3952   2.578   0.565   1.708
 1317SOL    HW1 3953   2.597   0.630   1.782
 1317SOL    HW2 3954   2.638   0.485   1.717
 1318SOL     OW 3955   3.312   1.220   1.633
 1318SOL    HW1 3956   3.303   1.210   1.732
 1318SOL    HW2 3957   3.408   1.213   1.607
 1319SOL     OW 3958   2.252   1.741   1.560
 1319SOL    HW1 3959   2.161   1.782   1.558
 1319SOL    HW2 3960   2.245   1.647   1.592
 1320SOL     OW 3961   3.536   0.883   1.254
 1320SOL    HW1 3962   3.509   0.794   1.217
 1320SOL    HW2 3963   3.537   0.951   1.181
 1321SOL     OW 3964   3.087   0.325   0.449
 1321SOL    HW1 3965   3.152   0.251   0.438
 1321SOL    HW2 3966   3.107   0.375   0.533
 1322SOL     OW 3967   2.456   0.745   0.652
 1322SOL    HW1 3968   2.506   0.830   0.633
 1322SOL    HW2 3969   2.368   0.747   0.604
 1323SOL     OW 3970   3.639   0.342   1.642
 1323SOL    HW1 3971   3.622   0.373   1.548
 1323SOL    HW2 3972   3.555   0.305   1.680
 1324SOL     OW 3973   3.592   0.934   1.517
 1324SOL    HW1 3974   3.630   1.025   1.532
 1324SOL    HW2 3975   3.584   0.917   1.418
 1325SOL     OW 3976   2.721   1.374   0.016
 1325SOL    HW1 3977   2.675   1.389   0.104
 1325SOL    HW2 3978   2.765   1.459  -0.014
 1326SOL     OW 3979   2.523   1.790   0.953
 1326SOL    HW1 3980   2.477   1.878   0.940
 1326SOL    HW2 3981   2.622   1.802   0.946
 1327SOL     OW 3982   2.721   0.956   0.861
 1327SOL    HW1 3983   2.775   0.887   0.909
 1327SOL    HW2 3984   2.689   1.025   0.927
 1328SOL     OW 3985   2.945   0.984   0.087
 1328SOL    HW1 3986   2.922   1.037   0.005
 1328SOL    HW2 3987   3.026   0.928   0.068
 1329SOL     OW 3988   3.723   1.569   0.851
 1329SOL    HW1 3989   3.652   1.557   0.781
 1329SOL    HW2 3990   3.724   1.490   0.911
 1330SOL     OW 3991   2.083   1.314   1.844
 1330SOL    HW1 3992   2.018   1.241   1.823
 1330SOL    HW2 3993   2.087   1.328   1.942
 1331SOL     OW 3994   1.941   1.240   0.653
 1331SOL    HW1 3995   1.940   1.193   0.741
 1331SOL    HW2 3996   2.023   1.212   0.602
 1332SOL     OW 3997   2.534   1.391   1.624
 1332SOL    HW1 3998   2.456   1.341   1.662
 1332SOL    HW2 3999   2.531   1.486   1.655
 1333SOL     OW 4000   3.686   0.192   1.227
 1333SOL    HW1 4001   3.682   0.102   1.271
 1333SOL    HW2 4002   3.689   0.181   1.128
 1334SOL     OW 4003   2.290   0.424   0.520
 1334SOL    HW1 4004   2.320   0.352   0.458
 1334SOL    HW2 4005   2.251   0.384   0.603
 1335SOL     OW 4006   3.567   1.487   1.104
 1335SOL    HW1 4007   3.474   1.462   1.077
 1335SOL    HW2 4008   3.593   1.437   1.186
 1336SOL     OW 4009   2.179   0.547   1.280
 1336SOL    HW1 4010   2.217   0.488   1.352
 1336SOL    HW2 4011   2.219   0.521   1.192
 1337SOL     OW 4012   2.674   1.586   0.687
 1337SOL    HW1 4013   2.706   1.596   0.593
 1337SOL    HW2 4014   2.595   1.524   0.689
 1338SOL     OW 4015   3.286   0.214   1.112
 1338SOL    HW1 4016   3.338   0.149   1.167
 1338SOL    HW2 4017   3.237   0.277   1.173
 1339SOL     OW 4018   2.863   0.034   1.154
 1339SOL    HW1 4019   2.800  -0.038   1.123
 1339SOL    HW2 4020   2.956  -0.002   1.154
 1340SOL     OW 4021   2.632   1.330   0.301
 1340SOL    HW1 4022   2.586   1.243   0.318
 1340SOL    HW2 4023   2.723   1.327   0.342
 1341SOL     OW 4024   2.480   1.567   1.284
 1341SOL    HW1 4025   2.475   1.649   1.341
 1341SOL    HW2 4026   2.569   1.564   1.239
 1342SOL     OW 4027   3.214   0.052   0.168
 1342SOL    HW1 4028   3.249   0.011   0.084
 1342SOL    HW2 4029   3.124   0.014   0.188
 1343SOL     OW 4030   3.162   0.453   0.691
 1343SOL    HW1 4031   3.103   0.533   0.695
 1343SOL    HW2 4032   3.177   0.418   0.784
 1344SOL     OW 4033   3.455   0.221   0.882
 1344SOL    HW1 4034   3.371   0.220   0.936
 1344SOL    HW2 4035   3.457   0.304   0.826
 1345SOL     OW 4036   1.901   1.077   0.300
 1345SOL    HW1 4037   2.000   1.066   0.291
 1345SOL    HW2 4038   1.861   0.991   0.332
 1346SOL     OW 4039   2.737   1.646   0.337
 1346SOL    HW1 4040   2.660   1.611   0.283
 1346SOL    HW2 4041   2.705   1.717   0.399
 1347SOL     OW 4042   2.092   0.628   1.975
 1347SOL    HW1 4043   1.999   0.626   2.012
 1347SOL    HW2 4044   2.093   0.589   1.883
 1348SOL     OW 4045   2.087   0.275   2.858
 1348SOL    HW1 4046   2.122   0.258   2.950
 1348SOL    HW2 4047   1.999   0.230   2.846
 1349SOL     OW 4048   1.881   0.368   2.509
 1349SOL    HW1 4049   1.799   0.411   2.548
 1349SOL    HW2 4050   1.853   0.295   2.446
 1350SOL     OW 4051   2.431   1.275   3.027
 1350SOL    HW1 4052   2.338   1.268   2.990
 1350SOL    HW2 4053   2.442   1.364   3.071
 1351SOL     OW 4054   3.417   1.511   2.565
 1351SOL    HW1 4055   3.360   1.495   2.646
 1351SOL    HW2 4056   3.358   1.521   2.485
 1352SOL     OW 4057   2.997   0.703   2.579
 1352SOL    HW1 4058   3.054   0.781   2.554
 1352SOL    HW2 4059   2.937   0.729   2.655
 1353SOL     OW 4060   3.617   0.607   2.093
 1353SOL    HW1 4061   3.605   0.594   1.994
 1353SOL    HW2 4062   3.587   0.526   2.142
 1354SOL     OW 4063   2.630   1.144   2.885
 1354SOL    HW1 4064   2.552   1.161   2.945
 1354SOL    HW2 4065   2.664   1.231   2.849
 1355SOL     OW 4066   2.712   0.798   3.685
 1355SOL    HW1 4067   2.708   0.874   3.750
 1355SOL    HW2 4068   2.734   0.834   3.594
 1356SOL     OW 4069   2.547   1.012   2.527
 1356SOL    HW1 4070   2.616   0.996   2.597
 1356SOL    HW2 4071   2.474   1.069   2.565
 1357SOL     OW 4072   2.548   1.161   3.665
 1357SOL    HW1 4073   2.608   1.240   3.679
 1357SOL    HW2 4074   2.462   1.192   3.624
 1358SOL     OW 4075   2.197   1.435   2.923
 1358SOL    HW1 4076   2.119   1.404   2.870
 1358SOL    HW2 4077   2.255   1.493   2.866
 1359SOL     OW 4078   3.322   1.505   3.201
 1359SOL    HW1 4079   3.346   1.599   3.227
 1359SOL    HW2 4080   3.306   1.451   3.283
 1360SOL     OW 4081   2.300   0.392   3.361
 1360SOL    HW1 4082   2.382   0.336   3.370
 1360SOL    HW2 4083   2.219   0.334   3.365
 1361SOL     OW 4084   3.465   0.447   2.599
 1361SOL    HW1 4085   3.391   0.493   2.549
 1361SOL    HW2 4086   3.516   0.515   2.652
 1362SOL     OW 4087   2.093   1.713   2.345
 1362SOL    HW1 4088   2.127   1.790   2.399
 1362SOL    HW2 4089   2.137   1.713   2.255
 1363SOL     OW 4090   2.989   1.341   3.552
 1363SOL    HW1 4091   3.036   1.341   3.640
 1363SOL    HW2 4092   2.941   1.254   3.541
 1364SOL     OW 4093   2.092   1.434   2.400
 1364SOL    HW1 4094   2.066   1.530   2.400
 1364SOL    HW2 4095   2.021   1.380   2.445
 1365SOL     OW 4096   2.102   1.091   2.748
 1365SOL    HW1 4097   2.116   1.007   2.800
 1365SOL    HW2 4098   2.047   1.155   2.803
 1366SOL     OW 4099   2.482   1.786   3.301
 1366SOL    HW1 4100   2.390   1.769   3.336
 1366SOL    HW2 4101   2.510   1.878   3.327
 1367SOL     OW 4102   2.468   0.964   1.985
 1367SOL    HW1 4103   2.475   1.048   1.931
 1367SOL    HW2 4104   2.514   0.977   2.073
 1368SOL     OW 4105   3.456   0.114   3.342
 1368SOL    HW1 4106   3.438   0.181   3.270
 1368SOL    HW2 4107   3.453   0.160   3.431
 1369SOL     OW 4108   1.984   0.643   2.425
 1369SOL    HW1 4109   1.939   0.555   2.442
 1369SOL    HW2 4110   1.983   0.697   2.509
 1370SOL     OW 4111   3.704   1.767   2.221
 1370SOL    HW1 4112   3.758   1.738   2.301
 1370SOL    HW2 4113   3.734   1.857   2.192
 1371SOL     OW 4114   1.889   1.596   1.979
 1371SOL    HW1 4115   1.870   1.500   2.000
 1371SOL    HW2 4116   1.856   1.654   2.054
 1372SOL     OW 4117   3.551   0.922   2.474
 1372SOL    HW1 4118   3.646   0.893   2.482
 1372SOL    HW2 4119   3.543   0.987   2.399
 1373SOL     OW 4120   3.503   1.108   2.294
 1373SOL    HW1 4121   3.589   1.110   2.242
 1373SOL    HW2 4122   3.517   1.155   2.382
 1374SOL     OW 4123   1.975   0.737   3.459
 1374SOL    HW1 4124   2.063   0.724   3.504
 1374SOL    HW2 4125   1.962   0.834   3.437
 1375SOL     OW 4126   2.475   1.365   2.588
 1375SOL    HW1 4127   2.426   1.278   2.597
 1375SOL    HW2 4128   2.452   1.408   2.501
 1376SOL     OW 4129   3.155   1.228   3.285
 1376SOL    HW1 4130   3.192   1.155   3.227
 1376SOL    HW2 4131   3.207   1.233   3.370
 1377SOL     OW 4132   2.671   0.004   2.364
 1377SOL    HW1 4133   2.711   0.095   2.355
 1377SOL    HW2 4134   2.571   0.012   2.370
 1378SOL     OW 4135   2.059   0.976   3.126
 1378SOL    HW1 4136   2.148   0.931   3.112
 1378SOL    HW2 4137   1.986   0.911   3.107
 1379SOL     OW 4138   3.387   0.999   2.052
 1379SOL    HW1 4139   3.324   0.923   2.065
 1379SOL    HW2 4140   3.435   1.017   2.138
 1380SOL     OW 4141   3.049   1.792   3.478
 1380SOL    HW1 4142   3.073   1.852   3.402
 1380SOL    HW2 4143   3.056   1.697   3.448
 1381SOL     OW 4144   2.179   0.251   3.663
 1381SOL    HW1 4145   2.250   0.322   3.669
 1381SOL    HW2 4146   2.091   0.290   3.691
 1382SOL     OW 4147   3.328   1.417   2.815
 1382SOL    HW1 4148   3.269   1.423   2.895
 1382SOL    HW2 4149   3.313   1.329   2.769
 1383SOL     OW 4150   3.529   1.714   2.434
 1383SOL    HW1 4151   3.488   1.691   2.346
 1383SOL    HW2 4152   3.511   1.640   2.499
 1384SOL     OW 4153   2.460   0.729   2.132
 1384SOL    HW1 4154   2.484   0.798   2.064
 1384SOL    HW2 4155   2.382   0.762   2.186
 1385SOL     OW 4156   3.143   0.345   2.806
 1385SOL    HW1 4157   3.057   0.295   2.793
 1385SOL    HW2 4158   3.205   0.291   2.862
 1386SOL     OW 4159   3.438   1.662   2.169
 1386SOL    HW1 4160   3.527   1.708   2.172
 1386SOL    HW2 4161   3.417   1.638   2.074
 1387SOL     OW 4162   2.669   0.605   3.327
 1387SOL    HW1 4163   2.622   0.602   3.416
 1387SOL    HW2 4164   2.618   0.550   3.261
 1388SOL     OW 4165   3.256   0.469   3.536
 1388SOL    HW1 4166   3.236   0.512   3.624
 1388SOL    HW2 4167   3.334   0.407   3.545
 1389SOL     OW 4168   2.835   0.890   3.434
 1389SOL    HW1 4169   2.881   0.806   3.405
 1389SOL    HW2 4170   2.779   0.924   3.359
 1390SOL     OW 4171   2.853   0.410   3.104
 1390SOL    HW1 4172   2.776   0.444   3.158
 1390SOL    HW2 4173   2.819   0.359   3.025
 1391SOL     OW 4174   2.903   0.701   2.291
 1391SOL    HW1 4175   2.929   0.697   2.387
 1391SOL    HW2 4176   2.818   0.650   2.277
 1392SOL     OW 4177   1.938   0.811   2.651
 1392SOL    HW1 4178   2.037   0.799   2.660
 1392SOL    HW2 4179   1.914   0.906   2.672
 1393SOL     OW 4180   1.992   1.821   3.433
 1393SOL    HW1 4181   1.982   1.806   3.532
 1393SOL    HW2 4182   1.906   1.857   3.397
 1394SOL     OW 4183   2.727   0.348   2.057
 1394SOL    HW1 4184   2.786   0.411   2.008
 1394SOL    HW2 4185   2.746   0.254   2.028
 1395SOL     OW 4186   3.581   0.585   3.693
 1395SOL    HW1 4187   3.555   0.674   3.657
 1395SOL    HW2 4188   3.579   0.517   3.620
 1396SOL     OW 4189   3.224   1.144   2.407
 1396SOL    HW1 4190   3.307   1.115   2.359
 1396SOL    HW2 4191   3.175   1.211   2.351
 1397SOL     OW 4192   2.412   0.196   2.747
 1397SOL    HW1 4193   2.407   0.191   2.847
 1397SOL    HW2 4194   2.414   0.292   2.718
 1398SOL     OW 4195   2.870   1.456   2.339
 1398SOL    HW1 4196   2.824   1.528   2.287
 1398SOL    HW2 4197   2.866   1.476   2.437
 1399SOL     OW 4198   2.213   1.801   2.715
 1399SOL    HW1 4199   2.263   1.715   2.721
 1399SOL    HW2 4200   2.278   1.878   2.712
 1400SOL     OW 4201   3.657   1.066   2.735
 1400SOL    HW1 4202   3.595   1.051   2.659
 1400SOL    HW2 4203   3.605   1.077   2.820
 1401SOL     OW 4204   3.089   1.550   3.368
 1401SOL    HW1 4205   3.095   1.473   3.432
 1401SOL    HW2 4206   3.037   1.524   3.288
 1402SOL     OW 4207   2.183   0.943   2.104
 1402SOL    HW1 4208   2.265   0.982   2.062
 1402SOL    HW2 4209   2.156   0.861   2.055
 1403SOL     OW 4210   3.320   0.735   2.590
 1403SOL    HW1 4211   3.315   0.670   2.665
 1403SOL    HW2 4212   3.400   0.794   2.603
 1404SOL     OW 4213   2.323   1.266   3.589
 1404SOL    HW1 4214   2.273   1.267   3.503
 1404SOL    HW2 4215   2.260   1.248   3.665
 1405SOL     OW 4216   2.973   1.776   2.099
 1405SOL    HW1 4217   2.913   1.714   2.149
 1405SOL    HW2 4218   3.004   1.732   2.014
 1406SOL     OW 4219   2.064   0.285   3.360
 1406SOL    HW1 4220   1.984   0.345   3.347
 1406SOL    HW2 4221   2.054   0.236   3.446
 1407SOL     OW 4222   3.494   1.377   1.943
 1407SOL    HW1 4223   3.462   1.471   1.933
 1407SOL    HW2 4224   3.418   1.314   1.931
 1408SOL     OW 4225   2.326   1.743   2.185
 1408SOL    HW1 4226   2.359   1.782   2.271
 1408SOL    HW2 4227   2.402   1.736   2.120
 1409SOL     OW 4228   3.262   0.107   2.288
 1409SOL    HW1 4229   3.238   0.070   2.198
 1409SOL    HW2 4230   3.361   0.123   2.292
 1410SOL     OW 4231   2.111   1.785   3.103
 1410SOL    HW1 4232   2.168   1.720   3.153
 1410SOL    HW2 4233   2.095   1.752   3.010
 1411SOL     OW 4234   2.802   1.698   2.766
 1411SOL    HW1 4235   2.882   1.641   2.787
 1411SOL    HW2 4236   2.753   1.658   2.689
 1412SOL     OW 4237   2.244   0.700   2.342
 1412SOL    HW1 4238   2.289   0.610   2.339
 1412SOL    HW2 4239   2.150   0.689   2.375
 1413SOL     OW 4240   3.409   0.222   3.591
 1413SOL    HW1 4241   3.404   0.259   3.683
 1413SOL    HW2 4242   3.337   0.153   3.579
 1414SOL     OW 4243   2.476   0.122   1.979
 1414SOL    HW1 4244   2.574   0.100   1.986
 1414SOL    HW2 4245   2.445   0.105   1.886
 1415SOL     OW 4246   2.643   0.264   3.611
 1415SOL    HW1 4247   2.710   0.203   3.654
 1415SOL    HW2 4248   2.570   0.283   3.676
 1416SOL     OW 4249   2.750   1.514   3.057
 1416SOL    HW1 4250   2.727   1.489   2.963
 1416SOL    HW2 4251   2.811   1.445   3.096
 1417SOL     OW 4252   3.213   0.590   3.295
 1417SOL    HW1 4253   3.241   0.547   3.380
 1417SOL    HW2 4254   3.238   0.686   3.296
 1418SOL     OW 4255   2.665   1.402   2.786
 1418SOL    HW1 4256   2.755   1.416   2.744
 1418SOL    HW2 4257   2.594   1.404   2.715
 1419SOL     OW 4258   2.784   0.503   2.761
 1419SOL    HW1 4259   2.759   0.494   2.665
 1419SOL    HW2 4260   2.832   0.421   2.792
 1420SOL     OW 4261   2.401   0.064   2.374
 1420SOL    HW1 4262   2.320   0.065   2.432
 1420SOL    HW2 4263   2.404   0.147   2.319
 1421SOL     OW 4264   3.296   1.188   1.903
 1421SOL    HW1 4265   3.328   1.112   1.960
 1421SOL    HW2 4266   3.204   1.215   1.933
 1422SOL     OW 4267   2.159   0.035   2.033
 1422SOL    HW1 4268   2.208   0.119   2.012
 1422SOL    HW2 4269   2.221  -0.030   2.078
 1423SOL     OW 4270   2.797   0.236   2.342
 1423SOL    HW1 4271   2.749   0.277   2.264
 1423SOL    HW2 4272   2.896   0.234   2.323
 1424SOL     OW 4273   2.938   0.683   3.326
 1424SOL    HW1 4274   2.858   0.622   3.329
 1424SOL    HW2 4275   3.019   0.630   3.302
 1425SOL     OW 4276   3.089   1.570   2.655
 1425SOL    HW1 4277   3.110   1.644   2.590
 1425SOL    HW2 4278   3.157   1.570   2.728
 1426SOL     OW 4279   2.321   1.152   2.603
 1426SOL    HW1 4280   2.250   1.125   2.668
 1426SOL    HW2 4281   2.295   1.124   2.510
 1427SOL     OW 4282   3.133   1.797   2.453
 1427SOL    HW1 4283   3.177   1.861   2.389
 1427SOL    HW2 4284   3.083   1.849   2.523
 1428SOL     OW 4285   2.894   0.549   1.878
 1428SOL    HW1 4286   2.853   0.631   1.839
 1428SOL    HW2 4287   2.958   0.575   1.951
 1429SOL     OW 4288   1.940   0.556   3.248
 1429SOL    HW1 4289   2.032   0.555   3.207
 1429SOL    HW2 4290   1.934   0.630   3.315
 1430SOL     OW 4291   2.423   0.222   3.009
 1430SOL    HW1 4292   2.461   0.138   3.046
 1430SOL    HW2 4293   2.335   0.241   3.053
 1431SOL     OW 4294   2.728   0.454   2.504
 1431SOL    HW1 4295   2.696   0.526   2.442
 1431SOL    HW2 4296   2.752   0.373   2.451
 1432SOL     OW 4297   2.879   0.039   2.615
 1432SOL    HW1 4298   2.807   0.044   2.546
 1432SOL    HW2 4299   2.855  -0.030   2.684
 1433SOL     OW 4300   3.291   1.173   2.729
 1433SOL    HW1 4301   3.236   1.089   2.722
 1433SOL    HW2 4302   3.317   1.202   2.637
 1434SOL     OW 4303   3.328   0.590   2.854
 1434SOL    HW1 4304   3.298   0.495   2.861
 1434SOL    HW2 4305   3.401   0.606   2.920
 1435SOL     OW 4306   3.719   0.833   2.239
 1435SOL    HW1 4307   3.761   0.769   2.303
 1435SOL    HW2 4308   3.681   0.782   2.161
 1436SOL     OW 4309   2.350   1.385   2.036
 1436SOL    HW1 4310   2.263   1.370   2.083
 1436SOL    HW2 4311   2.333   1.411   1.941
 1437SOL     OW 4312   3.526   1.280   2.519
 1437SOL    HW1 4313   3.625   1.288   2.533
 1437SOL    HW2 4314   3.481   1.364   2.550
 1438SOL     OW 4315   3.252   0.575   1.940
 1438SOL    HW1 4316   3.198   0.554   2.021
 1438SOL    HW2 4317   3.343   0.534   1.949
 1439SOL     OW 4318   2.389   0.256   2.190
 1439SOL    HW1 4319   2.416   0.197   2.115
 1439SOL    HW2 4320   2.389   0.351   2.159
 1440SOL     OW 4321   3.616   1.223   3.450
 1440SOL    HW1 4322   3.707   1.184   3.437
 1440SOL    HW2 4323   3.624   1.319   3.474
 1441SOL     OW 4324   2.926   1.347   3.202
 1441SOL    HW1 4325   2.846   1.324   3.257
 1441SOL    HW2 4326   3.009   1.321   3.251
 1442SOL     OW 4327   3.454   1.629   3.487
 1442SOL    HW1 4328   3.481   1.663   3.397
 1442SOL    HW2 4329   3.533   1.591   3.533
 1443SOL     OW 4330   2.973   1.195   2.962
 1443SOL    HW1 4331   2.933   1.239   3.043
 1443SOL    HW2 4332   2.932   1.232   2.879
 1444SOL     OW 4333   3.500   1.099   2.941
 1444SOL    HW1 4334   3.505   1.180   3.000
 1444SOL    HW2 4335   3.414   1.101   2.890
 1445SOL     OW 4336   2.777   0.089   3.264
 1445SOL    HW1 4337   2.802   0.069   3.169
 1445SOL    HW2 4338   2.849   0.145   3.306
 1446SOL     OW 4339   2.842   1.116   3.581
 1446SOL    HW1 4340   2.743   1.122   3.591
 1446SOL    HW2 4341   2.865   1.036   3.525
 1447SOL     OW 4342   2.567   1.050   2.230
 1447SOL    HW1 4343   2.553   1.057   2.329
 1447SOL    HW2 4344   2.651   0.999   2.212
 1448SOL     OW 4345   2.272   0.813   3.113
 1448SOL    HW1 4346   2.358   0.825   3.163
 1448SOL    HW2 4347   2.230   0.726   3.140
 1449SOL     OW 4348   3.136   0.386   3.124
 1449SOL    HW1 4349   3.157   0.460   3.188
 1449SOL    HW2 4350   3.047   0.403   3.081
 1450SOL     OW 4351   1.926   1.564   3.193
 1450SOL    HW1 4352   1.880   1.646   3.159
 1450SOL    HW2 4353   2.024   1.583   3.202
 1451SOL     OW 4354   2.229   1.100   2.363
 1451SOL    HW1 4355   2.222   1.183   2.307
 1451SOL    HW2 4356   2.233   1.020   2.303
 1452SOL     OW 4357   2.428   0.537   2.727
 1452SOL    HW1 4358   2.440   0.603   2.653
 1452SOL    HW2 4359   2.474   0.571   2.810
 1453SOL     OW 4360   3.114   1.348   2.250
 1453SOL    HW1 4361   3.164   1.425   2.290
 1453SOL    HW2 4362   3.019   1.350   2.282
 1454SOL     OW 4363   3.134   1.445   3.004
 1454SOL    HW1 4364   3.181   1.458   3.091
 1454SOL    HW2 4365   3.068   1.371   3.013
 1455SOL     OW 4366   3.444   0.639   2.334
 1455SOL    HW1 4367   3.413   0.700   2.407
 1455SOL    HW2 4368   3.494   0.691   2.265
 1456SOL     OW 4369   2.216   1.510   3.191
 1456SOL    HW1 4370   2.195   1.466   3.104
 1456SOL    HW2 4371   2.313   1.536   3.194
 1457SOL     OW 4372   2.264   0.751   3.460
 1457SOL    HW1 4373   2.332   0.806   3.413
 1457SOL    HW2 4374   2.304   0.663   3.487
 1458SOL     OW 4375   3.449   0.779   3.532
 1458SOL    HW1 4376   3.357   0.817   3.527
 1458SOL    HW2 4377   3.509   0.826   3.467
 1459SOL     OW 4378   2.875   0.105   3.632
 1459SOL    HW1 4379   2.881   0.190   3.580
 1459SOL    HW2 4380   2.907   0.029   3.575
 1460SOL     OW 4381   2.366   0.050   3.602
 1460SOL    HW1 4382   2.324  -0.007   3.532
 1460SOL    HW2 4383   2.300   0.119   3.634
 1461SOL     OW 4384   2.435   0.870   2.891
 1461SOL    HW1 4385   2.479   0.959   2.882
 1461SOL    HW2 4386   2.372   0.870   2.968
 1462SOL     OW 4387   3.222   0.862   2.907
 1462SOL    HW1 4388   3.147   0.862   2.841
 1462SOL    HW2 4389   3.259   0.770   2.916
 1463SOL     OW 4390   3.071   0.525   2.137
 1463SOL    HW1 4391   3.084   0.441   2.191
 1463SOL    HW2 4392   3.042   0.599   2.197
 1464SOL     OW 4393   2.169   0.213   3.093
 1464SOL    HW1 4394   2.146   0.250   3.183
 1464SOL    HW2 4395   2.139   0.118   3.087
 1465SOL     OW 4396   1.899   1.310   3.144
 1465SOL    HW1 4397   1.952   1.261   3.212
 1465SOL    HW2 4398   1.921   1.408   3.149
 1466SOL     OW 4399   2.594   0.634   2.926
 1466SOL    HW1 4400   2.653   0.608   2.850
 1466SOL    HW2 4401   2.566   0.730   2.915
 1467SOL     OW 4402   3.590   0.935   3.716
 1467SOL    HW1 4403   3.544   0.928   3.627
 1467SOL    HW2 4404   3.528   0.979   3.782
 1468SOL     OW 4405   2.169   0.063   2.480
 1468SOL    HW1 4406   2.158   0.157   2.513
 1468SOL    HW2 4407   2.164   0.000   2.557
 1469SOL     OW 4408   3.484   0.367   2.236
 1469SOL    HW1 4409   3.486   0.291   2.300
 1469SOL    HW2 4410   3.436   0.444   2.276
 1470SOL     OW 4411   2.885   0.766   2.828
 1470SOL    HW1 4412   2.900   0.787   2.924
 1470SOL    HW2 4413   2.855   0.671   2.819
 1471SOL     OW 4414   2.842   1.573   3.562
 1471SOL    HW1 4415   2.822   1.617   3.474
 1471SOL    HW2 4416   2.881   1.482   3.546
 1472SOL     OW 4417   3.721   1.518   3.467
 1472SOL    HW1 4418   3.735   1.545   3.372
 1472SOL    HW2 4419   3.804   1.540   3.520
 1473SOL     OW 4420   2.212   0.898   3.666
 1473SOL    HW1 4421   2.288   0.942   3.714
 1473SOL    HW2 4422   2.247   0.851   3.584
 1474SOL     OW 4423   3.402   0.274   1.987
 1474SOL    HW1 4424   3.341   0.199   2.010
 1474SOL    HW2 4425   3.424   0.326   2.070
 1475SOL     OW 4426   3.165   0.838   1.904
 1475SOL    HW1 4427   3.199   0.745   1.919
 1475SOL    HW2 4428   3.183   0.865   1.809
 1476SOL     OW 4429   2.930   1.333   2.711
 1476SOL    HW1 4430   2.937   1.249   2.656
 1476SOL    HW2 4431   2.992   1.402   2.675
 1477SOL     OW 4432   2.181   0.810   2.811
 1477SOL    HW1 4433   2.274   0.846   2.816
 1477SOL    HW2 4434   2.175   0.725   2.863
 1478SOL     OW 4435   2.201   0.509   2.868
 1478SOL    HW1 4436   2.149   0.426   2.851
 1478SOL    HW2 4437   2.278   0.514   2.804
 1479SOL     OW 4438   3.000   0.380   3.540
 1479SOL    HW1 4439   2.955   0.443   3.604
 1479SOL    HW2 4440   3.093   0.411   3.523
 1480SOL     OW 4441   3.022   0.207   3.339
 1480SOL    HW1 4442   3.022   0.271   3.416
 1480SOL    HW2 4443   3.050   0.255   3.256
 1481SOL     OW 4444   1.870   1.326   2.062
 1481SOL    HW1 4445   1.777   1.347   2.031
 1481SOL    HW2 4446   1.880   1.227   2.075
 1482SOL     OW 4447   1.950   1.801   2.789
 1482SOL    HW1 4448   1.908   1.715   2.762
 1482SOL    HW2 4449   2.044   1.804   2.755
 1483SOL     OW 4450   2.366   1.568   2.772
 1483SOL    HW1 4451   2.432   1.642   2.781
 1483SOL    HW2 4452   2.410   1.489   2.730
 1484SOL     OW 4453   2.864   0.796   3.100
 1484SOL    HW1 4454   2.905   0.764   3.186
 1484SOL    HW2 4455   2.768   0.769   3.097
 1485SOL     OW 4456   1.902   0.544   2.976
 1485SOL    HW1 4457   1.987   0.511   2.935
 1485SOL    HW2 4458   1.915   0.559   3.074
 1486SOL     OW 4459   2.051   0.520   3.584
 1486SOL    HW1 4460   2.110   0.480   3.514
 1486SOL    HW2 4461   1.993   0.591   3.543
 1487SOL     OW 4462   3.231   0.950   3.522
 1487SOL    HW1 4463   3.270   1.039   3.542
 1487SOL    HW2 4464   3.241   0.930   3.425
 1488SOL     OW 4465   2.677   0.572   2.187
 1488SOL    HW1 4466   2.684   0.483   2.141
 1488SOL    HW2 4467   2.583   0.606   2.179
 1489SOL     OW 4468   3.519   0.604   3.068
 1489SOL    HW1 4469   3.481   0.535   3.130
 1489SOL    HW2 4470   3.601   0.568   3.024
 1490SOL     OW 4471   2.114   1.564   3.606
 1490SOL    HW1 4472   2.084   1.621   3.682
 1490SOL    HW2 4473   2.107   1.467   3.632
 1491SOL     OW 4474   2.533   0.464   3.131
 1491SOL    HW1 4475   2.499   0.375   3.101
 1491SOL    HW2 4476   2.559   0.518   3.051
 1492SOL     OW 4477   2.792   1.678   3.327
 1492SOL    HW1 4478   2.768   1.660   3.232
 1492SOL    HW2 4479   2.822   1.772   3.337
 1493SOL     OW 4480   2.335   0.500   2.053
 1493SOL    HW1 4481   2.396   0.580   2.057
 1493SOL    HW2 4482   2.240   0.531   2.060
 1494SOL     OW 4483   2.021   1.137   3.328
 1494SOL    HW1 4484   2.043   1.076   3.404
 1494SOL    HW2 4485   2.031   1.088   3.242
 1495SOL     OW 4486   3.209   1.059   3.096
 1495SOL    HW1 4487   3.233   0.996   3.022
 1495SOL    HW2 4488   3.119   1.099   3.078
 1496SOL     OW 4489   3.164   0.855   2.171
 1496SOL    HW1 4490   3.078   0.824   2.213
 1496SOL    HW2 4491   3.160   0.841   2.072
 1497SOL     OW 4492   3.621   1.747   3.016
 1497SOL    HW1 4493   3.682   1.777   2.943
 1497SOL    HW2 4494   3.583   1.658   2.994
 1498SOL     OW 4495   3.114   1.731   2.990
 1498SOL    HW1 4496   3.198   1.736   2.936
 1498SOL    HW2 4497   3.091   1.635   3.008
 1499SOL     OW 4498   1.945   1.258   2.884
 1499SOL    HW1 4499   1.940   1.257   2.984
 1499SOL    HW2 4500   1.862   1.217   2.846
 1500SOL     OW 4501   2.550   1.662   3.578
 1500SOL    HW1 4502   2.494   1.743   3.587
 1500SOL    HW2 4503   2.602   1.666   3.492
 1501SOL     OW 4504   3.588   0.135   2.385
 1501SOL    HW1 4505   3.661   0.118   2.318
 1501SOL    HW2 4506   3.557   0.048   2.423
 1502SOL     OW 4507   3.250   1.573   2.339
 1502SOL    HW1 4508   3.317   1.585   2.265
 1502SOL    HW2 4509   3.210   1.662   2.362
 1503SOL     OW 4510   1.992   1.794   3.713
 1503SOL    HW1 4511   1.951   1.720   3.766
 1503SOL    HW2 4512   2.056   1.845   3.771
 1504SOL     OW 4513   3.142   0.927   2.534
 1504SOL    HW1 4514   3.202   0.846   2.536
 1504SOL    HW2 4515   3.182   0.996   2.474
 1505SOL     OW 4516   2.692   1.273   3.284
 1505SOL    HW1 4517   2.687   1.306   3.379
 1505SOL    HW2 4518   2.606   1.292   3.238
 1506SOL     OW 4519   2.534   1.616   2.016
 1506SOL    HW1 4520   2.543   1.626   1.917
 1506SOL    HW2 4521   2.494   1.527   2.037
 1507SOL     OW 4522   3.512   1.720   3.256
 1507SOL    HW1 4523   3.565   1.730   3.172
 1507SOL    HW2 4524   3.485   1.810   3.290
 1508SOL     OW 4525   3.703   0.175   2.825
 1508SOL    HW1 4526   3.742   0.090   2.789
 1508SOL    HW2 4527   3.605   0.177   2.806
 1509SOL     OW 4528   2.125   0.326   2.582
 1509SOL    HW1 4529   2.046   0.377   2.548
 1509SOL    HW2 4530   2.116   0.311   2.680
 1510SOL     OW 4531   3.056   1.612   1.893
 1510SOL    HW1 4532   3.062   1.519   1.930
 1510SOL    HW2 4533   2.997   1.612   1.813
 1511SOL     OW 4534   2.684   1.002   3.234
 1511SOL    HW1 4535   2.724   1.001   3.142
 1511SOL    HW2 4536   2.694   1.094   3.274
 1512SOL     OW 4537   2.778   0.910   2.153
 1512SOL    HW1 4538   2.841   0.948   2.085
 1512SOL    HW2 4539   2.818   0.827   2.192
 1513SOL     OW 4540   3.366   1.607   1.906
 1513SOL    HW1 4541   3.274   1.644   1.913
 1513SOL    HW2 4542   3.404   1.627   1.816
 1514SOL     OW 4543   2.234   1.288   3.352
 1514SOL    HW1 4544   2.221   1.381   3.318
 1514SOL    HW2 4545   2.150   1.236   3.339
 1515SOL     OW 4546   3.476   1.292   3.151
 1515SOL    HW1 4547   3.536   1.295   3.231
 1515SOL    HW2 4548   3.401   1.356   3.164
 1516SOL     OW 4549   2.901   1.098   2.558
 1516SOL    HW1 4550   2.831   1.051   2.612
 1516SOL    HW2 4551   2.960   1.030   2.515
 1517SOL     OW 4552   2.876   0.236   2.833
 1517SOL    HW1 4553   2.868   0.200   2.740
 1517SOL    HW2 4554   2.874   0.160   2.898
 1518SOL     OW 4555   2.452   1.487   2.353
 1518SOL    HW1 4556   2.494   1.429   2.283
 1518SOL    HW2 4557   2.408   1.566   2.309
 1519SOL     OW 4558   3.571   0.385   3.243
 1519SOL    HW1 4559   3.644   0.454   3.247
 1519SOL    HW2 4560   3.599   0.310   3.184
 1520SOL     OW 4561   2.117   1.348   2.152
 1520SOL    HW1 4562   2.021   1.349   2.125
 1520SOL    HW2 4563   2.129   1.401   2.236
 1521SOL     OW 4564   1.967   1.013   3.588
 1521SOL    HW1 4565   1.890   0.980   3.642
 1521SOL    HW2 4566   2.052   0.983   3.630
 1522SOL     OW 4567   2.534   0.203   3.351
 1522SOL    HW1 4568   2.624   0.187   3.311
 1522SOL    HW2 4569   2.542   0.208   3.450
 1523SOL     OW 4570   1.937   0.345   1.895
 1523SOL    HW1 4571   1.845   0.317   1.866
 1523SOL    HW2 4572   1.968   0.422   1.839
 1524SOL     OW 4573   3.302   0.856   3.260
 1524SOL    HW1 4574   3.245   0.908   3.197
 1524SOL    HW2 4575   3.398   0.868   3.236
 1525SOL     OW 4576   1.934   0.166   2.180
 1525SOL    HW1 4577   1.917   0.249   2.126
 1525SOL    HW2 4578   2.024   0.129   2.158
 1526SOL     OW 4579   3.045   1.335   1.981
 1526SOL    HW1 4580   2.946   1.324   1.983
 1526SOL    HW2 4581   3.079   1.350   2.074
 1527SOL     OW 4582   2.475   0.842   3.293
 1527SOL    HW1 4583   2.531   0.923   3.276
 1527SOL    HW2 4584   2.534   0.762   3.296
 1528SOL     OW 4585   3.355   1.767   2.821
 1528SOL    HW1 4586   3.388   1.831   2.752
 1528SOL    HW2 4587   3.421   1.761   2.896
 1529SOL     OW 4588   2.578   0.565   3.570
 1529SOL    HW1 4589   2.597   0.630   3.644
 1529SOL    HW2 4590   2.638   0.485   3.579
 1530SOL     OW 4591   3.312   1.220   3.495
 1530SOL    HW1 4592   3.303   1.210   3.594
 1530SOL    HW2 4593   3.408   1.213   3.469
 1531SOL     OW 4594   2.252   1.741   3.422
 1531SOL    HW1 4595   2.161   1.782   3.420
 1531SOL    HW2 4596   2.245   1.647   3.454
 1532SOL     OW 4597   3.536   0.883   3.116
 1532SOL    HW1 4598   3.509   0.794   3.079
 1532SOL    HW2 4599   3.537   0.951   3.043
 1533SOL     OW 4600   3.087   0.325   2.311
 1533SOL    HW1 4601   3.152   0.251   2.300
 1533SOL    HW2 4602   3.107   0.375   2.395
 1534SOL     OW 4603   2.456   0.745   2.514
 1534SOL    HW1 4604   2.506   0.830   2.495
 1534SOL    HW2 4605   2.368   0.747   2.466
 1535SOL     OW 4606   3.639   0.342   3.504
 1535SOL    HW1 4607   3.622   0.373   3.410
 1535SOL    HW2 4608   3.555   0.305   3.542
 1536SOL     OW 4609   3.592   0.934   3.379
 1536SOL    HW1 4610   3.630   1.025   3.394
 1536SOL    HW2 4611   3.584   0.917   3.280
 1537SOL     OW 4612   2.721   1.374   1.878
 1537SOL    HW1 4613   2.675   1.389   1.966
 1537SOL    HW2 4614   2.765   1.459   1.848
 1538SOL     OW 4615   2.523   1.790   2.815
 1538SOL    HW1 4616   2.477   1.878   2.802
 1538SOL    HW2 4617   2.622   1.802   2.808
 1539SOL     OW 4618   2.721   0.956   2.723
 1539SOL    HW1 4619   2.775   0.887   2.771
 1539SOL    HW2 4620   2.689   1.025   2.789
 1540SOL     OW 4621   2.945   0.984   1.949
 1540SOL    HW1 4622   2.922   1.037   1.867
 1540SOL    HW2 4623   3.026   0.928   1.930
 1541SOL     OW 4624   3.723   1.569   2.713
 1541SOL    HW1 4625   3.652   1.557   2.643
 1541SOL    HW2 4626   3.724   1.490   2.773
 1542SOL     OW 4627   2.083   1.314   3.706
 1542SOL    HW1 4628   2.018   1.241   3.685
 1542SOL    HW2 4629   2.087   1.328   3.804
 1543SOL     OW 4630   1.941   1.240   2.515
 1543SOL    HW1 4631   1.940   1.193   2.603
 1543SOL    HW2 4632   2.023   1.212   2.464
 1544SOL     OW 4633   2.534   1.391   3.486
 1544SOL    HW1 4634   2.456   1.341   3.524
 1544SOL    HW2 4635   2.531   1.486   3.517
 1545SOL     OW 4636   3.686   0.192   3.089
 1545SOL    HW1 4637   3.682   0.102   3.133
 1545SOL    HW2 4638   3.689   0.181   2.990
 1546SOL     OW 4639   2.290   0.424   2.382
 1546SOL    HW1 4640   2.320   0.352   2.320
 1546SOL    HW2 4641   2.251   0.384   2.465
 1547SOL     OW 4642   3.567   1.487   2.966
 1547SOL    HW1 4643   3.474   1.462   2.939
 1547SOL    HW2 4644   3.593   1.437   3.048
 1548SOL     OW 4645   2.179   0.547   3.142
 1548SOL    HW1 4646   2.217   0.488   3.214
 1548SOL    HW2 4647   2.219   0.521   3.054
 1549SOL     OW 4648   2.674   1.586   2.549
 1549SOL    HW1 4649   2.706   1.596   2.455
 1549SOL    HW2 4650   2.595   1.524   2.551
 1550SOL     OW 4651   3.286   0.214   2.974
 1550SOL    HW1 4652   3.338   0.149   3.029
 1550SOL    HW2 4653   3.237   0.277   3.035
 1551SOL     OW 4654   2.863   0.034   3.016
 1551SOL    HW1 4655   2.800  -0.038   2.985
 1551SOL    HW2 4656   2.956  -0.002   3.016
 1552SOL     OW 4657   2.632   1.330   2.163
 1552SOL    HW1 4658   2.586   1.243   2.180
 1552SOL    HW2 4659   2.723   1.327   2.204
 1553SOL     OW 4660   2.480   1.567   3.146
 1553SOL    HW1 4661   2.475   1.649   3.203
 1553SOL    HW2 4662   2.569   1.564   3.101
 1554SOL     OW 4663   3.214   0.052   2.030
 1554SOL    HW1 4664   3.249   0.011   1.946
 1554SOL    HW2 4665   3.124   0.014   2.050
 1555SOL     OW 4666   3.162   0.453   2.553
 1555SOL    HW1 4667   3.103   0.533   2.557
 1555SOL    HW2 4668   3.177   0.418   2.646
 1556SOL     OW 4669   3.455   0.221   2.744
 1556SOL    HW1 4670   3.371   0.220   2.798
 1556SOL    HW2 4671   3.457   0.304   2.688
 1557SOL     OW 4672   1.901   1.077   2.162
 1557SOL    HW1 4673   2.000   1.066   2.153
 1557SOL    HW2 4674   1.861   0.991   2.194
 1558SOL     OW 4675   2.737   1.646   2.199
 1558SOL    HW1 4676   2.660   1.611   2.145
 1558SOL    HW2 4677   2.705   1.717   2.261
 1559SOL     OW 4678   2.092   0.628   3.837
 1559SOL    HW1 4679   1.999   0.626   3.874
 1559SOL    HW2 4680   2.093   0.589   3.745
 1560SOL     OW 4681   3.617   0.607   3.955
 1560SOL    HW1 4682   3.605   0.594   3.856
 1560SOL    HW2 4683   3.587   0.526   4.004
 1561SOL     OW 4684   2.093   1.713   4.207
 1561SOL    HW1 4685   2.127   1.790   4.261
 1561SOL    HW2 4686   2.137   1.713   4.117
 1562SOL     OW 4687   2.092   1.434   4.262
 1562SOL    HW1 4688   2.066   1.530   4.262
 1562SOL    HW2 4689   2.021   1.380   4.307
 1563SOL     OW 4690   2.468   0.964   3.847
 1563SOL    HW1 4691   2.475   1.048   3.793
 1563SOL    HW2 4692   2.514   0.977   3.935
 1564SOL     OW 4693   3.704   1.767   4.083
 1564SOL    HW1 4694   3.758   1.738   4.163
 1564SOL    HW2 4695   3.734   1.857   4.054
 1565SOL     OW 4696   1.889   1.596   3.841
 1565SOL    HW1 4697   1.870   1.500   3.862
 1565SOL    HW2 4698   1.856   1.654   3.916
 1566SOL     OW 4699   3.551   0.922   4.336
 1566SOL    HW1 4700   3.646   0.893   4.344
 1566SOL    HW2 4701   3.543   0.987   4.261
 1567SOL     OW 4702   3.503   1.108   4.156
 1567SOL    HW1 4703   3.589   1.110   4.104
 1567SOL    HW2 4704   3.517   1.155   4.244
 1568SOL     OW 4705   2.671   0.004   4.226
 1568SOL    HW1 4706   2.711   0.095   4.217
 1568SOL    HW2 4707   2.571   0.012   4.232
 1569SOL     OW 4708   3.387   0.999   3.914
 1569SOL    HW1 4709   3.324   0.923   3.927
 1569SOL    HW2 4710   3.435   1.017   4.000
 1570SOL     OW 4711   2.460   0.729   3.994
 1570SOL    HW1 4712   2.484   0.798   3.926
 1570SOL    HW2 4713   2.382   0.762   4.048
 1571SOL     OW 4714   3.438   1.662   4.031
 1571SOL    HW1 4715   3.527   1.708   4.034
 1571SOL    HW2 4716   3.417   1.638   3.936
 1572SOL     OW 4717   2.727   0.348   3.919
 1572SOL    HW1 4718   2.786   0.411   3.870
 1572SOL    HW2 4719   2.746   0.254   3.890
 1573SOL     OW 4720   2.183   0.943   3.966
 1573SOL    HW1 4721   2.265   0.982   3.924
 1573SOL    HW2 4722   2.156   0.861   3.917
 1574SOL     OW 4723   2.973   1.776   3.961
 1574SOL    HW1 4724   2.913   1.714   4.011
 1574SOL    HW2 4725   3.004   1.732   3.876
 1575SOL     OW 4726   3.494   1.377   3.805
 1575SOL    HW1 4727   3.462   1.471   3.795
 1575SOL    HW2 4728   3.418   1.314   3.793
 1576SOL     OW 4729   2.326   1.743   4.047
 1576SOL    HW1 4730   2.359   1.782   4.133
 1576SOL    HW2 4731   2.402   1.736   3.982
 1577SOL     OW 4732   3.262   0.107   4.150
 1577SOL    HW1 4733   3.238   0.070   4.060
 1577SOL    HW2 4734   3.361   0.123   4.154
 1578SOL     OW 4735   2.244   0.700   4.204
 1578SOL    HW1 4736   2.289   0.610   4.201
 1578SOL    HW2 4737   2.150   0.689   4.237
 1579SOL     OW 4738   2.476   0.122   3.841
 1579SOL    HW1 4739   2.574   0.100   3.848
 1579SOL    HW2 4740   2.445   0.105   3.748
 1580SOL     OW 4741   3.296   1.188   3.765
 1580SOL    HW1 4742   3.328   1.112   3.822
 1580SOL    HW2 4743   3.204   1.215   3.795
 1581SOL     OW 4744   2.159   0.035   3.895
 1581SOL    HW1 4745   2.208   0.119   3.874
 1581SOL    HW2 4746   2.221  -0.030   3.940
 1582SOL     OW 4747   2.797   0.236   4.204
 1582SOL    HW1 4748   2.749   0.277   4.126
 1582SOL    HW2 4749   2.896   0.234   4.185
 1583SOL     OW 4750   2.321   1.152   4.465
 1583SOL    HW1 4751   2.250   1.125   4.530
 1583SOL    HW2 4752   2.295   1.124   4.372
 1584SOL     OW 4753   3.133   1.797   4.315
 1584SOL    HW1 4754   3.177   1.861   4.251
 1584SOL    HW2 4755   3.083   1.849   4.385
 1585SOL     OW 4756   2.894   0.549   3.740
 1585SOL    HW1 4757   2.853   0.631   3.701
 1585SOL    HW2 4758   2.958   0.575   3.813
 1586SOL     OW 4759   3.719   0.833   4.101
 1586SOL    HW1 4760   3.761   0.769   4.165
 1586SOL    HW2 4761   3.681   0.782   4.023
 1587SOL     OW 4762   2.350   1.385   3.898
 1587SOL    HW1 4763   2.263   1.370   3.945
 1587SOL    HW2 4764   2.333   1.411   3.803
 1588SOL     OW 4765   3.252   0.575   3.802
 1588SOL    HW1 4766   3.198   0.554   3.883
 1588SOL    HW2 4767   3.343   0.534   3.811
 1589SOL     OW 4768   2.389   0.256   4.052
 1589SOL    HW1 4769   2.416   0.197   3.977
 1589SOL    HW2 4770   2.389   0.351   4.021
 1590SOL     OW 4771   2.567   1.050   4.092
 1590SOL    HW1 4772   2.553   1.057   4.191
 1590SOL    HW2 4773   2.651   0.999   4.074
 1591SOL     OW 4774   2.229   1.100   4.225
 1591SOL    HW1 4775   2.222   1.183   4.169
 1591SOL    HW2 4776   2.233   1.020   4.165
 1592SOL     OW 4777   3.114   1.348   4.112
 1592SOL    HW1 4778   3.164   1.425   4.152
 1592SOL    HW2 4779   3.019   1.350   4.144
 1593SOL     OW 4780   3.444   0.639   4.196
 1593SOL    HW1 4781   3.413   0.700   4.269
 1593SOL    HW2 4782   3.494   0.691   4.127
 1594SOL     OW 4783   3.071   0.525   3.999
 1594SOL    HW1 4784   3.084   0.441   4.053
 1594SOL    HW2 4785   3.042   0.599   4.059
 1595SOL     OW 4786   3.484   0.367   4.098
 1595SOL    HW1 4787   3.486   0.291   4.162
 1595SOL    HW2 4788   3.436   0.444   4.138
 1596SOL     OW 4789   3.402   0.274   3.849
 1596SOL    HW1 4790   3.341   0.199   3.872
 1596SOL    HW2 4791   3.424   0.326   3.932
 1597SOL     OW 4792   3.165   0.838   3.766
 1597SOL    HW1 4793   3.199   0.745   3.781
 1597SOL    HW2 4794   3.183   0.865   3.671
 1598SOL     OW 4795   1.870   1.326   3.924
 1598SOL    HW1 4796   1.777   1.347   3.893
 1598SOL    HW2 4797   1.880   1.227   3.937
 1599SOL     OW 4798   2.677   0.572   4.049
 1599SOL    HW1 4799   2.684   0.483   4.003
 1599SOL    HW2 4800   2.583   0.606   4.041
 1600SOL     OW 4801   2.335   0.500   3.915
 1600SOL    HW1 4802   2.396   0.580   3.919
 1600SOL    HW2 4803   2.240   0.531   3.922
 1601SOL     OW 4804   3.164   0.855   4.033
 1601SOL    HW1 4805   3.078   0.824   4.075
 1601SOL    HW2 4806   3.160   0.841   3.934
 1602SOL     OW 4807   3.588   0.135   4.247
 1602SOL    HW1 4808   3.661   0.118   4.180
 1602SOL    HW2 4809   3.557   0.048   4.285
 1603SOL     OW 4810   3.250   1.573   4.201
 1603SOL    HW1 4811   3.317   1.585   4.127
 1603SOL    HW2 4812   3.210   1.662   4.224
 1604SOL     OW 4813   2.534   1.616   3.878
 1604SOL    HW1 4814   2.543   1.626   3.779
 1604SOL    HW2 4815   2.494   1.527   3.899
 1605SOL     OW 4816   3.056   1.612   3.755
 1605SOL    HW1 4817   3.062   1.519   3.792
 1605SOL    HW2 4818   2.997   1.612   3.675
 1606SOL     OW 4819   2.778   0.910   4.015
 1606SOL    HW1 4820   2.841   0.948   3.947
 1606SOL    HW2 4821   2.818   0.827   4.054
 1607SOL     OW 4822   3.366   1.607   3.768
 1607SOL    HW1 4823   3.274   1.644   3.775
 1607SOL    HW2 4824   3.404   1.627   3.678
 1608SOL     OW 4825   2.452   1.487   4.215
 1608SOL    HW1 4826   2.494   1.429   4.145
 1608SOL    HW2 4827   2.408   1.566   4.171
 1609SOL     OW 4828   2.117   1.348   4.014
 1609SOL    HW1 4829   2.021   1.349   3.987
 1609SOL    HW2 4830   2.129   1.401   4.098
 1610SOL     OW 4831   1.937   0.345   3.757
 1610SOL    HW1 4832   1.845   0.317   3.728
 1610SOL    HW2 4833   1.968   0.422   3.701
 1611SOL     OW 4834   1.934   0.166   4.042
 1611SOL    HW1 4835   1.917   0.249   3.988
 1611SOL    HW2 4836   2.024   0.129   4.020
 1612SOL     OW 4837   3.045   1.335   3.843
 1612SOL    HW1 4838   2.946   1.324   3.845
 1612SOL    HW2 4839   3.079   1.350   3.936
 1613SOL     OW 4840   3.087   0.325   4.173
 1613SOL    HW1 4841   3.152   0.251   4.162
 1613SOL    HW2 4842   3.107   0.375   4.257
 1614SOL     OW 4843   2.456   0.745   4.376
 1614SOL    HW1 4844   2.506   0.830   4.357
 1614SOL    HW2 4845   2.368   0.747   4.328
 1615SOL     OW 4846   2.721   1.374   3.740
 1615SOL    HW1 4847   2.675   1.389   3.828
 1615SOL    HW2 4848   2.765   1.459   3.710
 1616SOL     OW 4849   2.945   0.984   3.811
 1616SOL    HW1 4850   2.922   1.037   3.729
 1616SOL    HW2 4851   3.026   0.928   3.792
 1617SOL     OW 4852   2.290   0.424   4.244
 1617SOL    HW1 4853   2.320   0.352   4.182
 1617SOL    HW2 4854   2.251   0.384   4.327
 1618SOL     OW 4855   2.632   1.330   4.025
 1618SOL    HW1 4856   2.586   1.243   4.042
 1618SOL    HW2 4857   2.723   1.327   4.066
 1619SOL     OW 4858   3.214   0.052   3.892
 1619SOL    HW1 4859   3.249   0.011   3.808
 1619SOL    HW2 4860   3.124   0.014   3.912
 1620SOL     OW 4861   1.901   1.077   4.024
 1620SOL    HW1 4862   2.000   1.066   4.015
 1620SOL    HW2 4863   1.861   0.991   4.056
 1621SOL     OW 4864   2.737   1.646   4.061
 1621SOL    HW1 4865   2.660   1.611   4.007
 1621SOL    HW2 4866   2.705   1.717   4.123
 1622SOL     OW 4867   2.092   2.490   0.113
 1622SOL    HW1 4868   1.999   2.488   0.150
 1622SOL    HW2 4869   2.093   2.451   0.021
 1623SOL     OW 4870   2.087   2.137   0.996
 1623SOL    HW1 4871   2.122   2.120   1.088
 1623SOL    HW2 4872   1.999   2.092   0.984
 1624SOL     OW 4873   1.881   2.230   0.647
 1624SOL    HW1 4874   1.799   2.273   0.686
 1624SOL    HW2 4875   1.853   2.157   0.584
 1625SOL     OW 4876   2.431   3.137   1.165
 1625SOL    HW1 4877   2.338   3.130   1.128
 1625SOL    HW2 4878   2.442   3.226   1.209
 1626SOL     OW 4879   3.417   3.373   0.703
 1626SOL    HW1 4880   3.360   3.357   0.784
 1626SOL    HW2 4881   3.358   3.383   0.623
 1627SOL     OW 4882   2.997   2.565   0.717
 1627SOL    HW1 4883   3.054   2.643   0.692
 1627SOL    HW2 4884   2.937   2.591   0.793
 1628SOL     OW 4885   3.617   2.469   0.231
 1628SOL    HW1 4886   3.605   2.456   0.132
 1628SOL    HW2 4887   3.587   2.388   0.280
 1629SOL     OW 4888   2.630   3.006   1.023
 1629SOL    HW1 4889   2.552   3.023   1.083
 1629SOL    HW2 4890   2.664   3.093   0.987
 1630SOL     OW 4891   2.712   2.660   1.823
 1630SOL    HW1 4892   2.708   2.736   1.888
 1630SOL    HW2 4893   2.734   2.696   1.732
 1631SOL     OW 4894   2.547   2.874   0.665
 1631SOL    HW1 4895   2.616   2.858   0.735
 1631SOL    HW2 4896   2.474   2.931   0.703
 1632SOL     OW 4897   2.548   3.023   1.803
 1632SOL    HW1 4898   2.608   3.102   1.817
 1632SOL    HW2 4899   2.462   3.054   1.762
 1633SOL     OW 4900   2.197   3.297   1.061
 1633SOL    HW1 4901   2.119   3.266   1.008
 1633SOL    HW2 4902   2.255   3.355   1.004
 1634SOL     OW 4903   3.322   3.367   1.339
 1634SOL    HW1 4904   3.346   3.461   1.365
 1634SOL    HW2 4905   3.306   3.313   1.421
 1635SOL     OW 4906   2.300   2.254   1.499
 1635SOL    HW1 4907   2.382   2.198   1.508
 1635SOL    HW2 4908   2.219   2.196   1.503
 1636SOL     OW 4909   3.465   2.309   0.737
 1636SOL    HW1 4910   3.391   2.355   0.687
 1636SOL    HW2 4911   3.516   2.377   0.790
 1637SOL     OW 4912   2.093   3.575   0.483
 1637SOL    HW1 4913   2.127   3.652   0.537
 1637SOL    HW2 4914   2.137   3.575   0.393
 1638SOL     OW 4915   2.989   3.203   1.690
 1638SOL    HW1 4916   3.036   3.203   1.778
 1638SOL    HW2 4917   2.941   3.116   1.679
 1639SOL     OW 4918   2.092   3.296   0.538
 1639SOL    HW1 4919   2.066   3.392   0.538
 1639SOL    HW2 4920   2.021   3.242   0.583
 1640SOL     OW 4921   2.102   2.953   0.886
 1640SOL    HW1 4922   2.116   2.869   0.938
 1640SOL    HW2 4923   2.047   3.017   0.941
 1641SOL     OW 4924   2.482   3.648   1.439
 1641SOL    HW1 4925   2.390   3.631   1.474
 1641SOL    HW2 4926   2.510   3.740   1.465
 1642SOL     OW 4927   2.468   2.826   0.123
 1642SOL    HW1 4928   2.475   2.910   0.069
 1642SOL    HW2 4929   2.514   2.839   0.211
 1643SOL     OW 4930   3.456   1.976   1.480
 1643SOL    HW1 4931   3.438   2.043   1.408
 1643SOL    HW2 4932   3.453   2.022   1.569
 1644SOL     OW 4933   1.984   2.505   0.563
 1644SOL    HW1 4934   1.939   2.417   0.580
 1644SOL    HW2 4935   1.983   2.559   0.647
 1645SOL     OW 4936   3.704   3.629   0.359
 1645SOL    HW1 4937   3.758   3.600   0.439
 1645SOL    HW2 4938   3.734   3.719   0.330
 1646SOL     OW 4939   1.889   3.458   0.117
 1646SOL    HW1 4940   1.870   3.362   0.138
 1646SOL    HW2 4941   1.856   3.516   0.192
 1647SOL     OW 4942   3.551   2.784   0.612
 1647SOL    HW1 4943   3.646   2.755   0.620
 1647SOL    HW2 4944   3.543   2.849   0.537
 1648SOL     OW 4945   3.503   2.970   0.432
 1648SOL    HW1 4946   3.589   2.972   0.380
 1648SOL    HW2 4947   3.517   3.017   0.520
 1649SOL     OW 4948   1.975   2.599   1.597
 1649SOL    HW1 4949   2.063   2.586   1.642
 1649SOL    HW2 4950   1.962   2.696   1.575
 1650SOL     OW 4951   2.475   3.227   0.726
 1650SOL    HW1 4952   2.426   3.140   0.735
 1650SOL    HW2 4953   2.452   3.270   0.639
 1651SOL     OW 4954   3.155   3.090   1.423
 1651SOL    HW1 4955   3.192   3.017   1.365
 1651SOL    HW2 4956   3.207   3.095   1.508
 1652SOL     OW 4957   2.671   1.866   0.502
 1652SOL    HW1 4958   2.711   1.957   0.493
 1652SOL    HW2 4959   2.571   1.874   0.508
 1653SOL     OW 4960   2.059   2.838   1.264
 1653SOL    HW1 4961   2.148   2.793   1.250
 1653SOL    HW2 4962   1.986   2.773   1.245
 1654SOL     OW 4963   3.387   2.861   0.190
 1654SOL    HW1 4964   3.324   2.785   0.203
 1654SOL    HW2 4965   3.435   2.879   0.276
 1655SOL     OW 4966   3.049   3.654   1.616
 1655SOL    HW1 4967   3.073   3.714   1.540
 1655SOL    HW2 4968   3.056   3.559   1.586
 1656SOL     OW 4969   2.179   2.113   1.801
 1656SOL    HW1 4970   2.250   2.184   1.807
 1656SOL    HW2 4971   2.091   2.152   1.829
 1657SOL     OW 4972   3.328   3.279   0.953
 1657SOL    HW1 4973   3.269   3.285   1.033
 1657SOL    HW2 4974   3.313   3.191   0.907
 1658SOL     OW 4975   3.529   3.576   0.572
 1658SOL    HW1 4976   3.488   3.553   0.484
 1658SOL    HW2 4977   3.511   3.502   0.637
 1659SOL     OW 4978   2.460   2.591   0.270
 1659SOL    HW1 4979   2.484   2.660   0.202
 1659SOL    HW2 4980   2.382   2.624   0.324
 1660SOL     OW 4981   3.143   2.207   0.944
 1660SOL    HW1 4982   3.057   2.157   0.931
 1660SOL    HW2 4983   3.205   2.153   1.000
 1661SOL     OW 4984   3.438   3.524   0.307
 1661SOL    HW1 4985   3.527   3.570   0.310
 1661SOL    HW2 4986   3.417   3.500   0.212
 1662SOL     OW 4987   2.669   2.467   1.465
 1662SOL    HW1 4988   2.622   2.464   1.554
 1662SOL    HW2 4989   2.618   2.412   1.399
 1663SOL     OW 4990   3.256   2.331   1.674
 1663SOL    HW1 4991   3.236   2.374   1.762
 1663SOL    HW2 4992   3.334   2.269   1.683
 1664SOL     OW 4993   2.835   2.752   1.572
 1664SOL    HW1 4994   2.881   2.668   1.543
 1664SOL    HW2 4995   2.779   2.786   1.497
 1665SOL     OW 4996   2.853   2.272   1.242
 1665SOL    HW1 4997   2.776   2.306   1.296
 1665SOL    HW2 4998   2.819   2.221   1.163
 1666SOL     OW 4999   2.903   2.563   0.429
 1666SOL    HW1 5000   2.929   2.559   0.525
 1666SOL    HW2 5001   2.818   2.512   0.415
 1667SOL     OW 5002   1.938   2.673   0.789
 1667SOL    HW1 5003   2.037   2.661   0.798
 1667SOL    HW2 5004   1.914   2.768   0.810
 1668SOL     OW 5005   1.992   3.683   1.571
 1668SOL    HW1 5006   1.982   3.668   1.670
 1668SOL    HW2 5007   1.906   3.719   1.535
 1669SOL     OW 5008   2.727   2.210   0.195
 1669SOL    HW1 5009   2.786   2.273   0.146
 1669SOL    HW2 5010   2.746   2.116   0.166
 1670SOL     OW 5011   3.581   2.447   1.831
 1670SOL    HW1 5012   3.555   2.536   1.795
 1670SOL    HW2 5013   3.579   2.379   1.758
 1671SOL     OW 5014   3.224   3.006   0.545
 1671SOL    HW1 5015   3.307   2.977   0.497
 1671SOL    HW2 5016   3.175   3.073   0.489
 1672SOL     OW 5017   2.412   2.058   0.885
 1672SOL    HW1 5018   2.407   2.053   0.985
 1672SOL    HW2 5019   2.414   2.154   0.856
 1673SOL     OW 5020   2.870   3.318   0.477
 1673SOL    HW1 5021   2.824   3.390   0.425
 1673SOL    HW2 5022   2.866   3.338   0.575
 1674SOL     OW 5023   2.213   3.663   0.853
 1674SOL    HW1 5024   2.263   3.577   0.859
 1674SOL    HW2 5025   2.278   3.740   0.850
 1675SOL     OW 5026   3.657   2.928   0.873
 1675SOL    HW1 5027   3.595   2.913   0.797
 1675SOL    HW2 5028   3.605   2.939   0.958
 1676SOL     OW 5029   3.089   3.412   1.506
 1676SOL    HW1 5030   3.095   3.335   1.570
 1676SOL    HW2 5031   3.037   3.386   1.426
 1677SOL     OW 5032   2.183   2.805   0.242
 1677SOL    HW1 5033   2.265   2.844   0.200
 1677SOL    HW2 5034   2.156   2.723   0.193
 1678SOL     OW 5035   3.320   2.597   0.728
 1678SOL    HW1 5036   3.315   2.532   0.803
 1678SOL    HW2 5037   3.400   2.656   0.741
 1679SOL     OW 5038   2.323   3.128   1.727
 1679SOL    HW1 5039   2.273   3.129   1.641
 1679SOL    HW2 5040   2.260   3.110   1.803
 1680SOL     OW 5041   2.973   3.638   0.237
 1680SOL    HW1 5042   2.913   3.576   0.287
 1680SOL    HW2 5043   3.004   3.594   0.152
 1681SOL     OW 5044   2.064   2.147   1.498
 1681SOL    HW1 5045   1.984   2.207   1.485
 1681SOL    HW2 5046   2.054   2.098   1.584
 1682SOL     OW 5047   3.494   3.239   0.081
 1682SOL    HW1 5048   3.462   3.333   0.071
 1682SOL    HW2 5049   3.418   3.176   0.069
 1683SOL     OW 5050   2.326   3.605   0.323
 1683SOL    HW1 5051   2.359   3.644   0.409
 1683SOL    HW2 5052   2.402   3.598   0.258
 1684SOL     OW 5053   3.262   1.969   0.426
 1684SOL    HW1 5054   3.238   1.932   0.336
 1684SOL    HW2 5055   3.361   1.985   0.430
 1685SOL     OW 5056   2.111   3.647   1.241
 1685SOL    HW1 5057   2.168   3.582   1.291
 1685SOL    HW2 5058   2.095   3.614   1.148
 1686SOL     OW 5059   2.802   3.560   0.904
 1686SOL    HW1 5060   2.882   3.503   0.925
 1686SOL    HW2 5061   2.753   3.520   0.827
 1687SOL     OW 5062   2.244   2.562   0.480
 1687SOL    HW1 5063   2.289   2.472   0.477
 1687SOL    HW2 5064   2.150   2.551   0.513
 1688SOL     OW 5065   3.409   2.084   1.729
 1688SOL    HW1 5066   3.404   2.121   1.821
 1688SOL    HW2 5067   3.337   2.015   1.717
 1689SOL     OW 5068   2.476   1.984   0.117
 1689SOL    HW1 5069   2.574   1.962   0.124
 1689SOL    HW2 5070   2.445   1.967   0.024
 1690SOL     OW 5071   2.643   2.126   1.749
 1690SOL    HW1 5072   2.710   2.065   1.792
 1690SOL    HW2 5073   2.570   2.145   1.814
 1691SOL     OW 5074   2.750   3.376   1.195
 1691SOL    HW1 5075   2.727   3.351   1.101
 1691SOL    HW2 5076   2.811   3.307   1.234
 1692SOL     OW 5077   3.213   2.452   1.433
 1692SOL    HW1 5078   3.241   2.409   1.518
 1692SOL    HW2 5079   3.238   2.548   1.434
 1693SOL     OW 5080   2.665   3.264   0.924
 1693SOL    HW1 5081   2.755   3.278   0.882
 1693SOL    HW2 5082   2.594   3.266   0.853
 1694SOL     OW 5083   2.784   2.365   0.899
 1694SOL    HW1 5084   2.759   2.356   0.803
 1694SOL    HW2 5085   2.832   2.283   0.930
 1695SOL     OW 5086   2.401   1.926   0.512
 1695SOL    HW1 5087   2.320   1.927   0.570
 1695SOL    HW2 5088   2.404   2.009   0.457
 1696SOL     OW 5089   3.296   3.050   0.041
 1696SOL    HW1 5090   3.328   2.974   0.098
 1696SOL    HW2 5091   3.204   3.077   0.071
 1697SOL     OW 5092   2.159   1.897   0.171
 1697SOL    HW1 5093   2.208   1.981   0.150
 1697SOL    HW2 5094   2.221   1.832   0.216
 1698SOL     OW 5095   2.797   2.098   0.480
 1698SOL    HW1 5096   2.749   2.139   0.402
 1698SOL    HW2 5097   2.896   2.096   0.461
 1699SOL     OW 5098   2.938   2.545   1.464
 1699SOL    HW1 5099   2.858   2.484   1.467
 1699SOL    HW2 5100   3.019   2.492   1.440
 1700SOL     OW 5101   3.089   3.432   0.793
 1700SOL    HW1 5102   3.110   3.506   0.728
 1700SOL    HW2 5103   3.157   3.432   0.866
 1701SOL     OW 5104   2.321   3.014   0.741
 1701SOL    HW1 5105   2.250   2.987   0.806
 1701SOL    HW2 5106   2.295   2.986   0.648
 1702SOL     OW 5107   3.133   3.659   0.591
 1702SOL    HW1 5108   3.177   3.723   0.527
 1702SOL    HW2 5109   3.083   3.711   0.661
 1703SOL     OW 5110   2.894   2.411   0.016
 1703SOL    HW1 5111   2.853   2.493  -0.023
 1703SOL    HW2 5112   2.958   2.437   0.089
 1704SOL     OW 5113   1.940   2.418   1.386
 1704SOL    HW1 5114   2.032   2.417   1.345
 1704SOL    HW2 5115   1.934   2.492   1.453
 1705SOL     OW 5116   2.423   2.084   1.147
 1705SOL    HW1 5117   2.461   2.000   1.184
 1705SOL    HW2 5118   2.335   2.103   1.191
 1706SOL     OW 5119   2.728   2.316   0.642
 1706SOL    HW1 5120   2.696   2.388   0.580
 1706SOL    HW2 5121   2.752   2.235   0.589
 1707SOL     OW 5122   2.879   1.901   0.753
 1707SOL    HW1 5123   2.807   1.906   0.684
 1707SOL    HW2 5124   2.855   1.832   0.822
 1708SOL     OW 5125   3.291   3.035   0.867
 1708SOL    HW1 5126   3.236   2.951   0.860
 1708SOL    HW2 5127   3.317   3.064   0.775
 1709SOL     OW 5128   3.328   2.452   0.992
 1709SOL    HW1 5129   3.298   2.357   0.999
 1709SOL    HW2 5130   3.401   2.468   1.058
 1710SOL     OW 5131   3.719   2.695   0.377
 1710SOL    HW1 5132   3.761   2.631   0.441
 1710SOL    HW2 5133   3.681   2.644   0.299
 1711SOL     OW 5134   2.350   3.247   0.174
 1711SOL    HW1 5135   2.263   3.232   0.221
 1711SOL    HW2 5136   2.333   3.273   0.079
 1712SOL     OW 5137   3.526   3.142   0.657
 1712SOL    HW1 5138   3.625   3.150   0.671
 1712SOL    HW2 5139   3.481   3.226   0.688
 1713SOL     OW 5140   3.252   2.437   0.078
 1713SOL    HW1 5141   3.198   2.416   0.159
 1713SOL    HW2 5142   3.343   2.396   0.087
 1714SOL     OW 5143   2.389   2.118   0.328
 1714SOL    HW1 5144   2.416   2.059   0.253
 1714SOL    HW2 5145   2.389   2.213   0.297
 1715SOL     OW 5146   3.616   3.085   1.588
 1715SOL    HW1 5147   3.707   3.046   1.575
 1715SOL    HW2 5148   3.624   3.181   1.612
 1716SOL     OW 5149   2.926   3.209   1.340
 1716SOL    HW1 5150   2.846   3.186   1.395
 1716SOL    HW2 5151   3.009   3.183   1.389
 1717SOL     OW 5152   3.454   3.491   1.625
 1717SOL    HW1 5153   3.481   3.525   1.535
 1717SOL    HW2 5154   3.533   3.453   1.671
 1718SOL     OW 5155   2.973   3.057   1.100
 1718SOL    HW1 5156   2.933   3.101   1.181
 1718SOL    HW2 5157   2.932   3.094   1.017
 1719SOL     OW 5158   3.500   2.961   1.079
 1719SOL    HW1 5159   3.505   3.042   1.138
 1719SOL    HW2 5160   3.414   2.963   1.028
 1720SOL     OW 5161   2.777   1.951   1.402
 1720SOL    HW1 5162   2.802   1.931   1.307
 1720SOL    HW2 5163   2.849   2.007   1.444
 1721SOL     OW 5164   2.842   2.978   1.719
 1721SOL    HW1 5165   2.743   2.984   1.729
 1721SOL    HW2 5166   2.865   2.898   1.663
 1722SOL     OW 5167   2.567   2.912   0.368
 1722SOL    HW1 5168   2.553   2.919   0.467
 1722SOL    HW2 5169   2.651   2.861   0.350
 1723SOL     OW 5170   2.272   2.675   1.251
 1723SOL    HW1 5171   2.358   2.687   1.301
 1723SOL    HW2 5172   2.230   2.588   1.278
 1724SOL     OW 5173   3.136   2.248   1.262
 1724SOL    HW1 5174   3.157   2.322   1.326
 1724SOL    HW2 5175   3.047   2.265   1.219
 1725SOL     OW 5176   1.926   3.426   1.331
 1725SOL    HW1 5177   1.880   3.508   1.297
 1725SOL    HW2 5178   2.024   3.445   1.340
 1726SOL     OW 5179   2.229   2.962   0.501
 1726SOL    HW1 5180   2.222   3.045   0.445
 1726SOL    HW2 5181   2.233   2.882   0.441
 1727SOL     OW 5182   2.428   2.399   0.865
 1727SOL    HW1 5183   2.440   2.465   0.791
 1727SOL    HW2 5184   2.474   2.433   0.948
 1728SOL     OW 5185   3.114   3.210   0.388
 1728SOL    HW1 5186   3.164   3.287   0.428
 1728SOL    HW2 5187   3.019   3.212   0.420
 1729SOL     OW 5188   3.134   3.307   1.142
 1729SOL    HW1 5189   3.181   3.320   1.229
 1729SOL    HW2 5190   3.068   3.233   1.151
 1730SOL     OW 5191   3.444   2.501   0.472
 1730SOL    HW1 5192   3.413   2.562   0.545
 1730SOL    HW2 5193   3.494   2.553   0.403
 1731SOL     OW 5194   2.216   3.372   1.329
 1731SOL    HW1 5195   2.195   3.328   1.242
 1731SOL    HW2 5196   2.313   3.398   1.332
 1732SOL     OW 5197   2.264   2.613   1.598
 1732SOL    HW1 5198   2.332   2.668   1.551
 1732SOL    HW2 5199   2.304   2.525   1.625
 1733SOL     OW 5200   3.449   2.641   1.670
 1733SOL    HW1 5201   3.357   2.679   1.665
 1733SOL    HW2 5202   3.509   2.688   1.605
 1734SOL     OW 5203   2.875   1.967   1.770
 1734SOL    HW1 5204   2.881   2.052   1.718
 1734SOL    HW2 5205   2.907   1.891   1.713
 1735SOL     OW 5206   2.366   1.912   1.740
 1735SOL    HW1 5207   2.324   1.855   1.670
 1735SOL    HW2 5208   2.300   1.981   1.772
 1736SOL     OW 5209   2.435   2.732   1.029
 1736SOL    HW1 5210   2.479   2.821   1.020
 1736SOL    HW2 5211   2.372   2.732   1.106
 1737SOL     OW 5212   3.222   2.724   1.045
 1737SOL    HW1 5213   3.147   2.724   0.979
 1737SOL    HW2 5214   3.259   2.632   1.054
 1738SOL     OW 5215   3.071   2.387   0.275
 1738SOL    HW1 5216   3.084   2.303   0.329
 1738SOL    HW2 5217   3.042   2.461   0.335
 1739SOL     OW 5218   2.169   2.075   1.231
 1739SOL    HW1 5219   2.146   2.112   1.321
 1739SOL    HW2 5220   2.139   1.980   1.225
 1740SOL     OW 5221   1.899   3.172   1.282
 1740SOL    HW1 5222   1.952   3.123   1.350
 1740SOL    HW2 5223   1.921   3.270   1.287
 1741SOL     OW 5224   2.594   2.496   1.064
 1741SOL    HW1 5225   2.653   2.470   0.988
 1741SOL    HW2 5226   2.566   2.592   1.053
 1742SOL     OW 5227   3.590   2.797   1.854
 1742SOL    HW1 5228   3.544   2.790   1.765
 1742SOL    HW2 5229   3.528   2.841   1.920
 1743SOL     OW 5230   2.169   1.925   0.618
 1743SOL    HW1 5231   2.158   2.019   0.651
 1743SOL    HW2 5232   2.164   1.862   0.695
 1744SOL     OW 5233   3.484   2.229   0.374
 1744SOL    HW1 5234   3.486   2.153   0.438
 1744SOL    HW2 5235   3.436   2.306   0.414
 1745SOL     OW 5236   2.885   2.628   0.966
 1745SOL    HW1 5237   2.900   2.649   1.062
 1745SOL    HW2 5238   2.855   2.533   0.957
 1746SOL     OW 5239   2.842   3.435   1.700
 1746SOL    HW1 5240   2.822   3.479   1.612
 1746SOL    HW2 5241   2.881   3.344   1.684
 1747SOL     OW 5242   3.721   3.380   1.605
 1747SOL    HW1 5243   3.735   3.407   1.510
 1747SOL    HW2 5244   3.804   3.402   1.658
 1748SOL     OW 5245   2.212   2.760   1.804
 1748SOL    HW1 5246   2.288   2.804   1.852
 1748SOL    HW2 5247   2.247   2.713   1.722
 1749SOL     OW 5248   3.402   2.136   0.125
 1749SOL    HW1 5249   3.341   2.061   0.148
 1749SOL    HW2 5250   3.424   2.188   0.208
 1750SOL     OW 5251   3.165   2.700   0.042
 1750SOL    HW1 5252   3.199   2.607   0.057
 1750SOL    HW2 5253   3.183   2.727  -0.053
 1751SOL     OW 5254   2.930   3.195   0.849
 1751SOL    HW1 5255   2.937   3.111   0.794
 1751SOL    HW2 5256   2.992   3.264   0.813
 1752SOL     OW 5257   2.181   2.672   0.949
 1752SOL    HW1 5258   2.274   2.708   0.954
 1752SOL    HW2 5259   2.175   2.587   1.001
 1753SOL     OW 5260   2.201   2.371   1.006
 1753SOL    HW1 5261   2.149   2.288   0.989
 1753SOL    HW2 5262   2.278   2.376   0.942
 1754SOL     OW 5263   3.000   2.242   1.678
 1754SOL    HW1 5264   2.955   2.305   1.742
 1754SOL    HW2 5265   3.093   2.273   1.661
 1755SOL     OW 5266   3.022   2.069   1.477
 1755SOL    HW1 5267   3.022   2.133   1.554
 1755SOL    HW2 5268   3.050   2.117   1.394
 1756SOL     OW 5269   1.870   3.188   0.200
 1756SOL    HW1 5270   1.777   3.209   0.169
 1756SOL    HW2 5271   1.880   3.089   0.213
 1757SOL     OW 5272   1.950   3.663   0.927
 1757SOL    HW1 5273   1.908   3.577   0.900
 1757SOL    HW2 5274   2.044   3.666   0.893
 1758SOL     OW 5275   2.366   3.430   0.910
 1758SOL    HW1 5276   2.432   3.504   0.919
 1758SOL    HW2 5277   2.410   3.351   0.868
 1759SOL     OW 5278   2.864   2.658   1.238
 1759SOL    HW1 5279   2.905   2.626   1.324
 1759SOL    HW2 5280   2.768   2.631   1.235
 1760SOL     OW 5281   1.902   2.406   1.114
 1760SOL    HW1 5282   1.987   2.373   1.073
 1760SOL    HW2 5283   1.915   2.421   1.212
 1761SOL     OW 5284   2.051   2.382   1.722
 1761SOL    HW1 5285   2.110   2.342   1.652
 1761SOL    HW2 5286   1.993   2.453   1.681
 1762SOL     OW 5287   3.231   2.812   1.660
 1762SOL    HW1 5288   3.270   2.901   1.680
 1762SOL    HW2 5289   3.241   2.792   1.563
 1763SOL     OW 5290   2.677   2.434   0.325
 1763SOL    HW1 5291   2.684   2.345   0.279
 1763SOL    HW2 5292   2.583   2.468   0.317
 1764SOL     OW 5293   3.519   2.466   1.206
 1764SOL    HW1 5294   3.481   2.397   1.268
 1764SOL    HW2 5295   3.601   2.430   1.162
 1765SOL     OW 5296   2.114   3.426   1.744
 1765SOL    HW1 5297   2.084   3.483   1.820
 1765SOL    HW2 5298   2.107   3.329   1.770
 1766SOL     OW 5299   2.533   2.326   1.269
 1766SOL    HW1 5300   2.499   2.237   1.239
 1766SOL    HW2 5301   2.559   2.380   1.189
 1767SOL     OW 5302   2.792   3.540   1.465
 1767SOL    HW1 5303   2.768   3.522   1.370
 1767SOL    HW2 5304   2.822   3.634   1.475
 1768SOL     OW 5305   2.335   2.362   0.191
 1768SOL    HW1 5306   2.396   2.442   0.195
 1768SOL    HW2 5307   2.240   2.393   0.198
 1769SOL     OW 5308   2.021   2.999   1.466
 1769SOL    HW1 5309   2.043   2.938   1.542
 1769SOL    HW2 5310   2.031   2.950   1.380
 1770SOL     OW 5311   3.209   2.921   1.234
 1770SOL    HW1 5312   3.233   2.858   1.160
 1770SOL    HW2 5313   3.119   2.961   1.216
 1771SOL     OW 5314   3.164   2.717   0.309
 1771SOL    HW1 5315   3.078   2.686   0.351
 1771SOL    HW2 5316   3.160   2.703   0.210
 1772SOL     OW 5317   3.621   3.609   1.154
 1772SOL    HW1 5318   3.682   3.639   1.081
 1772SOL    HW2 5319   3.583   3.520   1.132
 1773SOL     OW 5320   3.114   3.593   1.128
 1773SOL    HW1 5321   3.198   3.598   1.074
 1773SOL    HW2 5322   3.091   3.497   1.146
 1774SOL     OW 5323   1.945   3.120   1.022
 1774SOL    HW1 5324   1.940   3.119   1.122
 1774SOL    HW2 5325   1.862   3.079   0.984
 1775SOL     OW 5326   2.550   3.524   1.716
 1775SOL    HW1 5327   2.494   3.605   1.725
 1775SOL    HW2 5328   2.602   3.528   1.630
 1776SOL     OW 5329   2.765   1.948   0.133
 1776SOL    HW1 5330   2.816   1.949   0.047
 1776SOL    HW2 5331   2.821   1.906   0.204
 1777SOL     OW 5332   3.588   1.997   0.523
 1777SOL    HW1 5333   3.661   1.980   0.456
 1777SOL    HW2 5334   3.557   1.910   0.561
 1778SOL     OW 5335   3.250   3.435   0.477
 1778SOL    HW1 5336   3.317   3.447   0.403
 1778SOL    HW2 5337   3.210   3.524   0.500
 1779SOL     OW 5338   1.992   3.656   1.851
 1779SOL    HW1 5339   1.951   3.582   1.904
 1779SOL    HW2 5340   2.056   3.707   1.909
 1780SOL     OW 5341   3.142   2.789   0.672
 1780SOL    HW1 5342   3.202   2.708   0.674
 1780SOL    HW2 5343   3.182   2.858   0.612
 1781SOL     OW 5344   2.692   3.135   1.422
 1781SOL    HW1 5345   2.687   3.168   1.517
 1781SOL    HW2 5346   2.606   3.154   1.376
 1782SOL     OW 5347   2.534   3.478   0.154
 1782SOL    HW1 5348   2.543   3.488   0.055
 1782SOL    HW2 5349   2.494   3.389   0.175
 1783SOL     OW 5350   3.512   3.582   1.394
 1783SOL    HW1 5351   3.565   3.592   1.310
 1783SOL    HW2 5352   3.485   3.672   1.428
 1784SOL     OW 5353   3.703   2.037   0.963
 1784SOL    HW1 5354   3.742   1.952   0.927
 1784SOL    HW2 5355   3.605   2.039   0.944
 1785SOL     OW 5356   2.125   2.188   0.720
 1785SOL    HW1 5357   2.046   2.239   0.686
 1785SOL    HW2 5358   2.116   2.173   0.818
 1786SOL     OW 5359   3.056   3.474   0.031
 1786SOL    HW1 5360   3.062   3.381   0.068
 1786SOL    HW2 5361   2.997   3.474  -0.049
 1787SOL     OW 5362   2.684   2.864   1.372
 1787SOL    HW1 5363   2.724   2.863   1.280
 1787SOL    HW2 5364   2.694   2.956   1.412
 1788SOL     OW 5365   2.778   2.772   0.291
 1788SOL    HW1 5366   2.841   2.810   0.223
 1788SOL    HW2 5367   2.818   2.689   0.330
 1789SOL     OW 5368   3.366   3.469   0.044
 1789SOL    HW1 5369   3.274   3.506   0.051
 1789SOL    HW2 5370   3.404   3.489  -0.046
 1790SOL     OW 5371   2.234   3.150   1.490
 1790SOL    HW1 5372   2.221   3.243   1.456
 1790SOL    HW2 5373   2.150   3.098   1.477
 1791SOL     OW 5374   3.476   3.154   1.289
 1791SOL    HW1 5375   3.536   3.157   1.369
 1791SOL    HW2 5376   3.401   3.218   1.302
 1792SOL     OW 5377   2.901   2.960   0.696
 1792SOL    HW1 5378   2.831   2.913   0.750
 1792SOL    HW2 5379   2.960   2.892   0.653
 1793SOL     OW 5380   2.876   2.098   0.971
 1793SOL    HW1 5381   2.868   2.062   0.878
 1793SOL    HW2 5382   2.874   2.022   1.036
 1794SOL     OW 5383   2.452   3.349   0.491
 1794SOL    HW1 5384   2.494   3.291   0.421
 1794SOL    HW2 5385   2.408   3.428   0.447
 1795SOL     OW 5386   3.571   2.247   1.381
 1795SOL    HW1 5387   3.644   2.316   1.385
 1795SOL    HW2 5388   3.599   2.172   1.322
 1796SOL     OW 5389   2.117   3.210   0.290
 1796SOL    HW1 5390   2.021   3.211   0.263
 1796SOL    HW2 5391   2.129   3.263   0.374
 1797SOL     OW 5392   1.967   2.875   1.726
 1797SOL    HW1 5393   1.890   2.842   1.780
 1797SOL    HW2 5394   2.052   2.845   1.768
 1798SOL     OW 5395   2.534   2.065   1.489
 1798SOL    HW1 5396   2.624   2.049   1.449
 1798SOL    HW2 5397   2.542   2.070   1.588
 1799SOL     OW 5398   1.937   2.207   0.033
 1799SOL    HW1 5399   1.845   2.179   0.004
 1799SOL    HW2 5400   1.968   2.284  -0.023
 1800SOL     OW 5401   3.302   2.718   1.398
 1800SOL    HW1 5402   3.245   2.770   1.335
 1800SOL    HW2 5403   3.398   2.730   1.374
 1801SOL     OW 5404   1.934   2.028   0.318
 1801SOL    HW1 5405   1.917   2.111   0.264
 1801SOL    HW2 5406   2.024   1.991   0.296
 1802SOL     OW 5407   3.045   3.197   0.119
 1802SOL    HW1 5408   2.946   3.186   0.121
 1802SOL    HW2 5409   3.079   3.212   0.212
 1803SOL     OW 5410   2.475   2.704   1.431
 1803SOL    HW1 5411   2.531   2.785   1.414
 1803SOL    HW2 5412   2.534   2.624   1.434
 1804SOL     OW 5413   3.355   3.629   0.959
 1804SOL    HW1 5414   3.388   3.693   0.890
 1804SOL    HW2 5415   3.421   3.623   1.034
 1805SOL     OW 5416   2.578   2.427   1.708
 1805SOL    HW1 5417   2.597   2.492   1.782
 1805SOL    HW2 5418   2.638   2.347   1.717
 1806SOL     OW 5419   3.312   3.082   1.633
 1806SOL    HW1 5420   3.303   3.072   1.732
 1806SOL    HW2 5421   3.408   3.075   1.607
 1807SOL     OW 5422   2.252   3.603   1.560
 1807SOL    HW1 5423   2.161   3.644   1.558
 1807SOL    HW2 5424   2.245   3.509   1.592
 1808SOL     OW 5425   3.536   2.745   1.254
 1808SOL    HW1 5426   3.509   2.656   1.217
 1808SOL    HW2 5427   3.537   2.813   1.181
 1809SOL     OW 5428   3.087   2.187   0.449
 1809SOL    HW1 5429   3.152   2.113   0.438
 1809SOL    HW2 5430   3.107   2.237   0.533
 1810SOL     OW 5431   2.456   2.607   0.652
 1810SOL    HW1 5432   2.506   2.692   0.633
 1810SOL    HW2 5433   2.368   2.609   0.604
 1811SOL     OW 5434   3.639   2.204   1.642
 1811SOL    HW1 5435   3.622   2.235   1.548
 1811SOL    HW2 5436   3.555   2.167   1.680
 1812SOL     OW 5437   3.592   2.796   1.517
 1812SOL    HW1 5438   3.630   2.887   1.532
 1812SOL    HW2 5439   3.584   2.779   1.418
 1813SOL     OW 5440   2.721   3.236   0.016
 1813SOL    HW1 5441   2.675   3.251   0.104
 1813SOL    HW2 5442   2.765   3.321  -0.014
 1814SOL     OW 5443   2.523   3.652   0.953
 1814SOL    HW1 5444   2.477   3.740   0.940
 1814SOL    HW2 5445   2.622   3.664   0.946
 1815SOL     OW 5446   2.721   2.818   0.861
 1815SOL    HW1 5447   2.775   2.749   0.909
 1815SOL    HW2 5448   2.689   2.887   0.927
 1816SOL     OW 5449   2.945   2.846   0.087
 1816SOL    HW1 5450   2.922   2.899   0.005
 1816SOL    HW2 5451   3.026   2.790   0.068
 1817SOL     OW 5452   3.723   3.431   0.851
 1817SOL    HW1 5453   3.652   3.419   0.781
 1817SOL    HW2 5454   3.724   3.352   0.911
 1818SOL     OW 5455   2.083   3.176   1.844
 1818SOL    HW1 5456   2.018   3.103   1.823
 1818SOL    HW2 5457   2.087   3.190   1.942
 1819SOL     OW 5458   1.941   3.102   0.653
 1819SOL    HW1 5459   1.940   3.055   0.741
 1819SOL    HW2 5460   2.023   3.074   0.602
 1820SOL     OW 5461   2.534   3.253   1.624
 1820SOL    HW1 5462   2.456   3.203   1.662
 1820SOL    HW2 5463   2.531   3.348   1.655
 1821SOL     OW 5464   3.686   2.054   1.227
 1821SOL    HW1 5465   3.682   1.964   1.271
 1821SOL    HW2 5466   3.689   2.043   1.128
 1822SOL     OW 5467   2.290   2.286   0.520
 1822SOL    HW1 5468   2.320   2.214   0.458
 1822SOL    HW2 5469   2.251   2.246   0.603
 1823SOL     OW 5470   3.567   3.349   1.104
 1823SOL    HW1 5471   3.474   3.324   1.077
 1823SOL    HW2 5472   3.593   3.299   1.186
 1824SOL     OW 5473   2.179   2.409   1.280
 1824SOL    HW1 5474   2.217   2.350   1.352
 1824SOL    HW2 5475   2.219   2.383   1.192
 1825SOL     OW 5476   2.674   3.448   0.687
 1825SOL    HW1 5477   2.706   3.458   0.593
 1825SOL    HW2 5478   2.595   3.386   0.689
 1826SOL     OW 5479   3.286   2.076   1.112
 1826SOL    HW1 5480   3.338   2.011   1.167
 1826SOL    HW2 5481   3.237   2.139   1.173
 1827SOL     OW 5482   2.863   1.896   1.154
 1827SOL    HW1 5483   2.800   1.824   1.123
 1827SOL    HW2 5484   2.956   1.860   1.154
 1828SOL     OW 5485   2.632   3.192   0.301
 1828SOL    HW1 5486   2.586   3.105   0.318
 1828SOL    HW2 5487   2.723   3.189   0.342
 1829SOL     OW 5488   2.480   3.429   1.284
 1829SOL    HW1 5489   2.475   3.511   1.341
 1829SOL    HW2 5490   2.569   3.426   1.239
 1830SOL     OW 5491   3.214   1.914   0.168
 1830SOL    HW1 5492   3.249   1.873   0.084
 1830SOL    HW2 5493   3.124   1.876   0.188
 1831SOL     OW 5494   3.162   2.315   0.691
 1831SOL    HW1 5495   3.103   2.395   0.695
 1831SOL    HW2 5496   3.177   2.280   0.784
 1832SOL     OW 5497   3.455   2.083   0.882
 1832SOL    HW1 5498   3.371   2.082   0.936
 1832SOL    HW2 5499   3.457   2.166   0.826
 1833SOL     OW 5500   1.901   2.939   0.300
 1833SOL    HW1 5501   2.000   2.928   0.291
 1833SOL    HW2 5502   1.861   2.853   0.332
 1834SOL     OW 5503   2.737   3.508   0.337
 1834SOL    HW1 5504   2.660   3.473   0.283
 1834SOL    HW2 5505   2.705   3.579   0.399
 1835SOL     OW 5506   2.092   2.490   1.975
 1835SOL    HW1 5507   1.999   2.488   2.012
 1835SOL    HW2 5508   2.093   2.451   1.883
 1836SOL     OW 5509   2.087   2.137   2.858
 1836SOL    HW1 5510   2.122   2.120   2.950
 1836SOL    HW2 5511   1.999   2.092   2.846
 1837SOL     OW 5512   1.881   2.230   2.509
 1837SOL    HW1 5513   1.799   2.273   2.548
 1837SOL    HW2 5514   1.853   2.157   2.446
 1838SOL     OW 5515   2.431   3.137   3.027
 1838SOL    HW1 5516   2.338   3.130   2.990
 1838SOL    HW2 5517   2.442   3.226   3.071
 1839SOL     OW 5518   3.417   3.373   2.565
 1839SOL    HW1 5519   3.360   3.357   2.646
 1839SOL    HW2 5520   3.358   3.383   2.485
 1840SOL     OW 5521   2.997   2.565   2.579
 1840SOL    HW1 5522   3.054   2.643   2.554
 1840SOL    HW2 5523   2.937   2.591   2.655
 1841SOL     OW 5524   3.617   2.469   2.093
 1841SOL    HW1 5525   3.605   2.456   1.994
 1841SOL    HW2 5526   3.587   2.388   2.142
 1842SOL     OW 5527   2.630   3.006   2.885
 1842SOL    HW1 5528   2.552   3.023   2.945
 1842SOL    HW2 5529   2.664   3.093   2.849
 1843SOL     OW 5530   2.712   2.660   3.685
 1843SOL    HW1 5531   2.708   2.736   3.750
 1843SOL    HW2 5532   2.734   2.696   3.594
 1844SOL     OW 5533   2.547   2.874   2.527
 1844SOL    HW1 5534   2.616   2.858   2.597
 1844SOL    HW2 5535   2.474   2.931   2.565
 1845SOL     OW 5536   2.548   3.023   3.665
 1845SOL    HW1 5537   2.608   3.102   3.679
 1845SOL    HW2 5538   2.462   3.054   3.624
 1846SOL     OW 5539   2.197   3.297   2.923
 1846SOL    HW1 5540   2.119   3.266   2.870
 1846SOL    HW2 5541   2.255   3.355   2.866
 1847SOL     OW 5542   3.322   3.367   3.201
 1847SOL    HW1 5543   3.346   3.461   3.227
 1847SOL    HW2 5544   3.306   3.313   3.283
 1848SOL     OW 5545   2.300   2.254   3.361
 1848SOL    HW1 5546   2.382   2.198   3.370
 1848SOL    HW2 5547   2.219   2.196   3.365
 1849SOL     OW 5548   3.465   2.309   2.599
 1849SOL    HW1 5549   3.391   2.355   2.549
 1849SOL    HW2 5550   3.516   2.377   2.652
 1850SOL     OW 5551   2.093   3.575   2.345
 1850SOL    HW1 5552   2.127   3.652   2.399
 1850SOL    HW2 5553   2.137   3.575   2.255
 1851SOL     OW 5554   2.989   3.203   3.552
 1851SOL    HW1 5555   3.036   3.203   3.640
 1851SOL    HW2 5556   2.941   3.116   3.541
 1852SOL     OW 5557   2.092   3.296   2.400
 1852SOL    HW1 5558   2.066   3.392   2.400
 1852SOL    HW2 5559   2.021   3.242   2.445
 1853SOL     OW 5560   2.102   2.953   2.748
 1853SOL    HW1 5561   2.116   2.869   2.800
 1853SOL    HW2 5562   2.047   3.017   2.803
 1854SOL     OW 5563   2.482   3.648   3.301
 1854SOL    HW1 5564   2.390   3.631   3.336
 1854SOL    HW2 5565   2.510   3.740   3.327
 1855SOL     OW 5566   2.468   2.826   1.985
 1855SOL    HW1 5567   2.475   2.910   1.931
 1855SOL    HW2 5568   2.514   2.839   2.073
 1856SOL     OW 5569   3.456   1.976   3.342
 1856SOL    HW1 5570   3.438   2.043   3.270
 1856SOL    HW2 5571   3.453   2.022   3.431
 1857SOL     OW 5572   1.984   2.505   2.425
 1857SOL    HW1 5573   1.939   2.417   2.442
 1857SOL    HW2 5574   1.983   2.559   2.509
 1858SOL     OW 5575   3.704   3.629   2.221
 1858SOL    HW1 5576   3.758   3.600   2.301
 1858SOL    HW2 5577   3.734   3.719   2.192
 1859SOL     OW 5578   1.889   3.458   1.979
 1859SOL    HW1 5579   1.870   3.362   2.000
 1859SOL    HW2 5580   1.856   3.516   2.054
 1860SOL     OW 5581   3.551   2.784   2.474
 1860SOL    HW1 5582   3.646   2.755   2.482
 1860SOL    HW2 5583   3.543   2.849   2.399
 1861SOL     OW 5584   3.503   2.970   2.294
 1861SOL    HW1 5585   3.589   2.972   2.242
 1861SOL    HW2 5586   3.517   3.017   2.382
 1862SOL     OW 5587   1.975   2.599   3.459
 1862SOL    HW1 5588   2.063   2.586   3.504
 1862SOL    HW2 5589   1.962   2.696   3.437
 1863SOL     OW 5590   2.475   3.227   2.588
 1863SOL    HW1 5591   2.426   3.140   2.597
 1863SOL    HW2 5592   2.452   3.270   2.501
 1864SOL     OW 5593   3.155   3.090   3.285
 1864SOL    HW1 5594   3.192   3.017   3.227
 1864SOL    HW2 5595   3.207   3.095   3.370
 1865SOL     OW 5596   2.671   1.866   2.364
 1865SOL    HW1 5597   2.711   1.957   2.355
 1865SOL    HW2 5598   2.571   1.874   2.370
 1866SOL     OW 5599   2.059   2.838   3.126
 1866SOL    HW1 5600   2.148   2.793   3.112
 1866SOL    HW2 5601   1.986   2.773   3.107
 1867SOL     OW 5602   3.387   2.861   2.052
 1867SOL    HW1 5603   3.324   2.785   2.065
 1867SOL    HW2 5604   3.435   2.879   2.138
 1868SOL     OW 5605   3.049   3.654   3.478
 1868SOL    HW1 5606   3.073   3.714   3.402
 1868SOL    HW2 5607   3.056   3.559   3.448
 1869SOL     OW 5608   2.179   2.113   3.663
 1869SOL    HW1 5609   2.250   2.184   3.669
 1869SOL    HW2 5610   2.091   2.152   3.691
 1870SOL     OW 5611   3.328   3.279   2.815
 1870SOL    HW1 5612   3.269   3.285   2.895
 1870SOL    HW2 5613   3.313   3.191   2.769
 1871SOL     OW 5614   3.529   3.576   2.434
 1871SOL    HW1 5615   3.488   3.553   2.346
 1871SOL    HW2 5616   3.511   3.502   2.499
 1872SOL     OW 5617   2.460   2.591   2.132
 1872SOL    HW1 5618   2.484   2.660   2.064
 1872SOL    HW2 5619   2.382   2.624   2.186
 1873SOL     OW 5620   3.143   2.207   2.806
 1873SOL    HW1 5621   3.057   2.157   2.793
 1873SOL    HW2 5622   3.205   2.153   2.862
 1874SOL     OW 5623   3.438   3.524   2.169
 1874SOL    HW1 5624   3.527   3.570   2.172
 1874SOL    HW2 5625   3.417   3.500   2.074
 1875SOL     OW 5626   2.669   2.467   3.327
 1875SOL    HW1 5627   2.622   2.464   3.416
 1875SOL    HW2 5628   2.618   2.412   3.261
 1876SOL     OW 5629   3.256   2.331   3.536
 1876SOL    HW1 5630   3.236   2.374   3.624
 1876SOL    HW2 5631   3.334   2.269   3.545
 1877SOL     OW 5632   2.835   2.752   3.434
 1877SOL    HW1 5633   2.881   2.668   3.405
 1877SOL    HW2 5634   2.779   2.786   3.359
 1878SOL     OW 5635   2.853   2.272   3.104
 1878SOL    HW1 5636   2.776   2.306   3.158
 1878SOL    HW2 5637   2.819   2.221   3.025
 1879SOL     OW 5638   2.903   2.563   2.291
 1879SOL    HW1 5639   2.929   2.559   2.387
 1879SOL    HW2 5640   2.818   2.512   2.277
 1880SOL     OW 5641   1.938   2.673   2.651
 1880SOL    HW1 5642   2.037   2.661   2.660
 1880SOL    HW2 5643   1.914   2.768   2.672
 1881SOL     OW 5644   1.992   3.683   3.433
 1881SOL    HW1 5645   1.982   3.668   3.532
 1881SOL    HW2 5646   1.906   3.719   3.397
 1882SOL     OW 5647   2.727   2.210   2.057
 1882SOL    HW1 5648   2.786   2.273   2.008
 1882SOL    HW2 5649   2.746   2.116   2.028
 1883SOL     OW 5650   3.581   2.447   3.693
 1883SOL    HW1 5651   3.555   2.536   3.657
 1883SOL    HW2 5652   3.579   2.379   3.620
 1884SOL     OW 5653   3.224   3.006   2.407
 1884SOL    HW1 5654   3.307   2.977   2.359
 1884SOL    HW2 5655   3.175   3.073   2.351
 1885SOL     OW 5656   2.412   2.058   2.747
 1885SOL    HW1 5657   2.407   2.053   2.847
 1885SOL    HW2 5658   2.414   2.154   2.718
 1886SOL     OW 5659   2.870   3.318   2.339
 1886SOL    HW1 5660   2.824   3.390   2.287
 1886SOL    HW2 5661   2.866   3.338   2.437
 1887SOL     OW 5662   2.213   3.663   2.715
 1887SOL    HW1 5663   2.263   3.577   2.721
 1887SOL    HW2 5664   2.278   3.740   2.712
 1888SOL     OW 5665   3.657   2.928   2.735
 1888SOL    HW1 5666   3.595   2.913   2.659
 1888SOL    HW2 5667   3.605   2.939   2.820
 1889SOL     OW 5668   3.089   3.412   3.368
 1889SOL    HW1 5669   3.095   3.335   3.432
 1889SOL    HW2 5670   3.037   3.386   3.288
 1890SOL     OW 5671   2.183   2.805   2.104
 1890SOL    HW1 5672   2.265   2.844   2.062
 1890SOL    HW2 5673   2.156   2.723   2.055
 1891SOL     OW 5674   3.320   2.597   2.590
 1891SOL    HW1 5675   3.315   2.532   2.665
 1891SOL    HW2 5676   3.400   2.656   2.603
 1892SOL     OW 5677   2.323   3.128   3.589
 1892SOL    HW1 5678   2.273   3.129   3.503
 1892SOL    HW2 5679   2.260   3.110   3.665
 1893SOL     OW 5680   2.973   3.638   2.099
 1893SOL    HW1 5681   2.913   3.576   2.149
 1893SOL    HW2 5682   3.004   3.594   2.014
 1894SOL     OW 5683   2.064   2.147   3.360
 1894SOL    HW1 5684   1.984   2.207   3.347
 1894SOL    HW2 5685   2.054   2.098   3.446
 1895SOL     OW 5686   3.494   3.239   1.943
 1895SOL    HW1 5687   3.462   3.333   1.933
 1895SOL    HW2 5688   3.418   3.176   1.931
 1896SOL     OW 5689   2.326   3.605   2.185
 1896SOL    HW1 5690   2.359   3.644   2.271
 1896SOL    HW2 5691   2.402   3.598   2.120
 1897SOL     OW 5692   3.262   1.969   2.288
 1897SOL    HW1 5693   3.238   1.932   2.198
 1897SOL    HW2 5694   3.361   1.985   2.292
 1898SOL     OW 5695   2.111   3.647   3.103
 1898SOL    HW1 5696   2.168   3.582   3.153
 1898SOL    HW2 5697   2.095   3.614   3.010
 1899SOL     OW 5698   2.802   3.560   2.766
 1899SOL    HW1 5699   2.882   3.503   2.787
 1899SOL    HW2 5700   2.753   3.520   2.689
 1900SOL     OW 5701   2.244   2.562   2.342
 1900SOL    HW1 5702   2.289   2.472   2.339
 1900SOL    HW2 5703   2.150   2.551   2.375
 1901SOL     OW 5704   3.409   2.084   3.591
 1901SOL    HW1 5705   3.404   2.121   3.683
 1901SOL    HW2 5706   3.337   2.015   3.579
 1902SOL     OW 5707   2.476   1.984   1.979
 1902SOL    HW1 5708   2.574   1.962   1.986
 1902SOL    HW2 5709   2.445   1.967   1.886
 1903SOL     OW 5710   2.643   2.126   3.611
 1903SOL    HW1 5711   2.710   2.065   3.654
 1903SOL    HW2 5712   2.570   2.145   3.676
 1904SOL     OW 5713   2.750   3.376   3.057
 1904SOL    HW1 5714   2.727   3.351   2.963
 1904SOL    HW2 5715   2.811   3.307   3.096
 1905SOL     OW 5716   3.213   2.452   3.295
 1905SOL    HW1 5717   3.241   2.409   3.380
 1905SOL    HW2 5718   3.238   2.548   3.296
 1906SOL     OW 5719   2.665   3.264   2.786
 1906SOL    HW1 5720   2.755   3.278   2.744
 1906SOL    HW2 5721   2.594   3.266   2.715
 1907SOL     OW 5722   2.784   2.365   2.761
 1907SOL    HW1 5723   2.759   2.356   2.665
 1907SOL    HW2 5724   2.832   2.283   2.792
 1908SOL     OW 5725   2.401   1.926   2.374
 1908SOL    HW1 5726   2.320   1.927   2.432
 1908SOL    HW2 5727   2.404   2.009   2.319
 1909SOL     OW 5728   3.296   3.050   1.903
 1909SOL    HW1 5729   3.328   2.974   1.960
 1909SOL    HW2 5730   3.204   3.077   1.933
 1910SOL     OW 5731   2.159   1.897   2.033
 1910SOL    HW1 5732   2.208   1.981   2.012
 1910SOL    HW2 5733   2.221   1.832   2.078
 1911SOL     OW 5734   2.797   2.098   2.342
 1911SOL    HW1 5735   2.749   2.139   2.264
 1911SOL    HW2 5736   2.896   2.096   2.323
 1912SOL     OW 5737   2.938   2.545   3.326
 1912SOL    HW1 5738   2.858   2.484   3.329
 1912SOL    HW2 5739   3.019   2.492   3.302
 1913SOL     OW 5740   3.089   3.432   2.655
 1913SOL    HW1 5741   3.110   3.506   2.590
 1913SOL    HW2 5742   3.157   3.432   2.728
 1914SOL     OW 5743   2.321   3.014   2.603
 1914SOL    HW1 5744   2.250   2.987   2.668
 1914SOL    HW2 5745   2.295   2.986   2.510
 1915SOL     OW 5746   3.133   3.659   2.453
 1915SOL    HW1 5747   3.177   3.723   2.389
 1915SOL    HW2 5748   3.083   3.711   2.523
 1916SOL     OW 5749   2.894   2.411   1.878
 1916SOL    HW1 5750   2.853   2.493   1.839
 1916SOL    HW2 5751   2.958   2.437   1.951
 1917SOL     OW 5752   1.940   2.418   3.248
 1917SOL    HW1 5753   2.032   2.417   3.207
 1917SOL    HW2 5754   1.934   2.492   3.315
 1918SOL     OW 5755   2.423   2.084   3.009
 1918SOL    HW1 5756   2.461   2.000   3.046
 1918SOL    HW2 5757   2.335   2.103   3.053
 1919SOL     OW 5758   2.728   2.316   2.504
 1919SOL    HW1 5759   2.696   2.388   2.442
 1919SOL    HW2 5760   2.752   2.235   2.451
 1920SOL     OW 5761   2.879   1.901   2.615
 1920SOL    HW1 5762   2.807   1.906   2.546
 1920SOL    HW2 5763   2.855   1.832   2.684
 1921SOL     OW 5764   3.291   3.035   2.729
 1921SOL    HW1 5765   3.236   2.951   2.722
 1921SOL    HW2 5766   3.317   3.064   2.637
 1922SOL     OW 5767   3.328   2.452   2.854
 1922SOL    HW1 5768   3.298   2.357   2.861
 1922SOL    HW2 5769   3.401   2.468   2.920
 1923SOL     OW 5770   3.719   2.695   2.239
 1923SOL    HW1 5771   3.761   2.631   2.303
 1923SOL    HW2 5772   3.681   2.644   2.161
 1924SOL     OW 5773   2.350   3.247   2.036
 1924SOL    HW1 5774   2.263   3.232   2.083
 1924SOL    HW2 5775   2.333   3.273   1.941
 1925SOL     OW 5776   3.526   3.142   2.519
 1925SOL    HW1 5777   3.625   3.150   2.533
 1925SOL    HW2 5778   3.481   3.226   2.550
 1926SOL     OW 5779   3.252   2.437   1.940
 1926SOL    HW1 5780   3.198   2.416   2.021
 1926SOL    HW2 5781   3.343   2.396   1.949
 1927SOL     OW 5782   3.616   3.085   3.450
 1927SOL    HW1 5783   3.707   3.046   3.437
 1927SOL    HW2 5784   3.624   3.181   3.474
 1928SOL     OW 5785   2.926   3.209   3.202
 1928SOL    HW1 5786   2.846   3.186   3.257
 1928SOL    HW2 5787   3.009   3.183   3.251
 1929SOL     OW 5788   3.454   3.491   3.487
 1929SOL    HW1 5789   3.481   3.525   3.397
 1929SOL    HW2 5790   3.533   3.453   3.533
 1930SOL     OW 5791   2.973   3.057   2.962
 1930SOL    HW1 5792   2.933   3.101   3.043
 1930SOL    HW2 5793   2.932   3.094   2.879
 1931SOL     OW 5794   3.500   2.961   2.941
 1931SOL    HW1 5795   3.505   3.042   3.000
 1931SOL    HW2 5796   3.414   2.963   2.890
 1932SOL     OW 5797   2.777   1.951   3.264
 1932SOL    HW1 5798   2.802   1.931   3.169
 1932SOL    HW2 5799   2.849   2.007   3.306
 1933SOL     OW 5800   2.842   2.978   3.581
 1933SOL    HW1 5801   2.743   2.984   3.591
 1933SOL    HW2 5802   2.865   2.898   3.525
 1934SOL     OW 5803   2.567   2.912   2.230
 1934SOL    HW1 5804   2.553   2.919   2.329
 1934SOL    HW2 5805   2.651   2.861   2.212
 1935SOL     OW 5806   2.272   2.675   3.113
 1935SOL    HW1 5807   2.358   2.687   3.163
 1935SOL    HW2 5808   2.230   2.588   3.140
 1936SOL     OW 5809   3.136   2.248   3.124
 1936SOL    HW1 5810   3.157   2.322   3.188
 1936SOL    HW2 5811   3.047   2.265   3.081
 1937SOL     OW 5812   1.926   3.426   3.193
 1937SOL    HW1 5813   1.880   3.508   3.159
 1937SOL    HW2 5814   2.024   3.445   3.202
 1938SOL     OW 5815   2.229   2.962   2.363
 1938SOL    HW1 5816   2.222   3.045   2.307
 1938SOL    HW2 5817   2.233   2.882   2.303
 1939SOL     OW 5818   2.428   2.399   2.727
 1939SOL    HW1 5819   2.440   2.465   2.653
 1939SOL    HW2 5820   2.474   2.433   2.810
 1940SOL     OW 5821   3.114   3.210   2.250
 1940SOL    HW1 5822   3.164   3.287   2.290
 1940SOL    HW2 5823   3.019   3.212   2.282
 1941SOL     OW 5824   3.134   3.307   3.004
 1941SOL    HW1 5825   3.181   3.320   3.091
 1941SOL    HW2 5826   3.068   3.233   3.013
 1942SOL     OW 5827   3.444   2.501   2.334
 1942SOL    HW1 5828   3.413   2.562   2.407
 1942SOL    HW2 5829   3.494   2.553   2.265
 1943SOL     OW 5830   2.216   3.372   3.191
 1943SOL    HW1 5831   2.195   3.328   3.104
 1943SOL    HW2 5832   2.313   3.398   3.194
 1944SOL     OW 5833   2.264   2.613   3.460
 1944SOL    HW1 5834   2.332   2.668   3.413
 1944SOL    HW2 5835   2.304   2.525   3.487
 1945SOL     OW 5836   3.449   2.641   3.532
 1945SOL    HW1 5837   3.357   2.679   3.527
 1945SOL    HW2 5838   3.509   2.688   3.467
 1946SOL     OW 5839   2.875   1.967   3.632
 1946SOL    HW1 5840   2.881   2.052   3.580
 1946SOL    HW2 5841   2.907   1.891   3.575
 1947SOL     OW 5842   2.366   1.912   3.602
 1947SOL    HW1 5843   2.324   1.855   3.532
 1947SOL    HW2 5844   2.300   1.981   3.634
 1948SOL     OW 5845   2.435   2.732   2.891
 1948SOL    HW1 5846   2.479   2.821   2.882
 1948SOL    HW2 5847   2.372   2.732   2.968
 1949SOL     OW 5848   3.222   2.724   2.907
 1949SOL    HW1 5849   3.147   2.724   2.841
 1949SOL    HW2 5850   3.259   2.632   2.916
 1950SOL     OW 5851   3.071   2.387   2.137
 1950SOL    HW1 5852   3.084   2.303   2.191
 1950SOL    HW2 5853   3.042   2.461   2.197
 1951SOL     OW 5854   2.169   2.075   3.093
 1951SOL    HW1 5855   2.146   2.112   3.183
 1951SOL    HW2 5856   2.139   1.980   3.087
 1952SOL     OW 5857   1.899   3.172   3.144
 1952SOL    HW1 5858   1.952   3.123   3.212
 1952SOL    HW2 5859   1.921   3.270   3.149
 1953SOL     OW 5860   2.594   2.496   2.926
 1953SOL    HW1 5861   2.653   2.470   2.850
 1953SOL    HW2 5862   2.566   2.592   2.915
 1954SOL     OW 5863   3.590   2.797   3.716
 1954SOL    HW1 5864   3.544   2.790   3.627
 1954SOL    HW2 5865   3.528   2.841   3.782
 1955SOL     OW 5866   2.169   1.925   2.480
 1955SOL    HW1 5867   2.158   2.019   2.513
 1955SOL    HW2 5868   2.164   1.862   2.557
 1956SOL     OW 5869   3.484   2.229   2.236
 1956SOL    HW1 5870   3.486   2.153   2.300
 1956SOL    HW2 5871   3.436   2.306   2.276
 1957SOL     OW 5872   2.885   2.628   2.828
 1957SOL    HW1 5873   2.900   2.649   2.924
 1957SOL    HW2 5874   2.855   2.533   2.819
 1958SOL     OW 5875   2.842   3.435   3.562
 1958SOL    HW1 5876   2.822   3.479   3.474
 1958SOL    HW2 5877   2.881   3.344   3.546
 1959SOL     OW 5878   3.721   3.380   3.467
 1959SOL    HW1 5879   3.735   3.407   3.372
 1959SOL    HW2 5880   3.804   3.402   3.520
 1960SOL     OW 5881   2.212   2.760   3.666
 1960SOL    HW1 5882   2.288   2.804   3.714
 1960SOL    HW2 5883   2.247   2.713   3.584
 1961SOL     OW 5884   3.402   2.136   1.987
 1961SOL    HW1 5885   3.341   2.061   2.010
 1961SOL    HW2 5886   3.424   2.188   2.070
 1962SOL     OW 5887   3.165   2.700   1.904
 1962SOL    HW1 5888   3.199   2.607   1.919
 1962SOL    HW2 5889   3.183   2.727   1.809
 1963SOL     OW 5890   2.930   3.195   2.711
 1963SOL    HW1 5891   2.937   3.111   2.656
 1963SOL    HW2 5892   2.992   3.264   2.675
 1964SOL     OW 5893   2.181   2.672   2.811
 1964SOL    HW1 5894   2.274   2.708   2.816
 1964SOL    HW2 5895   2.175   2.587   2.863
 1965SOL     OW 5896   2.201   2.371   2.868
 1965SOL    HW1 5897   2.149   2.288   2.851
 1965SOL    HW2 5898   2.278   2.376   2.804
 1966SOL     OW 5899   3.000   2.242   3.540
 1966SOL    HW1 5900   2.955   2.305   3.604
 1966SOL    HW2 5901   3.093   2.273   3.523
 1967SOL     OW 5902   3.022   2.069   3.339
 1967SOL    HW1 5903   3.022   2.133   3.416
 1967SOL    HW2 5904   3.050   2.117   3.256
 1968SOL     OW 5905   1.870   3.188   2.062
 1968SOL    HW1 5906   1.777   3.209   2.031
 1968SOL    HW2 5907   1.880   3.089   2.075
 1969SOL     OW 5908   1.950   3.663   2.789
 1969SOL    HW1 5909   1.908   3.577   2.762
 1969SOL    HW2 5910   2.044   3.666   2.755
 1970SOL     OW 5911   2.366   3.430   2.772
 1970SOL    HW1 5912   2.432   3.504   2.781
 1970SOL    HW2 5913   2.410   3.351   2.730
 1971SOL     OW 5914   2.864   2.658   3.100
 1971SOL    HW1 5915   2.905   2.626   3.186
 1971SOL    HW2 5916   2.768   2.631   3.097
 1972SOL     OW 5917   1.902   2.406   2.976
 1972SOL    HW1 5918   1.987   2.373   2.935
 1972SOL    HW2 5919   1.915   2.421   3.074
 1973SOL     OW 5920   2.051   2.382   3.584
 1973SOL    HW1 5921   2.110   2.342   3.514
 1973SOL    HW2 5922   1.993   2.453   3.543
 1974SOL     OW 5923   3.231   2.812   3.522
 1974SOL    HW1 5924   3.270   2.901   3.542
 1974SOL    HW2 5925   3.241   2.792   3.425
 1975SOL     OW 5926   2.677   2.434   2.187
 1975SOL    HW1 5927   2.684   2.345   2.141
 1975SOL    HW2 5928   2.583   2.468   2.179
 1976SOL     OW 5929   3.519   2.466   3.068
 1976SOL    HW1 5930   3.481   2.397   3.130
 1976SOL    HW2 5931   3.601   2.430   3.024
 1977SOL     OW 5932   2.114   3.426   3.606
 1977SOL    HW1 5933   2.084   3.483   3.682
 1977SOL    HW2 5934   2.107   3.329   3.632
 1978SOL     OW 5935   2.533   2.326   3.131
 1978SOL    HW1 5936   2.499   2.237   3.101
 1978SOL    HW2 5937   2.559   2.380   3.051
 1979SOL     OW 5938   2.792   3.540   3.327
 1979SOL    HW1 5939   2.768   3.522   3.232
 1979SOL    HW2 5940   2.822   3.634   3.337
 1980SOL     OW 5941   2.335   2.362   2.053
 1980SOL    HW1 5942   2.396   2.442   2.057
 1980SOL    HW2 5943   2.240   2.393   2.060
 1981SOL     OW 5944   2.021   2.999   3.328
 1981SOL    HW1 5945   2.043   2.938   3.404
 1981SOL    HW2 5946   2.031   2.950   3.242
 1982SOL     OW 5947   3.209   2.921   3.096
 1982SOL    HW1 5948   3.233   2.858   3.022
 1982SOL    HW2 5949   3.119   2.961   3.078
 1983SOL     OW 5950   3.164   2.717   2.171
 1983SOL    HW1 5951   3.078   2.686   2.213
 1983SOL    HW2 5952   3.160   2.703   2.072
 1984SOL     OW 5953   3.621   3.609   3.016
 1984SOL    HW1 5954   3.682   3.639   2.943
 1984SOL    HW2 5955   3.583   3.520   2.994
 1985SOL     OW 5956   3.114   3.593   2.990
 1985SOL    HW1 5957   3.198   3.598   2.936
 1985SOL    HW2 5958   3.091   3.497   3.008
 1986SOL     OW 5959   1.945   3.120   2.884
 1986SOL    HW1 5960   1.940   3.119   2.984
 1986SOL    HW2 5961   1.862   3.079   2.846
 1987SOL     OW 5962   2.550   3.524   3.578
 1987SOL    HW1 5963   2.494   3.605   3.587
 1987SOL    HW2 5964   2.602   3.528   3.492
 1988SOL     OW 5965   3.588   1.997   2.385
 1988SOL    HW1 5966   3.661   1.980   2.318
 1988SOL    HW2 5967   3.557   1.910   2.423
 1989SOL     OW 5968   3.250   3.435   2.339
 1989SOL    HW1 5969   3.317   3.447   2.265
 1989SOL    HW2 5970   3.210   3.524   2.362
 1990SOL     OW 5971   1.992   3.656   3.713
 1990SOL    HW1 5972   1.951   3.582   3.766
 1990SOL    HW2 5973   2.056   3.707   3.771
 1991SOL     OW 5974   3.142   2.789   2.534
 1991SOL    HW1 5975   3.202   2.708   2.536
 1991SOL    HW2 5976   3.182   2.858   2.474
 1992SOL     OW 5977   2.692   3.135   3.284
 1992SOL    HW1 5978   2.687   3.168   3.379
 1992SOL    HW2 5979   2.606   3.154   3.238
 1993SOL     OW 5980   2.534   3.478   2.016
 1993SOL    HW1 5981   2.543   3.488   1.917
 1993SOL    HW2 5982   2.494   3.389   2.037
 1994SOL     OW 5983   3.512   3.582   3.256
 1994SOL    HW1 5984   3.565   3.592   3.172
 1994SOL    HW2 5985   3.485   3.672   3.290
 1995SOL     OW 5986   3.703   2.037   2.825
 1995SOL    HW1 5987   3.742   1.952   2.789
 1995SOL    HW2 5988   3.605   2.039   2.806
 1996SOL     OW 5989   2.125   2.188   2.582
 1996SOL    HW1 5990   2.046   2.239   2.548
 1996SOL    HW2 5991   2.116   2.173   2.680
 1997SOL     OW 5992   3.056   3.474   1.893
 1997SOL    HW1 5993   3.062   3.381   1.930
 1997SOL    HW2 5994   2.997   3.474   1.813
 1998SOL     OW 5995   2.684   2.864   3.234
 1998SOL    HW1 5996   2.724   2.863   3.142
 1998SOL    HW2 5997   2.694   2.956   3.274
 1999SOL     OW 5998   2.778   2.772   2.153
 1999SOL    HW1 5999   2.841   2.810   2.085
 1999SOL    HW2 6000   2.818   2.689   2.192
 2000SOL     OW 6001   3.366   3.469   1.906
 2000SOL    HW1 6002   3.274   3.506   1.913
 2000SOL    HW2 6003   3.404   3.489   1.816
 2001SOL     OW 6004   2.234   3.150   3.352
 2001SOL    HW1 6005   2.221   3.243   3.318
 2001SOL    HW2 6006   2.150   3.098   3.339
 2002SOL     OW 6007   3.476   3.154   3.151
 2002SOL    HW1 6008   3.536   3.157   3.231
 2002SOL    HW2 6009   3.401   3.218   3.164
 2003SOL     OW 6010   2.901   2.960   2.558
 2003SOL    HW1 6011   2.831   2.913   2.612
 2003SOL    HW2 6012   2.960   2.892   2.515
 2004SOL     OW 6013   2.876   2.098   2.833
 2004SOL    HW1 6014   2.868   2.062   2.740
 2004SOL    HW2 6015   2.874   2.022   2.898
 2005SOL     OW 6016   2.452   3.349   2.353
 2005SOL    HW1 6017   2.494   3.291   2.283
 2005SOL    HW2 6018   2.408   3.428   2.309
 2006SOL     OW 6019   3.571   2.247   3.243
 2006SOL    HW1 6020   3.644   2.316   3.247
 2006SOL    HW2 6021   3.599   2.172   3.184
 2007SOL     OW 6022   2.117   3.210   2.152
 2007SOL    HW1 6023   2.021   3.211   2.125
 2007SOL    HW2 6024   2.129   3.263   2.236
 2008SOL     OW 6025   1.967   2.875   3.588
 2008SOL    HW1 6026   1.890   2.842   3.642
 2008SOL    HW2 6027   2.052   2.845   3.630
 2009SOL     OW 6028   2.534   2.065   3.351
 2009SOL    HW1 6029   2.624   2.049   3.311
 2009SOL    HW2 6030   2.542   2.070   3.450
 2010SOL     OW 6031   1.937   2.207   1.895
 2010SOL    HW1 6032   1.845   2.179   1.866
 2010SOL    HW2 6033   1.968   2.284   1.839
 2011SOL     OW 6034   3.302   2.718   3.260
 2011SOL    HW1 6035   3.245   2.770   3.197
 2011SOL    HW2 6036   3.398   2.730   3.236
 2012SOL     OW 6037   3.045   3.197   1.981
 2012SOL    HW1 6038   2.946   3.186   1.983
 2012SOL    HW2 6039   3.079   3.212   2.074
 2013SOL     OW 6040   2.475   2.704   3.293
 2013SOL    HW1 6041   2.531   2.785   3.276
 2013SOL    HW2 6042   2.534   2.624   3.296
 2014SOL     OW 6043   3.355   3.629   2.821
 2014SOL    HW1 6044   3.388   3.693   2.752
 2014SOL    HW2 6045   3.421   3.623   2.896
 2015SOL     OW 6046   2.578   2.427   3.570
 2015SOL    HW1 6047   2.597   2.492   3.644
 2015SOL    HW2 6048   2.638   2.347   3.579
 2016SOL     OW 6049   3.312   3.082   3.495
 2016SOL    HW1 6050   3.303   3.072   3.594
 2016SOL    HW2 6051   3.408   3.075   3.469
 2017SOL     OW 6052   2.252   3.603   3.422
 2017SOL    HW1 6053   2.161   3.644   3.420
 2017SOL    HW2 6054   2.245   3.509   3.454
 2018SOL     OW 6055   3.536   2.745   3.116
 2018SOL    HW1 6056   3.509   2.656   3.079
 2018SOL    HW2 6057   3.537   2.813   3.043
 2019SOL     OW 6058   3.087   2.187   2.311
 2019SOL    HW1 6059   3.152   2.113   2.300
 2019SOL    HW2 6060   3.107   2.237   2.395
 2020SOL     OW 6061   2.456   2.607   2.514
 2020SOL    HW1 6062   2.506   2.692   2.495
 2020SOL    HW2 6063   2.368   2.609   2.466
 2021SOL     OW 6064   3.639   2.204   3.504
 2021SOL    HW1 6065   3.622   2.235   3.410
 2021SOL    HW2 6066   3.555   2.167   3.542
 2022SOL     OW 6067   3.592   2.796   3.379
 2022SOL    HW1 6068   3.630   2.887   3.394
 2022SOL    HW2 6069   3.584   2.779   3.280
 2023SOL     OW 6070   2.721   3.236   1.878
 2023SOL    HW1 6071   2.675   3.251   1.966
 2023SOL    HW2 6072   2.765   3.321   1.848
 2024SOL     OW 6073   2.523   3.652   2.815
 2024SOL    HW1 6074   2.477   3.740   2.802
 2024SOL    HW2 6075   2.622   3.664   2.808
 2025SOL     OW 6076   2.721   2.818   2.723
 2025SOL    HW1 6077   2.775   2.749   2.771
 2025SOL    HW2 6078   2.689   2.887   2.789
 2026SOL     OW 6079   2.945   2.846   1.949
 2026SOL    HW1 6080   2.922   2.899   1.867
 2026SOL    HW2 6081   3.026   2.790   1.930
 2027SOL     OW 6082   3.723   3.431   2.713
 2027SOL    HW1 6083   3.652   3.419   2.643
 2027SOL    HW2 6084   3.724   3.352   2.773
 2028SOL     OW 6085   2.083   3.176   3.706
 2028SOL    HW1 6086   2.018   3.103   3.685
 2028SOL    HW2 6087   2.087   3.190   3.804
 2029SOL     OW 6088   1.941   3.102   2.515
 2029SOL    HW1 6089   1.940   3.055   2.603
 2029SOL    HW2 6090   2.023   3.074   2.464
 2030SOL     OW 6091   2.534   3.253   3.486
 2030SOL    HW1 6092   2.456   3.203   3.524
 2030SOL    HW2 6093   2.531   3.348   3.517
 2031SOL     OW 6094   3.686   2.054   3.089
 2031SOL    HW1 6095   3.682   1.964   3.133
 2031SOL    HW2 6096   3.689   2.043   2.990
 2032SOL     OW 6097   3.567   3.349   2.966
 2032SOL    HW1 6098   3.474   3.324   2.939
 2032SOL    HW2 6099   3.593   3.299   3.048
 2033SOL     OW 6100   2.179   2.409   3.142
 2033SOL    HW1 6101   2.217   2.350   3.214
 2033SOL    HW2 6102   2.219   2.383   3.054
 2034SOL     OW 6103   2.674   3.448   2.549
 2034SOL    HW1 6104   2.706   3.458   2.455
 2034SOL    HW2 6105   2.595   3.386   2.551
 2035SOL     OW 6106   3.286   2.076   2.974
 2035SOL    HW1 6107   3.338   2.011   3.029
 2035SOL    HW2 6108   3.237   2.139   3.035
 2036SOL     OW 6109   2.863   1.896   3.016
 2036SOL    HW1 6110   2.800   1.824   2.985
 2036SOL    HW2 6111   2.956   1.860   3.016
 2037SOL     OW 6112   2.632   3.192   2.163
 2037SOL    HW1 6113   2.586   3.105   2.180
 2037SOL    HW2 6114   2.723   3.189   2.204
 2038SOL     OW 6115   2.480   3.429   3.146
 2038SOL    HW1 6116   2.475   3.511   3.203
 2038SOL    HW2 6117   2.569   3.426   3.101
 2039SOL     OW 6118   3.214   1.914   2.030
 2039SOL    HW1 6119   3.249   1.873   1.946
 2039SOL    HW2 6120   3.124   1.876   2.050
 2040SOL     OW 6121   3.162   2.315   2.553
 2040SOL    HW1 6122   3.103   2.395   2.557
 2040SOL    HW2 6123   3.177   2.280   2.646
 2041SOL     OW 6124   3.455   2.083   2.744
 2041SOL    HW1 6125   3.371   2.082   2.798
 2041SOL    HW2 6126   3.457   2.166   2.688
 2042SOL     OW 6127   1.901   2.939   2.162
 2042SOL    HW1 6128   2.000   2.928   2.153
 2042SOL    HW2 6129   1.861   2.853   2.194
 2043SOL     OW 6130   2.737   3.508   2.199
 2043SOL    HW1 6131   2.660   3.473   2.145
 2043SOL    HW2 6132   2.705   3.579   2.261
 2044SOL     OW 6133   2.092   2.490   3.837
 2044SOL    HW1 6134   1.999   2.488   3.874
 2044SOL    HW2 6135   2.093   2.451   3.745
 2045SOL     OW 6136   3.617   2.469   3.955
 2045SOL    HW1 6137   3.605   2.456   3.856
 2045SOL    HW2 6138   3.587   2.388   4.004
 2046SOL     OW 6139   2.093   3.575   4.207
 2046SOL    HW1 6140   2.127   3.652   4.261
 2046SOL    HW2 6141   2.137   3.575   4.117
 2047SOL     OW 6142   2.092   3.296   4.262
 2047SOL    HW1 6143   2.066   3.392   4.262
 2047SOL    HW2 6144   2.021   3.242   4.307
 2048SOL     OW 6145   2.468   2.826   3.847
 2048SOL    HW1 6146   2.475   2.910   3.793
 2048SOL    HW2 6147   2.514   2.839   3.935
 2049SOL     OW 6148   3.704   3.629   4.083
 2049SOL    HW1 6149   3.758   3.600   4.163
 2049SOL    HW2 6150   3.734   3.719   4.054
 2050SOL     OW 6151   1.889   3.458   3.841
 2050SOL    HW1 6152   1.870   3.362   3.862
 2050SOL    HW2 6153   1.856   3.516   3.916
 2051SOL     OW 6154   3.551   2.784   4.336
 2051SOL    HW1 6155   3.646   2.755   4.344
 2051SOL    HW2 6156   3.543   2.849   4.261
 2052SOL     OW 6157   3.503   2.970   4.156
 2052SOL    HW1 6158   3.589   2.972   4.104
 2052SOL    HW2 6159   3.517   3.017   4.244
 2053SOL     OW 6160   2.671   1.866   4.226
 2053SOL    HW1 6161   2.711   1.957   4.217
 2053SOL    HW2 6162   2.571   1.874   4.232
 2054SOL     OW 6163   3.387   2.861   3.914
 2054SOL    HW1 6164   3.324   2.785   3.927
 2054SOL    HW2 6165   3.435   2.879   4.000
 2055SOL     OW 6166   2.460   2.591   3.994
 2055SOL    HW1 6167   2.484   2.660   3.926
 2055SOL    HW2 6168   2.382   2.624   4.048
 2056SOL     OW 6169   3.438   3.524   4.031
 2056SOL    HW1 6170   3.527   3.570   4.034
 2056SOL    HW2 6171   3.417   3.500   3.936
 2057SOL     OW 6172   2.727   2.210   3.919
 2057SOL    HW1 6173   2.786   2.273   3.870
 2057SOL    HW2 6174   2.746   2.116   3.890
 2058SOL     OW 6175   2.183   2.805   3.966
 2058SOL    HW1 6176   2.265   2.844   3.924
 2058SOL    HW2 6177   2.156   2.723   3.917
 2059SOL     OW 6178   2.973   3.638   3.961
 2059SOL    HW1 6179   2.913   3.576   4.011
 2059SOL    HW2 6180   3.004   3.594   3.876
 2060SOL     OW 6181   3.494   3.239   3.805
 2060SOL    HW1 6182   3.462   3.333   3.795
 2060SOL    HW2 6183   3.418   3.176   3.793
 2061SOL     OW 6184   2.326   3.605   4.047
 2061SOL    HW1 6185   2.359   3.644   4.133
 2061SOL    HW2 6186   2.402   3.598   3.982
 2062SOL     OW 6187   3.262   1.969   4.150
 2062SOL    HW1 6188   3.238   1.932   4.060
 2062SOL    HW2 6189   3.361   1.985   4.154
 2063SOL     OW 6190   2.244   2.562   4.204
 2063SOL    HW1 6191   2.289   2.472   4.201
 2063SOL    HW2 6192   2.150   2.551   4.237
 2064SOL     OW 6193   2.476   1.984   3.841
 2064SOL    HW1 6194   2.574   1.962   3.848
 2064SOL    HW2 6195   2.445   1.967   3.748
 2065SOL     OW 6196   3.296   3.050   3.765
 2065SOL    HW1 6197   3.328   2.974   3.822
 2065SOL    HW2 6198   3.204   3.077   3.795
 2066SOL     OW 6199   2.159   1.897   3.895
 2066SOL    HW1 6200   2.208   1.981   3.874
 2066SOL    HW2 6201   2.221   1.832   3.940
 2067SOL     OW 6202   2.797   2.098   4.204
 2067SOL    HW1 6203   2.749   2.139   4.126
 2067SOL    HW2 6204   2.896   2.096   4.185
 2068SOL     OW 6205   2.321   3.014   4.465
 2068SOL    HW1 6206   2.250   2.987   4.530
 2068SOL    HW2 6207   2.295   2.986   4.372
 2069SOL     OW 6208   3.133   3.659   4.315
 2069SOL    HW1 6209   3.177   3.723   4.251
 2069SOL    HW2 6210   3.083   3.711   4.385
 2070SOL     OW 6211   2.894   2.411   3.740
 2070SOL    HW1 6212   2.853   2.493   3.701
 2070SOL    HW2 6213   2.958   2.437   3.813
 2071SOL     OW 6214   3.719   2.695   4.101
 2071SOL    HW1 6215   3.761   2.631   4.165
 2071SOL    HW2 6216   3.681   2.644   4.023
 2072SOL     OW 6217   2.350   3.247   3.898
 2072SOL    HW1 6218   2.263   3.232   3.945
 2072SOL    HW2 6219   2.333   3.273   3.803
 2073SOL     OW 6220   3.252   2.437   3.802
 2073SOL    HW1 6221   3.198   2.416   3.883
 2073SOL    HW2 6222   3.343   2.396   3.811
 2074SOL     OW 6223   2.389   2.118   4.052
 2074SOL    HW1 6224   2.416   2.059   3.977
 2074SOL    HW2 6225   2.389   2.213   4.021
 2075SOL     OW 6226   2.567   2.912   4.092
 2075SOL    HW1 6227   2.553   2.919   4.191
 2075SOL    HW2 6228   2.651   2.861   4.074
 2076SOL     OW 6229   2.229   2.962   4.225
 2076SOL    HW1 6230   2.222   3.045   4.169
 2076SOL    HW2 6231   2.233   2.882   4.165
 2077SOL     OW 6232   3.114   3.210   4.112
 2077SOL    HW1 6233   3.164   3.287   4.152
 2077SOL    HW2 6234   3.019   3.212   4.144
 2078SOL     OW 6235   3.444   2.501   4.196
 2078SOL    HW1 6236   3.413   2.562   4.269
 2078SOL    HW2 6237   3.494   2.553   4.127
 2079SOL     OW 6238   3.071   2.387   3.999
 2079SOL    HW1 6239   3.084   2.303   4.053
 2079SOL    HW2 6240   3.042   2.461   4.059
 2080SOL     OW 6241   3.484   2.229   4.098
 2080SOL    HW1 6242   3.486   2.153   4.162
 2080SOL    HW2 6243   3.436   2.306   4.138
 2081SOL     OW 6244   3.402   2.136   3.849
 2081SOL    HW1 6245   3.341   2.061   3.872
 2081SOL    HW2 6246   3.424   2.188   3.932
 2082SOL     OW 6247   3.165   2.700   3.766
 2082SOL    HW1 6248   3.199   2.607   3.781
 2082SOL    HW2 6249   3.183   2.727   3.671
 2083SOL     OW 6250   1.870   3.188   3.924
 2083SOL    HW1 6251   1.777   3.209   3.893
 2083SOL    HW2 6252   1.880   3.089   3.937
 2084SOL     OW 6253   2.677   2.434   4.049
 2084SOL    HW1 6254   2.684   2.345   4.003
 2084SOL    HW2 6255   2.583   2.468   4.041
 2085SOL     OW 6256   2.335   2.362   3.915
 2085SOL    HW1 6257   2.396   2.442   3.919
 2085SOL    HW2 6258   2.240   2.393   3.922
 2086SOL     OW 6259   3.164   2.717   4.033
 2086SOL    HW1 6260   3.078   2.686   4.075
 2086SOL    HW2 6261   3.160   2.703   3.934
 2087SOL     OW 6262   3.588   1.997   4.247
 2087SOL    HW1 6263   3.661   1.980   4.180
 2087SOL    HW2 6264   3.557   1.910   4.285
 2088SOL     OW 6265   3.250   3.435   4.201
 2088SOL    HW1 6266   3.317   3.447   4.127
 2088SOL    HW2 6267   3.210   3.524   4.224
 2089SOL     OW 6268   2.534   3.478   3.878
 2089SOL    HW1 6269   2.543   3.488   3.779
 2089SOL    HW2 6270   2.494   3.389   3.899
 2090SOL     OW 6271   3.056   3.474   3.755
 2090SOL    HW1 6272   3.062   3.381   3.792
 2090SOL    HW2 6273   2.997   3.474   3.675
 2091SOL     OW 6274   2.778   2.772   4.015
 2091SOL    HW1 6275   2.841   2.810   3.947
 2091SOL    HW2 6276   2.818   2.689   4.054
 2092SOL     OW 6277   3.366   3.469   3.768
 2092SOL    HW1 6278   3.274   3.506   3.775
 2092SOL    HW2 6279   3.404   3.489   3.678
 2093SOL     OW 6280   2.452   3.349   4.215
 2093SOL    HW1 6281   2.494   3.291   4.145
 2093SOL    HW2 6282   2.408   3.428   4.171
 2094SOL     OW 6283   2.117   3.210   4.014
 2094SOL    HW1 6284   2.021   3.211   3.987
 2094SOL    HW2 6285   2.129   3.263   4.098
 2095SOL     OW 6286   1.937   2.207   3.757
 2095SOL    HW1 6287   1.845   2.179   3.728
 2095SOL    HW2 6288   1.968   2.284   3.701
 2096SOL     OW 6289   1.934   2.028   4.042
 2096SOL    HW1 6290   1.917   2.111   3.988
 2096SOL    HW2 6291   2.024   1.991   4.020
 2097SOL     OW 6292   3.045   3.197   3.843
 2097SOL    HW1 6293   2.946   3.186   3.845
 2097SOL    HW2 6294   3.079   3.212   3.936
 2098SOL     OW 6295   3.087   2.187   4.173
 2098SOL    HW1 6296   3.152   2.113   4.162
 2098SOL    HW2 6297   3.107   2.237   4.257
 2099SOL     OW 6298   2.456   2.607   4.376
 2099SOL    HW1 6299   2.506   2.692   4.357
 2099SOL    HW2 6300   2.368   2.609   4.328
 2100SOL     OW 6301   2.721   3.236   3.740
 2100SOL    HW1 6302   2.675   3.251   3.828
 2100SOL    HW2 6303   2.765   3.321   3.710
 2101SOL     OW 6304   2.945   2.846   3.811
 2101SOL    HW1 6305   2.922   2.899   3.729
 2101SOL    HW2 6306   3.026   2.790   3.792
 2102SOL     OW 6307   2.290   2.286   4.244
 2102SOL    HW1 6308   2.320   2.214   4.182
 2102SOL    HW2 6309   2.251   2.246   4.327
 2103SOL     OW 6310   2.632   3.192   4.025
 2103SOL    HW1 6311   2.586   3.105   4.042
 2103SOL    HW2 6312   2.723   3.189   4.066
 2104SOL     OW 6313   3.214   1.914   3.892
 2104SOL    HW1 6314   3.249   1.873   3.808
 2104SOL    HW2 6315   3.124   1.876   3.912
 2105SOL     OW 6316   1.901   2.939   4.024
 2105SOL    HW1 6317   2.000   2.928   4.015
 2105SOL    HW2 6318   1.861   2.853   4.056
 2106SOL     OW 6319   2.737   3.508   4.061
 2106SOL    HW1 6320   2.660   3.473   4.007
 2106SOL    HW2 6321   2.705   3.579   4.123
 2107SOL     OW 6322   2.087   3.999   0.996
 2107SOL    HW1 6323   2.122   3.982   1.088
 2107SOL    HW2 6324   1.999   3.954   0.984
 2108SOL     OW 6325   1.881   4.092   0.647
 2108SOL    HW1 6326   1.799   4.135   0.686
 2108SOL    HW2 6327   1.853   4.019   0.584
 2109SOL     OW 6328   3.617   4.331   0.231
 2109SOL    HW1 6329   3.605   4.318   0.132
 2109SOL    HW2 6330   3.587   4.250   0.280
 2110SOL     OW 6331   2.300   4.116   1.499
 2110SOL    HW1 6332   2.382   4.060   1.508
 2110SOL    HW2 6333   2.219   4.058   1.503
 2111SOL     OW 6334   3.465   4.171   0.737
 2111SOL    HW1 6335   3.391   4.217   0.687
 2111SOL    HW2 6336   3.516   4.239   0.790
 2112SOL     OW 6337   3.456   3.838   1.480
 2112SOL    HW1 6338   3.438   3.905   1.408
 2112SOL    HW2 6339   3.453   3.884   1.569
 2113SOL     OW 6340   1.984   4.367   0.563
 2113SOL    HW1 6341   1.939   4.279   0.580
 2113SOL    HW2 6342   1.983   4.421   0.647
 2114SOL     OW 6343   2.671   3.728   0.502
 2114SOL    HW1 6344   2.711   3.819   0.493
 2114SOL    HW2 6345   2.571   3.736   0.508
 2115SOL     OW 6346   2.179   3.975   1.801
 2115SOL    HW1 6347   2.250   4.046   1.807
 2115SOL    HW2 6348   2.091   4.014   1.829
 2116SOL     OW 6349   3.143   4.069   0.944
 2116SOL    HW1 6350   3.057   4.019   0.931
 2116SOL    HW2 6351   3.205   4.015   1.000
 2117SOL     OW 6352   3.256   4.193   1.674
 2117SOL    HW1 6353   3.236   4.236   1.762
 2117SOL    HW2 6354   3.334   4.131   1.683
 2118SOL     OW 6355   2.853   4.134   1.242
 2118SOL    HW1 6356   2.776   4.168   1.296
 2118SOL    HW2 6357   2.819   4.083   1.163
 2119SOL     OW 6358   1.938   4.535   0.789
 2119SOL    HW1 6359   2.037   4.523   0.798
 2119SOL    HW2 6360   1.914   4.630   0.810
 2120SOL     OW 6361   2.727   4.072   0.195
 2120SOL    HW1 6362   2.786   4.135   0.146
 2120SOL    HW2 6363   2.746   3.978   0.166
 2121SOL     OW 6364   3.581   4.309   1.831
 2121SOL    HW1 6365   3.555   4.398   1.795
 2121SOL    HW2 6366   3.579   4.241   1.758
 2122SOL     OW 6367   2.412   3.920   0.885
 2122SOL    HW1 6368   2.407   3.915   0.985
 2122SOL    HW2 6369   2.414   4.016   0.856
 2123SOL     OW 6370   3.320   4.459   0.728
 2123SOL    HW1 6371   3.315   4.394   0.803
 2123SOL    HW2 6372   3.400   4.518   0.741
 2124SOL     OW 6373   2.064   4.009   1.498
 2124SOL    HW1 6374   1.984   4.069   1.485
 2124SOL    HW2 6375   2.054   3.960   1.584
 2125SOL     OW 6376   3.262   3.831   0.426
 2125SOL    HW1 6377   3.238   3.794   0.336
 2125SOL    HW2 6378   3.361   3.847   0.430
 2126SOL     OW 6379   3.409   3.946   1.729
 2126SOL    HW1 6380   3.404   3.983   1.821
 2126SOL    HW2 6381   3.337   3.877   1.717
 2127SOL     OW 6382   2.476   3.846   0.117
 2127SOL    HW1 6383   2.574   3.824   0.124
 2127SOL    HW2 6384   2.445   3.829   0.024
 2128SOL     OW 6385   2.643   3.988   1.749
 2128SOL    HW1 6386   2.710   3.927   1.792
 2128SOL    HW2 6387   2.570   4.007   1.814
 2129SOL     OW 6388   3.213   4.314   1.433
 2129SOL    HW1 6389   3.241   4.271   1.518
 2129SOL    HW2 6390   3.238   4.410   1.434
 2130SOL     OW 6391   2.401   3.788   0.512
 2130SOL    HW1 6392   2.320   3.789   0.570
 2130SOL    HW2 6393   2.404   3.871   0.457
 2131SOL     OW 6394   2.159   3.759   0.171
 2131SOL    HW1 6395   2.208   3.843   0.150
 2131SOL    HW2 6396   2.221   3.694   0.216
 2132SOL     OW 6397   2.797   3.960   0.480
 2132SOL    HW1 6398   2.749   4.001   0.402
 2132SOL    HW2 6399   2.896   3.958   0.461
 2133SOL     OW 6400   1.940   4.280   1.386
 2133SOL    HW1 6401   2.032   4.279   1.345
 2133SOL    HW2 6402   1.934   4.354   1.453
 2134SOL     OW 6403   2.423   3.946   1.147
 2134SOL    HW1 6404   2.461   3.862   1.184
 2134SOL    HW2 6405   2.335   3.965   1.191
 2135SOL     OW 6406   2.879   3.763   0.753
 2135SOL    HW1 6407   2.807   3.768   0.684
 2135SOL    HW2 6408   2.855   3.694   0.822
 2136SOL     OW 6409   3.328   4.314   0.992
 2136SOL    HW1 6410   3.298   4.219   0.999
 2136SOL    HW2 6411   3.401   4.330   1.058
 2137SOL     OW 6412   2.389   3.980   0.328
 2137SOL    HW1 6413   2.416   3.921   0.253
 2137SOL    HW2 6414   2.389   4.075   0.297
 2138SOL     OW 6415   2.777   3.813   1.402
 2138SOL    HW1 6416   2.802   3.793   1.307
 2138SOL    HW2 6417   2.849   3.869   1.444
 2139SOL     OW 6418   3.136   4.110   1.262
 2139SOL    HW1 6419   3.157   4.184   1.326
 2139SOL    HW2 6420   3.047   4.127   1.219
 2140SOL     OW 6421   2.428   4.261   0.865
 2140SOL    HW1 6422   2.440   4.327   0.791
 2140SOL    HW2 6423   2.474   4.295   0.948
 2141SOL     OW 6424   2.875   3.829   1.770
 2141SOL    HW1 6425   2.881   3.914   1.718
 2141SOL    HW2 6426   2.907   3.753   1.713
 2142SOL     OW 6427   2.366   3.774   1.740
 2142SOL    HW1 6428   2.324   3.717   1.670
 2142SOL    HW2 6429   2.300   3.843   1.772
 2143SOL     OW 6430   2.169   3.937   1.231
 2143SOL    HW1 6431   2.146   3.974   1.321
 2143SOL    HW2 6432   2.139   3.842   1.225
 2144SOL     OW 6433   2.594   4.358   1.064
 2144SOL    HW1 6434   2.653   4.332   0.988
 2144SOL    HW2 6435   2.566   4.454   1.053
 2145SOL     OW 6436   2.169   3.787   0.618
 2145SOL    HW1 6437   2.158   3.881   0.651
 2145SOL    HW2 6438   2.164   3.724   0.695
 2146SOL     OW 6439   3.484   4.091   0.374
 2146SOL    HW1 6440   3.486   4.015   0.438
 2146SOL    HW2 6441   3.436   4.168   0.414
 2147SOL     OW 6442   3.402   3.998   0.125
 2147SOL    HW1 6443   3.341   3.923   0.148
 2147SOL    HW2 6444   3.424   4.050   0.208
 2148SOL     OW 6445   2.201   4.233   1.006
 2148SOL    HW1 6446   2.149   4.150   0.989
 2148SOL    HW2 6447   2.278   4.238   0.942
 2149SOL     OW 6448   3.000   4.104   1.678
 2149SOL    HW1 6449   2.955   4.167   1.742
 2149SOL    HW2 6450   3.093   4.135   1.661
 2150SOL     OW 6451   3.022   3.931   1.477
 2150SOL    HW1 6452   3.022   3.995   1.554
 2150SOL    HW2 6453   3.050   3.979   1.394
 2151SOL     OW 6454   1.902   4.268   1.114
 2151SOL    HW1 6455   1.987   4.235   1.073
 2151SOL    HW2 6456   1.915   4.283   1.212
 2152SOL     OW 6457   2.051   4.244   1.722
 2152SOL    HW1 6458   2.110   4.204   1.652
 2152SOL    HW2 6459   1.993   4.315   1.681
 2153SOL     OW 6460   2.677   4.296   0.325
 2153SOL    HW1 6461   2.684   4.207   0.279
 2153SOL    HW2 6462   2.583   4.330   0.317
 2154SOL     OW 6463   3.519   4.328   1.206
 2154SOL    HW1 6464   3.481   4.259   1.268
 2154SOL    HW2 6465   3.601   4.292   1.162
 2155SOL     OW 6466   2.533   4.188   1.269
 2155SOL    HW1 6467   2.499   4.099   1.239
 2155SOL    HW2 6468   2.559   4.242   1.189
 2156SOL     OW 6469   2.765   3.810   0.133
 2156SOL    HW1 6470   2.816   3.811   0.047
 2156SOL    HW2 6471   2.821   3.768   0.204
 2157SOL     OW 6472   3.588   3.859   0.523
 2157SOL    HW1 6473   3.661   3.842   0.456
 2157SOL    HW2 6474   3.557   3.772   0.561
 2158SOL     OW 6475   3.703   3.899   0.963
 2158SOL    HW1 6476   3.742   3.814   0.927
 2158SOL    HW2 6477   3.605   3.901   0.944
 2159SOL     OW 6478   2.125   4.050   0.720
 2159SOL    HW1 6479   2.046   4.101   0.686
 2159SOL    HW2 6480   2.116   4.035   0.818
 2160SOL     OW 6481   2.876   3.960   0.971
 2160SOL    HW1 6482   2.868   3.924   0.878
 2160SOL    HW2 6483   2.874   3.884   1.036
 2161SOL     OW 6484   3.571   4.109   1.381
 2161SOL    HW1 6485   3.644   4.178   1.385
 2161SOL    HW2 6486   3.599   4.034   1.322
 2162SOL     OW 6487   2.534   3.927   1.489
 2162SOL    HW1 6488   2.624   3.911   1.449
 2162SOL    HW2 6489   2.542   3.932   1.588
 2163SOL     OW 6490   1.937   4.069   0.033
 2163SOL    HW1 6491   1.845   4.041   0.004
 2163SOL    HW2 6492   1.968   4.146  -0.023
 2164SOL     OW 6493   1.934   3.890   0.318
 2164SOL    HW1 6494   1.917   3.973   0.264
 2164SOL    HW2 6495   2.024   3.853   0.296
 2165SOL     OW 6496   2.578   4.289   1.708
 2165SOL    HW1 6497   2.597   4.354   1.782
 2165SOL    HW2 6498   2.638   4.209   1.717
 2166SOL     OW 6499   3.087   4.049   0.449
 2166SOL    HW1 6500   3.152   3.975   0.438
 2166SOL    HW2 6501   3.107   4.099   0.533
 2167SOL     OW 6502   3.639   4.066   1.642
 2167SOL    HW1 6503   3.622   4.097   1.548
 2167SOL    HW2 6504   3.555   4.029   1.680
 2168SOL     OW 6505   3.686   3.916   1.227
 2168SOL    HW1 6506   3.682   3.826   1.271
 2168SOL    HW2 6507   3.689   3.905   1.128
 2169SOL     OW 6508   2.290   4.148   0.520
 2169SOL    HW1 6509   2.320   4.076   0.458
 2169SOL    HW2 6510   2.251   4.108   0.603
 2170SOL     OW 6511   2.179   4.271   1.280
 2170SOL    HW1 6512   2.217   4.212   1.352
 2170SOL    HW2 6513   2.219   4.245   1.192
 2171SOL     OW 6514   3.286   3.938   1.112
 2171SOL    HW1 6515   3.338   3.873   1.167
 2171SOL    HW2 6516   3.237   4.001   1.173
 2172SOL     OW 6517   2.863   3.758   1.154
 2172SOL    HW1 6518   2.800   3.686   1.123
 2172SOL    HW2 6519   2.956   3.722   1.154
 2173SOL     OW 6520   3.214   3.776   0.168
 2173SOL    HW1 6521   3.249   3.735   0.084
 2173SOL    HW2 6522   3.124   3.738   0.188
 2174SOL     OW 6523   3.162   4.177   0.691
 2174SOL    HW1 6524   3.103   4.257   0.695
 2174SOL    HW2 6525   3.177   4.142   0.784
 2175SOL     OW 6526   3.455   3.945   0.882
 2175SOL    HW1 6527   3.371   3.944   0.936
 2175SOL    HW2 6528   3.457   4.028   0.826
 2176SOL     OW 6529   2.087   3.999   2.858
 2176SOL    HW1 6530   2.122   3.982   2.950
 2176SOL    HW2 6531   1.999   3.954   2.846
 2177SOL     OW 6532   1.881   4.092   2.509
 2177SOL    HW1 6533   1.799   4.135   2.548
 2177SOL    HW2 6534   1.853   4.019   2.446
 2178SOL     OW 6535   3.617   4.331   2.093
 2178SOL    HW1 6536   3.605   4.318   1.994
 2178SOL    HW2 6537   3.587   4.250   2.142
 2179SOL     OW 6538   2.300   4.116   3.361
 2179SOL    HW1 6539   2.382   4.060   3.370
 2179SOL    HW2 6540   2.219   4.058   3.365
 2180SOL     OW 6541   3.465   4.171   2.599
 2180SOL    HW1 6542   3.391   4.217   2.549
 2180SOL    HW2 6543   3.516   4.239   2.652
 2181SOL     OW 6544   3.456   3.838   3.342
 2181SOL    HW1 6545   3.438   3.905   3.270
 2181SOL    HW2 6546   3.453   3.884   3.431
 2182SOL     OW 6547   1.984   4.367   2.425
 2182SOL    HW1 6548   1.939   4.279   2.442
 2182SOL    HW2 6549   1.983   4.421   2.509
 2183SOL     OW 6550   2.671   3.728   2.364
 2183SOL    HW1 6551   2.711   3.819   2.355
 2183SOL    HW2 6552   2.571   3.736   2.370
 2184SOL     OW 6553   2.179   3.975   3.663
 2184SOL    HW1 6554   2.250   4.046   3.669
 2184SOL    HW2 6555   2.091   4.014   3.691
 2185SOL     OW 6556   3.143   4.069   2.806
 2185SOL    HW1 6557   3.057   4.019   2.793
 2185SOL    HW2 6558   3.205   4.015   2.862
 2186SOL     OW 6559   3.256   4.193   3.536
 2186SOL    HW1 6560   3.236   4.236   3.624
 2186SOL    HW2 6561   3.334   4.131   3.545
 2187SOL     OW 6562   2.853   4.134   3.104
 2187SOL    HW1 6563   2.776   4.168   3.158
 2187SOL    HW2 6564   2.819   4.083   3.025
 2188SOL     OW 6565   1.938   4.535   2.651
 2188SOL    HW1 6566   2.037   4.523   2.660
 2188SOL    HW2 6567   1.914   4.630   2.672
 2189SOL     OW 6568   2.727   4.072   2.057
 2189SOL    HW1 6569   2.786   4.135   2.008
 2189SOL    HW2 6570   2.746   3.978   2.028
 2190SOL     OW 6571   3.581   4.309   3.693
 2190SOL    HW1 6572   3.555   4.398   3.657
 2190SOL    HW2 6573   3.579   4.241   3.620
 2191SOL     OW 6574   2.412   3.920   2.747
 2191SOL    HW1 6575   2.407   3.915   2.847
 2191SOL    HW2 6576   2.414   4.016   2.718
 2192SOL     OW 6577   3.320   4.459   2.590
 2192SOL    HW1 6578   3.315   4.394   2.665
 2192SOL    HW2 6579   3.400   4.518   2.603
 2193SOL     OW 6580   2.064   4.009   3.360
 2193SOL    HW1 6581   1.984   4.069   3.347
 2193SOL    HW2 6582   2.054   3.960   3.446
 2194SOL     OW 6583   3.262   3.831   2.288
 2194SOL    HW1 6584   3.238   3.794   2.198
 2194SOL    HW2 6585   3.361   3.847   2.292
 2195SOL     OW 6586   3.409   3.946   3.591
 2195SOL    HW1 6587   3.404   3.983   3.683
 2195SOL    HW2 6588   3.337   3.877   3.579
 2196SOL     OW 6589   2.476   3.846   1.979
 2196SOL    HW1 6590   2.574   3.824   1.986
 2196SOL    HW2 6591   2.445   3.829   1.886
 2197SOL     OW 6592   2.643   3.988   3.611
 2197SOL    HW1 6593   2.710   3.927   3.654
 2197SOL    HW2 6594   2.570   4.007   3.676
 2198SOL     OW 6595   3.213   4.314   3.295
 2198SOL    HW1 6596   3.241   4.271   3.380
 2198SOL    HW2 6597   3.238   4.410   3.296
 2199SOL     OW 6598   2.401   3.788   2.374
 2199SOL    HW1 6599   2.320   3.789   2.432
 2199SOL    HW2 6600   2.404   3.871   2.319
 2200SOL     OW 6601   2.159   3.759   2.033
 2200SOL    HW1 6602   2.208   3.843   2.012
 2200SOL    HW2 6603   2.221   3.694   2.078
 2201SOL     OW 6604   2.797   3.960   2.342
 2201SOL    HW1 6605   2.749   4.001   2.264
 2201SOL    HW2 6606   2.896   3.958   2.323
 2202SOL     OW 6607   1.940   4.280   3.248
 2202SOL    HW1 6608   2.032   4.279   3.207
 2202SOL    HW2 6609   1.934   4.354   3.315
 2203SOL     OW 6610   2.423   3.946   3.009
 2203SOL    HW1 6611   2.461   3.862   3.046
 2203SOL    HW2 6612   2.335   3.965   3.053
 2204SOL     OW 6613   2.879   3.763   2.615
 2204SOL    HW1 6614   2.807   3.768   2.546
 2204SOL    HW2 6615   2.855   3.694   2.684
 2205SOL     OW 6616   3.328   4.314   2.854
 2205SOL    HW1 6617   3.298   4.219   2.861
 2205SOL    HW2 6618   3.401   4.330   2.920
 2206SOL     OW 6619   2.389   3.980   2.190
 2206SOL    HW1 6620   2.416   3.921   2.115
 2206SOL    HW2 6621   2.389   4.075   2.159
 2207SOL     OW 6622   2.777   3.813   3.264
 2207SOL    HW1 6623   2.802   3.793   3.169
 2207SOL    HW2 6624   2.849   3.869   3.306
 2208SOL     OW 6625   3.136   4.110   3.124
 2208SOL    HW1 6626   3.157   4.184   3.188
 2208SOL    HW2 6627   3.047   4.127   3.081
 2209SOL     OW 6628   2.428   4.261   2.727
 2209SOL    HW1 6629   2.440   4.327   2.653
 2209SOL    HW2 6630   2.474   4.295   2.810
 2210SOL     OW 6631   2.875   3.829   3.632
 2210SOL    HW1 6632   2.881   3.914   3.580
 2210SOL    HW2 6633   2.907   3.753   3.575
 2211SOL     OW 6634   2.366   3.774   3.602
 2211SOL    HW1 6635   2.324   3.717   3.532
 2211SOL    HW2 6636   2.300   3.843   3.634
 2212SOL     OW 6637   2.169   3.937   3.093
 2212SOL    HW1 6638   2.146   3.974   3.183
 2212SOL    HW2 6639   2.139   3.842   3.087
 2213SOL     OW 6640   2.594   4.358   2.926
 2213SOL    HW1 6641   2.653   4.332   2.850
 2213SOL    HW2 6642   2.566   4.454   2.915
 2214SOL     OW 6643   2.169   3.787   2.480
 2214SOL    HW1 6644   2.158   3.881   2.513
 2214SOL    HW2 6645   2.164   3.724   2.557
 2215SOL     OW 6646   3.484   4.091   2.236
 2215SOL    HW1 6647   3.486   4.015   2.300
 2215SOL    HW2 6648   3.436   4.168   2.276
 2216SOL     OW 6649   3.402   3.998   1.987
 2216SOL    HW1 6650   3.341   3.923   2.010
 2216SOL    HW2 6651   3.424   4.050   2.070
 2217SOL     OW 6652   2.201   4.233   2.868
 2217SOL    HW1 6653   2.149   4.150   2.851
 2217SOL    HW2 6654   2.278   4.238   2.804
 2218SOL     OW 6655   3.000   4.104   3.540
 2218SOL    HW1 6656   2.955   4.167   3.604
 2218SOL    HW2 6657   3.093   4.135   3.523
 2219SOL     OW 6658   3.022   3.931   3.339
 2219SOL    HW1 6659   3.022   3.995   3.416
 2219SOL    HW2 6660   3.050   3.979   3.256
 2220SOL     OW 6661   1.902   4.268   2.976
 2220SOL    HW1 6662   1.987   4.235   2.935
 2220SOL    HW2 6663   1.915   4.283   3.074
 2221SOL     OW 6664   2.051   4.244   3.584
 2221SOL    HW1 6665   2.110   4.204   3.514
 2221SOL    HW2 6666   1.993   4.315   3.543
 2222SOL     OW 6667   2.677   4.296   2.187
 2222SOL    HW1 6668   2.684   4.207   2.141
 2222SOL    HW2 6669   2.583   4.330   2.179
 2223SOL     OW 6670   3.519   4.328   3.068
 2223SOL    HW1 6671   3.481   4.259   3.130
 2223SOL    HW2 6672   3.601   4.292   3.024
 2224SOL     OW 6673   2.533   4.188   3.131
 2224SOL    HW1 6674   2.499   4.099   3.101
 2224SOL    HW2 6675   2.559   4.242   3.051
 2225SOL     OW 6676   3.588   3.859   2.385
 2225SOL    HW1 6677   3.661   3.842   2.318
 2225SOL    HW2 6678   3.557   3.772   2.423
 2226SOL     OW 6679   3.703   3.899   2.825
 2226SOL    HW1 6680   3.742   3.814   2.789
 2226SOL    HW2 6681   3.605   3.901   2.806
 2227SOL     OW 6682   2.125   4.050   2.582
 2227SOL    HW1 6683   2.046   4.101   2.548
 2227SOL    HW2 6684   2.116   4.035   2.680
 2228SOL     OW 6685   2.876   3.960   2.833
 2228SOL    HW1 6686   2.868   3.924   2.740
 2228SOL    HW2 6687   2.874   3.884   2.898
 2229SOL     OW 6688   3.571   4.109   3.243
 2229SOL    HW1 6689   3.644   4.178   3.247
 2229SOL    HW2 6690   3.599   4.034   3.184
 2230SOL     OW 6691   2.534   3.927   3.351
 2230SOL    HW1 6692   2.624   3.911   3.311
 2230SOL    HW2 6693   2.542   3.932   3.450
 2231SOL     OW 6694   1.937   4.069   1.895
 2231SOL    HW1 6695   1.845   4.041   1.866
 2231SOL    HW2 6696   1.968   4.146   1.839
 2232SOL     OW 6697   1.934   3.890   2.180
 2232SOL    HW1 6698   1.917   3.973   2.126
 2232SOL    HW2 6699   2.024   3.853   2.158
 2233SOL     OW 6700   2.578   4.289   3.570
 2233SOL    HW1 6701   2.597   4.354   3.644
 2233SOL    HW2 6702   2.638   4.209   3.579
 2234SOL     OW 6703   3.087   4.049   2.311
 2234SOL    HW1 6704   3.152   3.975   2.300
 2234SOL    HW2 6705   3.107   4.099   2.395
 2235SOL     OW 6706   3.639   4.066   3.504
 2235SOL    HW1 6707   3.622   4.097   3.410
 2235SOL    HW2 6708   3.555   4.029   3.542
 2236SOL     OW 6709   3.686   3.916   3.089
 2236SOL    HW1 6710   3.682   3.826   3.133
 2236SOL    HW2 6711   3.689   3.905   2.990
 2237SOL     OW 6712   2.290   4.148   2.382
 2237SOL    HW1 6713   2.320   4.076   2.320
 2237SOL    HW2 6714   2.251   4.108   2.465
 2238SOL     OW 6715   2.179   4.271   3.142
 2238SOL    HW1 6716   2.217   4.212   3.214
 2238SOL    HW2 6717   2.219   4.245   3.054
 2239SOL     OW 6718   3.286   3.938   2.974
 2239SOL    HW1 6719   3.338   3.873   3.029
 2239SOL    HW2 6720   3.237   4.001   3.035
 2240SOL     OW 6721   2.863   3.758   3.016
 2240SOL    HW1 6722   2.800   3.686   2.985
 2240SOL    HW2 6723   2.956   3.722   3.016
 2241SOL     OW 6724   3.214   3.776   2.030
 2241SOL    HW1 6725   3.249   3.735   1.946
 2241SOL    HW2 6726   3.124   3.738   2.050
 2242SOL     OW 6727   3.162   4.177   2.553
 2242SOL    HW1 6728   3.103   4.257   2.557
 2242SOL    HW2 6729   3.177   4.142   2.646
 2243SOL     OW 6730   3.455   3.945   2.744
 2243SOL    HW1 6731   3.371   3.944   2.798
 2243SOL    HW2 6732   3.457   4.028   2.688
 2244SOL     OW 6733   2.997   4.427   4.441
 2244SOL    HW1 6734   3.054   4.505   4.416
 2244SOL    HW2 6735   2.937   4.453   4.517
 2245SOL     OW 6736   3.617   4.331   3.955
 2245SOL    HW1 6737   3.605   4.318   3.856
 2245SOL    HW2 6738   3.587   4.250   4.004
 2246SOL     OW 6739   2.671   3.728   4.226
 2246SOL    HW1 6740   2.711   3.819   4.217
 2246SOL    HW2 6741   2.571   3.736   4.232
 2247SOL     OW 6742   2.727   4.072   3.919
 2247SOL    HW1 6743   2.786   4.135   3.870
 2247SOL    HW2 6744   2.746   3.978   3.890
 2248SOL     OW 6745   3.262   3.831   4.150
 2248SOL    HW1 6746   3.238   3.794   4.060
 2248SOL    HW2 6747   3.361   3.847   4.154
 2249SOL     OW 6748   2.244   4.424   4.204
 2249SOL    HW1 6749   2.289   4.334   4.201
 2249SOL    HW2 6750   2.150   4.413   4.237
 2250SOL     OW 6751   2.476   3.846   3.841
 2250SOL    HW1 6752   2.574   3.824   3.848
 2250SOL    HW2 6753   2.445   3.829   3.748
 2251SOL     OW 6754   2.159   3.759   3.895
 2251SOL    HW1 6755   2.208   3.843   3.874
 2251SOL    HW2 6756   2.221   3.694   3.940
 2252SOL     OW 6757   2.797   3.960   4.204
 2252SOL    HW1 6758   2.749   4.001   4.126
 2252SOL    HW2 6759   2.896   3.958   4.185
 2253SOL     OW 6760   2.389   3.980   4.052
 2253SOL    HW1 6761   2.416   3.921   3.977
 2253SOL    HW2 6762   2.389   4.075   4.021
 2254SOL     OW 6763   3.484   4.091   4.098
 2254SOL    HW1 6764   3.486   4.015   4.162
 2254SOL    HW2 6765   3.436   4.168   4.138
 2255SOL     OW 6766   3.402   3.998   3.849
 2255SOL    HW1 6767   3.341   3.923   3.872
 2255SOL    HW2 6768   3.424   4.050   3.932
 2256SOL     OW 6769   2.677   4.296   4.049
 2256SOL    HW1 6770   2.684   4.207   4.003
 2256SOL    HW2 6771   2.583   4.330   4.041
 2257SOL     OW 6772   3.588   3.859   4.247
 2257SOL    HW1 6773   3.661   3.842   4.180
 2257SOL    HW2 6774   3.557   3.772   4.285
 2258SOL     OW 6775   1.937   4.069   3.757
 2258SOL    HW1 6776   1.845   4.041   3.728
 2258SOL    HW2 6777   1.968   4.146   3.701
 2259SOL     OW 6778   1.934   3.890   4.042
 2259SOL    HW1 6779   1.917   3.973   3.988
 2259SOL    HW2 6780   2.024   3.853   4.020
 2260SOL     OW 6781   3.087   4.049   4.173
 2260SOL    HW1 6782   3.152   3.975   4.162
 2260SOL    HW2 6783   3.107   4.099   4.257
 2261SOL     OW 6784   2.290   4.148   4.244
 2261SOL    HW1 6785   2.320   4.076   4.182
 2261SOL    HW2 6786   2.251   4.108   4.327
 2262SOL     OW 6787   3.214   3.776   3.892
 2262SOL    HW1 6788   3.249   3.735   3.808
 2262SOL    HW2 6789   3.124   3.738   3.912
 2263SOL     OW 6790   3.954   0.628   0.113
 2263SOL    HW1 6791   3.861   0.626   0.150
 2263SOL    HW2 6792   3.955   0.589   0.021
 2264SOL     OW 6793   3.949   0.275   0.996
 2264SOL    HW1 6794   3.984   0.258   1.088
 2264SOL    HW2 6795   3.861   0.230   0.984
 2265SOL     OW 6796   3.743   0.368   0.647
 2265SOL    HW1 6797   3.661   0.411   0.686
 2265SOL    HW2 6798   3.715   0.295   0.584
 2266SOL     OW 6799   4.409   1.012   0.665
 2266SOL    HW1 6800   4.478   0.996   0.735
 2266SOL    HW2 6801   4.336   1.069   0.703
 2267SOL     OW 6802   4.059   1.435   1.061
 2267SOL    HW1 6803   3.981   1.404   1.008
 2267SOL    HW2 6804   4.117   1.493   1.004
 2268SOL     OW 6805   4.162   0.392   1.499
 2268SOL    HW1 6806   4.244   0.336   1.508
 2268SOL    HW2 6807   4.081   0.334   1.503
 2269SOL     OW 6808   3.955   1.713   0.483
 2269SOL    HW1 6809   3.989   1.790   0.537
 2269SOL    HW2 6810   3.999   1.713   0.393
 2270SOL     OW 6811   3.954   1.434   0.538
 2270SOL    HW1 6812   3.928   1.530   0.538
 2270SOL    HW2 6813   3.883   1.380   0.583
 2271SOL     OW 6814   3.964   1.091   0.886
 2271SOL    HW1 6815   3.978   1.007   0.938
 2271SOL    HW2 6816   3.909   1.155   0.941
 2272SOL     OW 6817   3.846   0.643   0.563
 2272SOL    HW1 6818   3.801   0.555   0.580
 2272SOL    HW2 6819   3.845   0.697   0.647
 2273SOL     OW 6820   3.751   1.596   0.117
 2273SOL    HW1 6821   3.732   1.500   0.138
 2273SOL    HW2 6822   3.718   1.654   0.192
 2274SOL     OW 6823   3.837   0.737   1.597
 2274SOL    HW1 6824   3.925   0.724   1.642
 2274SOL    HW2 6825   3.824   0.834   1.575
 2275SOL     OW 6826   3.921   0.976   1.264
 2275SOL    HW1 6827   4.010   0.931   1.250
 2275SOL    HW2 6828   3.848   0.911   1.245
 2276SOL     OW 6829   4.041   0.251   1.801
 2276SOL    HW1 6830   4.112   0.322   1.807
 2276SOL    HW2 6831   3.953   0.290   1.829
 2277SOL     OW 6832   4.322   0.729   0.270
 2277SOL    HW1 6833   4.346   0.798   0.202
 2277SOL    HW2 6834   4.244   0.762   0.324
 2278SOL     OW 6835   3.800   0.811   0.789
 2278SOL    HW1 6836   3.899   0.799   0.798
 2278SOL    HW2 6837   3.776   0.906   0.810
 2279SOL     OW 6838   3.854   1.821   1.571
 2279SOL    HW1 6839   3.844   1.806   1.670
 2279SOL    HW2 6840   3.768   1.857   1.535
 2280SOL     OW 6841   4.589   0.348   0.195
 2280SOL    HW1 6842   4.648   0.411   0.146
 2280SOL    HW2 6843   4.608   0.254   0.166
 2281SOL     OW 6844   4.075   1.801   0.853
 2281SOL    HW1 6845   4.125   1.715   0.859
 2281SOL    HW2 6846   4.140   1.878   0.850
 2282SOL     OW 6847   4.045   0.943   0.242
 2282SOL    HW1 6848   4.127   0.982   0.200
 2282SOL    HW2 6849   4.018   0.861   0.193
 2283SOL     OW 6850   4.185   1.266   1.727
 2283SOL    HW1 6851   4.135   1.267   1.641
 2283SOL    HW2 6852   4.122   1.248   1.803
 2284SOL     OW 6853   3.926   0.285   1.498
 2284SOL    HW1 6854   3.846   0.345   1.485
 2284SOL    HW2 6855   3.916   0.236   1.584
 2285SOL     OW 6856   3.973   1.785   1.241
 2285SOL    HW1 6857   4.030   1.720   1.291
 2285SOL    HW2 6858   3.957   1.752   1.148
 2286SOL     OW 6859   4.106   0.700   0.480
 2286SOL    HW1 6860   4.151   0.610   0.477
 2286SOL    HW2 6861   4.012   0.689   0.513
 2287SOL     OW 6862   4.338   0.122   0.117
 2287SOL    HW1 6863   4.436   0.100   0.124
 2287SOL    HW2 6864   4.307   0.105   0.024
 2288SOL     OW 6865   4.263   0.064   0.512
 2288SOL    HW1 6866   4.182   0.065   0.570
 2288SOL    HW2 6867   4.266   0.147   0.457
 2289SOL     OW 6868   4.021   0.035   0.171
 2289SOL    HW1 6869   4.070   0.119   0.150
 2289SOL    HW2 6870   4.083  -0.030   0.216
 2290SOL     OW 6871   4.183   1.152   0.741
 2290SOL    HW1 6872   4.112   1.125   0.806
 2290SOL    HW2 6873   4.157   1.124   0.648
 2291SOL     OW 6874   3.802   0.556   1.386
 2291SOL    HW1 6875   3.894   0.555   1.345
 2291SOL    HW2 6876   3.796   0.630   1.453
 2292SOL     OW 6877   4.285   0.222   1.147
 2292SOL    HW1 6878   4.323   0.138   1.184
 2292SOL    HW2 6879   4.197   0.241   1.191
 2293SOL     OW 6880   4.134   0.813   1.251
 2293SOL    HW1 6881   4.220   0.825   1.301
 2293SOL    HW2 6882   4.092   0.726   1.278
 2294SOL     OW 6883   3.788   1.564   1.331
 2294SOL    HW1 6884   3.742   1.646   1.297
 2294SOL    HW2 6885   3.886   1.583   1.340
 2295SOL     OW 6886   4.091   1.100   0.501
 2295SOL    HW1 6887   4.084   1.183   0.445
 2295SOL    HW2 6888   4.095   1.020   0.441
 2296SOL     OW 6889   4.290   0.537   0.865
 2296SOL    HW1 6890   4.302   0.603   0.791
 2296SOL    HW2 6891   4.336   0.571   0.948
 2297SOL     OW 6892   4.078   1.510   1.329
 2297SOL    HW1 6893   4.057   1.466   1.242
 2297SOL    HW2 6894   4.175   1.536   1.332
 2298SOL     OW 6895   4.126   0.751   1.598
 2298SOL    HW1 6896   4.194   0.806   1.551
 2298SOL    HW2 6897   4.166   0.663   1.625
 2299SOL     OW 6898   4.228   0.050   1.740
 2299SOL    HW1 6899   4.186  -0.007   1.670
 2299SOL    HW2 6900   4.162   0.119   1.772
 2300SOL     OW 6901   4.297   0.870   1.029
 2300SOL    HW1 6902   4.341   0.959   1.020
 2300SOL    HW2 6903   4.234   0.870   1.106
 2301SOL     OW 6904   4.031   0.213   1.231
 2301SOL    HW1 6905   4.008   0.250   1.321
 2301SOL    HW2 6906   4.001   0.118   1.225
 2302SOL     OW 6907   3.761   1.310   1.282
 2302SOL    HW1 6908   3.814   1.261   1.350
 2302SOL    HW2 6909   3.783   1.408   1.287
 2303SOL     OW 6910   4.031   0.063   0.618
 2303SOL    HW1 6911   4.020   0.157   0.651
 2303SOL    HW2 6912   4.026   0.000   0.695
 2304SOL     OW 6913   4.074   0.898   1.804
 2304SOL    HW1 6914   4.150   0.942   1.852
 2304SOL    HW2 6915   4.109   0.851   1.722
 2305SOL     OW 6916   4.043   0.810   0.949
 2305SOL    HW1 6917   4.136   0.846   0.954
 2305SOL    HW2 6918   4.037   0.725   1.001
 2306SOL     OW 6919   4.063   0.509   1.006
 2306SOL    HW1 6920   4.011   0.426   0.989
 2306SOL    HW2 6921   4.140   0.514   0.942
 2307SOL     OW 6922   3.732   1.326   0.200
 2307SOL    HW1 6923   3.639   1.347   0.169
 2307SOL    HW2 6924   3.742   1.227   0.213
 2308SOL     OW 6925   3.812   1.801   0.927
 2308SOL    HW1 6926   3.770   1.715   0.900
 2308SOL    HW2 6927   3.906   1.804   0.893
 2309SOL     OW 6928   3.764   0.544   1.114
 2309SOL    HW1 6929   3.849   0.511   1.073
 2309SOL    HW2 6930   3.777   0.559   1.212
 2310SOL     OW 6931   3.913   0.520   1.722
 2310SOL    HW1 6932   3.972   0.480   1.652
 2310SOL    HW2 6933   3.855   0.591   1.681
 2311SOL     OW 6934   4.539   0.572   0.325
 2311SOL    HW1 6935   4.546   0.483   0.279
 2311SOL    HW2 6936   4.445   0.606   0.317
 2312SOL     OW 6937   3.976   1.564   1.744
 2312SOL    HW1 6938   3.946   1.621   1.820
 2312SOL    HW2 6939   3.969   1.467   1.770
 2313SOL     OW 6940   4.197   0.500   0.191
 2313SOL    HW1 6941   4.258   0.580   0.195
 2313SOL    HW2 6942   4.102   0.531   0.198
 2314SOL     OW 6943   3.883   1.137   1.466
 2314SOL    HW1 6944   3.905   1.076   1.542
 2314SOL    HW2 6945   3.893   1.088   1.380
 2315SOL     OW 6946   3.807   1.258   1.022
 2315SOL    HW1 6947   3.802   1.257   1.122
 2315SOL    HW2 6948   3.724   1.217   0.984
 2316SOL     OW 6949   3.854   1.794   1.851
 2316SOL    HW1 6950   3.813   1.720   1.904
 2316SOL    HW2 6951   3.918   1.845   1.909
 2317SOL     OW 6952   3.987   0.326   0.720
 2317SOL    HW1 6953   3.908   0.377   0.686
 2317SOL    HW2 6954   3.978   0.311   0.818
 2318SOL     OW 6955   4.096   1.288   1.490
 2318SOL    HW1 6956   4.083   1.381   1.456
 2318SOL    HW2 6957   4.012   1.236   1.477
 2319SOL     OW 6958   4.314   1.487   0.491
 2319SOL    HW1 6959   4.356   1.429   0.421
 2319SOL    HW2 6960   4.270   1.566   0.447
 2320SOL     OW 6961   3.979   1.348   0.290
 2320SOL    HW1 6962   3.883   1.349   0.263
 2320SOL    HW2 6963   3.991   1.401   0.374
 2321SOL     OW 6964   3.829   1.013   1.726
 2321SOL    HW1 6965   3.752   0.980   1.780
 2321SOL    HW2 6966   3.914   0.983   1.768
 2322SOL     OW 6967   3.799   0.345   0.033
 2322SOL    HW1 6968   3.707   0.317   0.004
 2322SOL    HW2 6969   3.830   0.422  -0.023
 2323SOL     OW 6970   3.796   0.166   0.318
 2323SOL    HW1 6971   3.779   0.249   0.264
 2323SOL    HW2 6972   3.886   0.129   0.296
 2324SOL     OW 6973   4.114   1.741   1.560
 2324SOL    HW1 6974   4.023   1.782   1.558
 2324SOL    HW2 6975   4.107   1.647   1.592
 2325SOL     OW 6976   3.945   1.314   1.844
 2325SOL    HW1 6977   3.880   1.241   1.823
 2325SOL    HW2 6978   3.949   1.328   1.942
 2326SOL     OW 6979   3.803   1.240   0.653
 2326SOL    HW1 6980   3.802   1.193   0.741
 2326SOL    HW2 6981   3.885   1.212   0.602
 2327SOL     OW 6982   4.396   1.391   1.624
 2327SOL    HW1 6983   4.318   1.341   1.662
 2327SOL    HW2 6984   4.393   1.486   1.655
 2328SOL     OW 6985   4.152   0.424   0.520
 2328SOL    HW1 6986   4.182   0.352   0.458
 2328SOL    HW2 6987   4.113   0.384   0.603
 2329SOL     OW 6988   4.041   0.547   1.280
 2329SOL    HW1 6989   4.079   0.488   1.352
 2329SOL    HW2 6990   4.081   0.521   1.192
 2330SOL     OW 6991   3.763   1.077   0.300
 2330SOL    HW1 6992   3.862   1.066   0.291
 2330SOL    HW2 6993   3.723   0.991   0.332
 2331SOL     OW 6994   3.954   0.628   1.975
 2331SOL    HW1 6995   3.861   0.626   2.012
 2331SOL    HW2 6996   3.955   0.589   1.883
 2332SOL     OW 6997   3.949   0.275   2.858
 2332SOL    HW1 6998   3.984   0.258   2.950
 2332SOL    HW2 6999   3.861   0.230   2.846
 2333SOL     OW 7000   3.743   0.368   2.509
 2333SOL    HW1 7001   3.661   0.411   2.548
 2333SOL    HW2 7002   3.715   0.295   2.446
 2334SOL     OW 7003   4.409   1.012   2.527
 2334SOL    HW1 7004   4.478   0.996   2.597
 2334SOL    HW2 7005   4.336   1.069   2.565
 2335SOL     OW 7006   4.059   1.435   2.923
 2335SOL    HW1 7007   3.981   1.404   2.870
 2335SOL    HW2 7008   4.117   1.493   2.866
 2336SOL     OW 7009   4.162   0.392   3.361
 2336SOL    HW1 7010   4.244   0.336   3.370
 2336SOL    HW2 7011   4.081   0.334   3.365
 2337SOL     OW 7012   3.955   1.713   2.345
 2337SOL    HW1 7013   3.989   1.790   2.399
 2337SOL    HW2 7014   3.999   1.713   2.255
 2338SOL     OW 7015   3.954   1.434   2.400
 2338SOL    HW1 7016   3.928   1.530   2.400
 2338SOL    HW2 7017   3.883   1.380   2.445
 2339SOL     OW 7018   3.964   1.091   2.748
 2339SOL    HW1 7019   3.978   1.007   2.800
 2339SOL    HW2 7020   3.909   1.155   2.803
 2340SOL     OW 7021   3.846   0.643   2.425
 2340SOL    HW1 7022   3.801   0.555   2.442
 2340SOL    HW2 7023   3.845   0.697   2.509
 2341SOL     OW 7024   3.751   1.596   1.979
 2341SOL    HW1 7025   3.732   1.500   2.000
 2341SOL    HW2 7026   3.718   1.654   2.054
 2342SOL     OW 7027   3.837   0.737   3.459
 2342SOL    HW1 7028   3.925   0.724   3.504
 2342SOL    HW2 7029   3.824   0.834   3.437
 2343SOL     OW 7030   3.921   0.976   3.126
 2343SOL    HW1 7031   4.010   0.931   3.112
 2343SOL    HW2 7032   3.848   0.911   3.107
 2344SOL     OW 7033   4.041   0.251   3.663
 2344SOL    HW1 7034   4.112   0.322   3.669
 2344SOL    HW2 7035   3.953   0.290   3.691
 2345SOL     OW 7036   4.322   0.729   2.132
 2345SOL    HW1 7037   4.346   0.798   2.064
 2345SOL    HW2 7038   4.244   0.762   2.186
 2346SOL     OW 7039   3.800   0.811   2.651
 2346SOL    HW1 7040   3.899   0.799   2.660
 2346SOL    HW2 7041   3.776   0.906   2.672
 2347SOL     OW 7042   3.854   1.821   3.433
 2347SOL    HW1 7043   3.844   1.806   3.532
 2347SOL    HW2 7044   3.768   1.857   3.397
 2348SOL     OW 7045   4.589   0.348   2.057
 2348SOL    HW1 7046   4.648   0.411   2.008
 2348SOL    HW2 7047   4.608   0.254   2.028
 2349SOL     OW 7048   4.075   1.801   2.715
 2349SOL    HW1 7049   4.125   1.715   2.721
 2349SOL    HW2 7050   4.140   1.878   2.712
 2350SOL     OW 7051   4.045   0.943   2.104
 2350SOL    HW1 7052   4.127   0.982   2.062
 2350SOL    HW2 7053   4.018   0.861   2.055
 2351SOL     OW 7054   4.185   1.266   3.589
 2351SOL    HW1 7055   4.135   1.267   3.503
 2351SOL    HW2 7056   4.122   1.248   3.665
 2352SOL     OW 7057   3.926   0.285   3.360
 2352SOL    HW1 7058   3.846   0.345   3.347
 2352SOL    HW2 7059   3.916   0.236   3.446
 2353SOL     OW 7060   3.973   1.785   3.103
 2353SOL    HW1 7061   4.030   1.720   3.153
 2353SOL    HW2 7062   3.957   1.752   3.010
 2354SOL     OW 7063   4.106   0.700   2.342
 2354SOL    HW1 7064   4.151   0.610   2.339
 2354SOL    HW2 7065   4.012   0.689   2.375
 2355SOL     OW 7066   4.338   0.122   1.979
 2355SOL    HW1 7067   4.436   0.100   1.986
 2355SOL    HW2 7068   4.307   0.105   1.886
 2356SOL     OW 7069   4.263   0.064   2.374
 2356SOL    HW1 7070   4.182   0.065   2.432
 2356SOL    HW2 7071   4.266   0.147   2.319
 2357SOL     OW 7072   4.021   0.035   2.033
 2357SOL    HW1 7073   4.070   0.119   2.012
 2357SOL    HW2 7074   4.083  -0.030   2.078
 2358SOL     OW 7075   4.183   1.152   2.603
 2358SOL    HW1 7076   4.112   1.125   2.668
 2358SOL    HW2 7077   4.157   1.124   2.510
 2359SOL     OW 7078   3.802   0.556   3.248
 2359SOL    HW1 7079   3.894   0.555   3.207
 2359SOL    HW2 7080   3.796   0.630   3.315
 2360SOL     OW 7081   4.285   0.222   3.009
 2360SOL    HW1 7082   4.323   0.138   3.046
 2360SOL    HW2 7083   4.197   0.241   3.053
 2361SOL     OW 7084   4.134   0.813   3.113
 2361SOL    HW1 7085   4.220   0.825   3.163
 2361SOL    HW2 7086   4.092   0.726   3.140
 2362SOL     OW 7087   3.788   1.564   3.193
 2362SOL    HW1 7088   3.742   1.646   3.159
 2362SOL    HW2 7089   3.886   1.583   3.202
 2363SOL     OW 7090   4.091   1.100   2.363
 2363SOL    HW1 7091   4.084   1.183   2.307
 2363SOL    HW2 7092   4.095   1.020   2.303
 2364SOL     OW 7093   4.290   0.537   2.727
 2364SOL    HW1 7094   4.302   0.603   2.653
 2364SOL    HW2 7095   4.336   0.571   2.810
 2365SOL     OW 7096   4.078   1.510   3.191
 2365SOL    HW1 7097   4.057   1.466   3.104
 2365SOL    HW2 7098   4.175   1.536   3.194
 2366SOL     OW 7099   4.126   0.751   3.460
 2366SOL    HW1 7100   4.194   0.806   3.413
 2366SOL    HW2 7101   4.166   0.663   3.487
 2367SOL     OW 7102   4.228   0.050   3.602
 2367SOL    HW1 7103   4.186  -0.007   3.532
 2367SOL    HW2 7104   4.162   0.119   3.634
 2368SOL     OW 7105   4.297   0.870   2.891
 2368SOL    HW1 7106   4.341   0.959   2.882
 2368SOL    HW2 7107   4.234   0.870   2.968
 2369SOL     OW 7108   4.031   0.213   3.093
 2369SOL    HW1 7109   4.008   0.250   3.183
 2369SOL    HW2 7110   4.001   0.118   3.087
 2370SOL     OW 7111   3.761   1.310   3.144
 2370SOL    HW1 7112   3.814   1.261   3.212
 2370SOL    HW2 7113   3.783   1.408   3.149
 2371SOL     OW 7114   4.031   0.063   2.480
 2371SOL    HW1 7115   4.020   0.157   2.513
 2371SOL    HW2 7116   4.026   0.000   2.557
 2372SOL     OW 7117   4.074   0.898   3.666
 2372SOL    HW1 7118   4.150   0.942   3.714
 2372SOL    HW2 7119   4.109   0.851   3.584
 2373SOL     OW 7120   4.043   0.810   2.811
 2373SOL    HW1 7121   4.136   0.846   2.816
 2373SOL    HW2 7122   4.037   0.725   2.863
 2374SOL     OW 7123   4.063   0.509   2.868
 2374SOL    HW1 7124   4.011   0.426   2.851
 2374SOL    HW2 7125   4.140   0.514   2.804
 2375SOL     OW 7126   3.732   1.326   2.062
 2375SOL    HW1 7127   3.639   1.347   2.031
 2375SOL    HW2 7128   3.742   1.227   2.075
 2376SOL     OW 7129   3.812   1.801   2.789
 2376SOL    HW1 7130   3.770   1.715   2.762
 2376SOL    HW2 7131   3.906   1.804   2.755
 2377SOL     OW 7132   3.764   0.544   2.976
 2377SOL    HW1 7133   3.849   0.511   2.935
 2377SOL    HW2 7134   3.777   0.559   3.074
 2378SOL     OW 7135   3.913   0.520   3.584
 2378SOL    HW1 7136   3.972   0.480   3.514
 2378SOL    HW2 7137   3.855   0.591   3.543
 2379SOL     OW 7138   4.539   0.572   2.187
 2379SOL    HW1 7139   4.546   0.483   2.141
 2379SOL    HW2 7140   4.445   0.606   2.179
 2380SOL     OW 7141   3.976   1.564   3.606
 2380SOL    HW1 7142   3.946   1.621   3.682
 2380SOL    HW2 7143   3.969   1.467   3.632
 2381SOL     OW 7144   4.197   0.500   2.053
 2381SOL    HW1 7145   4.258   0.580   2.057
 2381SOL    HW2 7146   4.102   0.531   2.060
 2382SOL     OW 7147   3.883   1.137   3.328
 2382SOL    HW1 7148   3.905   1.076   3.404
 2382SOL    HW2 7149   3.893   1.088   3.242
 2383SOL     OW 7150   3.807   1.258   2.884
 2383SOL    HW1 7151   3.802   1.257   2.984
 2383SOL    HW2 7152   3.724   1.217   2.846
 2384SOL     OW 7153   3.854   1.794   3.713
 2384SOL    HW1 7154   3.813   1.720   3.766
 2384SOL    HW2 7155   3.918   1.845   3.771
 2385SOL     OW 7156   3.987   0.326   2.582
 2385SOL    HW1 7157   3.908   0.377   2.548
 2385SOL    HW2 7158   3.978   0.311   2.680
 2386SOL     OW 7159   4.096   1.288   3.352
 2386SOL    HW1 7160   4.083   1.381   3.318
 2386SOL    HW2 7161   4.012   1.236   3.339
 2387SOL     OW 7162   4.314   1.487   2.353
 2387SOL    HW1 7163   4.356   1.429   2.283
 2387SOL    HW2 7164   4.270   1.566   2.309
 2388SOL     OW 7165   3.979   1.348   2.152
 2388SOL    HW1 7166   3.883   1.349   2.125
 2388SOL    HW2 7167   3.991   1.401   2.236
 2389SOL     OW 7168   3.829   1.013   3.588
 2389SOL    HW1 7169   3.752   0.980   3.642
 2389SOL    HW2 7170   3.914   0.983   3.630
 2390SOL     OW 7171   3.799   0.345   1.895
 2390SOL    HW1 7172   3.707   0.317   1.866
 2390SOL    HW2 7173   3.830   0.422   1.839
 2391SOL     OW 7174   3.796   0.166   2.180
 2391SOL    HW1 7175   3.779   0.249   2.126
 2391SOL    HW2 7176   3.886   0.129   2.158
 2392SOL     OW 7177   4.114   1.741   3.422
 2392SOL    HW1 7178   4.023   1.782   3.420
 2392SOL    HW2 7179   4.107   1.647   3.454
 2393SOL     OW 7180   3.945   1.314   3.706
 2393SOL    HW1 7181   3.880   1.241   3.685
 2393SOL    HW2 7182   3.949   1.328   3.804
 2394SOL     OW 7183   3.803   1.240   2.515
 2394SOL    HW1 7184   3.802   1.193   2.603
 2394SOL    HW2 7185   3.885   1.212   2.464
 2395SOL     OW 7186   4.396   1.391   3.486
 2395SOL    HW1 7187   4.318   1.341   3.524
 2395SOL    HW2 7188   4.393   1.486   3.517
 2396SOL     OW 7189   4.152   0.424   2.382
 2396SOL    HW1 7190   4.182   0.352   2.320
 2396SOL    HW2 7191   4.113   0.384   2.465
 2397SOL     OW 7192   4.041   0.547   3.142
 2397SOL    HW1 7193   4.079   0.488   3.214
 2397SOL    HW2 7194   4.081   0.521   3.054
 2398SOL     OW 7195   3.763   1.077   2.162
 2398SOL    HW1 7196   3.862   1.066   2.153
 2398SOL    HW2 7197   3.723   0.991   2.194
 2399SOL     OW 7198   3.954   0.628   3.837
 2399SOL    HW1 7199   3.861   0.626   3.874
 2399SOL    HW2 7200   3.955   0.589   3.745
 2400SOL     OW 7201   4.409   1.012   4.389
 2400SOL    HW1 7202   4.478   0.996   4.459
 2400SOL    HW2 7203   4.336   1.069   4.427
 2401SOL     OW 7204   3.955   1.713   4.207
 2401SOL    HW1 7205   3.989   1.790   4.261
 2401SOL    HW2 7206   3.999   1.713   4.117
 2402SOL     OW 7207   3.954   1.434   4.262
 2402SOL    HW1 7208   3.928   1.530   4.262
 2402SOL    HW2 7209   3.883   1.380   4.307
 2403SOL     OW 7210   3.751   1.596   3.841
 2403SOL    HW1 7211   3.732   1.500   3.862
 2403SOL    HW2 7212   3.718   1.654   3.916
 2404SOL     OW 7213   4.322   0.729   3.994
 2404SOL    HW1 7214   4.346   0.798   3.926
 2404SOL    HW2 7215   4.244   0.762   4.048
 2405SOL     OW 7216   4.589   0.348   3.919
 2405SOL    HW1 7217   4.648   0.411   3.870
 2405SOL    HW2 7218   4.608   0.254   3.890
 2406SOL     OW 7219   4.075   1.801   4.577
 2406SOL    HW1 7220   4.125   1.715   4.583
 2406SOL    HW2 7221   4.140   1.878   4.574
 2407SOL     OW 7222   4.045   0.943   3.966
 2407SOL    HW1 7223   4.127   0.982   3.924
 2407SOL    HW2 7224   4.018   0.861   3.917
 2408SOL     OW 7225   4.106   0.700   4.204
 2408SOL    HW1 7226   4.151   0.610   4.201
 2408SOL    HW2 7227   4.012   0.689   4.237
 2409SOL     OW 7228   4.338   0.122   3.841
 2409SOL    HW1 7229   4.436   0.100   3.848
 2409SOL    HW2 7230   4.307   0.105   3.748
 2410SOL     OW 7231   4.021   0.035   3.895
 2410SOL    HW1 7232   4.070   0.119   3.874
 2410SOL    HW2 7233   4.083  -0.030   3.940
 2411SOL     OW 7234   4.183   1.152   4.465
 2411SOL    HW1 7235   4.112   1.125   4.530
 2411SOL    HW2 7236   4.157   1.124   4.372
 2412SOL     OW 7237   4.091   1.100   4.225
 2412SOL    HW1 7238   4.084   1.183   4.169
 2412SOL    HW2 7239   4.095   1.020   4.165
 2413SOL     OW 7240   3.732   1.326   3.924
 2413SOL    HW1 7241   3.639   1.347   3.893
 2413SOL    HW2 7242   3.742   1.227   3.937
 2414SOL     OW 7243   4.539   0.572   4.049
 2414SOL    HW1 7244   4.546   0.483   4.003
 2414SOL    HW2 7245   4.445   0.606   4.041
 2415SOL     OW 7246   4.197   0.500   3.915
 2415SOL    HW1 7247   4.258   0.580   3.919
 2415SOL    HW2 7248   4.102   0.531   3.922
 2416SOL     OW 7249   4.314   1.487   4.215
 2416SOL    HW1 7250   4.356   1.429   4.145
 2416SOL    HW2 7251   4.270   1.566   4.171
 2417SOL     OW 7252   3.979   1.348   4.014
 2417SOL    HW1 7253   3.883   1.349   3.987
 2417SOL    HW2 7254   3.991   1.401   4.098
 2418SOL     OW 7255   3.799   0.345   3.757
 2418SOL    HW1 7256   3.707   0.317   3.728
 2418SOL    HW2 7257   3.830   0.422   3.701
 2419SOL     OW 7258   3.796   0.166   4.042
 2419SOL    HW1 7259   3.779   0.249   3.988
 2419SOL    HW2 7260   3.886   0.129   4.020
 2420SOL     OW 7261   4.318   0.745   4.376
 2420SOL    HW1 7262   4.368   0.830   4.357
 2420SOL    HW2 7263   4.230   0.747   4.328
 2421SOL     OW 7264   4.152   0.424   4.244
 2421SOL    HW1 7265   4.182   0.352   4.182
 2421SOL    HW2 7266   4.113   0.384   4.327
 2422SOL     OW 7267   3.763   1.077   4.024
 2422SOL    HW1 7268   3.862   1.066   4.015
 2422SOL    HW2 7269   3.723   0.991   4.056
 2423SOL     OW 7270   3.954   2.490   0.113
 2423SOL    HW1 7271   3.861   2.488   0.150
 2423SOL    HW2 7272   3.955   2.451   0.021
 2424SOL     OW 7273   3.949   2.137   0.996
 2424SOL    HW1 7274   3.984   2.120   1.088
 2424SOL    HW2 7275   3.861   2.092   0.984
 2425SOL     OW 7276   3.743   2.230   0.647
 2425SOL    HW1 7277   3.661   2.273   0.686
 2425SOL    HW2 7278   3.715   2.157   0.584
 2426SOL     OW 7279   4.409   2.874   0.665
 2426SOL    HW1 7280   4.478   2.858   0.735
 2426SOL    HW2 7281   4.336   2.931   0.703
 2427SOL     OW 7282   4.059   3.297   1.061
 2427SOL    HW1 7283   3.981   3.266   1.008
 2427SOL    HW2 7284   4.117   3.355   1.004
 2428SOL     OW 7285   4.162   2.254   1.499
 2428SOL    HW1 7286   4.244   2.198   1.508
 2428SOL    HW2 7287   4.081   2.196   1.503
 2429SOL     OW 7288   3.955   3.575   0.483
 2429SOL    HW1 7289   3.989   3.652   0.537
 2429SOL    HW2 7290   3.999   3.575   0.393
 2430SOL     OW 7291   3.954   3.296   0.538
 2430SOL    HW1 7292   3.928   3.392   0.538
 2430SOL    HW2 7293   3.883   3.242   0.583
 2431SOL     OW 7294   3.964   2.953   0.886
 2431SOL    HW1 7295   3.978   2.869   0.938
 2431SOL    HW2 7296   3.909   3.017   0.941
 2432SOL     OW 7297   3.846   2.505   0.563
 2432SOL    HW1 7298   3.801   2.417   0.580
 2432SOL    HW2 7299   3.845   2.559   0.647
 2433SOL     OW 7300   3.751   3.458   0.117
 2433SOL    HW1 7301   3.732   3.362   0.138
 2433SOL    HW2 7302   3.718   3.516   0.192
 2434SOL     OW 7303   3.837   2.599   1.597
 2434SOL    HW1 7304   3.925   2.586   1.642
 2434SOL    HW2 7305   3.824   2.696   1.575
 2435SOL     OW 7306   3.921   2.838   1.264
 2435SOL    HW1 7307   4.010   2.793   1.250
 2435SOL    HW2 7308   3.848   2.773   1.245
 2436SOL     OW 7309   4.041   2.113   1.801
 2436SOL    HW1 7310   4.112   2.184   1.807
 2436SOL    HW2 7311   3.953   2.152   1.829
 2437SOL     OW 7312   4.322   2.591   0.270
 2437SOL    HW1 7313   4.346   2.660   0.202
 2437SOL    HW2 7314   4.244   2.624   0.324
 2438SOL     OW 7315   3.800   2.673   0.789
 2438SOL    HW1 7316   3.899   2.661   0.798
 2438SOL    HW2 7317   3.776   2.768   0.810
 2439SOL     OW 7318   3.854   3.683   1.571
 2439SOL    HW1 7319   3.844   3.668   1.670
 2439SOL    HW2 7320   3.768   3.719   1.535
 2440SOL     OW 7321   4.589   2.210   0.195
 2440SOL    HW1 7322   4.648   2.273   0.146
 2440SOL    HW2 7323   4.608   2.116   0.166
 2441SOL     OW 7324   4.274   2.058   0.885
 2441SOL    HW1 7325   4.269   2.053   0.985
 2441SOL    HW2 7326   4.276   2.154   0.856
 2442SOL     OW 7327   4.075   3.663   0.853
 2442SOL    HW1 7328   4.125   3.577   0.859
 2442SOL    HW2 7329   4.140   3.740   0.850
 2443SOL     OW 7330   4.045   2.805   0.242
 2443SOL    HW1 7331   4.127   2.844   0.200
 2443SOL    HW2 7332   4.018   2.723   0.193
 2444SOL     OW 7333   4.185   3.128   1.727
 2444SOL    HW1 7334   4.135   3.129   1.641
 2444SOL    HW2 7335   4.122   3.110   1.803
 2445SOL     OW 7336   3.926   2.147   1.498
 2445SOL    HW1 7337   3.846   2.207   1.485
 2445SOL    HW2 7338   3.916   2.098   1.584
 2446SOL     OW 7339   3.973   3.647   1.241
 2446SOL    HW1 7340   4.030   3.582   1.291
 2446SOL    HW2 7341   3.957   3.614   1.148
 2447SOL     OW 7342   4.106   2.562   0.480
 2447SOL    HW1 7343   4.151   2.472   0.477
 2447SOL    HW2 7344   4.012   2.551   0.513
 2448SOL     OW 7345   4.338   1.984   0.117
 2448SOL    HW1 7346   4.436   1.962   0.124
 2448SOL    HW2 7347   4.307   1.967   0.024
 2449SOL     OW 7348   4.263   1.926   0.512
 2449SOL    HW1 7349   4.182   1.927   0.570
 2449SOL    HW2 7350   4.266   2.009   0.457
 2450SOL     OW 7351   4.183   3.014   0.741
 2450SOL    HW1 7352   4.112   2.987   0.806
 2450SOL    HW2 7353   4.157   2.986   0.648
 2451SOL     OW 7354   3.802   2.418   1.386
 2451SOL    HW1 7355   3.894   2.417   1.345
 2451SOL    HW2 7356   3.796   2.492   1.453
 2452SOL     OW 7357   4.285   2.084   1.147
 2452SOL    HW1 7358   4.323   2.000   1.184
 2452SOL    HW2 7359   4.197   2.103   1.191
 2453SOL     OW 7360   4.134   2.675   1.251
 2453SOL    HW1 7361   4.220   2.687   1.301
 2453SOL    HW2 7362   4.092   2.588   1.278
 2454SOL     OW 7363   3.788   3.426   1.331
 2454SOL    HW1 7364   3.742   3.508   1.297
 2454SOL    HW2 7365   3.886   3.445   1.340
 2455SOL     OW 7366   4.091   2.962   0.501
 2455SOL    HW1 7367   4.084   3.045   0.445
 2455SOL    HW2 7368   4.095   2.882   0.441
 2456SOL     OW 7369   4.290   2.399   0.865
 2456SOL    HW1 7370   4.302   2.465   0.791
 2456SOL    HW2 7371   4.336   2.433   0.948
 2457SOL     OW 7372   4.078   3.372   1.329
 2457SOL    HW1 7373   4.057   3.328   1.242
 2457SOL    HW2 7374   4.175   3.398   1.332
 2458SOL     OW 7375   4.126   2.613   1.598
 2458SOL    HW1 7376   4.194   2.668   1.551
 2458SOL    HW2 7377   4.166   2.525   1.625
 2459SOL     OW 7378   4.228   1.912   1.740
 2459SOL    HW1 7379   4.186   1.855   1.670
 2459SOL    HW2 7380   4.162   1.981   1.772
 2460SOL     OW 7381   4.297   2.732   1.029
 2460SOL    HW1 7382   4.341   2.821   1.020
 2460SOL    HW2 7383   4.234   2.732   1.106
 2461SOL     OW 7384   4.031   2.075   1.231
 2461SOL    HW1 7385   4.008   2.112   1.321
 2461SOL    HW2 7386   4.001   1.980   1.225
 2462SOL     OW 7387   3.761   3.172   1.282
 2462SOL    HW1 7388   3.814   3.123   1.350
 2462SOL    HW2 7389   3.783   3.270   1.287
 2463SOL     OW 7390   4.031   1.925   0.618
 2463SOL    HW1 7391   4.020   2.019   0.651
 2463SOL    HW2 7392   4.026   1.862   0.695
 2464SOL     OW 7393   4.074   2.760   1.804
 2464SOL    HW1 7394   4.150   2.804   1.852
 2464SOL    HW2 7395   4.109   2.713   1.722
 2465SOL     OW 7396   4.043   2.672   0.949
 2465SOL    HW1 7397   4.136   2.708   0.954
 2465SOL    HW2 7398   4.037   2.587   1.001
 2466SOL     OW 7399   4.063   2.371   1.006
 2466SOL    HW1 7400   4.011   2.288   0.989
 2466SOL    HW2 7401   4.140   2.376   0.942
 2467SOL     OW 7402   3.732   3.188   0.200
 2467SOL    HW1 7403   3.639   3.209   0.169
 2467SOL    HW2 7404   3.742   3.089   0.213
 2468SOL     OW 7405   3.812   3.663   0.927
 2468SOL    HW1 7406   3.770   3.577   0.900
 2468SOL    HW2 7407   3.906   3.666   0.893
 2469SOL     OW 7408   3.764   2.406   1.114
 2469SOL    HW1 7409   3.849   2.373   1.073
 2469SOL    HW2 7410   3.777   2.421   1.212
 2470SOL     OW 7411   3.913   2.382   1.722
 2470SOL    HW1 7412   3.972   2.342   1.652
 2470SOL    HW2 7413   3.855   2.453   1.681
 2471SOL     OW 7414   4.539   2.434   0.325
 2471SOL    HW1 7415   4.546   2.345   0.279
 2471SOL    HW2 7416   4.445   2.468   0.317
 2472SOL     OW 7417   3.976   3.426   1.744
 2472SOL    HW1 7418   3.946   3.483   1.820
 2472SOL    HW2 7419   3.969   3.329   1.770
 2473SOL     OW 7420   4.197   2.362   0.191
 2473SOL    HW1 7421   4.258   2.442   0.195
 2473SOL    HW2 7422   4.102   2.393   0.198
 2474SOL     OW 7423   3.883   2.999   1.466
 2474SOL    HW1 7424   3.905   2.938   1.542
 2474SOL    HW2 7425   3.893   2.950   1.380
 2475SOL     OW 7426   3.807   3.120   1.022
 2475SOL    HW1 7427   3.802   3.119   1.122
 2475SOL    HW2 7428   3.724   3.079   0.984
 2476SOL     OW 7429   3.854   3.656   1.851
 2476SOL    HW1 7430   3.813   3.582   1.904
 2476SOL    HW2 7431   3.918   3.707   1.909
 2477SOL     OW 7432   3.987   2.188   0.720
 2477SOL    HW1 7433   3.908   2.239   0.686
 2477SOL    HW2 7434   3.978   2.173   0.818
 2478SOL     OW 7435   4.096   3.150   1.490
 2478SOL    HW1 7436   4.083   3.243   1.456
 2478SOL    HW2 7437   4.012   3.098   1.477
 2479SOL     OW 7438   4.314   3.349   0.491
 2479SOL    HW1 7439   4.356   3.291   0.421
 2479SOL    HW2 7440   4.270   3.428   0.447
 2480SOL     OW 7441   3.979   3.210   0.290
 2480SOL    HW1 7442   3.883   3.211   0.263
 2480SOL    HW2 7443   3.991   3.263   0.374
 2481SOL     OW 7444   3.829   2.875   1.726
 2481SOL    HW1 7445   3.752   2.842   1.780
 2481SOL    HW2 7446   3.914   2.845   1.768
 2482SOL     OW 7447   3.799   2.207   0.033
 2482SOL    HW1 7448   3.707   2.179   0.004
 2482SOL    HW2 7449   3.830   2.284  -0.023
 2483SOL     OW 7450   3.796   2.028   0.318
 2483SOL    HW1 7451   3.779   2.111   0.264
 2483SOL    HW2 7452   3.886   1.991   0.296
 2484SOL     OW 7453   4.114   3.603   1.560
 2484SOL    HW1 7454   4.023   3.644   1.558
 2484SOL    HW2 7455   4.107   3.509   1.592
 2485SOL     OW 7456   3.945   3.176   1.844
 2485SOL    HW1 7457   3.880   3.103   1.823
 2485SOL    HW2 7458   3.949   3.190   1.942
 2486SOL     OW 7459   3.803   3.102   0.653
 2486SOL    HW1 7460   3.802   3.055   0.741
 2486SOL    HW2 7461   3.885   3.074   0.602
 2487SOL     OW 7462   4.396   3.253   1.624
 2487SOL    HW1 7463   4.318   3.203   1.662
 2487SOL    HW2 7464   4.393   3.348   1.655
 2488SOL     OW 7465   4.152   2.286   0.520
 2488SOL    HW1 7466   4.182   2.214   0.458
 2488SOL    HW2 7467   4.113   2.246   0.603
 2489SOL     OW 7468   4.041   2.409   1.280
 2489SOL    HW1 7469   4.079   2.350   1.352
 2489SOL    HW2 7470   4.081   2.383   1.192
 2490SOL     OW 7471   3.763   2.939   0.300
 2490SOL    HW1 7472   3.862   2.928   0.291
 2490SOL    HW2 7473   3.723   2.853   0.332
 2491SOL     OW 7474   3.954   2.490   1.975
 2491SOL    HW1 7475   3.861   2.488   2.012
 2491SOL    HW2 7476   3.955   2.451   1.883
 2492SOL     OW 7477   3.949   2.137   2.858
 2492SOL    HW1 7478   3.984   2.120   2.950
 2492SOL    HW2 7479   3.861   2.092   2.846
 2493SOL     OW 7480   3.743   2.230   2.509
 2493SOL    HW1 7481   3.661   2.273   2.548
 2493SOL    HW2 7482   3.715   2.157   2.446
 2494SOL     OW 7483   4.409   2.874   2.527
 2494SOL    HW1 7484   4.478   2.858   2.597
 2494SOL    HW2 7485   4.336   2.931   2.565
 2495SOL     OW 7486   4.059   3.297   2.923
 2495SOL    HW1 7487   3.981   3.266   2.870
 2495SOL    HW2 7488   4.117   3.355   2.866
 2496SOL     OW 7489   4.162   2.254   3.361
 2496SOL    HW1 7490   4.244   2.198   3.370
 2496SOL    HW2 7491   4.081   2.196   3.365
 2497SOL     OW 7492   3.955   3.575   2.345
 2497SOL    HW1 7493   3.989   3.652   2.399
 2497SOL    HW2 7494   3.999   3.575   2.255
 2498SOL     OW 7495   3.954   3.296   2.400
 2498SOL    HW1 7496   3.928   3.392   2.400
 2498SOL    HW2 7497   3.883   3.242   2.445
 2499SOL     OW 7498   3.964   2.953   2.748
 2499SOL    HW1 7499   3.978   2.869   2.800
 2499SOL    HW2 7500   3.909   3.017   2.803
 2500SOL     OW 7501   3.846   2.505   2.425
 2500SOL    HW1 7502   3.801   2.417   2.442
 2500SOL    HW2 7503   3.845   2.559   2.509
 2501SOL     OW 7504   3.751   3.458   1.979
 2501SOL    HW1 7505   3.732   3.362   2.000
 2501SOL    HW2 7506   3.718   3.516   2.054
 2502SOL     OW 7507   3.837   2.599   3.459
 2502SOL    HW1 7508   3.925   2.586   3.504
 2502SOL    HW2 7509   3.824   2.696   3.437
 2503SOL     OW 7510   3.921   2.838   3.126
 2503SOL    HW1 7511   4.010   2.793   3.112
 2503SOL    HW2 7512   3.848   2.773   3.107
 2504SOL     OW 7513   4.041   2.113   3.663
 2504SOL    HW1 7514   4.112   2.184   3.669
 2504SOL    HW2 7515   3.953   2.152   3.691
 2505SOL     OW 7516   4.322   2.591   2.132
 2505SOL    HW1 7517   4.346   2.660   2.064
 2505SOL    HW2 7518   4.244   2.624   2.186
 2506SOL     OW 7519   3.800   2.673   2.651
 2506SOL    HW1 7520   3.899   2.661   2.660
 2506SOL    HW2 7521   3.776   2.768   2.672
 2507SOL     OW 7522   3.854   3.683   3.433
 2507SOL    HW1 7523   3.844   3.668   3.532
 2507SOL    HW2 7524   3.768   3.719   3.397
 2508SOL     OW 7525   4.589   2.210   2.057
 2508SOL    HW1 7526   4.648   2.273   2.008
 2508SOL    HW2 7527   4.608   2.116   2.028
 2509SOL     OW 7528   4.274   2.058   2.747
 2509SOL    HW1 7529   4.269   2.053   2.847
 2509SOL    HW2 7530   4.276   2.154   2.718
 2510SOL     OW 7531   4.075   3.663   2.715
 2510SOL    HW1 7532   4.125   3.577   2.721
 2510SOL    HW2 7533   4.140   3.740   2.712
 2511SOL     OW 7534   4.045   2.805   2.104
 2511SOL    HW1 7535   4.127   2.844   2.062
 2511SOL    HW2 7536   4.018   2.723   2.055
 2512SOL     OW 7537   4.185   3.128   3.589
 2512SOL    HW1 7538   4.135   3.129   3.503
 2512SOL    HW2 7539   4.122   3.110   3.665
 2513SOL     OW 7540   3.926   2.147   3.360
 2513SOL    HW1 7541   3.846   2.207   3.347
 2513SOL    HW2 7542   3.916   2.098   3.446
 2514SOL     OW 7543   3.973   3.647   3.103
 2514SOL    HW1 7544   4.030   3.582   3.153
 2514SOL    HW2 7545   3.957   3.614   3.010
 2515SOL     OW 7546   4.106   2.562   2.342
 2515SOL    HW1 7547   4.151   2.472   2.339
 2515SOL    HW2 7548   4.012   2.551   2.375
 2516SOL     OW 7549   4.338   1.984   1.979
 2516SOL    HW1 7550   4.436   1.962   1.986
 2516SOL    HW2 7551   4.307   1.967   1.886
 2517SOL     OW 7552   4.263   1.926   2.374
 2517SOL    HW1 7553   4.182   1.927   2.432
 2517SOL    HW2 7554   4.266   2.009   2.319
 2518SOL     OW 7555   4.021   1.897   2.033
 2518SOL    HW1 7556   4.070   1.981   2.012
 2518SOL    HW2 7557   4.083   1.832   2.078
 2519SOL     OW 7558   4.183   3.014   2.603
 2519SOL    HW1 7559   4.112   2.987   2.668
 2519SOL    HW2 7560   4.157   2.986   2.510
 2520SOL     OW 7561   3.802   2.418   3.248
 2520SOL    HW1 7562   3.894   2.417   3.207
 2520SOL    HW2 7563   3.796   2.492   3.315
 2521SOL     OW 7564   4.285   2.084   3.009
 2521SOL    HW1 7565   4.323   2.000   3.046
 2521SOL    HW2 7566   4.197   2.103   3.053
 2522SOL     OW 7567   4.134   2.675   3.113
 2522SOL    HW1 7568   4.220   2.687   3.163
 2522SOL    HW2 7569   4.092   2.588   3.140
 2523SOL     OW 7570   3.788   3.426   3.193
 2523SOL    HW1 7571   3.742   3.508   3.159
 2523SOL    HW2 7572   3.886   3.445   3.202
 2524SOL     OW 7573   4.091   2.962   2.363
 2524SOL    HW1 7574   4.084   3.045   2.307
 2524SOL    HW2 7575   4.095   2.882   2.303
 2525SOL     OW 7576   4.290   2.399   2.727
 2525SOL    HW1 7577   4.302   2.465   2.653
 2525SOL    HW2 7578   4.336   2.433   2.810
 2526SOL     OW 7579   4.078   3.372   3.191
 2526SOL    HW1 7580   4.057   3.328   3.104
 2526SOL    HW2 7581   4.175   3.398   3.194
 2527SOL     OW 7582   4.126   2.613   3.460
 2527SOL    HW1 7583   4.194   2.668   3.413
 2527SOL    HW2 7584   4.166   2.525   3.487
 2528SOL     OW 7585   4.228   1.912   3.602
 2528SOL    HW1 7586   4.186   1.855   3.532
 2528SOL    HW2 7587   4.162   1.981   3.634
 2529SOL     OW 7588   4.297   2.732   2.891
 2529SOL    HW1 7589   4.341   2.821   2.882
 2529SOL    HW2 7590   4.234   2.732   2.968
 2530SOL     OW 7591   4.031   2.075   3.093
 2530SOL    HW1 7592   4.008   2.112   3.183
 2530SOL    HW2 7593   4.001   1.980   3.087
 2531SOL     OW 7594   3.761   3.172   3.144
 2531SOL    HW1 7595   3.814   3.123   3.212
 2531SOL    HW2 7596   3.783   3.270   3.149
 2532SOL     OW 7597   4.031   1.925   2.480
 2532SOL    HW1 7598   4.020   2.019   2.513
 2532SOL    HW2 7599   4.026   1.862   2.557
 2533SOL     OW 7600   4.074   2.760   3.666
 2533SOL    HW1 7601   4.150   2.804   3.714
 2533SOL    HW2 7602   4.109   2.713   3.584
 2534SOL     OW 7603   4.043   2.672   2.811
 2534SOL    HW1 7604   4.136   2.708   2.816
 2534SOL    HW2 7605   4.037   2.587   2.863
 2535SOL     OW 7606   4.063   2.371   2.868
 2535SOL    HW1 7607   4.011   2.288   2.851
 2535SOL    HW2 7608   4.140   2.376   2.804
 2536SOL     OW 7609   3.732   3.188   2.062
 2536SOL    HW1 7610   3.639   3.209   2.031
 2536SOL    HW2 7611   3.742   3.089   2.075
 2537SOL     OW 7612   3.812   3.663   2.789
 2537SOL    HW1 7613   3.770   3.577   2.762
 2537SOL    HW2 7614   3.906   3.666   2.755
 2538SOL     OW 7615   3.764   2.406   2.976
 2538SOL    HW1 7616   3.849   2.373   2.935
 2538SOL    HW2 7617   3.777   2.421   3.074
 2539SOL     OW 7618   3.913   2.382   3.584
 2539SOL    HW1 7619   3.972   2.342   3.514
 2539SOL    HW2 7620   3.855   2.453   3.543
 2540SOL     OW 7621   4.539   2.434   2.187
 2540SOL    HW1 7622   4.546   2.345   2.141
 2540SOL    HW2 7623   4.445   2.468   2.179
 2541SOL     OW 7624   3.976   3.426   3.606
 2541SOL    HW1 7625   3.946   3.483   3.682
 2541SOL    HW2 7626   3.969   3.329   3.632
 2542SOL     OW 7627   4.197   2.362   2.053
 2542SOL    HW1 7628   4.258   2.442   2.057
 2542SOL    HW2 7629   4.102   2.393   2.060
 2543SOL     OW 7630   3.883   2.999   3.328
 2543SOL    HW1 7631   3.905   2.938   3.404
 2543SOL    HW2 7632   3.893   2.950   3.242
 2544SOL     OW 7633   3.807   3.120   2.884
 2544SOL    HW1 7634   3.802   3.119   2.984
 2544SOL    HW2 7635   3.724   3.079   2.846
 2545SOL     OW 7636   3.854   3.656   3.713
 2545SOL    HW1 7637   3.813   3.582   3.766
 2545SOL    HW2 7638   3.918   3.707   3.771
 2546SOL     OW 7639   3.987   2.188   2.582
 2546SOL    HW1 7640   3.908   2.239   2.548
 2546SOL    HW2 7641   3.978   2.173   2.680
 2547SOL     OW 7642   4.096   3.150   3.352
 2547SOL    HW1 7643   4.083   3.243   3.318
 2547SOL    HW2 7644   4.012   3.098   3.339
 2548SOL     OW 7645   4.314   3.349   2.353
 2548SOL    HW1 7646   4.356   3.291   2.283
 2548SOL    HW2 7647   4.270   3.428   2.309
 2549SOL     OW 7648   3.979   3.210   2.152
 2549SOL    HW1 7649   3.883   3.211   2.125
 2549SOL    HW2 7650   3.991   3.263   2.236
 2550SOL     OW 7651   3.829   2.875   3.588
 2550SOL    HW1 7652   3.752   2.842   3.642
 2550SOL    HW2 7653   3.914   2.845   3.630
 2551SOL     OW 7654   3.799   2.207   1.895
 2551SOL    HW1 7655   3.707   2.179   1.866
 2551SOL    HW2 7656   3.830   2.284   1.839
 2552SOL     OW 7657   3.796   2.028   2.180
 2552SOL    HW1 7658   3.779   2.111   2.126
 2552SOL    HW2 7659   3.886   1.991   2.158
 2553SOL     OW 7660   4.114   3.603   3.422
 2553SOL    HW1 7661   4.023   3.644   3.420
 2553SOL    HW2 7662   4.107   3.509   3.454
 2554SOL     OW 7663   3.945   3.176   3.706
 2554SOL    HW1 7664   3.880   3.103   3.685
 2554SOL    HW2 7665   3.949   3.190   3.804
 2555SOL     OW 7666   3.803   3.102   2.515
 2555SOL    HW1 7667   3.802   3.055   2.603
 2555SOL    HW2 7668   3.885   3.074   2.464
 2556SOL     OW 7669   4.396   3.253   3.486
 2556SOL    HW1 7670   4.318   3.203   3.524
 2556SOL    HW2 7671   4.393   3.348   3.517
 2557SOL     OW 7672   4.152   2.286   2.382
 2557SOL    HW1 7673   4.182   2.214   2.320
 2557SOL    HW2 7674   4.113   2.246   2.465
 2558SOL     OW 7675   4.041   2.409   3.142
 2558SOL    HW1 7676   4.079   2.350   3.214
 2558SOL    HW2 7677   4.081   2.383   3.054
 2559SOL     OW 7678   3.763   2.939   2.162
 2559SOL    HW1 7679   3.862   2.928   2.153
 2559SOL    HW2 7680   3.723   2.853   2.194
 2560SOL     OW 7681   3.954   2.490   3.837
 2560SOL    HW1 7682   3.861   2.488   3.874
 2560SOL    HW2 7683   3.955   2.451   3.745
 2561SOL     OW 7684   4.409   2.874   4.389
 2561SOL    HW1 7685   4.478   2.858   4.459
 2561SOL    HW2 7686   4.336   2.931   4.427
 2562SOL     OW 7687   3.955   3.575   4.207
 2562SOL    HW1 7688   3.989   3.652   4.261
 2562SOL    HW2 7689   3.999   3.575   4.117
 2563SOL     OW 7690   3.954   3.296   4.262
 2563SOL    HW1 7691   3.928   3.392   4.262
 2563SOL    HW2 7692   3.883   3.242   4.307
 2564SOL     OW 7693   3.751   3.458   3.841
 2564SOL    HW1 7694   3.732   3.362   3.862
 2564SOL    HW2 7695   3.718   3.516   3.916
 2565SOL     OW 7696   4.322   2.591   3.994
 2565SOL    HW1 7697   4.346   2.660   3.926
 2565SOL    HW2 7698   4.244   2.624   4.048
 2566SOL     OW 7699   4.589   2.210   3.919
 2566SOL    HW1 7700   4.648   2.273   3.870
 2566SOL    HW2 7701   4.608   2.116   3.890
 2567SOL     OW 7702   4.075   3.663   4.577
 2567SOL    HW1 7703   4.125   3.577   4.583
 2567SOL    HW2 7704   4.140   3.740   4.574
 2568SOL     OW 7705   4.045   2.805   3.966
 2568SOL    HW1 7706   4.127   2.844   3.924
 2568SOL    HW2 7707   4.018   2.723   3.917
 2569SOL     OW 7708   4.106   2.562   4.204
 2569SOL    HW1 7709   4.151   2.472   4.201
 2569SOL    HW2 7710   4.012   2.551   4.237
 2570SOL     OW 7711   4.338   1.984   3.841
 2570SOL    HW1 7712   4.436   1.962   3.848
 2570SOL    HW2 7713   4.307   1.967   3.748
 2571SOL     OW 7714   4.021   1.897   3.895
 2571SOL    HW1 7715   4.070   1.981   3.874
 2571SOL    HW2 7716   4.083   1.832   3.940
 2572SOL     OW 7717   4.183   3.014   4.465
 2572SOL    HW1 7718   4.112   2.987   4.530
 2572SOL    HW2 7719   4.157   2.986   4.372
 2573SOL     OW 7720   4.091   2.962   4.225
 2573SOL    HW1 7721   4.084   3.045   4.169
 2573SOL    HW2 7722   4.095   2.882   4.165
 2574SOL     OW 7723   4.031   1.925   4.342
 2574SOL    HW1 7724   4.020   2.019   4.375
 2574SOL    HW2 7725   4.026   1.862   4.419
 2575SOL     OW 7726   3.732   3.188   3.924
 2575SOL    HW1 7727   3.639   3.209   3.893
 2575SOL    HW2 7728   3.742   3.089   3.937
 2576SOL     OW 7729   4.539   2.434   4.049
 2576SOL    HW1 7730   4.546   2.345   4.003
 2576SOL    HW2 7731   4.445   2.468   4.041
 2577SOL     OW 7732   4.197   2.362   3.915
 2577SOL    HW1 7733   4.258   2.442   3.919
 2577SOL    HW2 7734   4.102   2.393   3.922
 2578SOL     OW 7735   4.314   3.349   4.215
 2578SOL    HW1 7736   4.356   3.291   4.145
 2578SOL    HW2 7737   4.270   3.428   4.171
 2579SOL     OW 7738   3.979   3.210   4.014
 2579SOL    HW1 7739   3.883   3.211   3.987
 2579SOL    HW2 7740   3.991   3.263   4.098
 2580SOL     OW 7741   3.799   2.207   3.757
 2580SOL    HW1 7742   3.707   2.179   3.728
 2580SOL    HW2 7743   3.830   2.284   3.701
 2581SOL     OW 7744   3.796   2.028   4.042
 2581SOL    HW1 7745   3.779   2.111   3.988
 2581SOL    HW2 7746   3.886   1.991   4.020
 2582SOL     OW 7747   4.318   2.607   4.376
 2582SOL    HW1 7748   4.368   2.692   4.357
 2582SOL    HW2 7749   4.230   2.609   4.328
 2583SOL     OW 7750   4.152   2.286   4.244
 2583SOL    HW1 7751   4.182   2.214   4.182
 2583SOL    HW2 7752   4.113   2.246   4.327
 2584SOL     OW 7753   3.763   2.939   4.024
 2584SOL    HW1 7754   3.862   2.928   4.015
 2584SOL    HW2 7755   3.723   2.853   4.056
 2585SOL     OW 7756   3.949   3.999   0.996
 2585SOL    HW1 7757   3.984   3.982   1.088
 2585SOL    HW2 7758   3.861   3.954   0.984
 2586SOL     OW 7759   3.743   4.092   0.647
 2586SOL    HW1 7760   3.661   4.135   0.686
 2586SOL    HW2 7761   3.715   4.019   0.584
 2587SOL     OW 7762   4.162   4.116   1.499
 2587SOL    HW1 7763   4.244   4.060   1.508
 2587SOL    HW2 7764   4.081   4.058   1.503
 2588SOL     OW 7765   3.846   4.367   0.563
 2588SOL    HW1 7766   3.801   4.279   0.580
 2588SOL    HW2 7767   3.845   4.421   0.647
 2589SOL     OW 7768   4.041   3.975   1.801
 2589SOL    HW1 7769   4.112   4.046   1.807
 2589SOL    HW2 7770   3.953   4.014   1.829
 2590SOL     OW 7771   3.800   4.535   0.789
 2590SOL    HW1 7772   3.899   4.523   0.798
 2590SOL    HW2 7773   3.776   4.630   0.810
 2591SOL     OW 7774   4.589   4.072   0.195
 2591SOL    HW1 7775   4.648   4.135   0.146
 2591SOL    HW2 7776   4.608   3.978   0.166
 2592SOL     OW 7777   4.274   3.920   0.885
 2592SOL    HW1 7778   4.269   3.915   0.985
 2592SOL    HW2 7779   4.276   4.016   0.856
 2593SOL     OW 7780   3.926   4.009   1.498
 2593SOL    HW1 7781   3.846   4.069   1.485
 2593SOL    HW2 7782   3.916   3.960   1.584
 2594SOL     OW 7783   4.338   3.846   0.117
 2594SOL    HW1 7784   4.436   3.824   0.124
 2594SOL    HW2 7785   4.307   3.829   0.024
 2595SOL     OW 7786   4.263   3.788   0.512
 2595SOL    HW1 7787   4.182   3.789   0.570
 2595SOL    HW2 7788   4.266   3.871   0.457
 2596SOL     OW 7789   3.802   4.280   1.386
 2596SOL    HW1 7790   3.894   4.279   1.345
 2596SOL    HW2 7791   3.796   4.354   1.453
 2597SOL     OW 7792   4.285   3.946   1.147
 2597SOL    HW1 7793   4.323   3.862   1.184
 2597SOL    HW2 7794   4.197   3.965   1.191
 2598SOL     OW 7795   4.290   4.261   0.865
 2598SOL    HW1 7796   4.302   4.327   0.791
 2598SOL    HW2 7797   4.336   4.295   0.948
 2599SOL     OW 7798   4.228   3.774   1.740
 2599SOL    HW1 7799   4.186   3.717   1.670
 2599SOL    HW2 7800   4.162   3.843   1.772
 2600SOL     OW 7801   4.031   3.937   1.231
 2600SOL    HW1 7802   4.008   3.974   1.321
 2600SOL    HW2 7803   4.001   3.842   1.225
 2601SOL     OW 7804   4.031   3.787   0.618
 2601SOL    HW1 7805   4.020   3.881   0.651
 2601SOL    HW2 7806   4.026   3.724   0.695
 2602SOL     OW 7807   4.063   4.233   1.006
 2602SOL    HW1 7808   4.011   4.150   0.989
 2602SOL    HW2 7809   4.140   4.238   0.942
 2603SOL     OW 7810   3.764   4.268   1.114
 2603SOL    HW1 7811   3.849   4.235   1.073
 2603SOL    HW2 7812   3.777   4.283   1.212
 2604SOL     OW 7813   3.913   4.244   1.722
 2604SOL    HW1 7814   3.972   4.204   1.652
 2604SOL    HW2 7815   3.855   4.315   1.681
 2605SOL     OW 7816   4.539   4.296   0.325
 2605SOL    HW1 7817   4.546   4.207   0.279
 2605SOL    HW2 7818   4.445   4.330   0.317
 2606SOL     OW 7819   3.987   4.050   0.720
 2606SOL    HW1 7820   3.908   4.101   0.686
 2606SOL    HW2 7821   3.978   4.035   0.818
 2607SOL     OW 7822   3.799   4.069   0.033
 2607SOL    HW1 7823   3.707   4.041   0.004
 2607SOL    HW2 7824   3.830   4.146  -0.023
 2608SOL     OW 7825   3.796   3.890   0.318
 2608SOL    HW1 7826   3.779   3.973   0.264
 2608SOL    HW2 7827   3.886   3.853   0.296
 2609SOL     OW 7828   4.152   4.148   0.520
 2609SOL    HW1 7829   4.182   4.076   0.458
 2609SOL    HW2 7830   4.113   4.108   0.603
 2610SOL     OW 7831   4.041   4.271   1.280
 2610SOL    HW1 7832   4.079   4.212   1.352
 2610SOL    HW2 7833   4.081   4.245   1.192
 2611SOL     OW 7834   3.949   3.999   2.858
 2611SOL    HW1 7835   3.984   3.982   2.950
 2611SOL    HW2 7836   3.861   3.954   2.846
 2612SOL     OW 7837   3.743   4.092   2.509
 2612SOL    HW1 7838   3.661   4.135   2.548
 2612SOL    HW2 7839   3.715   4.019   2.446
 2613SOL     OW 7840   4.162   4.116   3.361
 2613SOL    HW1 7841   4.244   4.060   3.370
 2613SOL    HW2 7842   4.081   4.058   3.365
 2614SOL     OW 7843   3.846   4.367   2.425
 2614SOL    HW1 7844   3.801   4.279   2.442
 2614SOL    HW2 7845   3.845   4.421   2.509
 2615SOL     OW 7846   4.041   3.975   3.663
 2615SOL    HW1 7847   4.112   4.046   3.669
 2615SOL    HW2 7848   3.953   4.014   3.691
 2616SOL     OW 7849   3.800   4.535   2.651
 2616SOL    HW1 7850   3.899   4.523   2.660
 2616SOL    HW2 7851   3.776   4.630   2.672
 2617SOL     OW 7852   4.589   4.072   2.057
 2617SOL    HW1 7853   4.648   4.135   2.008
 2617SOL    HW2 7854   4.608   3.978   2.028
 2618SOL     OW 7855   4.274   3.920   2.747
 2618SOL    HW1 7856   4.269   3.915   2.847
 2618SOL    HW2 7857   4.276   4.016   2.718
 2619SOL     OW 7858   3.926   4.009   3.360
 2619SOL    HW1 7859   3.846   4.069   3.347
 2619SOL    HW2 7860   3.916   3.960   3.446
 2620SOL     OW 7861   4.338   3.846   1.979
 2620SOL    HW1 7862   4.436   3.824   1.986
 2620SOL    HW2 7863   4.307   3.829   1.886
 2621SOL     OW 7864   4.263   3.788   2.374
 2621SOL    HW1 7865   4.182   3.789   2.432
 2621SOL    HW2 7866   4.266   3.871   2.319
 2622SOL     OW 7867   4.021   3.759   2.033
 2622SOL    HW1 7868   4.070   3.843   2.012
 2622SOL    HW2 7869   4.083   3.694   2.078
 2623SOL     OW 7870   3.802   4.280   3.248
 2623SOL    HW1 7871   3.894   4.279   3.207
 2623SOL    HW2 7872   3.796   4.354   3.315
 2624SOL     OW 7873   4.285   3.946   3.009
 2624SOL    HW1 7874   4.323   3.862   3.046
 2624SOL    HW2 7875   4.197   3.965   3.053
 2625SOL     OW 7876   4.290   4.261   2.727
 2625SOL    HW1 7877   4.302   4.327   2.653
 2625SOL    HW2 7878   4.336   4.295   2.810
 2626SOL     OW 7879   4.228   3.774   3.602
 2626SOL    HW1 7880   4.186   3.717   3.532
 2626SOL    HW2 7881   4.162   3.843   3.634
 2627SOL     OW 7882   4.031   3.937   3.093
 2627SOL    HW1 7883   4.008   3.974   3.183
 2627SOL    HW2 7884   4.001   3.842   3.087
 2628SOL     OW 7885   4.031   3.787   2.480
 2628SOL    HW1 7886   4.020   3.881   2.513
 2628SOL    HW2 7887   4.026   3.724   2.557
 2629SOL     OW 7888   4.063   4.233   2.868
 2629SOL    HW1 7889   4.011   4.150   2.851
 2629SOL    HW2 7890   4.140   4.238   2.804
 2630SOL     OW 7891   3.764   4.268   2.976
 2630SOL    HW1 7892   3.849   4.235   2.935
 2630SOL    HW2 7893   3.777   4.283   3.074
 2631SOL     OW 7894   3.913   4.244   3.584
 2631SOL    HW1 7895   3.972   4.204   3.514
 2631SOL    HW2 7896   3.855   4.315   3.543
 2632SOL     OW 7897   4.539   4.296   2.187
 2632SOL    HW1 7898   4.546   4.207   2.141
 2632SOL    HW2 7899   4.445   4.330   2.179
 2633SOL     OW 7900   3.987   4.050   2.582
 2633SOL    HW1 7901   3.908   4.101   2.548
 2633SOL    HW2 7902   3.978   4.035   2.680
 2634SOL     OW 7903   3.799   4.069   1.895
 2634SOL    HW1 7904   3.707   4.041   1.866
 2634SOL    HW2 7905   3.830   4.146   1.839
 2635SOL     OW 7906   3.796   3.890   2.180
 2635SOL    HW1 7907   3.779   3.973   2.126
 2635SOL    HW2 7908   3.886   3.853   2.158
 2636SOL     OW 7909   4.152   4.148   2.382
 2636SOL    HW1 7910   4.182   4.076   2.320
 2636SOL    HW2 7911   4.113   4.108   2.465
 2637SOL     OW 7912   4.041   4.271   3.142
 2637SOL    HW1 7913   4.079   4.212   3.214
 2637SOL    HW2 7914   4.081   4.245   3.054
 2638SOL     OW 7915   4.589   4.072   3.919
 2638SOL    HW1 7916   4.648   4.135   3.870
 2638SOL    HW2 7917   4.608   3.978   3.890
 2639SOL     OW 7918   4.106   4.424   4.204
 2639SOL    HW1 7919   4.151   4.334   4.201
 2639SOL    HW2 7920   4.012   4.413   4.237
 2640SOL     OW 7921   4.338   3.846   3.841
 2640SOL    HW1 7922   4.436   3.824   3.848
 2640SOL    HW2 7923   4.307   3.829   3.748
 2641SOL     OW 7924   4.021   3.759   3.895
 2641SOL    HW1 7925   4.070   3.843   3.874
 2641SOL    HW2 7926   4.083   3.694   3.940
 2642SOL     OW 7927   4.031   3.787   4.342
 2642SOL    HW1 7928   4.020   3.881   4.375
 2642SOL    HW2 7929   4.026   3.724   4.419
 2643SOL     OW 7930   4.539   4.296   4.049
 2643SOL    HW1 7931   4.546   4.207   4.003
 2643SOL    HW2 7932   4.445   4.330   4.041
 2644SOL     OW 7933   3.799   4.069   3.757
 2644SOL    HW1 7934   3.707   4.041   3.728
 2644SOL    HW2 7935   3.830   4.146   3.701
 2645SOL     OW 7936   3.796   3.890   4.042
 2645SOL    HW1 7937   3.779   3.973   3.988
 2645SOL    HW2 7938   3.886   3.853   4.020
 2646SOL     OW 7939   4.152   4.148   4.244
 2646SOL    HW1 7940   4.182   4.076   4.182
 2646SOL    HW2 7941   4.113   4.108   4.327
   4.33159   4.33159   4.33159
