mobley_5494918_GMX.gro created by acpype (v: 2023.10.27) on Wed May 20 23:55:03 2026
 8802
    1MOL     C1    1   2.260   2.239   2.285
    1MOL     C2    2   2.143   2.192   2.330
    1MOL     C3    3   2.292   2.267   2.142
    1MOL     F1    4   2.357   2.263   2.376
    1MOL     F2    5   2.123   2.170   2.462
    1MOL     F3    6   2.043   2.166   2.242
    1MOL     F4    7   2.417   2.314   2.123
    1MOL     F5    8   2.280   2.155   2.067
    1MOL     F6    9   2.207   2.359   2.090
    2SOL     OW   10   0.230   0.628   0.113
    2SOL    HW1   11   0.137   0.626   0.150
    2SOL    HW2   12   0.231   0.589   0.021
    3SOL     OW   13   0.225   0.275   0.996
    3SOL    HW1   14   0.260   0.258   1.088
    3SOL    HW2   15   0.137   0.230   0.984
    4SOL     OW   16   0.019   0.368   0.647
    4SOL    HW1   17  -0.063   0.411   0.686
    4SOL    HW2   18  -0.009   0.295   0.584
    5SOL     OW   19   0.569   1.275   1.165
    5SOL    HW1   20   0.476   1.268   1.128
    5SOL    HW2   21   0.580   1.364   1.209
    6SOL     OW   22   1.555   1.511   0.703
    6SOL    HW1   23   1.498   1.495   0.784
    6SOL    HW2   24   1.496   1.521   0.623
    7SOL     OW   25   1.135   0.703   0.717
    7SOL    HW1   26   1.192   0.781   0.692
    7SOL    HW2   27   1.075   0.729   0.793
    8SOL     OW   28   1.755   0.607   0.231
    8SOL    HW1   29   1.743   0.594   0.132
    8SOL    HW2   30   1.725   0.526   0.280
    9SOL     OW   31   0.768   1.144   1.023
    9SOL    HW1   32   0.690   1.161   1.083
    9SOL    HW2   33   0.802   1.231   0.987
   10SOL     OW   34   0.850   0.798   1.823
   10SOL    HW1   35   0.846   0.874   1.888
   10SOL    HW2   36   0.872   0.834   1.732
   11SOL     OW   37   0.685   1.012   0.665
   11SOL    HW1   38   0.754   0.996   0.735
   11SOL    HW2   39   0.612   1.069   0.703
   12SOL     OW   40   0.686   1.161   1.803
   12SOL    HW1   41   0.746   1.240   1.817
   12SOL    HW2   42   0.600   1.192   1.762
   13SOL     OW   43   0.335   1.435   1.061
   13SOL    HW1   44   0.257   1.404   1.008
   13SOL    HW2   45   0.393   1.493   1.004
   14SOL     OW   46   1.460   1.505   1.339
   14SOL    HW1   47   1.484   1.599   1.365
   14SOL    HW2   48   1.444   1.451   1.421
   15SOL     OW   49   0.438   0.392   1.499
   15SOL    HW1   50   0.520   0.336   1.508
   15SOL    HW2   51   0.357   0.334   1.503
   16SOL     OW   52   1.603   0.447   0.737
   16SOL    HW1   53   1.529   0.493   0.687
   16SOL    HW2   54   1.654   0.515   0.790
   17SOL     OW   55   0.231   1.713   0.483
   17SOL    HW1   56   0.265   1.790   0.537
   17SOL    HW2   57   0.275   1.713   0.393
   18SOL     OW   58   1.127   1.341   1.690
   18SOL    HW1   59   1.174   1.341   1.778
   18SOL    HW2   60   1.079   1.254   1.679
   19SOL     OW   61   0.230   1.434   0.538
   19SOL    HW1   62   0.204   1.530   0.538
   19SOL    HW2   63   0.159   1.380   0.583
   20SOL     OW   64   0.240   1.091   0.886
   20SOL    HW1   65   0.254   1.007   0.938
   20SOL    HW2   66   0.185   1.155   0.941
   21SOL     OW   67   0.620   1.786   1.439
   21SOL    HW1   68   0.528   1.769   1.474
   21SOL    HW2   69   0.648   1.878   1.465
   22SOL     OW   70   0.606   0.964   0.123
   22SOL    HW1   71   0.613   1.048   0.069
   22SOL    HW2   72   0.652   0.977   0.211
   23SOL     OW   73   1.594   0.114   1.480
   23SOL    HW1   74   1.576   0.181   1.408
   23SOL    HW2   75   1.591   0.160   1.569
   24SOL     OW   76   0.122   0.643   0.563
   24SOL    HW1   77   0.077   0.555   0.580
   24SOL    HW2   78   0.121   0.697   0.647
   25SOL     OW   79   1.842   1.767   0.359
   25SOL    HW1   80   1.896   1.738   0.439
   25SOL    HW2   81   1.872   1.857   0.330
   26SOL     OW   82   0.027   1.596   0.117
   26SOL    HW1   83   0.008   1.500   0.138
   26SOL    HW2   84  -0.006   1.654   0.192
   27SOL     OW   85   1.689   0.922   0.612
   27SOL    HW1   86   1.784   0.893   0.620
   27SOL    HW2   87   1.681   0.987   0.537
   28SOL     OW   88   1.641   1.108   0.432
   28SOL    HW1   89   1.727   1.110   0.380
   28SOL    HW2   90   1.655   1.155   0.520
   29SOL     OW   91   0.113   0.737   1.597
   29SOL    HW1   92   0.201   0.724   1.642
   29SOL    HW2   93   0.100   0.834   1.575
   30SOL     OW   94   0.613   1.365   0.726
   30SOL    HW1   95   0.564   1.278   0.735
   30SOL    HW2   96   0.590   1.408   0.639
   31SOL     OW   97   1.293   1.228   1.423
   31SOL    HW1   98   1.330   1.155   1.365
   31SOL    HW2   99   1.345   1.233   1.508
   32SOL     OW  100   0.809   0.004   0.502
   32SOL    HW1  101   0.849   0.095   0.493
   32SOL    HW2  102   0.709   0.012   0.508
   33SOL     OW  103   0.197   0.976   1.264
   33SOL    HW1  104   0.286   0.931   1.250
   33SOL    HW2  105   0.124   0.911   1.245
   34SOL     OW  106   1.525   0.999   0.190
   34SOL    HW1  107   1.462   0.923   0.203
   34SOL    HW2  108   1.573   1.017   0.276
   35SOL     OW  109   1.187   1.792   1.616
   35SOL    HW1  110   1.211   1.852   1.540
   35SOL    HW2  111   1.194   1.697   1.586
   36SOL     OW  112   0.317   0.251   1.801
   36SOL    HW1  113   0.388   0.322   1.807
   36SOL    HW2  114   0.229   0.290   1.829
   37SOL     OW  115   1.466   1.417   0.953
   37SOL    HW1  116   1.407   1.423   1.033
   37SOL    HW2  117   1.451   1.329   0.907
   38SOL     OW  118   1.667   1.714   0.572
   38SOL    HW1  119   1.626   1.691   0.484
   38SOL    HW2  120   1.649   1.640   0.637
   39SOL     OW  121   0.598   0.729   0.270
   39SOL    HW1  122   0.622   0.798   0.202
   39SOL    HW2  123   0.520   0.762   0.324
   40SOL     OW  124   1.281   0.345   0.944
   40SOL    HW1  125   1.195   0.295   0.931
   40SOL    HW2  126   1.343   0.291   1.000
   41SOL     OW  127   1.576   1.662   0.307
   41SOL    HW1  128   1.665   1.708   0.310
   41SOL    HW2  129   1.555   1.638   0.212
   42SOL     OW  130   0.807   0.605   1.465
   42SOL    HW1  131   0.760   0.602   1.554
   42SOL    HW2  132   0.756   0.550   1.399
   43SOL     OW  133   1.394   0.469   1.674
   43SOL    HW1  134   1.374   0.512   1.762
   43SOL    HW2  135   1.472   0.407   1.683
   44SOL     OW  136   0.973   0.890   1.572
   44SOL    HW1  137   1.019   0.806   1.543
   44SOL    HW2  138   0.917   0.924   1.497
   45SOL     OW  139   0.991   0.410   1.242
   45SOL    HW1  140   0.914   0.444   1.296
   45SOL    HW2  141   0.957   0.359   1.163
   46SOL     OW  142   1.041   0.701   0.429
   46SOL    HW1  143   1.067   0.697   0.525
   46SOL    HW2  144   0.956   0.650   0.415
   47SOL     OW  145   0.076   0.811   0.789
   47SOL    HW1  146   0.175   0.799   0.798
   47SOL    HW2  147   0.052   0.906   0.810
   48SOL     OW  148   0.130   1.821   1.571
   48SOL    HW1  149   0.120   1.806   1.670
   48SOL    HW2  150   0.044   1.857   1.535
   49SOL     OW  151   0.865   0.348   0.195
   49SOL    HW1  152   0.924   0.411   0.146
   49SOL    HW2  153   0.884   0.254   0.166
   50SOL     OW  154   1.719   0.585   1.831
   50SOL    HW1  155   1.693   0.674   1.795
   50SOL    HW2  156   1.717   0.517   1.758
   51SOL     OW  157   1.362   1.144   0.545
   51SOL    HW1  158   1.445   1.115   0.497
   51SOL    HW2  159   1.313   1.211   0.489
   52SOL     OW  160   0.550   0.196   0.885
   52SOL    HW1  161   0.545   0.191   0.985
   52SOL    HW2  162   0.552   0.292   0.856
   53SOL     OW  163   1.008   1.456   0.477
   53SOL    HW1  164   0.962   1.528   0.425
   53SOL    HW2  165   1.004   1.476   0.575
   54SOL     OW  166   0.351   1.801   0.853
   54SOL    HW1  167   0.401   1.715   0.859
   54SOL    HW2  168   0.416   1.878   0.850
   55SOL     OW  169   1.795   1.066   0.873
   55SOL    HW1  170   1.733   1.051   0.797
   55SOL    HW2  171   1.743   1.077   0.958
   56SOL     OW  172   1.227   1.550   1.506
   56SOL    HW1  173   1.233   1.473   1.570
   56SOL    HW2  174   1.175   1.524   1.426
   57SOL     OW  175   0.321   0.943   0.242
   57SOL    HW1  176   0.403   0.982   0.200
   57SOL    HW2  177   0.294   0.861   0.193
   58SOL     OW  178   1.458   0.735   0.728
   58SOL    HW1  179   1.453   0.670   0.803
   58SOL    HW2  180   1.538   0.794   0.741
   59SOL     OW  181   0.461   1.266   1.727
   59SOL    HW1  182   0.411   1.267   1.641
   59SOL    HW2  183   0.398   1.248   1.803
   60SOL     OW  184   1.111   1.776   0.237
   60SOL    HW1  185   1.051   1.714   0.287
   60SOL    HW2  186   1.142   1.732   0.152
   61SOL     OW  187   0.202   0.285   1.498
   61SOL    HW1  188   0.122   0.345   1.485
   61SOL    HW2  189   0.192   0.236   1.584
   62SOL     OW  190   1.632   1.377   0.081
   62SOL    HW1  191   1.600   1.471   0.071
   62SOL    HW2  192   1.556   1.314   0.069
   63SOL     OW  193   0.464   1.743   0.323
   63SOL    HW1  194   0.497   1.782   0.409
   63SOL    HW2  195   0.540   1.736   0.258
   64SOL     OW  196   1.400   0.107   0.426
   64SOL    HW1  197   1.376   0.070   0.336
   64SOL    HW2  198   1.499   0.123   0.430
   65SOL     OW  199   0.249   1.785   1.241
   65SOL    HW1  200   0.306   1.720   1.291
   65SOL    HW2  201   0.233   1.752   1.148
   66SOL     OW  202   0.940   1.698   0.904
   66SOL    HW1  203   1.020   1.641   0.925
   66SOL    HW2  204   0.891   1.658   0.827
   67SOL     OW  205   0.382   0.700   0.480
   67SOL    HW1  206   0.427   0.610   0.477
   67SOL    HW2  207   0.288   0.689   0.513
   68SOL     OW  208   1.547   0.222   1.729
   68SOL    HW1  209   1.542   0.259   1.821
   68SOL    HW2  210   1.475   0.153   1.717
   69SOL     OW  211   0.614   0.122   0.117
   69SOL    HW1  212   0.712   0.100   0.124
   69SOL    HW2  213   0.583   0.105   0.024
   70SOL     OW  214   0.781   0.264   1.749
   70SOL    HW1  215   0.848   0.203   1.792
   70SOL    HW2  216   0.708   0.283   1.814
   71SOL     OW  217   0.888   1.514   1.195
   71SOL    HW1  218   0.865   1.489   1.101
   71SOL    HW2  219   0.949   1.445   1.234
   72SOL     OW  220   1.351   0.590   1.433
   72SOL    HW1  221   1.379   0.547   1.518
   72SOL    HW2  222   1.376   0.686   1.434
   73SOL     OW  223   0.803   1.402   0.924
   73SOL    HW1  224   0.893   1.416   0.882
   73SOL    HW2  225   0.732   1.404   0.853
   74SOL     OW  226   0.922   0.503   0.899
   74SOL    HW1  227   0.897   0.494   0.803
   74SOL    HW2  228   0.970   0.421   0.930
   75SOL     OW  229   0.539   0.064   0.512
   75SOL    HW1  230   0.458   0.065   0.570
   75SOL    HW2  231   0.542   0.147   0.457
   76SOL     OW  232   1.434   1.188   0.041
   76SOL    HW1  233   1.466   1.112   0.098
   76SOL    HW2  234   1.342   1.215   0.071
   77SOL     OW  235   0.297   0.035   0.171
   77SOL    HW1  236   0.346   0.119   0.150
   77SOL    HW2  237   0.359  -0.030   0.216
   78SOL     OW  238   0.935   0.236   0.480
   78SOL    HW1  239   0.887   0.277   0.402
   78SOL    HW2  240   1.034   0.234   0.461
   79SOL     OW  241   1.076   0.683   1.464
   79SOL    HW1  242   0.996   0.622   1.467
   79SOL    HW2  243   1.157   0.630   1.440
   80SOL     OW  244   1.227   1.570   0.793
   80SOL    HW1  245   1.248   1.644   0.728
   80SOL    HW2  246   1.295   1.570   0.866
   81SOL     OW  247   0.459   1.152   0.741
   81SOL    HW1  248   0.388   1.125   0.806
   81SOL    HW2  249   0.433   1.124   0.648
   82SOL     OW  250   1.271   1.797   0.591
   82SOL    HW1  251   1.315   1.861   0.527
   82SOL    HW2  252   1.221   1.849   0.661
   83SOL     OW  253   1.032   0.549   0.016
   83SOL    HW1  254   0.991   0.631  -0.023
   83SOL    HW2  255   1.096   0.575   0.089
   84SOL     OW  256   0.078   0.556   1.386
   84SOL    HW1  257   0.170   0.555   1.345
   84SOL    HW2  258   0.072   0.630   1.453
   85SOL     OW  259   0.561   0.222   1.147
   85SOL    HW1  260   0.599   0.138   1.184
   85SOL    HW2  261   0.473   0.241   1.191
   86SOL     OW  262   0.866   0.454   0.642
   86SOL    HW1  263   0.834   0.526   0.580
   86SOL    HW2  264   0.890   0.373   0.589
   87SOL     OW  265   1.017   0.039   0.753
   87SOL    HW1  266   0.945   0.044   0.684
   87SOL    HW2  267   0.993  -0.030   0.822
   88SOL     OW  268   1.429   1.173   0.867
   88SOL    HW1  269   1.374   1.089   0.860
   88SOL    HW2  270   1.455   1.202   0.775
   89SOL     OW  271   1.466   0.590   0.992
   89SOL    HW1  272   1.436   0.495   0.999
   89SOL    HW2  273   1.539   0.606   1.058
   90SOL     OW  274   1.857   0.833   0.377
   90SOL    HW1  275   1.899   0.769   0.441
   90SOL    HW2  276   1.819   0.782   0.299
   91SOL     OW  277   0.488   1.385   0.174
   91SOL    HW1  278   0.401   1.370   0.221
   91SOL    HW2  279   0.471   1.411   0.079
   92SOL     OW  280   1.664   1.280   0.657
   92SOL    HW1  281   1.763   1.288   0.671
   92SOL    HW2  282   1.619   1.364   0.688
   93SOL     OW  283   1.390   0.575   0.078
   93SOL    HW1  284   1.336   0.554   0.159
   93SOL    HW2  285   1.481   0.534   0.087
   94SOL     OW  286   0.527   0.256   0.328
   94SOL    HW1  287   0.554   0.197   0.253
   94SOL    HW2  288   0.527   0.351   0.297
   95SOL     OW  289   1.754   1.223   1.588
   95SOL    HW1  290   1.845   1.184   1.575
   95SOL    HW2  291   1.762   1.319   1.612
   96SOL     OW  292   1.064   1.347   1.340
   96SOL    HW1  293   0.984   1.324   1.395
   96SOL    HW2  294   1.147   1.321   1.389
   97SOL     OW  295   1.592   1.629   1.625
   97SOL    HW1  296   1.619   1.663   1.535
   97SOL    HW2  297   1.671   1.591   1.671
   98SOL     OW  298   1.111   1.195   1.100
   98SOL    HW1  299   1.071   1.239   1.181
   98SOL    HW2  300   1.070   1.232   1.017
   99SOL     OW  301   1.638   1.099   1.079
   99SOL    HW1  302   1.643   1.180   1.138
   99SOL    HW2  303   1.552   1.101   1.028
  100SOL     OW  304   0.915   0.089   1.402
  100SOL    HW1  305   0.940   0.069   1.307
  100SOL    HW2  306   0.987   0.145   1.444
  101SOL     OW  307   0.980   1.116   1.719
  101SOL    HW1  308   0.881   1.122   1.729
  101SOL    HW2  309   1.003   1.036   1.663
  102SOL     OW  310   0.705   1.050   0.368
  102SOL    HW1  311   0.691   1.057   0.467
  102SOL    HW2  312   0.789   0.999   0.350
  103SOL     OW  313   0.410   0.813   1.251
  103SOL    HW1  314   0.496   0.825   1.301
  103SOL    HW2  315   0.368   0.726   1.278
  104SOL     OW  316   1.274   0.386   1.262
  104SOL    HW1  317   1.295   0.460   1.326
  104SOL    HW2  318   1.185   0.403   1.219
  105SOL     OW  319   0.064   1.564   1.331
  105SOL    HW1  320   0.018   1.646   1.297
  105SOL    HW2  321   0.162   1.583   1.340
  106SOL     OW  322   0.367   1.100   0.501
  106SOL    HW1  323   0.360   1.183   0.445
  106SOL    HW2  324   0.371   1.020   0.441
  107SOL     OW  325   0.566   0.537   0.865
  107SOL    HW1  326   0.578   0.603   0.791
  107SOL    HW2  327   0.612   0.571   0.948
  108SOL     OW  328   1.252   1.348   0.388
  108SOL    HW1  329   1.302   1.425   0.428
  108SOL    HW2  330   1.157   1.350   0.420
  109SOL     OW  331   1.272   1.445   1.142
  109SOL    HW1  332   1.319   1.458   1.229
  109SOL    HW2  333   1.206   1.371   1.151
  110SOL     OW  334   1.582   0.639   0.472
  110SOL    HW1  335   1.551   0.700   0.545
  110SOL    HW2  336   1.632   0.691   0.403
  111SOL     OW  337   0.354   1.510   1.329
  111SOL    HW1  338   0.333   1.466   1.242
  111SOL    HW2  339   0.451   1.536   1.332
  112SOL     OW  340   0.402   0.751   1.598
  112SOL    HW1  341   0.470   0.806   1.551
  112SOL    HW2  342   0.442   0.663   1.625
  113SOL     OW  343   1.587   0.779   1.670
  113SOL    HW1  344   1.495   0.817   1.665
  113SOL    HW2  345   1.647   0.826   1.605
  114SOL     OW  346   1.013   0.105   1.770
  114SOL    HW1  347   1.019   0.190   1.718
  114SOL    HW2  348   1.045   0.029   1.713
  115SOL     OW  349   0.504   0.050   1.740
  115SOL    HW1  350   0.462  -0.007   1.670
  115SOL    HW2  351   0.438   0.119   1.772
  116SOL     OW  352   0.573   0.870   1.029
  116SOL    HW1  353   0.617   0.959   1.020
  116SOL    HW2  354   0.510   0.870   1.106
  117SOL     OW  355   1.360   0.862   1.045
  117SOL    HW1  356   1.285   0.862   0.979
  117SOL    HW2  357   1.397   0.770   1.054
  118SOL     OW  358   1.209   0.525   0.275
  118SOL    HW1  359   1.222   0.441   0.329
  118SOL    HW2  360   1.180   0.599   0.335
  119SOL     OW  361   0.307   0.213   1.231
  119SOL    HW1  362   0.284   0.250   1.321
  119SOL    HW2  363   0.277   0.118   1.225
  120SOL     OW  364   0.037   1.310   1.282
  120SOL    HW1  365   0.090   1.261   1.350
  120SOL    HW2  366   0.059   1.408   1.287
  121SOL     OW  367   0.732   0.634   1.064
  121SOL    HW1  368   0.791   0.608   0.988
  121SOL    HW2  369   0.704   0.730   1.053
  122SOL     OW  370   1.728   0.935   1.854
  122SOL    HW1  371   1.682   0.928   1.765
  122SOL    HW2  372   1.666   0.979   1.920
  123SOL     OW  373   0.307   0.063   0.618
  123SOL    HW1  374   0.296   0.157   0.651
  123SOL    HW2  375   0.302   0.000   0.695
  124SOL     OW  376   1.622   0.367   0.374
  124SOL    HW1  377   1.624   0.291   0.438
  124SOL    HW2  378   1.574   0.444   0.414
  125SOL     OW  379   1.023   0.766   0.966
  125SOL    HW1  380   1.038   0.787   1.062
  125SOL    HW2  381   0.993   0.671   0.957
  126SOL     OW  382   0.980   1.573   1.700
  126SOL    HW1  383   0.960   1.617   1.612
  126SOL    HW2  384   1.019   1.482   1.684
  127SOL     OW  385   1.859   1.518   1.605
  127SOL    HW1  386   1.873   1.545   1.510
  127SOL    HW2  387   1.942   1.540   1.658
  128SOL     OW  388   0.350   0.898   1.804
  128SOL    HW1  389   0.426   0.942   1.852
  128SOL    HW2  390   0.385   0.851   1.722
  129SOL     OW  391   1.540   0.274   0.125
  129SOL    HW1  392   1.479   0.199   0.148
  129SOL    HW2  393   1.562   0.326   0.208
  130SOL     OW  394   1.303   0.838   0.042
  130SOL    HW1  395   1.337   0.745   0.057
  130SOL    HW2  396   1.321   0.865  -0.053
  131SOL     OW  397   1.068   1.333   0.849
  131SOL    HW1  398   1.075   1.249   0.794
  131SOL    HW2  399   1.130   1.402   0.813
  132SOL     OW  400   0.319   0.810   0.949
  132SOL    HW1  401   0.412   0.846   0.954
  132SOL    HW2  402   0.313   0.725   1.001
  133SOL     OW  403   0.339   0.509   1.006
  133SOL    HW1  404   0.287   0.426   0.989
  133SOL    HW2  405   0.416   0.514   0.942
  134SOL     OW  406   1.138   0.380   1.678
  134SOL    HW1  407   1.093   0.443   1.742
  134SOL    HW2  408   1.231   0.411   1.661
  135SOL     OW  409   1.160   0.207   1.477
  135SOL    HW1  410   1.160   0.271   1.554
  135SOL    HW2  411   1.188   0.255   1.394
  136SOL     OW  412   0.008   1.326   0.200
  136SOL    HW1  413  -0.085   1.347   0.169
  136SOL    HW2  414   0.018   1.227   0.213
  137SOL     OW  415   0.088   1.801   0.927
  137SOL    HW1  416   0.046   1.715   0.900
  137SOL    HW2  417   0.182   1.804   0.893
  138SOL     OW  418   0.504   1.568   0.910
  138SOL    HW1  419   0.570   1.642   0.919
  138SOL    HW2  420   0.548   1.489   0.868
  139SOL     OW  421   1.002   0.796   1.238
  139SOL    HW1  422   1.043   0.764   1.324
  139SOL    HW2  423   0.906   0.769   1.235
  140SOL     OW  424   0.040   0.544   1.114
  140SOL    HW1  425   0.125   0.511   1.073
  140SOL    HW2  426   0.053   0.559   1.212
  141SOL     OW  427   0.189   0.520   1.722
  141SOL    HW1  428   0.248   0.480   1.652
  141SOL    HW2  429   0.131   0.591   1.681
  142SOL     OW  430   1.369   0.950   1.660
  142SOL    HW1  431   1.408   1.039   1.680
  142SOL    HW2  432   1.379   0.930   1.563
  143SOL     OW  433   0.815   0.572   0.325
  143SOL    HW1  434   0.822   0.483   0.279
  143SOL    HW2  435   0.721   0.606   0.317
  144SOL     OW  436   1.657   0.604   1.206
  144SOL    HW1  437   1.619   0.535   1.268
  144SOL    HW2  438   1.739   0.568   1.162
  145SOL     OW  439   0.252   1.564   1.744
  145SOL    HW1  440   0.222   1.621   1.820
  145SOL    HW2  441   0.245   1.467   1.770
  146SOL     OW  442   0.671   0.464   1.269
  146SOL    HW1  443   0.637   0.375   1.239
  146SOL    HW2  444   0.697   0.518   1.189
  147SOL     OW  445   0.930   1.678   1.465
  147SOL    HW1  446   0.906   1.660   1.370
  147SOL    HW2  447   0.960   1.772   1.475
  148SOL     OW  448   0.473   0.500   0.191
  148SOL    HW1  449   0.534   0.580   0.195
  148SOL    HW2  450   0.378   0.531   0.198
  149SOL     OW  451   0.159   1.137   1.466
  149SOL    HW1  452   0.181   1.076   1.542
  149SOL    HW2  453   0.169   1.088   1.380
  150SOL     OW  454   1.347   1.059   1.234
  150SOL    HW1  455   1.371   0.996   1.160
  150SOL    HW2  456   1.257   1.099   1.216
  151SOL     OW  457   1.302   0.855   0.309
  151SOL    HW1  458   1.216   0.824   0.351
  151SOL    HW2  459   1.298   0.841   0.210
  152SOL     OW  460   1.759   1.747   1.154
  152SOL    HW1  461   1.820   1.777   1.081
  152SOL    HW2  462   1.721   1.658   1.132
  153SOL     OW  463   1.252   1.731   1.128
  153SOL    HW1  464   1.336   1.736   1.074
  153SOL    HW2  465   1.229   1.635   1.146
  154SOL     OW  466   0.083   1.258   1.022
  154SOL    HW1  467   0.078   1.257   1.122
  154SOL    HW2  468   0.000   1.217   0.984
  155SOL     OW  469   0.688   1.662   1.716
  155SOL    HW1  470   0.632   1.743   1.725
  155SOL    HW2  471   0.740   1.666   1.630
  156SOL     OW  472   0.903   0.086   0.133
  156SOL    HW1  473   0.954   0.087   0.047
  156SOL    HW2  474   0.959   0.044   0.204
  157SOL     OW  475   1.726   0.135   0.523
  157SOL    HW1  476   1.799   0.118   0.456
  157SOL    HW2  477   1.695   0.048   0.561
  158SOL     OW  478   1.388   1.573   0.477
  158SOL    HW1  479   1.455   1.585   0.403
  158SOL    HW2  480   1.348   1.662   0.500
  159SOL     OW  481   0.130   1.794   1.851
  159SOL    HW1  482   0.089   1.720   1.904
  159SOL    HW2  483   0.194   1.845   1.909
  160SOL     OW  484   1.280   0.927   0.672
  160SOL    HW1  485   1.340   0.846   0.674
  160SOL    HW2  486   1.320   0.996   0.612
  161SOL     OW  487   0.830   1.273   1.422
  161SOL    HW1  488   0.825   1.306   1.517
  161SOL    HW2  489   0.744   1.292   1.376
  162SOL     OW  490   0.672   1.616   0.154
  162SOL    HW1  491   0.681   1.626   0.055
  162SOL    HW2  492   0.632   1.527   0.175
  163SOL     OW  493   1.650   1.720   1.394
  163SOL    HW1  494   1.703   1.730   1.310
  163SOL    HW2  495   1.623   1.810   1.428
  164SOL     OW  496   1.841   0.175   0.963
  164SOL    HW1  497   1.880   0.090   0.927
  164SOL    HW2  498   1.743   0.177   0.944
  165SOL     OW  499   0.263   0.326   0.720
  165SOL    HW1  500   0.184   0.377   0.686
  165SOL    HW2  501   0.254   0.311   0.818
  166SOL     OW  502   1.194   1.612   0.031
  166SOL    HW1  503   1.200   1.519   0.068
  166SOL    HW2  504   1.135   1.612  -0.049
  167SOL     OW  505   0.822   1.002   1.372
  167SOL    HW1  506   0.862   1.001   1.280
  167SOL    HW2  507   0.832   1.094   1.412
  168SOL     OW  508   0.916   0.910   0.291
  168SOL    HW1  509   0.979   0.948   0.223
  168SOL    HW2  510   0.956   0.827   0.330
  169SOL     OW  511   1.504   1.607   0.044
  169SOL    HW1  512   1.412   1.644   0.051
  169SOL    HW2  513   1.542   1.627  -0.046
  170SOL     OW  514   0.372   1.288   1.490
  170SOL    HW1  515   0.359   1.381   1.456
  170SOL    HW2  516   0.288   1.236   1.477
  171SOL     OW  517   1.614   1.292   1.289
  171SOL    HW1  518   1.674   1.295   1.369
  171SOL    HW2  519   1.539   1.356   1.302
  172SOL     OW  520   1.039   1.098   0.696
  172SOL    HW1  521   0.969   1.051   0.750
  172SOL    HW2  522   1.098   1.030   0.653
  173SOL     OW  523   1.014   0.236   0.971
  173SOL    HW1  524   1.006   0.200   0.878
  173SOL    HW2  525   1.012   0.160   1.036
  174SOL     OW  526   0.590   1.487   0.491
  174SOL    HW1  527   0.632   1.429   0.421
  174SOL    HW2  528   0.546   1.566   0.447
  175SOL     OW  529   1.709   0.385   1.381
  175SOL    HW1  530   1.782   0.454   1.385
  175SOL    HW2  531   1.737   0.310   1.322
  176SOL     OW  532   0.255   1.348   0.290
  176SOL    HW1  533   0.159   1.349   0.263
  176SOL    HW2  534   0.267   1.401   0.374
  177SOL     OW  535   0.105   1.013   1.726
  177SOL    HW1  536   0.028   0.980   1.780
  177SOL    HW2  537   0.190   0.983   1.768
  178SOL     OW  538   0.672   0.203   1.489
  178SOL    HW1  539   0.762   0.187   1.449
  178SOL    HW2  540   0.680   0.208   1.588
  179SOL     OW  541   0.075   0.345   0.033
  179SOL    HW1  542  -0.017   0.317   0.004
  179SOL    HW2  543   0.106   0.422  -0.023
  180SOL     OW  544   1.440   0.856   1.398
  180SOL    HW1  545   1.383   0.908   1.335
  180SOL    HW2  546   1.536   0.868   1.374
  181SOL     OW  547   0.072   0.166   0.318
  181SOL    HW1  548   0.055   0.249   0.264
  181SOL    HW2  549   0.162   0.129   0.296
  182SOL     OW  550   1.183   1.335   0.119
  182SOL    HW1  551   1.084   1.324   0.121
  182SOL    HW2  552   1.217   1.350   0.212
  183SOL     OW  553   0.613   0.842   1.431
  183SOL    HW1  554   0.669   0.923   1.414
  183SOL    HW2  555   0.672   0.762   1.434
  184SOL     OW  556   1.493   1.767   0.959
  184SOL    HW1  557   1.526   1.831   0.890
  184SOL    HW2  558   1.559   1.761   1.034
  185SOL     OW  559   0.716   0.565   1.708
  185SOL    HW1  560   0.735   0.630   1.782
  185SOL    HW2  561   0.776   0.485   1.717
  186SOL     OW  562   1.450   1.220   1.633
  186SOL    HW1  563   1.441   1.210   1.732
  186SOL    HW2  564   1.546   1.213   1.607
  187SOL     OW  565   0.390   1.741   1.560
  187SOL    HW1  566   0.299   1.782   1.558
  187SOL    HW2  567   0.383   1.647   1.592
  188SOL     OW  568   1.674   0.883   1.254
  188SOL    HW1  569   1.647   0.794   1.217
  188SOL    HW2  570   1.675   0.951   1.181
  189SOL     OW  571   1.225   0.325   0.449
  189SOL    HW1  572   1.290   0.251   0.438
  189SOL    HW2  573   1.245   0.375   0.533
  190SOL     OW  574   0.594   0.745   0.652
  190SOL    HW1  575   0.644   0.830   0.633
  190SOL    HW2  576   0.506   0.747   0.604
  191SOL     OW  577   1.777   0.342   1.642
  191SOL    HW1  578   1.760   0.373   1.548
  191SOL    HW2  579   1.693   0.305   1.680
  192SOL     OW  580   1.730   0.934   1.517
  192SOL    HW1  581   1.768   1.025   1.532
  192SOL    HW2  582   1.722   0.917   1.418
  193SOL     OW  583   0.859   1.374   0.016
  193SOL    HW1  584   0.813   1.389   0.104
  193SOL    HW2  585   0.903   1.459  -0.014
  194SOL     OW  586   0.661   1.790   0.953
  194SOL    HW1  587   0.615   1.878   0.940
  194SOL    HW2  588   0.760   1.802   0.946
  195SOL     OW  589   0.859   0.956   0.861
  195SOL    HW1  590   0.913   0.887   0.909
  195SOL    HW2  591   0.827   1.025   0.927
  196SOL     OW  592   1.083   0.984   0.087
  196SOL    HW1  593   1.060   1.037   0.005
  196SOL    HW2  594   1.164   0.928   0.068
  197SOL     OW  595   1.861   1.569   0.851
  197SOL    HW1  596   1.790   1.557   0.781
  197SOL    HW2  597   1.862   1.490   0.911
  198SOL     OW  598   0.221   1.314   1.844
  198SOL    HW1  599   0.156   1.241   1.823
  198SOL    HW2  600   0.225   1.328   1.942
  199SOL     OW  601   0.079   1.240   0.653
  199SOL    HW1  602   0.078   1.193   0.741
  199SOL    HW2  603   0.161   1.212   0.602
  200SOL     OW  604   0.672   1.391   1.624
  200SOL    HW1  605   0.594   1.341   1.662
  200SOL    HW2  606   0.669   1.486   1.655
  201SOL     OW  607   1.824   0.192   1.227
  201SOL    HW1  608   1.820   0.102   1.271
  201SOL    HW2  609   1.827   0.181   1.128
  202SOL     OW  610   0.428   0.424   0.520
  202SOL    HW1  611   0.458   0.352   0.458
  202SOL    HW2  612   0.389   0.384   0.603
  203SOL     OW  613   1.705   1.487   1.104
  203SOL    HW1  614   1.612   1.462   1.077
  203SOL    HW2  615   1.731   1.437   1.186
  204SOL     OW  616   0.317   0.547   1.280
  204SOL    HW1  617   0.355   0.488   1.352
  204SOL    HW2  618   0.357   0.521   1.192
  205SOL     OW  619   0.812   1.586   0.687
  205SOL    HW1  620   0.844   1.596   0.593
  205SOL    HW2  621   0.733   1.524   0.689
  206SOL     OW  622   1.424   0.214   1.112
  206SOL    HW1  623   1.476   0.149   1.167
  206SOL    HW2  624   1.375   0.277   1.173
  207SOL     OW  625   1.001   0.034   1.154
  207SOL    HW1  626   0.938  -0.038   1.123
  207SOL    HW2  627   1.094  -0.002   1.154
  208SOL     OW  628   0.770   1.330   0.301
  208SOL    HW1  629   0.724   1.243   0.318
  208SOL    HW2  630   0.861   1.327   0.342
  209SOL     OW  631   0.618   1.567   1.284
  209SOL    HW1  632   0.613   1.649   1.341
  209SOL    HW2  633   0.707   1.564   1.239
  210SOL     OW  634   1.352   0.052   0.168
  210SOL    HW1  635   1.387   0.011   0.084
  210SOL    HW2  636   1.262   0.014   0.188
  211SOL     OW  637   1.300   0.453   0.691
  211SOL    HW1  638   1.241   0.533   0.695
  211SOL    HW2  639   1.315   0.418   0.784
  212SOL     OW  640   1.593   0.221   0.882
  212SOL    HW1  641   1.509   0.220   0.936
  212SOL    HW2  642   1.595   0.304   0.826
  213SOL     OW  643   0.039   1.077   0.300
  213SOL    HW1  644   0.138   1.066   0.291
  213SOL    HW2  645  -0.001   0.991   0.332
  214SOL     OW  646   0.875   1.646   0.337
  214SOL    HW1  647   0.798   1.611   0.283
  214SOL    HW2  648   0.843   1.717   0.399
  215SOL     OW  649   0.230   0.628   1.975
  215SOL    HW1  650   0.137   0.626   2.012
  215SOL    HW2  651   0.231   0.589   1.883
  216SOL     OW  652   0.225   0.275   2.858
  216SOL    HW1  653   0.260   0.258   2.950
  216SOL    HW2  654   0.137   0.230   2.846
  217SOL     OW  655   0.019   0.368   2.509
  217SOL    HW1  656  -0.063   0.411   2.548
  217SOL    HW2  657  -0.009   0.295   2.446
  218SOL     OW  658   0.569   1.275   3.027
  218SOL    HW1  659   0.476   1.268   2.990
  218SOL    HW2  660   0.580   1.364   3.071
  219SOL     OW  661   1.555   1.511   2.565
  219SOL    HW1  662   1.498   1.495   2.646
  219SOL    HW2  663   1.496   1.521   2.485
  220SOL     OW  664   1.135   0.703   2.579
  220SOL    HW1  665   1.192   0.781   2.554
  220SOL    HW2  666   1.075   0.729   2.655
  221SOL     OW  667   1.755   0.607   2.093
  221SOL    HW1  668   1.743   0.594   1.994
  221SOL    HW2  669   1.725   0.526   2.142
  222SOL     OW  670   0.768   1.144   2.885
  222SOL    HW1  671   0.690   1.161   2.945
  222SOL    HW2  672   0.802   1.231   2.849
  223SOL     OW  673   0.850   0.798   3.685
  223SOL    HW1  674   0.846   0.874   3.750
  223SOL    HW2  675   0.872   0.834   3.594
  224SOL     OW  676   0.685   1.012   2.527
  224SOL    HW1  677   0.754   0.996   2.597
  224SOL    HW2  678   0.612   1.069   2.565
  225SOL     OW  679   0.686   1.161   3.665
  225SOL    HW1  680   0.746   1.240   3.679
  225SOL    HW2  681   0.600   1.192   3.624
  226SOL     OW  682   0.335   1.435   2.923
  226SOL    HW1  683   0.257   1.404   2.870
  226SOL    HW2  684   0.393   1.493   2.866
  227SOL     OW  685   1.460   1.505   3.201
  227SOL    HW1  686   1.484   1.599   3.227
  227SOL    HW2  687   1.444   1.451   3.283
  228SOL     OW  688   0.438   0.392   3.361
  228SOL    HW1  689   0.520   0.336   3.370
  228SOL    HW2  690   0.357   0.334   3.365
  229SOL     OW  691   1.603   0.447   2.599
  229SOL    HW1  692   1.529   0.493   2.549
  229SOL    HW2  693   1.654   0.515   2.652
  230SOL     OW  694   0.231   1.713   2.345
  230SOL    HW1  695   0.265   1.790   2.399
  230SOL    HW2  696   0.275   1.713   2.255
  231SOL     OW  697   1.127   1.341   3.552
  231SOL    HW1  698   1.174   1.341   3.640
  231SOL    HW2  699   1.079   1.254   3.541
  232SOL     OW  700   0.230   1.434   2.400
  232SOL    HW1  701   0.204   1.530   2.400
  232SOL    HW2  702   0.159   1.380   2.445
  233SOL     OW  703   0.240   1.091   2.748
  233SOL    HW1  704   0.254   1.007   2.800
  233SOL    HW2  705   0.185   1.155   2.803
  234SOL     OW  706   0.620   1.786   3.301
  234SOL    HW1  707   0.528   1.769   3.336
  234SOL    HW2  708   0.648   1.878   3.327
  235SOL     OW  709   0.606   0.964   1.985
  235SOL    HW1  710   0.613   1.048   1.931
  235SOL    HW2  711   0.652   0.977   2.073
  236SOL     OW  712   1.594   0.114   3.342
  236SOL    HW1  713   1.576   0.181   3.270
  236SOL    HW2  714   1.591   0.160   3.431
  237SOL     OW  715   0.122   0.643   2.425
  237SOL    HW1  716   0.077   0.555   2.442
  237SOL    HW2  717   0.121   0.697   2.509
  238SOL     OW  718   1.842   1.767   2.221
  238SOL    HW1  719   1.896   1.738   2.301
  238SOL    HW2  720   1.872   1.857   2.192
  239SOL     OW  721   0.027   1.596   1.979
  239SOL    HW1  722   0.008   1.500   2.000
  239SOL    HW2  723  -0.006   1.654   2.054
  240SOL     OW  724   1.689   0.922   2.474
  240SOL    HW1  725   1.784   0.893   2.482
  240SOL    HW2  726   1.681   0.987   2.399
  241SOL     OW  727   1.641   1.108   2.294
  241SOL    HW1  728   1.727   1.110   2.242
  241SOL    HW2  729   1.655   1.155   2.382
  242SOL     OW  730   0.113   0.737   3.459
  242SOL    HW1  731   0.201   0.724   3.504
  242SOL    HW2  732   0.100   0.834   3.437
  243SOL     OW  733   0.613   1.365   2.588
  243SOL    HW1  734   0.564   1.278   2.597
  243SOL    HW2  735   0.590   1.408   2.501
  244SOL     OW  736   1.293   1.228   3.285
  244SOL    HW1  737   1.330   1.155   3.227
  244SOL    HW2  738   1.345   1.233   3.370
  245SOL     OW  739   0.809   0.004   2.364
  245SOL    HW1  740   0.849   0.095   2.355
  245SOL    HW2  741   0.709   0.012   2.370
  246SOL     OW  742   0.197   0.976   3.126
  246SOL    HW1  743   0.286   0.931   3.112
  246SOL    HW2  744   0.124   0.911   3.107
  247SOL     OW  745   1.525   0.999   2.052
  247SOL    HW1  746   1.462   0.923   2.065
  247SOL    HW2  747   1.573   1.017   2.138
  248SOL     OW  748   1.187   1.792   3.478
  248SOL    HW1  749   1.211   1.852   3.402
  248SOL    HW2  750   1.194   1.697   3.448
  249SOL     OW  751   0.317   0.251   3.663
  249SOL    HW1  752   0.388   0.322   3.669
  249SOL    HW2  753   0.229   0.290   3.691
  250SOL     OW  754   1.466   1.417   2.815
  250SOL    HW1  755   1.407   1.423   2.895
  250SOL    HW2  756   1.451   1.329   2.769
  251SOL     OW  757   1.667   1.714   2.434
  251SOL    HW1  758   1.626   1.691   2.346
  251SOL    HW2  759   1.649   1.640   2.499
  252SOL     OW  760   0.598   0.729   2.132
  252SOL    HW1  761   0.622   0.798   2.064
  252SOL    HW2  762   0.520   0.762   2.186
  253SOL     OW  763   1.281   0.345   2.806
  253SOL    HW1  764   1.195   0.295   2.793
  253SOL    HW2  765   1.343   0.291   2.862
  254SOL     OW  766   1.576   1.662   2.169
  254SOL    HW1  767   1.665   1.708   2.172
  254SOL    HW2  768   1.555   1.638   2.074
  255SOL     OW  769   0.807   0.605   3.327
  255SOL    HW1  770   0.760   0.602   3.416
  255SOL    HW2  771   0.756   0.550   3.261
  256SOL     OW  772   1.394   0.469   3.536
  256SOL    HW1  773   1.374   0.512   3.624
  256SOL    HW2  774   1.472   0.407   3.545
  257SOL     OW  775   0.973   0.890   3.434
  257SOL    HW1  776   1.019   0.806   3.405
  257SOL    HW2  777   0.917   0.924   3.359
  258SOL     OW  778   0.991   0.410   3.104
  258SOL    HW1  779   0.914   0.444   3.158
  258SOL    HW2  780   0.957   0.359   3.025
  259SOL     OW  781   1.041   0.701   2.291
  259SOL    HW1  782   1.067   0.697   2.387
  259SOL    HW2  783   0.956   0.650   2.277
  260SOL     OW  784   0.076   0.811   2.651
  260SOL    HW1  785   0.175   0.799   2.660
  260SOL    HW2  786   0.052   0.906   2.672
  261SOL     OW  787   0.130   1.821   3.433
  261SOL    HW1  788   0.120   1.806   3.532
  261SOL    HW2  789   0.044   1.857   3.397
  262SOL     OW  790   0.865   0.348   2.057
  262SOL    HW1  791   0.924   0.411   2.008
  262SOL    HW2  792   0.884   0.254   2.028
  263SOL     OW  793   1.719   0.585   3.693
  263SOL    HW1  794   1.693   0.674   3.657
  263SOL    HW2  795   1.717   0.517   3.620
  264SOL     OW  796   1.362   1.144   2.407
  264SOL    HW1  797   1.445   1.115   2.359
  264SOL    HW2  798   1.313   1.211   2.351
  265SOL     OW  799   0.550   0.196   2.747
  265SOL    HW1  800   0.545   0.191   2.847
  265SOL    HW2  801   0.552   0.292   2.718
  266SOL     OW  802   1.008   1.456   2.339
  266SOL    HW1  803   0.962   1.528   2.287
  266SOL    HW2  804   1.004   1.476   2.437
  267SOL     OW  805   0.351   1.801   2.715
  267SOL    HW1  806   0.401   1.715   2.721
  267SOL    HW2  807   0.416   1.878   2.712
  268SOL     OW  808   1.795   1.066   2.735
  268SOL    HW1  809   1.733   1.051   2.659
  268SOL    HW2  810   1.743   1.077   2.820
  269SOL     OW  811   1.227   1.550   3.368
  269SOL    HW1  812   1.233   1.473   3.432
  269SOL    HW2  813   1.175   1.524   3.288
  270SOL     OW  814   0.321   0.943   2.104
  270SOL    HW1  815   0.403   0.982   2.062
  270SOL    HW2  816   0.294   0.861   2.055
  271SOL     OW  817   1.458   0.735   2.590
  271SOL    HW1  818   1.453   0.670   2.665
  271SOL    HW2  819   1.538   0.794   2.603
  272SOL     OW  820   0.461   1.266   3.589
  272SOL    HW1  821   0.411   1.267   3.503
  272SOL    HW2  822   0.398   1.248   3.665
  273SOL     OW  823   1.111   1.776   2.099
  273SOL    HW1  824   1.051   1.714   2.149
  273SOL    HW2  825   1.142   1.732   2.014
  274SOL     OW  826   0.202   0.285   3.360
  274SOL    HW1  827   0.122   0.345   3.347
  274SOL    HW2  828   0.192   0.236   3.446
  275SOL     OW  829   1.632   1.377   1.943
  275SOL    HW1  830   1.600   1.471   1.933
  275SOL    HW2  831   1.556   1.314   1.931
  276SOL     OW  832   0.464   1.743   2.185
  276SOL    HW1  833   0.497   1.782   2.271
  276SOL    HW2  834   0.540   1.736   2.120
  277SOL     OW  835   1.400   0.107   2.288
  277SOL    HW1  836   1.376   0.070   2.198
  277SOL    HW2  837   1.499   0.123   2.292
  278SOL     OW  838   0.249   1.785   3.103
  278SOL    HW1  839   0.306   1.720   3.153
  278SOL    HW2  840   0.233   1.752   3.010
  279SOL     OW  841   0.940   1.698   2.766
  279SOL    HW1  842   1.020   1.641   2.787
  279SOL    HW2  843   0.891   1.658   2.689
  280SOL     OW  844   0.382   0.700   2.342
  280SOL    HW1  845   0.427   0.610   2.339
  280SOL    HW2  846   0.288   0.689   2.375
  281SOL     OW  847   1.547   0.222   3.591
  281SOL    HW1  848   1.542   0.259   3.683
  281SOL    HW2  849   1.475   0.153   3.579
  282SOL     OW  850   0.614   0.122   1.979
  282SOL    HW1  851   0.712   0.100   1.986
  282SOL    HW2  852   0.583   0.105   1.886
  283SOL     OW  853   0.781   0.264   3.611
  283SOL    HW1  854   0.848   0.203   3.654
  283SOL    HW2  855   0.708   0.283   3.676
  284SOL     OW  856   0.888   1.514   3.057
  284SOL    HW1  857   0.865   1.489   2.963
  284SOL    HW2  858   0.949   1.445   3.096
  285SOL     OW  859   1.351   0.590   3.295
  285SOL    HW1  860   1.379   0.547   3.380
  285SOL    HW2  861   1.376   0.686   3.296
  286SOL     OW  862   0.803   1.402   2.786
  286SOL    HW1  863   0.893   1.416   2.744
  286SOL    HW2  864   0.732   1.404   2.715
  287SOL     OW  865   0.922   0.503   2.761
  287SOL    HW1  866   0.897   0.494   2.665
  287SOL    HW2  867   0.970   0.421   2.792
  288SOL     OW  868   0.539   0.064   2.374
  288SOL    HW1  869   0.458   0.065   2.432
  288SOL    HW2  870   0.542   0.147   2.319
  289SOL     OW  871   1.434   1.188   1.903
  289SOL    HW1  872   1.466   1.112   1.960
  289SOL    HW2  873   1.342   1.215   1.933
  290SOL     OW  874   0.297   0.035   2.033
  290SOL    HW1  875   0.346   0.119   2.012
  290SOL    HW2  876   0.359  -0.030   2.078
  291SOL     OW  877   0.935   0.236   2.342
  291SOL    HW1  878   0.887   0.277   2.264
  291SOL    HW2  879   1.034   0.234   2.323
  292SOL     OW  880   1.076   0.683   3.326
  292SOL    HW1  881   0.996   0.622   3.329
  292SOL    HW2  882   1.157   0.630   3.302
  293SOL     OW  883   1.227   1.570   2.655
  293SOL    HW1  884   1.248   1.644   2.590
  293SOL    HW2  885   1.295   1.570   2.728
  294SOL     OW  886   0.459   1.152   2.603
  294SOL    HW1  887   0.388   1.125   2.668
  294SOL    HW2  888   0.433   1.124   2.510
  295SOL     OW  889   1.271   1.797   2.453
  295SOL    HW1  890   1.315   1.861   2.389
  295SOL    HW2  891   1.221   1.849   2.523
  296SOL     OW  892   1.032   0.549   1.878
  296SOL    HW1  893   0.991   0.631   1.839
  296SOL    HW2  894   1.096   0.575   1.951
  297SOL     OW  895   0.078   0.556   3.248
  297SOL    HW1  896   0.170   0.555   3.207
  297SOL    HW2  897   0.072   0.630   3.315
  298SOL     OW  898   0.561   0.222   3.009
  298SOL    HW1  899   0.599   0.138   3.046
  298SOL    HW2  900   0.473   0.241   3.053
  299SOL     OW  901   0.866   0.454   2.504
  299SOL    HW1  902   0.834   0.526   2.442
  299SOL    HW2  903   0.890   0.373   2.451
  300SOL     OW  904   1.017   0.039   2.615
  300SOL    HW1  905   0.945   0.044   2.546
  300SOL    HW2  906   0.993  -0.030   2.684
  301SOL     OW  907   1.429   1.173   2.729
  301SOL    HW1  908   1.374   1.089   2.722
  301SOL    HW2  909   1.455   1.202   2.637
  302SOL     OW  910   1.466   0.590   2.854
  302SOL    HW1  911   1.436   0.495   2.861
  302SOL    HW2  912   1.539   0.606   2.920
  303SOL     OW  913   1.857   0.833   2.239
  303SOL    HW1  914   1.899   0.769   2.303
  303SOL    HW2  915   1.819   0.782   2.161
  304SOL     OW  916   0.488   1.385   2.036
  304SOL    HW1  917   0.401   1.370   2.083
  304SOL    HW2  918   0.471   1.411   1.941
  305SOL     OW  919   1.664   1.280   2.519
  305SOL    HW1  920   1.763   1.288   2.533
  305SOL    HW2  921   1.619   1.364   2.550
  306SOL     OW  922   1.390   0.575   1.940
  306SOL    HW1  923   1.336   0.554   2.021
  306SOL    HW2  924   1.481   0.534   1.949
  307SOL     OW  925   0.527   0.256   2.190
  307SOL    HW1  926   0.554   0.197   2.115
  307SOL    HW2  927   0.527   0.351   2.159
  308SOL     OW  928   1.754   1.223   3.450
  308SOL    HW1  929   1.845   1.184   3.437
  308SOL    HW2  930   1.762   1.319   3.474
  309SOL     OW  931   1.064   1.347   3.202
  309SOL    HW1  932   0.984   1.324   3.257
  309SOL    HW2  933   1.147   1.321   3.251
  310SOL     OW  934   1.592   1.629   3.487
  310SOL    HW1  935   1.619   1.663   3.397
  310SOL    HW2  936   1.671   1.591   3.533
  311SOL     OW  937   1.111   1.195   2.962
  311SOL    HW1  938   1.071   1.239   3.043
  311SOL    HW2  939   1.070   1.232   2.879
  312SOL     OW  940   1.638   1.099   2.941
  312SOL    HW1  941   1.643   1.180   3.000
  312SOL    HW2  942   1.552   1.101   2.890
  313SOL     OW  943   0.915   0.089   3.264
  313SOL    HW1  944   0.940   0.069   3.169
  313SOL    HW2  945   0.987   0.145   3.306
  314SOL     OW  946   0.980   1.116   3.581
  314SOL    HW1  947   0.881   1.122   3.591
  314SOL    HW2  948   1.003   1.036   3.525
  315SOL     OW  949   0.705   1.050   2.230
  315SOL    HW1  950   0.691   1.057   2.329
  315SOL    HW2  951   0.789   0.999   2.212
  316SOL     OW  952   0.410   0.813   3.113
  316SOL    HW1  953   0.496   0.825   3.163
  316SOL    HW2  954   0.368   0.726   3.140
  317SOL     OW  955   1.274   0.386   3.124
  317SOL    HW1  956   1.295   0.460   3.188
  317SOL    HW2  957   1.185   0.403   3.081
  318SOL     OW  958   0.064   1.564   3.193
  318SOL    HW1  959   0.018   1.646   3.159
  318SOL    HW2  960   0.162   1.583   3.202
  319SOL     OW  961   0.367   1.100   2.363
  319SOL    HW1  962   0.360   1.183   2.307
  319SOL    HW2  963   0.371   1.020   2.303
  320SOL     OW  964   0.566   0.537   2.727
  320SOL    HW1  965   0.578   0.603   2.653
  320SOL    HW2  966   0.612   0.571   2.810
  321SOL     OW  967   1.252   1.348   2.250
  321SOL    HW1  968   1.302   1.425   2.290
  321SOL    HW2  969   1.157   1.350   2.282
  322SOL     OW  970   1.272   1.445   3.004
  322SOL    HW1  971   1.319   1.458   3.091
  322SOL    HW2  972   1.206   1.371   3.013
  323SOL     OW  973   1.582   0.639   2.334
  323SOL    HW1  974   1.551   0.700   2.407
  323SOL    HW2  975   1.632   0.691   2.265
  324SOL     OW  976   0.354   1.510   3.191
  324SOL    HW1  977   0.333   1.466   3.104
  324SOL    HW2  978   0.451   1.536   3.194
  325SOL     OW  979   0.402   0.751   3.460
  325SOL    HW1  980   0.470   0.806   3.413
  325SOL    HW2  981   0.442   0.663   3.487
  326SOL     OW  982   1.587   0.779   3.532
  326SOL    HW1  983   1.495   0.817   3.527
  326SOL    HW2  984   1.647   0.826   3.467
  327SOL     OW  985   1.013   0.105   3.632
  327SOL    HW1  986   1.019   0.190   3.580
  327SOL    HW2  987   1.045   0.029   3.575
  328SOL     OW  988   0.504   0.050   3.602
  328SOL    HW1  989   0.462  -0.007   3.532
  328SOL    HW2  990   0.438   0.119   3.634
  329SOL     OW  991   0.573   0.870   2.891
  329SOL    HW1  992   0.617   0.959   2.882
  329SOL    HW2  993   0.510   0.870   2.968
  330SOL     OW  994   1.360   0.862   2.907
  330SOL    HW1  995   1.285   0.862   2.841
  330SOL    HW2  996   1.397   0.770   2.916
  331SOL     OW  997   1.209   0.525   2.137
  331SOL    HW1  998   1.222   0.441   2.191
  331SOL    HW2  999   1.180   0.599   2.197
  332SOL     OW 1000   0.307   0.213   3.093
  332SOL    HW1 1001   0.284   0.250   3.183
  332SOL    HW2 1002   0.277   0.118   3.087
  333SOL     OW 1003   0.037   1.310   3.144
  333SOL    HW1 1004   0.090   1.261   3.212
  333SOL    HW2 1005   0.059   1.408   3.149
  334SOL     OW 1006   0.732   0.634   2.926
  334SOL    HW1 1007   0.791   0.608   2.850
  334SOL    HW2 1008   0.704   0.730   2.915
  335SOL     OW 1009   1.728   0.935   3.716
  335SOL    HW1 1010   1.682   0.928   3.627
  335SOL    HW2 1011   1.666   0.979   3.782
  336SOL     OW 1012   0.307   0.063   2.480
  336SOL    HW1 1013   0.296   0.157   2.513
  336SOL    HW2 1014   0.302   0.000   2.557
  337SOL     OW 1015   1.622   0.367   2.236
  337SOL    HW1 1016   1.624   0.291   2.300
  337SOL    HW2 1017   1.574   0.444   2.276
  338SOL     OW 1018   1.023   0.766   2.828
  338SOL    HW1 1019   1.038   0.787   2.924
  338SOL    HW2 1020   0.993   0.671   2.819
  339SOL     OW 1021   0.980   1.573   3.562
  339SOL    HW1 1022   0.960   1.617   3.474
  339SOL    HW2 1023   1.019   1.482   3.546
  340SOL     OW 1024   1.859   1.518   3.467
  340SOL    HW1 1025   1.873   1.545   3.372
  340SOL    HW2 1026   1.942   1.540   3.520
  341SOL     OW 1027   0.350   0.898   3.666
  341SOL    HW1 1028   0.426   0.942   3.714
  341SOL    HW2 1029   0.385   0.851   3.584
  342SOL     OW 1030   1.540   0.274   1.987
  342SOL    HW1 1031   1.479   0.199   2.010
  342SOL    HW2 1032   1.562   0.326   2.070
  343SOL     OW 1033   1.303   0.838   1.904
  343SOL    HW1 1034   1.337   0.745   1.919
  343SOL    HW2 1035   1.321   0.865   1.809
  344SOL     OW 1036   1.068   1.333   2.711
  344SOL    HW1 1037   1.075   1.249   2.656
  344SOL    HW2 1038   1.130   1.402   2.675
  345SOL     OW 1039   0.319   0.810   2.811
  345SOL    HW1 1040   0.412   0.846   2.816
  345SOL    HW2 1041   0.313   0.725   2.863
  346SOL     OW 1042   0.339   0.509   2.868
  346SOL    HW1 1043   0.287   0.426   2.851
  346SOL    HW2 1044   0.416   0.514   2.804
  347SOL     OW 1045   1.138   0.380   3.540
  347SOL    HW1 1046   1.093   0.443   3.604
  347SOL    HW2 1047   1.231   0.411   3.523
  348SOL     OW 1048   1.160   0.207   3.339
  348SOL    HW1 1049   1.160   0.271   3.416
  348SOL    HW2 1050   1.188   0.255   3.256
  349SOL     OW 1051   0.008   1.326   2.062
  349SOL    HW1 1052  -0.085   1.347   2.031
  349SOL    HW2 1053   0.018   1.227   2.075
  350SOL     OW 1054   0.088   1.801   2.789
  350SOL    HW1 1055   0.046   1.715   2.762
  350SOL    HW2 1056   0.182   1.804   2.755
  351SOL     OW 1057   0.504   1.568   2.772
  351SOL    HW1 1058   0.570   1.642   2.781
  351SOL    HW2 1059   0.548   1.489   2.730
  352SOL     OW 1060   1.002   0.796   3.100
  352SOL    HW1 1061   1.043   0.764   3.186
  352SOL    HW2 1062   0.906   0.769   3.097
  353SOL     OW 1063   0.040   0.544   2.976
  353SOL    HW1 1064   0.125   0.511   2.935
  353SOL    HW2 1065   0.053   0.559   3.074
  354SOL     OW 1066   0.189   0.520   3.584
  354SOL    HW1 1067   0.248   0.480   3.514
  354SOL    HW2 1068   0.131   0.591   3.543
  355SOL     OW 1069   1.369   0.950   3.522
  355SOL    HW1 1070   1.408   1.039   3.542
  355SOL    HW2 1071   1.379   0.930   3.425
  356SOL     OW 1072   0.815   0.572   2.187
  356SOL    HW1 1073   0.822   0.483   2.141
  356SOL    HW2 1074   0.721   0.606   2.179
  357SOL     OW 1075   1.657   0.604   3.068
  357SOL    HW1 1076   1.619   0.535   3.130
  357SOL    HW2 1077   1.739   0.568   3.024
  358SOL     OW 1078   0.252   1.564   3.606
  358SOL    HW1 1079   0.222   1.621   3.682
  358SOL    HW2 1080   0.245   1.467   3.632
  359SOL     OW 1081   0.671   0.464   3.131
  359SOL    HW1 1082   0.637   0.375   3.101
  359SOL    HW2 1083   0.697   0.518   3.051
  360SOL     OW 1084   0.930   1.678   3.327
  360SOL    HW1 1085   0.906   1.660   3.232
  360SOL    HW2 1086   0.960   1.772   3.337
  361SOL     OW 1087   0.473   0.500   2.053
  361SOL    HW1 1088   0.534   0.580   2.057
  361SOL    HW2 1089   0.378   0.531   2.060
  362SOL     OW 1090   0.159   1.137   3.328
  362SOL    HW1 1091   0.181   1.076   3.404
  362SOL    HW2 1092   0.169   1.088   3.242
  363SOL     OW 1093   1.347   1.059   3.096
  363SOL    HW1 1094   1.371   0.996   3.022
  363SOL    HW2 1095   1.257   1.099   3.078
  364SOL     OW 1096   1.302   0.855   2.171
  364SOL    HW1 1097   1.216   0.824   2.213
  364SOL    HW2 1098   1.298   0.841   2.072
  365SOL     OW 1099   1.759   1.747   3.016
  365SOL    HW1 1100   1.820   1.777   2.943
  365SOL    HW2 1101   1.721   1.658   2.994
  366SOL     OW 1102   1.252   1.731   2.990
  366SOL    HW1 1103   1.336   1.736   2.936
  366SOL    HW2 1104   1.229   1.635   3.008
  367SOL     OW 1105   0.083   1.258   2.884
  367SOL    HW1 1106   0.078   1.257   2.984
  367SOL    HW2 1107   0.000   1.217   2.846
  368SOL     OW 1108   0.688   1.662   3.578
  368SOL    HW1 1109   0.632   1.743   3.587
  368SOL    HW2 1110   0.740   1.666   3.492
  369SOL     OW 1111   1.726   0.135   2.385
  369SOL    HW1 1112   1.799   0.118   2.318
  369SOL    HW2 1113   1.695   0.048   2.423
  370SOL     OW 1114   1.388   1.573   2.339
  370SOL    HW1 1115   1.455   1.585   2.265
  370SOL    HW2 1116   1.348   1.662   2.362
  371SOL     OW 1117   0.130   1.794   3.713
  371SOL    HW1 1118   0.089   1.720   3.766
  371SOL    HW2 1119   0.194   1.845   3.771
  372SOL     OW 1120   1.280   0.927   2.534
  372SOL    HW1 1121   1.340   0.846   2.536
  372SOL    HW2 1122   1.320   0.996   2.474
  373SOL     OW 1123   0.830   1.273   3.284
  373SOL    HW1 1124   0.825   1.306   3.379
  373SOL    HW2 1125   0.744   1.292   3.238
  374SOL     OW 1126   0.672   1.616   2.016
  374SOL    HW1 1127   0.681   1.626   1.917
  374SOL    HW2 1128   0.632   1.527   2.037
  375SOL     OW 1129   1.650   1.720   3.256
  375SOL    HW1 1130   1.703   1.730   3.172
  375SOL    HW2 1131   1.623   1.810   3.290
  376SOL     OW 1132   1.841   0.175   2.825
  376SOL    HW1 1133   1.880   0.090   2.789
  376SOL    HW2 1134   1.743   0.177   2.806
  377SOL     OW 1135   0.263   0.326   2.582
  377SOL    HW1 1136   0.184   0.377   2.548
  377SOL    HW2 1137   0.254   0.311   2.680
  378SOL     OW 1138   1.194   1.612   1.893
  378SOL    HW1 1139   1.200   1.519   1.930
  378SOL    HW2 1140   1.135   1.612   1.813
  379SOL     OW 1141   0.822   1.002   3.234
  379SOL    HW1 1142   0.862   1.001   3.142
  379SOL    HW2 1143   0.832   1.094   3.274
  380SOL     OW 1144   0.916   0.910   2.153
  380SOL    HW1 1145   0.979   0.948   2.085
  380SOL    HW2 1146   0.956   0.827   2.192
  381SOL     OW 1147   1.504   1.607   1.906
  381SOL    HW1 1148   1.412   1.644   1.913
  381SOL    HW2 1149   1.542   1.627   1.816
  382SOL     OW 1150   0.372   1.288   3.352
  382SOL    HW1 1151   0.359   1.381   3.318
  382SOL    HW2 1152   0.288   1.236   3.339
  383SOL     OW 1153   1.614   1.292   3.151
  383SOL    HW1 1154   1.674   1.295   3.231
  383SOL    HW2 1155   1.539   1.356   3.164
  384SOL     OW 1156   1.039   1.098   2.558
  384SOL    HW1 1157   0.969   1.051   2.612
  384SOL    HW2 1158   1.098   1.030   2.515
  385SOL     OW 1159   1.014   0.236   2.833
  385SOL    HW1 1160   1.006   0.200   2.740
  385SOL    HW2 1161   1.012   0.160   2.898
  386SOL     OW 1162   0.590   1.487   2.353
  386SOL    HW1 1163   0.632   1.429   2.283
  386SOL    HW2 1164   0.546   1.566   2.309
  387SOL     OW 1165   1.709   0.385   3.243
  387SOL    HW1 1166   1.782   0.454   3.247
  387SOL    HW2 1167   1.737   0.310   3.184
  388SOL     OW 1168   0.255   1.348   2.152
  388SOL    HW1 1169   0.159   1.349   2.125
  388SOL    HW2 1170   0.267   1.401   2.236
  389SOL     OW 1171   0.105   1.013   3.588
  389SOL    HW1 1172   0.028   0.980   3.642
  389SOL    HW2 1173   0.190   0.983   3.630
  390SOL     OW 1174   0.672   0.203   3.351
  390SOL    HW1 1175   0.762   0.187   3.311
  390SOL    HW2 1176   0.680   0.208   3.450
  391SOL     OW 1177   0.075   0.345   1.895
  391SOL    HW1 1178  -0.017   0.317   1.866
  391SOL    HW2 1179   0.106   0.422   1.839
  392SOL     OW 1180   1.440   0.856   3.260
  392SOL    HW1 1181   1.383   0.908   3.197
  392SOL    HW2 1182   1.536   0.868   3.236
  393SOL     OW 1183   0.072   0.166   2.180
  393SOL    HW1 1184   0.055   0.249   2.126
  393SOL    HW2 1185   0.162   0.129   2.158
  394SOL     OW 1186   1.183   1.335   1.981
  394SOL    HW1 1187   1.084   1.324   1.983
  394SOL    HW2 1188   1.217   1.350   2.074
  395SOL     OW 1189   0.613   0.842   3.293
  395SOL    HW1 1190   0.669   0.923   3.276
  395SOL    HW2 1191   0.672   0.762   3.296
  396SOL     OW 1192   1.493   1.767   2.821
  396SOL    HW1 1193   1.526   1.831   2.752
  396SOL    HW2 1194   1.559   1.761   2.896
  397SOL     OW 1195   0.716   0.565   3.570
  397SOL    HW1 1196   0.735   0.630   3.644
  397SOL    HW2 1197   0.776   0.485   3.579
  398SOL     OW 1198   1.450   1.220   3.495
  398SOL    HW1 1199   1.441   1.210   3.594
  398SOL    HW2 1200   1.546   1.213   3.469
  399SOL     OW 1201   0.390   1.741   3.422
  399SOL    HW1 1202   0.299   1.782   3.420
  399SOL    HW2 1203   0.383   1.647   3.454
  400SOL     OW 1204   1.674   0.883   3.116
  400SOL    HW1 1205   1.647   0.794   3.079
  400SOL    HW2 1206   1.675   0.951   3.043
  401SOL     OW 1207   1.225   0.325   2.311
  401SOL    HW1 1208   1.290   0.251   2.300
  401SOL    HW2 1209   1.245   0.375   2.395
  402SOL     OW 1210   0.594   0.745   2.514
  402SOL    HW1 1211   0.644   0.830   2.495
  402SOL    HW2 1212   0.506   0.747   2.466
  403SOL     OW 1213   1.777   0.342   3.504
  403SOL    HW1 1214   1.760   0.373   3.410
  403SOL    HW2 1215   1.693   0.305   3.542
  404SOL     OW 1216   1.730   0.934   3.379
  404SOL    HW1 1217   1.768   1.025   3.394
  404SOL    HW2 1218   1.722   0.917   3.280
  405SOL     OW 1219   0.859   1.374   1.878
  405SOL    HW1 1220   0.813   1.389   1.966
  405SOL    HW2 1221   0.903   1.459   1.848
  406SOL     OW 1222   0.661   1.790   2.815
  406SOL    HW1 1223   0.615   1.878   2.802
  406SOL    HW2 1224   0.760   1.802   2.808
  407SOL     OW 1225   0.859   0.956   2.723
  407SOL    HW1 1226   0.913   0.887   2.771
  407SOL    HW2 1227   0.827   1.025   2.789
  408SOL     OW 1228   1.083   0.984   1.949
  408SOL    HW1 1229   1.060   1.037   1.867
  408SOL    HW2 1230   1.164   0.928   1.930
  409SOL     OW 1231   1.861   1.569   2.713
  409SOL    HW1 1232   1.790   1.557   2.643
  409SOL    HW2 1233   1.862   1.490   2.773
  410SOL     OW 1234   0.221   1.314   3.706
  410SOL    HW1 1235   0.156   1.241   3.685
  410SOL    HW2 1236   0.225   1.328   3.804
  411SOL     OW 1237   0.079   1.240   2.515
  411SOL    HW1 1238   0.078   1.193   2.603
  411SOL    HW2 1239   0.161   1.212   2.464
  412SOL     OW 1240   0.672   1.391   3.486
  412SOL    HW1 1241   0.594   1.341   3.524
  412SOL    HW2 1242   0.669   1.486   3.517
  413SOL     OW 1243   1.824   0.192   3.089
  413SOL    HW1 1244   1.820   0.102   3.133
  413SOL    HW2 1245   1.827   0.181   2.990
  414SOL     OW 1246   0.428   0.424   2.382
  414SOL    HW1 1247   0.458   0.352   2.320
  414SOL    HW2 1248   0.389   0.384   2.465
  415SOL     OW 1249   1.705   1.487   2.966
  415SOL    HW1 1250   1.612   1.462   2.939
  415SOL    HW2 1251   1.731   1.437   3.048
  416SOL     OW 1252   0.317   0.547   3.142
  416SOL    HW1 1253   0.355   0.488   3.214
  416SOL    HW2 1254   0.357   0.521   3.054
  417SOL     OW 1255   0.812   1.586   2.549
  417SOL    HW1 1256   0.844   1.596   2.455
  417SOL    HW2 1257   0.733   1.524   2.551
  418SOL     OW 1258   1.424   0.214   2.974
  418SOL    HW1 1259   1.476   0.149   3.029
  418SOL    HW2 1260   1.375   0.277   3.035
  419SOL     OW 1261   1.001   0.034   3.016
  419SOL    HW1 1262   0.938  -0.038   2.985
  419SOL    HW2 1263   1.094  -0.002   3.016
  420SOL     OW 1264   0.770   1.330   2.163
  420SOL    HW1 1265   0.724   1.243   2.180
  420SOL    HW2 1266   0.861   1.327   2.204
  421SOL     OW 1267   0.618   1.567   3.146
  421SOL    HW1 1268   0.613   1.649   3.203
  421SOL    HW2 1269   0.707   1.564   3.101
  422SOL     OW 1270   1.352   0.052   2.030
  422SOL    HW1 1271   1.387   0.011   1.946
  422SOL    HW2 1272   1.262   0.014   2.050
  423SOL     OW 1273   1.300   0.453   2.553
  423SOL    HW1 1274   1.241   0.533   2.557
  423SOL    HW2 1275   1.315   0.418   2.646
  424SOL     OW 1276   1.593   0.221   2.744
  424SOL    HW1 1277   1.509   0.220   2.798
  424SOL    HW2 1278   1.595   0.304   2.688
  425SOL     OW 1279   0.039   1.077   2.162
  425SOL    HW1 1280   0.138   1.066   2.153
  425SOL    HW2 1281  -0.001   0.991   2.194
  426SOL     OW 1282   0.875   1.646   2.199
  426SOL    HW1 1283   0.798   1.611   2.145
  426SOL    HW2 1284   0.843   1.717   2.261
  427SOL     OW 1285   0.230   0.628   3.837
  427SOL    HW1 1286   0.137   0.626   3.874
  427SOL    HW2 1287   0.231   0.589   3.745
  428SOL     OW 1288   1.135   0.703   4.441
  428SOL    HW1 1289   1.192   0.781   4.416
  428SOL    HW2 1290   1.075   0.729   4.517
  429SOL     OW 1291   1.755   0.607   3.955
  429SOL    HW1 1292   1.743   0.594   3.856
  429SOL    HW2 1293   1.725   0.526   4.004
  430SOL     OW 1294   1.603   0.447   4.461
  430SOL    HW1 1295   1.529   0.493   4.411
  430SOL    HW2 1296   1.654   0.515   4.514
  431SOL     OW 1297   0.231   1.713   4.207
  431SOL    HW1 1298   0.265   1.790   4.261
  431SOL    HW2 1299   0.275   1.713   4.117
  432SOL     OW 1300   0.230   1.434   4.262
  432SOL    HW1 1301   0.204   1.530   4.262
  432SOL    HW2 1302   0.159   1.380   4.307
  433SOL     OW 1303   0.606   0.964   3.847
  433SOL    HW1 1304   0.613   1.048   3.793
  433SOL    HW2 1305   0.652   0.977   3.935
  434SOL     OW 1306   0.122   0.643   4.287
  434SOL    HW1 1307   0.077   0.555   4.304
  434SOL    HW2 1308   0.121   0.697   4.371
  435SOL     OW 1309   1.842   1.767   4.083
  435SOL    HW1 1310   1.896   1.738   4.163
  435SOL    HW2 1311   1.872   1.857   4.054
  436SOL     OW 1312   0.027   1.596   3.841
  436SOL    HW1 1313   0.008   1.500   3.862
  436SOL    HW2 1314  -0.006   1.654   3.916
  437SOL     OW 1315   1.689   0.922   4.336
  437SOL    HW1 1316   1.784   0.893   4.344
  437SOL    HW2 1317   1.681   0.987   4.261
  438SOL     OW 1318   1.641   1.108   4.156
  438SOL    HW1 1319   1.727   1.110   4.104
  438SOL    HW2 1320   1.655   1.155   4.244
  439SOL     OW 1321   0.613   1.365   4.450
  439SOL    HW1 1322   0.564   1.278   4.459
  439SOL    HW2 1323   0.590   1.408   4.363
  440SOL     OW 1324   0.809   0.004   4.226
  440SOL    HW1 1325   0.849   0.095   4.217
  440SOL    HW2 1326   0.709   0.012   4.232
  441SOL     OW 1327   1.525   0.999   3.914
  441SOL    HW1 1328   1.462   0.923   3.927
  441SOL    HW2 1329   1.573   1.017   4.000
  442SOL     OW 1330   1.466   1.417   4.677
  442SOL    HW1 1331   1.407   1.423   4.757
  442SOL    HW2 1332   1.451   1.329   4.631
  443SOL     OW 1333   0.598   0.729   3.994
  443SOL    HW1 1334   0.622   0.798   3.926
  443SOL    HW2 1335   0.520   0.762   4.048
  444SOL     OW 1336   1.281   0.345   4.668
  444SOL    HW1 1337   1.195   0.295   4.655
  444SOL    HW2 1338   1.343   0.291   4.724
  445SOL     OW 1339   1.576   1.662   4.031
  445SOL    HW1 1340   1.665   1.708   4.034
  445SOL    HW2 1341   1.555   1.638   3.936
  446SOL     OW 1342   1.041   0.701   4.153
  446SOL    HW1 1343   1.067   0.697   4.249
  446SOL    HW2 1344   0.956   0.650   4.139
  447SOL     OW 1345   0.076   0.811   4.513
  447SOL    HW1 1346   0.175   0.799   4.522
  447SOL    HW2 1347   0.052   0.906   4.534
  448SOL     OW 1348   0.865   0.348   3.919
  448SOL    HW1 1349   0.924   0.411   3.870
  448SOL    HW2 1350   0.884   0.254   3.890
  449SOL     OW 1351   1.362   1.144   4.269
  449SOL    HW1 1352   1.445   1.115   4.221
  449SOL    HW2 1353   1.313   1.211   4.213
  450SOL     OW 1354   1.008   1.456   4.201
  450SOL    HW1 1355   0.962   1.528   4.149
  450SOL    HW2 1356   1.004   1.476   4.299
  451SOL     OW 1357   0.351   1.801   4.577
  451SOL    HW1 1358   0.401   1.715   4.583
  451SOL    HW2 1359   0.416   1.878   4.574
  452SOL     OW 1360   1.795   1.066   4.597
  452SOL    HW1 1361   1.733   1.051   4.521
  452SOL    HW2 1362   1.743   1.077   4.682
  453SOL     OW 1363   0.321   0.943   3.966
  453SOL    HW1 1364   0.403   0.982   3.924
  453SOL    HW2 1365   0.294   0.861   3.917
  454SOL     OW 1366   1.111   1.776   3.961
  454SOL    HW1 1367   1.051   1.714   4.011
  454SOL    HW2 1368   1.142   1.732   3.876
  455SOL     OW 1369   1.632   1.377   3.805
  455SOL    HW1 1370   1.600   1.471   3.795
  455SOL    HW2 1371   1.556   1.314   3.793
  456SOL     OW 1372   0.464   1.743   4.047
  456SOL    HW1 1373   0.497   1.782   4.133
  456SOL    HW2 1374   0.540   1.736   3.982
  457SOL     OW 1375   1.400   0.107   4.150
  457SOL    HW1 1376   1.376   0.070   4.060
  457SOL    HW2 1377   1.499   0.123   4.154
  458SOL     OW 1378   0.382   0.700   4.204
  458SOL    HW1 1379   0.427   0.610   4.201
  458SOL    HW2 1380   0.288   0.689   4.237
  459SOL     OW 1381   0.614   0.122   3.841
  459SOL    HW1 1382   0.712   0.100   3.848
  459SOL    HW2 1383   0.583   0.105   3.748
  460SOL     OW 1384   0.539   0.064   4.236
  460SOL    HW1 1385   0.458   0.065   4.294
  460SOL    HW2 1386   0.542   0.147   4.181
  461SOL     OW 1387   1.434   1.188   3.765
  461SOL    HW1 1388   1.466   1.112   3.822
  461SOL    HW2 1389   1.342   1.215   3.795
  462SOL     OW 1390   0.297   0.035   3.895
  462SOL    HW1 1391   0.346   0.119   3.874
  462SOL    HW2 1392   0.359  -0.030   3.940
  463SOL     OW 1393   0.935   0.236   4.204
  463SOL    HW1 1394   0.887   0.277   4.126
  463SOL    HW2 1395   1.034   0.234   4.185
  464SOL     OW 1396   0.459   1.152   4.465
  464SOL    HW1 1397   0.388   1.125   4.530
  464SOL    HW2 1398   0.433   1.124   4.372
  465SOL     OW 1399   1.271   1.797   4.315
  465SOL    HW1 1400   1.315   1.861   4.251
  465SOL    HW2 1401   1.221   1.849   4.385
  466SOL     OW 1402   1.032   0.549   3.740
  466SOL    HW1 1403   0.991   0.631   3.701
  466SOL    HW2 1404   1.096   0.575   3.813
  467SOL     OW 1405   0.866   0.454   4.366
  467SOL    HW1 1406   0.834   0.526   4.304
  467SOL    HW2 1407   0.890   0.373   4.313
  468SOL     OW 1408   1.466   0.590   4.716
  468SOL    HW1 1409   1.436   0.495   4.723
  468SOL    HW2 1410   1.539   0.606   4.782
  469SOL     OW 1411   1.857   0.833   4.101
  469SOL    HW1 1412   1.899   0.769   4.165
  469SOL    HW2 1413   1.819   0.782   4.023
  470SOL     OW 1414   0.488   1.385   3.898
  470SOL    HW1 1415   0.401   1.370   3.945
  470SOL    HW2 1416   0.471   1.411   3.803
  471SOL     OW 1417   1.390   0.575   3.802
  471SOL    HW1 1418   1.336   0.554   3.883
  471SOL    HW2 1419   1.481   0.534   3.811
  472SOL     OW 1420   0.527   0.256   4.052
  472SOL    HW1 1421   0.554   0.197   3.977
  472SOL    HW2 1422   0.527   0.351   4.021
  473SOL     OW 1423   0.705   1.050   4.092
  473SOL    HW1 1424   0.691   1.057   4.191
  473SOL    HW2 1425   0.789   0.999   4.074
  474SOL     OW 1426   0.367   1.100   4.225
  474SOL    HW1 1427   0.360   1.183   4.169
  474SOL    HW2 1428   0.371   1.020   4.165
  475SOL     OW 1429   1.252   1.348   4.112
  475SOL    HW1 1430   1.302   1.425   4.152
  475SOL    HW2 1431   1.157   1.350   4.144
  476SOL     OW 1432   1.582   0.639   4.196
  476SOL    HW1 1433   1.551   0.700   4.269
  476SOL    HW2 1434   1.632   0.691   4.127
  477SOL     OW 1435   1.209   0.525   3.999
  477SOL    HW1 1436   1.222   0.441   4.053
  477SOL    HW2 1437   1.180   0.599   4.059
  478SOL     OW 1438   0.307   0.063   4.342
  478SOL    HW1 1439   0.296   0.157   4.375
  478SOL    HW2 1440   0.302   0.000   4.419
  479SOL     OW 1441   1.622   0.367   4.098
  479SOL    HW1 1442   1.624   0.291   4.162
  479SOL    HW2 1443   1.574   0.444   4.138
  480SOL     OW 1444   1.540   0.274   3.849
  480SOL    HW1 1445   1.479   0.199   3.872
  480SOL    HW2 1446   1.562   0.326   3.932
  481SOL     OW 1447   1.303   0.838   3.766
  481SOL    HW1 1448   1.337   0.745   3.781
  481SOL    HW2 1449   1.321   0.865   3.671
  482SOL     OW 1450   0.008   1.326   3.924
  482SOL    HW1 1451  -0.085   1.347   3.893
  482SOL    HW2 1452   0.018   1.227   3.937
  483SOL     OW 1453   0.815   0.572   4.049
  483SOL    HW1 1454   0.822   0.483   4.003
  483SOL    HW2 1455   0.721   0.606   4.041
  484SOL     OW 1456   0.473   0.500   3.915
  484SOL    HW1 1457   0.534   0.580   3.919
  484SOL    HW2 1458   0.378   0.531   3.922
  485SOL     OW 1459   1.302   0.855   4.033
  485SOL    HW1 1460   1.216   0.824   4.075
  485SOL    HW2 1461   1.298   0.841   3.934
  486SOL     OW 1462   1.726   0.135   4.247
  486SOL    HW1 1463   1.799   0.118   4.180
  486SOL    HW2 1464   1.695   0.048   4.285
  487SOL     OW 1465   1.388   1.573   4.201
  487SOL    HW1 1466   1.455   1.585   4.127
  487SOL    HW2 1467   1.348   1.662   4.224
  488SOL     OW 1468   0.672   1.616   3.878
  488SOL    HW1 1469   0.681   1.626   3.779
  488SOL    HW2 1470   0.632   1.527   3.899
  489SOL     OW 1471   1.841   0.175   4.687
  489SOL    HW1 1472   1.880   0.090   4.651
  489SOL    HW2 1473   1.743   0.177   4.668
  490SOL     OW 1474   1.194   1.612   3.755
  490SOL    HW1 1475   1.200   1.519   3.792
  490SOL    HW2 1476   1.135   1.612   3.675
  491SOL     OW 1477   0.916   0.910   4.015
  491SOL    HW1 1478   0.979   0.948   3.947
  491SOL    HW2 1479   0.956   0.827   4.054
  492SOL     OW 1480   1.504   1.607   3.768
  492SOL    HW1 1481   1.412   1.644   3.775
  492SOL    HW2 1482   1.542   1.627   3.678
  493SOL     OW 1483   0.590   1.487   4.215
  493SOL    HW1 1484   0.632   1.429   4.145
  493SOL    HW2 1485   0.546   1.566   4.171
  494SOL     OW 1486   0.255   1.348   4.014
  494SOL    HW1 1487   0.159   1.349   3.987
  494SOL    HW2 1488   0.267   1.401   4.098
  495SOL     OW 1489   0.075   0.345   3.757
  495SOL    HW1 1490  -0.017   0.317   3.728
  495SOL    HW2 1491   0.106   0.422   3.701
  496SOL     OW 1492   0.072   0.166   4.042
  496SOL    HW1 1493   0.055   0.249   3.988
  496SOL    HW2 1494   0.162   0.129   4.020
  497SOL     OW 1495   1.183   1.335   3.843
  497SOL    HW1 1496   1.084   1.324   3.845
  497SOL    HW2 1497   1.217   1.350   3.936
  498SOL     OW 1498   1.225   0.325   4.173
  498SOL    HW1 1499   1.290   0.251   4.162
  498SOL    HW2 1500   1.245   0.375   4.257
  499SOL     OW 1501   0.594   0.745   4.376
  499SOL    HW1 1502   0.644   0.830   4.357
  499SOL    HW2 1503   0.506   0.747   4.328
  500SOL     OW 1504   0.859   1.374   3.740
  500SOL    HW1 1505   0.813   1.389   3.828
  500SOL    HW2 1506   0.903   1.459   3.710
  501SOL     OW 1507   1.083   0.984   3.811
  501SOL    HW1 1508   1.060   1.037   3.729
  501SOL    HW2 1509   1.164   0.928   3.792
  502SOL     OW 1510   0.079   1.240   4.377
  502SOL    HW1 1511   0.078   1.193   4.465
  502SOL    HW2 1512   0.161   1.212   4.326
  503SOL     OW 1513   0.428   0.424   4.244
  503SOL    HW1 1514   0.458   0.352   4.182
  503SOL    HW2 1515   0.389   0.384   4.327
  504SOL     OW 1516   0.812   1.586   4.411
  504SOL    HW1 1517   0.844   1.596   4.317
  504SOL    HW2 1518   0.733   1.524   4.413
  505SOL     OW 1519   0.770   1.330   4.025
  505SOL    HW1 1520   0.724   1.243   4.042
  505SOL    HW2 1521   0.861   1.327   4.066
  506SOL     OW 1522   1.352   0.052   3.892
  506SOL    HW1 1523   1.387   0.011   3.808
  506SOL    HW2 1524   1.262   0.014   3.912
  507SOL     OW 1525   1.300   0.453   4.415
  507SOL    HW1 1526   1.241   0.533   4.419
  507SOL    HW2 1527   1.315   0.418   4.508
  508SOL     OW 1528   0.039   1.077   4.024
  508SOL    HW1 1529   0.138   1.066   4.015
  508SOL    HW2 1530  -0.001   0.991   4.056
  509SOL     OW 1531   0.875   1.646   4.061
  509SOL    HW1 1532   0.798   1.611   4.007
  509SOL    HW2 1533   0.843   1.717   4.123
  510SOL     OW 1534   0.230   2.490   0.113
  510SOL    HW1 1535   0.137   2.488   0.150
  510SOL    HW2 1536   0.231   2.451   0.021
  511SOL     OW 1537   0.225   2.137   0.996
  511SOL    HW1 1538   0.260   2.120   1.088
  511SOL    HW2 1539   0.137   2.092   0.984
  512SOL     OW 1540   0.019   2.230   0.647
  512SOL    HW1 1541  -0.063   2.273   0.686
  512SOL    HW2 1542  -0.009   2.157   0.584
  513SOL     OW 1543   0.569   3.137   1.165
  513SOL    HW1 1544   0.476   3.130   1.128
  513SOL    HW2 1545   0.580   3.226   1.209
  514SOL     OW 1546   1.555   3.373   0.703
  514SOL    HW1 1547   1.498   3.357   0.784
  514SOL    HW2 1548   1.496   3.383   0.623
  515SOL     OW 1549   1.135   2.565   0.717
  515SOL    HW1 1550   1.192   2.643   0.692
  515SOL    HW2 1551   1.075   2.591   0.793
  516SOL     OW 1552   1.755   2.469   0.231
  516SOL    HW1 1553   1.743   2.456   0.132
  516SOL    HW2 1554   1.725   2.388   0.280
  517SOL     OW 1555   0.768   3.006   1.023
  517SOL    HW1 1556   0.690   3.023   1.083
  517SOL    HW2 1557   0.802   3.093   0.987
  518SOL     OW 1558   0.850   2.660   1.823
  518SOL    HW1 1559   0.846   2.736   1.888
  518SOL    HW2 1560   0.872   2.696   1.732
  519SOL     OW 1561   0.685   2.874   0.665
  519SOL    HW1 1562   0.754   2.858   0.735
  519SOL    HW2 1563   0.612   2.931   0.703
  520SOL     OW 1564   0.686   3.023   1.803
  520SOL    HW1 1565   0.746   3.102   1.817
  520SOL    HW2 1566   0.600   3.054   1.762
  521SOL     OW 1567   0.335   3.297   1.061
  521SOL    HW1 1568   0.257   3.266   1.008
  521SOL    HW2 1569   0.393   3.355   1.004
  522SOL     OW 1570   1.460   3.367   1.339
  522SOL    HW1 1571   1.484   3.461   1.365
  522SOL    HW2 1572   1.444   3.313   1.421
  523SOL     OW 1573   0.438   2.254   1.499
  523SOL    HW1 1574   0.520   2.198   1.508
  523SOL    HW2 1575   0.357   2.196   1.503
  524SOL     OW 1576   1.603   2.309   0.737
  524SOL    HW1 1577   1.529   2.355   0.687
  524SOL    HW2 1578   1.654   2.377   0.790
  525SOL     OW 1579   0.231   3.575   0.483
  525SOL    HW1 1580   0.265   3.652   0.537
  525SOL    HW2 1581   0.275   3.575   0.393
  526SOL     OW 1582   1.127   3.203   1.690
  526SOL    HW1 1583   1.174   3.203   1.778
  526SOL    HW2 1584   1.079   3.116   1.679
  527SOL     OW 1585   0.230   3.296   0.538
  527SOL    HW1 1586   0.204   3.392   0.538
  527SOL    HW2 1587   0.159   3.242   0.583
  528SOL     OW 1588   0.240   2.953   0.886
  528SOL    HW1 1589   0.254   2.869   0.938
  528SOL    HW2 1590   0.185   3.017   0.941
  529SOL     OW 1591   0.620   3.648   1.439
  529SOL    HW1 1592   0.528   3.631   1.474
  529SOL    HW2 1593   0.648   3.740   1.465
  530SOL     OW 1594   0.606   2.826   0.123
  530SOL    HW1 1595   0.613   2.910   0.069
  530SOL    HW2 1596   0.652   2.839   0.211
  531SOL     OW 1597   1.594   1.976   1.480
  531SOL    HW1 1598   1.576   2.043   1.408
  531SOL    HW2 1599   1.591   2.022   1.569
  532SOL     OW 1600   0.122   2.505   0.563
  532SOL    HW1 1601   0.077   2.417   0.580
  532SOL    HW2 1602   0.121   2.559   0.647
  533SOL     OW 1603   1.842   3.629   0.359
  533SOL    HW1 1604   1.896   3.600   0.439
  533SOL    HW2 1605   1.872   3.719   0.330
  534SOL     OW 1606   0.027   3.458   0.117
  534SOL    HW1 1607   0.008   3.362   0.138
  534SOL    HW2 1608  -0.006   3.516   0.192
  535SOL     OW 1609   1.689   2.784   0.612
  535SOL    HW1 1610   1.784   2.755   0.620
  535SOL    HW2 1611   1.681   2.849   0.537
  536SOL     OW 1612   1.641   2.970   0.432
  536SOL    HW1 1613   1.727   2.972   0.380
  536SOL    HW2 1614   1.655   3.017   0.520
  537SOL     OW 1615   0.113   2.599   1.597
  537SOL    HW1 1616   0.201   2.586   1.642
  537SOL    HW2 1617   0.100   2.696   1.575
  538SOL     OW 1618   0.613   3.227   0.726
  538SOL    HW1 1619   0.564   3.140   0.735
  538SOL    HW2 1620   0.590   3.270   0.639
  539SOL     OW 1621   1.293   3.090   1.423
  539SOL    HW1 1622   1.330   3.017   1.365
  539SOL    HW2 1623   1.345   3.095   1.508
  540SOL     OW 1624   0.809   1.866   0.502
  540SOL    HW1 1625   0.849   1.957   0.493
  540SOL    HW2 1626   0.709   1.874   0.508
  541SOL     OW 1627   0.197   2.838   1.264
  541SOL    HW1 1628   0.286   2.793   1.250
  541SOL    HW2 1629   0.124   2.773   1.245
  542SOL     OW 1630   1.525   2.861   0.190
  542SOL    HW1 1631   1.462   2.785   0.203
  542SOL    HW2 1632   1.573   2.879   0.276
  543SOL     OW 1633   1.187   3.654   1.616
  543SOL    HW1 1634   1.211   3.714   1.540
  543SOL    HW2 1635   1.194   3.559   1.586
  544SOL     OW 1636   0.317   2.113   1.801
  544SOL    HW1 1637   0.388   2.184   1.807
  544SOL    HW2 1638   0.229   2.152   1.829
  545SOL     OW 1639   1.466   3.279   0.953
  545SOL    HW1 1640   1.407   3.285   1.033
  545SOL    HW2 1641   1.451   3.191   0.907
  546SOL     OW 1642   1.667   3.576   0.572
  546SOL    HW1 1643   1.626   3.553   0.484
  546SOL    HW2 1644   1.649   3.502   0.637
  547SOL     OW 1645   0.598   2.591   0.270
  547SOL    HW1 1646   0.622   2.660   0.202
  547SOL    HW2 1647   0.520   2.624   0.324
  548SOL     OW 1648   1.281   2.207   0.944
  548SOL    HW1 1649   1.195   2.157   0.931
  548SOL    HW2 1650   1.343   2.153   1.000
  549SOL     OW 1651   1.576   3.524   0.307
  549SOL    HW1 1652   1.665   3.570   0.310
  549SOL    HW2 1653   1.555   3.500   0.212
  550SOL     OW 1654   0.807   2.467   1.465
  550SOL    HW1 1655   0.760   2.464   1.554
  550SOL    HW2 1656   0.756   2.412   1.399
  551SOL     OW 1657   1.394   2.331   1.674
  551SOL    HW1 1658   1.374   2.374   1.762
  551SOL    HW2 1659   1.472   2.269   1.683
  552SOL     OW 1660   0.973   2.752   1.572
  552SOL    HW1 1661   1.019   2.668   1.543
  552SOL    HW2 1662   0.917   2.786   1.497
  553SOL     OW 1663   0.991   2.272   1.242
  553SOL    HW1 1664   0.914   2.306   1.296
  553SOL    HW2 1665   0.957   2.221   1.163
  554SOL     OW 1666   1.041   2.563   0.429
  554SOL    HW1 1667   1.067   2.559   0.525
  554SOL    HW2 1668   0.956   2.512   0.415
  555SOL     OW 1669   0.076   2.673   0.789
  555SOL    HW1 1670   0.175   2.661   0.798
  555SOL    HW2 1671   0.052   2.768   0.810
  556SOL     OW 1672   0.130   3.683   1.571
  556SOL    HW1 1673   0.120   3.668   1.670
  556SOL    HW2 1674   0.044   3.719   1.535
  557SOL     OW 1675   0.865   2.210   0.195
  557SOL    HW1 1676   0.924   2.273   0.146
  557SOL    HW2 1677   0.884   2.116   0.166
  558SOL     OW 1678   1.719   2.447   1.831
  558SOL    HW1 1679   1.693   2.536   1.795
  558SOL    HW2 1680   1.717   2.379   1.758
  559SOL     OW 1681   1.362   3.006   0.545
  559SOL    HW1 1682   1.445   2.977   0.497
  559SOL    HW2 1683   1.313   3.073   0.489
  560SOL     OW 1684   0.550   2.058   0.885
  560SOL    HW1 1685   0.545   2.053   0.985
  560SOL    HW2 1686   0.552   2.154   0.856
  561SOL     OW 1687   1.008   3.318   0.477
  561SOL    HW1 1688   0.962   3.390   0.425
  561SOL    HW2 1689   1.004   3.338   0.575
  562SOL     OW 1690   0.351   3.663   0.853
  562SOL    HW1 1691   0.401   3.577   0.859
  562SOL    HW2 1692   0.416   3.740   0.850
  563SOL     OW 1693   1.795   2.928   0.873
  563SOL    HW1 1694   1.733   2.913   0.797
  563SOL    HW2 1695   1.743   2.939   0.958
  564SOL     OW 1696   1.227   3.412   1.506
  564SOL    HW1 1697   1.233   3.335   1.570
  564SOL    HW2 1698   1.175   3.386   1.426
  565SOL     OW 1699   0.321   2.805   0.242
  565SOL    HW1 1700   0.403   2.844   0.200
  565SOL    HW2 1701   0.294   2.723   0.193
  566SOL     OW 1702   1.458   2.597   0.728
  566SOL    HW1 1703   1.453   2.532   0.803
  566SOL    HW2 1704   1.538   2.656   0.741
  567SOL     OW 1705   0.461   3.128   1.727
  567SOL    HW1 1706   0.411   3.129   1.641
  567SOL    HW2 1707   0.398   3.110   1.803
  568SOL     OW 1708   1.111   3.638   0.237
  568SOL    HW1 1709   1.051   3.576   0.287
  568SOL    HW2 1710   1.142   3.594   0.152
  569SOL     OW 1711   0.202   2.147   1.498
  569SOL    HW1 1712   0.122   2.207   1.485
  569SOL    HW2 1713   0.192   2.098   1.584
  570SOL     OW 1714   1.632   3.239   0.081
  570SOL    HW1 1715   1.600   3.333   0.071
  570SOL    HW2 1716   1.556   3.176   0.069
  571SOL     OW 1717   0.464   3.605   0.323
  571SOL    HW1 1718   0.497   3.644   0.409
  571SOL    HW2 1719   0.540   3.598   0.258
  572SOL     OW 1720   1.400   1.969   0.426
  572SOL    HW1 1721   1.376   1.932   0.336
  572SOL    HW2 1722   1.499   1.985   0.430
  573SOL     OW 1723   0.249   3.647   1.241
  573SOL    HW1 1724   0.306   3.582   1.291
  573SOL    HW2 1725   0.233   3.614   1.148
  574SOL     OW 1726   0.940   3.560   0.904
  574SOL    HW1 1727   1.020   3.503   0.925
  574SOL    HW2 1728   0.891   3.520   0.827
  575SOL     OW 1729   0.382   2.562   0.480
  575SOL    HW1 1730   0.427   2.472   0.477
  575SOL    HW2 1731   0.288   2.551   0.513
  576SOL     OW 1732   1.547   2.084   1.729
  576SOL    HW1 1733   1.542   2.121   1.821
  576SOL    HW2 1734   1.475   2.015   1.717
  577SOL     OW 1735   0.614   1.984   0.117
  577SOL    HW1 1736   0.712   1.962   0.124
  577SOL    HW2 1737   0.583   1.967   0.024
  578SOL     OW 1738   0.781   2.126   1.749
  578SOL    HW1 1739   0.848   2.065   1.792
  578SOL    HW2 1740   0.708   2.145   1.814
  579SOL     OW 1741   0.888   3.376   1.195
  579SOL    HW1 1742   0.865   3.351   1.101
  579SOL    HW2 1743   0.949   3.307   1.234
  580SOL     OW 1744   1.351   2.452   1.433
  580SOL    HW1 1745   1.379   2.409   1.518
  580SOL    HW2 1746   1.376   2.548   1.434
  581SOL     OW 1747   0.803   3.264   0.924
  581SOL    HW1 1748   0.893   3.278   0.882
  581SOL    HW2 1749   0.732   3.266   0.853
  582SOL     OW 1750   0.922   2.365   0.899
  582SOL    HW1 1751   0.897   2.356   0.803
  582SOL    HW2 1752   0.970   2.283   0.930
  583SOL     OW 1753   0.539   1.926   0.512
  583SOL    HW1 1754   0.458   1.927   0.570
  583SOL    HW2 1755   0.542   2.009   0.457
  584SOL     OW 1756   1.434   3.050   0.041
  584SOL    HW1 1757   1.466   2.974   0.098
  584SOL    HW2 1758   1.342   3.077   0.071
  585SOL     OW 1759   0.935   2.098   0.480
  585SOL    HW1 1760   0.887   2.139   0.402
  585SOL    HW2 1761   1.034   2.096   0.461
  586SOL     OW 1762   1.076   2.545   1.464
  586SOL    HW1 1763   0.996   2.484   1.467
  586SOL    HW2 1764   1.157   2.492   1.440
  587SOL     OW 1765   1.227   3.432   0.793
  587SOL    HW1 1766   1.248   3.506   0.728
  587SOL    HW2 1767   1.295   3.432   0.866
  588SOL     OW 1768   0.459   3.014   0.741
  588SOL    HW1 1769   0.388   2.987   0.806
  588SOL    HW2 1770   0.433   2.986   0.648
  589SOL     OW 1771   1.271   3.659   0.591
  589SOL    HW1 1772   1.315   3.723   0.527
  589SOL    HW2 1773   1.221   3.711   0.661
  590SOL     OW 1774   1.032   2.411   0.016
  590SOL    HW1 1775   0.991   2.493  -0.023
  590SOL    HW2 1776   1.096   2.437   0.089
  591SOL     OW 1777   0.078   2.418   1.386
  591SOL    HW1 1778   0.170   2.417   1.345
  591SOL    HW2 1779   0.072   2.492   1.453
  592SOL     OW 1780   0.561   2.084   1.147
  592SOL    HW1 1781   0.599   2.000   1.184
  592SOL    HW2 1782   0.473   2.103   1.191
  593SOL     OW 1783   0.866   2.316   0.642
  593SOL    HW1 1784   0.834   2.388   0.580
  593SOL    HW2 1785   0.890   2.235   0.589
  594SOL     OW 1786   1.017   1.901   0.753
  594SOL    HW1 1787   0.945   1.906   0.684
  594SOL    HW2 1788   0.993   1.832   0.822
  595SOL     OW 1789   1.429   3.035   0.867
  595SOL    HW1 1790   1.374   2.951   0.860
  595SOL    HW2 1791   1.455   3.064   0.775
  596SOL     OW 1792   1.466   2.452   0.992
  596SOL    HW1 1793   1.436   2.357   0.999
  596SOL    HW2 1794   1.539   2.468   1.058
  597SOL     OW 1795   1.857   2.695   0.377
  597SOL    HW1 1796   1.899   2.631   0.441
  597SOL    HW2 1797   1.819   2.644   0.299
  598SOL     OW 1798   0.488   3.247   0.174
  598SOL    HW1 1799   0.401   3.232   0.221
  598SOL    HW2 1800   0.471   3.273   0.079
  599SOL     OW 1801   1.664   3.142   0.657
  599SOL    HW1 1802   1.763   3.150   0.671
  599SOL    HW2 1803   1.619   3.226   0.688
  600SOL     OW 1804   1.390   2.437   0.078
  600SOL    HW1 1805   1.336   2.416   0.159
  600SOL    HW2 1806   1.481   2.396   0.087
  601SOL     OW 1807   0.527   2.118   0.328
  601SOL    HW1 1808   0.554   2.059   0.253
  601SOL    HW2 1809   0.527   2.213   0.297
  602SOL     OW 1810   1.754   3.085   1.588
  602SOL    HW1 1811   1.845   3.046   1.575
  602SOL    HW2 1812   1.762   3.181   1.612
  603SOL     OW 1813   1.064   3.209   1.340
  603SOL    HW1 1814   0.984   3.186   1.395
  603SOL    HW2 1815   1.147   3.183   1.389
  604SOL     OW 1816   1.592   3.491   1.625
  604SOL    HW1 1817   1.619   3.525   1.535
  604SOL    HW2 1818   1.671   3.453   1.671
  605SOL     OW 1819   1.111   3.057   1.100
  605SOL    HW1 1820   1.071   3.101   1.181
  605SOL    HW2 1821   1.070   3.094   1.017
  606SOL     OW 1822   1.638   2.961   1.079
  606SOL    HW1 1823   1.643   3.042   1.138
  606SOL    HW2 1824   1.552   2.963   1.028
  607SOL     OW 1825   0.915   1.951   1.402
  607SOL    HW1 1826   0.940   1.931   1.307
  607SOL    HW2 1827   0.987   2.007   1.444
  608SOL     OW 1828   0.980   2.978   1.719
  608SOL    HW1 1829   0.881   2.984   1.729
  608SOL    HW2 1830   1.003   2.898   1.663
  609SOL     OW 1831   0.705   2.912   0.368
  609SOL    HW1 1832   0.691   2.919   0.467
  609SOL    HW2 1833   0.789   2.861   0.350
  610SOL     OW 1834   0.410   2.675   1.251
  610SOL    HW1 1835   0.496   2.687   1.301
  610SOL    HW2 1836   0.368   2.588   1.278
  611SOL     OW 1837   1.274   2.248   1.262
  611SOL    HW1 1838   1.295   2.322   1.326
  611SOL    HW2 1839   1.185   2.265   1.219
  612SOL     OW 1840   0.064   3.426   1.331
  612SOL    HW1 1841   0.018   3.508   1.297
  612SOL    HW2 1842   0.162   3.445   1.340
  613SOL     OW 1843   0.367   2.962   0.501
  613SOL    HW1 1844   0.360   3.045   0.445
  613SOL    HW2 1845   0.371   2.882   0.441
  614SOL     OW 1846   0.566   2.399   0.865
  614SOL    HW1 1847   0.578   2.465   0.791
  614SOL    HW2 1848   0.612   2.433   0.948
  615SOL     OW 1849   1.252   3.210   0.388
  615SOL    HW1 1850   1.302   3.287   0.428
  615SOL    HW2 1851   1.157   3.212   0.420
  616SOL     OW 1852   1.272   3.307   1.142
  616SOL    HW1 1853   1.319   3.320   1.229
  616SOL    HW2 1854   1.206   3.233   1.151
  617SOL     OW 1855   1.582   2.501   0.472
  617SOL    HW1 1856   1.551   2.562   0.545
  617SOL    HW2 1857   1.632   2.553   0.403
  618SOL     OW 1858   0.354   3.372   1.329
  618SOL    HW1 1859   0.333   3.328   1.242
  618SOL    HW2 1860   0.451   3.398   1.332
  619SOL     OW 1861   0.402   2.613   1.598
  619SOL    HW1 1862   0.470   2.668   1.551
  619SOL    HW2 1863   0.442   2.525   1.625
  620SOL     OW 1864   1.587   2.641   1.670
  620SOL    HW1 1865   1.495   2.679   1.665
  620SOL    HW2 1866   1.647   2.688   1.605
  621SOL     OW 1867   1.013   1.967   1.770
  621SOL    HW1 1868   1.019   2.052   1.718
  621SOL    HW2 1869   1.045   1.891   1.713
  622SOL     OW 1870   0.504   1.912   1.740
  622SOL    HW1 1871   0.462   1.855   1.670
  622SOL    HW2 1872   0.438   1.981   1.772
  623SOL     OW 1873   0.573   2.732   1.029
  623SOL    HW1 1874   0.617   2.821   1.020
  623SOL    HW2 1875   0.510   2.732   1.106
  624SOL     OW 1876   1.360   2.724   1.045
  624SOL    HW1 1877   1.285   2.724   0.979
  624SOL    HW2 1878   1.397   2.632   1.054
  625SOL     OW 1879   1.209   2.387   0.275
  625SOL    HW1 1880   1.222   2.303   0.329
  625SOL    HW2 1881   1.180   2.461   0.335
  626SOL     OW 1882   0.307   2.075   1.231
  626SOL    HW1 1883   0.284   2.112   1.321
  626SOL    HW2 1884   0.277   1.980   1.225
  627SOL     OW 1885   0.037   3.172   1.282
  627SOL    HW1 1886   0.090   3.123   1.350
  627SOL    HW2 1887   0.059   3.270   1.287
  628SOL     OW 1888   0.732   2.496   1.064
  628SOL    HW1 1889   0.791   2.470   0.988
  628SOL    HW2 1890   0.704   2.592   1.053
  629SOL     OW 1891   1.728   2.797   1.854
  629SOL    HW1 1892   1.682   2.790   1.765
  629SOL    HW2 1893   1.666   2.841   1.920
  630SOL     OW 1894   0.307   1.925   0.618
  630SOL    HW1 1895   0.296   2.019   0.651
  630SOL    HW2 1896   0.302   1.862   0.695
  631SOL     OW 1897   1.622   2.229   0.374
  631SOL    HW1 1898   1.624   2.153   0.438
  631SOL    HW2 1899   1.574   2.306   0.414
  632SOL     OW 1900   1.023   2.628   0.966
  632SOL    HW1 1901   1.038   2.649   1.062
  632SOL    HW2 1902   0.993   2.533   0.957
  633SOL     OW 1903   0.980   3.435   1.700
  633SOL    HW1 1904   0.960   3.479   1.612
  633SOL    HW2 1905   1.019   3.344   1.684
  634SOL     OW 1906   1.859   3.380   1.605
  634SOL    HW1 1907   1.873   3.407   1.510
  634SOL    HW2 1908   1.942   3.402   1.658
  635SOL     OW 1909   0.350   2.760   1.804
  635SOL    HW1 1910   0.426   2.804   1.852
  635SOL    HW2 1911   0.385   2.713   1.722
  636SOL     OW 1912   1.540   2.136   0.125
  636SOL    HW1 1913   1.479   2.061   0.148
  636SOL    HW2 1914   1.562   2.188   0.208
  637SOL     OW 1915   1.303   2.700   0.042
  637SOL    HW1 1916   1.337   2.607   0.057
  637SOL    HW2 1917   1.321   2.727  -0.053
  638SOL     OW 1918   1.068   3.195   0.849
  638SOL    HW1 1919   1.075   3.111   0.794
  638SOL    HW2 1920   1.130   3.264   0.813
  639SOL     OW 1921   0.319   2.672   0.949
  639SOL    HW1 1922   0.412   2.708   0.954
  639SOL    HW2 1923   0.313   2.587   1.001
  640SOL     OW 1924   0.339   2.371   1.006
  640SOL    HW1 1925   0.287   2.288   0.989
  640SOL    HW2 1926   0.416   2.376   0.942
  641SOL     OW 1927   1.138   2.242   1.678
  641SOL    HW1 1928   1.093   2.305   1.742
  641SOL    HW2 1929   1.231   2.273   1.661
  642SOL     OW 1930   1.160   2.069   1.477
  642SOL    HW1 1931   1.160   2.133   1.554
  642SOL    HW2 1932   1.188   2.117   1.394
  643SOL     OW 1933   0.008   3.188   0.200
  643SOL    HW1 1934  -0.085   3.209   0.169
  643SOL    HW2 1935   0.018   3.089   0.213
  644SOL     OW 1936   0.088   3.663   0.927
  644SOL    HW1 1937   0.046   3.577   0.900
  644SOL    HW2 1938   0.182   3.666   0.893
  645SOL     OW 1939   0.504   3.430   0.910
  645SOL    HW1 1940   0.570   3.504   0.919
  645SOL    HW2 1941   0.548   3.351   0.868
  646SOL     OW 1942   1.002   2.658   1.238
  646SOL    HW1 1943   1.043   2.626   1.324
  646SOL    HW2 1944   0.906   2.631   1.235
  647SOL     OW 1945   0.040   2.406   1.114
  647SOL    HW1 1946   0.125   2.373   1.073
  647SOL    HW2 1947   0.053   2.421   1.212
  648SOL     OW 1948   0.189   2.382   1.722
  648SOL    HW1 1949   0.248   2.342   1.652
  648SOL    HW2 1950   0.131   2.453   1.681
  649SOL     OW 1951   1.369   2.812   1.660
  649SOL    HW1 1952   1.408   2.901   1.680
  649SOL    HW2 1953   1.379   2.792   1.563
  650SOL     OW 1954   0.815   2.434   0.325
  650SOL    HW1 1955   0.822   2.345   0.279
  650SOL    HW2 1956   0.721   2.468   0.317
  651SOL     OW 1957   1.657   2.466   1.206
  651SOL    HW1 1958   1.619   2.397   1.268
  651SOL    HW2 1959   1.739   2.430   1.162
  652SOL     OW 1960   0.252   3.426   1.744
  652SOL    HW1 1961   0.222   3.483   1.820
  652SOL    HW2 1962   0.245   3.329   1.770
  653SOL     OW 1963   0.671   2.326   1.269
  653SOL    HW1 1964   0.637   2.237   1.239
  653SOL    HW2 1965   0.697   2.380   1.189
  654SOL     OW 1966   0.930   3.540   1.465
  654SOL    HW1 1967   0.906   3.522   1.370
  654SOL    HW2 1968   0.960   3.634   1.475
  655SOL     OW 1969   0.473   2.362   0.191
  655SOL    HW1 1970   0.534   2.442   0.195
  655SOL    HW2 1971   0.378   2.393   0.198
  656SOL     OW 1972   0.159   2.999   1.466
  656SOL    HW1 1973   0.181   2.938   1.542
  656SOL    HW2 1974   0.169   2.950   1.380
  657SOL     OW 1975   1.347   2.921   1.234
  657SOL    HW1 1976   1.371   2.858   1.160
  657SOL    HW2 1977   1.257   2.961   1.216
  658SOL     OW 1978   1.302   2.717   0.309
  658SOL    HW1 1979   1.216   2.686   0.351
  658SOL    HW2 1980   1.298   2.703   0.210
  659SOL     OW 1981   1.759   3.609   1.154
  659SOL    HW1 1982   1.820   3.639   1.081
  659SOL    HW2 1983   1.721   3.520   1.132
  660SOL     OW 1984   1.252   3.593   1.128
  660SOL    HW1 1985   1.336   3.598   1.074
  660SOL    HW2 1986   1.229   3.497   1.146
  661SOL     OW 1987   0.083   3.120   1.022
  661SOL    HW1 1988   0.078   3.119   1.122
  661SOL    HW2 1989   0.000   3.079   0.984
  662SOL     OW 1990   0.688   3.524   1.716
  662SOL    HW1 1991   0.632   3.605   1.725
  662SOL    HW2 1992   0.740   3.528   1.630
  663SOL     OW 1993   0.903   1.948   0.133
  663SOL    HW1 1994   0.954   1.949   0.047
  663SOL    HW2 1995   0.959   1.906   0.204
  664SOL     OW 1996   1.726   1.997   0.523
  664SOL    HW1 1997   1.799   1.980   0.456
  664SOL    HW2 1998   1.695   1.910   0.561
  665SOL     OW 1999   1.388   3.435   0.477
  665SOL    HW1 2000   1.455   3.447   0.403
  665SOL    HW2 2001   1.348   3.524   0.500
  666SOL     OW 2002   0.130   3.656   1.851
  666SOL    HW1 2003   0.089   3.582   1.904
  666SOL    HW2 2004   0.194   3.707   1.909
  667SOL     OW 2005   1.280   2.789   0.672
  667SOL    HW1 2006   1.340   2.708   0.674
  667SOL    HW2 2007   1.320   2.858   0.612
  668SOL     OW 2008   0.830   3.135   1.422
  668SOL    HW1 2009   0.825   3.168   1.517
  668SOL    HW2 2010   0.744   3.154   1.376
  669SOL     OW 2011   0.672   3.478   0.154
  669SOL    HW1 2012   0.681   3.488   0.055
  669SOL    HW2 2013   0.632   3.389   0.175
  670SOL     OW 2014   1.650   3.582   1.394
  670SOL    HW1 2015   1.703   3.592   1.310
  670SOL    HW2 2016   1.623   3.672   1.428
  671SOL     OW 2017   1.841   2.037   0.963
  671SOL    HW1 2018   1.880   1.952   0.927
  671SOL    HW2 2019   1.743   2.039   0.944
  672SOL     OW 2020   0.263   2.188   0.720
  672SOL    HW1 2021   0.184   2.239   0.686
  672SOL    HW2 2022   0.254   2.173   0.818
  673SOL     OW 2023   1.194   3.474   0.031
  673SOL    HW1 2024   1.200   3.381   0.068
  673SOL    HW2 2025   1.135   3.474  -0.049
  674SOL     OW 2026   0.822   2.864   1.372
  674SOL    HW1 2027   0.862   2.863   1.280
  674SOL    HW2 2028   0.832   2.956   1.412
  675SOL     OW 2029   0.916   2.772   0.291
  675SOL    HW1 2030   0.979   2.810   0.223
  675SOL    HW2 2031   0.956   2.689   0.330
  676SOL     OW 2032   1.504   3.469   0.044
  676SOL    HW1 2033   1.412   3.506   0.051
  676SOL    HW2 2034   1.542   3.489  -0.046
  677SOL     OW 2035   0.372   3.150   1.490
  677SOL    HW1 2036   0.359   3.243   1.456
  677SOL    HW2 2037   0.288   3.098   1.477
  678SOL     OW 2038   1.614   3.154   1.289
  678SOL    HW1 2039   1.674   3.157   1.369
  678SOL    HW2 2040   1.539   3.218   1.302
  679SOL     OW 2041   1.039   2.960   0.696
  679SOL    HW1 2042   0.969   2.913   0.750
  679SOL    HW2 2043   1.098   2.892   0.653
  680SOL     OW 2044   1.014   2.098   0.971
  680SOL    HW1 2045   1.006   2.062   0.878
  680SOL    HW2 2046   1.012   2.022   1.036
  681SOL     OW 2047   0.590   3.349   0.491
  681SOL    HW1 2048   0.632   3.291   0.421
  681SOL    HW2 2049   0.546   3.428   0.447
  682SOL     OW 2050   1.709   2.247   1.381
  682SOL    HW1 2051   1.782   2.316   1.385
  682SOL    HW2 2052   1.737   2.172   1.322
  683SOL     OW 2053   0.255   3.210   0.290
  683SOL    HW1 2054   0.159   3.211   0.263
  683SOL    HW2 2055   0.267   3.263   0.374
  684SOL     OW 2056   0.105   2.875   1.726
  684SOL    HW1 2057   0.028   2.842   1.780
  684SOL    HW2 2058   0.190   2.845   1.768
  685SOL     OW 2059   0.672   2.065   1.489
  685SOL    HW1 2060   0.762   2.049   1.449
  685SOL    HW2 2061   0.680   2.070   1.588
  686SOL     OW 2062   0.075   2.207   0.033
  686SOL    HW1 2063  -0.017   2.179   0.004
  686SOL    HW2 2064   0.106   2.284  -0.023
  687SOL     OW 2065   1.440   2.718   1.398
  687SOL    HW1 2066   1.383   2.770   1.335
  687SOL    HW2 2067   1.536   2.730   1.374
  688SOL     OW 2068   0.072   2.028   0.318
  688SOL    HW1 2069   0.055   2.111   0.264
  688SOL    HW2 2070   0.162   1.991   0.296
  689SOL     OW 2071   1.183   3.197   0.119
  689SOL    HW1 2072   1.084   3.186   0.121
  689SOL    HW2 2073   1.217   3.212   0.212
  690SOL     OW 2074   0.613   2.704   1.431
  690SOL    HW1 2075   0.669   2.785   1.414
  690SOL    HW2 2076   0.672   2.624   1.434
  691SOL     OW 2077   1.493   3.629   0.959
  691SOL    HW1 2078   1.526   3.693   0.890
  691SOL    HW2 2079   1.559   3.623   1.034
  692SOL     OW 2080   0.716   2.427   1.708
  692SOL    HW1 2081   0.735   2.492   1.782
  692SOL    HW2 2082   0.776   2.347   1.717
  693SOL     OW 2083   1.450   3.082   1.633
  693SOL    HW1 2084   1.441   3.072   1.732
  693SOL    HW2 2085   1.546   3.075   1.607
  694SOL     OW 2086   0.390   3.603   1.560
  694SOL    HW1 2087   0.299   3.644   1.558
  694SOL    HW2 2088   0.383   3.509   1.592
  695SOL     OW 2089   1.674   2.745   1.254
  695SOL    HW1 2090   1.647   2.656   1.217
  695SOL    HW2 2091   1.675   2.813   1.181
  696SOL     OW 2092   1.225   2.187   0.449
  696SOL    HW1 2093   1.290   2.113   0.438
  696SOL    HW2 2094   1.245   2.237   0.533
  697SOL     OW 2095   0.594   2.607   0.652
  697SOL    HW1 2096   0.644   2.692   0.633
  697SOL    HW2 2097   0.506   2.609   0.604
  698SOL     OW 2098   1.777   2.204   1.642
  698SOL    HW1 2099   1.760   2.235   1.548
  698SOL    HW2 2100   1.693   2.167   1.680
  699SOL     OW 2101   1.730   2.796   1.517
  699SOL    HW1 2102   1.768   2.887   1.532
  699SOL    HW2 2103   1.722   2.779   1.418
  700SOL     OW 2104   0.859   3.236   0.016
  700SOL    HW1 2105   0.813   3.251   0.104
  700SOL    HW2 2106   0.903   3.321  -0.014
  701SOL     OW 2107   0.661   3.652   0.953
  701SOL    HW1 2108   0.615   3.740   0.940
  701SOL    HW2 2109   0.760   3.664   0.946
  702SOL     OW 2110   0.859   2.818   0.861
  702SOL    HW1 2111   0.913   2.749   0.909
  702SOL    HW2 2112   0.827   2.887   0.927
  703SOL     OW 2113   1.083   2.846   0.087
  703SOL    HW1 2114   1.060   2.899   0.005
  703SOL    HW2 2115   1.164   2.790   0.068
  704SOL     OW 2116   1.861   3.431   0.851
  704SOL    HW1 2117   1.790   3.419   0.781
  704SOL    HW2 2118   1.862   3.352   0.911
  705SOL     OW 2119   0.221   3.176   1.844
  705SOL    HW1 2120   0.156   3.103   1.823
  705SOL    HW2 2121   0.225   3.190   1.942
  706SOL     OW 2122   0.079   3.102   0.653
  706SOL    HW1 2123   0.078   3.055   0.741
  706SOL    HW2 2124   0.161   3.074   0.602
  707SOL     OW 2125   0.672   3.253   1.624
  707SOL    HW1 2126   0.594   3.203   1.662
  707SOL    HW2 2127   0.669   3.348   1.655
  708SOL     OW 2128   1.824   2.054   1.227
  708SOL    HW1 2129   1.820   1.964   1.271
  708SOL    HW2 2130   1.827   2.043   1.128
  709SOL     OW 2131   0.428   2.286   0.520
  709SOL    HW1 2132   0.458   2.214   0.458
  709SOL    HW2 2133   0.389   2.246   0.603
  710SOL     OW 2134   1.705   3.349   1.104
  710SOL    HW1 2135   1.612   3.324   1.077
  710SOL    HW2 2136   1.731   3.299   1.186
  711SOL     OW 2137   0.317   2.409   1.280
  711SOL    HW1 2138   0.355   2.350   1.352
  711SOL    HW2 2139   0.357   2.383   1.192
  712SOL     OW 2140   0.812   3.448   0.687
  712SOL    HW1 2141   0.844   3.458   0.593
  712SOL    HW2 2142   0.733   3.386   0.689
  713SOL     OW 2143   1.424   2.076   1.112
  713SOL    HW1 2144   1.476   2.011   1.167
  713SOL    HW2 2145   1.375   2.139   1.173
  714SOL     OW 2146   1.001   1.896   1.154
  714SOL    HW1 2147   0.938   1.824   1.123
  714SOL    HW2 2148   1.094   1.860   1.154
  715SOL     OW 2149   0.770   3.192   0.301
  715SOL    HW1 2150   0.724   3.105   0.318
  715SOL    HW2 2151   0.861   3.189   0.342
  716SOL     OW 2152   0.618   3.429   1.284
  716SOL    HW1 2153   0.613   3.511   1.341
  716SOL    HW2 2154   0.707   3.426   1.239
  717SOL     OW 2155   1.352   1.914   0.168
  717SOL    HW1 2156   1.387   1.873   0.084
  717SOL    HW2 2157   1.262   1.876   0.188
  718SOL     OW 2158   1.300   2.315   0.691
  718SOL    HW1 2159   1.241   2.395   0.695
  718SOL    HW2 2160   1.315   2.280   0.784
  719SOL     OW 2161   1.593   2.083   0.882
  719SOL    HW1 2162   1.509   2.082   0.936
  719SOL    HW2 2163   1.595   2.166   0.826
  720SOL     OW 2164   0.039   2.939   0.300
  720SOL    HW1 2165   0.138   2.928   0.291
  720SOL    HW2 2166  -0.001   2.853   0.332
  721SOL     OW 2167   0.875   3.508   0.337
  721SOL    HW1 2168   0.798   3.473   0.283
  721SOL    HW2 2169   0.843   3.579   0.399
  722SOL     OW 2170   0.230   2.490   1.975
  722SOL    HW1 2171   0.137   2.488   2.012
  722SOL    HW2 2172   0.231   2.451   1.883
  723SOL     OW 2173   0.225   2.137   2.858
  723SOL    HW1 2174   0.260   2.120   2.950
  723SOL    HW2 2175   0.137   2.092   2.846
  724SOL     OW 2176   0.019   2.230   2.509
  724SOL    HW1 2177  -0.063   2.273   2.548
  724SOL    HW2 2178  -0.009   2.157   2.446
  725SOL     OW 2179   0.569   3.137   3.027
  725SOL    HW1 2180   0.476   3.130   2.990
  725SOL    HW2 2181   0.580   3.226   3.071
  726SOL     OW 2182   1.555   3.373   2.565
  726SOL    HW1 2183   1.498   3.357   2.646
  726SOL    HW2 2184   1.496   3.383   2.485
  727SOL     OW 2185   1.135   2.565   2.579
  727SOL    HW1 2186   1.192   2.643   2.554
  727SOL    HW2 2187   1.075   2.591   2.655
  728SOL     OW 2188   1.755   2.469   2.093
  728SOL    HW1 2189   1.743   2.456   1.994
  728SOL    HW2 2190   1.725   2.388   2.142
  729SOL     OW 2191   0.768   3.006   2.885
  729SOL    HW1 2192   0.690   3.023   2.945
  729SOL    HW2 2193   0.802   3.093   2.849
  730SOL     OW 2194   0.850   2.660   3.685
  730SOL    HW1 2195   0.846   2.736   3.750
  730SOL    HW2 2196   0.872   2.696   3.594
  731SOL     OW 2197   0.685   2.874   2.527
  731SOL    HW1 2198   0.754   2.858   2.597
  731SOL    HW2 2199   0.612   2.931   2.565
  732SOL     OW 2200   0.686   3.023   3.665
  732SOL    HW1 2201   0.746   3.102   3.679
  732SOL    HW2 2202   0.600   3.054   3.624
  733SOL     OW 2203   0.335   3.297   2.923
  733SOL    HW1 2204   0.257   3.266   2.870
  733SOL    HW2 2205   0.393   3.355   2.866
  734SOL     OW 2206   1.460   3.367   3.201
  734SOL    HW1 2207   1.484   3.461   3.227
  734SOL    HW2 2208   1.444   3.313   3.283
  735SOL     OW 2209   0.438   2.254   3.361
  735SOL    HW1 2210   0.520   2.198   3.370
  735SOL    HW2 2211   0.357   2.196   3.365
  736SOL     OW 2212   1.603   2.309   2.599
  736SOL    HW1 2213   1.529   2.355   2.549
  736SOL    HW2 2214   1.654   2.377   2.652
  737SOL     OW 2215   0.231   3.575   2.345
  737SOL    HW1 2216   0.265   3.652   2.399
  737SOL    HW2 2217   0.275   3.575   2.255
  738SOL     OW 2218   1.127   3.203   3.552
  738SOL    HW1 2219   1.174   3.203   3.640
  738SOL    HW2 2220   1.079   3.116   3.541
  739SOL     OW 2221   0.230   3.296   2.400
  739SOL    HW1 2222   0.204   3.392   2.400
  739SOL    HW2 2223   0.159   3.242   2.445
  740SOL     OW 2224   0.240   2.953   2.748
  740SOL    HW1 2225   0.254   2.869   2.800
  740SOL    HW2 2226   0.185   3.017   2.803
  741SOL     OW 2227   0.620   3.648   3.301
  741SOL    HW1 2228   0.528   3.631   3.336
  741SOL    HW2 2229   0.648   3.740   3.327
  742SOL     OW 2230   0.606   2.826   1.985
  742SOL    HW1 2231   0.613   2.910   1.931
  742SOL    HW2 2232   0.652   2.839   2.073
  743SOL     OW 2233   1.594   1.976   3.342
  743SOL    HW1 2234   1.576   2.043   3.270
  743SOL    HW2 2235   1.591   2.022   3.431
  744SOL     OW 2236   0.122   2.505   2.425
  744SOL    HW1 2237   0.077   2.417   2.442
  744SOL    HW2 2238   0.121   2.559   2.509
  745SOL     OW 2239   1.842   3.629   2.221
  745SOL    HW1 2240   1.896   3.600   2.301
  745SOL    HW2 2241   1.872   3.719   2.192
  746SOL     OW 2242   0.027   3.458   1.979
  746SOL    HW1 2243   0.008   3.362   2.000
  746SOL    HW2 2244  -0.006   3.516   2.054
  747SOL     OW 2245   1.689   2.784   2.474
  747SOL    HW1 2246   1.784   2.755   2.482
  747SOL    HW2 2247   1.681   2.849   2.399
  748SOL     OW 2248   1.641   2.970   2.294
  748SOL    HW1 2249   1.727   2.972   2.242
  748SOL    HW2 2250   1.655   3.017   2.382
  749SOL     OW 2251   0.113   2.599   3.459
  749SOL    HW1 2252   0.201   2.586   3.504
  749SOL    HW2 2253   0.100   2.696   3.437
  750SOL     OW 2254   0.613   3.227   2.588
  750SOL    HW1 2255   0.564   3.140   2.597
  750SOL    HW2 2256   0.590   3.270   2.501
  751SOL     OW 2257   1.293   3.090   3.285
  751SOL    HW1 2258   1.330   3.017   3.227
  751SOL    HW2 2259   1.345   3.095   3.370
  752SOL     OW 2260   0.809   1.866   2.364
  752SOL    HW1 2261   0.849   1.957   2.355
  752SOL    HW2 2262   0.709   1.874   2.370
  753SOL     OW 2263   0.197   2.838   3.126
  753SOL    HW1 2264   0.286   2.793   3.112
  753SOL    HW2 2265   0.124   2.773   3.107
  754SOL     OW 2266   1.525   2.861   2.052
  754SOL    HW1 2267   1.462   2.785   2.065
  754SOL    HW2 2268   1.573   2.879   2.138
  755SOL     OW 2269   1.187   3.654   3.478
  755SOL    HW1 2270   1.211   3.714   3.402
  755SOL    HW2 2271   1.194   3.559   3.448
  756SOL     OW 2272   0.317   2.113   3.663
  756SOL    HW1 2273   0.388   2.184   3.669
  756SOL    HW2 2274   0.229   2.152   3.691
  757SOL     OW 2275   1.466   3.279   2.815
  757SOL    HW1 2276   1.407   3.285   2.895
  757SOL    HW2 2277   1.451   3.191   2.769
  758SOL     OW 2278   1.667   3.576   2.434
  758SOL    HW1 2279   1.626   3.553   2.346
  758SOL    HW2 2280   1.649   3.502   2.499
  759SOL     OW 2281   0.598   2.591   2.132
  759SOL    HW1 2282   0.622   2.660   2.064
  759SOL    HW2 2283   0.520   2.624   2.186
  760SOL     OW 2284   1.281   2.207   2.806
  760SOL    HW1 2285   1.195   2.157   2.793
  760SOL    HW2 2286   1.343   2.153   2.862
  761SOL     OW 2287   1.576   3.524   2.169
  761SOL    HW1 2288   1.665   3.570   2.172
  761SOL    HW2 2289   1.555   3.500   2.074
  762SOL     OW 2290   0.807   2.467   3.327
  762SOL    HW1 2291   0.760   2.464   3.416
  762SOL    HW2 2292   0.756   2.412   3.261
  763SOL     OW 2293   1.394   2.331   3.536
  763SOL    HW1 2294   1.374   2.374   3.624
  763SOL    HW2 2295   1.472   2.269   3.545
  764SOL     OW 2296   0.973   2.752   3.434
  764SOL    HW1 2297   1.019   2.668   3.405
  764SOL    HW2 2298   0.917   2.786   3.359
  765SOL     OW 2299   0.991   2.272   3.104
  765SOL    HW1 2300   0.914   2.306   3.158
  765SOL    HW2 2301   0.957   2.221   3.025
  766SOL     OW 2302   1.041   2.563   2.291
  766SOL    HW1 2303   1.067   2.559   2.387
  766SOL    HW2 2304   0.956   2.512   2.277
  767SOL     OW 2305   0.076   2.673   2.651
  767SOL    HW1 2306   0.175   2.661   2.660
  767SOL    HW2 2307   0.052   2.768   2.672
  768SOL     OW 2308   0.130   3.683   3.433
  768SOL    HW1 2309   0.120   3.668   3.532
  768SOL    HW2 2310   0.044   3.719   3.397
  769SOL     OW 2311   0.865   2.210   2.057
  769SOL    HW1 2312   0.924   2.273   2.008
  769SOL    HW2 2313   0.884   2.116   2.028
  770SOL     OW 2314   1.719   2.447   3.693
  770SOL    HW1 2315   1.693   2.536   3.657
  770SOL    HW2 2316   1.717   2.379   3.620
  771SOL     OW 2317   1.362   3.006   2.407
  771SOL    HW1 2318   1.445   2.977   2.359
  771SOL    HW2 2319   1.313   3.073   2.351
  772SOL     OW 2320   0.550   2.058   2.747
  772SOL    HW1 2321   0.545   2.053   2.847
  772SOL    HW2 2322   0.552   2.154   2.718
  773SOL     OW 2323   1.008   3.318   2.339
  773SOL    HW1 2324   0.962   3.390   2.287
  773SOL    HW2 2325   1.004   3.338   2.437
  774SOL     OW 2326   0.351   3.663   2.715
  774SOL    HW1 2327   0.401   3.577   2.721
  774SOL    HW2 2328   0.416   3.740   2.712
  775SOL     OW 2329   1.795   2.928   2.735
  775SOL    HW1 2330   1.733   2.913   2.659
  775SOL    HW2 2331   1.743   2.939   2.820
  776SOL     OW 2332   1.227   3.412   3.368
  776SOL    HW1 2333   1.233   3.335   3.432
  776SOL    HW2 2334   1.175   3.386   3.288
  777SOL     OW 2335   0.321   2.805   2.104
  777SOL    HW1 2336   0.403   2.844   2.062
  777SOL    HW2 2337   0.294   2.723   2.055
  778SOL     OW 2338   1.458   2.597   2.590
  778SOL    HW1 2339   1.453   2.532   2.665
  778SOL    HW2 2340   1.538   2.656   2.603
  779SOL     OW 2341   0.461   3.128   3.589
  779SOL    HW1 2342   0.411   3.129   3.503
  779SOL    HW2 2343   0.398   3.110   3.665
  780SOL     OW 2344   1.111   3.638   2.099
  780SOL    HW1 2345   1.051   3.576   2.149
  780SOL    HW2 2346   1.142   3.594   2.014
  781SOL     OW 2347   0.202   2.147   3.360
  781SOL    HW1 2348   0.122   2.207   3.347
  781SOL    HW2 2349   0.192   2.098   3.446
  782SOL     OW 2350   1.632   3.239   1.943
  782SOL    HW1 2351   1.600   3.333   1.933
  782SOL    HW2 2352   1.556   3.176   1.931
  783SOL     OW 2353   0.464   3.605   2.185
  783SOL    HW1 2354   0.497   3.644   2.271
  783SOL    HW2 2355   0.540   3.598   2.120
  784SOL     OW 2356   1.400   1.969   2.288
  784SOL    HW1 2357   1.376   1.932   2.198
  784SOL    HW2 2358   1.499   1.985   2.292
  785SOL     OW 2359   0.249   3.647   3.103
  785SOL    HW1 2360   0.306   3.582   3.153
  785SOL    HW2 2361   0.233   3.614   3.010
  786SOL     OW 2362   0.940   3.560   2.766
  786SOL    HW1 2363   1.020   3.503   2.787
  786SOL    HW2 2364   0.891   3.520   2.689
  787SOL     OW 2365   0.382   2.562   2.342
  787SOL    HW1 2366   0.427   2.472   2.339
  787SOL    HW2 2367   0.288   2.551   2.375
  788SOL     OW 2368   1.547   2.084   3.591
  788SOL    HW1 2369   1.542   2.121   3.683
  788SOL    HW2 2370   1.475   2.015   3.579
  789SOL     OW 2371   0.614   1.984   1.979
  789SOL    HW1 2372   0.712   1.962   1.986
  789SOL    HW2 2373   0.583   1.967   1.886
  790SOL     OW 2374   0.781   2.126   3.611
  790SOL    HW1 2375   0.848   2.065   3.654
  790SOL    HW2 2376   0.708   2.145   3.676
  791SOL     OW 2377   0.888   3.376   3.057
  791SOL    HW1 2378   0.865   3.351   2.963
  791SOL    HW2 2379   0.949   3.307   3.096
  792SOL     OW 2380   1.351   2.452   3.295
  792SOL    HW1 2381   1.379   2.409   3.380
  792SOL    HW2 2382   1.376   2.548   3.296
  793SOL     OW 2383   0.803   3.264   2.786
  793SOL    HW1 2384   0.893   3.278   2.744
  793SOL    HW2 2385   0.732   3.266   2.715
  794SOL     OW 2386   0.922   2.365   2.761
  794SOL    HW1 2387   0.897   2.356   2.665
  794SOL    HW2 2388   0.970   2.283   2.792
  795SOL     OW 2389   0.539   1.926   2.374
  795SOL    HW1 2390   0.458   1.927   2.432
  795SOL    HW2 2391   0.542   2.009   2.319
  796SOL     OW 2392   1.434   3.050   1.903
  796SOL    HW1 2393   1.466   2.974   1.960
  796SOL    HW2 2394   1.342   3.077   1.933
  797SOL     OW 2395   0.297   1.897   2.033
  797SOL    HW1 2396   0.346   1.981   2.012
  797SOL    HW2 2397   0.359   1.832   2.078
  798SOL     OW 2398   0.935   2.098   2.342
  798SOL    HW1 2399   0.887   2.139   2.264
  798SOL    HW2 2400   1.034   2.096   2.323
  799SOL     OW 2401   1.076   2.545   3.326
  799SOL    HW1 2402   0.996   2.484   3.329
  799SOL    HW2 2403   1.157   2.492   3.302
  800SOL     OW 2404   1.227   3.432   2.655
  800SOL    HW1 2405   1.248   3.506   2.590
  800SOL    HW2 2406   1.295   3.432   2.728
  801SOL     OW 2407   0.459   3.014   2.603
  801SOL    HW1 2408   0.388   2.987   2.668
  801SOL    HW2 2409   0.433   2.986   2.510
  802SOL     OW 2410   1.271   3.659   2.453
  802SOL    HW1 2411   1.315   3.723   2.389
  802SOL    HW2 2412   1.221   3.711   2.523
  803SOL     OW 2413   1.032   2.411   1.878
  803SOL    HW1 2414   0.991   2.493   1.839
  803SOL    HW2 2415   1.096   2.437   1.951
  804SOL     OW 2416   0.078   2.418   3.248
  804SOL    HW1 2417   0.170   2.417   3.207
  804SOL    HW2 2418   0.072   2.492   3.315
  805SOL     OW 2419   0.561   2.084   3.009
  805SOL    HW1 2420   0.599   2.000   3.046
  805SOL    HW2 2421   0.473   2.103   3.053
  806SOL     OW 2422   0.866   2.316   2.504
  806SOL    HW1 2423   0.834   2.388   2.442
  806SOL    HW2 2424   0.890   2.235   2.451
  807SOL     OW 2425   1.017   1.901   2.615
  807SOL    HW1 2426   0.945   1.906   2.546
  807SOL    HW2 2427   0.993   1.832   2.684
  808SOL     OW 2428   1.429   3.035   2.729
  808SOL    HW1 2429   1.374   2.951   2.722
  808SOL    HW2 2430   1.455   3.064   2.637
  809SOL     OW 2431   1.466   2.452   2.854
  809SOL    HW1 2432   1.436   2.357   2.861
  809SOL    HW2 2433   1.539   2.468   2.920
  810SOL     OW 2434   1.857   2.695   2.239
  810SOL    HW1 2435   1.899   2.631   2.303
  810SOL    HW2 2436   1.819   2.644   2.161
  811SOL     OW 2437   0.488   3.247   2.036
  811SOL    HW1 2438   0.401   3.232   2.083
  811SOL    HW2 2439   0.471   3.273   1.941
  812SOL     OW 2440   1.664   3.142   2.519
  812SOL    HW1 2441   1.763   3.150   2.533
  812SOL    HW2 2442   1.619   3.226   2.550
  813SOL     OW 2443   1.390   2.437   1.940
  813SOL    HW1 2444   1.336   2.416   2.021
  813SOL    HW2 2445   1.481   2.396   1.949
  814SOL     OW 2446   0.527   2.118   2.190
  814SOL    HW1 2447   0.554   2.059   2.115
  814SOL    HW2 2448   0.527   2.213   2.159
  815SOL     OW 2449   1.754   3.085   3.450
  815SOL    HW1 2450   1.845   3.046   3.437
  815SOL    HW2 2451   1.762   3.181   3.474
  816SOL     OW 2452   1.064   3.209   3.202
  816SOL    HW1 2453   0.984   3.186   3.257
  816SOL    HW2 2454   1.147   3.183   3.251
  817SOL     OW 2455   1.592   3.491   3.487
  817SOL    HW1 2456   1.619   3.525   3.397
  817SOL    HW2 2457   1.671   3.453   3.533
  818SOL     OW 2458   1.111   3.057   2.962
  818SOL    HW1 2459   1.071   3.101   3.043
  818SOL    HW2 2460   1.070   3.094   2.879
  819SOL     OW 2461   1.638   2.961   2.941
  819SOL    HW1 2462   1.643   3.042   3.000
  819SOL    HW2 2463   1.552   2.963   2.890
  820SOL     OW 2464   0.915   1.951   3.264
  820SOL    HW1 2465   0.940   1.931   3.169
  820SOL    HW2 2466   0.987   2.007   3.306
  821SOL     OW 2467   0.980   2.978   3.581
  821SOL    HW1 2468   0.881   2.984   3.591
  821SOL    HW2 2469   1.003   2.898   3.525
  822SOL     OW 2470   0.705   2.912   2.230
  822SOL    HW1 2471   0.691   2.919   2.329
  822SOL    HW2 2472   0.789   2.861   2.212
  823SOL     OW 2473   0.410   2.675   3.113
  823SOL    HW1 2474   0.496   2.687   3.163
  823SOL    HW2 2475   0.368   2.588   3.140
  824SOL     OW 2476   1.274   2.248   3.124
  824SOL    HW1 2477   1.295   2.322   3.188
  824SOL    HW2 2478   1.185   2.265   3.081
  825SOL     OW 2479   0.064   3.426   3.193
  825SOL    HW1 2480   0.018   3.508   3.159
  825SOL    HW2 2481   0.162   3.445   3.202
  826SOL     OW 2482   0.367   2.962   2.363
  826SOL    HW1 2483   0.360   3.045   2.307
  826SOL    HW2 2484   0.371   2.882   2.303
  827SOL     OW 2485   0.566   2.399   2.727
  827SOL    HW1 2486   0.578   2.465   2.653
  827SOL    HW2 2487   0.612   2.433   2.810
  828SOL     OW 2488   1.252   3.210   2.250
  828SOL    HW1 2489   1.302   3.287   2.290
  828SOL    HW2 2490   1.157   3.212   2.282
  829SOL     OW 2491   1.272   3.307   3.004
  829SOL    HW1 2492   1.319   3.320   3.091
  829SOL    HW2 2493   1.206   3.233   3.013
  830SOL     OW 2494   1.582   2.501   2.334
  830SOL    HW1 2495   1.551   2.562   2.407
  830SOL    HW2 2496   1.632   2.553   2.265
  831SOL     OW 2497   0.354   3.372   3.191
  831SOL    HW1 2498   0.333   3.328   3.104
  831SOL    HW2 2499   0.451   3.398   3.194
  832SOL     OW 2500   0.402   2.613   3.460
  832SOL    HW1 2501   0.470   2.668   3.413
  832SOL    HW2 2502   0.442   2.525   3.487
  833SOL     OW 2503   1.587   2.641   3.532
  833SOL    HW1 2504   1.495   2.679   3.527
  833SOL    HW2 2505   1.647   2.688   3.467
  834SOL     OW 2506   1.013   1.967   3.632
  834SOL    HW1 2507   1.019   2.052   3.580
  834SOL    HW2 2508   1.045   1.891   3.575
  835SOL     OW 2509   0.504   1.912   3.602
  835SOL    HW1 2510   0.462   1.855   3.532
  835SOL    HW2 2511   0.438   1.981   3.634
  836SOL     OW 2512   0.573   2.732   2.891
  836SOL    HW1 2513   0.617   2.821   2.882
  836SOL    HW2 2514   0.510   2.732   2.968
  837SOL     OW 2515   1.360   2.724   2.907
  837SOL    HW1 2516   1.285   2.724   2.841
  837SOL    HW2 2517   1.397   2.632   2.916
  838SOL     OW 2518   1.209   2.387   2.137
  838SOL    HW1 2519   1.222   2.303   2.191
  838SOL    HW2 2520   1.180   2.461   2.197
  839SOL     OW 2521   0.307   2.075   3.093
  839SOL    HW1 2522   0.284   2.112   3.183
  839SOL    HW2 2523   0.277   1.980   3.087
  840SOL     OW 2524   0.037   3.172   3.144
  840SOL    HW1 2525   0.090   3.123   3.212
  840SOL    HW2 2526   0.059   3.270   3.149
  841SOL     OW 2527   0.732   2.496   2.926
  841SOL    HW1 2528   0.791   2.470   2.850
  841SOL    HW2 2529   0.704   2.592   2.915
  842SOL     OW 2530   1.728   2.797   3.716
  842SOL    HW1 2531   1.682   2.790   3.627
  842SOL    HW2 2532   1.666   2.841   3.782
  843SOL     OW 2533   0.307   1.925   2.480
  843SOL    HW1 2534   0.296   2.019   2.513
  843SOL    HW2 2535   0.302   1.862   2.557
  844SOL     OW 2536   1.622   2.229   2.236
  844SOL    HW1 2537   1.624   2.153   2.300
  844SOL    HW2 2538   1.574   2.306   2.276
  845SOL     OW 2539   1.023   2.628   2.828
  845SOL    HW1 2540   1.038   2.649   2.924
  845SOL    HW2 2541   0.993   2.533   2.819
  846SOL     OW 2542   0.980   3.435   3.562
  846SOL    HW1 2543   0.960   3.479   3.474
  846SOL    HW2 2544   1.019   3.344   3.546
  847SOL     OW 2545   1.859   3.380   3.467
  847SOL    HW1 2546   1.873   3.407   3.372
  847SOL    HW2 2547   1.942   3.402   3.520
  848SOL     OW 2548   0.350   2.760   3.666
  848SOL    HW1 2549   0.426   2.804   3.714
  848SOL    HW2 2550   0.385   2.713   3.584
  849SOL     OW 2551   1.540   2.136   1.987
  849SOL    HW1 2552   1.479   2.061   2.010
  849SOL    HW2 2553   1.562   2.188   2.070
  850SOL     OW 2554   1.303   2.700   1.904
  850SOL    HW1 2555   1.337   2.607   1.919
  850SOL    HW2 2556   1.321   2.727   1.809
  851SOL     OW 2557   1.068   3.195   2.711
  851SOL    HW1 2558   1.075   3.111   2.656
  851SOL    HW2 2559   1.130   3.264   2.675
  852SOL     OW 2560   0.319   2.672   2.811
  852SOL    HW1 2561   0.412   2.708   2.816
  852SOL    HW2 2562   0.313   2.587   2.863
  853SOL     OW 2563   0.339   2.371   2.868
  853SOL    HW1 2564   0.287   2.288   2.851
  853SOL    HW2 2565   0.416   2.376   2.804
  854SOL     OW 2566   1.138   2.242   3.540
  854SOL    HW1 2567   1.093   2.305   3.604
  854SOL    HW2 2568   1.231   2.273   3.523
  855SOL     OW 2569   1.160   2.069   3.339
  855SOL    HW1 2570   1.160   2.133   3.416
  855SOL    HW2 2571   1.188   2.117   3.256
  856SOL     OW 2572   0.008   3.188   2.062
  856SOL    HW1 2573  -0.085   3.209   2.031
  856SOL    HW2 2574   0.018   3.089   2.075
  857SOL     OW 2575   0.088   3.663   2.789
  857SOL    HW1 2576   0.046   3.577   2.762
  857SOL    HW2 2577   0.182   3.666   2.755
  858SOL     OW 2578   0.504   3.430   2.772
  858SOL    HW1 2579   0.570   3.504   2.781
  858SOL    HW2 2580   0.548   3.351   2.730
  859SOL     OW 2581   1.002   2.658   3.100
  859SOL    HW1 2582   1.043   2.626   3.186
  859SOL    HW2 2583   0.906   2.631   3.097
  860SOL     OW 2584   0.040   2.406   2.976
  860SOL    HW1 2585   0.125   2.373   2.935
  860SOL    HW2 2586   0.053   2.421   3.074
  861SOL     OW 2587   0.189   2.382   3.584
  861SOL    HW1 2588   0.248   2.342   3.514
  861SOL    HW2 2589   0.131   2.453   3.543
  862SOL     OW 2590   1.369   2.812   3.522
  862SOL    HW1 2591   1.408   2.901   3.542
  862SOL    HW2 2592   1.379   2.792   3.425
  863SOL     OW 2593   0.815   2.434   2.187
  863SOL    HW1 2594   0.822   2.345   2.141
  863SOL    HW2 2595   0.721   2.468   2.179
  864SOL     OW 2596   1.657   2.466   3.068
  864SOL    HW1 2597   1.619   2.397   3.130
  864SOL    HW2 2598   1.739   2.430   3.024
  865SOL     OW 2599   0.252   3.426   3.606
  865SOL    HW1 2600   0.222   3.483   3.682
  865SOL    HW2 2601   0.245   3.329   3.632
  866SOL     OW 2602   0.671   2.326   3.131
  866SOL    HW1 2603   0.637   2.237   3.101
  866SOL    HW2 2604   0.697   2.380   3.051
  867SOL     OW 2605   0.930   3.540   3.327
  867SOL    HW1 2606   0.906   3.522   3.232
  867SOL    HW2 2607   0.960   3.634   3.337
  868SOL     OW 2608   0.473   2.362   2.053
  868SOL    HW1 2609   0.534   2.442   2.057
  868SOL    HW2 2610   0.378   2.393   2.060
  869SOL     OW 2611   0.159   2.999   3.328
  869SOL    HW1 2612   0.181   2.938   3.404
  869SOL    HW2 2613   0.169   2.950   3.242
  870SOL     OW 2614   1.347   2.921   3.096
  870SOL    HW1 2615   1.371   2.858   3.022
  870SOL    HW2 2616   1.257   2.961   3.078
  871SOL     OW 2617   1.302   2.717   2.171
  871SOL    HW1 2618   1.216   2.686   2.213
  871SOL    HW2 2619   1.298   2.703   2.072
  872SOL     OW 2620   1.759   3.609   3.016
  872SOL    HW1 2621   1.820   3.639   2.943
  872SOL    HW2 2622   1.721   3.520   2.994
  873SOL     OW 2623   1.252   3.593   2.990
  873SOL    HW1 2624   1.336   3.598   2.936
  873SOL    HW2 2625   1.229   3.497   3.008
  874SOL     OW 2626   0.083   3.120   2.884
  874SOL    HW1 2627   0.078   3.119   2.984
  874SOL    HW2 2628   0.000   3.079   2.846
  875SOL     OW 2629   0.688   3.524   3.578
  875SOL    HW1 2630   0.632   3.605   3.587
  875SOL    HW2 2631   0.740   3.528   3.492
  876SOL     OW 2632   1.726   1.997   2.385
  876SOL    HW1 2633   1.799   1.980   2.318
  876SOL    HW2 2634   1.695   1.910   2.423
  877SOL     OW 2635   1.388   3.435   2.339
  877SOL    HW1 2636   1.455   3.447   2.265
  877SOL    HW2 2637   1.348   3.524   2.362
  878SOL     OW 2638   0.130   3.656   3.713
  878SOL    HW1 2639   0.089   3.582   3.766
  878SOL    HW2 2640   0.194   3.707   3.771
  879SOL     OW 2641   1.280   2.789   2.534
  879SOL    HW1 2642   1.340   2.708   2.536
  879SOL    HW2 2643   1.320   2.858   2.474
  880SOL     OW 2644   0.830   3.135   3.284
  880SOL    HW1 2645   0.825   3.168   3.379
  880SOL    HW2 2646   0.744   3.154   3.238
  881SOL     OW 2647   0.672   3.478   2.016
  881SOL    HW1 2648   0.681   3.488   1.917
  881SOL    HW2 2649   0.632   3.389   2.037
  882SOL     OW 2650   1.650   3.582   3.256
  882SOL    HW1 2651   1.703   3.592   3.172
  882SOL    HW2 2652   1.623   3.672   3.290
  883SOL     OW 2653   1.841   2.037   2.825
  883SOL    HW1 2654   1.880   1.952   2.789
  883SOL    HW2 2655   1.743   2.039   2.806
  884SOL     OW 2656   0.263   2.188   2.582
  884SOL    HW1 2657   0.184   2.239   2.548
  884SOL    HW2 2658   0.254   2.173   2.680
  885SOL     OW 2659   1.194   3.474   1.893
  885SOL    HW1 2660   1.200   3.381   1.930
  885SOL    HW2 2661   1.135   3.474   1.813
  886SOL     OW 2662   0.822   2.864   3.234
  886SOL    HW1 2663   0.862   2.863   3.142
  886SOL    HW2 2664   0.832   2.956   3.274
  887SOL     OW 2665   0.916   2.772   2.153
  887SOL    HW1 2666   0.979   2.810   2.085
  887SOL    HW2 2667   0.956   2.689   2.192
  888SOL     OW 2668   1.504   3.469   1.906
  888SOL    HW1 2669   1.412   3.506   1.913
  888SOL    HW2 2670   1.542   3.489   1.816
  889SOL     OW 2671   0.372   3.150   3.352
  889SOL    HW1 2672   0.359   3.243   3.318
  889SOL    HW2 2673   0.288   3.098   3.339
  890SOL     OW 2674   1.614   3.154   3.151
  890SOL    HW1 2675   1.674   3.157   3.231
  890SOL    HW2 2676   1.539   3.218   3.164
  891SOL     OW 2677   1.039   2.960   2.558
  891SOL    HW1 2678   0.969   2.913   2.612
  891SOL    HW2 2679   1.098   2.892   2.515
  892SOL     OW 2680   1.014   2.098   2.833
  892SOL    HW1 2681   1.006   2.062   2.740
  892SOL    HW2 2682   1.012   2.022   2.898
  893SOL     OW 2683   0.590   3.349   2.353
  893SOL    HW1 2684   0.632   3.291   2.283
  893SOL    HW2 2685   0.546   3.428   2.309
  894SOL     OW 2686   1.709   2.247   3.243
  894SOL    HW1 2687   1.782   2.316   3.247
  894SOL    HW2 2688   1.737   2.172   3.184
  895SOL     OW 2689   0.255   3.210   2.152
  895SOL    HW1 2690   0.159   3.211   2.125
  895SOL    HW2 2691   0.267   3.263   2.236
  896SOL     OW 2692   0.105   2.875   3.588
  896SOL    HW1 2693   0.028   2.842   3.642
  896SOL    HW2 2694   0.190   2.845   3.630
  897SOL     OW 2695   0.672   2.065   3.351
  897SOL    HW1 2696   0.762   2.049   3.311
  897SOL    HW2 2697   0.680   2.070   3.450
  898SOL     OW 2698   0.075   2.207   1.895
  898SOL    HW1 2699  -0.017   2.179   1.866
  898SOL    HW2 2700   0.106   2.284   1.839
  899SOL     OW 2701   1.440   2.718   3.260
  899SOL    HW1 2702   1.383   2.770   3.197
  899SOL    HW2 2703   1.536   2.730   3.236
  900SOL     OW 2704   0.072   2.028   2.180
  900SOL    HW1 2705   0.055   2.111   2.126
  900SOL    HW2 2706   0.162   1.991   2.158
  901SOL     OW 2707   1.183   3.197   1.981
  901SOL    HW1 2708   1.084   3.186   1.983
  901SOL    HW2 2709   1.217   3.212   2.074
  902SOL     OW 2710   0.613   2.704   3.293
  902SOL    HW1 2711   0.669   2.785   3.276
  902SOL    HW2 2712   0.672   2.624   3.296
  903SOL     OW 2713   1.493   3.629   2.821
  903SOL    HW1 2714   1.526   3.693   2.752
  903SOL    HW2 2715   1.559   3.623   2.896
  904SOL     OW 2716   0.716   2.427   3.570
  904SOL    HW1 2717   0.735   2.492   3.644
  904SOL    HW2 2718   0.776   2.347   3.579
  905SOL     OW 2719   1.450   3.082   3.495
  905SOL    HW1 2720   1.441   3.072   3.594
  905SOL    HW2 2721   1.546   3.075   3.469
  906SOL     OW 2722   0.390   3.603   3.422
  906SOL    HW1 2723   0.299   3.644   3.420
  906SOL    HW2 2724   0.383   3.509   3.454
  907SOL     OW 2725   1.674   2.745   3.116
  907SOL    HW1 2726   1.647   2.656   3.079
  907SOL    HW2 2727   1.675   2.813   3.043
  908SOL     OW 2728   1.225   2.187   2.311
  908SOL    HW1 2729   1.290   2.113   2.300
  908SOL    HW2 2730   1.245   2.237   2.395
  909SOL     OW 2731   0.594   2.607   2.514
  909SOL    HW1 2732   0.644   2.692   2.495
  909SOL    HW2 2733   0.506   2.609   2.466
  910SOL     OW 2734   1.777   2.204   3.504
  910SOL    HW1 2735   1.760   2.235   3.410
  910SOL    HW2 2736   1.693   2.167   3.542
  911SOL     OW 2737   1.730   2.796   3.379
  911SOL    HW1 2738   1.768   2.887   3.394
  911SOL    HW2 2739   1.722   2.779   3.280
  912SOL     OW 2740   0.859   3.236   1.878
  912SOL    HW1 2741   0.813   3.251   1.966
  912SOL    HW2 2742   0.903   3.321   1.848
  913SOL     OW 2743   0.661   3.652   2.815
  913SOL    HW1 2744   0.615   3.740   2.802
  913SOL    HW2 2745   0.760   3.664   2.808
  914SOL     OW 2746   0.859   2.818   2.723
  914SOL    HW1 2747   0.913   2.749   2.771
  914SOL    HW2 2748   0.827   2.887   2.789
  915SOL     OW 2749   1.083   2.846   1.949
  915SOL    HW1 2750   1.060   2.899   1.867
  915SOL    HW2 2751   1.164   2.790   1.930
  916SOL     OW 2752   1.861   3.431   2.713
  916SOL    HW1 2753   1.790   3.419   2.643
  916SOL    HW2 2754   1.862   3.352   2.773
  917SOL     OW 2755   0.221   3.176   3.706
  917SOL    HW1 2756   0.156   3.103   3.685
  917SOL    HW2 2757   0.225   3.190   3.804
  918SOL     OW 2758   0.079   3.102   2.515
  918SOL    HW1 2759   0.078   3.055   2.603
  918SOL    HW2 2760   0.161   3.074   2.464
  919SOL     OW 2761   0.672   3.253   3.486
  919SOL    HW1 2762   0.594   3.203   3.524
  919SOL    HW2 2763   0.669   3.348   3.517
  920SOL     OW 2764   1.824   2.054   3.089
  920SOL    HW1 2765   1.820   1.964   3.133
  920SOL    HW2 2766   1.827   2.043   2.990
  921SOL     OW 2767   0.428   2.286   2.382
  921SOL    HW1 2768   0.458   2.214   2.320
  921SOL    HW2 2769   0.389   2.246   2.465
  922SOL     OW 2770   1.705   3.349   2.966
  922SOL    HW1 2771   1.612   3.324   2.939
  922SOL    HW2 2772   1.731   3.299   3.048
  923SOL     OW 2773   0.317   2.409   3.142
  923SOL    HW1 2774   0.355   2.350   3.214
  923SOL    HW2 2775   0.357   2.383   3.054
  924SOL     OW 2776   0.812   3.448   2.549
  924SOL    HW1 2777   0.844   3.458   2.455
  924SOL    HW2 2778   0.733   3.386   2.551
  925SOL     OW 2779   1.424   2.076   2.974
  925SOL    HW1 2780   1.476   2.011   3.029
  925SOL    HW2 2781   1.375   2.139   3.035
  926SOL     OW 2782   1.001   1.896   3.016
  926SOL    HW1 2783   0.938   1.824   2.985
  926SOL    HW2 2784   1.094   1.860   3.016
  927SOL     OW 2785   0.770   3.192   2.163
  927SOL    HW1 2786   0.724   3.105   2.180
  927SOL    HW2 2787   0.861   3.189   2.204
  928SOL     OW 2788   0.618   3.429   3.146
  928SOL    HW1 2789   0.613   3.511   3.203
  928SOL    HW2 2790   0.707   3.426   3.101
  929SOL     OW 2791   1.352   1.914   2.030
  929SOL    HW1 2792   1.387   1.873   1.946
  929SOL    HW2 2793   1.262   1.876   2.050
  930SOL     OW 2794   1.300   2.315   2.553
  930SOL    HW1 2795   1.241   2.395   2.557
  930SOL    HW2 2796   1.315   2.280   2.646
  931SOL     OW 2797   1.593   2.083   2.744
  931SOL    HW1 2798   1.509   2.082   2.798
  931SOL    HW2 2799   1.595   2.166   2.688
  932SOL     OW 2800   0.039   2.939   2.162
  932SOL    HW1 2801   0.138   2.928   2.153
  932SOL    HW2 2802  -0.001   2.853   2.194
  933SOL     OW 2803   0.875   3.508   2.199
  933SOL    HW1 2804   0.798   3.473   2.145
  933SOL    HW2 2805   0.843   3.579   2.261
  934SOL     OW 2806   0.230   2.490   3.837
  934SOL    HW1 2807   0.137   2.488   3.874
  934SOL    HW2 2808   0.231   2.451   3.745
  935SOL     OW 2809   1.135   2.565   4.441
  935SOL    HW1 2810   1.192   2.643   4.416
  935SOL    HW2 2811   1.075   2.591   4.517
  936SOL     OW 2812   1.755   2.469   3.955
  936SOL    HW1 2813   1.743   2.456   3.856
  936SOL    HW2 2814   1.725   2.388   4.004
  937SOL     OW 2815   1.603   2.309   4.461
  937SOL    HW1 2816   1.529   2.355   4.411
  937SOL    HW2 2817   1.654   2.377   4.514
  938SOL     OW 2818   0.231   3.575   4.207
  938SOL    HW1 2819   0.265   3.652   4.261
  938SOL    HW2 2820   0.275   3.575   4.117
  939SOL     OW 2821   0.230   3.296   4.262
  939SOL    HW1 2822   0.204   3.392   4.262
  939SOL    HW2 2823   0.159   3.242   4.307
  940SOL     OW 2824   0.606   2.826   3.847
  940SOL    HW1 2825   0.613   2.910   3.793
  940SOL    HW2 2826   0.652   2.839   3.935
  941SOL     OW 2827   0.122   2.505   4.287
  941SOL    HW1 2828   0.077   2.417   4.304
  941SOL    HW2 2829   0.121   2.559   4.371
  942SOL     OW 2830   1.842   3.629   4.083
  942SOL    HW1 2831   1.896   3.600   4.163
  942SOL    HW2 2832   1.872   3.719   4.054
  943SOL     OW 2833   0.027   3.458   3.841
  943SOL    HW1 2834   0.008   3.362   3.862
  943SOL    HW2 2835  -0.006   3.516   3.916
  944SOL     OW 2836   1.689   2.784   4.336
  944SOL    HW1 2837   1.784   2.755   4.344
  944SOL    HW2 2838   1.681   2.849   4.261
  945SOL     OW 2839   1.641   2.970   4.156
  945SOL    HW1 2840   1.727   2.972   4.104
  945SOL    HW2 2841   1.655   3.017   4.244
  946SOL     OW 2842   0.613   3.227   4.450
  946SOL    HW1 2843   0.564   3.140   4.459
  946SOL    HW2 2844   0.590   3.270   4.363
  947SOL     OW 2845   0.809   1.866   4.226
  947SOL    HW1 2846   0.849   1.957   4.217
  947SOL    HW2 2847   0.709   1.874   4.232
  948SOL     OW 2848   1.525   2.861   3.914
  948SOL    HW1 2849   1.462   2.785   3.927
  948SOL    HW2 2850   1.573   2.879   4.000
  949SOL     OW 2851   1.466   3.279   4.677
  949SOL    HW1 2852   1.407   3.285   4.757
  949SOL    HW2 2853   1.451   3.191   4.631
  950SOL     OW 2854   0.598   2.591   3.994
  950SOL    HW1 2855   0.622   2.660   3.926
  950SOL    HW2 2856   0.520   2.624   4.048
  951SOL     OW 2857   1.281   2.207   4.668
  951SOL    HW1 2858   1.195   2.157   4.655
  951SOL    HW2 2859   1.343   2.153   4.724
  952SOL     OW 2860   1.576   3.524   4.031
  952SOL    HW1 2861   1.665   3.570   4.034
  952SOL    HW2 2862   1.555   3.500   3.936
  953SOL     OW 2863   1.041   2.563   4.153
  953SOL    HW1 2864   1.067   2.559   4.249
  953SOL    HW2 2865   0.956   2.512   4.139
  954SOL     OW 2866   0.076   2.673   4.513
  954SOL    HW1 2867   0.175   2.661   4.522
  954SOL    HW2 2868   0.052   2.768   4.534
  955SOL     OW 2869   0.865   2.210   3.919
  955SOL    HW1 2870   0.924   2.273   3.870
  955SOL    HW2 2871   0.884   2.116   3.890
  956SOL     OW 2872   1.362   3.006   4.269
  956SOL    HW1 2873   1.445   2.977   4.221
  956SOL    HW2 2874   1.313   3.073   4.213
  957SOL     OW 2875   1.008   3.318   4.201
  957SOL    HW1 2876   0.962   3.390   4.149
  957SOL    HW2 2877   1.004   3.338   4.299
  958SOL     OW 2878   0.351   3.663   4.577
  958SOL    HW1 2879   0.401   3.577   4.583
  958SOL    HW2 2880   0.416   3.740   4.574
  959SOL     OW 2881   1.795   2.928   4.597
  959SOL    HW1 2882   1.733   2.913   4.521
  959SOL    HW2 2883   1.743   2.939   4.682
  960SOL     OW 2884   0.321   2.805   3.966
  960SOL    HW1 2885   0.403   2.844   3.924
  960SOL    HW2 2886   0.294   2.723   3.917
  961SOL     OW 2887   1.111   3.638   3.961
  961SOL    HW1 2888   1.051   3.576   4.011
  961SOL    HW2 2889   1.142   3.594   3.876
  962SOL     OW 2890   1.632   3.239   3.805
  962SOL    HW1 2891   1.600   3.333   3.795
  962SOL    HW2 2892   1.556   3.176   3.793
  963SOL     OW 2893   0.464   3.605   4.047
  963SOL    HW1 2894   0.497   3.644   4.133
  963SOL    HW2 2895   0.540   3.598   3.982
  964SOL     OW 2896   1.400   1.969   4.150
  964SOL    HW1 2897   1.376   1.932   4.060
  964SOL    HW2 2898   1.499   1.985   4.154
  965SOL     OW 2899   0.382   2.562   4.204
  965SOL    HW1 2900   0.427   2.472   4.201
  965SOL    HW2 2901   0.288   2.551   4.237
  966SOL     OW 2902   0.614   1.984   3.841
  966SOL    HW1 2903   0.712   1.962   3.848
  966SOL    HW2 2904   0.583   1.967   3.748
  967SOL     OW 2905   0.539   1.926   4.236
  967SOL    HW1 2906   0.458   1.927   4.294
  967SOL    HW2 2907   0.542   2.009   4.181
  968SOL     OW 2908   1.434   3.050   3.765
  968SOL    HW1 2909   1.466   2.974   3.822
  968SOL    HW2 2910   1.342   3.077   3.795
  969SOL     OW 2911   0.297   1.897   3.895
  969SOL    HW1 2912   0.346   1.981   3.874
  969SOL    HW2 2913   0.359   1.832   3.940
  970SOL     OW 2914   0.935   2.098   4.204
  970SOL    HW1 2915   0.887   2.139   4.126
  970SOL    HW2 2916   1.034   2.096   4.185
  971SOL     OW 2917   0.459   3.014   4.465
  971SOL    HW1 2918   0.388   2.987   4.530
  971SOL    HW2 2919   0.433   2.986   4.372
  972SOL     OW 2920   1.271   3.659   4.315
  972SOL    HW1 2921   1.315   3.723   4.251
  972SOL    HW2 2922   1.221   3.711   4.385
  973SOL     OW 2923   1.032   2.411   3.740
  973SOL    HW1 2924   0.991   2.493   3.701
  973SOL    HW2 2925   1.096   2.437   3.813
  974SOL     OW 2926   0.866   2.316   4.366
  974SOL    HW1 2927   0.834   2.388   4.304
  974SOL    HW2 2928   0.890   2.235   4.313
  975SOL     OW 2929   1.466   2.452   4.716
  975SOL    HW1 2930   1.436   2.357   4.723
  975SOL    HW2 2931   1.539   2.468   4.782
  976SOL     OW 2932   1.857   2.695   4.101
  976SOL    HW1 2933   1.899   2.631   4.165
  976SOL    HW2 2934   1.819   2.644   4.023
  977SOL     OW 2935   0.488   3.247   3.898
  977SOL    HW1 2936   0.401   3.232   3.945
  977SOL    HW2 2937   0.471   3.273   3.803
  978SOL     OW 2938   1.390   2.437   3.802
  978SOL    HW1 2939   1.336   2.416   3.883
  978SOL    HW2 2940   1.481   2.396   3.811
  979SOL     OW 2941   0.527   2.118   4.052
  979SOL    HW1 2942   0.554   2.059   3.977
  979SOL    HW2 2943   0.527   2.213   4.021
  980SOL     OW 2944   0.705   2.912   4.092
  980SOL    HW1 2945   0.691   2.919   4.191
  980SOL    HW2 2946   0.789   2.861   4.074
  981SOL     OW 2947   0.367   2.962   4.225
  981SOL    HW1 2948   0.360   3.045   4.169
  981SOL    HW2 2949   0.371   2.882   4.165
  982SOL     OW 2950   1.252   3.210   4.112
  982SOL    HW1 2951   1.302   3.287   4.152
  982SOL    HW2 2952   1.157   3.212   4.144
  983SOL     OW 2953   1.582   2.501   4.196
  983SOL    HW1 2954   1.551   2.562   4.269
  983SOL    HW2 2955   1.632   2.553   4.127
  984SOL     OW 2956   1.209   2.387   3.999
  984SOL    HW1 2957   1.222   2.303   4.053
  984SOL    HW2 2958   1.180   2.461   4.059
  985SOL     OW 2959   0.307   1.925   4.342
  985SOL    HW1 2960   0.296   2.019   4.375
  985SOL    HW2 2961   0.302   1.862   4.419
  986SOL     OW 2962   1.622   2.229   4.098
  986SOL    HW1 2963   1.624   2.153   4.162
  986SOL    HW2 2964   1.574   2.306   4.138
  987SOL     OW 2965   1.540   2.136   3.849
  987SOL    HW1 2966   1.479   2.061   3.872
  987SOL    HW2 2967   1.562   2.188   3.932
  988SOL     OW 2968   1.303   2.700   3.766
  988SOL    HW1 2969   1.337   2.607   3.781
  988SOL    HW2 2970   1.321   2.727   3.671
  989SOL     OW 2971   0.008   3.188   3.924
  989SOL    HW1 2972  -0.085   3.209   3.893
  989SOL    HW2 2973   0.018   3.089   3.937
  990SOL     OW 2974   0.815   2.434   4.049
  990SOL    HW1 2975   0.822   2.345   4.003
  990SOL    HW2 2976   0.721   2.468   4.041
  991SOL     OW 2977   0.473   2.362   3.915
  991SOL    HW1 2978   0.534   2.442   3.919
  991SOL    HW2 2979   0.378   2.393   3.922
  992SOL     OW 2980   1.302   2.717   4.033
  992SOL    HW1 2981   1.216   2.686   4.075
  992SOL    HW2 2982   1.298   2.703   3.934
  993SOL     OW 2983   1.726   1.997   4.247
  993SOL    HW1 2984   1.799   1.980   4.180
  993SOL    HW2 2985   1.695   1.910   4.285
  994SOL     OW 2986   1.388   3.435   4.201
  994SOL    HW1 2987   1.455   3.447   4.127
  994SOL    HW2 2988   1.348   3.524   4.224
  995SOL     OW 2989   0.672   3.478   3.878
  995SOL    HW1 2990   0.681   3.488   3.779
  995SOL    HW2 2991   0.632   3.389   3.899
  996SOL     OW 2992   1.841   2.037   4.687
  996SOL    HW1 2993   1.880   1.952   4.651
  996SOL    HW2 2994   1.743   2.039   4.668
  997SOL     OW 2995   1.194   3.474   3.755
  997SOL    HW1 2996   1.200   3.381   3.792
  997SOL    HW2 2997   1.135   3.474   3.675
  998SOL     OW 2998   0.916   2.772   4.015
  998SOL    HW1 2999   0.979   2.810   3.947
  998SOL    HW2 3000   0.956   2.689   4.054
  999SOL     OW 3001   1.504   3.469   3.768
  999SOL    HW1 3002   1.412   3.506   3.775
  999SOL    HW2 3003   1.542   3.489   3.678
 1000SOL     OW 3004   0.590   3.349   4.215
 1000SOL    HW1 3005   0.632   3.291   4.145
 1000SOL    HW2 3006   0.546   3.428   4.171
 1001SOL     OW 3007   0.255   3.210   4.014
 1001SOL    HW1 3008   0.159   3.211   3.987
 1001SOL    HW2 3009   0.267   3.263   4.098
 1002SOL     OW 3010   0.075   2.207   3.757
 1002SOL    HW1 3011  -0.017   2.179   3.728
 1002SOL    HW2 3012   0.106   2.284   3.701
 1003SOL     OW 3013   0.072   2.028   4.042
 1003SOL    HW1 3014   0.055   2.111   3.988
 1003SOL    HW2 3015   0.162   1.991   4.020
 1004SOL     OW 3016   1.183   3.197   3.843
 1004SOL    HW1 3017   1.084   3.186   3.845
 1004SOL    HW2 3018   1.217   3.212   3.936
 1005SOL     OW 3019   1.225   2.187   4.173
 1005SOL    HW1 3020   1.290   2.113   4.162
 1005SOL    HW2 3021   1.245   2.237   4.257
 1006SOL     OW 3022   0.594   2.607   4.376
 1006SOL    HW1 3023   0.644   2.692   4.357
 1006SOL    HW2 3024   0.506   2.609   4.328
 1007SOL     OW 3025   0.859   3.236   3.740
 1007SOL    HW1 3026   0.813   3.251   3.828
 1007SOL    HW2 3027   0.903   3.321   3.710
 1008SOL     OW 3028   1.083   2.846   3.811
 1008SOL    HW1 3029   1.060   2.899   3.729
 1008SOL    HW2 3030   1.164   2.790   3.792
 1009SOL     OW 3031   0.079   3.102   4.377
 1009SOL    HW1 3032   0.078   3.055   4.465
 1009SOL    HW2 3033   0.161   3.074   4.326
 1010SOL     OW 3034   0.428   2.286   4.244
 1010SOL    HW1 3035   0.458   2.214   4.182
 1010SOL    HW2 3036   0.389   2.246   4.327
 1011SOL     OW 3037   0.812   3.448   4.411
 1011SOL    HW1 3038   0.844   3.458   4.317
 1011SOL    HW2 3039   0.733   3.386   4.413
 1012SOL     OW 3040   0.770   3.192   4.025
 1012SOL    HW1 3041   0.724   3.105   4.042
 1012SOL    HW2 3042   0.861   3.189   4.066
 1013SOL     OW 3043   1.352   1.914   3.892
 1013SOL    HW1 3044   1.387   1.873   3.808
 1013SOL    HW2 3045   1.262   1.876   3.912
 1014SOL     OW 3046   1.300   2.315   4.415
 1014SOL    HW1 3047   1.241   2.395   4.419
 1014SOL    HW2 3048   1.315   2.280   4.508
 1015SOL     OW 3049   0.039   2.939   4.024
 1015SOL    HW1 3050   0.138   2.928   4.015
 1015SOL    HW2 3051  -0.001   2.853   4.056
 1016SOL     OW 3052   0.875   3.508   4.061
 1016SOL    HW1 3053   0.798   3.473   4.007
 1016SOL    HW2 3054   0.843   3.579   4.123
 1017SOL     OW 3055   0.230   4.352   0.113
 1017SOL    HW1 3056   0.137   4.350   0.150
 1017SOL    HW2 3057   0.231   4.313   0.021
 1018SOL     OW 3058   0.225   3.999   0.996
 1018SOL    HW1 3059   0.260   3.982   1.088
 1018SOL    HW2 3060   0.137   3.954   0.984
 1019SOL     OW 3061   0.019   4.092   0.647
 1019SOL    HW1 3062  -0.063   4.135   0.686
 1019SOL    HW2 3063  -0.009   4.019   0.584
 1020SOL     OW 3064   1.755   4.331   0.231
 1020SOL    HW1 3065   1.743   4.318   0.132
 1020SOL    HW2 3066   1.725   4.250   0.280
 1021SOL     OW 3067   0.685   4.736   0.665
 1021SOL    HW1 3068   0.754   4.720   0.735
 1021SOL    HW2 3069   0.612   4.793   0.703
 1022SOL     OW 3070   0.438   4.116   1.499
 1022SOL    HW1 3071   0.520   4.060   1.508
 1022SOL    HW2 3072   0.357   4.058   1.503
 1023SOL     OW 3073   1.603   4.171   0.737
 1023SOL    HW1 3074   1.529   4.217   0.687
 1023SOL    HW2 3075   1.654   4.239   0.790
 1024SOL     OW 3076   1.594   3.838   1.480
 1024SOL    HW1 3077   1.576   3.905   1.408
 1024SOL    HW2 3078   1.591   3.884   1.569
 1025SOL     OW 3079   0.122   4.367   0.563
 1025SOL    HW1 3080   0.077   4.279   0.580
 1025SOL    HW2 3081   0.121   4.421   0.647
 1026SOL     OW 3082   0.113   4.461   1.597
 1026SOL    HW1 3083   0.201   4.448   1.642
 1026SOL    HW2 3084   0.100   4.558   1.575
 1027SOL     OW 3085   0.809   3.728   0.502
 1027SOL    HW1 3086   0.849   3.819   0.493
 1027SOL    HW2 3087   0.709   3.736   0.508
 1028SOL     OW 3088   0.317   3.975   1.801
 1028SOL    HW1 3089   0.388   4.046   1.807
 1028SOL    HW2 3090   0.229   4.014   1.829
 1029SOL     OW 3091   1.281   4.069   0.944
 1029SOL    HW1 3092   1.195   4.019   0.931
 1029SOL    HW2 3093   1.343   4.015   1.000
 1030SOL     OW 3094   0.807   4.329   1.465
 1030SOL    HW1 3095   0.760   4.326   1.554
 1030SOL    HW2 3096   0.756   4.274   1.399
 1031SOL     OW 3097   1.394   4.193   1.674
 1031SOL    HW1 3098   1.374   4.236   1.762
 1031SOL    HW2 3099   1.472   4.131   1.683
 1032SOL     OW 3100   0.991   4.134   1.242
 1032SOL    HW1 3101   0.914   4.168   1.296
 1032SOL    HW2 3102   0.957   4.083   1.163
 1033SOL     OW 3103   1.041   4.425   0.429
 1033SOL    HW1 3104   1.067   4.421   0.525
 1033SOL    HW2 3105   0.956   4.374   0.415
 1034SOL     OW 3106   0.076   4.535   0.789
 1034SOL    HW1 3107   0.175   4.523   0.798
 1034SOL    HW2 3108   0.052   4.630   0.810
 1035SOL     OW 3109   0.865   4.072   0.195
 1035SOL    HW1 3110   0.924   4.135   0.146
 1035SOL    HW2 3111   0.884   3.978   0.166
 1036SOL     OW 3112   1.719   4.309   1.831
 1036SOL    HW1 3113   1.693   4.398   1.795
 1036SOL    HW2 3114   1.717   4.241   1.758
 1037SOL     OW 3115   0.550   3.920   0.885
 1037SOL    HW1 3116   0.545   3.915   0.985
 1037SOL    HW2 3117   0.552   4.016   0.856
 1038SOL     OW 3118   1.458   4.459   0.728
 1038SOL    HW1 3119   1.453   4.394   0.803
 1038SOL    HW2 3120   1.538   4.518   0.741
 1039SOL     OW 3121   0.202   4.009   1.498
 1039SOL    HW1 3122   0.122   4.069   1.485
 1039SOL    HW2 3123   0.192   3.960   1.584
 1040SOL     OW 3124   1.400   3.831   0.426
 1040SOL    HW1 3125   1.376   3.794   0.336
 1040SOL    HW2 3126   1.499   3.847   0.430
 1041SOL     OW 3127   0.382   4.424   0.480
 1041SOL    HW1 3128   0.427   4.334   0.477
 1041SOL    HW2 3129   0.288   4.413   0.513
 1042SOL     OW 3130   1.547   3.946   1.729
 1042SOL    HW1 3131   1.542   3.983   1.821
 1042SOL    HW2 3132   1.475   3.877   1.717
 1043SOL     OW 3133   0.614   3.846   0.117
 1043SOL    HW1 3134   0.712   3.824   0.124
 1043SOL    HW2 3135   0.583   3.829   0.024
 1044SOL     OW 3136   0.781   3.988   1.749
 1044SOL    HW1 3137   0.848   3.927   1.792
 1044SOL    HW2 3138   0.708   4.007   1.814
 1045SOL     OW 3139   1.351   4.314   1.433
 1045SOL    HW1 3140   1.379   4.271   1.518
 1045SOL    HW2 3141   1.376   4.410   1.434
 1046SOL     OW 3142   0.922   4.227   0.899
 1046SOL    HW1 3143   0.897   4.218   0.803
 1046SOL    HW2 3144   0.970   4.145   0.930
 1047SOL     OW 3145   0.539   3.788   0.512
 1047SOL    HW1 3146   0.458   3.789   0.570
 1047SOL    HW2 3147   0.542   3.871   0.457
 1048SOL     OW 3148   0.935   3.960   0.480
 1048SOL    HW1 3149   0.887   4.001   0.402
 1048SOL    HW2 3150   1.034   3.958   0.461
 1049SOL     OW 3151   1.076   4.407   1.464
 1049SOL    HW1 3152   0.996   4.346   1.467
 1049SOL    HW2 3153   1.157   4.354   1.440
 1050SOL     OW 3154   1.032   4.273   0.016
 1050SOL    HW1 3155   0.991   4.355  -0.023
 1050SOL    HW2 3156   1.096   4.299   0.089
 1051SOL     OW 3157   0.078   4.280   1.386
 1051SOL    HW1 3158   0.170   4.279   1.345
 1051SOL    HW2 3159   0.072   4.354   1.453
 1052SOL     OW 3160   0.561   3.946   1.147
 1052SOL    HW1 3161   0.599   3.862   1.184
 1052SOL    HW2 3162   0.473   3.965   1.191
 1053SOL     OW 3163   0.866   4.178   0.642
 1053SOL    HW1 3164   0.834   4.250   0.580
 1053SOL    HW2 3165   0.890   4.097   0.589
 1054SOL     OW 3166   1.017   3.763   0.753
 1054SOL    HW1 3167   0.945   3.768   0.684
 1054SOL    HW2 3168   0.993   3.694   0.822
 1055SOL     OW 3169   1.466   4.314   0.992
 1055SOL    HW1 3170   1.436   4.219   0.999
 1055SOL    HW2 3171   1.539   4.330   1.058
 1056SOL     OW 3172   1.390   4.299   0.078
 1056SOL    HW1 3173   1.336   4.278   0.159
 1056SOL    HW2 3174   1.481   4.258   0.087
 1057SOL     OW 3175   0.527   3.980   0.328
 1057SOL    HW1 3176   0.554   3.921   0.253
 1057SOL    HW2 3177   0.527   4.075   0.297
 1058SOL     OW 3178   0.915   3.813   1.402
 1058SOL    HW1 3179   0.940   3.793   1.307
 1058SOL    HW2 3180   0.987   3.869   1.444
 1059SOL     OW 3181   1.274   4.110   1.262
 1059SOL    HW1 3182   1.295   4.184   1.326
 1059SOL    HW2 3183   1.185   4.127   1.219
 1060SOL     OW 3184   0.566   4.261   0.865
 1060SOL    HW1 3185   0.578   4.327   0.791
 1060SOL    HW2 3186   0.612   4.295   0.948
 1061SOL     OW 3187   1.582   4.363   0.472
 1061SOL    HW1 3188   1.551   4.424   0.545
 1061SOL    HW2 3189   1.632   4.415   0.403
 1062SOL     OW 3190   1.013   3.829   1.770
 1062SOL    HW1 3191   1.019   3.914   1.718
 1062SOL    HW2 3192   1.045   3.753   1.713
 1063SOL     OW 3193   0.504   3.774   1.740
 1063SOL    HW1 3194   0.462   3.717   1.670
 1063SOL    HW2 3195   0.438   3.843   1.772
 1064SOL     OW 3196   1.209   4.249   0.275
 1064SOL    HW1 3197   1.222   4.165   0.329
 1064SOL    HW2 3198   1.180   4.323   0.335
 1065SOL     OW 3199   0.307   3.937   1.231
 1065SOL    HW1 3200   0.284   3.974   1.321
 1065SOL    HW2 3201   0.277   3.842   1.225
 1066SOL     OW 3202   0.732   4.358   1.064
 1066SOL    HW1 3203   0.791   4.332   0.988
 1066SOL    HW2 3204   0.704   4.454   1.053
 1067SOL     OW 3205   0.307   3.787   0.618
 1067SOL    HW1 3206   0.296   3.881   0.651
 1067SOL    HW2 3207   0.302   3.724   0.695
 1068SOL     OW 3208   1.622   4.091   0.374
 1068SOL    HW1 3209   1.624   4.015   0.438
 1068SOL    HW2 3210   1.574   4.168   0.414
 1069SOL     OW 3211   1.540   3.998   0.125
 1069SOL    HW1 3212   1.479   3.923   0.148
 1069SOL    HW2 3213   1.562   4.050   0.208
 1070SOL     OW 3214   0.319   4.534   0.949
 1070SOL    HW1 3215   0.412   4.570   0.954
 1070SOL    HW2 3216   0.313   4.449   1.001
 1071SOL     OW 3217   0.339   4.233   1.006
 1071SOL    HW1 3218   0.287   4.150   0.989
 1071SOL    HW2 3219   0.416   4.238   0.942
 1072SOL     OW 3220   1.138   4.104   1.678
 1072SOL    HW1 3221   1.093   4.167   1.742
 1072SOL    HW2 3222   1.231   4.135   1.661
 1073SOL     OW 3223   1.160   3.931   1.477
 1073SOL    HW1 3224   1.160   3.995   1.554
 1073SOL    HW2 3225   1.188   3.979   1.394
 1074SOL     OW 3226   0.040   4.268   1.114
 1074SOL    HW1 3227   0.125   4.235   1.073
 1074SOL    HW2 3228   0.053   4.283   1.212
 1075SOL     OW 3229   0.189   4.244   1.722
 1075SOL    HW1 3230   0.248   4.204   1.652
 1075SOL    HW2 3231   0.131   4.315   1.681
 1076SOL     OW 3232   0.815   4.296   0.325
 1076SOL    HW1 3233   0.822   4.207   0.279
 1076SOL    HW2 3234   0.721   4.330   0.317
 1077SOL     OW 3235   1.657   4.328   1.206
 1077SOL    HW1 3236   1.619   4.259   1.268
 1077SOL    HW2 3237   1.739   4.292   1.162
 1078SOL     OW 3238   0.671   4.188   1.269
 1078SOL    HW1 3239   0.637   4.099   1.239
 1078SOL    HW2 3240   0.697   4.242   1.189
 1079SOL     OW 3241   0.473   4.224   0.191
 1079SOL    HW1 3242   0.534   4.304   0.195
 1079SOL    HW2 3243   0.378   4.255   0.198
 1080SOL     OW 3244   0.903   3.810   0.133
 1080SOL    HW1 3245   0.954   3.811   0.047
 1080SOL    HW2 3246   0.959   3.768   0.204
 1081SOL     OW 3247   1.726   3.859   0.523
 1081SOL    HW1 3248   1.799   3.842   0.456
 1081SOL    HW2 3249   1.695   3.772   0.561
 1082SOL     OW 3250   1.280   4.651   0.672
 1082SOL    HW1 3251   1.340   4.570   0.674
 1082SOL    HW2 3252   1.320   4.720   0.612
 1083SOL     OW 3253   1.841   3.899   0.963
 1083SOL    HW1 3254   1.880   3.814   0.927
 1083SOL    HW2 3255   1.743   3.901   0.944
 1084SOL     OW 3256   0.263   4.050   0.720
 1084SOL    HW1 3257   0.184   4.101   0.686
 1084SOL    HW2 3258   0.254   4.035   0.818
 1085SOL     OW 3259   1.014   3.960   0.971
 1085SOL    HW1 3260   1.006   3.924   0.878
 1085SOL    HW2 3261   1.012   3.884   1.036
 1086SOL     OW 3262   1.709   4.109   1.381
 1086SOL    HW1 3263   1.782   4.178   1.385
 1086SOL    HW2 3264   1.737   4.034   1.322
 1087SOL     OW 3265   0.672   3.927   1.489
 1087SOL    HW1 3266   0.762   3.911   1.449
 1087SOL    HW2 3267   0.680   3.932   1.588
 1088SOL     OW 3268   0.075   4.069   0.033
 1088SOL    HW1 3269  -0.017   4.041   0.004
 1088SOL    HW2 3270   0.106   4.146  -0.023
 1089SOL     OW 3271   0.072   3.890   0.318
 1089SOL    HW1 3272   0.055   3.973   0.264
 1089SOL    HW2 3273   0.162   3.853   0.296
 1090SOL     OW 3274   0.716   4.289   1.708
 1090SOL    HW1 3275   0.735   4.354   1.782
 1090SOL    HW2 3276   0.776   4.209   1.717
 1091SOL     OW 3277   1.225   4.049   0.449
 1091SOL    HW1 3278   1.290   3.975   0.438
 1091SOL    HW2 3279   1.245   4.099   0.533
 1092SOL     OW 3280   1.777   4.066   1.642
 1092SOL    HW1 3281   1.760   4.097   1.548
 1092SOL    HW2 3282   1.693   4.029   1.680
 1093SOL     OW 3283   1.083   4.708   0.087
 1093SOL    HW1 3284   1.060   4.761   0.005
 1093SOL    HW2 3285   1.164   4.652   0.068
 1094SOL     OW 3286   1.824   3.916   1.227
 1094SOL    HW1 3287   1.820   3.826   1.271
 1094SOL    HW2 3288   1.827   3.905   1.128
 1095SOL     OW 3289   0.428   4.148   0.520
 1095SOL    HW1 3290   0.458   4.076   0.458
 1095SOL    HW2 3291   0.389   4.108   0.603
 1096SOL     OW 3292   0.317   4.271   1.280
 1096SOL    HW1 3293   0.355   4.212   1.352
 1096SOL    HW2 3294   0.357   4.245   1.192
 1097SOL     OW 3295   1.424   3.938   1.112
 1097SOL    HW1 3296   1.476   3.873   1.167
 1097SOL    HW2 3297   1.375   4.001   1.173
 1098SOL     OW 3298   1.001   3.758   1.154
 1098SOL    HW1 3299   0.938   3.686   1.123
 1098SOL    HW2 3300   1.094   3.722   1.154
 1099SOL     OW 3301   1.352   3.776   0.168
 1099SOL    HW1 3302   1.387   3.735   0.084
 1099SOL    HW2 3303   1.262   3.738   0.188
 1100SOL     OW 3304   1.300   4.177   0.691
 1100SOL    HW1 3305   1.241   4.257   0.695
 1100SOL    HW2 3306   1.315   4.142   0.784
 1101SOL     OW 3307   1.593   3.945   0.882
 1101SOL    HW1 3308   1.509   3.944   0.936
 1101SOL    HW2 3309   1.595   4.028   0.826
 1102SOL     OW 3310   0.230   4.352   1.975
 1102SOL    HW1 3311   0.137   4.350   2.012
 1102SOL    HW2 3312   0.231   4.313   1.883
 1103SOL     OW 3313   0.225   3.999   2.858
 1103SOL    HW1 3314   0.260   3.982   2.950
 1103SOL    HW2 3315   0.137   3.954   2.846
 1104SOL     OW 3316   0.019   4.092   2.509
 1104SOL    HW1 3317  -0.063   4.135   2.548
 1104SOL    HW2 3318  -0.009   4.019   2.446
 1105SOL     OW 3319   1.755   4.331   2.093
 1105SOL    HW1 3320   1.743   4.318   1.994
 1105SOL    HW2 3321   1.725   4.250   2.142
 1106SOL     OW 3322   0.685   4.736   2.527
 1106SOL    HW1 3323   0.754   4.720   2.597
 1106SOL    HW2 3324   0.612   4.793   2.565
 1107SOL     OW 3325   0.438   4.116   3.361
 1107SOL    HW1 3326   0.520   4.060   3.370
 1107SOL    HW2 3327   0.357   4.058   3.365
 1108SOL     OW 3328   1.603   4.171   2.599
 1108SOL    HW1 3329   1.529   4.217   2.549
 1108SOL    HW2 3330   1.654   4.239   2.652
 1109SOL     OW 3331   1.594   3.838   3.342
 1109SOL    HW1 3332   1.576   3.905   3.270
 1109SOL    HW2 3333   1.591   3.884   3.431
 1110SOL     OW 3334   0.122   4.367   2.425
 1110SOL    HW1 3335   0.077   4.279   2.442
 1110SOL    HW2 3336   0.121   4.421   2.509
 1111SOL     OW 3337   0.113   4.461   3.459
 1111SOL    HW1 3338   0.201   4.448   3.504
 1111SOL    HW2 3339   0.100   4.558   3.437
 1112SOL     OW 3340   0.809   3.728   2.364
 1112SOL    HW1 3341   0.849   3.819   2.355
 1112SOL    HW2 3342   0.709   3.736   2.370
 1113SOL     OW 3343   0.317   3.975   3.663
 1113SOL    HW1 3344   0.388   4.046   3.669
 1113SOL    HW2 3345   0.229   4.014   3.691
 1114SOL     OW 3346   1.281   4.069   2.806
 1114SOL    HW1 3347   1.195   4.019   2.793
 1114SOL    HW2 3348   1.343   4.015   2.862
 1115SOL     OW 3349   0.807   4.329   3.327
 1115SOL    HW1 3350   0.760   4.326   3.416
 1115SOL    HW2 3351   0.756   4.274   3.261
 1116SOL     OW 3352   1.394   4.193   3.536
 1116SOL    HW1 3353   1.374   4.236   3.624
 1116SOL    HW2 3354   1.472   4.131   3.545
 1117SOL     OW 3355   0.991   4.134   3.104
 1117SOL    HW1 3356   0.914   4.168   3.158
 1117SOL    HW2 3357   0.957   4.083   3.025
 1118SOL     OW 3358   1.041   4.425   2.291
 1118SOL    HW1 3359   1.067   4.421   2.387
 1118SOL    HW2 3360   0.956   4.374   2.277
 1119SOL     OW 3361   0.076   4.535   2.651
 1119SOL    HW1 3362   0.175   4.523   2.660
 1119SOL    HW2 3363   0.052   4.630   2.672
 1120SOL     OW 3364   0.865   4.072   2.057
 1120SOL    HW1 3365   0.924   4.135   2.008
 1120SOL    HW2 3366   0.884   3.978   2.028
 1121SOL     OW 3367   1.719   4.309   3.693
 1121SOL    HW1 3368   1.693   4.398   3.657
 1121SOL    HW2 3369   1.717   4.241   3.620
 1122SOL     OW 3370   0.550   3.920   2.747
 1122SOL    HW1 3371   0.545   3.915   2.847
 1122SOL    HW2 3372   0.552   4.016   2.718
 1123SOL     OW 3373   1.458   4.459   2.590
 1123SOL    HW1 3374   1.453   4.394   2.665
 1123SOL    HW2 3375   1.538   4.518   2.603
 1124SOL     OW 3376   0.202   4.009   3.360
 1124SOL    HW1 3377   0.122   4.069   3.347
 1124SOL    HW2 3378   0.192   3.960   3.446
 1125SOL     OW 3379   1.400   3.831   2.288
 1125SOL    HW1 3380   1.376   3.794   2.198
 1125SOL    HW2 3381   1.499   3.847   2.292
 1126SOL     OW 3382   0.382   4.424   2.342
 1126SOL    HW1 3383   0.427   4.334   2.339
 1126SOL    HW2 3384   0.288   4.413   2.375
 1127SOL     OW 3385   1.547   3.946   3.591
 1127SOL    HW1 3386   1.542   3.983   3.683
 1127SOL    HW2 3387   1.475   3.877   3.579
 1128SOL     OW 3388   0.614   3.846   1.979
 1128SOL    HW1 3389   0.712   3.824   1.986
 1128SOL    HW2 3390   0.583   3.829   1.886
 1129SOL     OW 3391   0.781   3.988   3.611
 1129SOL    HW1 3392   0.848   3.927   3.654
 1129SOL    HW2 3393   0.708   4.007   3.676
 1130SOL     OW 3394   1.351   4.314   3.295
 1130SOL    HW1 3395   1.379   4.271   3.380
 1130SOL    HW2 3396   1.376   4.410   3.296
 1131SOL     OW 3397   0.922   4.227   2.761
 1131SOL    HW1 3398   0.897   4.218   2.665
 1131SOL    HW2 3399   0.970   4.145   2.792
 1132SOL     OW 3400   0.539   3.788   2.374
 1132SOL    HW1 3401   0.458   3.789   2.432
 1132SOL    HW2 3402   0.542   3.871   2.319
 1133SOL     OW 3403   0.297   3.759   2.033
 1133SOL    HW1 3404   0.346   3.843   2.012
 1133SOL    HW2 3405   0.359   3.694   2.078
 1134SOL     OW 3406   0.935   3.960   2.342
 1134SOL    HW1 3407   0.887   4.001   2.264
 1134SOL    HW2 3408   1.034   3.958   2.323
 1135SOL     OW 3409   1.076   4.407   3.326
 1135SOL    HW1 3410   0.996   4.346   3.329
 1135SOL    HW2 3411   1.157   4.354   3.302
 1136SOL     OW 3412   1.032   4.273   1.878
 1136SOL    HW1 3413   0.991   4.355   1.839
 1136SOL    HW2 3414   1.096   4.299   1.951
 1137SOL     OW 3415   0.078   4.280   3.248
 1137SOL    HW1 3416   0.170   4.279   3.207
 1137SOL    HW2 3417   0.072   4.354   3.315
 1138SOL     OW 3418   0.561   3.946   3.009
 1138SOL    HW1 3419   0.599   3.862   3.046
 1138SOL    HW2 3420   0.473   3.965   3.053
 1139SOL     OW 3421   0.866   4.178   2.504
 1139SOL    HW1 3422   0.834   4.250   2.442
 1139SOL    HW2 3423   0.890   4.097   2.451
 1140SOL     OW 3424   1.017   3.763   2.615
 1140SOL    HW1 3425   0.945   3.768   2.546
 1140SOL    HW2 3426   0.993   3.694   2.684
 1141SOL     OW 3427   1.466   4.314   2.854
 1141SOL    HW1 3428   1.436   4.219   2.861
 1141SOL    HW2 3429   1.539   4.330   2.920
 1142SOL     OW 3430   1.390   4.299   1.940
 1142SOL    HW1 3431   1.336   4.278   2.021
 1142SOL    HW2 3432   1.481   4.258   1.949
 1143SOL     OW 3433   0.527   3.980   2.190
 1143SOL    HW1 3434   0.554   3.921   2.115
 1143SOL    HW2 3435   0.527   4.075   2.159
 1144SOL     OW 3436   0.915   3.813   3.264
 1144SOL    HW1 3437   0.940   3.793   3.169
 1144SOL    HW2 3438   0.987   3.869   3.306
 1145SOL     OW 3439   1.274   4.110   3.124
 1145SOL    HW1 3440   1.295   4.184   3.188
 1145SOL    HW2 3441   1.185   4.127   3.081
 1146SOL     OW 3442   0.566   4.261   2.727
 1146SOL    HW1 3443   0.578   4.327   2.653
 1146SOL    HW2 3444   0.612   4.295   2.810
 1147SOL     OW 3445   1.582   4.363   2.334
 1147SOL    HW1 3446   1.551   4.424   2.407
 1147SOL    HW2 3447   1.632   4.415   2.265
 1148SOL     OW 3448   1.013   3.829   3.632
 1148SOL    HW1 3449   1.019   3.914   3.580
 1148SOL    HW2 3450   1.045   3.753   3.575
 1149SOL     OW 3451   0.504   3.774   3.602
 1149SOL    HW1 3452   0.462   3.717   3.532
 1149SOL    HW2 3453   0.438   3.843   3.634
 1150SOL     OW 3454   1.209   4.249   2.137
 1150SOL    HW1 3455   1.222   4.165   2.191
 1150SOL    HW2 3456   1.180   4.323   2.197
 1151SOL     OW 3457   0.307   3.937   3.093
 1151SOL    HW1 3458   0.284   3.974   3.183
 1151SOL    HW2 3459   0.277   3.842   3.087
 1152SOL     OW 3460   0.732   4.358   2.926
 1152SOL    HW1 3461   0.791   4.332   2.850
 1152SOL    HW2 3462   0.704   4.454   2.915
 1153SOL     OW 3463   0.307   3.787   2.480
 1153SOL    HW1 3464   0.296   3.881   2.513
 1153SOL    HW2 3465   0.302   3.724   2.557
 1154SOL     OW 3466   1.622   4.091   2.236
 1154SOL    HW1 3467   1.624   4.015   2.300
 1154SOL    HW2 3468   1.574   4.168   2.276
 1155SOL     OW 3469   1.540   3.998   1.987
 1155SOL    HW1 3470   1.479   3.923   2.010
 1155SOL    HW2 3471   1.562   4.050   2.070
 1156SOL     OW 3472   0.319   4.534   2.811
 1156SOL    HW1 3473   0.412   4.570   2.816
 1156SOL    HW2 3474   0.313   4.449   2.863
 1157SOL     OW 3475   0.339   4.233   2.868
 1157SOL    HW1 3476   0.287   4.150   2.851
 1157SOL    HW2 3477   0.416   4.238   2.804
 1158SOL     OW 3478   1.138   4.104   3.540
 1158SOL    HW1 3479   1.093   4.167   3.604
 1158SOL    HW2 3480   1.231   4.135   3.523
 1159SOL     OW 3481   1.160   3.931   3.339
 1159SOL    HW1 3482   1.160   3.995   3.416
 1159SOL    HW2 3483   1.188   3.979   3.256
 1160SOL     OW 3484   0.040   4.268   2.976
 1160SOL    HW1 3485   0.125   4.235   2.935
 1160SOL    HW2 3486   0.053   4.283   3.074
 1161SOL     OW 3487   0.189   4.244   3.584
 1161SOL    HW1 3488   0.248   4.204   3.514
 1161SOL    HW2 3489   0.131   4.315   3.543
 1162SOL     OW 3490   0.815   4.296   2.187
 1162SOL    HW1 3491   0.822   4.207   2.141
 1162SOL    HW2 3492   0.721   4.330   2.179
 1163SOL     OW 3493   1.657   4.328   3.068
 1163SOL    HW1 3494   1.619   4.259   3.130
 1163SOL    HW2 3495   1.739   4.292   3.024
 1164SOL     OW 3496   0.671   4.188   3.131
 1164SOL    HW1 3497   0.637   4.099   3.101
 1164SOL    HW2 3498   0.697   4.242   3.051
 1165SOL     OW 3499   0.473   4.224   2.053
 1165SOL    HW1 3500   0.534   4.304   2.057
 1165SOL    HW2 3501   0.378   4.255   2.060
 1166SOL     OW 3502   1.726   3.859   2.385
 1166SOL    HW1 3503   1.799   3.842   2.318
 1166SOL    HW2 3504   1.695   3.772   2.423
 1167SOL     OW 3505   1.280   4.651   2.534
 1167SOL    HW1 3506   1.340   4.570   2.536
 1167SOL    HW2 3507   1.320   4.720   2.474
 1168SOL     OW 3508   1.841   3.899   2.825
 1168SOL    HW1 3509   1.880   3.814   2.789
 1168SOL    HW2 3510   1.743   3.901   2.806
 1169SOL     OW 3511   0.263   4.050   2.582
 1169SOL    HW1 3512   0.184   4.101   2.548
 1169SOL    HW2 3513   0.254   4.035   2.680
 1170SOL     OW 3514   1.014   3.960   2.833
 1170SOL    HW1 3515   1.006   3.924   2.740
 1170SOL    HW2 3516   1.012   3.884   2.898
 1171SOL     OW 3517   1.709   4.109   3.243
 1171SOL    HW1 3518   1.782   4.178   3.247
 1171SOL    HW2 3519   1.737   4.034   3.184
 1172SOL     OW 3520   0.672   3.927   3.351
 1172SOL    HW1 3521   0.762   3.911   3.311
 1172SOL    HW2 3522   0.680   3.932   3.450
 1173SOL     OW 3523   0.075   4.069   1.895
 1173SOL    HW1 3524  -0.017   4.041   1.866
 1173SOL    HW2 3525   0.106   4.146   1.839
 1174SOL     OW 3526   0.072   3.890   2.180
 1174SOL    HW1 3527   0.055   3.973   2.126
 1174SOL    HW2 3528   0.162   3.853   2.158
 1175SOL     OW 3529   0.716   4.289   3.570
 1175SOL    HW1 3530   0.735   4.354   3.644
 1175SOL    HW2 3531   0.776   4.209   3.579
 1176SOL     OW 3532   1.225   4.049   2.311
 1176SOL    HW1 3533   1.290   3.975   2.300
 1176SOL    HW2 3534   1.245   4.099   2.395
 1177SOL     OW 3535   1.777   4.066   3.504
 1177SOL    HW1 3536   1.760   4.097   3.410
 1177SOL    HW2 3537   1.693   4.029   3.542
 1178SOL     OW 3538   1.083   4.708   1.949
 1178SOL    HW1 3539   1.060   4.761   1.867
 1178SOL    HW2 3540   1.164   4.652   1.930
 1179SOL     OW 3541   1.824   3.916   3.089
 1179SOL    HW1 3542   1.820   3.826   3.133
 1179SOL    HW2 3543   1.827   3.905   2.990
 1180SOL     OW 3544   0.428   4.148   2.382
 1180SOL    HW1 3545   0.458   4.076   2.320
 1180SOL    HW2 3546   0.389   4.108   2.465
 1181SOL     OW 3547   0.317   4.271   3.142
 1181SOL    HW1 3548   0.355   4.212   3.214
 1181SOL    HW2 3549   0.357   4.245   3.054
 1182SOL     OW 3550   1.424   3.938   2.974
 1182SOL    HW1 3551   1.476   3.873   3.029
 1182SOL    HW2 3552   1.375   4.001   3.035
 1183SOL     OW 3553   1.001   3.758   3.016
 1183SOL    HW1 3554   0.938   3.686   2.985
 1183SOL    HW2 3555   1.094   3.722   3.016
 1184SOL     OW 3556   1.352   3.776   2.030
 1184SOL    HW1 3557   1.387   3.735   1.946
 1184SOL    HW2 3558   1.262   3.738   2.050
 1185SOL     OW 3559   1.300   4.177   2.553
 1185SOL    HW1 3560   1.241   4.257   2.557
 1185SOL    HW2 3561   1.315   4.142   2.646
 1186SOL     OW 3562   1.593   3.945   2.744
 1186SOL    HW1 3563   1.509   3.944   2.798
 1186SOL    HW2 3564   1.595   4.028   2.688
 1187SOL     OW 3565   0.230   4.352   3.837
 1187SOL    HW1 3566   0.137   4.350   3.874
 1187SOL    HW2 3567   0.231   4.313   3.745
 1188SOL     OW 3568   1.135   4.427   4.441
 1188SOL    HW1 3569   1.192   4.505   4.416
 1188SOL    HW2 3570   1.075   4.453   4.517
 1189SOL     OW 3571   1.755   4.331   3.955
 1189SOL    HW1 3572   1.743   4.318   3.856
 1189SOL    HW2 3573   1.725   4.250   4.004
 1190SOL     OW 3574   0.685   4.736   4.389
 1190SOL    HW1 3575   0.754   4.720   4.459
 1190SOL    HW2 3576   0.612   4.793   4.427
 1191SOL     OW 3577   1.603   4.171   4.461
 1191SOL    HW1 3578   1.529   4.217   4.411
 1191SOL    HW2 3579   1.654   4.239   4.514
 1192SOL     OW 3580   0.240   4.815   4.610
 1192SOL    HW1 3581   0.254   4.731   4.662
 1192SOL    HW2 3582   0.185   4.879   4.665
 1193SOL     OW 3583   0.122   4.367   4.287
 1193SOL    HW1 3584   0.077   4.279   4.304
 1193SOL    HW2 3585   0.121   4.421   4.371
 1194SOL     OW 3586   0.809   3.728   4.226
 1194SOL    HW1 3587   0.849   3.819   4.217
 1194SOL    HW2 3588   0.709   3.736   4.232
 1195SOL     OW 3589   1.281   4.069   4.668
 1195SOL    HW1 3590   1.195   4.019   4.655
 1195SOL    HW2 3591   1.343   4.015   4.724
 1196SOL     OW 3592   1.041   4.425   4.153
 1196SOL    HW1 3593   1.067   4.421   4.249
 1196SOL    HW2 3594   0.956   4.374   4.139
 1197SOL     OW 3595   0.076   4.535   4.513
 1197SOL    HW1 3596   0.175   4.523   4.522
 1197SOL    HW2 3597   0.052   4.630   4.534
 1198SOL     OW 3598   0.865   4.072   3.919
 1198SOL    HW1 3599   0.924   4.135   3.870
 1198SOL    HW2 3600   0.884   3.978   3.890
 1199SOL     OW 3601   1.400   3.831   4.150
 1199SOL    HW1 3602   1.376   3.794   4.060
 1199SOL    HW2 3603   1.499   3.847   4.154
 1200SOL     OW 3604   0.382   4.424   4.204
 1200SOL    HW1 3605   0.427   4.334   4.201
 1200SOL    HW2 3606   0.288   4.413   4.237
 1201SOL     OW 3607   0.614   3.846   3.841
 1201SOL    HW1 3608   0.712   3.824   3.848
 1201SOL    HW2 3609   0.583   3.829   3.748
 1202SOL     OW 3610   0.539   3.788   4.236
 1202SOL    HW1 3611   0.458   3.789   4.294
 1202SOL    HW2 3612   0.542   3.871   4.181
 1203SOL     OW 3613   0.297   3.759   3.895
 1203SOL    HW1 3614   0.346   3.843   3.874
 1203SOL    HW2 3615   0.359   3.694   3.940
 1204SOL     OW 3616   0.935   3.960   4.204
 1204SOL    HW1 3617   0.887   4.001   4.126
 1204SOL    HW2 3618   1.034   3.958   4.185
 1205SOL     OW 3619   1.032   4.273   3.740
 1205SOL    HW1 3620   0.991   4.355   3.701
 1205SOL    HW2 3621   1.096   4.299   3.813
 1206SOL     OW 3622   0.866   4.178   4.366
 1206SOL    HW1 3623   0.834   4.250   4.304
 1206SOL    HW2 3624   0.890   4.097   4.313
 1207SOL     OW 3625   1.466   4.314   4.716
 1207SOL    HW1 3626   1.436   4.219   4.723
 1207SOL    HW2 3627   1.539   4.330   4.782
 1208SOL     OW 3628   1.390   4.299   3.802
 1208SOL    HW1 3629   1.336   4.278   3.883
 1208SOL    HW2 3630   1.481   4.258   3.811
 1209SOL     OW 3631   0.527   3.980   4.052
 1209SOL    HW1 3632   0.554   3.921   3.977
 1209SOL    HW2 3633   0.527   4.075   4.021
 1210SOL     OW 3634   1.582   4.363   4.196
 1210SOL    HW1 3635   1.551   4.424   4.269
 1210SOL    HW2 3636   1.632   4.415   4.127
 1211SOL     OW 3637   1.209   4.249   3.999
 1211SOL    HW1 3638   1.222   4.165   4.053
 1211SOL    HW2 3639   1.180   4.323   4.059
 1212SOL     OW 3640   0.307   3.787   4.342
 1212SOL    HW1 3641   0.296   3.881   4.375
 1212SOL    HW2 3642   0.302   3.724   4.419
 1213SOL     OW 3643   1.622   4.091   4.098
 1213SOL    HW1 3644   1.624   4.015   4.162
 1213SOL    HW2 3645   1.574   4.168   4.138
 1214SOL     OW 3646   1.540   3.998   3.849
 1214SOL    HW1 3647   1.479   3.923   3.872
 1214SOL    HW2 3648   1.562   4.050   3.932
 1215SOL     OW 3649   0.815   4.296   4.049
 1215SOL    HW1 3650   0.822   4.207   4.003
 1215SOL    HW2 3651   0.721   4.330   4.041
 1216SOL     OW 3652   0.473   4.224   3.915
 1216SOL    HW1 3653   0.534   4.304   3.919
 1216SOL    HW2 3654   0.378   4.255   3.922
 1217SOL     OW 3655   1.726   3.859   4.247
 1217SOL    HW1 3656   1.799   3.842   4.180
 1217SOL    HW2 3657   1.695   3.772   4.285
 1218SOL     OW 3658   1.280   4.651   4.396
 1218SOL    HW1 3659   1.340   4.570   4.398
 1218SOL    HW2 3660   1.320   4.720   4.336
 1219SOL     OW 3661   1.841   3.899   4.687
 1219SOL    HW1 3662   1.880   3.814   4.651
 1219SOL    HW2 3663   1.743   3.901   4.668
 1220SOL     OW 3664   0.075   4.069   3.757
 1220SOL    HW1 3665  -0.017   4.041   3.728
 1220SOL    HW2 3666   0.106   4.146   3.701
 1221SOL     OW 3667   0.072   3.890   4.042
 1221SOL    HW1 3668   0.055   3.973   3.988
 1221SOL    HW2 3669   0.162   3.853   4.020
 1222SOL     OW 3670   1.225   4.049   4.173
 1222SOL    HW1 3671   1.290   3.975   4.162
 1222SOL    HW2 3672   1.245   4.099   4.257
 1223SOL     OW 3673   1.083   4.708   3.811
 1223SOL    HW1 3674   1.060   4.761   3.729
 1223SOL    HW2 3675   1.164   4.652   3.792
 1224SOL     OW 3676   0.428   4.148   4.244
 1224SOL    HW1 3677   0.458   4.076   4.182
 1224SOL    HW2 3678   0.389   4.108   4.327
 1225SOL     OW 3679   1.352   3.776   3.892
 1225SOL    HW1 3680   1.387   3.735   3.808
 1225SOL    HW2 3681   1.262   3.738   3.912
 1226SOL     OW 3682   1.300   4.177   4.415
 1226SOL    HW1 3683   1.241   4.257   4.419
 1226SOL    HW2 3684   1.315   4.142   4.508
 1227SOL     OW 3685   2.092   0.628   0.113
 1227SOL    HW1 3686   1.999   0.626   0.150
 1227SOL    HW2 3687   2.093   0.589   0.021
 1228SOL     OW 3688   2.087   0.275   0.996
 1228SOL    HW1 3689   2.122   0.258   1.088
 1228SOL    HW2 3690   1.999   0.230   0.984
 1229SOL     OW 3691   1.881   0.368   0.647
 1229SOL    HW1 3692   1.799   0.411   0.686
 1229SOL    HW2 3693   1.853   0.295   0.584
 1230SOL     OW 3694   2.431   1.275   1.165
 1230SOL    HW1 3695   2.338   1.268   1.128
 1230SOL    HW2 3696   2.442   1.364   1.209
 1231SOL     OW 3697   3.417   1.511   0.703
 1231SOL    HW1 3698   3.360   1.495   0.784
 1231SOL    HW2 3699   3.358   1.521   0.623
 1232SOL     OW 3700   2.997   0.703   0.717
 1232SOL    HW1 3701   3.054   0.781   0.692
 1232SOL    HW2 3702   2.937   0.729   0.793
 1233SOL     OW 3703   3.617   0.607   0.231
 1233SOL    HW1 3704   3.605   0.594   0.132
 1233SOL    HW2 3705   3.587   0.526   0.280
 1234SOL     OW 3706   2.630   1.144   1.023
 1234SOL    HW1 3707   2.552   1.161   1.083
 1234SOL    HW2 3708   2.664   1.231   0.987
 1235SOL     OW 3709   2.712   0.798   1.823
 1235SOL    HW1 3710   2.708   0.874   1.888
 1235SOL    HW2 3711   2.734   0.834   1.732
 1236SOL     OW 3712   2.547   1.012   0.665
 1236SOL    HW1 3713   2.616   0.996   0.735
 1236SOL    HW2 3714   2.474   1.069   0.703
 1237SOL     OW 3715   2.548   1.161   1.803
 1237SOL    HW1 3716   2.608   1.240   1.817
 1237SOL    HW2 3717   2.462   1.192   1.762
 1238SOL     OW 3718   2.197   1.435   1.061
 1238SOL    HW1 3719   2.119   1.404   1.008
 1238SOL    HW2 3720   2.255   1.493   1.004
 1239SOL     OW 3721   3.322   1.505   1.339
 1239SOL    HW1 3722   3.346   1.599   1.365
 1239SOL    HW2 3723   3.306   1.451   1.421
 1240SOL     OW 3724   2.300   0.392   1.499
 1240SOL    HW1 3725   2.382   0.336   1.508
 1240SOL    HW2 3726   2.219   0.334   1.503
 1241SOL     OW 3727   3.465   0.447   0.737
 1241SOL    HW1 3728   3.391   0.493   0.687
 1241SOL    HW2 3729   3.516   0.515   0.790
 1242SOL     OW 3730   2.093   1.713   0.483
 1242SOL    HW1 3731   2.127   1.790   0.537
 1242SOL    HW2 3732   2.137   1.713   0.393
 1243SOL     OW 3733   2.989   1.341   1.690
 1243SOL    HW1 3734   3.036   1.341   1.778
 1243SOL    HW2 3735   2.941   1.254   1.679
 1244SOL     OW 3736   2.092   1.434   0.538
 1244SOL    HW1 3737   2.066   1.530   0.538
 1244SOL    HW2 3738   2.021   1.380   0.583
 1245SOL     OW 3739   2.102   1.091   0.886
 1245SOL    HW1 3740   2.116   1.007   0.938
 1245SOL    HW2 3741   2.047   1.155   0.941
 1246SOL     OW 3742   2.482   1.786   1.439
 1246SOL    HW1 3743   2.390   1.769   1.474
 1246SOL    HW2 3744   2.510   1.878   1.465
 1247SOL     OW 3745   2.468   0.964   0.123
 1247SOL    HW1 3746   2.475   1.048   0.069
 1247SOL    HW2 3747   2.514   0.977   0.211
 1248SOL     OW 3748   3.456   0.114   1.480
 1248SOL    HW1 3749   3.438   0.181   1.408
 1248SOL    HW2 3750   3.453   0.160   1.569
 1249SOL     OW 3751   1.984   0.643   0.563
 1249SOL    HW1 3752   1.939   0.555   0.580
 1249SOL    HW2 3753   1.983   0.697   0.647
 1250SOL     OW 3754   3.704   1.767   0.359
 1250SOL    HW1 3755   3.758   1.738   0.439
 1250SOL    HW2 3756   3.734   1.857   0.330
 1251SOL     OW 3757   1.889   1.596   0.117
 1251SOL    HW1 3758   1.870   1.500   0.138
 1251SOL    HW2 3759   1.856   1.654   0.192
 1252SOL     OW 3760   3.551   0.922   0.612
 1252SOL    HW1 3761   3.646   0.893   0.620
 1252SOL    HW2 3762   3.543   0.987   0.537
 1253SOL     OW 3763   3.503   1.108   0.432
 1253SOL    HW1 3764   3.589   1.110   0.380
 1253SOL    HW2 3765   3.517   1.155   0.520
 1254SOL     OW 3766   1.975   0.737   1.597
 1254SOL    HW1 3767   2.063   0.724   1.642
 1254SOL    HW2 3768   1.962   0.834   1.575
 1255SOL     OW 3769   2.475   1.365   0.726
 1255SOL    HW1 3770   2.426   1.278   0.735
 1255SOL    HW2 3771   2.452   1.408   0.639
 1256SOL     OW 3772   3.155   1.228   1.423
 1256SOL    HW1 3773   3.192   1.155   1.365
 1256SOL    HW2 3774   3.207   1.233   1.508
 1257SOL     OW 3775   2.671   0.004   0.502
 1257SOL    HW1 3776   2.711   0.095   0.493
 1257SOL    HW2 3777   2.571   0.012   0.508
 1258SOL     OW 3778   2.059   0.976   1.264
 1258SOL    HW1 3779   2.148   0.931   1.250
 1258SOL    HW2 3780   1.986   0.911   1.245
 1259SOL     OW 3781   3.387   0.999   0.190
 1259SOL    HW1 3782   3.324   0.923   0.203
 1259SOL    HW2 3783   3.435   1.017   0.276
 1260SOL     OW 3784   3.049   1.792   1.616
 1260SOL    HW1 3785   3.073   1.852   1.540
 1260SOL    HW2 3786   3.056   1.697   1.586
 1261SOL     OW 3787   2.179   0.251   1.801
 1261SOL    HW1 3788   2.250   0.322   1.807
 1261SOL    HW2 3789   2.091   0.290   1.829
 1262SOL     OW 3790   3.328   1.417   0.953
 1262SOL    HW1 3791   3.269   1.423   1.033
 1262SOL    HW2 3792   3.313   1.329   0.907
 1263SOL     OW 3793   3.529   1.714   0.572
 1263SOL    HW1 3794   3.488   1.691   0.484
 1263SOL    HW2 3795   3.511   1.640   0.637
 1264SOL     OW 3796   2.460   0.729   0.270
 1264SOL    HW1 3797   2.484   0.798   0.202
 1264SOL    HW2 3798   2.382   0.762   0.324
 1265SOL     OW 3799   3.143   0.345   0.944
 1265SOL    HW1 3800   3.057   0.295   0.931
 1265SOL    HW2 3801   3.205   0.291   1.000
 1266SOL     OW 3802   3.438   1.662   0.307
 1266SOL    HW1 3803   3.527   1.708   0.310
 1266SOL    HW2 3804   3.417   1.638   0.212
 1267SOL     OW 3805   2.669   0.605   1.465
 1267SOL    HW1 3806   2.622   0.602   1.554
 1267SOL    HW2 3807   2.618   0.550   1.399
 1268SOL     OW 3808   3.256   0.469   1.674
 1268SOL    HW1 3809   3.236   0.512   1.762
 1268SOL    HW2 3810   3.334   0.407   1.683
 1269SOL     OW 3811   2.835   0.890   1.572
 1269SOL    HW1 3812   2.881   0.806   1.543
 1269SOL    HW2 3813   2.779   0.924   1.497
 1270SOL     OW 3814   2.853   0.410   1.242
 1270SOL    HW1 3815   2.776   0.444   1.296
 1270SOL    HW2 3816   2.819   0.359   1.163
 1271SOL     OW 3817   2.903   0.701   0.429
 1271SOL    HW1 3818   2.929   0.697   0.525
 1271SOL    HW2 3819   2.818   0.650   0.415
 1272SOL     OW 3820   1.938   0.811   0.789
 1272SOL    HW1 3821   2.037   0.799   0.798
 1272SOL    HW2 3822   1.914   0.906   0.810
 1273SOL     OW 3823   1.992   1.821   1.571
 1273SOL    HW1 3824   1.982   1.806   1.670
 1273SOL    HW2 3825   1.906   1.857   1.535
 1274SOL     OW 3826   2.727   0.348   0.195
 1274SOL    HW1 3827   2.786   0.411   0.146
 1274SOL    HW2 3828   2.746   0.254   0.166
 1275SOL     OW 3829   3.581   0.585   1.831
 1275SOL    HW1 3830   3.555   0.674   1.795
 1275SOL    HW2 3831   3.579   0.517   1.758
 1276SOL     OW 3832   3.224   1.144   0.545
 1276SOL    HW1 3833   3.307   1.115   0.497
 1276SOL    HW2 3834   3.175   1.211   0.489
 1277SOL     OW 3835   2.412   0.196   0.885
 1277SOL    HW1 3836   2.407   0.191   0.985
 1277SOL    HW2 3837   2.414   0.292   0.856
 1278SOL     OW 3838   2.870   1.456   0.477
 1278SOL    HW1 3839   2.824   1.528   0.425
 1278SOL    HW2 3840   2.866   1.476   0.575
 1279SOL     OW 3841   2.213   1.801   0.853
 1279SOL    HW1 3842   2.263   1.715   0.859
 1279SOL    HW2 3843   2.278   1.878   0.850
 1280SOL     OW 3844   3.657   1.066   0.873
 1280SOL    HW1 3845   3.595   1.051   0.797
 1280SOL    HW2 3846   3.605   1.077   0.958
 1281SOL     OW 3847   3.089   1.550   1.506
 1281SOL    HW1 3848   3.095   1.473   1.570
 1281SOL    HW2 3849   3.037   1.524   1.426
 1282SOL     OW 3850   2.183   0.943   0.242
 1282SOL    HW1 3851   2.265   0.982   0.200
 1282SOL    HW2 3852   2.156   0.861   0.193
 1283SOL     OW 3853   3.320   0.735   0.728
 1283SOL    HW1 3854   3.315   0.670   0.803
 1283SOL    HW2 3855   3.400   0.794   0.741
 1284SOL     OW 3856   2.323   1.266   1.727
 1284SOL    HW1 3857   2.273   1.267   1.641
 1284SOL    HW2 3858   2.260   1.248   1.803
 1285SOL     OW 3859   2.973   1.776   0.237
 1285SOL    HW1 3860   2.913   1.714   0.287
 1285SOL    HW2 3861   3.004   1.732   0.152
 1286SOL     OW 3862   2.064   0.285   1.498
 1286SOL    HW1 3863   1.984   0.345   1.485
 1286SOL    HW2 3864   2.054   0.236   1.584
 1287SOL     OW 3865   3.494   1.377   0.081
 1287SOL    HW1 3866   3.462   1.471   0.071
 1287SOL    HW2 3867   3.418   1.314   0.069
 1288SOL     OW 3868   2.326   1.743   0.323
 1288SOL    HW1 3869   2.359   1.782   0.409
 1288SOL    HW2 3870   2.402   1.736   0.258
 1289SOL     OW 3871   3.262   0.107   0.426
 1289SOL    HW1 3872   3.238   0.070   0.336
 1289SOL    HW2 3873   3.361   0.123   0.430
 1290SOL     OW 3874   2.111   1.785   1.241
 1290SOL    HW1 3875   2.168   1.720   1.291
 1290SOL    HW2 3876   2.095   1.752   1.148
 1291SOL     OW 3877   2.802   1.698   0.904
 1291SOL    HW1 3878   2.882   1.641   0.925
 1291SOL    HW2 3879   2.753   1.658   0.827
 1292SOL     OW 3880   2.244   0.700   0.480
 1292SOL    HW1 3881   2.289   0.610   0.477
 1292SOL    HW2 3882   2.150   0.689   0.513
 1293SOL     OW 3883   3.409   0.222   1.729
 1293SOL    HW1 3884   3.404   0.259   1.821
 1293SOL    HW2 3885   3.337   0.153   1.717
 1294SOL     OW 3886   2.476   0.122   0.117
 1294SOL    HW1 3887   2.574   0.100   0.124
 1294SOL    HW2 3888   2.445   0.105   0.024
 1295SOL     OW 3889   2.643   0.264   1.749
 1295SOL    HW1 3890   2.710   0.203   1.792
 1295SOL    HW2 3891   2.570   0.283   1.814
 1296SOL     OW 3892   2.750   1.514   1.195
 1296SOL    HW1 3893   2.727   1.489   1.101
 1296SOL    HW2 3894   2.811   1.445   1.234
 1297SOL     OW 3895   3.213   0.590   1.433
 1297SOL    HW1 3896   3.241   0.547   1.518
 1297SOL    HW2 3897   3.238   0.686   1.434
 1298SOL     OW 3898   2.665   1.402   0.924
 1298SOL    HW1 3899   2.755   1.416   0.882
 1298SOL    HW2 3900   2.594   1.404   0.853
 1299SOL     OW 3901   2.784   0.503   0.899
 1299SOL    HW1 3902   2.759   0.494   0.803
 1299SOL    HW2 3903   2.832   0.421   0.930
 1300SOL     OW 3904   2.401   0.064   0.512
 1300SOL    HW1 3905   2.320   0.065   0.570
 1300SOL    HW2 3906   2.404   0.147   0.457
 1301SOL     OW 3907   3.296   1.188   0.041
 1301SOL    HW1 3908   3.328   1.112   0.098
 1301SOL    HW2 3909   3.204   1.215   0.071
 1302SOL     OW 3910   2.159   0.035   0.171
 1302SOL    HW1 3911   2.208   0.119   0.150
 1302SOL    HW2 3912   2.221  -0.030   0.216
 1303SOL     OW 3913   2.797   0.236   0.480
 1303SOL    HW1 3914   2.749   0.277   0.402
 1303SOL    HW2 3915   2.896   0.234   0.461
 1304SOL     OW 3916   2.938   0.683   1.464
 1304SOL    HW1 3917   2.858   0.622   1.467
 1304SOL    HW2 3918   3.019   0.630   1.440
 1305SOL     OW 3919   3.089   1.570   0.793
 1305SOL    HW1 3920   3.110   1.644   0.728
 1305SOL    HW2 3921   3.157   1.570   0.866
 1306SOL     OW 3922   2.321   1.152   0.741
 1306SOL    HW1 3923   2.250   1.125   0.806
 1306SOL    HW2 3924   2.295   1.124   0.648
 1307SOL     OW 3925   3.133   1.797   0.591
 1307SOL    HW1 3926   3.177   1.861   0.527
 1307SOL    HW2 3927   3.083   1.849   0.661
 1308SOL     OW 3928   2.894   0.549   0.016
 1308SOL    HW1 3929   2.853   0.631  -0.023
 1308SOL    HW2 3930   2.958   0.575   0.089
 1309SOL     OW 3931   1.940   0.556   1.386
 1309SOL    HW1 3932   2.032   0.555   1.345
 1309SOL    HW2 3933   1.934   0.630   1.453
 1310SOL     OW 3934   2.423   0.222   1.147
 1310SOL    HW1 3935   2.461   0.138   1.184
 1310SOL    HW2 3936   2.335   0.241   1.191
 1311SOL     OW 3937   2.728   0.454   0.642
 1311SOL    HW1 3938   2.696   0.526   0.580
 1311SOL    HW2 3939   2.752   0.373   0.589
 1312SOL     OW 3940   2.879   0.039   0.753
 1312SOL    HW1 3941   2.807   0.044   0.684
 1312SOL    HW2 3942   2.855  -0.030   0.822
 1313SOL     OW 3943   3.291   1.173   0.867
 1313SOL    HW1 3944   3.236   1.089   0.860
 1313SOL    HW2 3945   3.317   1.202   0.775
 1314SOL     OW 3946   3.328   0.590   0.992
 1314SOL    HW1 3947   3.298   0.495   0.999
 1314SOL    HW2 3948   3.401   0.606   1.058
 1315SOL     OW 3949   3.719   0.833   0.377
 1315SOL    HW1 3950   3.761   0.769   0.441
 1315SOL    HW2 3951   3.681   0.782   0.299
 1316SOL     OW 3952   2.350   1.385   0.174
 1316SOL    HW1 3953   2.263   1.370   0.221
 1316SOL    HW2 3954   2.333   1.411   0.079
 1317SOL     OW 3955   3.526   1.280   0.657
 1317SOL    HW1 3956   3.625   1.288   0.671
 1317SOL    HW2 3957   3.481   1.364   0.688
 1318SOL     OW 3958   3.252   0.575   0.078
 1318SOL    HW1 3959   3.198   0.554   0.159
 1318SOL    HW2 3960   3.343   0.534   0.087
 1319SOL     OW 3961   2.389   0.256   0.328
 1319SOL    HW1 3962   2.416   0.197   0.253
 1319SOL    HW2 3963   2.389   0.351   0.297
 1320SOL     OW 3964   3.616   1.223   1.588
 1320SOL    HW1 3965   3.707   1.184   1.575
 1320SOL    HW2 3966   3.624   1.319   1.612
 1321SOL     OW 3967   2.926   1.347   1.340
 1321SOL    HW1 3968   2.846   1.324   1.395
 1321SOL    HW2 3969   3.009   1.321   1.389
 1322SOL     OW 3970   3.454   1.629   1.625
 1322SOL    HW1 3971   3.481   1.663   1.535
 1322SOL    HW2 3972   3.533   1.591   1.671
 1323SOL     OW 3973   2.973   1.195   1.100
 1323SOL    HW1 3974   2.933   1.239   1.181
 1323SOL    HW2 3975   2.932   1.232   1.017
 1324SOL     OW 3976   3.500   1.099   1.079
 1324SOL    HW1 3977   3.505   1.180   1.138
 1324SOL    HW2 3978   3.414   1.101   1.028
 1325SOL     OW 3979   2.777   0.089   1.402
 1325SOL    HW1 3980   2.802   0.069   1.307
 1325SOL    HW2 3981   2.849   0.145   1.444
 1326SOL     OW 3982   2.842   1.116   1.719
 1326SOL    HW1 3983   2.743   1.122   1.729
 1326SOL    HW2 3984   2.865   1.036   1.663
 1327SOL     OW 3985   2.567   1.050   0.368
 1327SOL    HW1 3986   2.553   1.057   0.467
 1327SOL    HW2 3987   2.651   0.999   0.350
 1328SOL     OW 3988   2.272   0.813   1.251
 1328SOL    HW1 3989   2.358   0.825   1.301
 1328SOL    HW2 3990   2.230   0.726   1.278
 1329SOL     OW 3991   3.136   0.386   1.262
 1329SOL    HW1 3992   3.157   0.460   1.326
 1329SOL    HW2 3993   3.047   0.403   1.219
 1330SOL     OW 3994   1.926   1.564   1.331
 1330SOL    HW1 3995   1.880   1.646   1.297
 1330SOL    HW2 3996   2.024   1.583   1.340
 1331SOL     OW 3997   2.229   1.100   0.501
 1331SOL    HW1 3998   2.222   1.183   0.445
 1331SOL    HW2 3999   2.233   1.020   0.441
 1332SOL     OW 4000   2.428   0.537   0.865
 1332SOL    HW1 4001   2.440   0.603   0.791
 1332SOL    HW2 4002   2.474   0.571   0.948
 1333SOL     OW 4003   3.114   1.348   0.388
 1333SOL    HW1 4004   3.164   1.425   0.428
 1333SOL    HW2 4005   3.019   1.350   0.420
 1334SOL     OW 4006   3.134   1.445   1.142
 1334SOL    HW1 4007   3.181   1.458   1.229
 1334SOL    HW2 4008   3.068   1.371   1.151
 1335SOL     OW 4009   3.444   0.639   0.472
 1335SOL    HW1 4010   3.413   0.700   0.545
 1335SOL    HW2 4011   3.494   0.691   0.403
 1336SOL     OW 4012   2.216   1.510   1.329
 1336SOL    HW1 4013   2.195   1.466   1.242
 1336SOL    HW2 4014   2.313   1.536   1.332
 1337SOL     OW 4015   2.264   0.751   1.598
 1337SOL    HW1 4016   2.332   0.806   1.551
 1337SOL    HW2 4017   2.304   0.663   1.625
 1338SOL     OW 4018   3.449   0.779   1.670
 1338SOL    HW1 4019   3.357   0.817   1.665
 1338SOL    HW2 4020   3.509   0.826   1.605
 1339SOL     OW 4021   2.875   0.105   1.770
 1339SOL    HW1 4022   2.881   0.190   1.718
 1339SOL    HW2 4023   2.907   0.029   1.713
 1340SOL     OW 4024   2.366   0.050   1.740
 1340SOL    HW1 4025   2.324  -0.007   1.670
 1340SOL    HW2 4026   2.300   0.119   1.772
 1341SOL     OW 4027   2.435   0.870   1.029
 1341SOL    HW1 4028   2.479   0.959   1.020
 1341SOL    HW2 4029   2.372   0.870   1.106
 1342SOL     OW 4030   3.222   0.862   1.045
 1342SOL    HW1 4031   3.147   0.862   0.979
 1342SOL    HW2 4032   3.259   0.770   1.054
 1343SOL     OW 4033   3.071   0.525   0.275
 1343SOL    HW1 4034   3.084   0.441   0.329
 1343SOL    HW2 4035   3.042   0.599   0.335
 1344SOL     OW 4036   2.169   0.213   1.231
 1344SOL    HW1 4037   2.146   0.250   1.321
 1344SOL    HW2 4038   2.139   0.118   1.225
 1345SOL     OW 4039   1.899   1.310   1.282
 1345SOL    HW1 4040   1.952   1.261   1.350
 1345SOL    HW2 4041   1.921   1.408   1.287
 1346SOL     OW 4042   2.594   0.634   1.064
 1346SOL    HW1 4043   2.653   0.608   0.988
 1346SOL    HW2 4044   2.566   0.730   1.053
 1347SOL     OW 4045   3.590   0.935   1.854
 1347SOL    HW1 4046   3.544   0.928   1.765
 1347SOL    HW2 4047   3.528   0.979   1.920
 1348SOL     OW 4048   2.169   0.063   0.618
 1348SOL    HW1 4049   2.158   0.157   0.651
 1348SOL    HW2 4050   2.164   0.000   0.695
 1349SOL     OW 4051   3.484   0.367   0.374
 1349SOL    HW1 4052   3.486   0.291   0.438
 1349SOL    HW2 4053   3.436   0.444   0.414
 1350SOL     OW 4054   2.885   0.766   0.966
 1350SOL    HW1 4055   2.900   0.787   1.062
 1350SOL    HW2 4056   2.855   0.671   0.957
 1351SOL     OW 4057   2.842   1.573   1.700
 1351SOL    HW1 4058   2.822   1.617   1.612
 1351SOL    HW2 4059   2.881   1.482   1.684
 1352SOL     OW 4060   3.721   1.518   1.605
 1352SOL    HW1 4061   3.735   1.545   1.510
 1352SOL    HW2 4062   3.804   1.540   1.658
 1353SOL     OW 4063   2.212   0.898   1.804
 1353SOL    HW1 4064   2.288   0.942   1.852
 1353SOL    HW2 4065   2.247   0.851   1.722
 1354SOL     OW 4066   3.402   0.274   0.125
 1354SOL    HW1 4067   3.341   0.199   0.148
 1354SOL    HW2 4068   3.424   0.326   0.208
 1355SOL     OW 4069   3.165   0.838   0.042
 1355SOL    HW1 4070   3.199   0.745   0.057
 1355SOL    HW2 4071   3.183   0.865  -0.053
 1356SOL     OW 4072   2.930   1.333   0.849
 1356SOL    HW1 4073   2.937   1.249   0.794
 1356SOL    HW2 4074   2.992   1.402   0.813
 1357SOL     OW 4075   2.181   0.810   0.949
 1357SOL    HW1 4076   2.274   0.846   0.954
 1357SOL    HW2 4077   2.175   0.725   1.001
 1358SOL     OW 4078   2.201   0.509   1.006
 1358SOL    HW1 4079   2.149   0.426   0.989
 1358SOL    HW2 4080   2.278   0.514   0.942
 1359SOL     OW 4081   3.000   0.380   1.678
 1359SOL    HW1 4082   2.955   0.443   1.742
 1359SOL    HW2 4083   3.093   0.411   1.661
 1360SOL     OW 4084   3.022   0.207   1.477
 1360SOL    HW1 4085   3.022   0.271   1.554
 1360SOL    HW2 4086   3.050   0.255   1.394
 1361SOL     OW 4087   1.870   1.326   0.200
 1361SOL    HW1 4088   1.777   1.347   0.169
 1361SOL    HW2 4089   1.880   1.227   0.213
 1362SOL     OW 4090   1.950   1.801   0.927
 1362SOL    HW1 4091   1.908   1.715   0.900
 1362SOL    HW2 4092   2.044   1.804   0.893
 1363SOL     OW 4093   2.366   1.568   0.910
 1363SOL    HW1 4094   2.432   1.642   0.919
 1363SOL    HW2 4095   2.410   1.489   0.868
 1364SOL     OW 4096   2.864   0.796   1.238
 1364SOL    HW1 4097   2.905   0.764   1.324
 1364SOL    HW2 4098   2.768   0.769   1.235
 1365SOL     OW 4099   1.902   0.544   1.114
 1365SOL    HW1 4100   1.987   0.511   1.073
 1365SOL    HW2 4101   1.915   0.559   1.212
 1366SOL     OW 4102   2.051   0.520   1.722
 1366SOL    HW1 4103   2.110   0.480   1.652
 1366SOL    HW2 4104   1.993   0.591   1.681
 1367SOL     OW 4105   3.231   0.950   1.660
 1367SOL    HW1 4106   3.270   1.039   1.680
 1367SOL    HW2 4107   3.241   0.930   1.563
 1368SOL     OW 4108   2.677   0.572   0.325
 1368SOL    HW1 4109   2.684   0.483   0.279
 1368SOL    HW2 4110   2.583   0.606   0.317
 1369SOL     OW 4111   3.519   0.604   1.206
 1369SOL    HW1 4112   3.481   0.535   1.268
 1369SOL    HW2 4113   3.601   0.568   1.162
 1370SOL     OW 4114   2.114   1.564   1.744
 1370SOL    HW1 4115   2.084   1.621   1.820
 1370SOL    HW2 4116   2.107   1.467   1.770
 1371SOL     OW 4117   2.533   0.464   1.269
 1371SOL    HW1 4118   2.499   0.375   1.239
 1371SOL    HW2 4119   2.559   0.518   1.189
 1372SOL     OW 4120   2.792   1.678   1.465
 1372SOL    HW1 4121   2.768   1.660   1.370
 1372SOL    HW2 4122   2.822   1.772   1.475
 1373SOL     OW 4123   2.335   0.500   0.191
 1373SOL    HW1 4124   2.396   0.580   0.195
 1373SOL    HW2 4125   2.240   0.531   0.198
 1374SOL     OW 4126   2.021   1.137   1.466
 1374SOL    HW1 4127   2.043   1.076   1.542
 1374SOL    HW2 4128   2.031   1.088   1.380
 1375SOL     OW 4129   3.209   1.059   1.234
 1375SOL    HW1 4130   3.233   0.996   1.160
 1375SOL    HW2 4131   3.119   1.099   1.216
 1376SOL     OW 4132   3.164   0.855   0.309
 1376SOL    HW1 4133   3.078   0.824   0.351
 1376SOL    HW2 4134   3.160   0.841   0.210
 1377SOL     OW 4135   3.621   1.747   1.154
 1377SOL    HW1 4136   3.682   1.777   1.081
 1377SOL    HW2 4137   3.583   1.658   1.132
 1378SOL     OW 4138   3.114   1.731   1.128
 1378SOL    HW1 4139   3.198   1.736   1.074
 1378SOL    HW2 4140   3.091   1.635   1.146
 1379SOL     OW 4141   1.945   1.258   1.022
 1379SOL    HW1 4142   1.940   1.257   1.122
 1379SOL    HW2 4143   1.862   1.217   0.984
 1380SOL     OW 4144   2.550   1.662   1.716
 1380SOL    HW1 4145   2.494   1.743   1.725
 1380SOL    HW2 4146   2.602   1.666   1.630
 1381SOL     OW 4147   2.765   0.086   0.133
 1381SOL    HW1 4148   2.816   0.087   0.047
 1381SOL    HW2 4149   2.821   0.044   0.204
 1382SOL     OW 4150   3.588   0.135   0.523
 1382SOL    HW1 4151   3.661   0.118   0.456
 1382SOL    HW2 4152   3.557   0.048   0.561
 1383SOL     OW 4153   3.250   1.573   0.477
 1383SOL    HW1 4154   3.317   1.585   0.403
 1383SOL    HW2 4155   3.210   1.662   0.500
 1384SOL     OW 4156   1.992   1.794   1.851
 1384SOL    HW1 4157   1.951   1.720   1.904
 1384SOL    HW2 4158   2.056   1.845   1.909
 1385SOL     OW 4159   3.142   0.927   0.672
 1385SOL    HW1 4160   3.202   0.846   0.674
 1385SOL    HW2 4161   3.182   0.996   0.612
 1386SOL     OW 4162   2.692   1.273   1.422
 1386SOL    HW1 4163   2.687   1.306   1.517
 1386SOL    HW2 4164   2.606   1.292   1.376
 1387SOL     OW 4165   2.534   1.616   0.154
 1387SOL    HW1 4166   2.543   1.626   0.055
 1387SOL    HW2 4167   2.494   1.527   0.175
 1388SOL     OW 4168   3.512   1.720   1.394
 1388SOL    HW1 4169   3.565   1.730   1.310
 1388SOL    HW2 4170   3.485   1.810   1.428
 1389SOL     OW 4171   3.703   0.175   0.963
 1389SOL    HW1 4172   3.742   0.090   0.927
 1389SOL    HW2 4173   3.605   0.177   0.944
 1390SOL     OW 4174   2.125   0.326   0.720
 1390SOL    HW1 4175   2.046   0.377   0.686
 1390SOL    HW2 4176   2.116   0.311   0.818
 1391SOL     OW 4177   3.056   1.612   0.031
 1391SOL    HW1 4178   3.062   1.519   0.068
 1391SOL    HW2 4179   2.997   1.612  -0.049
 1392SOL     OW 4180   2.684   1.002   1.372
 1392SOL    HW1 4181   2.724   1.001   1.280
 1392SOL    HW2 4182   2.694   1.094   1.412
 1393SOL     OW 4183   2.778   0.910   0.291
 1393SOL    HW1 4184   2.841   0.948   0.223
 1393SOL    HW2 4185   2.818   0.827   0.330
 1394SOL     OW 4186   3.366   1.607   0.044
 1394SOL    HW1 4187   3.274   1.644   0.051
 1394SOL    HW2 4188   3.404   1.627  -0.046
 1395SOL     OW 4189   2.234   1.288   1.490
 1395SOL    HW1 4190   2.221   1.381   1.456
 1395SOL    HW2 4191   2.150   1.236   1.477
 1396SOL     OW 4192   3.476   1.292   1.289
 1396SOL    HW1 4193   3.536   1.295   1.369
 1396SOL    HW2 4194   3.401   1.356   1.302
 1397SOL     OW 4195   2.901   1.098   0.696
 1397SOL    HW1 4196   2.831   1.051   0.750
 1397SOL    HW2 4197   2.960   1.030   0.653
 1398SOL     OW 4198   2.876   0.236   0.971
 1398SOL    HW1 4199   2.868   0.200   0.878
 1398SOL    HW2 4200   2.874   0.160   1.036
 1399SOL     OW 4201   2.452   1.487   0.491
 1399SOL    HW1 4202   2.494   1.429   0.421
 1399SOL    HW2 4203   2.408   1.566   0.447
 1400SOL     OW 4204   3.571   0.385   1.381
 1400SOL    HW1 4205   3.644   0.454   1.385
 1400SOL    HW2 4206   3.599   0.310   1.322
 1401SOL     OW 4207   2.117   1.348   0.290
 1401SOL    HW1 4208   2.021   1.349   0.263
 1401SOL    HW2 4209   2.129   1.401   0.374
 1402SOL     OW 4210   1.967   1.013   1.726
 1402SOL    HW1 4211   1.890   0.980   1.780
 1402SOL    HW2 4212   2.052   0.983   1.768
 1403SOL     OW 4213   2.534   0.203   1.489
 1403SOL    HW1 4214   2.624   0.187   1.449
 1403SOL    HW2 4215   2.542   0.208   1.588
 1404SOL     OW 4216   1.937   0.345   0.033
 1404SOL    HW1 4217   1.845   0.317   0.004
 1404SOL    HW2 4218   1.968   0.422  -0.023
 1405SOL     OW 4219   3.302   0.856   1.398
 1405SOL    HW1 4220   3.245   0.908   1.335
 1405SOL    HW2 4221   3.398   0.868   1.374
 1406SOL     OW 4222   3.045   1.335   0.119
 1406SOL    HW1 4223   2.946   1.324   0.121
 1406SOL    HW2 4224   3.079   1.350   0.212
 1407SOL     OW 4225   2.475   0.842   1.431
 1407SOL    HW1 4226   2.531   0.923   1.414
 1407SOL    HW2 4227   2.534   0.762   1.434
 1408SOL     OW 4228   3.355   1.767   0.959
 1408SOL    HW1 4229   3.388   1.831   0.890
 1408SOL    HW2 4230   3.421   1.761   1.034
 1409SOL     OW 4231   2.578   0.565   1.708
 1409SOL    HW1 4232   2.597   0.630   1.782
 1409SOL    HW2 4233   2.638   0.485   1.717
 1410SOL     OW 4234   3.312   1.220   1.633
 1410SOL    HW1 4235   3.303   1.210   1.732
 1410SOL    HW2 4236   3.408   1.213   1.607
 1411SOL     OW 4237   2.252   1.741   1.560
 1411SOL    HW1 4238   2.161   1.782   1.558
 1411SOL    HW2 4239   2.245   1.647   1.592
 1412SOL     OW 4240   3.536   0.883   1.254
 1412SOL    HW1 4241   3.509   0.794   1.217
 1412SOL    HW2 4242   3.537   0.951   1.181
 1413SOL     OW 4243   3.087   0.325   0.449
 1413SOL    HW1 4244   3.152   0.251   0.438
 1413SOL    HW2 4245   3.107   0.375   0.533
 1414SOL     OW 4246   2.456   0.745   0.652
 1414SOL    HW1 4247   2.506   0.830   0.633
 1414SOL    HW2 4248   2.368   0.747   0.604
 1415SOL     OW 4249   3.639   0.342   1.642
 1415SOL    HW1 4250   3.622   0.373   1.548
 1415SOL    HW2 4251   3.555   0.305   1.680
 1416SOL     OW 4252   3.592   0.934   1.517
 1416SOL    HW1 4253   3.630   1.025   1.532
 1416SOL    HW2 4254   3.584   0.917   1.418
 1417SOL     OW 4255   2.721   1.374   0.016
 1417SOL    HW1 4256   2.675   1.389   0.104
 1417SOL    HW2 4257   2.765   1.459  -0.014
 1418SOL     OW 4258   2.523   1.790   0.953
 1418SOL    HW1 4259   2.477   1.878   0.940
 1418SOL    HW2 4260   2.622   1.802   0.946
 1419SOL     OW 4261   2.721   0.956   0.861
 1419SOL    HW1 4262   2.775   0.887   0.909
 1419SOL    HW2 4263   2.689   1.025   0.927
 1420SOL     OW 4264   2.945   0.984   0.087
 1420SOL    HW1 4265   2.922   1.037   0.005
 1420SOL    HW2 4266   3.026   0.928   0.068
 1421SOL     OW 4267   3.723   1.569   0.851
 1421SOL    HW1 4268   3.652   1.557   0.781
 1421SOL    HW2 4269   3.724   1.490   0.911
 1422SOL     OW 4270   2.083   1.314   1.844
 1422SOL    HW1 4271   2.018   1.241   1.823
 1422SOL    HW2 4272   2.087   1.328   1.942
 1423SOL     OW 4273   1.941   1.240   0.653
 1423SOL    HW1 4274   1.940   1.193   0.741
 1423SOL    HW2 4275   2.023   1.212   0.602
 1424SOL     OW 4276   2.534   1.391   1.624
 1424SOL    HW1 4277   2.456   1.341   1.662
 1424SOL    HW2 4278   2.531   1.486   1.655
 1425SOL     OW 4279   3.686   0.192   1.227
 1425SOL    HW1 4280   3.682   0.102   1.271
 1425SOL    HW2 4281   3.689   0.181   1.128
 1426SOL     OW 4282   2.290   0.424   0.520
 1426SOL    HW1 4283   2.320   0.352   0.458
 1426SOL    HW2 4284   2.251   0.384   0.603
 1427SOL     OW 4285   3.567   1.487   1.104
 1427SOL    HW1 4286   3.474   1.462   1.077
 1427SOL    HW2 4287   3.593   1.437   1.186
 1428SOL     OW 4288   2.179   0.547   1.280
 1428SOL    HW1 4289   2.217   0.488   1.352
 1428SOL    HW2 4290   2.219   0.521   1.192
 1429SOL     OW 4291   2.674   1.586   0.687
 1429SOL    HW1 4292   2.706   1.596   0.593
 1429SOL    HW2 4293   2.595   1.524   0.689
 1430SOL     OW 4294   3.286   0.214   1.112
 1430SOL    HW1 4295   3.338   0.149   1.167
 1430SOL    HW2 4296   3.237   0.277   1.173
 1431SOL     OW 4297   2.863   0.034   1.154
 1431SOL    HW1 4298   2.800  -0.038   1.123
 1431SOL    HW2 4299   2.956  -0.002   1.154
 1432SOL     OW 4300   2.632   1.330   0.301
 1432SOL    HW1 4301   2.586   1.243   0.318
 1432SOL    HW2 4302   2.723   1.327   0.342
 1433SOL     OW 4303   2.480   1.567   1.284
 1433SOL    HW1 4304   2.475   1.649   1.341
 1433SOL    HW2 4305   2.569   1.564   1.239
 1434SOL     OW 4306   3.214   0.052   0.168
 1434SOL    HW1 4307   3.249   0.011   0.084
 1434SOL    HW2 4308   3.124   0.014   0.188
 1435SOL     OW 4309   3.162   0.453   0.691
 1435SOL    HW1 4310   3.103   0.533   0.695
 1435SOL    HW2 4311   3.177   0.418   0.784
 1436SOL     OW 4312   3.455   0.221   0.882
 1436SOL    HW1 4313   3.371   0.220   0.936
 1436SOL    HW2 4314   3.457   0.304   0.826
 1437SOL     OW 4315   1.901   1.077   0.300
 1437SOL    HW1 4316   2.000   1.066   0.291
 1437SOL    HW2 4317   1.861   0.991   0.332
 1438SOL     OW 4318   2.737   1.646   0.337
 1438SOL    HW1 4319   2.660   1.611   0.283
 1438SOL    HW2 4320   2.705   1.717   0.399
 1439SOL     OW 4321   2.092   0.628   1.975
 1439SOL    HW1 4322   1.999   0.626   2.012
 1439SOL    HW2 4323   2.093   0.589   1.883
 1440SOL     OW 4324   2.087   0.275   2.858
 1440SOL    HW1 4325   2.122   0.258   2.950
 1440SOL    HW2 4326   1.999   0.230   2.846
 1441SOL     OW 4327   1.881   0.368   2.509
 1441SOL    HW1 4328   1.799   0.411   2.548
 1441SOL    HW2 4329   1.853   0.295   2.446
 1442SOL     OW 4330   2.431   1.275   3.027
 1442SOL    HW1 4331   2.338   1.268   2.990
 1442SOL    HW2 4332   2.442   1.364   3.071
 1443SOL     OW 4333   3.417   1.511   2.565
 1443SOL    HW1 4334   3.360   1.495   2.646
 1443SOL    HW2 4335   3.358   1.521   2.485
 1444SOL     OW 4336   2.997   0.703   2.579
 1444SOL    HW1 4337   3.054   0.781   2.554
 1444SOL    HW2 4338   2.937   0.729   2.655
 1445SOL     OW 4339   3.617   0.607   2.093
 1445SOL    HW1 4340   3.605   0.594   1.994
 1445SOL    HW2 4341   3.587   0.526   2.142
 1446SOL     OW 4342   2.630   1.144   2.885
 1446SOL    HW1 4343   2.552   1.161   2.945
 1446SOL    HW2 4344   2.664   1.231   2.849
 1447SOL     OW 4345   2.712   0.798   3.685
 1447SOL    HW1 4346   2.708   0.874   3.750
 1447SOL    HW2 4347   2.734   0.834   3.594
 1448SOL     OW 4348   2.547   1.012   2.527
 1448SOL    HW1 4349   2.616   0.996   2.597
 1448SOL    HW2 4350   2.474   1.069   2.565
 1449SOL     OW 4351   2.548   1.161   3.665
 1449SOL    HW1 4352   2.608   1.240   3.679
 1449SOL    HW2 4353   2.462   1.192   3.624
 1450SOL     OW 4354   2.197   1.435   2.923
 1450SOL    HW1 4355   2.119   1.404   2.870
 1450SOL    HW2 4356   2.255   1.493   2.866
 1451SOL     OW 4357   3.322   1.505   3.201
 1451SOL    HW1 4358   3.346   1.599   3.227
 1451SOL    HW2 4359   3.306   1.451   3.283
 1452SOL     OW 4360   2.300   0.392   3.361
 1452SOL    HW1 4361   2.382   0.336   3.370
 1452SOL    HW2 4362   2.219   0.334   3.365
 1453SOL     OW 4363   3.465   0.447   2.599
 1453SOL    HW1 4364   3.391   0.493   2.549
 1453SOL    HW2 4365   3.516   0.515   2.652
 1454SOL     OW 4366   2.093   1.713   2.345
 1454SOL    HW1 4367   2.127   1.790   2.399
 1454SOL    HW2 4368   2.137   1.713   2.255
 1455SOL     OW 4369   2.989   1.341   3.552
 1455SOL    HW1 4370   3.036   1.341   3.640
 1455SOL    HW2 4371   2.941   1.254   3.541
 1456SOL     OW 4372   2.092   1.434   2.400
 1456SOL    HW1 4373   2.066   1.530   2.400
 1456SOL    HW2 4374   2.021   1.380   2.445
 1457SOL     OW 4375   2.102   1.091   2.748
 1457SOL    HW1 4376   2.116   1.007   2.800
 1457SOL    HW2 4377   2.047   1.155   2.803
 1458SOL     OW 4378   2.482   1.786   3.301
 1458SOL    HW1 4379   2.390   1.769   3.336
 1458SOL    HW2 4380   2.510   1.878   3.327
 1459SOL     OW 4381   2.468   0.964   1.985
 1459SOL    HW1 4382   2.475   1.048   1.931
 1459SOL    HW2 4383   2.514   0.977   2.073
 1460SOL     OW 4384   3.456   0.114   3.342
 1460SOL    HW1 4385   3.438   0.181   3.270
 1460SOL    HW2 4386   3.453   0.160   3.431
 1461SOL     OW 4387   1.984   0.643   2.425
 1461SOL    HW1 4388   1.939   0.555   2.442
 1461SOL    HW2 4389   1.983   0.697   2.509
 1462SOL     OW 4390   3.704   1.767   2.221
 1462SOL    HW1 4391   3.758   1.738   2.301
 1462SOL    HW2 4392   3.734   1.857   2.192
 1463SOL     OW 4393   1.889   1.596   1.979
 1463SOL    HW1 4394   1.870   1.500   2.000
 1463SOL    HW2 4395   1.856   1.654   2.054
 1464SOL     OW 4396   3.551   0.922   2.474
 1464SOL    HW1 4397   3.646   0.893   2.482
 1464SOL    HW2 4398   3.543   0.987   2.399
 1465SOL     OW 4399   3.503   1.108   2.294
 1465SOL    HW1 4400   3.589   1.110   2.242
 1465SOL    HW2 4401   3.517   1.155   2.382
 1466SOL     OW 4402   1.975   0.737   3.459
 1466SOL    HW1 4403   2.063   0.724   3.504
 1466SOL    HW2 4404   1.962   0.834   3.437
 1467SOL     OW 4405   2.475   1.365   2.588
 1467SOL    HW1 4406   2.426   1.278   2.597
 1467SOL    HW2 4407   2.452   1.408   2.501
 1468SOL     OW 4408   3.155   1.228   3.285
 1468SOL    HW1 4409   3.192   1.155   3.227
 1468SOL    HW2 4410   3.207   1.233   3.370
 1469SOL     OW 4411   2.671   0.004   2.364
 1469SOL    HW1 4412   2.711   0.095   2.355
 1469SOL    HW2 4413   2.571   0.012   2.370
 1470SOL     OW 4414   2.059   0.976   3.126
 1470SOL    HW1 4415   2.148   0.931   3.112
 1470SOL    HW2 4416   1.986   0.911   3.107
 1471SOL     OW 4417   3.387   0.999   2.052
 1471SOL    HW1 4418   3.324   0.923   2.065
 1471SOL    HW2 4419   3.435   1.017   2.138
 1472SOL     OW 4420   3.049   1.792   3.478
 1472SOL    HW1 4421   3.073   1.852   3.402
 1472SOL    HW2 4422   3.056   1.697   3.448
 1473SOL     OW 4423   2.179   0.251   3.663
 1473SOL    HW1 4424   2.250   0.322   3.669
 1473SOL    HW2 4425   2.091   0.290   3.691
 1474SOL     OW 4426   3.328   1.417   2.815
 1474SOL    HW1 4427   3.269   1.423   2.895
 1474SOL    HW2 4428   3.313   1.329   2.769
 1475SOL     OW 4429   3.529   1.714   2.434
 1475SOL    HW1 4430   3.488   1.691   2.346
 1475SOL    HW2 4431   3.511   1.640   2.499
 1476SOL     OW 4432   2.460   0.729   2.132
 1476SOL    HW1 4433   2.484   0.798   2.064
 1476SOL    HW2 4434   2.382   0.762   2.186
 1477SOL     OW 4435   3.143   0.345   2.806
 1477SOL    HW1 4436   3.057   0.295   2.793
 1477SOL    HW2 4437   3.205   0.291   2.862
 1478SOL     OW 4438   3.438   1.662   2.169
 1478SOL    HW1 4439   3.527   1.708   2.172
 1478SOL    HW2 4440   3.417   1.638   2.074
 1479SOL     OW 4441   2.669   0.605   3.327
 1479SOL    HW1 4442   2.622   0.602   3.416
 1479SOL    HW2 4443   2.618   0.550   3.261
 1480SOL     OW 4444   3.256   0.469   3.536
 1480SOL    HW1 4445   3.236   0.512   3.624
 1480SOL    HW2 4446   3.334   0.407   3.545
 1481SOL     OW 4447   2.835   0.890   3.434
 1481SOL    HW1 4448   2.881   0.806   3.405
 1481SOL    HW2 4449   2.779   0.924   3.359
 1482SOL     OW 4450   2.853   0.410   3.104
 1482SOL    HW1 4451   2.776   0.444   3.158
 1482SOL    HW2 4452   2.819   0.359   3.025
 1483SOL     OW 4453   2.903   0.701   2.291
 1483SOL    HW1 4454   2.929   0.697   2.387
 1483SOL    HW2 4455   2.818   0.650   2.277
 1484SOL     OW 4456   1.938   0.811   2.651
 1484SOL    HW1 4457   2.037   0.799   2.660
 1484SOL    HW2 4458   1.914   0.906   2.672
 1485SOL     OW 4459   1.992   1.821   3.433
 1485SOL    HW1 4460   1.982   1.806   3.532
 1485SOL    HW2 4461   1.906   1.857   3.397
 1486SOL     OW 4462   2.727   0.348   2.057
 1486SOL    HW1 4463   2.786   0.411   2.008
 1486SOL    HW2 4464   2.746   0.254   2.028
 1487SOL     OW 4465   3.581   0.585   3.693
 1487SOL    HW1 4466   3.555   0.674   3.657
 1487SOL    HW2 4467   3.579   0.517   3.620
 1488SOL     OW 4468   3.224   1.144   2.407
 1488SOL    HW1 4469   3.307   1.115   2.359
 1488SOL    HW2 4470   3.175   1.211   2.351
 1489SOL     OW 4471   2.412   0.196   2.747
 1489SOL    HW1 4472   2.407   0.191   2.847
 1489SOL    HW2 4473   2.414   0.292   2.718
 1490SOL     OW 4474   2.870   1.456   2.339
 1490SOL    HW1 4475   2.824   1.528   2.287
 1490SOL    HW2 4476   2.866   1.476   2.437
 1491SOL     OW 4477   2.213   1.801   2.715
 1491SOL    HW1 4478   2.263   1.715   2.721
 1491SOL    HW2 4479   2.278   1.878   2.712
 1492SOL     OW 4480   3.657   1.066   2.735
 1492SOL    HW1 4481   3.595   1.051   2.659
 1492SOL    HW2 4482   3.605   1.077   2.820
 1493SOL     OW 4483   3.089   1.550   3.368
 1493SOL    HW1 4484   3.095   1.473   3.432
 1493SOL    HW2 4485   3.037   1.524   3.288
 1494SOL     OW 4486   2.183   0.943   2.104
 1494SOL    HW1 4487   2.265   0.982   2.062
 1494SOL    HW2 4488   2.156   0.861   2.055
 1495SOL     OW 4489   3.320   0.735   2.590
 1495SOL    HW1 4490   3.315   0.670   2.665
 1495SOL    HW2 4491   3.400   0.794   2.603
 1496SOL     OW 4492   2.323   1.266   3.589
 1496SOL    HW1 4493   2.273   1.267   3.503
 1496SOL    HW2 4494   2.260   1.248   3.665
 1497SOL     OW 4495   2.973   1.776   2.099
 1497SOL    HW1 4496   2.913   1.714   2.149
 1497SOL    HW2 4497   3.004   1.732   2.014
 1498SOL     OW 4498   2.064   0.285   3.360
 1498SOL    HW1 4499   1.984   0.345   3.347
 1498SOL    HW2 4500   2.054   0.236   3.446
 1499SOL     OW 4501   3.494   1.377   1.943
 1499SOL    HW1 4502   3.462   1.471   1.933
 1499SOL    HW2 4503   3.418   1.314   1.931
 1500SOL     OW 4504   2.326   1.743   2.185
 1500SOL    HW1 4505   2.359   1.782   2.271
 1500SOL    HW2 4506   2.402   1.736   2.120
 1501SOL     OW 4507   3.262   0.107   2.288
 1501SOL    HW1 4508   3.238   0.070   2.198
 1501SOL    HW2 4509   3.361   0.123   2.292
 1502SOL     OW 4510   2.111   1.785   3.103
 1502SOL    HW1 4511   2.168   1.720   3.153
 1502SOL    HW2 4512   2.095   1.752   3.010
 1503SOL     OW 4513   2.802   1.698   2.766
 1503SOL    HW1 4514   2.882   1.641   2.787
 1503SOL    HW2 4515   2.753   1.658   2.689
 1504SOL     OW 4516   2.244   0.700   2.342
 1504SOL    HW1 4517   2.289   0.610   2.339
 1504SOL    HW2 4518   2.150   0.689   2.375
 1505SOL     OW 4519   3.409   0.222   3.591
 1505SOL    HW1 4520   3.404   0.259   3.683
 1505SOL    HW2 4521   3.337   0.153   3.579
 1506SOL     OW 4522   2.476   0.122   1.979
 1506SOL    HW1 4523   2.574   0.100   1.986
 1506SOL    HW2 4524   2.445   0.105   1.886
 1507SOL     OW 4525   2.643   0.264   3.611
 1507SOL    HW1 4526   2.710   0.203   3.654
 1507SOL    HW2 4527   2.570   0.283   3.676
 1508SOL     OW 4528   2.750   1.514   3.057
 1508SOL    HW1 4529   2.727   1.489   2.963
 1508SOL    HW2 4530   2.811   1.445   3.096
 1509SOL     OW 4531   3.213   0.590   3.295
 1509SOL    HW1 4532   3.241   0.547   3.380
 1509SOL    HW2 4533   3.238   0.686   3.296
 1510SOL     OW 4534   2.665   1.402   2.786
 1510SOL    HW1 4535   2.755   1.416   2.744
 1510SOL    HW2 4536   2.594   1.404   2.715
 1511SOL     OW 4537   2.784   0.503   2.761
 1511SOL    HW1 4538   2.759   0.494   2.665
 1511SOL    HW2 4539   2.832   0.421   2.792
 1512SOL     OW 4540   2.401   0.064   2.374
 1512SOL    HW1 4541   2.320   0.065   2.432
 1512SOL    HW2 4542   2.404   0.147   2.319
 1513SOL     OW 4543   3.296   1.188   1.903
 1513SOL    HW1 4544   3.328   1.112   1.960
 1513SOL    HW2 4545   3.204   1.215   1.933
 1514SOL     OW 4546   2.159   0.035   2.033
 1514SOL    HW1 4547   2.208   0.119   2.012
 1514SOL    HW2 4548   2.221  -0.030   2.078
 1515SOL     OW 4549   2.797   0.236   2.342
 1515SOL    HW1 4550   2.749   0.277   2.264
 1515SOL    HW2 4551   2.896   0.234   2.323
 1516SOL     OW 4552   2.938   0.683   3.326
 1516SOL    HW1 4553   2.858   0.622   3.329
 1516SOL    HW2 4554   3.019   0.630   3.302
 1517SOL     OW 4555   3.089   1.570   2.655
 1517SOL    HW1 4556   3.110   1.644   2.590
 1517SOL    HW2 4557   3.157   1.570   2.728
 1518SOL     OW 4558   2.321   1.152   2.603
 1518SOL    HW1 4559   2.250   1.125   2.668
 1518SOL    HW2 4560   2.295   1.124   2.510
 1519SOL     OW 4561   3.133   1.797   2.453
 1519SOL    HW1 4562   3.177   1.861   2.389
 1519SOL    HW2 4563   3.083   1.849   2.523
 1520SOL     OW 4564   2.894   0.549   1.878
 1520SOL    HW1 4565   2.853   0.631   1.839
 1520SOL    HW2 4566   2.958   0.575   1.951
 1521SOL     OW 4567   1.940   0.556   3.248
 1521SOL    HW1 4568   2.032   0.555   3.207
 1521SOL    HW2 4569   1.934   0.630   3.315
 1522SOL     OW 4570   2.423   0.222   3.009
 1522SOL    HW1 4571   2.461   0.138   3.046
 1522SOL    HW2 4572   2.335   0.241   3.053
 1523SOL     OW 4573   2.728   0.454   2.504
 1523SOL    HW1 4574   2.696   0.526   2.442
 1523SOL    HW2 4575   2.752   0.373   2.451
 1524SOL     OW 4576   2.879   0.039   2.615
 1524SOL    HW1 4577   2.807   0.044   2.546
 1524SOL    HW2 4578   2.855  -0.030   2.684
 1525SOL     OW 4579   3.291   1.173   2.729
 1525SOL    HW1 4580   3.236   1.089   2.722
 1525SOL    HW2 4581   3.317   1.202   2.637
 1526SOL     OW 4582   3.328   0.590   2.854
 1526SOL    HW1 4583   3.298   0.495   2.861
 1526SOL    HW2 4584   3.401   0.606   2.920
 1527SOL     OW 4585   3.719   0.833   2.239
 1527SOL    HW1 4586   3.761   0.769   2.303
 1527SOL    HW2 4587   3.681   0.782   2.161
 1528SOL     OW 4588   2.350   1.385   2.036
 1528SOL    HW1 4589   2.263   1.370   2.083
 1528SOL    HW2 4590   2.333   1.411   1.941
 1529SOL     OW 4591   3.526   1.280   2.519
 1529SOL    HW1 4592   3.625   1.288   2.533
 1529SOL    HW2 4593   3.481   1.364   2.550
 1530SOL     OW 4594   3.252   0.575   1.940
 1530SOL    HW1 4595   3.198   0.554   2.021
 1530SOL    HW2 4596   3.343   0.534   1.949
 1531SOL     OW 4597   2.389   0.256   2.190
 1531SOL    HW1 4598   2.416   0.197   2.115
 1531SOL    HW2 4599   2.389   0.351   2.159
 1532SOL     OW 4600   3.616   1.223   3.450
 1532SOL    HW1 4601   3.707   1.184   3.437
 1532SOL    HW2 4602   3.624   1.319   3.474
 1533SOL     OW 4603   2.926   1.347   3.202
 1533SOL    HW1 4604   2.846   1.324   3.257
 1533SOL    HW2 4605   3.009   1.321   3.251
 1534SOL     OW 4606   3.454   1.629   3.487
 1534SOL    HW1 4607   3.481   1.663   3.397
 1534SOL    HW2 4608   3.533   1.591   3.533
 1535SOL     OW 4609   2.973   1.195   2.962
 1535SOL    HW1 4610   2.933   1.239   3.043
 1535SOL    HW2 4611   2.932   1.232   2.879
 1536SOL     OW 4612   3.500   1.099   2.941
 1536SOL    HW1 4613   3.505   1.180   3.000
 1536SOL    HW2 4614   3.414   1.101   2.890
 1537SOL     OW 4615   2.777   0.089   3.264
 1537SOL    HW1 4616   2.802   0.069   3.169
 1537SOL    HW2 4617   2.849   0.145   3.306
 1538SOL     OW 4618   2.842   1.116   3.581
 1538SOL    HW1 4619   2.743   1.122   3.591
 1538SOL    HW2 4620   2.865   1.036   3.525
 1539SOL     OW 4621   2.567   1.050   2.230
 1539SOL    HW1 4622   2.553   1.057   2.329
 1539SOL    HW2 4623   2.651   0.999   2.212
 1540SOL     OW 4624   2.272   0.813   3.113
 1540SOL    HW1 4625   2.358   0.825   3.163
 1540SOL    HW2 4626   2.230   0.726   3.140
 1541SOL     OW 4627   3.136   0.386   3.124
 1541SOL    HW1 4628   3.157   0.460   3.188
 1541SOL    HW2 4629   3.047   0.403   3.081
 1542SOL     OW 4630   1.926   1.564   3.193
 1542SOL    HW1 4631   1.880   1.646   3.159
 1542SOL    HW2 4632   2.024   1.583   3.202
 1543SOL     OW 4633   2.229   1.100   2.363
 1543SOL    HW1 4634   2.222   1.183   2.307
 1543SOL    HW2 4635   2.233   1.020   2.303
 1544SOL     OW 4636   2.428   0.537   2.727
 1544SOL    HW1 4637   2.440   0.603   2.653
 1544SOL    HW2 4638   2.474   0.571   2.810
 1545SOL     OW 4639   3.114   1.348   2.250
 1545SOL    HW1 4640   3.164   1.425   2.290
 1545SOL    HW2 4641   3.019   1.350   2.282
 1546SOL     OW 4642   3.134   1.445   3.004
 1546SOL    HW1 4643   3.181   1.458   3.091
 1546SOL    HW2 4644   3.068   1.371   3.013
 1547SOL     OW 4645   3.444   0.639   2.334
 1547SOL    HW1 4646   3.413   0.700   2.407
 1547SOL    HW2 4647   3.494   0.691   2.265
 1548SOL     OW 4648   2.216   1.510   3.191
 1548SOL    HW1 4649   2.195   1.466   3.104
 1548SOL    HW2 4650   2.313   1.536   3.194
 1549SOL     OW 4651   2.264   0.751   3.460
 1549SOL    HW1 4652   2.332   0.806   3.413
 1549SOL    HW2 4653   2.304   0.663   3.487
 1550SOL     OW 4654   3.449   0.779   3.532
 1550SOL    HW1 4655   3.357   0.817   3.527
 1550SOL    HW2 4656   3.509   0.826   3.467
 1551SOL     OW 4657   2.875   0.105   3.632
 1551SOL    HW1 4658   2.881   0.190   3.580
 1551SOL    HW2 4659   2.907   0.029   3.575
 1552SOL     OW 4660   2.366   0.050   3.602
 1552SOL    HW1 4661   2.324  -0.007   3.532
 1552SOL    HW2 4662   2.300   0.119   3.634
 1553SOL     OW 4663   2.435   0.870   2.891
 1553SOL    HW1 4664   2.479   0.959   2.882
 1553SOL    HW2 4665   2.372   0.870   2.968
 1554SOL     OW 4666   3.222   0.862   2.907
 1554SOL    HW1 4667   3.147   0.862   2.841
 1554SOL    HW2 4668   3.259   0.770   2.916
 1555SOL     OW 4669   3.071   0.525   2.137
 1555SOL    HW1 4670   3.084   0.441   2.191
 1555SOL    HW2 4671   3.042   0.599   2.197
 1556SOL     OW 4672   2.169   0.213   3.093
 1556SOL    HW1 4673   2.146   0.250   3.183
 1556SOL    HW2 4674   2.139   0.118   3.087
 1557SOL     OW 4675   1.899   1.310   3.144
 1557SOL    HW1 4676   1.952   1.261   3.212
 1557SOL    HW2 4677   1.921   1.408   3.149
 1558SOL     OW 4678   2.594   0.634   2.926
 1558SOL    HW1 4679   2.653   0.608   2.850
 1558SOL    HW2 4680   2.566   0.730   2.915
 1559SOL     OW 4681   3.590   0.935   3.716
 1559SOL    HW1 4682   3.544   0.928   3.627
 1559SOL    HW2 4683   3.528   0.979   3.782
 1560SOL     OW 4684   2.169   0.063   2.480
 1560SOL    HW1 4685   2.158   0.157   2.513
 1560SOL    HW2 4686   2.164   0.000   2.557
 1561SOL     OW 4687   3.484   0.367   2.236
 1561SOL    HW1 4688   3.486   0.291   2.300
 1561SOL    HW2 4689   3.436   0.444   2.276
 1562SOL     OW 4690   2.885   0.766   2.828
 1562SOL    HW1 4691   2.900   0.787   2.924
 1562SOL    HW2 4692   2.855   0.671   2.819
 1563SOL     OW 4693   2.842   1.573   3.562
 1563SOL    HW1 4694   2.822   1.617   3.474
 1563SOL    HW2 4695   2.881   1.482   3.546
 1564SOL     OW 4696   3.721   1.518   3.467
 1564SOL    HW1 4697   3.735   1.545   3.372
 1564SOL    HW2 4698   3.804   1.540   3.520
 1565SOL     OW 4699   2.212   0.898   3.666
 1565SOL    HW1 4700   2.288   0.942   3.714
 1565SOL    HW2 4701   2.247   0.851   3.584
 1566SOL     OW 4702   3.402   0.274   1.987
 1566SOL    HW1 4703   3.341   0.199   2.010
 1566SOL    HW2 4704   3.424   0.326   2.070
 1567SOL     OW 4705   3.165   0.838   1.904
 1567SOL    HW1 4706   3.199   0.745   1.919
 1567SOL    HW2 4707   3.183   0.865   1.809
 1568SOL     OW 4708   2.930   1.333   2.711
 1568SOL    HW1 4709   2.937   1.249   2.656
 1568SOL    HW2 4710   2.992   1.402   2.675
 1569SOL     OW 4711   2.181   0.810   2.811
 1569SOL    HW1 4712   2.274   0.846   2.816
 1569SOL    HW2 4713   2.175   0.725   2.863
 1570SOL     OW 4714   2.201   0.509   2.868
 1570SOL    HW1 4715   2.149   0.426   2.851
 1570SOL    HW2 4716   2.278   0.514   2.804
 1571SOL     OW 4717   3.000   0.380   3.540
 1571SOL    HW1 4718   2.955   0.443   3.604
 1571SOL    HW2 4719   3.093   0.411   3.523
 1572SOL     OW 4720   3.022   0.207   3.339
 1572SOL    HW1 4721   3.022   0.271   3.416
 1572SOL    HW2 4722   3.050   0.255   3.256
 1573SOL     OW 4723   1.870   1.326   2.062
 1573SOL    HW1 4724   1.777   1.347   2.031
 1573SOL    HW2 4725   1.880   1.227   2.075
 1574SOL     OW 4726   1.950   1.801   2.789
 1574SOL    HW1 4727   1.908   1.715   2.762
 1574SOL    HW2 4728   2.044   1.804   2.755
 1575SOL     OW 4729   2.366   1.568   2.772
 1575SOL    HW1 4730   2.432   1.642   2.781
 1575SOL    HW2 4731   2.410   1.489   2.730
 1576SOL     OW 4732   2.864   0.796   3.100
 1576SOL    HW1 4733   2.905   0.764   3.186
 1576SOL    HW2 4734   2.768   0.769   3.097
 1577SOL     OW 4735   1.902   0.544   2.976
 1577SOL    HW1 4736   1.987   0.511   2.935
 1577SOL    HW2 4737   1.915   0.559   3.074
 1578SOL     OW 4738   2.051   0.520   3.584
 1578SOL    HW1 4739   2.110   0.480   3.514
 1578SOL    HW2 4740   1.993   0.591   3.543
 1579SOL     OW 4741   3.231   0.950   3.522
 1579SOL    HW1 4742   3.270   1.039   3.542
 1579SOL    HW2 4743   3.241   0.930   3.425
 1580SOL     OW 4744   2.677   0.572   2.187
 1580SOL    HW1 4745   2.684   0.483   2.141
 1580SOL    HW2 4746   2.583   0.606   2.179
 1581SOL     OW 4747   3.519   0.604   3.068
 1581SOL    HW1 4748   3.481   0.535   3.130
 1581SOL    HW2 4749   3.601   0.568   3.024
 1582SOL     OW 4750   2.114   1.564   3.606
 1582SOL    HW1 4751   2.084   1.621   3.682
 1582SOL    HW2 4752   2.107   1.467   3.632
 1583SOL     OW 4753   2.533   0.464   3.131
 1583SOL    HW1 4754   2.499   0.375   3.101
 1583SOL    HW2 4755   2.559   0.518   3.051
 1584SOL     OW 4756   2.792   1.678   3.327
 1584SOL    HW1 4757   2.768   1.660   3.232
 1584SOL    HW2 4758   2.822   1.772   3.337
 1585SOL     OW 4759   2.335   0.500   2.053
 1585SOL    HW1 4760   2.396   0.580   2.057
 1585SOL    HW2 4761   2.240   0.531   2.060
 1586SOL     OW 4762   2.021   1.137   3.328
 1586SOL    HW1 4763   2.043   1.076   3.404
 1586SOL    HW2 4764   2.031   1.088   3.242
 1587SOL     OW 4765   3.209   1.059   3.096
 1587SOL    HW1 4766   3.233   0.996   3.022
 1587SOL    HW2 4767   3.119   1.099   3.078
 1588SOL     OW 4768   3.164   0.855   2.171
 1588SOL    HW1 4769   3.078   0.824   2.213
 1588SOL    HW2 4770   3.160   0.841   2.072
 1589SOL     OW 4771   3.621   1.747   3.016
 1589SOL    HW1 4772   3.682   1.777   2.943
 1589SOL    HW2 4773   3.583   1.658   2.994
 1590SOL     OW 4774   3.114   1.731   2.990
 1590SOL    HW1 4775   3.198   1.736   2.936
 1590SOL    HW2 4776   3.091   1.635   3.008
 1591SOL     OW 4777   1.945   1.258   2.884
 1591SOL    HW1 4778   1.940   1.257   2.984
 1591SOL    HW2 4779   1.862   1.217   2.846
 1592SOL     OW 4780   2.550   1.662   3.578
 1592SOL    HW1 4781   2.494   1.743   3.587
 1592SOL    HW2 4782   2.602   1.666   3.492
 1593SOL     OW 4783   3.588   0.135   2.385
 1593SOL    HW1 4784   3.661   0.118   2.318
 1593SOL    HW2 4785   3.557   0.048   2.423
 1594SOL     OW 4786   3.250   1.573   2.339
 1594SOL    HW1 4787   3.317   1.585   2.265
 1594SOL    HW2 4788   3.210   1.662   2.362
 1595SOL     OW 4789   1.992   1.794   3.713
 1595SOL    HW1 4790   1.951   1.720   3.766
 1595SOL    HW2 4791   2.056   1.845   3.771
 1596SOL     OW 4792   3.142   0.927   2.534
 1596SOL    HW1 4793   3.202   0.846   2.536
 1596SOL    HW2 4794   3.182   0.996   2.474
 1597SOL     OW 4795   2.692   1.273   3.284
 1597SOL    HW1 4796   2.687   1.306   3.379
 1597SOL    HW2 4797   2.606   1.292   3.238
 1598SOL     OW 4798   2.534   1.616   2.016
 1598SOL    HW1 4799   2.543   1.626   1.917
 1598SOL    HW2 4800   2.494   1.527   2.037
 1599SOL     OW 4801   3.512   1.720   3.256
 1599SOL    HW1 4802   3.565   1.730   3.172
 1599SOL    HW2 4803   3.485   1.810   3.290
 1600SOL     OW 4804   3.703   0.175   2.825
 1600SOL    HW1 4805   3.742   0.090   2.789
 1600SOL    HW2 4806   3.605   0.177   2.806
 1601SOL     OW 4807   2.125   0.326   2.582
 1601SOL    HW1 4808   2.046   0.377   2.548
 1601SOL    HW2 4809   2.116   0.311   2.680
 1602SOL     OW 4810   3.056   1.612   1.893
 1602SOL    HW1 4811   3.062   1.519   1.930
 1602SOL    HW2 4812   2.997   1.612   1.813
 1603SOL     OW 4813   2.684   1.002   3.234
 1603SOL    HW1 4814   2.724   1.001   3.142
 1603SOL    HW2 4815   2.694   1.094   3.274
 1604SOL     OW 4816   2.778   0.910   2.153
 1604SOL    HW1 4817   2.841   0.948   2.085
 1604SOL    HW2 4818   2.818   0.827   2.192
 1605SOL     OW 4819   3.366   1.607   1.906
 1605SOL    HW1 4820   3.274   1.644   1.913
 1605SOL    HW2 4821   3.404   1.627   1.816
 1606SOL     OW 4822   2.234   1.288   3.352
 1606SOL    HW1 4823   2.221   1.381   3.318
 1606SOL    HW2 4824   2.150   1.236   3.339
 1607SOL     OW 4825   3.476   1.292   3.151
 1607SOL    HW1 4826   3.536   1.295   3.231
 1607SOL    HW2 4827   3.401   1.356   3.164
 1608SOL     OW 4828   2.901   1.098   2.558
 1608SOL    HW1 4829   2.831   1.051   2.612
 1608SOL    HW2 4830   2.960   1.030   2.515
 1609SOL     OW 4831   2.876   0.236   2.833
 1609SOL    HW1 4832   2.868   0.200   2.740
 1609SOL    HW2 4833   2.874   0.160   2.898
 1610SOL     OW 4834   2.452   1.487   2.353
 1610SOL    HW1 4835   2.494   1.429   2.283
 1610SOL    HW2 4836   2.408   1.566   2.309
 1611SOL     OW 4837   3.571   0.385   3.243
 1611SOL    HW1 4838   3.644   0.454   3.247
 1611SOL    HW2 4839   3.599   0.310   3.184
 1612SOL     OW 4840   2.117   1.348   2.152
 1612SOL    HW1 4841   2.021   1.349   2.125
 1612SOL    HW2 4842   2.129   1.401   2.236
 1613SOL     OW 4843   1.967   1.013   3.588
 1613SOL    HW1 4844   1.890   0.980   3.642
 1613SOL    HW2 4845   2.052   0.983   3.630
 1614SOL     OW 4846   2.534   0.203   3.351
 1614SOL    HW1 4847   2.624   0.187   3.311
 1614SOL    HW2 4848   2.542   0.208   3.450
 1615SOL     OW 4849   1.937   0.345   1.895
 1615SOL    HW1 4850   1.845   0.317   1.866
 1615SOL    HW2 4851   1.968   0.422   1.839
 1616SOL     OW 4852   3.302   0.856   3.260
 1616SOL    HW1 4853   3.245   0.908   3.197
 1616SOL    HW2 4854   3.398   0.868   3.236
 1617SOL     OW 4855   1.934   0.166   2.180
 1617SOL    HW1 4856   1.917   0.249   2.126
 1617SOL    HW2 4857   2.024   0.129   2.158
 1618SOL     OW 4858   3.045   1.335   1.981
 1618SOL    HW1 4859   2.946   1.324   1.983
 1618SOL    HW2 4860   3.079   1.350   2.074
 1619SOL     OW 4861   2.475   0.842   3.293
 1619SOL    HW1 4862   2.531   0.923   3.276
 1619SOL    HW2 4863   2.534   0.762   3.296
 1620SOL     OW 4864   3.355   1.767   2.821
 1620SOL    HW1 4865   3.388   1.831   2.752
 1620SOL    HW2 4866   3.421   1.761   2.896
 1621SOL     OW 4867   2.578   0.565   3.570
 1621SOL    HW1 4868   2.597   0.630   3.644
 1621SOL    HW2 4869   2.638   0.485   3.579
 1622SOL     OW 4870   3.312   1.220   3.495
 1622SOL    HW1 4871   3.303   1.210   3.594
 1622SOL    HW2 4872   3.408   1.213   3.469
 1623SOL     OW 4873   2.252   1.741   3.422
 1623SOL    HW1 4874   2.161   1.782   3.420
 1623SOL    HW2 4875   2.245   1.647   3.454
 1624SOL     OW 4876   3.536   0.883   3.116
 1624SOL    HW1 4877   3.509   0.794   3.079
 1624SOL    HW2 4878   3.537   0.951   3.043
 1625SOL     OW 4879   3.087   0.325   2.311
 1625SOL    HW1 4880   3.152   0.251   2.300
 1625SOL    HW2 4881   3.107   0.375   2.395
 1626SOL     OW 4882   2.456   0.745   2.514
 1626SOL    HW1 4883   2.506   0.830   2.495
 1626SOL    HW2 4884   2.368   0.747   2.466
 1627SOL     OW 4885   3.639   0.342   3.504
 1627SOL    HW1 4886   3.622   0.373   3.410
 1627SOL    HW2 4887   3.555   0.305   3.542
 1628SOL     OW 4888   3.592   0.934   3.379
 1628SOL    HW1 4889   3.630   1.025   3.394
 1628SOL    HW2 4890   3.584   0.917   3.280
 1629SOL     OW 4891   2.721   1.374   1.878
 1629SOL    HW1 4892   2.675   1.389   1.966
 1629SOL    HW2 4893   2.765   1.459   1.848
 1630SOL     OW 4894   2.523   1.790   2.815
 1630SOL    HW1 4895   2.477   1.878   2.802
 1630SOL    HW2 4896   2.622   1.802   2.808
 1631SOL     OW 4897   2.721   0.956   2.723
 1631SOL    HW1 4898   2.775   0.887   2.771
 1631SOL    HW2 4899   2.689   1.025   2.789
 1632SOL     OW 4900   2.945   0.984   1.949
 1632SOL    HW1 4901   2.922   1.037   1.867
 1632SOL    HW2 4902   3.026   0.928   1.930
 1633SOL     OW 4903   3.723   1.569   2.713
 1633SOL    HW1 4904   3.652   1.557   2.643
 1633SOL    HW2 4905   3.724   1.490   2.773
 1634SOL     OW 4906   2.083   1.314   3.706
 1634SOL    HW1 4907   2.018   1.241   3.685
 1634SOL    HW2 4908   2.087   1.328   3.804
 1635SOL     OW 4909   1.941   1.240   2.515
 1635SOL    HW1 4910   1.940   1.193   2.603
 1635SOL    HW2 4911   2.023   1.212   2.464
 1636SOL     OW 4912   2.534   1.391   3.486
 1636SOL    HW1 4913   2.456   1.341   3.524
 1636SOL    HW2 4914   2.531   1.486   3.517
 1637SOL     OW 4915   3.686   0.192   3.089
 1637SOL    HW1 4916   3.682   0.102   3.133
 1637SOL    HW2 4917   3.689   0.181   2.990
 1638SOL     OW 4918   2.290   0.424   2.382
 1638SOL    HW1 4919   2.320   0.352   2.320
 1638SOL    HW2 4920   2.251   0.384   2.465
 1639SOL     OW 4921   3.567   1.487   2.966
 1639SOL    HW1 4922   3.474   1.462   2.939
 1639SOL    HW2 4923   3.593   1.437   3.048
 1640SOL     OW 4924   2.179   0.547   3.142
 1640SOL    HW1 4925   2.217   0.488   3.214
 1640SOL    HW2 4926   2.219   0.521   3.054
 1641SOL     OW 4927   2.674   1.586   2.549
 1641SOL    HW1 4928   2.706   1.596   2.455
 1641SOL    HW2 4929   2.595   1.524   2.551
 1642SOL     OW 4930   3.286   0.214   2.974
 1642SOL    HW1 4931   3.338   0.149   3.029
 1642SOL    HW2 4932   3.237   0.277   3.035
 1643SOL     OW 4933   2.863   0.034   3.016
 1643SOL    HW1 4934   2.800  -0.038   2.985
 1643SOL    HW2 4935   2.956  -0.002   3.016
 1644SOL     OW 4936   2.632   1.330   2.163
 1644SOL    HW1 4937   2.586   1.243   2.180
 1644SOL    HW2 4938   2.723   1.327   2.204
 1645SOL     OW 4939   2.480   1.567   3.146
 1645SOL    HW1 4940   2.475   1.649   3.203
 1645SOL    HW2 4941   2.569   1.564   3.101
 1646SOL     OW 4942   3.214   0.052   2.030
 1646SOL    HW1 4943   3.249   0.011   1.946
 1646SOL    HW2 4944   3.124   0.014   2.050
 1647SOL     OW 4945   3.162   0.453   2.553
 1647SOL    HW1 4946   3.103   0.533   2.557
 1647SOL    HW2 4947   3.177   0.418   2.646
 1648SOL     OW 4948   3.455   0.221   2.744
 1648SOL    HW1 4949   3.371   0.220   2.798
 1648SOL    HW2 4950   3.457   0.304   2.688
 1649SOL     OW 4951   1.901   1.077   2.162
 1649SOL    HW1 4952   2.000   1.066   2.153
 1649SOL    HW2 4953   1.861   0.991   2.194
 1650SOL     OW 4954   2.737   1.646   2.199
 1650SOL    HW1 4955   2.660   1.611   2.145
 1650SOL    HW2 4956   2.705   1.717   2.261
 1651SOL     OW 4957   2.092   0.628   3.837
 1651SOL    HW1 4958   1.999   0.626   3.874
 1651SOL    HW2 4959   2.093   0.589   3.745
 1652SOL     OW 4960   2.087   0.275   4.720
 1652SOL    HW1 4961   2.122   0.258   4.812
 1652SOL    HW2 4962   1.999   0.230   4.708
 1653SOL     OW 4963   2.997   0.703   4.441
 1653SOL    HW1 4964   3.054   0.781   4.416
 1653SOL    HW2 4965   2.937   0.729   4.517
 1654SOL     OW 4966   3.617   0.607   3.955
 1654SOL    HW1 4967   3.605   0.594   3.856
 1654SOL    HW2 4968   3.587   0.526   4.004
 1655SOL     OW 4969   3.465   0.447   4.461
 1655SOL    HW1 4970   3.391   0.493   4.411
 1655SOL    HW2 4971   3.516   0.515   4.514
 1656SOL     OW 4972   2.093   1.713   4.207
 1656SOL    HW1 4973   2.127   1.790   4.261
 1656SOL    HW2 4974   2.137   1.713   4.117
 1657SOL     OW 4975   2.092   1.434   4.262
 1657SOL    HW1 4976   2.066   1.530   4.262
 1657SOL    HW2 4977   2.021   1.380   4.307
 1658SOL     OW 4978   2.468   0.964   3.847
 1658SOL    HW1 4979   2.475   1.048   3.793
 1658SOL    HW2 4980   2.514   0.977   3.935
 1659SOL     OW 4981   1.984   0.643   4.287
 1659SOL    HW1 4982   1.939   0.555   4.304
 1659SOL    HW2 4983   1.983   0.697   4.371
 1660SOL     OW 4984   3.704   1.767   4.083
 1660SOL    HW1 4985   3.758   1.738   4.163
 1660SOL    HW2 4986   3.734   1.857   4.054
 1661SOL     OW 4987   1.889   1.596   3.841
 1661SOL    HW1 4988   1.870   1.500   3.862
 1661SOL    HW2 4989   1.856   1.654   3.916
 1662SOL     OW 4990   3.551   0.922   4.336
 1662SOL    HW1 4991   3.646   0.893   4.344
 1662SOL    HW2 4992   3.543   0.987   4.261
 1663SOL     OW 4993   3.503   1.108   4.156
 1663SOL    HW1 4994   3.589   1.110   4.104
 1663SOL    HW2 4995   3.517   1.155   4.244
 1664SOL     OW 4996   2.475   1.365   4.450
 1664SOL    HW1 4997   2.426   1.278   4.459
 1664SOL    HW2 4998   2.452   1.408   4.363
 1665SOL     OW 4999   2.671   0.004   4.226
 1665SOL    HW1 5000   2.711   0.095   4.217
 1665SOL    HW2 5001   2.571   0.012   4.232
 1666SOL     OW 5002   3.387   0.999   3.914
 1666SOL    HW1 5003   3.324   0.923   3.927
 1666SOL    HW2 5004   3.435   1.017   4.000
 1667SOL     OW 5005   3.328   1.417   4.677
 1667SOL    HW1 5006   3.269   1.423   4.757
 1667SOL    HW2 5007   3.313   1.329   4.631
 1668SOL     OW 5008   2.460   0.729   3.994
 1668SOL    HW1 5009   2.484   0.798   3.926
 1668SOL    HW2 5010   2.382   0.762   4.048
 1669SOL     OW 5011   3.143   0.345   4.668
 1669SOL    HW1 5012   3.057   0.295   4.655
 1669SOL    HW2 5013   3.205   0.291   4.724
 1670SOL     OW 5014   3.438   1.662   4.031
 1670SOL    HW1 5015   3.527   1.708   4.034
 1670SOL    HW2 5016   3.417   1.638   3.936
 1671SOL     OW 5017   2.903   0.701   4.153
 1671SOL    HW1 5018   2.929   0.697   4.249
 1671SOL    HW2 5019   2.818   0.650   4.139
 1672SOL     OW 5020   1.938   0.811   4.513
 1672SOL    HW1 5021   2.037   0.799   4.522
 1672SOL    HW2 5022   1.914   0.906   4.534
 1673SOL     OW 5023   2.727   0.348   3.919
 1673SOL    HW1 5024   2.786   0.411   3.870
 1673SOL    HW2 5025   2.746   0.254   3.890
 1674SOL     OW 5026   3.224   1.144   4.269
 1674SOL    HW1 5027   3.307   1.115   4.221
 1674SOL    HW2 5028   3.175   1.211   4.213
 1675SOL     OW 5029   2.870   1.456   4.201
 1675SOL    HW1 5030   2.824   1.528   4.149
 1675SOL    HW2 5031   2.866   1.476   4.299
 1676SOL     OW 5032   2.213   1.801   4.577
 1676SOL    HW1 5033   2.263   1.715   4.583
 1676SOL    HW2 5034   2.278   1.878   4.574
 1677SOL     OW 5035   3.657   1.066   4.597
 1677SOL    HW1 5036   3.595   1.051   4.521
 1677SOL    HW2 5037   3.605   1.077   4.682
 1678SOL     OW 5038   2.183   0.943   3.966
 1678SOL    HW1 5039   2.265   0.982   3.924
 1678SOL    HW2 5040   2.156   0.861   3.917
 1679SOL     OW 5041   2.973   1.776   3.961
 1679SOL    HW1 5042   2.913   1.714   4.011
 1679SOL    HW2 5043   3.004   1.732   3.876
 1680SOL     OW 5044   3.494   1.377   3.805
 1680SOL    HW1 5045   3.462   1.471   3.795
 1680SOL    HW2 5046   3.418   1.314   3.793
 1681SOL     OW 5047   2.326   1.743   4.047
 1681SOL    HW1 5048   2.359   1.782   4.133
 1681SOL    HW2 5049   2.402   1.736   3.982
 1682SOL     OW 5050   3.262   0.107   4.150
 1682SOL    HW1 5051   3.238   0.070   4.060
 1682SOL    HW2 5052   3.361   0.123   4.154
 1683SOL     OW 5053   2.244   0.700   4.204
 1683SOL    HW1 5054   2.289   0.610   4.201
 1683SOL    HW2 5055   2.150   0.689   4.237
 1684SOL     OW 5056   2.476   0.122   3.841
 1684SOL    HW1 5057   2.574   0.100   3.848
 1684SOL    HW2 5058   2.445   0.105   3.748
 1685SOL     OW 5059   2.401   0.064   4.236
 1685SOL    HW1 5060   2.320   0.065   4.294
 1685SOL    HW2 5061   2.404   0.147   4.181
 1686SOL     OW 5062   3.296   1.188   3.765
 1686SOL    HW1 5063   3.328   1.112   3.822
 1686SOL    HW2 5064   3.204   1.215   3.795
 1687SOL     OW 5065   2.159   0.035   3.895
 1687SOL    HW1 5066   2.208   0.119   3.874
 1687SOL    HW2 5067   2.221  -0.030   3.940
 1688SOL     OW 5068   2.797   0.236   4.204
 1688SOL    HW1 5069   2.749   0.277   4.126
 1688SOL    HW2 5070   2.896   0.234   4.185
 1689SOL     OW 5071   2.321   1.152   4.465
 1689SOL    HW1 5072   2.250   1.125   4.530
 1689SOL    HW2 5073   2.295   1.124   4.372
 1690SOL     OW 5074   3.133   1.797   4.315
 1690SOL    HW1 5075   3.177   1.861   4.251
 1690SOL    HW2 5076   3.083   1.849   4.385
 1691SOL     OW 5077   2.894   0.549   3.740
 1691SOL    HW1 5078   2.853   0.631   3.701
 1691SOL    HW2 5079   2.958   0.575   3.813
 1692SOL     OW 5080   2.728   0.454   4.366
 1692SOL    HW1 5081   2.696   0.526   4.304
 1692SOL    HW2 5082   2.752   0.373   4.313
 1693SOL     OW 5083   3.328   0.590   4.716
 1693SOL    HW1 5084   3.298   0.495   4.723
 1693SOL    HW2 5085   3.401   0.606   4.782
 1694SOL     OW 5086   3.719   0.833   4.101
 1694SOL    HW1 5087   3.761   0.769   4.165
 1694SOL    HW2 5088   3.681   0.782   4.023
 1695SOL     OW 5089   2.350   1.385   3.898
 1695SOL    HW1 5090   2.263   1.370   3.945
 1695SOL    HW2 5091   2.333   1.411   3.803
 1696SOL     OW 5092   3.252   0.575   3.802
 1696SOL    HW1 5093   3.198   0.554   3.883
 1696SOL    HW2 5094   3.343   0.534   3.811
 1697SOL     OW 5095   2.389   0.256   4.052
 1697SOL    HW1 5096   2.416   0.197   3.977
 1697SOL    HW2 5097   2.389   0.351   4.021
 1698SOL     OW 5098   2.567   1.050   4.092
 1698SOL    HW1 5099   2.553   1.057   4.191
 1698SOL    HW2 5100   2.651   0.999   4.074
 1699SOL     OW 5101   2.229   1.100   4.225
 1699SOL    HW1 5102   2.222   1.183   4.169
 1699SOL    HW2 5103   2.233   1.020   4.165
 1700SOL     OW 5104   3.114   1.348   4.112
 1700SOL    HW1 5105   3.164   1.425   4.152
 1700SOL    HW2 5106   3.019   1.350   4.144
 1701SOL     OW 5107   3.444   0.639   4.196
 1701SOL    HW1 5108   3.413   0.700   4.269
 1701SOL    HW2 5109   3.494   0.691   4.127
 1702SOL     OW 5110   3.071   0.525   3.999
 1702SOL    HW1 5111   3.084   0.441   4.053
 1702SOL    HW2 5112   3.042   0.599   4.059
 1703SOL     OW 5113   2.169   0.063   4.342
 1703SOL    HW1 5114   2.158   0.157   4.375
 1703SOL    HW2 5115   2.164   0.000   4.419
 1704SOL     OW 5116   3.484   0.367   4.098
 1704SOL    HW1 5117   3.486   0.291   4.162
 1704SOL    HW2 5118   3.436   0.444   4.138
 1705SOL     OW 5119   3.402   0.274   3.849
 1705SOL    HW1 5120   3.341   0.199   3.872
 1705SOL    HW2 5121   3.424   0.326   3.932
 1706SOL     OW 5122   3.165   0.838   3.766
 1706SOL    HW1 5123   3.199   0.745   3.781
 1706SOL    HW2 5124   3.183   0.865   3.671
 1707SOL     OW 5125   1.870   1.326   3.924
 1707SOL    HW1 5126   1.777   1.347   3.893
 1707SOL    HW2 5127   1.880   1.227   3.937
 1708SOL     OW 5128   2.677   0.572   4.049
 1708SOL    HW1 5129   2.684   0.483   4.003
 1708SOL    HW2 5130   2.583   0.606   4.041
 1709SOL     OW 5131   2.335   0.500   3.915
 1709SOL    HW1 5132   2.396   0.580   3.919
 1709SOL    HW2 5133   2.240   0.531   3.922
 1710SOL     OW 5134   3.164   0.855   4.033
 1710SOL    HW1 5135   3.078   0.824   4.075
 1710SOL    HW2 5136   3.160   0.841   3.934
 1711SOL     OW 5137   3.588   0.135   4.247
 1711SOL    HW1 5138   3.661   0.118   4.180
 1711SOL    HW2 5139   3.557   0.048   4.285
 1712SOL     OW 5140   3.250   1.573   4.201
 1712SOL    HW1 5141   3.317   1.585   4.127
 1712SOL    HW2 5142   3.210   1.662   4.224
 1713SOL     OW 5143   2.534   1.616   3.878
 1713SOL    HW1 5144   2.543   1.626   3.779
 1713SOL    HW2 5145   2.494   1.527   3.899
 1714SOL     OW 5146   3.703   0.175   4.687
 1714SOL    HW1 5147   3.742   0.090   4.651
 1714SOL    HW2 5148   3.605   0.177   4.668
 1715SOL     OW 5149   3.056   1.612   3.755
 1715SOL    HW1 5150   3.062   1.519   3.792
 1715SOL    HW2 5151   2.997   1.612   3.675
 1716SOL     OW 5152   2.778   0.910   4.015
 1716SOL    HW1 5153   2.841   0.948   3.947
 1716SOL    HW2 5154   2.818   0.827   4.054
 1717SOL     OW 5155   3.366   1.607   3.768
 1717SOL    HW1 5156   3.274   1.644   3.775
 1717SOL    HW2 5157   3.404   1.627   3.678
 1718SOL     OW 5158   2.452   1.487   4.215
 1718SOL    HW1 5159   2.494   1.429   4.145
 1718SOL    HW2 5160   2.408   1.566   4.171
 1719SOL     OW 5161   2.117   1.348   4.014
 1719SOL    HW1 5162   2.021   1.349   3.987
 1719SOL    HW2 5163   2.129   1.401   4.098
 1720SOL     OW 5164   1.937   0.345   3.757
 1720SOL    HW1 5165   1.845   0.317   3.728
 1720SOL    HW2 5166   1.968   0.422   3.701
 1721SOL     OW 5167   1.934   0.166   4.042
 1721SOL    HW1 5168   1.917   0.249   3.988
 1721SOL    HW2 5169   2.024   0.129   4.020
 1722SOL     OW 5170   3.045   1.335   3.843
 1722SOL    HW1 5171   2.946   1.324   3.845
 1722SOL    HW2 5172   3.079   1.350   3.936
 1723SOL     OW 5173   3.087   0.325   4.173
 1723SOL    HW1 5174   3.152   0.251   4.162
 1723SOL    HW2 5175   3.107   0.375   4.257
 1724SOL     OW 5176   2.456   0.745   4.376
 1724SOL    HW1 5177   2.506   0.830   4.357
 1724SOL    HW2 5178   2.368   0.747   4.328
 1725SOL     OW 5179   2.721   1.374   3.740
 1725SOL    HW1 5180   2.675   1.389   3.828
 1725SOL    HW2 5181   2.765   1.459   3.710
 1726SOL     OW 5182   2.945   0.984   3.811
 1726SOL    HW1 5183   2.922   1.037   3.729
 1726SOL    HW2 5184   3.026   0.928   3.792
 1727SOL     OW 5185   1.941   1.240   4.377
 1727SOL    HW1 5186   1.940   1.193   4.465
 1727SOL    HW2 5187   2.023   1.212   4.326
 1728SOL     OW 5188   2.290   0.424   4.244
 1728SOL    HW1 5189   2.320   0.352   4.182
 1728SOL    HW2 5190   2.251   0.384   4.327
 1729SOL     OW 5191   2.674   1.586   4.411
 1729SOL    HW1 5192   2.706   1.596   4.317
 1729SOL    HW2 5193   2.595   1.524   4.413
 1730SOL     OW 5194   2.632   1.330   4.025
 1730SOL    HW1 5195   2.586   1.243   4.042
 1730SOL    HW2 5196   2.723   1.327   4.066
 1731SOL     OW 5197   3.214   0.052   3.892
 1731SOL    HW1 5198   3.249   0.011   3.808
 1731SOL    HW2 5199   3.124   0.014   3.912
 1732SOL     OW 5200   3.162   0.453   4.415
 1732SOL    HW1 5201   3.103   0.533   4.419
 1732SOL    HW2 5202   3.177   0.418   4.508
 1733SOL     OW 5203   1.901   1.077   4.024
 1733SOL    HW1 5204   2.000   1.066   4.015
 1733SOL    HW2 5205   1.861   0.991   4.056
 1734SOL     OW 5206   2.737   1.646   4.061
 1734SOL    HW1 5207   2.660   1.611   4.007
 1734SOL    HW2 5208   2.705   1.717   4.123
 1735SOL     OW 5209   2.092   2.490   0.113
 1735SOL    HW1 5210   1.999   2.488   0.150
 1735SOL    HW2 5211   2.093   2.451   0.021
 1736SOL     OW 5212   2.087   2.137   0.996
 1736SOL    HW1 5213   2.122   2.120   1.088
 1736SOL    HW2 5214   1.999   2.092   0.984
 1737SOL     OW 5215   1.881   2.230   0.647
 1737SOL    HW1 5216   1.799   2.273   0.686
 1737SOL    HW2 5217   1.853   2.157   0.584
 1738SOL     OW 5218   2.431   3.137   1.165
 1738SOL    HW1 5219   2.338   3.130   1.128
 1738SOL    HW2 5220   2.442   3.226   1.209
 1739SOL     OW 5221   3.417   3.373   0.703
 1739SOL    HW1 5222   3.360   3.357   0.784
 1739SOL    HW2 5223   3.358   3.383   0.623
 1740SOL     OW 5224   2.997   2.565   0.717
 1740SOL    HW1 5225   3.054   2.643   0.692
 1740SOL    HW2 5226   2.937   2.591   0.793
 1741SOL     OW 5227   3.617   2.469   0.231
 1741SOL    HW1 5228   3.605   2.456   0.132
 1741SOL    HW2 5229   3.587   2.388   0.280
 1742SOL     OW 5230   2.630   3.006   1.023
 1742SOL    HW1 5231   2.552   3.023   1.083
 1742SOL    HW2 5232   2.664   3.093   0.987
 1743SOL     OW 5233   2.712   2.660   1.823
 1743SOL    HW1 5234   2.708   2.736   1.888
 1743SOL    HW2 5235   2.734   2.696   1.732
 1744SOL     OW 5236   2.547   2.874   0.665
 1744SOL    HW1 5237   2.616   2.858   0.735
 1744SOL    HW2 5238   2.474   2.931   0.703
 1745SOL     OW 5239   2.548   3.023   1.803
 1745SOL    HW1 5240   2.608   3.102   1.817
 1745SOL    HW2 5241   2.462   3.054   1.762
 1746SOL     OW 5242   2.197   3.297   1.061
 1746SOL    HW1 5243   2.119   3.266   1.008
 1746SOL    HW2 5244   2.255   3.355   1.004
 1747SOL     OW 5245   3.322   3.367   1.339
 1747SOL    HW1 5246   3.346   3.461   1.365
 1747SOL    HW2 5247   3.306   3.313   1.421
 1748SOL     OW 5248   2.300   2.254   1.499
 1748SOL    HW1 5249   2.382   2.198   1.508
 1748SOL    HW2 5250   2.219   2.196   1.503
 1749SOL     OW 5251   3.465   2.309   0.737
 1749SOL    HW1 5252   3.391   2.355   0.687
 1749SOL    HW2 5253   3.516   2.377   0.790
 1750SOL     OW 5254   2.093   3.575   0.483
 1750SOL    HW1 5255   2.127   3.652   0.537
 1750SOL    HW2 5256   2.137   3.575   0.393
 1751SOL     OW 5257   2.989   3.203   1.690
 1751SOL    HW1 5258   3.036   3.203   1.778
 1751SOL    HW2 5259   2.941   3.116   1.679
 1752SOL     OW 5260   2.092   3.296   0.538
 1752SOL    HW1 5261   2.066   3.392   0.538
 1752SOL    HW2 5262   2.021   3.242   0.583
 1753SOL     OW 5263   2.102   2.953   0.886
 1753SOL    HW1 5264   2.116   2.869   0.938
 1753SOL    HW2 5265   2.047   3.017   0.941
 1754SOL     OW 5266   2.482   3.648   1.439
 1754SOL    HW1 5267   2.390   3.631   1.474
 1754SOL    HW2 5268   2.510   3.740   1.465
 1755SOL     OW 5269   2.468   2.826   0.123
 1755SOL    HW1 5270   2.475   2.910   0.069
 1755SOL    HW2 5271   2.514   2.839   0.211
 1756SOL     OW 5272   3.456   1.976   1.480
 1756SOL    HW1 5273   3.438   2.043   1.408
 1756SOL    HW2 5274   3.453   2.022   1.569
 1757SOL     OW 5275   1.984   2.505   0.563
 1757SOL    HW1 5276   1.939   2.417   0.580
 1757SOL    HW2 5277   1.983   2.559   0.647
 1758SOL     OW 5278   3.704   3.629   0.359
 1758SOL    HW1 5279   3.758   3.600   0.439
 1758SOL    HW2 5280   3.734   3.719   0.330
 1759SOL     OW 5281   1.889   3.458   0.117
 1759SOL    HW1 5282   1.870   3.362   0.138
 1759SOL    HW2 5283   1.856   3.516   0.192
 1760SOL     OW 5284   3.551   2.784   0.612
 1760SOL    HW1 5285   3.646   2.755   0.620
 1760SOL    HW2 5286   3.543   2.849   0.537
 1761SOL     OW 5287   3.503   2.970   0.432
 1761SOL    HW1 5288   3.589   2.972   0.380
 1761SOL    HW2 5289   3.517   3.017   0.520
 1762SOL     OW 5290   1.975   2.599   1.597
 1762SOL    HW1 5291   2.063   2.586   1.642
 1762SOL    HW2 5292   1.962   2.696   1.575
 1763SOL     OW 5293   2.475   3.227   0.726
 1763SOL    HW1 5294   2.426   3.140   0.735
 1763SOL    HW2 5295   2.452   3.270   0.639
 1764SOL     OW 5296   3.155   3.090   1.423
 1764SOL    HW1 5297   3.192   3.017   1.365
 1764SOL    HW2 5298   3.207   3.095   1.508
 1765SOL     OW 5299   2.671   1.866   0.502
 1765SOL    HW1 5300   2.711   1.957   0.493
 1765SOL    HW2 5301   2.571   1.874   0.508
 1766SOL     OW 5302   2.059   2.838   1.264
 1766SOL    HW1 5303   2.148   2.793   1.250
 1766SOL    HW2 5304   1.986   2.773   1.245
 1767SOL     OW 5305   3.387   2.861   0.190
 1767SOL    HW1 5306   3.324   2.785   0.203
 1767SOL    HW2 5307   3.435   2.879   0.276
 1768SOL     OW 5308   3.049   3.654   1.616
 1768SOL    HW1 5309   3.073   3.714   1.540
 1768SOL    HW2 5310   3.056   3.559   1.586
 1769SOL     OW 5311   2.179   2.113   1.801
 1769SOL    HW1 5312   2.250   2.184   1.807
 1769SOL    HW2 5313   2.091   2.152   1.829
 1770SOL     OW 5314   3.328   3.279   0.953
 1770SOL    HW1 5315   3.269   3.285   1.033
 1770SOL    HW2 5316   3.313   3.191   0.907
 1771SOL     OW 5317   3.529   3.576   0.572
 1771SOL    HW1 5318   3.488   3.553   0.484
 1771SOL    HW2 5319   3.511   3.502   0.637
 1772SOL     OW 5320   2.460   2.591   0.270
 1772SOL    HW1 5321   2.484   2.660   0.202
 1772SOL    HW2 5322   2.382   2.624   0.324
 1773SOL     OW 5323   3.143   2.207   0.944
 1773SOL    HW1 5324   3.057   2.157   0.931
 1773SOL    HW2 5325   3.205   2.153   1.000
 1774SOL     OW 5326   3.438   3.524   0.307
 1774SOL    HW1 5327   3.527   3.570   0.310
 1774SOL    HW2 5328   3.417   3.500   0.212
 1775SOL     OW 5329   2.669   2.467   1.465
 1775SOL    HW1 5330   2.622   2.464   1.554
 1775SOL    HW2 5331   2.618   2.412   1.399
 1776SOL     OW 5332   3.256   2.331   1.674
 1776SOL    HW1 5333   3.236   2.374   1.762
 1776SOL    HW2 5334   3.334   2.269   1.683
 1777SOL     OW 5335   2.835   2.752   1.572
 1777SOL    HW1 5336   2.881   2.668   1.543
 1777SOL    HW2 5337   2.779   2.786   1.497
 1778SOL     OW 5338   2.853   2.272   1.242
 1778SOL    HW1 5339   2.776   2.306   1.296
 1778SOL    HW2 5340   2.819   2.221   1.163
 1779SOL     OW 5341   2.903   2.563   0.429
 1779SOL    HW1 5342   2.929   2.559   0.525
 1779SOL    HW2 5343   2.818   2.512   0.415
 1780SOL     OW 5344   1.938   2.673   0.789
 1780SOL    HW1 5345   2.037   2.661   0.798
 1780SOL    HW2 5346   1.914   2.768   0.810
 1781SOL     OW 5347   1.992   3.683   1.571
 1781SOL    HW1 5348   1.982   3.668   1.670
 1781SOL    HW2 5349   1.906   3.719   1.535
 1782SOL     OW 5350   2.727   2.210   0.195
 1782SOL    HW1 5351   2.786   2.273   0.146
 1782SOL    HW2 5352   2.746   2.116   0.166
 1783SOL     OW 5353   3.581   2.447   1.831
 1783SOL    HW1 5354   3.555   2.536   1.795
 1783SOL    HW2 5355   3.579   2.379   1.758
 1784SOL     OW 5356   3.224   3.006   0.545
 1784SOL    HW1 5357   3.307   2.977   0.497
 1784SOL    HW2 5358   3.175   3.073   0.489
 1785SOL     OW 5359   2.412   2.058   0.885
 1785SOL    HW1 5360   2.407   2.053   0.985
 1785SOL    HW2 5361   2.414   2.154   0.856
 1786SOL     OW 5362   2.870   3.318   0.477
 1786SOL    HW1 5363   2.824   3.390   0.425
 1786SOL    HW2 5364   2.866   3.338   0.575
 1787SOL     OW 5365   2.213   3.663   0.853
 1787SOL    HW1 5366   2.263   3.577   0.859
 1787SOL    HW2 5367   2.278   3.740   0.850
 1788SOL     OW 5368   3.657   2.928   0.873
 1788SOL    HW1 5369   3.595   2.913   0.797
 1788SOL    HW2 5370   3.605   2.939   0.958
 1789SOL     OW 5371   3.089   3.412   1.506
 1789SOL    HW1 5372   3.095   3.335   1.570
 1789SOL    HW2 5373   3.037   3.386   1.426
 1790SOL     OW 5374   2.183   2.805   0.242
 1790SOL    HW1 5375   2.265   2.844   0.200
 1790SOL    HW2 5376   2.156   2.723   0.193
 1791SOL     OW 5377   3.320   2.597   0.728
 1791SOL    HW1 5378   3.315   2.532   0.803
 1791SOL    HW2 5379   3.400   2.656   0.741
 1792SOL     OW 5380   2.323   3.128   1.727
 1792SOL    HW1 5381   2.273   3.129   1.641
 1792SOL    HW2 5382   2.260   3.110   1.803
 1793SOL     OW 5383   2.973   3.638   0.237
 1793SOL    HW1 5384   2.913   3.576   0.287
 1793SOL    HW2 5385   3.004   3.594   0.152
 1794SOL     OW 5386   2.064   2.147   1.498
 1794SOL    HW1 5387   1.984   2.207   1.485
 1794SOL    HW2 5388   2.054   2.098   1.584
 1795SOL     OW 5389   3.494   3.239   0.081
 1795SOL    HW1 5390   3.462   3.333   0.071
 1795SOL    HW2 5391   3.418   3.176   0.069
 1796SOL     OW 5392   2.326   3.605   0.323
 1796SOL    HW1 5393   2.359   3.644   0.409
 1796SOL    HW2 5394   2.402   3.598   0.258
 1797SOL     OW 5395   3.262   1.969   0.426
 1797SOL    HW1 5396   3.238   1.932   0.336
 1797SOL    HW2 5397   3.361   1.985   0.430
 1798SOL     OW 5398   2.111   3.647   1.241
 1798SOL    HW1 5399   2.168   3.582   1.291
 1798SOL    HW2 5400   2.095   3.614   1.148
 1799SOL     OW 5401   2.802   3.560   0.904
 1799SOL    HW1 5402   2.882   3.503   0.925
 1799SOL    HW2 5403   2.753   3.520   0.827
 1800SOL     OW 5404   2.244   2.562   0.480
 1800SOL    HW1 5405   2.289   2.472   0.477
 1800SOL    HW2 5406   2.150   2.551   0.513
 1801SOL     OW 5407   3.409   2.084   1.729
 1801SOL    HW1 5408   3.404   2.121   1.821
 1801SOL    HW2 5409   3.337   2.015   1.717
 1802SOL     OW 5410   2.476   1.984   0.117
 1802SOL    HW1 5411   2.574   1.962   0.124
 1802SOL    HW2 5412   2.445   1.967   0.024
 1803SOL     OW 5413   2.643   2.126   1.749
 1803SOL    HW1 5414   2.710   2.065   1.792
 1803SOL    HW2 5415   2.570   2.145   1.814
 1804SOL     OW 5416   2.750   3.376   1.195
 1804SOL    HW1 5417   2.727   3.351   1.101
 1804SOL    HW2 5418   2.811   3.307   1.234
 1805SOL     OW 5419   3.213   2.452   1.433
 1805SOL    HW1 5420   3.241   2.409   1.518
 1805SOL    HW2 5421   3.238   2.548   1.434
 1806SOL     OW 5422   2.665   3.264   0.924
 1806SOL    HW1 5423   2.755   3.278   0.882
 1806SOL    HW2 5424   2.594   3.266   0.853
 1807SOL     OW 5425   2.784   2.365   0.899
 1807SOL    HW1 5426   2.759   2.356   0.803
 1807SOL    HW2 5427   2.832   2.283   0.930
 1808SOL     OW 5428   2.401   1.926   0.512
 1808SOL    HW1 5429   2.320   1.927   0.570
 1808SOL    HW2 5430   2.404   2.009   0.457
 1809SOL     OW 5431   3.296   3.050   0.041
 1809SOL    HW1 5432   3.328   2.974   0.098
 1809SOL    HW2 5433   3.204   3.077   0.071
 1810SOL     OW 5434   2.797   2.098   0.480
 1810SOL    HW1 5435   2.749   2.139   0.402
 1810SOL    HW2 5436   2.896   2.096   0.461
 1811SOL     OW 5437   2.938   2.545   1.464
 1811SOL    HW1 5438   2.858   2.484   1.467
 1811SOL    HW2 5439   3.019   2.492   1.440
 1812SOL     OW 5440   3.089   3.432   0.793
 1812SOL    HW1 5441   3.110   3.506   0.728
 1812SOL    HW2 5442   3.157   3.432   0.866
 1813SOL     OW 5443   2.321   3.014   0.741
 1813SOL    HW1 5444   2.250   2.987   0.806
 1813SOL    HW2 5445   2.295   2.986   0.648
 1814SOL     OW 5446   3.133   3.659   0.591
 1814SOL    HW1 5447   3.177   3.723   0.527
 1814SOL    HW2 5448   3.083   3.711   0.661
 1815SOL     OW 5449   2.894   2.411   0.016
 1815SOL    HW1 5450   2.853   2.493  -0.023
 1815SOL    HW2 5451   2.958   2.437   0.089
 1816SOL     OW 5452   1.940   2.418   1.386
 1816SOL    HW1 5453   2.032   2.417   1.345
 1816SOL    HW2 5454   1.934   2.492   1.453
 1817SOL     OW 5455   2.423   2.084   1.147
 1817SOL    HW1 5456   2.461   2.000   1.184
 1817SOL    HW2 5457   2.335   2.103   1.191
 1818SOL     OW 5458   2.728   2.316   0.642
 1818SOL    HW1 5459   2.696   2.388   0.580
 1818SOL    HW2 5460   2.752   2.235   0.589
 1819SOL     OW 5461   2.879   1.901   0.753
 1819SOL    HW1 5462   2.807   1.906   0.684
 1819SOL    HW2 5463   2.855   1.832   0.822
 1820SOL     OW 5464   3.291   3.035   0.867
 1820SOL    HW1 5465   3.236   2.951   0.860
 1820SOL    HW2 5466   3.317   3.064   0.775
 1821SOL     OW 5467   3.328   2.452   0.992
 1821SOL    HW1 5468   3.298   2.357   0.999
 1821SOL    HW2 5469   3.401   2.468   1.058
 1822SOL     OW 5470   3.719   2.695   0.377
 1822SOL    HW1 5471   3.761   2.631   0.441
 1822SOL    HW2 5472   3.681   2.644   0.299
 1823SOL     OW 5473   2.350   3.247   0.174
 1823SOL    HW1 5474   2.263   3.232   0.221
 1823SOL    HW2 5475   2.333   3.273   0.079
 1824SOL     OW 5476   3.526   3.142   0.657
 1824SOL    HW1 5477   3.625   3.150   0.671
 1824SOL    HW2 5478   3.481   3.226   0.688
 1825SOL     OW 5479   3.252   2.437   0.078
 1825SOL    HW1 5480   3.198   2.416   0.159
 1825SOL    HW2 5481   3.343   2.396   0.087
 1826SOL     OW 5482   2.389   2.118   0.328
 1826SOL    HW1 5483   2.416   2.059   0.253
 1826SOL    HW2 5484   2.389   2.213   0.297
 1827SOL     OW 5485   3.616   3.085   1.588
 1827SOL    HW1 5486   3.707   3.046   1.575
 1827SOL    HW2 5487   3.624   3.181   1.612
 1828SOL     OW 5488   2.926   3.209   1.340
 1828SOL    HW1 5489   2.846   3.186   1.395
 1828SOL    HW2 5490   3.009   3.183   1.389
 1829SOL     OW 5491   3.454   3.491   1.625
 1829SOL    HW1 5492   3.481   3.525   1.535
 1829SOL    HW2 5493   3.533   3.453   1.671
 1830SOL     OW 5494   2.973   3.057   1.100
 1830SOL    HW1 5495   2.933   3.101   1.181
 1830SOL    HW2 5496   2.932   3.094   1.017
 1831SOL     OW 5497   3.500   2.961   1.079
 1831SOL    HW1 5498   3.505   3.042   1.138
 1831SOL    HW2 5499   3.414   2.963   1.028
 1832SOL     OW 5500   2.777   1.951   1.402
 1832SOL    HW1 5501   2.802   1.931   1.307
 1832SOL    HW2 5502   2.849   2.007   1.444
 1833SOL     OW 5503   2.842   2.978   1.719
 1833SOL    HW1 5504   2.743   2.984   1.729
 1833SOL    HW2 5505   2.865   2.898   1.663
 1834SOL     OW 5506   2.567   2.912   0.368
 1834SOL    HW1 5507   2.553   2.919   0.467
 1834SOL    HW2 5508   2.651   2.861   0.350
 1835SOL     OW 5509   2.272   2.675   1.251
 1835SOL    HW1 5510   2.358   2.687   1.301
 1835SOL    HW2 5511   2.230   2.588   1.278
 1836SOL     OW 5512   3.136   2.248   1.262
 1836SOL    HW1 5513   3.157   2.322   1.326
 1836SOL    HW2 5514   3.047   2.265   1.219
 1837SOL     OW 5515   1.926   3.426   1.331
 1837SOL    HW1 5516   1.880   3.508   1.297
 1837SOL    HW2 5517   2.024   3.445   1.340
 1838SOL     OW 5518   2.229   2.962   0.501
 1838SOL    HW1 5519   2.222   3.045   0.445
 1838SOL    HW2 5520   2.233   2.882   0.441
 1839SOL     OW 5521   2.428   2.399   0.865
 1839SOL    HW1 5522   2.440   2.465   0.791
 1839SOL    HW2 5523   2.474   2.433   0.948
 1840SOL     OW 5524   3.114   3.210   0.388
 1840SOL    HW1 5525   3.164   3.287   0.428
 1840SOL    HW2 5526   3.019   3.212   0.420
 1841SOL     OW 5527   3.134   3.307   1.142
 1841SOL    HW1 5528   3.181   3.320   1.229
 1841SOL    HW2 5529   3.068   3.233   1.151
 1842SOL     OW 5530   3.444   2.501   0.472
 1842SOL    HW1 5531   3.413   2.562   0.545
 1842SOL    HW2 5532   3.494   2.553   0.403
 1843SOL     OW 5533   2.216   3.372   1.329
 1843SOL    HW1 5534   2.195   3.328   1.242
 1843SOL    HW2 5535   2.313   3.398   1.332
 1844SOL     OW 5536   2.264   2.613   1.598
 1844SOL    HW1 5537   2.332   2.668   1.551
 1844SOL    HW2 5538   2.304   2.525   1.625
 1845SOL     OW 5539   3.449   2.641   1.670
 1845SOL    HW1 5540   3.357   2.679   1.665
 1845SOL    HW2 5541   3.509   2.688   1.605
 1846SOL     OW 5542   2.875   1.967   1.770
 1846SOL    HW1 5543   2.881   2.052   1.718
 1846SOL    HW2 5544   2.907   1.891   1.713
 1847SOL     OW 5545   2.366   1.912   1.740
 1847SOL    HW1 5546   2.324   1.855   1.670
 1847SOL    HW2 5547   2.300   1.981   1.772
 1848SOL     OW 5548   2.435   2.732   1.029
 1848SOL    HW1 5549   2.479   2.821   1.020
 1848SOL    HW2 5550   2.372   2.732   1.106
 1849SOL     OW 5551   3.222   2.724   1.045
 1849SOL    HW1 5552   3.147   2.724   0.979
 1849SOL    HW2 5553   3.259   2.632   1.054
 1850SOL     OW 5554   3.071   2.387   0.275
 1850SOL    HW1 5555   3.084   2.303   0.329
 1850SOL    HW2 5556   3.042   2.461   0.335
 1851SOL     OW 5557   2.169   2.075   1.231
 1851SOL    HW1 5558   2.146   2.112   1.321
 1851SOL    HW2 5559   2.139   1.980   1.225
 1852SOL     OW 5560   1.899   3.172   1.282
 1852SOL    HW1 5561   1.952   3.123   1.350
 1852SOL    HW2 5562   1.921   3.270   1.287
 1853SOL     OW 5563   2.594   2.496   1.064
 1853SOL    HW1 5564   2.653   2.470   0.988
 1853SOL    HW2 5565   2.566   2.592   1.053
 1854SOL     OW 5566   3.590   2.797   1.854
 1854SOL    HW1 5567   3.544   2.790   1.765
 1854SOL    HW2 5568   3.528   2.841   1.920
 1855SOL     OW 5569   2.169   1.925   0.618
 1855SOL    HW1 5570   2.158   2.019   0.651
 1855SOL    HW2 5571   2.164   1.862   0.695
 1856SOL     OW 5572   3.484   2.229   0.374
 1856SOL    HW1 5573   3.486   2.153   0.438
 1856SOL    HW2 5574   3.436   2.306   0.414
 1857SOL     OW 5575   2.885   2.628   0.966
 1857SOL    HW1 5576   2.900   2.649   1.062
 1857SOL    HW2 5577   2.855   2.533   0.957
 1858SOL     OW 5578   2.842   3.435   1.700
 1858SOL    HW1 5579   2.822   3.479   1.612
 1858SOL    HW2 5580   2.881   3.344   1.684
 1859SOL     OW 5581   3.721   3.380   1.605
 1859SOL    HW1 5582   3.735   3.407   1.510
 1859SOL    HW2 5583   3.804   3.402   1.658
 1860SOL     OW 5584   2.212   2.760   1.804
 1860SOL    HW1 5585   2.288   2.804   1.852
 1860SOL    HW2 5586   2.247   2.713   1.722
 1861SOL     OW 5587   3.402   2.136   0.125
 1861SOL    HW1 5588   3.341   2.061   0.148
 1861SOL    HW2 5589   3.424   2.188   0.208
 1862SOL     OW 5590   3.165   2.700   0.042
 1862SOL    HW1 5591   3.199   2.607   0.057
 1862SOL    HW2 5592   3.183   2.727  -0.053
 1863SOL     OW 5593   2.930   3.195   0.849
 1863SOL    HW1 5594   2.937   3.111   0.794
 1863SOL    HW2 5595   2.992   3.264   0.813
 1864SOL     OW 5596   2.181   2.672   0.949
 1864SOL    HW1 5597   2.274   2.708   0.954
 1864SOL    HW2 5598   2.175   2.587   1.001
 1865SOL     OW 5599   2.201   2.371   1.006
 1865SOL    HW1 5600   2.149   2.288   0.989
 1865SOL    HW2 5601   2.278   2.376   0.942
 1866SOL     OW 5602   3.000   2.242   1.678
 1866SOL    HW1 5603   2.955   2.305   1.742
 1866SOL    HW2 5604   3.093   2.273   1.661
 1867SOL     OW 5605   3.022   2.069   1.477
 1867SOL    HW1 5606   3.022   2.133   1.554
 1867SOL    HW2 5607   3.050   2.117   1.394
 1868SOL     OW 5608   1.870   3.188   0.200
 1868SOL    HW1 5609   1.777   3.209   0.169
 1868SOL    HW2 5610   1.880   3.089   0.213
 1869SOL     OW 5611   1.950   3.663   0.927
 1869SOL    HW1 5612   1.908   3.577   0.900
 1869SOL    HW2 5613   2.044   3.666   0.893
 1870SOL     OW 5614   2.366   3.430   0.910
 1870SOL    HW1 5615   2.432   3.504   0.919
 1870SOL    HW2 5616   2.410   3.351   0.868
 1871SOL     OW 5617   2.864   2.658   1.238
 1871SOL    HW1 5618   2.905   2.626   1.324
 1871SOL    HW2 5619   2.768   2.631   1.235
 1872SOL     OW 5620   1.902   2.406   1.114
 1872SOL    HW1 5621   1.987   2.373   1.073
 1872SOL    HW2 5622   1.915   2.421   1.212
 1873SOL     OW 5623   2.051   2.382   1.722
 1873SOL    HW1 5624   2.110   2.342   1.652
 1873SOL    HW2 5625   1.993   2.453   1.681
 1874SOL     OW 5626   3.231   2.812   1.660
 1874SOL    HW1 5627   3.270   2.901   1.680
 1874SOL    HW2 5628   3.241   2.792   1.563
 1875SOL     OW 5629   2.677   2.434   0.325
 1875SOL    HW1 5630   2.684   2.345   0.279
 1875SOL    HW2 5631   2.583   2.468   0.317
 1876SOL     OW 5632   3.519   2.466   1.206
 1876SOL    HW1 5633   3.481   2.397   1.268
 1876SOL    HW2 5634   3.601   2.430   1.162
 1877SOL     OW 5635   2.114   3.426   1.744
 1877SOL    HW1 5636   2.084   3.483   1.820
 1877SOL    HW2 5637   2.107   3.329   1.770
 1878SOL     OW 5638   2.533   2.326   1.269
 1878SOL    HW1 5639   2.499   2.237   1.239
 1878SOL    HW2 5640   2.559   2.380   1.189
 1879SOL     OW 5641   2.792   3.540   1.465
 1879SOL    HW1 5642   2.768   3.522   1.370
 1879SOL    HW2 5643   2.822   3.634   1.475
 1880SOL     OW 5644   2.335   2.362   0.191
 1880SOL    HW1 5645   2.396   2.442   0.195
 1880SOL    HW2 5646   2.240   2.393   0.198
 1881SOL     OW 5647   2.021   2.999   1.466
 1881SOL    HW1 5648   2.043   2.938   1.542
 1881SOL    HW2 5649   2.031   2.950   1.380
 1882SOL     OW 5650   3.209   2.921   1.234
 1882SOL    HW1 5651   3.233   2.858   1.160
 1882SOL    HW2 5652   3.119   2.961   1.216
 1883SOL     OW 5653   3.164   2.717   0.309
 1883SOL    HW1 5654   3.078   2.686   0.351
 1883SOL    HW2 5655   3.160   2.703   0.210
 1884SOL     OW 5656   3.621   3.609   1.154
 1884SOL    HW1 5657   3.682   3.639   1.081
 1884SOL    HW2 5658   3.583   3.520   1.132
 1885SOL     OW 5659   3.114   3.593   1.128
 1885SOL    HW1 5660   3.198   3.598   1.074
 1885SOL    HW2 5661   3.091   3.497   1.146
 1886SOL     OW 5662   1.945   3.120   1.022
 1886SOL    HW1 5663   1.940   3.119   1.122
 1886SOL    HW2 5664   1.862   3.079   0.984
 1887SOL     OW 5665   2.550   3.524   1.716
 1887SOL    HW1 5666   2.494   3.605   1.725
 1887SOL    HW2 5667   2.602   3.528   1.630
 1888SOL     OW 5668   2.765   1.948   0.133
 1888SOL    HW1 5669   2.816   1.949   0.047
 1888SOL    HW2 5670   2.821   1.906   0.204
 1889SOL     OW 5671   3.588   1.997   0.523
 1889SOL    HW1 5672   3.661   1.980   0.456
 1889SOL    HW2 5673   3.557   1.910   0.561
 1890SOL     OW 5674   3.250   3.435   0.477
 1890SOL    HW1 5675   3.317   3.447   0.403
 1890SOL    HW2 5676   3.210   3.524   0.500
 1891SOL     OW 5677   1.992   3.656   1.851
 1891SOL    HW1 5678   1.951   3.582   1.904
 1891SOL    HW2 5679   2.056   3.707   1.909
 1892SOL     OW 5680   3.142   2.789   0.672
 1892SOL    HW1 5681   3.202   2.708   0.674
 1892SOL    HW2 5682   3.182   2.858   0.612
 1893SOL     OW 5683   2.692   3.135   1.422
 1893SOL    HW1 5684   2.687   3.168   1.517
 1893SOL    HW2 5685   2.606   3.154   1.376
 1894SOL     OW 5686   2.534   3.478   0.154
 1894SOL    HW1 5687   2.543   3.488   0.055
 1894SOL    HW2 5688   2.494   3.389   0.175
 1895SOL     OW 5689   3.512   3.582   1.394
 1895SOL    HW1 5690   3.565   3.592   1.310
 1895SOL    HW2 5691   3.485   3.672   1.428
 1896SOL     OW 5692   3.703   2.037   0.963
 1896SOL    HW1 5693   3.742   1.952   0.927
 1896SOL    HW2 5694   3.605   2.039   0.944
 1897SOL     OW 5695   2.125   2.188   0.720
 1897SOL    HW1 5696   2.046   2.239   0.686
 1897SOL    HW2 5697   2.116   2.173   0.818
 1898SOL     OW 5698   3.056   3.474   0.031
 1898SOL    HW1 5699   3.062   3.381   0.068
 1898SOL    HW2 5700   2.997   3.474  -0.049
 1899SOL     OW 5701   2.684   2.864   1.372
 1899SOL    HW1 5702   2.724   2.863   1.280
 1899SOL    HW2 5703   2.694   2.956   1.412
 1900SOL     OW 5704   2.778   2.772   0.291
 1900SOL    HW1 5705   2.841   2.810   0.223
 1900SOL    HW2 5706   2.818   2.689   0.330
 1901SOL     OW 5707   3.366   3.469   0.044
 1901SOL    HW1 5708   3.274   3.506   0.051
 1901SOL    HW2 5709   3.404   3.489  -0.046
 1902SOL     OW 5710   2.234   3.150   1.490
 1902SOL    HW1 5711   2.221   3.243   1.456
 1902SOL    HW2 5712   2.150   3.098   1.477
 1903SOL     OW 5713   3.476   3.154   1.289
 1903SOL    HW1 5714   3.536   3.157   1.369
 1903SOL    HW2 5715   3.401   3.218   1.302
 1904SOL     OW 5716   2.901   2.960   0.696
 1904SOL    HW1 5717   2.831   2.913   0.750
 1904SOL    HW2 5718   2.960   2.892   0.653
 1905SOL     OW 5719   2.876   2.098   0.971
 1905SOL    HW1 5720   2.868   2.062   0.878
 1905SOL    HW2 5721   2.874   2.022   1.036
 1906SOL     OW 5722   2.452   3.349   0.491
 1906SOL    HW1 5723   2.494   3.291   0.421
 1906SOL    HW2 5724   2.408   3.428   0.447
 1907SOL     OW 5725   3.571   2.247   1.381
 1907SOL    HW1 5726   3.644   2.316   1.385
 1907SOL    HW2 5727   3.599   2.172   1.322
 1908SOL     OW 5728   2.117   3.210   0.290
 1908SOL    HW1 5729   2.021   3.211   0.263
 1908SOL    HW2 5730   2.129   3.263   0.374
 1909SOL     OW 5731   1.967   2.875   1.726
 1909SOL    HW1 5732   1.890   2.842   1.780
 1909SOL    HW2 5733   2.052   2.845   1.768
 1910SOL     OW 5734   2.534   2.065   1.489
 1910SOL    HW1 5735   2.624   2.049   1.449
 1910SOL    HW2 5736   2.542   2.070   1.588
 1911SOL     OW 5737   1.937   2.207   0.033
 1911SOL    HW1 5738   1.845   2.179   0.004
 1911SOL    HW2 5739   1.968   2.284  -0.023
 1912SOL     OW 5740   3.302   2.718   1.398
 1912SOL    HW1 5741   3.245   2.770   1.335
 1912SOL    HW2 5742   3.398   2.730   1.374
 1913SOL     OW 5743   3.045   3.197   0.119
 1913SOL    HW1 5744   2.946   3.186   0.121
 1913SOL    HW2 5745   3.079   3.212   0.212
 1914SOL     OW 5746   2.475   2.704   1.431
 1914SOL    HW1 5747   2.531   2.785   1.414
 1914SOL    HW2 5748   2.534   2.624   1.434
 1915SOL     OW 5749   3.355   3.629   0.959
 1915SOL    HW1 5750   3.388   3.693   0.890
 1915SOL    HW2 5751   3.421   3.623   1.034
 1916SOL     OW 5752   2.578   2.427   1.708
 1916SOL    HW1 5753   2.597   2.492   1.782
 1916SOL    HW2 5754   2.638   2.347   1.717
 1917SOL     OW 5755   3.312   3.082   1.633
 1917SOL    HW1 5756   3.303   3.072   1.732
 1917SOL    HW2 5757   3.408   3.075   1.607
 1918SOL     OW 5758   2.252   3.603   1.560
 1918SOL    HW1 5759   2.161   3.644   1.558
 1918SOL    HW2 5760   2.245   3.509   1.592
 1919SOL     OW 5761   3.536   2.745   1.254
 1919SOL    HW1 5762   3.509   2.656   1.217
 1919SOL    HW2 5763   3.537   2.813   1.181
 1920SOL     OW 5764   3.087   2.187   0.449
 1920SOL    HW1 5765   3.152   2.113   0.438
 1920SOL    HW2 5766   3.107   2.237   0.533
 1921SOL     OW 5767   2.456   2.607   0.652
 1921SOL    HW1 5768   2.506   2.692   0.633
 1921SOL    HW2 5769   2.368   2.609   0.604
 1922SOL     OW 5770   3.639   2.204   1.642
 1922SOL    HW1 5771   3.622   2.235   1.548
 1922SOL    HW2 5772   3.555   2.167   1.680
 1923SOL     OW 5773   3.592   2.796   1.517
 1923SOL    HW1 5774   3.630   2.887   1.532
 1923SOL    HW2 5775   3.584   2.779   1.418
 1924SOL     OW 5776   2.721   3.236   0.016
 1924SOL    HW1 5777   2.675   3.251   0.104
 1924SOL    HW2 5778   2.765   3.321  -0.014
 1925SOL     OW 5779   2.523   3.652   0.953
 1925SOL    HW1 5780   2.477   3.740   0.940
 1925SOL    HW2 5781   2.622   3.664   0.946
 1926SOL     OW 5782   2.721   2.818   0.861
 1926SOL    HW1 5783   2.775   2.749   0.909
 1926SOL    HW2 5784   2.689   2.887   0.927
 1927SOL     OW 5785   2.945   2.846   0.087
 1927SOL    HW1 5786   2.922   2.899   0.005
 1927SOL    HW2 5787   3.026   2.790   0.068
 1928SOL     OW 5788   3.723   3.431   0.851
 1928SOL    HW1 5789   3.652   3.419   0.781
 1928SOL    HW2 5790   3.724   3.352   0.911
 1929SOL     OW 5791   2.083   3.176   1.844
 1929SOL    HW1 5792   2.018   3.103   1.823
 1929SOL    HW2 5793   2.087   3.190   1.942
 1930SOL     OW 5794   1.941   3.102   0.653
 1930SOL    HW1 5795   1.940   3.055   0.741
 1930SOL    HW2 5796   2.023   3.074   0.602
 1931SOL     OW 5797   2.534   3.253   1.624
 1931SOL    HW1 5798   2.456   3.203   1.662
 1931SOL    HW2 5799   2.531   3.348   1.655
 1932SOL     OW 5800   3.686   2.054   1.227
 1932SOL    HW1 5801   3.682   1.964   1.271
 1932SOL    HW2 5802   3.689   2.043   1.128
 1933SOL     OW 5803   2.290   2.286   0.520
 1933SOL    HW1 5804   2.320   2.214   0.458
 1933SOL    HW2 5805   2.251   2.246   0.603
 1934SOL     OW 5806   3.567   3.349   1.104
 1934SOL    HW1 5807   3.474   3.324   1.077
 1934SOL    HW2 5808   3.593   3.299   1.186
 1935SOL     OW 5809   2.179   2.409   1.280
 1935SOL    HW1 5810   2.217   2.350   1.352
 1935SOL    HW2 5811   2.219   2.383   1.192
 1936SOL     OW 5812   2.674   3.448   0.687
 1936SOL    HW1 5813   2.706   3.458   0.593
 1936SOL    HW2 5814   2.595   3.386   0.689
 1937SOL     OW 5815   3.286   2.076   1.112
 1937SOL    HW1 5816   3.338   2.011   1.167
 1937SOL    HW2 5817   3.237   2.139   1.173
 1938SOL     OW 5818   2.863   1.896   1.154
 1938SOL    HW1 5819   2.800   1.824   1.123
 1938SOL    HW2 5820   2.956   1.860   1.154
 1939SOL     OW 5821   2.632   3.192   0.301
 1939SOL    HW1 5822   2.586   3.105   0.318
 1939SOL    HW2 5823   2.723   3.189   0.342
 1940SOL     OW 5824   2.480   3.429   1.284
 1940SOL    HW1 5825   2.475   3.511   1.341
 1940SOL    HW2 5826   2.569   3.426   1.239
 1941SOL     OW 5827   3.214   1.914   0.168
 1941SOL    HW1 5828   3.249   1.873   0.084
 1941SOL    HW2 5829   3.124   1.876   0.188
 1942SOL     OW 5830   3.162   2.315   0.691
 1942SOL    HW1 5831   3.103   2.395   0.695
 1942SOL    HW2 5832   3.177   2.280   0.784
 1943SOL     OW 5833   3.455   2.083   0.882
 1943SOL    HW1 5834   3.371   2.082   0.936
 1943SOL    HW2 5835   3.457   2.166   0.826
 1944SOL     OW 5836   1.901   2.939   0.300
 1944SOL    HW1 5837   2.000   2.928   0.291
 1944SOL    HW2 5838   1.861   2.853   0.332
 1945SOL     OW 5839   2.737   3.508   0.337
 1945SOL    HW1 5840   2.660   3.473   0.283
 1945SOL    HW2 5841   2.705   3.579   0.399
 1946SOL     OW 5842   2.092   2.490   1.975
 1946SOL    HW1 5843   1.999   2.488   2.012
 1946SOL    HW2 5844   2.093   2.451   1.883
 1947SOL     OW 5845   2.087   2.137   2.858
 1947SOL    HW1 5846   2.122   2.120   2.950
 1947SOL    HW2 5847   1.999   2.092   2.846
 1948SOL     OW 5848   1.881   2.230   2.509
 1948SOL    HW1 5849   1.799   2.273   2.548
 1948SOL    HW2 5850   1.853   2.157   2.446
 1949SOL     OW 5851   2.431   3.137   3.027
 1949SOL    HW1 5852   2.338   3.130   2.990
 1949SOL    HW2 5853   2.442   3.226   3.071
 1950SOL     OW 5854   3.417   3.373   2.565
 1950SOL    HW1 5855   3.360   3.357   2.646
 1950SOL    HW2 5856   3.358   3.383   2.485
 1951SOL     OW 5857   2.997   2.565   2.579
 1951SOL    HW1 5858   3.054   2.643   2.554
 1951SOL    HW2 5859   2.937   2.591   2.655
 1952SOL     OW 5860   3.617   2.469   2.093
 1952SOL    HW1 5861   3.605   2.456   1.994
 1952SOL    HW2 5862   3.587   2.388   2.142
 1953SOL     OW 5863   2.630   3.006   2.885
 1953SOL    HW1 5864   2.552   3.023   2.945
 1953SOL    HW2 5865   2.664   3.093   2.849
 1954SOL     OW 5866   2.712   2.660   3.685
 1954SOL    HW1 5867   2.708   2.736   3.750
 1954SOL    HW2 5868   2.734   2.696   3.594
 1955SOL     OW 5869   2.547   2.874   2.527
 1955SOL    HW1 5870   2.616   2.858   2.597
 1955SOL    HW2 5871   2.474   2.931   2.565
 1956SOL     OW 5872   2.548   3.023   3.665
 1956SOL    HW1 5873   2.608   3.102   3.679
 1956SOL    HW2 5874   2.462   3.054   3.624
 1957SOL     OW 5875   2.197   3.297   2.923
 1957SOL    HW1 5876   2.119   3.266   2.870
 1957SOL    HW2 5877   2.255   3.355   2.866
 1958SOL     OW 5878   3.322   3.367   3.201
 1958SOL    HW1 5879   3.346   3.461   3.227
 1958SOL    HW2 5880   3.306   3.313   3.283
 1959SOL     OW 5881   2.300   2.254   3.361
 1959SOL    HW1 5882   2.382   2.198   3.370
 1959SOL    HW2 5883   2.219   2.196   3.365
 1960SOL     OW 5884   3.465   2.309   2.599
 1960SOL    HW1 5885   3.391   2.355   2.549
 1960SOL    HW2 5886   3.516   2.377   2.652
 1961SOL     OW 5887   2.093   3.575   2.345
 1961SOL    HW1 5888   2.127   3.652   2.399
 1961SOL    HW2 5889   2.137   3.575   2.255
 1962SOL     OW 5890   2.989   3.203   3.552
 1962SOL    HW1 5891   3.036   3.203   3.640
 1962SOL    HW2 5892   2.941   3.116   3.541
 1963SOL     OW 5893   2.092   3.296   2.400
 1963SOL    HW1 5894   2.066   3.392   2.400
 1963SOL    HW2 5895   2.021   3.242   2.445
 1964SOL     OW 5896   2.102   2.953   2.748
 1964SOL    HW1 5897   2.116   2.869   2.800
 1964SOL    HW2 5898   2.047   3.017   2.803
 1965SOL     OW 5899   2.482   3.648   3.301
 1965SOL    HW1 5900   2.390   3.631   3.336
 1965SOL    HW2 5901   2.510   3.740   3.327
 1966SOL     OW 5902   2.468   2.826   1.985
 1966SOL    HW1 5903   2.475   2.910   1.931
 1966SOL    HW2 5904   2.514   2.839   2.073
 1967SOL     OW 5905   3.456   1.976   3.342
 1967SOL    HW1 5906   3.438   2.043   3.270
 1967SOL    HW2 5907   3.453   2.022   3.431
 1968SOL     OW 5908   1.984   2.505   2.425
 1968SOL    HW1 5909   1.939   2.417   2.442
 1968SOL    HW2 5910   1.983   2.559   2.509
 1969SOL     OW 5911   3.704   3.629   2.221
 1969SOL    HW1 5912   3.758   3.600   2.301
 1969SOL    HW2 5913   3.734   3.719   2.192
 1970SOL     OW 5914   1.889   3.458   1.979
 1970SOL    HW1 5915   1.870   3.362   2.000
 1970SOL    HW2 5916   1.856   3.516   2.054
 1971SOL     OW 5917   3.551   2.784   2.474
 1971SOL    HW1 5918   3.646   2.755   2.482
 1971SOL    HW2 5919   3.543   2.849   2.399
 1972SOL     OW 5920   3.503   2.970   2.294
 1972SOL    HW1 5921   3.589   2.972   2.242
 1972SOL    HW2 5922   3.517   3.017   2.382
 1973SOL     OW 5923   1.975   2.599   3.459
 1973SOL    HW1 5924   2.063   2.586   3.504
 1973SOL    HW2 5925   1.962   2.696   3.437
 1974SOL     OW 5926   2.475   3.227   2.588
 1974SOL    HW1 5927   2.426   3.140   2.597
 1974SOL    HW2 5928   2.452   3.270   2.501
 1975SOL     OW 5929   3.155   3.090   3.285
 1975SOL    HW1 5930   3.192   3.017   3.227
 1975SOL    HW2 5931   3.207   3.095   3.370
 1976SOL     OW 5932   2.671   1.866   2.364
 1976SOL    HW1 5933   2.711   1.957   2.355
 1976SOL    HW2 5934   2.571   1.874   2.370
 1977SOL     OW 5935   2.059   2.838   3.126
 1977SOL    HW1 5936   2.148   2.793   3.112
 1977SOL    HW2 5937   1.986   2.773   3.107
 1978SOL     OW 5938   3.387   2.861   2.052
 1978SOL    HW1 5939   3.324   2.785   2.065
 1978SOL    HW2 5940   3.435   2.879   2.138
 1979SOL     OW 5941   3.049   3.654   3.478
 1979SOL    HW1 5942   3.073   3.714   3.402
 1979SOL    HW2 5943   3.056   3.559   3.448
 1980SOL     OW 5944   2.179   2.113   3.663
 1980SOL    HW1 5945   2.250   2.184   3.669
 1980SOL    HW2 5946   2.091   2.152   3.691
 1981SOL     OW 5947   3.328   3.279   2.815
 1981SOL    HW1 5948   3.269   3.285   2.895
 1981SOL    HW2 5949   3.313   3.191   2.769
 1982SOL     OW 5950   3.529   3.576   2.434
 1982SOL    HW1 5951   3.488   3.553   2.346
 1982SOL    HW2 5952   3.511   3.502   2.499
 1983SOL     OW 5953   2.460   2.591   2.132
 1983SOL    HW1 5954   2.484   2.660   2.064
 1983SOL    HW2 5955   2.382   2.624   2.186
 1984SOL     OW 5956   3.143   2.207   2.806
 1984SOL    HW1 5957   3.057   2.157   2.793
 1984SOL    HW2 5958   3.205   2.153   2.862
 1985SOL     OW 5959   3.438   3.524   2.169
 1985SOL    HW1 5960   3.527   3.570   2.172
 1985SOL    HW2 5961   3.417   3.500   2.074
 1986SOL     OW 5962   2.669   2.467   3.327
 1986SOL    HW1 5963   2.622   2.464   3.416
 1986SOL    HW2 5964   2.618   2.412   3.261
 1987SOL     OW 5965   3.256   2.331   3.536
 1987SOL    HW1 5966   3.236   2.374   3.624
 1987SOL    HW2 5967   3.334   2.269   3.545
 1988SOL     OW 5968   2.835   2.752   3.434
 1988SOL    HW1 5969   2.881   2.668   3.405
 1988SOL    HW2 5970   2.779   2.786   3.359
 1989SOL     OW 5971   2.853   2.272   3.104
 1989SOL    HW1 5972   2.776   2.306   3.158
 1989SOL    HW2 5973   2.819   2.221   3.025
 1990SOL     OW 5974   2.903   2.563   2.291
 1990SOL    HW1 5975   2.929   2.559   2.387
 1990SOL    HW2 5976   2.818   2.512   2.277
 1991SOL     OW 5977   1.938   2.673   2.651
 1991SOL    HW1 5978   2.037   2.661   2.660
 1991SOL    HW2 5979   1.914   2.768   2.672
 1992SOL     OW 5980   1.992   3.683   3.433
 1992SOL    HW1 5981   1.982   3.668   3.532
 1992SOL    HW2 5982   1.906   3.719   3.397
 1993SOL     OW 5983   2.727   2.210   2.057
 1993SOL    HW1 5984   2.786   2.273   2.008
 1993SOL    HW2 5985   2.746   2.116   2.028
 1994SOL     OW 5986   3.581   2.447   3.693
 1994SOL    HW1 5987   3.555   2.536   3.657
 1994SOL    HW2 5988   3.579   2.379   3.620
 1995SOL     OW 5989   3.224   3.006   2.407
 1995SOL    HW1 5990   3.307   2.977   2.359
 1995SOL    HW2 5991   3.175   3.073   2.351
 1996SOL     OW 5992   2.412   2.058   2.747
 1996SOL    HW1 5993   2.407   2.053   2.847
 1996SOL    HW2 5994   2.414   2.154   2.718
 1997SOL     OW 5995   2.870   3.318   2.339
 1997SOL    HW1 5996   2.824   3.390   2.287
 1997SOL    HW2 5997   2.866   3.338   2.437
 1998SOL     OW 5998   2.213   3.663   2.715
 1998SOL    HW1 5999   2.263   3.577   2.721
 1998SOL    HW2 6000   2.278   3.740   2.712
 1999SOL     OW 6001   3.657   2.928   2.735
 1999SOL    HW1 6002   3.595   2.913   2.659
 1999SOL    HW2 6003   3.605   2.939   2.820
 2000SOL     OW 6004   3.089   3.412   3.368
 2000SOL    HW1 6005   3.095   3.335   3.432
 2000SOL    HW2 6006   3.037   3.386   3.288
 2001SOL     OW 6007   2.183   2.805   2.104
 2001SOL    HW1 6008   2.265   2.844   2.062
 2001SOL    HW2 6009   2.156   2.723   2.055
 2002SOL     OW 6010   3.320   2.597   2.590
 2002SOL    HW1 6011   3.315   2.532   2.665
 2002SOL    HW2 6012   3.400   2.656   2.603
 2003SOL     OW 6013   2.323   3.128   3.589
 2003SOL    HW1 6014   2.273   3.129   3.503
 2003SOL    HW2 6015   2.260   3.110   3.665
 2004SOL     OW 6016   2.973   3.638   2.099
 2004SOL    HW1 6017   2.913   3.576   2.149
 2004SOL    HW2 6018   3.004   3.594   2.014
 2005SOL     OW 6019   2.064   2.147   3.360
 2005SOL    HW1 6020   1.984   2.207   3.347
 2005SOL    HW2 6021   2.054   2.098   3.446
 2006SOL     OW 6022   3.494   3.239   1.943
 2006SOL    HW1 6023   3.462   3.333   1.933
 2006SOL    HW2 6024   3.418   3.176   1.931
 2007SOL     OW 6025   2.326   3.605   2.185
 2007SOL    HW1 6026   2.359   3.644   2.271
 2007SOL    HW2 6027   2.402   3.598   2.120
 2008SOL     OW 6028   3.262   1.969   2.288
 2008SOL    HW1 6029   3.238   1.932   2.198
 2008SOL    HW2 6030   3.361   1.985   2.292
 2009SOL     OW 6031   2.111   3.647   3.103
 2009SOL    HW1 6032   2.168   3.582   3.153
 2009SOL    HW2 6033   2.095   3.614   3.010
 2010SOL     OW 6034   2.802   3.560   2.766
 2010SOL    HW1 6035   2.882   3.503   2.787
 2010SOL    HW2 6036   2.753   3.520   2.689
 2011SOL     OW 6037   2.244   2.562   2.342
 2011SOL    HW1 6038   2.289   2.472   2.339
 2011SOL    HW2 6039   2.150   2.551   2.375
 2012SOL     OW 6040   3.409   2.084   3.591
 2012SOL    HW1 6041   3.404   2.121   3.683
 2012SOL    HW2 6042   3.337   2.015   3.579
 2013SOL     OW 6043   2.476   1.984   1.979
 2013SOL    HW1 6044   2.574   1.962   1.986
 2013SOL    HW2 6045   2.445   1.967   1.886
 2014SOL     OW 6046   2.643   2.126   3.611
 2014SOL    HW1 6047   2.710   2.065   3.654
 2014SOL    HW2 6048   2.570   2.145   3.676
 2015SOL     OW 6049   2.750   3.376   3.057
 2015SOL    HW1 6050   2.727   3.351   2.963
 2015SOL    HW2 6051   2.811   3.307   3.096
 2016SOL     OW 6052   3.213   2.452   3.295
 2016SOL    HW1 6053   3.241   2.409   3.380
 2016SOL    HW2 6054   3.238   2.548   3.296
 2017SOL     OW 6055   2.665   3.264   2.786
 2017SOL    HW1 6056   2.755   3.278   2.744
 2017SOL    HW2 6057   2.594   3.266   2.715
 2018SOL     OW 6058   2.784   2.365   2.761
 2018SOL    HW1 6059   2.759   2.356   2.665
 2018SOL    HW2 6060   2.832   2.283   2.792
 2019SOL     OW 6061   2.401   1.926   2.374
 2019SOL    HW1 6062   2.320   1.927   2.432
 2019SOL    HW2 6063   2.404   2.009   2.319
 2020SOL     OW 6064   3.296   3.050   1.903
 2020SOL    HW1 6065   3.328   2.974   1.960
 2020SOL    HW2 6066   3.204   3.077   1.933
 2021SOL     OW 6067   2.159   1.897   2.033
 2021SOL    HW1 6068   2.208   1.981   2.012
 2021SOL    HW2 6069   2.221   1.832   2.078
 2022SOL     OW 6070   2.797   2.098   2.342
 2022SOL    HW1 6071   2.749   2.139   2.264
 2022SOL    HW2 6072   2.896   2.096   2.323
 2023SOL     OW 6073   2.938   2.545   3.326
 2023SOL    HW1 6074   2.858   2.484   3.329
 2023SOL    HW2 6075   3.019   2.492   3.302
 2024SOL     OW 6076   3.089   3.432   2.655
 2024SOL    HW1 6077   3.110   3.506   2.590
 2024SOL    HW2 6078   3.157   3.432   2.728
 2025SOL     OW 6079   2.321   3.014   2.603
 2025SOL    HW1 6080   2.250   2.987   2.668
 2025SOL    HW2 6081   2.295   2.986   2.510
 2026SOL     OW 6082   3.133   3.659   2.453
 2026SOL    HW1 6083   3.177   3.723   2.389
 2026SOL    HW2 6084   3.083   3.711   2.523
 2027SOL     OW 6085   2.894   2.411   1.878
 2027SOL    HW1 6086   2.853   2.493   1.839
 2027SOL    HW2 6087   2.958   2.437   1.951
 2028SOL     OW 6088   1.940   2.418   3.248
 2028SOL    HW1 6089   2.032   2.417   3.207
 2028SOL    HW2 6090   1.934   2.492   3.315
 2029SOL     OW 6091   2.423   2.084   3.009
 2029SOL    HW1 6092   2.461   2.000   3.046
 2029SOL    HW2 6093   2.335   2.103   3.053
 2030SOL     OW 6094   2.728   2.316   2.504
 2030SOL    HW1 6095   2.696   2.388   2.442
 2030SOL    HW2 6096   2.752   2.235   2.451
 2031SOL     OW 6097   2.879   1.901   2.615
 2031SOL    HW1 6098   2.807   1.906   2.546
 2031SOL    HW2 6099   2.855   1.832   2.684
 2032SOL     OW 6100   3.291   3.035   2.729
 2032SOL    HW1 6101   3.236   2.951   2.722
 2032SOL    HW2 6102   3.317   3.064   2.637
 2033SOL     OW 6103   3.328   2.452   2.854
 2033SOL    HW1 6104   3.298   2.357   2.861
 2033SOL    HW2 6105   3.401   2.468   2.920
 2034SOL     OW 6106   3.719   2.695   2.239
 2034SOL    HW1 6107   3.761   2.631   2.303
 2034SOL    HW2 6108   3.681   2.644   2.161
 2035SOL     OW 6109   2.350   3.247   2.036
 2035SOL    HW1 6110   2.263   3.232   2.083
 2035SOL    HW2 6111   2.333   3.273   1.941
 2036SOL     OW 6112   3.526   3.142   2.519
 2036SOL    HW1 6113   3.625   3.150   2.533
 2036SOL    HW2 6114   3.481   3.226   2.550
 2037SOL     OW 6115   3.252   2.437   1.940
 2037SOL    HW1 6116   3.198   2.416   2.021
 2037SOL    HW2 6117   3.343   2.396   1.949
 2038SOL     OW 6118   3.616   3.085   3.450
 2038SOL    HW1 6119   3.707   3.046   3.437
 2038SOL    HW2 6120   3.624   3.181   3.474
 2039SOL     OW 6121   2.926   3.209   3.202
 2039SOL    HW1 6122   2.846   3.186   3.257
 2039SOL    HW2 6123   3.009   3.183   3.251
 2040SOL     OW 6124   3.454   3.491   3.487
 2040SOL    HW1 6125   3.481   3.525   3.397
 2040SOL    HW2 6126   3.533   3.453   3.533
 2041SOL     OW 6127   2.973   3.057   2.962
 2041SOL    HW1 6128   2.933   3.101   3.043
 2041SOL    HW2 6129   2.932   3.094   2.879
 2042SOL     OW 6130   3.500   2.961   2.941
 2042SOL    HW1 6131   3.505   3.042   3.000
 2042SOL    HW2 6132   3.414   2.963   2.890
 2043SOL     OW 6133   2.777   1.951   3.264
 2043SOL    HW1 6134   2.802   1.931   3.169
 2043SOL    HW2 6135   2.849   2.007   3.306
 2044SOL     OW 6136   2.842   2.978   3.581
 2044SOL    HW1 6137   2.743   2.984   3.591
 2044SOL    HW2 6138   2.865   2.898   3.525
 2045SOL     OW 6139   2.567   2.912   2.230
 2045SOL    HW1 6140   2.553   2.919   2.329
 2045SOL    HW2 6141   2.651   2.861   2.212
 2046SOL     OW 6142   2.272   2.675   3.113
 2046SOL    HW1 6143   2.358   2.687   3.163
 2046SOL    HW2 6144   2.230   2.588   3.140
 2047SOL     OW 6145   3.136   2.248   3.124
 2047SOL    HW1 6146   3.157   2.322   3.188
 2047SOL    HW2 6147   3.047   2.265   3.081
 2048SOL     OW 6148   1.926   3.426   3.193
 2048SOL    HW1 6149   1.880   3.508   3.159
 2048SOL    HW2 6150   2.024   3.445   3.202
 2049SOL     OW 6151   2.229   2.962   2.363
 2049SOL    HW1 6152   2.222   3.045   2.307
 2049SOL    HW2 6153   2.233   2.882   2.303
 2050SOL     OW 6154   2.428   2.399   2.727
 2050SOL    HW1 6155   2.440   2.465   2.653
 2050SOL    HW2 6156   2.474   2.433   2.810
 2051SOL     OW 6157   3.114   3.210   2.250
 2051SOL    HW1 6158   3.164   3.287   2.290
 2051SOL    HW2 6159   3.019   3.212   2.282
 2052SOL     OW 6160   3.134   3.307   3.004
 2052SOL    HW1 6161   3.181   3.320   3.091
 2052SOL    HW2 6162   3.068   3.233   3.013
 2053SOL     OW 6163   3.444   2.501   2.334
 2053SOL    HW1 6164   3.413   2.562   2.407
 2053SOL    HW2 6165   3.494   2.553   2.265
 2054SOL     OW 6166   2.216   3.372   3.191
 2054SOL    HW1 6167   2.195   3.328   3.104
 2054SOL    HW2 6168   2.313   3.398   3.194
 2055SOL     OW 6169   2.264   2.613   3.460
 2055SOL    HW1 6170   2.332   2.668   3.413
 2055SOL    HW2 6171   2.304   2.525   3.487
 2056SOL     OW 6172   3.449   2.641   3.532
 2056SOL    HW1 6173   3.357   2.679   3.527
 2056SOL    HW2 6174   3.509   2.688   3.467
 2057SOL     OW 6175   2.875   1.967   3.632
 2057SOL    HW1 6176   2.881   2.052   3.580
 2057SOL    HW2 6177   2.907   1.891   3.575
 2058SOL     OW 6178   2.366   1.912   3.602
 2058SOL    HW1 6179   2.324   1.855   3.532
 2058SOL    HW2 6180   2.300   1.981   3.634
 2059SOL     OW 6181   2.435   2.732   2.891
 2059SOL    HW1 6182   2.479   2.821   2.882
 2059SOL    HW2 6183   2.372   2.732   2.968
 2060SOL     OW 6184   3.222   2.724   2.907
 2060SOL    HW1 6185   3.147   2.724   2.841
 2060SOL    HW2 6186   3.259   2.632   2.916
 2061SOL     OW 6187   3.071   2.387   2.137
 2061SOL    HW1 6188   3.084   2.303   2.191
 2061SOL    HW2 6189   3.042   2.461   2.197
 2062SOL     OW 6190   2.169   2.075   3.093
 2062SOL    HW1 6191   2.146   2.112   3.183
 2062SOL    HW2 6192   2.139   1.980   3.087
 2063SOL     OW 6193   1.899   3.172   3.144
 2063SOL    HW1 6194   1.952   3.123   3.212
 2063SOL    HW2 6195   1.921   3.270   3.149
 2064SOL     OW 6196   2.594   2.496   2.926
 2064SOL    HW1 6197   2.653   2.470   2.850
 2064SOL    HW2 6198   2.566   2.592   2.915
 2065SOL     OW 6199   3.590   2.797   3.716
 2065SOL    HW1 6200   3.544   2.790   3.627
 2065SOL    HW2 6201   3.528   2.841   3.782
 2066SOL     OW 6202   2.169   1.925   2.480
 2066SOL    HW1 6203   2.158   2.019   2.513
 2066SOL    HW2 6204   2.164   1.862   2.557
 2067SOL     OW 6205   3.484   2.229   2.236
 2067SOL    HW1 6206   3.486   2.153   2.300
 2067SOL    HW2 6207   3.436   2.306   2.276
 2068SOL     OW 6208   2.885   2.628   2.828
 2068SOL    HW1 6209   2.900   2.649   2.924
 2068SOL    HW2 6210   2.855   2.533   2.819
 2069SOL     OW 6211   2.842   3.435   3.562
 2069SOL    HW1 6212   2.822   3.479   3.474
 2069SOL    HW2 6213   2.881   3.344   3.546
 2070SOL     OW 6214   3.721   3.380   3.467
 2070SOL    HW1 6215   3.735   3.407   3.372
 2070SOL    HW2 6216   3.804   3.402   3.520
 2071SOL     OW 6217   2.212   2.760   3.666
 2071SOL    HW1 6218   2.288   2.804   3.714
 2071SOL    HW2 6219   2.247   2.713   3.584
 2072SOL     OW 6220   3.402   2.136   1.987
 2072SOL    HW1 6221   3.341   2.061   2.010
 2072SOL    HW2 6222   3.424   2.188   2.070
 2073SOL     OW 6223   3.165   2.700   1.904
 2073SOL    HW1 6224   3.199   2.607   1.919
 2073SOL    HW2 6225   3.183   2.727   1.809
 2074SOL     OW 6226   2.930   3.195   2.711
 2074SOL    HW1 6227   2.937   3.111   2.656
 2074SOL    HW2 6228   2.992   3.264   2.675
 2075SOL     OW 6229   2.181   2.672   2.811
 2075SOL    HW1 6230   2.274   2.708   2.816
 2075SOL    HW2 6231   2.175   2.587   2.863
 2076SOL     OW 6232   2.201   2.371   2.868
 2076SOL    HW1 6233   2.149   2.288   2.851
 2076SOL    HW2 6234   2.278   2.376   2.804
 2077SOL     OW 6235   3.000   2.242   3.540
 2077SOL    HW1 6236   2.955   2.305   3.604
 2077SOL    HW2 6237   3.093   2.273   3.523
 2078SOL     OW 6238   3.022   2.069   3.339
 2078SOL    HW1 6239   3.022   2.133   3.416
 2078SOL    HW2 6240   3.050   2.117   3.256
 2079SOL     OW 6241   1.870   3.188   2.062
 2079SOL    HW1 6242   1.777   3.209   2.031
 2079SOL    HW2 6243   1.880   3.089   2.075
 2080SOL     OW 6244   1.950   3.663   2.789
 2080SOL    HW1 6245   1.908   3.577   2.762
 2080SOL    HW2 6246   2.044   3.666   2.755
 2081SOL     OW 6247   2.366   3.430   2.772
 2081SOL    HW1 6248   2.432   3.504   2.781
 2081SOL    HW2 6249   2.410   3.351   2.730
 2082SOL     OW 6250   2.864   2.658   3.100
 2082SOL    HW1 6251   2.905   2.626   3.186
 2082SOL    HW2 6252   2.768   2.631   3.097
 2083SOL     OW 6253   1.902   2.406   2.976
 2083SOL    HW1 6254   1.987   2.373   2.935
 2083SOL    HW2 6255   1.915   2.421   3.074
 2084SOL     OW 6256   2.051   2.382   3.584
 2084SOL    HW1 6257   2.110   2.342   3.514
 2084SOL    HW2 6258   1.993   2.453   3.543
 2085SOL     OW 6259   3.231   2.812   3.522
 2085SOL    HW1 6260   3.270   2.901   3.542
 2085SOL    HW2 6261   3.241   2.792   3.425
 2086SOL     OW 6262   2.677   2.434   2.187
 2086SOL    HW1 6263   2.684   2.345   2.141
 2086SOL    HW2 6264   2.583   2.468   2.179
 2087SOL     OW 6265   3.519   2.466   3.068
 2087SOL    HW1 6266   3.481   2.397   3.130
 2087SOL    HW2 6267   3.601   2.430   3.024
 2088SOL     OW 6268   2.114   3.426   3.606
 2088SOL    HW1 6269   2.084   3.483   3.682
 2088SOL    HW2 6270   2.107   3.329   3.632
 2089SOL     OW 6271   2.533   2.326   3.131
 2089SOL    HW1 6272   2.499   2.237   3.101
 2089SOL    HW2 6273   2.559   2.380   3.051
 2090SOL     OW 6274   2.792   3.540   3.327
 2090SOL    HW1 6275   2.768   3.522   3.232
 2090SOL    HW2 6276   2.822   3.634   3.337
 2091SOL     OW 6277   2.021   2.999   3.328
 2091SOL    HW1 6278   2.043   2.938   3.404
 2091SOL    HW2 6279   2.031   2.950   3.242
 2092SOL     OW 6280   3.209   2.921   3.096
 2092SOL    HW1 6281   3.233   2.858   3.022
 2092SOL    HW2 6282   3.119   2.961   3.078
 2093SOL     OW 6283   3.164   2.717   2.171
 2093SOL    HW1 6284   3.078   2.686   2.213
 2093SOL    HW2 6285   3.160   2.703   2.072
 2094SOL     OW 6286   3.621   3.609   3.016
 2094SOL    HW1 6287   3.682   3.639   2.943
 2094SOL    HW2 6288   3.583   3.520   2.994
 2095SOL     OW 6289   3.114   3.593   2.990
 2095SOL    HW1 6290   3.198   3.598   2.936
 2095SOL    HW2 6291   3.091   3.497   3.008
 2096SOL     OW 6292   1.945   3.120   2.884
 2096SOL    HW1 6293   1.940   3.119   2.984
 2096SOL    HW2 6294   1.862   3.079   2.846
 2097SOL     OW 6295   2.550   3.524   3.578
 2097SOL    HW1 6296   2.494   3.605   3.587
 2097SOL    HW2 6297   2.602   3.528   3.492
 2098SOL     OW 6298   3.588   1.997   2.385
 2098SOL    HW1 6299   3.661   1.980   2.318
 2098SOL    HW2 6300   3.557   1.910   2.423
 2099SOL     OW 6301   3.250   3.435   2.339
 2099SOL    HW1 6302   3.317   3.447   2.265
 2099SOL    HW2 6303   3.210   3.524   2.362
 2100SOL     OW 6304   1.992   3.656   3.713
 2100SOL    HW1 6305   1.951   3.582   3.766
 2100SOL    HW2 6306   2.056   3.707   3.771
 2101SOL     OW 6307   3.142   2.789   2.534
 2101SOL    HW1 6308   3.202   2.708   2.536
 2101SOL    HW2 6309   3.182   2.858   2.474
 2102SOL     OW 6310   2.692   3.135   3.284
 2102SOL    HW1 6311   2.687   3.168   3.379
 2102SOL    HW2 6312   2.606   3.154   3.238
 2103SOL     OW 6313   2.534   3.478   2.016
 2103SOL    HW1 6314   2.543   3.488   1.917
 2103SOL    HW2 6315   2.494   3.389   2.037
 2104SOL     OW 6316   3.512   3.582   3.256
 2104SOL    HW1 6317   3.565   3.592   3.172
 2104SOL    HW2 6318   3.485   3.672   3.290
 2105SOL     OW 6319   3.703   2.037   2.825
 2105SOL    HW1 6320   3.742   1.952   2.789
 2105SOL    HW2 6321   3.605   2.039   2.806
 2106SOL     OW 6322   3.056   3.474   1.893
 2106SOL    HW1 6323   3.062   3.381   1.930
 2106SOL    HW2 6324   2.997   3.474   1.813
 2107SOL     OW 6325   2.684   2.864   3.234
 2107SOL    HW1 6326   2.724   2.863   3.142
 2107SOL    HW2 6327   2.694   2.956   3.274
 2108SOL     OW 6328   2.778   2.772   2.153
 2108SOL    HW1 6329   2.841   2.810   2.085
 2108SOL    HW2 6330   2.818   2.689   2.192
 2109SOL     OW 6331   3.366   3.469   1.906
 2109SOL    HW1 6332   3.274   3.506   1.913
 2109SOL    HW2 6333   3.404   3.489   1.816
 2110SOL     OW 6334   2.234   3.150   3.352
 2110SOL    HW1 6335   2.221   3.243   3.318
 2110SOL    HW2 6336   2.150   3.098   3.339
 2111SOL     OW 6337   3.476   3.154   3.151
 2111SOL    HW1 6338   3.536   3.157   3.231
 2111SOL    HW2 6339   3.401   3.218   3.164
 2112SOL     OW 6340   2.901   2.960   2.558
 2112SOL    HW1 6341   2.831   2.913   2.612
 2112SOL    HW2 6342   2.960   2.892   2.515
 2113SOL     OW 6343   2.876   2.098   2.833
 2113SOL    HW1 6344   2.868   2.062   2.740
 2113SOL    HW2 6345   2.874   2.022   2.898
 2114SOL     OW 6346   2.452   3.349   2.353
 2114SOL    HW1 6347   2.494   3.291   2.283
 2114SOL    HW2 6348   2.408   3.428   2.309
 2115SOL     OW 6349   3.571   2.247   3.243
 2115SOL    HW1 6350   3.644   2.316   3.247
 2115SOL    HW2 6351   3.599   2.172   3.184
 2116SOL     OW 6352   2.117   3.210   2.152
 2116SOL    HW1 6353   2.021   3.211   2.125
 2116SOL    HW2 6354   2.129   3.263   2.236
 2117SOL     OW 6355   1.967   2.875   3.588
 2117SOL    HW1 6356   1.890   2.842   3.642
 2117SOL    HW2 6357   2.052   2.845   3.630
 2118SOL     OW 6358   2.534   2.065   3.351
 2118SOL    HW1 6359   2.624   2.049   3.311
 2118SOL    HW2 6360   2.542   2.070   3.450
 2119SOL     OW 6361   1.937   2.207   1.895
 2119SOL    HW1 6362   1.845   2.179   1.866
 2119SOL    HW2 6363   1.968   2.284   1.839
 2120SOL     OW 6364   3.302   2.718   3.260
 2120SOL    HW1 6365   3.245   2.770   3.197
 2120SOL    HW2 6366   3.398   2.730   3.236
 2121SOL     OW 6367   1.934   2.028   2.180
 2121SOL    HW1 6368   1.917   2.111   2.126
 2121SOL    HW2 6369   2.024   1.991   2.158
 2122SOL     OW 6370   3.045   3.197   1.981
 2122SOL    HW1 6371   2.946   3.186   1.983
 2122SOL    HW2 6372   3.079   3.212   2.074
 2123SOL     OW 6373   2.475   2.704   3.293
 2123SOL    HW1 6374   2.531   2.785   3.276
 2123SOL    HW2 6375   2.534   2.624   3.296
 2124SOL     OW 6376   3.355   3.629   2.821
 2124SOL    HW1 6377   3.388   3.693   2.752
 2124SOL    HW2 6378   3.421   3.623   2.896
 2125SOL     OW 6379   2.578   2.427   3.570
 2125SOL    HW1 6380   2.597   2.492   3.644
 2125SOL    HW2 6381   2.638   2.347   3.579
 2126SOL     OW 6382   3.312   3.082   3.495
 2126SOL    HW1 6383   3.303   3.072   3.594
 2126SOL    HW2 6384   3.408   3.075   3.469
 2127SOL     OW 6385   2.252   3.603   3.422
 2127SOL    HW1 6386   2.161   3.644   3.420
 2127SOL    HW2 6387   2.245   3.509   3.454
 2128SOL     OW 6388   3.536   2.745   3.116
 2128SOL    HW1 6389   3.509   2.656   3.079
 2128SOL    HW2 6390   3.537   2.813   3.043
 2129SOL     OW 6391   3.087   2.187   2.311
 2129SOL    HW1 6392   3.152   2.113   2.300
 2129SOL    HW2 6393   3.107   2.237   2.395
 2130SOL     OW 6394   2.456   2.607   2.514
 2130SOL    HW1 6395   2.506   2.692   2.495
 2130SOL    HW2 6396   2.368   2.609   2.466
 2131SOL     OW 6397   3.639   2.204   3.504
 2131SOL    HW1 6398   3.622   2.235   3.410
 2131SOL    HW2 6399   3.555   2.167   3.542
 2132SOL     OW 6400   3.592   2.796   3.379
 2132SOL    HW1 6401   3.630   2.887   3.394
 2132SOL    HW2 6402   3.584   2.779   3.280
 2133SOL     OW 6403   2.721   3.236   1.878
 2133SOL    HW1 6404   2.675   3.251   1.966
 2133SOL    HW2 6405   2.765   3.321   1.848
 2134SOL     OW 6406   2.523   3.652   2.815
 2134SOL    HW1 6407   2.477   3.740   2.802
 2134SOL    HW2 6408   2.622   3.664   2.808
 2135SOL     OW 6409   2.721   2.818   2.723
 2135SOL    HW1 6410   2.775   2.749   2.771
 2135SOL    HW2 6411   2.689   2.887   2.789
 2136SOL     OW 6412   2.945   2.846   1.949
 2136SOL    HW1 6413   2.922   2.899   1.867
 2136SOL    HW2 6414   3.026   2.790   1.930
 2137SOL     OW 6415   3.723   3.431   2.713
 2137SOL    HW1 6416   3.652   3.419   2.643
 2137SOL    HW2 6417   3.724   3.352   2.773
 2138SOL     OW 6418   2.083   3.176   3.706
 2138SOL    HW1 6419   2.018   3.103   3.685
 2138SOL    HW2 6420   2.087   3.190   3.804
 2139SOL     OW 6421   1.941   3.102   2.515
 2139SOL    HW1 6422   1.940   3.055   2.603
 2139SOL    HW2 6423   2.023   3.074   2.464
 2140SOL     OW 6424   2.534   3.253   3.486
 2140SOL    HW1 6425   2.456   3.203   3.524
 2140SOL    HW2 6426   2.531   3.348   3.517
 2141SOL     OW 6427   3.686   2.054   3.089
 2141SOL    HW1 6428   3.682   1.964   3.133
 2141SOL    HW2 6429   3.689   2.043   2.990
 2142SOL     OW 6430   3.567   3.349   2.966
 2142SOL    HW1 6431   3.474   3.324   2.939
 2142SOL    HW2 6432   3.593   3.299   3.048
 2143SOL     OW 6433   2.179   2.409   3.142
 2143SOL    HW1 6434   2.217   2.350   3.214
 2143SOL    HW2 6435   2.219   2.383   3.054
 2144SOL     OW 6436   2.674   3.448   2.549
 2144SOL    HW1 6437   2.706   3.458   2.455
 2144SOL    HW2 6438   2.595   3.386   2.551
 2145SOL     OW 6439   3.286   2.076   2.974
 2145SOL    HW1 6440   3.338   2.011   3.029
 2145SOL    HW2 6441   3.237   2.139   3.035
 2146SOL     OW 6442   2.863   1.896   3.016
 2146SOL    HW1 6443   2.800   1.824   2.985
 2146SOL    HW2 6444   2.956   1.860   3.016
 2147SOL     OW 6445   2.632   3.192   2.163
 2147SOL    HW1 6446   2.586   3.105   2.180
 2147SOL    HW2 6447   2.723   3.189   2.204
 2148SOL     OW 6448   2.480   3.429   3.146
 2148SOL    HW1 6449   2.475   3.511   3.203
 2148SOL    HW2 6450   2.569   3.426   3.101
 2149SOL     OW 6451   3.214   1.914   2.030
 2149SOL    HW1 6452   3.249   1.873   1.946
 2149SOL    HW2 6453   3.124   1.876   2.050
 2150SOL     OW 6454   3.162   2.315   2.553
 2150SOL    HW1 6455   3.103   2.395   2.557
 2150SOL    HW2 6456   3.177   2.280   2.646
 2151SOL     OW 6457   3.455   2.083   2.744
 2151SOL    HW1 6458   3.371   2.082   2.798
 2151SOL    HW2 6459   3.457   2.166   2.688
 2152SOL     OW 6460   1.901   2.939   2.162
 2152SOL    HW1 6461   2.000   2.928   2.153
 2152SOL    HW2 6462   1.861   2.853   2.194
 2153SOL     OW 6463   2.737   3.508   2.199
 2153SOL    HW1 6464   2.660   3.473   2.145
 2153SOL    HW2 6465   2.705   3.579   2.261
 2154SOL     OW 6466   2.092   2.490   3.837
 2154SOL    HW1 6467   1.999   2.488   3.874
 2154SOL    HW2 6468   2.093   2.451   3.745
 2155SOL     OW 6469   2.087   2.137   4.720
 2155SOL    HW1 6470   2.122   2.120   4.812
 2155SOL    HW2 6471   1.999   2.092   4.708
 2156SOL     OW 6472   2.997   2.565   4.441
 2156SOL    HW1 6473   3.054   2.643   4.416
 2156SOL    HW2 6474   2.937   2.591   4.517
 2157SOL     OW 6475   3.617   2.469   3.955
 2157SOL    HW1 6476   3.605   2.456   3.856
 2157SOL    HW2 6477   3.587   2.388   4.004
 2158SOL     OW 6478   3.465   2.309   4.461
 2158SOL    HW1 6479   3.391   2.355   4.411
 2158SOL    HW2 6480   3.516   2.377   4.514
 2159SOL     OW 6481   2.093   3.575   4.207
 2159SOL    HW1 6482   2.127   3.652   4.261
 2159SOL    HW2 6483   2.137   3.575   4.117
 2160SOL     OW 6484   2.092   3.296   4.262
 2160SOL    HW1 6485   2.066   3.392   4.262
 2160SOL    HW2 6486   2.021   3.242   4.307
 2161SOL     OW 6487   2.468   2.826   3.847
 2161SOL    HW1 6488   2.475   2.910   3.793
 2161SOL    HW2 6489   2.514   2.839   3.935
 2162SOL     OW 6490   1.984   2.505   4.287
 2162SOL    HW1 6491   1.939   2.417   4.304
 2162SOL    HW2 6492   1.983   2.559   4.371
 2163SOL     OW 6493   3.704   3.629   4.083
 2163SOL    HW1 6494   3.758   3.600   4.163
 2163SOL    HW2 6495   3.734   3.719   4.054
 2164SOL     OW 6496   1.889   3.458   3.841
 2164SOL    HW1 6497   1.870   3.362   3.862
 2164SOL    HW2 6498   1.856   3.516   3.916
 2165SOL     OW 6499   3.551   2.784   4.336
 2165SOL    HW1 6500   3.646   2.755   4.344
 2165SOL    HW2 6501   3.543   2.849   4.261
 2166SOL     OW 6502   3.503   2.970   4.156
 2166SOL    HW1 6503   3.589   2.972   4.104
 2166SOL    HW2 6504   3.517   3.017   4.244
 2167SOL     OW 6505   2.475   3.227   4.450
 2167SOL    HW1 6506   2.426   3.140   4.459
 2167SOL    HW2 6507   2.452   3.270   4.363
 2168SOL     OW 6508   2.671   1.866   4.226
 2168SOL    HW1 6509   2.711   1.957   4.217
 2168SOL    HW2 6510   2.571   1.874   4.232
 2169SOL     OW 6511   3.387   2.861   3.914
 2169SOL    HW1 6512   3.324   2.785   3.927
 2169SOL    HW2 6513   3.435   2.879   4.000
 2170SOL     OW 6514   3.328   3.279   4.677
 2170SOL    HW1 6515   3.269   3.285   4.757
 2170SOL    HW2 6516   3.313   3.191   4.631
 2171SOL     OW 6517   2.460   2.591   3.994
 2171SOL    HW1 6518   2.484   2.660   3.926
 2171SOL    HW2 6519   2.382   2.624   4.048
 2172SOL     OW 6520   3.143   2.207   4.668
 2172SOL    HW1 6521   3.057   2.157   4.655
 2172SOL    HW2 6522   3.205   2.153   4.724
 2173SOL     OW 6523   3.438   3.524   4.031
 2173SOL    HW1 6524   3.527   3.570   4.034
 2173SOL    HW2 6525   3.417   3.500   3.936
 2174SOL     OW 6526   2.903   2.563   4.153
 2174SOL    HW1 6527   2.929   2.559   4.249
 2174SOL    HW2 6528   2.818   2.512   4.139
 2175SOL     OW 6529   1.938   2.673   4.513
 2175SOL    HW1 6530   2.037   2.661   4.522
 2175SOL    HW2 6531   1.914   2.768   4.534
 2176SOL     OW 6532   2.727   2.210   3.919
 2176SOL    HW1 6533   2.786   2.273   3.870
 2176SOL    HW2 6534   2.746   2.116   3.890
 2177SOL     OW 6535   3.224   3.006   4.269
 2177SOL    HW1 6536   3.307   2.977   4.221
 2177SOL    HW2 6537   3.175   3.073   4.213
 2178SOL     OW 6538   2.870   3.318   4.201
 2178SOL    HW1 6539   2.824   3.390   4.149
 2178SOL    HW2 6540   2.866   3.338   4.299
 2179SOL     OW 6541   2.213   3.663   4.577
 2179SOL    HW1 6542   2.263   3.577   4.583
 2179SOL    HW2 6543   2.278   3.740   4.574
 2180SOL     OW 6544   3.657   2.928   4.597
 2180SOL    HW1 6545   3.595   2.913   4.521
 2180SOL    HW2 6546   3.605   2.939   4.682
 2181SOL     OW 6547   2.183   2.805   3.966
 2181SOL    HW1 6548   2.265   2.844   3.924
 2181SOL    HW2 6549   2.156   2.723   3.917
 2182SOL     OW 6550   2.973   3.638   3.961
 2182SOL    HW1 6551   2.913   3.576   4.011
 2182SOL    HW2 6552   3.004   3.594   3.876
 2183SOL     OW 6553   3.494   3.239   3.805
 2183SOL    HW1 6554   3.462   3.333   3.795
 2183SOL    HW2 6555   3.418   3.176   3.793
 2184SOL     OW 6556   2.326   3.605   4.047
 2184SOL    HW1 6557   2.359   3.644   4.133
 2184SOL    HW2 6558   2.402   3.598   3.982
 2185SOL     OW 6559   3.262   1.969   4.150
 2185SOL    HW1 6560   3.238   1.932   4.060
 2185SOL    HW2 6561   3.361   1.985   4.154
 2186SOL     OW 6562   2.244   2.562   4.204
 2186SOL    HW1 6563   2.289   2.472   4.201
 2186SOL    HW2 6564   2.150   2.551   4.237
 2187SOL     OW 6565   2.476   1.984   3.841
 2187SOL    HW1 6566   2.574   1.962   3.848
 2187SOL    HW2 6567   2.445   1.967   3.748
 2188SOL     OW 6568   2.401   1.926   4.236
 2188SOL    HW1 6569   2.320   1.927   4.294
 2188SOL    HW2 6570   2.404   2.009   4.181
 2189SOL     OW 6571   3.296   3.050   3.765
 2189SOL    HW1 6572   3.328   2.974   3.822
 2189SOL    HW2 6573   3.204   3.077   3.795
 2190SOL     OW 6574   2.159   1.897   3.895
 2190SOL    HW1 6575   2.208   1.981   3.874
 2190SOL    HW2 6576   2.221   1.832   3.940
 2191SOL     OW 6577   2.797   2.098   4.204
 2191SOL    HW1 6578   2.749   2.139   4.126
 2191SOL    HW2 6579   2.896   2.096   4.185
 2192SOL     OW 6580   2.321   3.014   4.465
 2192SOL    HW1 6581   2.250   2.987   4.530
 2192SOL    HW2 6582   2.295   2.986   4.372
 2193SOL     OW 6583   3.133   3.659   4.315
 2193SOL    HW1 6584   3.177   3.723   4.251
 2193SOL    HW2 6585   3.083   3.711   4.385
 2194SOL     OW 6586   2.894   2.411   3.740
 2194SOL    HW1 6587   2.853   2.493   3.701
 2194SOL    HW2 6588   2.958   2.437   3.813
 2195SOL     OW 6589   2.728   2.316   4.366
 2195SOL    HW1 6590   2.696   2.388   4.304
 2195SOL    HW2 6591   2.752   2.235   4.313
 2196SOL     OW 6592   3.328   2.452   4.716
 2196SOL    HW1 6593   3.298   2.357   4.723
 2196SOL    HW2 6594   3.401   2.468   4.782
 2197SOL     OW 6595   3.719   2.695   4.101
 2197SOL    HW1 6596   3.761   2.631   4.165
 2197SOL    HW2 6597   3.681   2.644   4.023
 2198SOL     OW 6598   2.350   3.247   3.898
 2198SOL    HW1 6599   2.263   3.232   3.945
 2198SOL    HW2 6600   2.333   3.273   3.803
 2199SOL     OW 6601   3.252   2.437   3.802
 2199SOL    HW1 6602   3.198   2.416   3.883
 2199SOL    HW2 6603   3.343   2.396   3.811
 2200SOL     OW 6604   2.389   2.118   4.052
 2200SOL    HW1 6605   2.416   2.059   3.977
 2200SOL    HW2 6606   2.389   2.213   4.021
 2201SOL     OW 6607   2.567   2.912   4.092
 2201SOL    HW1 6608   2.553   2.919   4.191
 2201SOL    HW2 6609   2.651   2.861   4.074
 2202SOL     OW 6610   2.229   2.962   4.225
 2202SOL    HW1 6611   2.222   3.045   4.169
 2202SOL    HW2 6612   2.233   2.882   4.165
 2203SOL     OW 6613   3.114   3.210   4.112
 2203SOL    HW1 6614   3.164   3.287   4.152
 2203SOL    HW2 6615   3.019   3.212   4.144
 2204SOL     OW 6616   3.444   2.501   4.196
 2204SOL    HW1 6617   3.413   2.562   4.269
 2204SOL    HW2 6618   3.494   2.553   4.127
 2205SOL     OW 6619   3.071   2.387   3.999
 2205SOL    HW1 6620   3.084   2.303   4.053
 2205SOL    HW2 6621   3.042   2.461   4.059
 2206SOL     OW 6622   2.169   1.925   4.342
 2206SOL    HW1 6623   2.158   2.019   4.375
 2206SOL    HW2 6624   2.164   1.862   4.419
 2207SOL     OW 6625   3.484   2.229   4.098
 2207SOL    HW1 6626   3.486   2.153   4.162
 2207SOL    HW2 6627   3.436   2.306   4.138
 2208SOL     OW 6628   3.402   2.136   3.849
 2208SOL    HW1 6629   3.341   2.061   3.872
 2208SOL    HW2 6630   3.424   2.188   3.932
 2209SOL     OW 6631   3.165   2.700   3.766
 2209SOL    HW1 6632   3.199   2.607   3.781
 2209SOL    HW2 6633   3.183   2.727   3.671
 2210SOL     OW 6634   1.870   3.188   3.924
 2210SOL    HW1 6635   1.777   3.209   3.893
 2210SOL    HW2 6636   1.880   3.089   3.937
 2211SOL     OW 6637   2.677   2.434   4.049
 2211SOL    HW1 6638   2.684   2.345   4.003
 2211SOL    HW2 6639   2.583   2.468   4.041
 2212SOL     OW 6640   2.335   2.362   3.915
 2212SOL    HW1 6641   2.396   2.442   3.919
 2212SOL    HW2 6642   2.240   2.393   3.922
 2213SOL     OW 6643   3.164   2.717   4.033
 2213SOL    HW1 6644   3.078   2.686   4.075
 2213SOL    HW2 6645   3.160   2.703   3.934
 2214SOL     OW 6646   3.588   1.997   4.247
 2214SOL    HW1 6647   3.661   1.980   4.180
 2214SOL    HW2 6648   3.557   1.910   4.285
 2215SOL     OW 6649   3.250   3.435   4.201
 2215SOL    HW1 6650   3.317   3.447   4.127
 2215SOL    HW2 6651   3.210   3.524   4.224
 2216SOL     OW 6652   2.534   3.478   3.878
 2216SOL    HW1 6653   2.543   3.488   3.779
 2216SOL    HW2 6654   2.494   3.389   3.899
 2217SOL     OW 6655   3.703   2.037   4.687
 2217SOL    HW1 6656   3.742   1.952   4.651
 2217SOL    HW2 6657   3.605   2.039   4.668
 2218SOL     OW 6658   3.056   3.474   3.755
 2218SOL    HW1 6659   3.062   3.381   3.792
 2218SOL    HW2 6660   2.997   3.474   3.675
 2219SOL     OW 6661   2.778   2.772   4.015
 2219SOL    HW1 6662   2.841   2.810   3.947
 2219SOL    HW2 6663   2.818   2.689   4.054
 2220SOL     OW 6664   3.366   3.469   3.768
 2220SOL    HW1 6665   3.274   3.506   3.775
 2220SOL    HW2 6666   3.404   3.489   3.678
 2221SOL     OW 6667   2.452   3.349   4.215
 2221SOL    HW1 6668   2.494   3.291   4.145
 2221SOL    HW2 6669   2.408   3.428   4.171
 2222SOL     OW 6670   2.117   3.210   4.014
 2222SOL    HW1 6671   2.021   3.211   3.987
 2222SOL    HW2 6672   2.129   3.263   4.098
 2223SOL     OW 6673   1.937   2.207   3.757
 2223SOL    HW1 6674   1.845   2.179   3.728
 2223SOL    HW2 6675   1.968   2.284   3.701
 2224SOL     OW 6676   1.934   2.028   4.042
 2224SOL    HW1 6677   1.917   2.111   3.988
 2224SOL    HW2 6678   2.024   1.991   4.020
 2225SOL     OW 6679   3.045   3.197   3.843
 2225SOL    HW1 6680   2.946   3.186   3.845
 2225SOL    HW2 6681   3.079   3.212   3.936
 2226SOL     OW 6682   3.087   2.187   4.173
 2226SOL    HW1 6683   3.152   2.113   4.162
 2226SOL    HW2 6684   3.107   2.237   4.257
 2227SOL     OW 6685   2.456   2.607   4.376
 2227SOL    HW1 6686   2.506   2.692   4.357
 2227SOL    HW2 6687   2.368   2.609   4.328
 2228SOL     OW 6688   2.721   3.236   3.740
 2228SOL    HW1 6689   2.675   3.251   3.828
 2228SOL    HW2 6690   2.765   3.321   3.710
 2229SOL     OW 6691   2.945   2.846   3.811
 2229SOL    HW1 6692   2.922   2.899   3.729
 2229SOL    HW2 6693   3.026   2.790   3.792
 2230SOL     OW 6694   1.941   3.102   4.377
 2230SOL    HW1 6695   1.940   3.055   4.465
 2230SOL    HW2 6696   2.023   3.074   4.326
 2231SOL     OW 6697   2.290   2.286   4.244
 2231SOL    HW1 6698   2.320   2.214   4.182
 2231SOL    HW2 6699   2.251   2.246   4.327
 2232SOL     OW 6700   2.674   3.448   4.411
 2232SOL    HW1 6701   2.706   3.458   4.317
 2232SOL    HW2 6702   2.595   3.386   4.413
 2233SOL     OW 6703   2.632   3.192   4.025
 2233SOL    HW1 6704   2.586   3.105   4.042
 2233SOL    HW2 6705   2.723   3.189   4.066
 2234SOL     OW 6706   3.214   1.914   3.892
 2234SOL    HW1 6707   3.249   1.873   3.808
 2234SOL    HW2 6708   3.124   1.876   3.912
 2235SOL     OW 6709   3.162   2.315   4.415
 2235SOL    HW1 6710   3.103   2.395   4.419
 2235SOL    HW2 6711   3.177   2.280   4.508
 2236SOL     OW 6712   1.901   2.939   4.024
 2236SOL    HW1 6713   2.000   2.928   4.015
 2236SOL    HW2 6714   1.861   2.853   4.056
 2237SOL     OW 6715   2.737   3.508   4.061
 2237SOL    HW1 6716   2.660   3.473   4.007
 2237SOL    HW2 6717   2.705   3.579   4.123
 2238SOL     OW 6718   2.092   4.352   0.113
 2238SOL    HW1 6719   1.999   4.350   0.150
 2238SOL    HW2 6720   2.093   4.313   0.021
 2239SOL     OW 6721   2.087   3.999   0.996
 2239SOL    HW1 6722   2.122   3.982   1.088
 2239SOL    HW2 6723   1.999   3.954   0.984
 2240SOL     OW 6724   1.881   4.092   0.647
 2240SOL    HW1 6725   1.799   4.135   0.686
 2240SOL    HW2 6726   1.853   4.019   0.584
 2241SOL     OW 6727   3.617   4.331   0.231
 2241SOL    HW1 6728   3.605   4.318   0.132
 2241SOL    HW2 6729   3.587   4.250   0.280
 2242SOL     OW 6730   2.547   4.736   0.665
 2242SOL    HW1 6731   2.616   4.720   0.735
 2242SOL    HW2 6732   2.474   4.793   0.703
 2243SOL     OW 6733   2.300   4.116   1.499
 2243SOL    HW1 6734   2.382   4.060   1.508
 2243SOL    HW2 6735   2.219   4.058   1.503
 2244SOL     OW 6736   3.465   4.171   0.737
 2244SOL    HW1 6737   3.391   4.217   0.687
 2244SOL    HW2 6738   3.516   4.239   0.790
 2245SOL     OW 6739   3.456   3.838   1.480
 2245SOL    HW1 6740   3.438   3.905   1.408
 2245SOL    HW2 6741   3.453   3.884   1.569
 2246SOL     OW 6742   1.984   4.367   0.563
 2246SOL    HW1 6743   1.939   4.279   0.580
 2246SOL    HW2 6744   1.983   4.421   0.647
 2247SOL     OW 6745   1.975   4.461   1.597
 2247SOL    HW1 6746   2.063   4.448   1.642
 2247SOL    HW2 6747   1.962   4.558   1.575
 2248SOL     OW 6748   2.671   3.728   0.502
 2248SOL    HW1 6749   2.711   3.819   0.493
 2248SOL    HW2 6750   2.571   3.736   0.508
 2249SOL     OW 6751   2.179   3.975   1.801
 2249SOL    HW1 6752   2.250   4.046   1.807
 2249SOL    HW2 6753   2.091   4.014   1.829
 2250SOL     OW 6754   3.143   4.069   0.944
 2250SOL    HW1 6755   3.057   4.019   0.931
 2250SOL    HW2 6756   3.205   4.015   1.000
 2251SOL     OW 6757   2.669   4.329   1.465
 2251SOL    HW1 6758   2.622   4.326   1.554
 2251SOL    HW2 6759   2.618   4.274   1.399
 2252SOL     OW 6760   3.256   4.193   1.674
 2252SOL    HW1 6761   3.236   4.236   1.762
 2252SOL    HW2 6762   3.334   4.131   1.683
 2253SOL     OW 6763   2.853   4.134   1.242
 2253SOL    HW1 6764   2.776   4.168   1.296
 2253SOL    HW2 6765   2.819   4.083   1.163
 2254SOL     OW 6766   2.903   4.425   0.429
 2254SOL    HW1 6767   2.929   4.421   0.525
 2254SOL    HW2 6768   2.818   4.374   0.415
 2255SOL     OW 6769   2.727   4.072   0.195
 2255SOL    HW1 6770   2.786   4.135   0.146
 2255SOL    HW2 6771   2.746   3.978   0.166
 2256SOL     OW 6772   3.581   4.309   1.831
 2256SOL    HW1 6773   3.555   4.398   1.795
 2256SOL    HW2 6774   3.579   4.241   1.758
 2257SOL     OW 6775   2.412   3.920   0.885
 2257SOL    HW1 6776   2.407   3.915   0.985
 2257SOL    HW2 6777   2.414   4.016   0.856
 2258SOL     OW 6778   3.320   4.459   0.728
 2258SOL    HW1 6779   3.315   4.394   0.803
 2258SOL    HW2 6780   3.400   4.518   0.741
 2259SOL     OW 6781   2.064   4.009   1.498
 2259SOL    HW1 6782   1.984   4.069   1.485
 2259SOL    HW2 6783   2.054   3.960   1.584
 2260SOL     OW 6784   3.262   3.831   0.426
 2260SOL    HW1 6785   3.238   3.794   0.336
 2260SOL    HW2 6786   3.361   3.847   0.430
 2261SOL     OW 6787   2.244   4.424   0.480
 2261SOL    HW1 6788   2.289   4.334   0.477
 2261SOL    HW2 6789   2.150   4.413   0.513
 2262SOL     OW 6790   3.409   3.946   1.729
 2262SOL    HW1 6791   3.404   3.983   1.821
 2262SOL    HW2 6792   3.337   3.877   1.717
 2263SOL     OW 6793   2.476   3.846   0.117
 2263SOL    HW1 6794   2.574   3.824   0.124
 2263SOL    HW2 6795   2.445   3.829   0.024
 2264SOL     OW 6796   2.643   3.988   1.749
 2264SOL    HW1 6797   2.710   3.927   1.792
 2264SOL    HW2 6798   2.570   4.007   1.814
 2265SOL     OW 6799   3.213   4.314   1.433
 2265SOL    HW1 6800   3.241   4.271   1.518
 2265SOL    HW2 6801   3.238   4.410   1.434
 2266SOL     OW 6802   2.784   4.227   0.899
 2266SOL    HW1 6803   2.759   4.218   0.803
 2266SOL    HW2 6804   2.832   4.145   0.930
 2267SOL     OW 6805   2.401   3.788   0.512
 2267SOL    HW1 6806   2.320   3.789   0.570
 2267SOL    HW2 6807   2.404   3.871   0.457
 2268SOL     OW 6808   2.797   3.960   0.480
 2268SOL    HW1 6809   2.749   4.001   0.402
 2268SOL    HW2 6810   2.896   3.958   0.461
 2269SOL     OW 6811   2.938   4.407   1.464
 2269SOL    HW1 6812   2.858   4.346   1.467
 2269SOL    HW2 6813   3.019   4.354   1.440
 2270SOL     OW 6814   2.894   4.273   0.016
 2270SOL    HW1 6815   2.853   4.355  -0.023
 2270SOL    HW2 6816   2.958   4.299   0.089
 2271SOL     OW 6817   1.940   4.280   1.386
 2271SOL    HW1 6818   2.032   4.279   1.345
 2271SOL    HW2 6819   1.934   4.354   1.453
 2272SOL     OW 6820   2.423   3.946   1.147
 2272SOL    HW1 6821   2.461   3.862   1.184
 2272SOL    HW2 6822   2.335   3.965   1.191
 2273SOL     OW 6823   2.728   4.178   0.642
 2273SOL    HW1 6824   2.696   4.250   0.580
 2273SOL    HW2 6825   2.752   4.097   0.589
 2274SOL     OW 6826   2.879   3.763   0.753
 2274SOL    HW1 6827   2.807   3.768   0.684
 2274SOL    HW2 6828   2.855   3.694   0.822
 2275SOL     OW 6829   3.328   4.314   0.992
 2275SOL    HW1 6830   3.298   4.219   0.999
 2275SOL    HW2 6831   3.401   4.330   1.058
 2276SOL     OW 6832   3.252   4.299   0.078
 2276SOL    HW1 6833   3.198   4.278   0.159
 2276SOL    HW2 6834   3.343   4.258   0.087
 2277SOL     OW 6835   2.389   3.980   0.328
 2277SOL    HW1 6836   2.416   3.921   0.253
 2277SOL    HW2 6837   2.389   4.075   0.297
 2278SOL     OW 6838   2.777   3.813   1.402
 2278SOL    HW1 6839   2.802   3.793   1.307
 2278SOL    HW2 6840   2.849   3.869   1.444
 2279SOL     OW 6841   3.136   4.110   1.262
 2279SOL    HW1 6842   3.157   4.184   1.326
 2279SOL    HW2 6843   3.047   4.127   1.219
 2280SOL     OW 6844   2.428   4.261   0.865
 2280SOL    HW1 6845   2.440   4.327   0.791
 2280SOL    HW2 6846   2.474   4.295   0.948
 2281SOL     OW 6847   3.444   4.363   0.472
 2281SOL    HW1 6848   3.413   4.424   0.545
 2281SOL    HW2 6849   3.494   4.415   0.403
 2282SOL     OW 6850   2.875   3.829   1.770
 2282SOL    HW1 6851   2.881   3.914   1.718
 2282SOL    HW2 6852   2.907   3.753   1.713
 2283SOL     OW 6853   2.366   3.774   1.740
 2283SOL    HW1 6854   2.324   3.717   1.670
 2283SOL    HW2 6855   2.300   3.843   1.772
 2284SOL     OW 6856   3.071   4.249   0.275
 2284SOL    HW1 6857   3.084   4.165   0.329
 2284SOL    HW2 6858   3.042   4.323   0.335
 2285SOL     OW 6859   2.169   3.937   1.231
 2285SOL    HW1 6860   2.146   3.974   1.321
 2285SOL    HW2 6861   2.139   3.842   1.225
 2286SOL     OW 6862   2.594   4.358   1.064
 2286SOL    HW1 6863   2.653   4.332   0.988
 2286SOL    HW2 6864   2.566   4.454   1.053
 2287SOL     OW 6865   2.169   3.787   0.618
 2287SOL    HW1 6866   2.158   3.881   0.651
 2287SOL    HW2 6867   2.164   3.724   0.695
 2288SOL     OW 6868   3.484   4.091   0.374
 2288SOL    HW1 6869   3.486   4.015   0.438
 2288SOL    HW2 6870   3.436   4.168   0.414
 2289SOL     OW 6871   3.402   3.998   0.125
 2289SOL    HW1 6872   3.341   3.923   0.148
 2289SOL    HW2 6873   3.424   4.050   0.208
 2290SOL     OW 6874   2.181   4.534   0.949
 2290SOL    HW1 6875   2.274   4.570   0.954
 2290SOL    HW2 6876   2.175   4.449   1.001
 2291SOL     OW 6877   2.201   4.233   1.006
 2291SOL    HW1 6878   2.149   4.150   0.989
 2291SOL    HW2 6879   2.278   4.238   0.942
 2292SOL     OW 6880   3.000   4.104   1.678
 2292SOL    HW1 6881   2.955   4.167   1.742
 2292SOL    HW2 6882   3.093   4.135   1.661
 2293SOL     OW 6883   3.022   3.931   1.477
 2293SOL    HW1 6884   3.022   3.995   1.554
 2293SOL    HW2 6885   3.050   3.979   1.394
 2294SOL     OW 6886   1.902   4.268   1.114
 2294SOL    HW1 6887   1.987   4.235   1.073
 2294SOL    HW2 6888   1.915   4.283   1.212
 2295SOL     OW 6889   2.051   4.244   1.722
 2295SOL    HW1 6890   2.110   4.204   1.652
 2295SOL    HW2 6891   1.993   4.315   1.681
 2296SOL     OW 6892   2.677   4.296   0.325
 2296SOL    HW1 6893   2.684   4.207   0.279
 2296SOL    HW2 6894   2.583   4.330   0.317
 2297SOL     OW 6895   3.519   4.328   1.206
 2297SOL    HW1 6896   3.481   4.259   1.268
 2297SOL    HW2 6897   3.601   4.292   1.162
 2298SOL     OW 6898   2.533   4.188   1.269
 2298SOL    HW1 6899   2.499   4.099   1.239
 2298SOL    HW2 6900   2.559   4.242   1.189
 2299SOL     OW 6901   2.335   4.224   0.191
 2299SOL    HW1 6902   2.396   4.304   0.195
 2299SOL    HW2 6903   2.240   4.255   0.198
 2300SOL     OW 6904   2.765   3.810   0.133
 2300SOL    HW1 6905   2.816   3.811   0.047
 2300SOL    HW2 6906   2.821   3.768   0.204
 2301SOL     OW 6907   3.588   3.859   0.523
 2301SOL    HW1 6908   3.661   3.842   0.456
 2301SOL    HW2 6909   3.557   3.772   0.561
 2302SOL     OW 6910   3.142   4.651   0.672
 2302SOL    HW1 6911   3.202   4.570   0.674
 2302SOL    HW2 6912   3.182   4.720   0.612
 2303SOL     OW 6913   3.703   3.899   0.963
 2303SOL    HW1 6914   3.742   3.814   0.927
 2303SOL    HW2 6915   3.605   3.901   0.944
 2304SOL     OW 6916   2.125   4.050   0.720
 2304SOL    HW1 6917   2.046   4.101   0.686
 2304SOL    HW2 6918   2.116   4.035   0.818
 2305SOL     OW 6919   2.876   3.960   0.971
 2305SOL    HW1 6920   2.868   3.924   0.878
 2305SOL    HW2 6921   2.874   3.884   1.036
 2306SOL     OW 6922   3.571   4.109   1.381
 2306SOL    HW1 6923   3.644   4.178   1.385
 2306SOL    HW2 6924   3.599   4.034   1.322
 2307SOL     OW 6925   2.534   3.927   1.489
 2307SOL    HW1 6926   2.624   3.911   1.449
 2307SOL    HW2 6927   2.542   3.932   1.588
 2308SOL     OW 6928   1.937   4.069   0.033
 2308SOL    HW1 6929   1.845   4.041   0.004
 2308SOL    HW2 6930   1.968   4.146  -0.023
 2309SOL     OW 6931   2.578   4.289   1.708
 2309SOL    HW1 6932   2.597   4.354   1.782
 2309SOL    HW2 6933   2.638   4.209   1.717
 2310SOL     OW 6934   3.087   4.049   0.449
 2310SOL    HW1 6935   3.152   3.975   0.438
 2310SOL    HW2 6936   3.107   4.099   0.533
 2311SOL     OW 6937   3.639   4.066   1.642
 2311SOL    HW1 6938   3.622   4.097   1.548
 2311SOL    HW2 6939   3.555   4.029   1.680
 2312SOL     OW 6940   2.945   4.708   0.087
 2312SOL    HW1 6941   2.922   4.761   0.005
 2312SOL    HW2 6942   3.026   4.652   0.068
 2313SOL     OW 6943   3.686   3.916   1.227
 2313SOL    HW1 6944   3.682   3.826   1.271
 2313SOL    HW2 6945   3.689   3.905   1.128
 2314SOL     OW 6946   2.290   4.148   0.520
 2314SOL    HW1 6947   2.320   4.076   0.458
 2314SOL    HW2 6948   2.251   4.108   0.603
 2315SOL     OW 6949   2.179   4.271   1.280
 2315SOL    HW1 6950   2.217   4.212   1.352
 2315SOL    HW2 6951   2.219   4.245   1.192
 2316SOL     OW 6952   3.286   3.938   1.112
 2316SOL    HW1 6953   3.338   3.873   1.167
 2316SOL    HW2 6954   3.237   4.001   1.173
 2317SOL     OW 6955   2.863   3.758   1.154
 2317SOL    HW1 6956   2.800   3.686   1.123
 2317SOL    HW2 6957   2.956   3.722   1.154
 2318SOL     OW 6958   3.214   3.776   0.168
 2318SOL    HW1 6959   3.249   3.735   0.084
 2318SOL    HW2 6960   3.124   3.738   0.188
 2319SOL     OW 6961   3.162   4.177   0.691
 2319SOL    HW1 6962   3.103   4.257   0.695
 2319SOL    HW2 6963   3.177   4.142   0.784
 2320SOL     OW 6964   3.455   3.945   0.882
 2320SOL    HW1 6965   3.371   3.944   0.936
 2320SOL    HW2 6966   3.457   4.028   0.826
 2321SOL     OW 6967   2.092   4.352   1.975
 2321SOL    HW1 6968   1.999   4.350   2.012
 2321SOL    HW2 6969   2.093   4.313   1.883
 2322SOL     OW 6970   2.087   3.999   2.858
 2322SOL    HW1 6971   2.122   3.982   2.950
 2322SOL    HW2 6972   1.999   3.954   2.846
 2323SOL     OW 6973   1.881   4.092   2.509
 2323SOL    HW1 6974   1.799   4.135   2.548
 2323SOL    HW2 6975   1.853   4.019   2.446
 2324SOL     OW 6976   3.617   4.331   2.093
 2324SOL    HW1 6977   3.605   4.318   1.994
 2324SOL    HW2 6978   3.587   4.250   2.142
 2325SOL     OW 6979   2.547   4.736   2.527
 2325SOL    HW1 6980   2.616   4.720   2.597
 2325SOL    HW2 6981   2.474   4.793   2.565
 2326SOL     OW 6982   2.300   4.116   3.361
 2326SOL    HW1 6983   2.382   4.060   3.370
 2326SOL    HW2 6984   2.219   4.058   3.365
 2327SOL     OW 6985   3.465   4.171   2.599
 2327SOL    HW1 6986   3.391   4.217   2.549
 2327SOL    HW2 6987   3.516   4.239   2.652
 2328SOL     OW 6988   3.456   3.838   3.342
 2328SOL    HW1 6989   3.438   3.905   3.270
 2328SOL    HW2 6990   3.453   3.884   3.431
 2329SOL     OW 6991   1.984   4.367   2.425
 2329SOL    HW1 6992   1.939   4.279   2.442
 2329SOL    HW2 6993   1.983   4.421   2.509
 2330SOL     OW 6994   1.975   4.461   3.459
 2330SOL    HW1 6995   2.063   4.448   3.504
 2330SOL    HW2 6996   1.962   4.558   3.437
 2331SOL     OW 6997   2.671   3.728   2.364
 2331SOL    HW1 6998   2.711   3.819   2.355
 2331SOL    HW2 6999   2.571   3.736   2.370
 2332SOL     OW 7000   2.179   3.975   3.663
 2332SOL    HW1 7001   2.250   4.046   3.669
 2332SOL    HW2 7002   2.091   4.014   3.691
 2333SOL     OW 7003   3.143   4.069   2.806
 2333SOL    HW1 7004   3.057   4.019   2.793
 2333SOL    HW2 7005   3.205   4.015   2.862
 2334SOL     OW 7006   2.669   4.329   3.327
 2334SOL    HW1 7007   2.622   4.326   3.416
 2334SOL    HW2 7008   2.618   4.274   3.261
 2335SOL     OW 7009   3.256   4.193   3.536
 2335SOL    HW1 7010   3.236   4.236   3.624
 2335SOL    HW2 7011   3.334   4.131   3.545
 2336SOL     OW 7012   2.853   4.134   3.104
 2336SOL    HW1 7013   2.776   4.168   3.158
 2336SOL    HW2 7014   2.819   4.083   3.025
 2337SOL     OW 7015   2.903   4.425   2.291
 2337SOL    HW1 7016   2.929   4.421   2.387
 2337SOL    HW2 7017   2.818   4.374   2.277
 2338SOL     OW 7018   2.727   4.072   2.057
 2338SOL    HW1 7019   2.786   4.135   2.008
 2338SOL    HW2 7020   2.746   3.978   2.028
 2339SOL     OW 7021   3.581   4.309   3.693
 2339SOL    HW1 7022   3.555   4.398   3.657
 2339SOL    HW2 7023   3.579   4.241   3.620
 2340SOL     OW 7024   2.412   3.920   2.747
 2340SOL    HW1 7025   2.407   3.915   2.847
 2340SOL    HW2 7026   2.414   4.016   2.718
 2341SOL     OW 7027   3.320   4.459   2.590
 2341SOL    HW1 7028   3.315   4.394   2.665
 2341SOL    HW2 7029   3.400   4.518   2.603
 2342SOL     OW 7030   2.064   4.009   3.360
 2342SOL    HW1 7031   1.984   4.069   3.347
 2342SOL    HW2 7032   2.054   3.960   3.446
 2343SOL     OW 7033   3.262   3.831   2.288
 2343SOL    HW1 7034   3.238   3.794   2.198
 2343SOL    HW2 7035   3.361   3.847   2.292
 2344SOL     OW 7036   2.244   4.424   2.342
 2344SOL    HW1 7037   2.289   4.334   2.339
 2344SOL    HW2 7038   2.150   4.413   2.375
 2345SOL     OW 7039   3.409   3.946   3.591
 2345SOL    HW1 7040   3.404   3.983   3.683
 2345SOL    HW2 7041   3.337   3.877   3.579
 2346SOL     OW 7042   2.476   3.846   1.979
 2346SOL    HW1 7043   2.574   3.824   1.986
 2346SOL    HW2 7044   2.445   3.829   1.886
 2347SOL     OW 7045   2.643   3.988   3.611
 2347SOL    HW1 7046   2.710   3.927   3.654
 2347SOL    HW2 7047   2.570   4.007   3.676
 2348SOL     OW 7048   3.213   4.314   3.295
 2348SOL    HW1 7049   3.241   4.271   3.380
 2348SOL    HW2 7050   3.238   4.410   3.296
 2349SOL     OW 7051   2.784   4.227   2.761
 2349SOL    HW1 7052   2.759   4.218   2.665
 2349SOL    HW2 7053   2.832   4.145   2.792
 2350SOL     OW 7054   2.401   3.788   2.374
 2350SOL    HW1 7055   2.320   3.789   2.432
 2350SOL    HW2 7056   2.404   3.871   2.319
 2351SOL     OW 7057   2.159   3.759   2.033
 2351SOL    HW1 7058   2.208   3.843   2.012
 2351SOL    HW2 7059   2.221   3.694   2.078
 2352SOL     OW 7060   2.797   3.960   2.342
 2352SOL    HW1 7061   2.749   4.001   2.264
 2352SOL    HW2 7062   2.896   3.958   2.323
 2353SOL     OW 7063   2.938   4.407   3.326
 2353SOL    HW1 7064   2.858   4.346   3.329
 2353SOL    HW2 7065   3.019   4.354   3.302
 2354SOL     OW 7066   2.894   4.273   1.878
 2354SOL    HW1 7067   2.853   4.355   1.839
 2354SOL    HW2 7068   2.958   4.299   1.951
 2355SOL     OW 7069   1.940   4.280   3.248
 2355SOL    HW1 7070   2.032   4.279   3.207
 2355SOL    HW2 7071   1.934   4.354   3.315
 2356SOL     OW 7072   2.423   3.946   3.009
 2356SOL    HW1 7073   2.461   3.862   3.046
 2356SOL    HW2 7074   2.335   3.965   3.053
 2357SOL     OW 7075   2.728   4.178   2.504
 2357SOL    HW1 7076   2.696   4.250   2.442
 2357SOL    HW2 7077   2.752   4.097   2.451
 2358SOL     OW 7078   2.879   3.763   2.615
 2358SOL    HW1 7079   2.807   3.768   2.546
 2358SOL    HW2 7080   2.855   3.694   2.684
 2359SOL     OW 7081   3.328   4.314   2.854
 2359SOL    HW1 7082   3.298   4.219   2.861
 2359SOL    HW2 7083   3.401   4.330   2.920
 2360SOL     OW 7084   3.252   4.299   1.940
 2360SOL    HW1 7085   3.198   4.278   2.021
 2360SOL    HW2 7086   3.343   4.258   1.949
 2361SOL     OW 7087   2.389   3.980   2.190
 2361SOL    HW1 7088   2.416   3.921   2.115
 2361SOL    HW2 7089   2.389   4.075   2.159
 2362SOL     OW 7090   2.777   3.813   3.264
 2362SOL    HW1 7091   2.802   3.793   3.169
 2362SOL    HW2 7092   2.849   3.869   3.306
 2363SOL     OW 7093   3.136   4.110   3.124
 2363SOL    HW1 7094   3.157   4.184   3.188
 2363SOL    HW2 7095   3.047   4.127   3.081
 2364SOL     OW 7096   2.428   4.261   2.727
 2364SOL    HW1 7097   2.440   4.327   2.653
 2364SOL    HW2 7098   2.474   4.295   2.810
 2365SOL     OW 7099   3.444   4.363   2.334
 2365SOL    HW1 7100   3.413   4.424   2.407
 2365SOL    HW2 7101   3.494   4.415   2.265
 2366SOL     OW 7102   2.875   3.829   3.632
 2366SOL    HW1 7103   2.881   3.914   3.580
 2366SOL    HW2 7104   2.907   3.753   3.575
 2367SOL     OW 7105   2.366   3.774   3.602
 2367SOL    HW1 7106   2.324   3.717   3.532
 2367SOL    HW2 7107   2.300   3.843   3.634
 2368SOL     OW 7108   3.071   4.249   2.137
 2368SOL    HW1 7109   3.084   4.165   2.191
 2368SOL    HW2 7110   3.042   4.323   2.197
 2369SOL     OW 7111   2.169   3.937   3.093
 2369SOL    HW1 7112   2.146   3.974   3.183
 2369SOL    HW2 7113   2.139   3.842   3.087
 2370SOL     OW 7114   2.594   4.358   2.926
 2370SOL    HW1 7115   2.653   4.332   2.850
 2370SOL    HW2 7116   2.566   4.454   2.915
 2371SOL     OW 7117   2.169   3.787   2.480
 2371SOL    HW1 7118   2.158   3.881   2.513
 2371SOL    HW2 7119   2.164   3.724   2.557
 2372SOL     OW 7120   3.484   4.091   2.236
 2372SOL    HW1 7121   3.486   4.015   2.300
 2372SOL    HW2 7122   3.436   4.168   2.276
 2373SOL     OW 7123   3.402   3.998   1.987
 2373SOL    HW1 7124   3.341   3.923   2.010
 2373SOL    HW2 7125   3.424   4.050   2.070
 2374SOL     OW 7126   2.181   4.534   2.811
 2374SOL    HW1 7127   2.274   4.570   2.816
 2374SOL    HW2 7128   2.175   4.449   2.863
 2375SOL     OW 7129   2.201   4.233   2.868
 2375SOL    HW1 7130   2.149   4.150   2.851
 2375SOL    HW2 7131   2.278   4.238   2.804
 2376SOL     OW 7132   3.000   4.104   3.540
 2376SOL    HW1 7133   2.955   4.167   3.604
 2376SOL    HW2 7134   3.093   4.135   3.523
 2377SOL     OW 7135   3.022   3.931   3.339
 2377SOL    HW1 7136   3.022   3.995   3.416
 2377SOL    HW2 7137   3.050   3.979   3.256
 2378SOL     OW 7138   1.902   4.268   2.976
 2378SOL    HW1 7139   1.987   4.235   2.935
 2378SOL    HW2 7140   1.915   4.283   3.074
 2379SOL     OW 7141   2.051   4.244   3.584
 2379SOL    HW1 7142   2.110   4.204   3.514
 2379SOL    HW2 7143   1.993   4.315   3.543
 2380SOL     OW 7144   2.677   4.296   2.187
 2380SOL    HW1 7145   2.684   4.207   2.141
 2380SOL    HW2 7146   2.583   4.330   2.179
 2381SOL     OW 7147   3.519   4.328   3.068
 2381SOL    HW1 7148   3.481   4.259   3.130
 2381SOL    HW2 7149   3.601   4.292   3.024
 2382SOL     OW 7150   2.533   4.188   3.131
 2382SOL    HW1 7151   2.499   4.099   3.101
 2382SOL    HW2 7152   2.559   4.242   3.051
 2383SOL     OW 7153   2.335   4.224   2.053
 2383SOL    HW1 7154   2.396   4.304   2.057
 2383SOL    HW2 7155   2.240   4.255   2.060
 2384SOL     OW 7156   3.588   3.859   2.385
 2384SOL    HW1 7157   3.661   3.842   2.318
 2384SOL    HW2 7158   3.557   3.772   2.423
 2385SOL     OW 7159   3.142   4.651   2.534
 2385SOL    HW1 7160   3.202   4.570   2.536
 2385SOL    HW2 7161   3.182   4.720   2.474
 2386SOL     OW 7162   3.703   3.899   2.825
 2386SOL    HW1 7163   3.742   3.814   2.789
 2386SOL    HW2 7164   3.605   3.901   2.806
 2387SOL     OW 7165   2.125   4.050   2.582
 2387SOL    HW1 7166   2.046   4.101   2.548
 2387SOL    HW2 7167   2.116   4.035   2.680
 2388SOL     OW 7168   2.876   3.960   2.833
 2388SOL    HW1 7169   2.868   3.924   2.740
 2388SOL    HW2 7170   2.874   3.884   2.898
 2389SOL     OW 7171   3.571   4.109   3.243
 2389SOL    HW1 7172   3.644   4.178   3.247
 2389SOL    HW2 7173   3.599   4.034   3.184
 2390SOL     OW 7174   2.534   3.927   3.351
 2390SOL    HW1 7175   2.624   3.911   3.311
 2390SOL    HW2 7176   2.542   3.932   3.450
 2391SOL     OW 7177   1.937   4.069   1.895
 2391SOL    HW1 7178   1.845   4.041   1.866
 2391SOL    HW2 7179   1.968   4.146   1.839
 2392SOL     OW 7180   1.934   3.890   2.180
 2392SOL    HW1 7181   1.917   3.973   2.126
 2392SOL    HW2 7182   2.024   3.853   2.158
 2393SOL     OW 7183   2.578   4.289   3.570
 2393SOL    HW1 7184   2.597   4.354   3.644
 2393SOL    HW2 7185   2.638   4.209   3.579
 2394SOL     OW 7186   3.087   4.049   2.311
 2394SOL    HW1 7187   3.152   3.975   2.300
 2394SOL    HW2 7188   3.107   4.099   2.395
 2395SOL     OW 7189   3.639   4.066   3.504
 2395SOL    HW1 7190   3.622   4.097   3.410
 2395SOL    HW2 7191   3.555   4.029   3.542
 2396SOL     OW 7192   2.945   4.708   1.949
 2396SOL    HW1 7193   2.922   4.761   1.867
 2396SOL    HW2 7194   3.026   4.652   1.930
 2397SOL     OW 7195   3.686   3.916   3.089
 2397SOL    HW1 7196   3.682   3.826   3.133
 2397SOL    HW2 7197   3.689   3.905   2.990
 2398SOL     OW 7198   2.290   4.148   2.382
 2398SOL    HW1 7199   2.320   4.076   2.320
 2398SOL    HW2 7200   2.251   4.108   2.465
 2399SOL     OW 7201   2.179   4.271   3.142
 2399SOL    HW1 7202   2.217   4.212   3.214
 2399SOL    HW2 7203   2.219   4.245   3.054
 2400SOL     OW 7204   3.286   3.938   2.974
 2400SOL    HW1 7205   3.338   3.873   3.029
 2400SOL    HW2 7206   3.237   4.001   3.035
 2401SOL     OW 7207   2.863   3.758   3.016
 2401SOL    HW1 7208   2.800   3.686   2.985
 2401SOL    HW2 7209   2.956   3.722   3.016
 2402SOL     OW 7210   3.214   3.776   2.030
 2402SOL    HW1 7211   3.249   3.735   1.946
 2402SOL    HW2 7212   3.124   3.738   2.050
 2403SOL     OW 7213   3.162   4.177   2.553
 2403SOL    HW1 7214   3.103   4.257   2.557
 2403SOL    HW2 7215   3.177   4.142   2.646
 2404SOL     OW 7216   3.455   3.945   2.744
 2404SOL    HW1 7217   3.371   3.944   2.798
 2404SOL    HW2 7218   3.457   4.028   2.688
 2405SOL     OW 7219   2.092   4.352   3.837
 2405SOL    HW1 7220   1.999   4.350   3.874
 2405SOL    HW2 7221   2.093   4.313   3.745
 2406SOL     OW 7222   2.087   3.999   4.720
 2406SOL    HW1 7223   2.122   3.982   4.812
 2406SOL    HW2 7224   1.999   3.954   4.708
 2407SOL     OW 7225   2.997   4.427   4.441
 2407SOL    HW1 7226   3.054   4.505   4.416
 2407SOL    HW2 7227   2.937   4.453   4.517
 2408SOL     OW 7228   3.617   4.331   3.955
 2408SOL    HW1 7229   3.605   4.318   3.856
 2408SOL    HW2 7230   3.587   4.250   4.004
 2409SOL     OW 7231   2.547   4.736   4.389
 2409SOL    HW1 7232   2.616   4.720   4.459
 2409SOL    HW2 7233   2.474   4.793   4.427
 2410SOL     OW 7234   3.465   4.171   4.461
 2410SOL    HW1 7235   3.391   4.217   4.411
 2410SOL    HW2 7236   3.516   4.239   4.514
 2411SOL     OW 7237   1.984   4.367   4.287
 2411SOL    HW1 7238   1.939   4.279   4.304
 2411SOL    HW2 7239   1.983   4.421   4.371
 2412SOL     OW 7240   2.671   3.728   4.226
 2412SOL    HW1 7241   2.711   3.819   4.217
 2412SOL    HW2 7242   2.571   3.736   4.232
 2413SOL     OW 7243   3.143   4.069   4.668
 2413SOL    HW1 7244   3.057   4.019   4.655
 2413SOL    HW2 7245   3.205   4.015   4.724
 2414SOL     OW 7246   2.903   4.425   4.153
 2414SOL    HW1 7247   2.929   4.421   4.249
 2414SOL    HW2 7248   2.818   4.374   4.139
 2415SOL     OW 7249   2.727   4.072   3.919
 2415SOL    HW1 7250   2.786   4.135   3.870
 2415SOL    HW2 7251   2.746   3.978   3.890
 2416SOL     OW 7252   3.262   3.831   4.150
 2416SOL    HW1 7253   3.238   3.794   4.060
 2416SOL    HW2 7254   3.361   3.847   4.154
 2417SOL     OW 7255   2.244   4.424   4.204
 2417SOL    HW1 7256   2.289   4.334   4.201
 2417SOL    HW2 7257   2.150   4.413   4.237
 2418SOL     OW 7258   2.476   3.846   3.841
 2418SOL    HW1 7259   2.574   3.824   3.848
 2418SOL    HW2 7260   2.445   3.829   3.748
 2419SOL     OW 7261   2.401   3.788   4.236
 2419SOL    HW1 7262   2.320   3.789   4.294
 2419SOL    HW2 7263   2.404   3.871   4.181
 2420SOL     OW 7264   2.159   3.759   3.895
 2420SOL    HW1 7265   2.208   3.843   3.874
 2420SOL    HW2 7266   2.221   3.694   3.940
 2421SOL     OW 7267   2.797   3.960   4.204
 2421SOL    HW1 7268   2.749   4.001   4.126
 2421SOL    HW2 7269   2.896   3.958   4.185
 2422SOL     OW 7270   2.894   4.273   3.740
 2422SOL    HW1 7271   2.853   4.355   3.701
 2422SOL    HW2 7272   2.958   4.299   3.813
 2423SOL     OW 7273   2.728   4.178   4.366
 2423SOL    HW1 7274   2.696   4.250   4.304
 2423SOL    HW2 7275   2.752   4.097   4.313
 2424SOL     OW 7276   3.328   4.314   4.716
 2424SOL    HW1 7277   3.298   4.219   4.723
 2424SOL    HW2 7278   3.401   4.330   4.782
 2425SOL     OW 7279   3.252   4.299   3.802
 2425SOL    HW1 7280   3.198   4.278   3.883
 2425SOL    HW2 7281   3.343   4.258   3.811
 2426SOL     OW 7282   2.389   3.980   4.052
 2426SOL    HW1 7283   2.416   3.921   3.977
 2426SOL    HW2 7284   2.389   4.075   4.021
 2427SOL     OW 7285   3.444   4.363   4.196
 2427SOL    HW1 7286   3.413   4.424   4.269
 2427SOL    HW2 7287   3.494   4.415   4.127
 2428SOL     OW 7288   3.071   4.249   3.999
 2428SOL    HW1 7289   3.084   4.165   4.053
 2428SOL    HW2 7290   3.042   4.323   4.059
 2429SOL     OW 7291   2.169   3.787   4.342
 2429SOL    HW1 7292   2.158   3.881   4.375
 2429SOL    HW2 7293   2.164   3.724   4.419
 2430SOL     OW 7294   3.484   4.091   4.098
 2430SOL    HW1 7295   3.486   4.015   4.162
 2430SOL    HW2 7296   3.436   4.168   4.138
 2431SOL     OW 7297   3.402   3.998   3.849
 2431SOL    HW1 7298   3.341   3.923   3.872
 2431SOL    HW2 7299   3.424   4.050   3.932
 2432SOL     OW 7300   2.677   4.296   4.049
 2432SOL    HW1 7301   2.684   4.207   4.003
 2432SOL    HW2 7302   2.583   4.330   4.041
 2433SOL     OW 7303   2.335   4.224   3.915
 2433SOL    HW1 7304   2.396   4.304   3.919
 2433SOL    HW2 7305   2.240   4.255   3.922
 2434SOL     OW 7306   3.588   3.859   4.247
 2434SOL    HW1 7307   3.661   3.842   4.180
 2434SOL    HW2 7308   3.557   3.772   4.285
 2435SOL     OW 7309   3.142   4.651   4.396
 2435SOL    HW1 7310   3.202   4.570   4.398
 2435SOL    HW2 7311   3.182   4.720   4.336
 2436SOL     OW 7312   3.703   3.899   4.687
 2436SOL    HW1 7313   3.742   3.814   4.651
 2436SOL    HW2 7314   3.605   3.901   4.668
 2437SOL     OW 7315   1.937   4.069   3.757
 2437SOL    HW1 7316   1.845   4.041   3.728
 2437SOL    HW2 7317   1.968   4.146   3.701
 2438SOL     OW 7318   1.934   3.890   4.042
 2438SOL    HW1 7319   1.917   3.973   3.988
 2438SOL    HW2 7320   2.024   3.853   4.020
 2439SOL     OW 7321   3.087   4.049   4.173
 2439SOL    HW1 7322   3.152   3.975   4.162
 2439SOL    HW2 7323   3.107   4.099   4.257
 2440SOL     OW 7324   2.945   4.708   3.811
 2440SOL    HW1 7325   2.922   4.761   3.729
 2440SOL    HW2 7326   3.026   4.652   3.792
 2441SOL     OW 7327   2.290   4.148   4.244
 2441SOL    HW1 7328   2.320   4.076   4.182
 2441SOL    HW2 7329   2.251   4.108   4.327
 2442SOL     OW 7330   3.214   3.776   3.892
 2442SOL    HW1 7331   3.249   3.735   3.808
 2442SOL    HW2 7332   3.124   3.738   3.912
 2443SOL     OW 7333   3.162   4.177   4.415
 2443SOL    HW1 7334   3.103   4.257   4.419
 2443SOL    HW2 7335   3.177   4.142   4.508
 2444SOL     OW 7336   3.954   0.628   0.113
 2444SOL    HW1 7337   3.861   0.626   0.150
 2444SOL    HW2 7338   3.955   0.589   0.021
 2445SOL     OW 7339   3.949   0.275   0.996
 2445SOL    HW1 7340   3.984   0.258   1.088
 2445SOL    HW2 7341   3.861   0.230   0.984
 2446SOL     OW 7342   3.743   0.368   0.647
 2446SOL    HW1 7343   3.661   0.411   0.686
 2446SOL    HW2 7344   3.715   0.295   0.584
 2447SOL     OW 7345   4.293   1.275   1.165
 2447SOL    HW1 7346   4.200   1.268   1.128
 2447SOL    HW2 7347   4.304   1.364   1.209
 2448SOL     OW 7348   4.574   0.798   1.823
 2448SOL    HW1 7349   4.570   0.874   1.888
 2448SOL    HW2 7350   4.596   0.834   1.732
 2449SOL     OW 7351   4.410   1.161   1.803
 2449SOL    HW1 7352   4.470   1.240   1.817
 2449SOL    HW2 7353   4.324   1.192   1.762
 2450SOL     OW 7354   4.059   1.435   1.061
 2450SOL    HW1 7355   3.981   1.404   1.008
 2450SOL    HW2 7356   4.117   1.493   1.004
 2451SOL     OW 7357   4.162   0.392   1.499
 2451SOL    HW1 7358   4.244   0.336   1.508
 2451SOL    HW2 7359   4.081   0.334   1.503
 2452SOL     OW 7360   3.955   1.713   0.483
 2452SOL    HW1 7361   3.989   1.790   0.537
 2452SOL    HW2 7362   3.999   1.713   0.393
 2453SOL     OW 7363   3.954   1.434   0.538
 2453SOL    HW1 7364   3.928   1.530   0.538
 2453SOL    HW2 7365   3.883   1.380   0.583
 2454SOL     OW 7366   3.964   1.091   0.886
 2454SOL    HW1 7367   3.978   1.007   0.938
 2454SOL    HW2 7368   3.909   1.155   0.941
 2455SOL     OW 7369   4.344   1.786   1.439
 2455SOL    HW1 7370   4.252   1.769   1.474
 2455SOL    HW2 7371   4.372   1.878   1.465
 2456SOL     OW 7372   4.330   0.964   0.123
 2456SOL    HW1 7373   4.337   1.048   0.069
 2456SOL    HW2 7374   4.376   0.977   0.211
 2457SOL     OW 7375   3.846   0.643   0.563
 2457SOL    HW1 7376   3.801   0.555   0.580
 2457SOL    HW2 7377   3.845   0.697   0.647
 2458SOL     OW 7378   3.751   1.596   0.117
 2458SOL    HW1 7379   3.732   1.500   0.138
 2458SOL    HW2 7380   3.718   1.654   0.192
 2459SOL     OW 7381   3.837   0.737   1.597
 2459SOL    HW1 7382   3.925   0.724   1.642
 2459SOL    HW2 7383   3.824   0.834   1.575
 2460SOL     OW 7384   4.337   1.365   0.726
 2460SOL    HW1 7385   4.288   1.278   0.735
 2460SOL    HW2 7386   4.314   1.408   0.639
 2461SOL     OW 7387   3.921   0.976   1.264
 2461SOL    HW1 7388   4.010   0.931   1.250
 2461SOL    HW2 7389   3.848   0.911   1.245
 2462SOL     OW 7390   4.041   0.251   1.801
 2462SOL    HW1 7391   4.112   0.322   1.807
 2462SOL    HW2 7392   3.953   0.290   1.829
 2463SOL     OW 7393   4.322   0.729   0.270
 2463SOL    HW1 7394   4.346   0.798   0.202
 2463SOL    HW2 7395   4.244   0.762   0.324
 2464SOL     OW 7396   3.800   0.811   0.789
 2464SOL    HW1 7397   3.899   0.799   0.798
 2464SOL    HW2 7398   3.776   0.906   0.810
 2465SOL     OW 7399   3.854   1.821   1.571
 2465SOL    HW1 7400   3.844   1.806   1.670
 2465SOL    HW2 7401   3.768   1.857   1.535
 2466SOL     OW 7402   4.274   0.196   0.885
 2466SOL    HW1 7403   4.269   0.191   0.985
 2466SOL    HW2 7404   4.276   0.292   0.856
 2467SOL     OW 7405   4.075   1.801   0.853
 2467SOL    HW1 7406   4.125   1.715   0.859
 2467SOL    HW2 7407   4.140   1.878   0.850
 2468SOL     OW 7408   4.045   0.943   0.242
 2468SOL    HW1 7409   4.127   0.982   0.200
 2468SOL    HW2 7410   4.018   0.861   0.193
 2469SOL     OW 7411   4.185   1.266   1.727
 2469SOL    HW1 7412   4.135   1.267   1.641
 2469SOL    HW2 7413   4.122   1.248   1.803
 2470SOL     OW 7414   3.926   0.285   1.498
 2470SOL    HW1 7415   3.846   0.345   1.485
 2470SOL    HW2 7416   3.916   0.236   1.584
 2471SOL     OW 7417   4.188   1.743   0.323
 2471SOL    HW1 7418   4.221   1.782   0.409
 2471SOL    HW2 7419   4.264   1.736   0.258
 2472SOL     OW 7420   3.973   1.785   1.241
 2472SOL    HW1 7421   4.030   1.720   1.291
 2472SOL    HW2 7422   3.957   1.752   1.148
 2473SOL     OW 7423   4.106   0.700   0.480
 2473SOL    HW1 7424   4.151   0.610   0.477
 2473SOL    HW2 7425   4.012   0.689   0.513
 2474SOL     OW 7426   4.527   1.402   0.924
 2474SOL    HW1 7427   4.617   1.416   0.882
 2474SOL    HW2 7428   4.456   1.404   0.853
 2475SOL     OW 7429   4.263   0.064   0.512
 2475SOL    HW1 7430   4.182   0.065   0.570
 2475SOL    HW2 7431   4.266   0.147   0.457
 2476SOL     OW 7432   4.021   0.035   0.171
 2476SOL    HW1 7433   4.070   0.119   0.150
 2476SOL    HW2 7434   4.083  -0.030   0.216
 2477SOL     OW 7435   4.183   1.152   0.741
 2477SOL    HW1 7436   4.112   1.125   0.806
 2477SOL    HW2 7437   4.157   1.124   0.648
 2478SOL     OW 7438   3.802   0.556   1.386
 2478SOL    HW1 7439   3.894   0.555   1.345
 2478SOL    HW2 7440   3.796   0.630   1.453
 2479SOL     OW 7441   4.285   0.222   1.147
 2479SOL    HW1 7442   4.323   0.138   1.184
 2479SOL    HW2 7443   4.197   0.241   1.191
 2480SOL     OW 7444   4.212   1.385   0.174
 2480SOL    HW1 7445   4.125   1.370   0.221
 2480SOL    HW2 7446   4.195   1.411   0.079
 2481SOL     OW 7447   4.251   0.256   0.328
 2481SOL    HW1 7448   4.278   0.197   0.253
 2481SOL    HW2 7449   4.251   0.351   0.297
 2482SOL     OW 7450   4.134   0.813   1.251
 2482SOL    HW1 7451   4.220   0.825   1.301
 2482SOL    HW2 7452   4.092   0.726   1.278
 2483SOL     OW 7453   3.788   1.564   1.331
 2483SOL    HW1 7454   3.742   1.646   1.297
 2483SOL    HW2 7455   3.886   1.583   1.340
 2484SOL     OW 7456   4.091   1.100   0.501
 2484SOL    HW1 7457   4.084   1.183   0.445
 2484SOL    HW2 7458   4.095   1.020   0.441
 2485SOL     OW 7459   4.290   0.537   0.865
 2485SOL    HW1 7460   4.302   0.603   0.791
 2485SOL    HW2 7461   4.336   0.571   0.948
 2486SOL     OW 7462   4.078   1.510   1.329
 2486SOL    HW1 7463   4.057   1.466   1.242
 2486SOL    HW2 7464   4.175   1.536   1.332
 2487SOL     OW 7465   4.126   0.751   1.598
 2487SOL    HW1 7466   4.194   0.806   1.551
 2487SOL    HW2 7467   4.166   0.663   1.625
 2488SOL     OW 7468   4.228   0.050   1.740
 2488SOL    HW1 7469   4.186  -0.007   1.670
 2488SOL    HW2 7470   4.162   0.119   1.772
 2489SOL     OW 7471   4.297   0.870   1.029
 2489SOL    HW1 7472   4.341   0.959   1.020
 2489SOL    HW2 7473   4.234   0.870   1.106
 2490SOL     OW 7474   4.031   0.213   1.231
 2490SOL    HW1 7475   4.008   0.250   1.321
 2490SOL    HW2 7476   4.001   0.118   1.225
 2491SOL     OW 7477   3.761   1.310   1.282
 2491SOL    HW1 7478   3.814   1.261   1.350
 2491SOL    HW2 7479   3.783   1.408   1.287
 2492SOL     OW 7480   4.031   0.063   0.618
 2492SOL    HW1 7481   4.020   0.157   0.651
 2492SOL    HW2 7482   4.026   0.000   0.695
 2493SOL     OW 7483   4.074   0.898   1.804
 2493SOL    HW1 7484   4.150   0.942   1.852
 2493SOL    HW2 7485   4.109   0.851   1.722
 2494SOL     OW 7486   4.043   0.810   0.949
 2494SOL    HW1 7487   4.136   0.846   0.954
 2494SOL    HW2 7488   4.037   0.725   1.001
 2495SOL     OW 7489   4.063   0.509   1.006
 2495SOL    HW1 7490   4.011   0.426   0.989
 2495SOL    HW2 7491   4.140   0.514   0.942
 2496SOL     OW 7492   3.732   1.326   0.200
 2496SOL    HW1 7493   3.639   1.347   0.169
 2496SOL    HW2 7494   3.742   1.227   0.213
 2497SOL     OW 7495   3.812   1.801   0.927
 2497SOL    HW1 7496   3.770   1.715   0.900
 2497SOL    HW2 7497   3.906   1.804   0.893
 2498SOL     OW 7498   4.228   1.568   0.910
 2498SOL    HW1 7499   4.294   1.642   0.919
 2498SOL    HW2 7500   4.272   1.489   0.868
 2499SOL     OW 7501   3.764   0.544   1.114
 2499SOL    HW1 7502   3.849   0.511   1.073
 2499SOL    HW2 7503   3.777   0.559   1.212
 2500SOL     OW 7504   3.913   0.520   1.722
 2500SOL    HW1 7505   3.972   0.480   1.652
 2500SOL    HW2 7506   3.855   0.591   1.681
 2501SOL     OW 7507   4.539   0.572   0.325
 2501SOL    HW1 7508   4.546   0.483   0.279
 2501SOL    HW2 7509   4.445   0.606   0.317
 2502SOL     OW 7510   3.976   1.564   1.744
 2502SOL    HW1 7511   3.946   1.621   1.820
 2502SOL    HW2 7512   3.969   1.467   1.770
 2503SOL     OW 7513   4.197   0.500   0.191
 2503SOL    HW1 7514   4.258   0.580   0.195
 2503SOL    HW2 7515   4.102   0.531   0.198
 2504SOL     OW 7516   3.883   1.137   1.466
 2504SOL    HW1 7517   3.905   1.076   1.542
 2504SOL    HW2 7518   3.893   1.088   1.380
 2505SOL     OW 7519   3.807   1.258   1.022
 2505SOL    HW1 7520   3.802   1.257   1.122
 2505SOL    HW2 7521   3.724   1.217   0.984
 2506SOL     OW 7522   4.412   1.662   1.716
 2506SOL    HW1 7523   4.356   1.743   1.725
 2506SOL    HW2 7524   4.464   1.666   1.630
 2507SOL     OW 7525   3.854   1.794   1.851
 2507SOL    HW1 7526   3.813   1.720   1.904
 2507SOL    HW2 7527   3.918   1.845   1.909
 2508SOL     OW 7528   3.987   0.326   0.720
 2508SOL    HW1 7529   3.908   0.377   0.686
 2508SOL    HW2 7530   3.978   0.311   0.818
 2509SOL     OW 7531   4.096   1.288   1.490
 2509SOL    HW1 7532   4.083   1.381   1.456
 2509SOL    HW2 7533   4.012   1.236   1.477
 2510SOL     OW 7534   4.314   1.487   0.491
 2510SOL    HW1 7535   4.356   1.429   0.421
 2510SOL    HW2 7536   4.270   1.566   0.447
 2511SOL     OW 7537   3.979   1.348   0.290
 2511SOL    HW1 7538   3.883   1.349   0.263
 2511SOL    HW2 7539   3.991   1.401   0.374
 2512SOL     OW 7540   3.829   1.013   1.726
 2512SOL    HW1 7541   3.752   0.980   1.780
 2512SOL    HW2 7542   3.914   0.983   1.768
 2513SOL     OW 7543   4.396   0.203   1.489
 2513SOL    HW1 7544   4.486   0.187   1.449
 2513SOL    HW2 7545   4.404   0.208   1.588
 2514SOL     OW 7546   3.799   0.345   0.033
 2514SOL    HW1 7547   3.707   0.317   0.004
 2514SOL    HW2 7548   3.830   0.422  -0.023
 2515SOL     OW 7549   4.337   0.842   1.431
 2515SOL    HW1 7550   4.393   0.923   1.414
 2515SOL    HW2 7551   4.396   0.762   1.434
 2516SOL     OW 7552   4.440   0.565   1.708
 2516SOL    HW1 7553   4.459   0.630   1.782
 2516SOL    HW2 7554   4.500   0.485   1.717
 2517SOL     OW 7555   4.114   1.741   1.560
 2517SOL    HW1 7556   4.023   1.782   1.558
 2517SOL    HW2 7557   4.107   1.647   1.592
 2518SOL     OW 7558   4.318   0.745   0.652
 2518SOL    HW1 7559   4.368   0.830   0.633
 2518SOL    HW2 7560   4.230   0.747   0.604
 2519SOL     OW 7561   3.945   1.314   1.844
 2519SOL    HW1 7562   3.880   1.241   1.823
 2519SOL    HW2 7563   3.949   1.328   1.942
 2520SOL     OW 7564   3.803   1.240   0.653
 2520SOL    HW1 7565   3.802   1.193   0.741
 2520SOL    HW2 7566   3.885   1.212   0.602
 2521SOL     OW 7567   4.396   1.391   1.624
 2521SOL    HW1 7568   4.318   1.341   1.662
 2521SOL    HW2 7569   4.393   1.486   1.655
 2522SOL     OW 7570   4.152   0.424   0.520
 2522SOL    HW1 7571   4.182   0.352   0.458
 2522SOL    HW2 7572   4.113   0.384   0.603
 2523SOL     OW 7573   4.041   0.547   1.280
 2523SOL    HW1 7574   4.079   0.488   1.352
 2523SOL    HW2 7575   4.081   0.521   1.192
 2524SOL     OW 7576   4.536   1.586   0.687
 2524SOL    HW1 7577   4.568   1.596   0.593
 2524SOL    HW2 7578   4.457   1.524   0.689
 2525SOL     OW 7579   3.763   1.077   0.300
 2525SOL    HW1 7580   3.862   1.066   0.291
 2525SOL    HW2 7581   3.723   0.991   0.332
 2526SOL     OW 7582   3.954   0.628   1.975
 2526SOL    HW1 7583   3.861   0.626   2.012
 2526SOL    HW2 7584   3.955   0.589   1.883
 2527SOL     OW 7585   3.949   0.275   2.858
 2527SOL    HW1 7586   3.984   0.258   2.950
 2527SOL    HW2 7587   3.861   0.230   2.846
 2528SOL     OW 7588   3.743   0.368   2.509
 2528SOL    HW1 7589   3.661   0.411   2.548
 2528SOL    HW2 7590   3.715   0.295   2.446
 2529SOL     OW 7591   4.293   1.275   3.027
 2529SOL    HW1 7592   4.200   1.268   2.990
 2529SOL    HW2 7593   4.304   1.364   3.071
 2530SOL     OW 7594   4.574   0.798   3.685
 2530SOL    HW1 7595   4.570   0.874   3.750
 2530SOL    HW2 7596   4.596   0.834   3.594
 2531SOL     OW 7597   4.410   1.161   3.665
 2531SOL    HW1 7598   4.470   1.240   3.679
 2531SOL    HW2 7599   4.324   1.192   3.624
 2532SOL     OW 7600   4.059   1.435   2.923
 2532SOL    HW1 7601   3.981   1.404   2.870
 2532SOL    HW2 7602   4.117   1.493   2.866
 2533SOL     OW 7603   4.162   0.392   3.361
 2533SOL    HW1 7604   4.244   0.336   3.370
 2533SOL    HW2 7605   4.081   0.334   3.365
 2534SOL     OW 7606   3.955   1.713   2.345
 2534SOL    HW1 7607   3.989   1.790   2.399
 2534SOL    HW2 7608   3.999   1.713   2.255
 2535SOL     OW 7609   3.954   1.434   2.400
 2535SOL    HW1 7610   3.928   1.530   2.400
 2535SOL    HW2 7611   3.883   1.380   2.445
 2536SOL     OW 7612   3.964   1.091   2.748
 2536SOL    HW1 7613   3.978   1.007   2.800
 2536SOL    HW2 7614   3.909   1.155   2.803
 2537SOL     OW 7615   4.344   1.786   3.301
 2537SOL    HW1 7616   4.252   1.769   3.336
 2537SOL    HW2 7617   4.372   1.878   3.327
 2538SOL     OW 7618   4.330   0.964   1.985
 2538SOL    HW1 7619   4.337   1.048   1.931
 2538SOL    HW2 7620   4.376   0.977   2.073
 2539SOL     OW 7621   3.846   0.643   2.425
 2539SOL    HW1 7622   3.801   0.555   2.442
 2539SOL    HW2 7623   3.845   0.697   2.509
 2540SOL     OW 7624   3.751   1.596   1.979
 2540SOL    HW1 7625   3.732   1.500   2.000
 2540SOL    HW2 7626   3.718   1.654   2.054
 2541SOL     OW 7627   3.837   0.737   3.459
 2541SOL    HW1 7628   3.925   0.724   3.504
 2541SOL    HW2 7629   3.824   0.834   3.437
 2542SOL     OW 7630   4.337   1.365   2.588
 2542SOL    HW1 7631   4.288   1.278   2.597
 2542SOL    HW2 7632   4.314   1.408   2.501
 2543SOL     OW 7633   3.921   0.976   3.126
 2543SOL    HW1 7634   4.010   0.931   3.112
 2543SOL    HW2 7635   3.848   0.911   3.107
 2544SOL     OW 7636   4.041   0.251   3.663
 2544SOL    HW1 7637   4.112   0.322   3.669
 2544SOL    HW2 7638   3.953   0.290   3.691
 2545SOL     OW 7639   4.322   0.729   2.132
 2545SOL    HW1 7640   4.346   0.798   2.064
 2545SOL    HW2 7641   4.244   0.762   2.186
 2546SOL     OW 7642   3.800   0.811   2.651
 2546SOL    HW1 7643   3.899   0.799   2.660
 2546SOL    HW2 7644   3.776   0.906   2.672
 2547SOL     OW 7645   3.854   1.821   3.433
 2547SOL    HW1 7646   3.844   1.806   3.532
 2547SOL    HW2 7647   3.768   1.857   3.397
 2548SOL     OW 7648   4.274   0.196   2.747
 2548SOL    HW1 7649   4.269   0.191   2.847
 2548SOL    HW2 7650   4.276   0.292   2.718
 2549SOL     OW 7651   4.075   1.801   2.715
 2549SOL    HW1 7652   4.125   1.715   2.721
 2549SOL    HW2 7653   4.140   1.878   2.712
 2550SOL     OW 7654   4.045   0.943   2.104
 2550SOL    HW1 7655   4.127   0.982   2.062
 2550SOL    HW2 7656   4.018   0.861   2.055
 2551SOL     OW 7657   4.185   1.266   3.589
 2551SOL    HW1 7658   4.135   1.267   3.503
 2551SOL    HW2 7659   4.122   1.248   3.665
 2552SOL     OW 7660   3.926   0.285   3.360
 2552SOL    HW1 7661   3.846   0.345   3.347
 2552SOL    HW2 7662   3.916   0.236   3.446
 2553SOL     OW 7663   4.188   1.743   2.185
 2553SOL    HW1 7664   4.221   1.782   2.271
 2553SOL    HW2 7665   4.264   1.736   2.120
 2554SOL     OW 7666   3.973   1.785   3.103
 2554SOL    HW1 7667   4.030   1.720   3.153
 2554SOL    HW2 7668   3.957   1.752   3.010
 2555SOL     OW 7669   4.106   0.700   2.342
 2555SOL    HW1 7670   4.151   0.610   2.339
 2555SOL    HW2 7671   4.012   0.689   2.375
 2556SOL     OW 7672   4.338   0.122   1.979
 2556SOL    HW1 7673   4.436   0.100   1.986
 2556SOL    HW2 7674   4.307   0.105   1.886
 2557SOL     OW 7675   4.527   1.402   2.786
 2557SOL    HW1 7676   4.617   1.416   2.744
 2557SOL    HW2 7677   4.456   1.404   2.715
 2558SOL     OW 7678   4.263   0.064   2.374
 2558SOL    HW1 7679   4.182   0.065   2.432
 2558SOL    HW2 7680   4.266   0.147   2.319
 2559SOL     OW 7681   4.021   0.035   2.033
 2559SOL    HW1 7682   4.070   0.119   2.012
 2559SOL    HW2 7683   4.083  -0.030   2.078
 2560SOL     OW 7684   4.183   1.152   2.603
 2560SOL    HW1 7685   4.112   1.125   2.668
 2560SOL    HW2 7686   4.157   1.124   2.510
 2561SOL     OW 7687   3.802   0.556   3.248
 2561SOL    HW1 7688   3.894   0.555   3.207
 2561SOL    HW2 7689   3.796   0.630   3.315
 2562SOL     OW 7690   4.285   0.222   3.009
 2562SOL    HW1 7691   4.323   0.138   3.046
 2562SOL    HW2 7692   4.197   0.241   3.053
 2563SOL     OW 7693   4.212   1.385   2.036
 2563SOL    HW1 7694   4.125   1.370   2.083
 2563SOL    HW2 7695   4.195   1.411   1.941
 2564SOL     OW 7696   4.251   0.256   2.190
 2564SOL    HW1 7697   4.278   0.197   2.115
 2564SOL    HW2 7698   4.251   0.351   2.159
 2565SOL     OW 7699   4.134   0.813   3.113
 2565SOL    HW1 7700   4.220   0.825   3.163
 2565SOL    HW2 7701   4.092   0.726   3.140
 2566SOL     OW 7702   3.788   1.564   3.193
 2566SOL    HW1 7703   3.742   1.646   3.159
 2566SOL    HW2 7704   3.886   1.583   3.202
 2567SOL     OW 7705   4.091   1.100   2.363
 2567SOL    HW1 7706   4.084   1.183   2.307
 2567SOL    HW2 7707   4.095   1.020   2.303
 2568SOL     OW 7708   4.290   0.537   2.727
 2568SOL    HW1 7709   4.302   0.603   2.653
 2568SOL    HW2 7710   4.336   0.571   2.810
 2569SOL     OW 7711   4.078   1.510   3.191
 2569SOL    HW1 7712   4.057   1.466   3.104
 2569SOL    HW2 7713   4.175   1.536   3.194
 2570SOL     OW 7714   4.126   0.751   3.460
 2570SOL    HW1 7715   4.194   0.806   3.413
 2570SOL    HW2 7716   4.166   0.663   3.487
 2571SOL     OW 7717   4.228   0.050   3.602
 2571SOL    HW1 7718   4.186  -0.007   3.532
 2571SOL    HW2 7719   4.162   0.119   3.634
 2572SOL     OW 7720   4.297   0.870   2.891
 2572SOL    HW1 7721   4.341   0.959   2.882
 2572SOL    HW2 7722   4.234   0.870   2.968
 2573SOL     OW 7723   4.031   0.213   3.093
 2573SOL    HW1 7724   4.008   0.250   3.183
 2573SOL    HW2 7725   4.001   0.118   3.087
 2574SOL     OW 7726   3.761   1.310   3.144
 2574SOL    HW1 7727   3.814   1.261   3.212
 2574SOL    HW2 7728   3.783   1.408   3.149
 2575SOL     OW 7729   4.031   0.063   2.480
 2575SOL    HW1 7730   4.020   0.157   2.513
 2575SOL    HW2 7731   4.026   0.000   2.557
 2576SOL     OW 7732   4.074   0.898   3.666
 2576SOL    HW1 7733   4.150   0.942   3.714
 2576SOL    HW2 7734   4.109   0.851   3.584
 2577SOL     OW 7735   4.043   0.810   2.811
 2577SOL    HW1 7736   4.136   0.846   2.816
 2577SOL    HW2 7737   4.037   0.725   2.863
 2578SOL     OW 7738   4.063   0.509   2.868
 2578SOL    HW1 7739   4.011   0.426   2.851
 2578SOL    HW2 7740   4.140   0.514   2.804
 2579SOL     OW 7741   3.732   1.326   2.062
 2579SOL    HW1 7742   3.639   1.347   2.031
 2579SOL    HW2 7743   3.742   1.227   2.075
 2580SOL     OW 7744   3.812   1.801   2.789
 2580SOL    HW1 7745   3.770   1.715   2.762
 2580SOL    HW2 7746   3.906   1.804   2.755
 2581SOL     OW 7747   4.228   1.568   2.772
 2581SOL    HW1 7748   4.294   1.642   2.781
 2581SOL    HW2 7749   4.272   1.489   2.730
 2582SOL     OW 7750   3.764   0.544   2.976
 2582SOL    HW1 7751   3.849   0.511   2.935
 2582SOL    HW2 7752   3.777   0.559   3.074
 2583SOL     OW 7753   3.913   0.520   3.584
 2583SOL    HW1 7754   3.972   0.480   3.514
 2583SOL    HW2 7755   3.855   0.591   3.543
 2584SOL     OW 7756   4.539   0.572   2.187
 2584SOL    HW1 7757   4.546   0.483   2.141
 2584SOL    HW2 7758   4.445   0.606   2.179
 2585SOL     OW 7759   3.976   1.564   3.606
 2585SOL    HW1 7760   3.946   1.621   3.682
 2585SOL    HW2 7761   3.969   1.467   3.632
 2586SOL     OW 7762   4.197   0.500   2.053
 2586SOL    HW1 7763   4.258   0.580   2.057
 2586SOL    HW2 7764   4.102   0.531   2.060
 2587SOL     OW 7765   3.883   1.137   3.328
 2587SOL    HW1 7766   3.905   1.076   3.404
 2587SOL    HW2 7767   3.893   1.088   3.242
 2588SOL     OW 7768   3.807   1.258   2.884
 2588SOL    HW1 7769   3.802   1.257   2.984
 2588SOL    HW2 7770   3.724   1.217   2.846
 2589SOL     OW 7771   4.412   1.662   3.578
 2589SOL    HW1 7772   4.356   1.743   3.587
 2589SOL    HW2 7773   4.464   1.666   3.492
 2590SOL     OW 7774   3.854   1.794   3.713
 2590SOL    HW1 7775   3.813   1.720   3.766
 2590SOL    HW2 7776   3.918   1.845   3.771
 2591SOL     OW 7777   3.987   0.326   2.582
 2591SOL    HW1 7778   3.908   0.377   2.548
 2591SOL    HW2 7779   3.978   0.311   2.680
 2592SOL     OW 7780   4.096   1.288   3.352
 2592SOL    HW1 7781   4.083   1.381   3.318
 2592SOL    HW2 7782   4.012   1.236   3.339
 2593SOL     OW 7783   4.314   1.487   2.353
 2593SOL    HW1 7784   4.356   1.429   2.283
 2593SOL    HW2 7785   4.270   1.566   2.309
 2594SOL     OW 7786   3.979   1.348   2.152
 2594SOL    HW1 7787   3.883   1.349   2.125
 2594SOL    HW2 7788   3.991   1.401   2.236
 2595SOL     OW 7789   3.829   1.013   3.588
 2595SOL    HW1 7790   3.752   0.980   3.642
 2595SOL    HW2 7791   3.914   0.983   3.630
 2596SOL     OW 7792   4.396   0.203   3.351
 2596SOL    HW1 7793   4.486   0.187   3.311
 2596SOL    HW2 7794   4.404   0.208   3.450
 2597SOL     OW 7795   3.799   0.345   1.895
 2597SOL    HW1 7796   3.707   0.317   1.866
 2597SOL    HW2 7797   3.830   0.422   1.839
 2598SOL     OW 7798   3.796   0.166   2.180
 2598SOL    HW1 7799   3.779   0.249   2.126
 2598SOL    HW2 7800   3.886   0.129   2.158
 2599SOL     OW 7801   4.337   0.842   3.293
 2599SOL    HW1 7802   4.393   0.923   3.276
 2599SOL    HW2 7803   4.396   0.762   3.296
 2600SOL     OW 7804   4.440   0.565   3.570
 2600SOL    HW1 7805   4.459   0.630   3.644
 2600SOL    HW2 7806   4.500   0.485   3.579
 2601SOL     OW 7807   4.114   1.741   3.422
 2601SOL    HW1 7808   4.023   1.782   3.420
 2601SOL    HW2 7809   4.107   1.647   3.454
 2602SOL     OW 7810   4.318   0.745   2.514
 2602SOL    HW1 7811   4.368   0.830   2.495
 2602SOL    HW2 7812   4.230   0.747   2.466
 2603SOL     OW 7813   3.945   1.314   3.706
 2603SOL    HW1 7814   3.880   1.241   3.685
 2603SOL    HW2 7815   3.949   1.328   3.804
 2604SOL     OW 7816   3.803   1.240   2.515
 2604SOL    HW1 7817   3.802   1.193   2.603
 2604SOL    HW2 7818   3.885   1.212   2.464
 2605SOL     OW 7819   4.396   1.391   3.486
 2605SOL    HW1 7820   4.318   1.341   3.524
 2605SOL    HW2 7821   4.393   1.486   3.517
 2606SOL     OW 7822   4.152   0.424   2.382
 2606SOL    HW1 7823   4.182   0.352   2.320
 2606SOL    HW2 7824   4.113   0.384   2.465
 2607SOL     OW 7825   4.041   0.547   3.142
 2607SOL    HW1 7826   4.079   0.488   3.214
 2607SOL    HW2 7827   4.081   0.521   3.054
 2608SOL     OW 7828   4.536   1.586   2.549
 2608SOL    HW1 7829   4.568   1.596   2.455
 2608SOL    HW2 7830   4.457   1.524   2.551
 2609SOL     OW 7831   3.763   1.077   2.162
 2609SOL    HW1 7832   3.862   1.066   2.153
 2609SOL    HW2 7833   3.723   0.991   2.194
 2610SOL     OW 7834   3.954   0.628   3.837
 2610SOL    HW1 7835   3.861   0.626   3.874
 2610SOL    HW2 7836   3.955   0.589   3.745
 2611SOL     OW 7837   3.949   0.275   4.720
 2611SOL    HW1 7838   3.984   0.258   4.812
 2611SOL    HW2 7839   3.861   0.230   4.708
 2612SOL     OW 7840   3.955   1.713   4.207
 2612SOL    HW1 7841   3.989   1.790   4.261
 2612SOL    HW2 7842   3.999   1.713   4.117
 2613SOL     OW 7843   3.954   1.434   4.262
 2613SOL    HW1 7844   3.928   1.530   4.262
 2613SOL    HW2 7845   3.883   1.380   4.307
 2614SOL     OW 7846   4.330   0.964   3.847
 2614SOL    HW1 7847   4.337   1.048   3.793
 2614SOL    HW2 7848   4.376   0.977   3.935
 2615SOL     OW 7849   3.846   0.643   4.287
 2615SOL    HW1 7850   3.801   0.555   4.304
 2615SOL    HW2 7851   3.845   0.697   4.371
 2616SOL     OW 7852   3.751   1.596   3.841
 2616SOL    HW1 7853   3.732   1.500   3.862
 2616SOL    HW2 7854   3.718   1.654   3.916
 2617SOL     OW 7855   4.337   1.365   4.450
 2617SOL    HW1 7856   4.288   1.278   4.459
 2617SOL    HW2 7857   4.314   1.408   4.363
 2618SOL     OW 7858   4.322   0.729   3.994
 2618SOL    HW1 7859   4.346   0.798   3.926
 2618SOL    HW2 7860   4.244   0.762   4.048
 2619SOL     OW 7861   3.800   0.811   4.513
 2619SOL    HW1 7862   3.899   0.799   4.522
 2619SOL    HW2 7863   3.776   0.906   4.534
 2620SOL     OW 7864   4.075   1.801   4.577
 2620SOL    HW1 7865   4.125   1.715   4.583
 2620SOL    HW2 7866   4.140   1.878   4.574
 2621SOL     OW 7867   4.045   0.943   3.966
 2621SOL    HW1 7868   4.127   0.982   3.924
 2621SOL    HW2 7869   4.018   0.861   3.917
 2622SOL     OW 7870   4.188   1.743   4.047
 2622SOL    HW1 7871   4.221   1.782   4.133
 2622SOL    HW2 7872   4.264   1.736   3.982
 2623SOL     OW 7873   4.106   0.700   4.204
 2623SOL    HW1 7874   4.151   0.610   4.201
 2623SOL    HW2 7875   4.012   0.689   4.237
 2624SOL     OW 7876   4.338   0.122   3.841
 2624SOL    HW1 7877   4.436   0.100   3.848
 2624SOL    HW2 7878   4.307   0.105   3.748
 2625SOL     OW 7879   4.263   0.064   4.236
 2625SOL    HW1 7880   4.182   0.065   4.294
 2625SOL    HW2 7881   4.266   0.147   4.181
 2626SOL     OW 7882   4.021   0.035   3.895
 2626SOL    HW1 7883   4.070   0.119   3.874
 2626SOL    HW2 7884   4.083  -0.030   3.940
 2627SOL     OW 7885   4.183   1.152   4.465
 2627SOL    HW1 7886   4.112   1.125   4.530
 2627SOL    HW2 7887   4.157   1.124   4.372
 2628SOL     OW 7888   4.212   1.385   3.898
 2628SOL    HW1 7889   4.125   1.370   3.945
 2628SOL    HW2 7890   4.195   1.411   3.803
 2629SOL     OW 7891   4.251   0.256   4.052
 2629SOL    HW1 7892   4.278   0.197   3.977
 2629SOL    HW2 7893   4.251   0.351   4.021
 2630SOL     OW 7894   4.091   1.100   4.225
 2630SOL    HW1 7895   4.084   1.183   4.169
 2630SOL    HW2 7896   4.095   1.020   4.165
 2631SOL     OW 7897   4.031   0.063   4.342
 2631SOL    HW1 7898   4.020   0.157   4.375
 2631SOL    HW2 7899   4.026   0.000   4.419
 2632SOL     OW 7900   3.732   1.326   3.924
 2632SOL    HW1 7901   3.639   1.347   3.893
 2632SOL    HW2 7902   3.742   1.227   3.937
 2633SOL     OW 7903   4.539   0.572   4.049
 2633SOL    HW1 7904   4.546   0.483   4.003
 2633SOL    HW2 7905   4.445   0.606   4.041
 2634SOL     OW 7906   4.197   0.500   3.915
 2634SOL    HW1 7907   4.258   0.580   3.919
 2634SOL    HW2 7908   4.102   0.531   3.922
 2635SOL     OW 7909   4.314   1.487   4.215
 2635SOL    HW1 7910   4.356   1.429   4.145
 2635SOL    HW2 7911   4.270   1.566   4.171
 2636SOL     OW 7912   3.979   1.348   4.014
 2636SOL    HW1 7913   3.883   1.349   3.987
 2636SOL    HW2 7914   3.991   1.401   4.098
 2637SOL     OW 7915   3.799   0.345   3.757
 2637SOL    HW1 7916   3.707   0.317   3.728
 2637SOL    HW2 7917   3.830   0.422   3.701
 2638SOL     OW 7918   3.796   0.166   4.042
 2638SOL    HW1 7919   3.779   0.249   3.988
 2638SOL    HW2 7920   3.886   0.129   4.020
 2639SOL     OW 7921   4.318   0.745   4.376
 2639SOL    HW1 7922   4.368   0.830   4.357
 2639SOL    HW2 7923   4.230   0.747   4.328
 2640SOL     OW 7924   3.803   1.240   4.377
 2640SOL    HW1 7925   3.802   1.193   4.465
 2640SOL    HW2 7926   3.885   1.212   4.326
 2641SOL     OW 7927   4.152   0.424   4.244
 2641SOL    HW1 7928   4.182   0.352   4.182
 2641SOL    HW2 7929   4.113   0.384   4.327
 2642SOL     OW 7930   4.536   1.586   4.411
 2642SOL    HW1 7931   4.568   1.596   4.317
 2642SOL    HW2 7932   4.457   1.524   4.413
 2643SOL     OW 7933   3.763   1.077   4.024
 2643SOL    HW1 7934   3.862   1.066   4.015
 2643SOL    HW2 7935   3.723   0.991   4.056
 2644SOL     OW 7936   3.954   2.490   0.113
 2644SOL    HW1 7937   3.861   2.488   0.150
 2644SOL    HW2 7938   3.955   2.451   0.021
 2645SOL     OW 7939   3.949   2.137   0.996
 2645SOL    HW1 7940   3.984   2.120   1.088
 2645SOL    HW2 7941   3.861   2.092   0.984
 2646SOL     OW 7942   3.743   2.230   0.647
 2646SOL    HW1 7943   3.661   2.273   0.686
 2646SOL    HW2 7944   3.715   2.157   0.584
 2647SOL     OW 7945   4.293   3.137   1.165
 2647SOL    HW1 7946   4.200   3.130   1.128
 2647SOL    HW2 7947   4.304   3.226   1.209
 2648SOL     OW 7948   4.574   2.660   1.823
 2648SOL    HW1 7949   4.570   2.736   1.888
 2648SOL    HW2 7950   4.596   2.696   1.732
 2649SOL     OW 7951   4.410   3.023   1.803
 2649SOL    HW1 7952   4.470   3.102   1.817
 2649SOL    HW2 7953   4.324   3.054   1.762
 2650SOL     OW 7954   4.059   3.297   1.061
 2650SOL    HW1 7955   3.981   3.266   1.008
 2650SOL    HW2 7956   4.117   3.355   1.004
 2651SOL     OW 7957   4.162   2.254   1.499
 2651SOL    HW1 7958   4.244   2.198   1.508
 2651SOL    HW2 7959   4.081   2.196   1.503
 2652SOL     OW 7960   3.955   3.575   0.483
 2652SOL    HW1 7961   3.989   3.652   0.537
 2652SOL    HW2 7962   3.999   3.575   0.393
 2653SOL     OW 7963   3.954   3.296   0.538
 2653SOL    HW1 7964   3.928   3.392   0.538
 2653SOL    HW2 7965   3.883   3.242   0.583
 2654SOL     OW 7966   3.964   2.953   0.886
 2654SOL    HW1 7967   3.978   2.869   0.938
 2654SOL    HW2 7968   3.909   3.017   0.941
 2655SOL     OW 7969   4.344   3.648   1.439
 2655SOL    HW1 7970   4.252   3.631   1.474
 2655SOL    HW2 7971   4.372   3.740   1.465
 2656SOL     OW 7972   4.330   2.826   0.123
 2656SOL    HW1 7973   4.337   2.910   0.069
 2656SOL    HW2 7974   4.376   2.839   0.211
 2657SOL     OW 7975   3.846   2.505   0.563
 2657SOL    HW1 7976   3.801   2.417   0.580
 2657SOL    HW2 7977   3.845   2.559   0.647
 2658SOL     OW 7978   3.751   3.458   0.117
 2658SOL    HW1 7979   3.732   3.362   0.138
 2658SOL    HW2 7980   3.718   3.516   0.192
 2659SOL     OW 7981   3.837   2.599   1.597
 2659SOL    HW1 7982   3.925   2.586   1.642
 2659SOL    HW2 7983   3.824   2.696   1.575
 2660SOL     OW 7984   4.337   3.227   0.726
 2660SOL    HW1 7985   4.288   3.140   0.735
 2660SOL    HW2 7986   4.314   3.270   0.639
 2661SOL     OW 7987   4.533   1.866   0.502
 2661SOL    HW1 7988   4.573   1.957   0.493
 2661SOL    HW2 7989   4.433   1.874   0.508
 2662SOL     OW 7990   3.921   2.838   1.264
 2662SOL    HW1 7991   4.010   2.793   1.250
 2662SOL    HW2 7992   3.848   2.773   1.245
 2663SOL     OW 7993   4.041   2.113   1.801
 2663SOL    HW1 7994   4.112   2.184   1.807
 2663SOL    HW2 7995   3.953   2.152   1.829
 2664SOL     OW 7996   4.322   2.591   0.270
 2664SOL    HW1 7997   4.346   2.660   0.202
 2664SOL    HW2 7998   4.244   2.624   0.324
 2665SOL     OW 7999   3.800   2.673   0.789
 2665SOL    HW1 8000   3.899   2.661   0.798
 2665SOL    HW2 8001   3.776   2.768   0.810
 2666SOL     OW 8002   3.854   3.683   1.571
 2666SOL    HW1 8003   3.844   3.668   1.670
 2666SOL    HW2 8004   3.768   3.719   1.535
 2667SOL     OW 8005   4.274   2.058   0.885
 2667SOL    HW1 8006   4.269   2.053   0.985
 2667SOL    HW2 8007   4.276   2.154   0.856
 2668SOL     OW 8008   4.075   3.663   0.853
 2668SOL    HW1 8009   4.125   3.577   0.859
 2668SOL    HW2 8010   4.140   3.740   0.850
 2669SOL     OW 8011   4.045   2.805   0.242
 2669SOL    HW1 8012   4.127   2.844   0.200
 2669SOL    HW2 8013   4.018   2.723   0.193
 2670SOL     OW 8014   4.185   3.128   1.727
 2670SOL    HW1 8015   4.135   3.129   1.641
 2670SOL    HW2 8016   4.122   3.110   1.803
 2671SOL     OW 8017   3.926   2.147   1.498
 2671SOL    HW1 8018   3.846   2.207   1.485
 2671SOL    HW2 8019   3.916   2.098   1.584
 2672SOL     OW 8020   4.188   3.605   0.323
 2672SOL    HW1 8021   4.221   3.644   0.409
 2672SOL    HW2 8022   4.264   3.598   0.258
 2673SOL     OW 8023   3.973   3.647   1.241
 2673SOL    HW1 8024   4.030   3.582   1.291
 2673SOL    HW2 8025   3.957   3.614   1.148
 2674SOL     OW 8026   4.106   2.562   0.480
 2674SOL    HW1 8027   4.151   2.472   0.477
 2674SOL    HW2 8028   4.012   2.551   0.513
 2675SOL     OW 8029   4.338   1.984   0.117
 2675SOL    HW1 8030   4.436   1.962   0.124
 2675SOL    HW2 8031   4.307   1.967   0.024
 2676SOL     OW 8032   4.527   3.264   0.924
 2676SOL    HW1 8033   4.617   3.278   0.882
 2676SOL    HW2 8034   4.456   3.266   0.853
 2677SOL     OW 8035   4.263   1.926   0.512
 2677SOL    HW1 8036   4.182   1.927   0.570
 2677SOL    HW2 8037   4.266   2.009   0.457
 2678SOL     OW 8038   4.183   3.014   0.741
 2678SOL    HW1 8039   4.112   2.987   0.806
 2678SOL    HW2 8040   4.157   2.986   0.648
 2679SOL     OW 8041   3.802   2.418   1.386
 2679SOL    HW1 8042   3.894   2.417   1.345
 2679SOL    HW2 8043   3.796   2.492   1.453
 2680SOL     OW 8044   4.285   2.084   1.147
 2680SOL    HW1 8045   4.323   2.000   1.184
 2680SOL    HW2 8046   4.197   2.103   1.191
 2681SOL     OW 8047   4.212   3.247   0.174
 2681SOL    HW1 8048   4.125   3.232   0.221
 2681SOL    HW2 8049   4.195   3.273   0.079
 2682SOL     OW 8050   4.251   2.118   0.328
 2682SOL    HW1 8051   4.278   2.059   0.253
 2682SOL    HW2 8052   4.251   2.213   0.297
 2683SOL     OW 8053   4.134   2.675   1.251
 2683SOL    HW1 8054   4.220   2.687   1.301
 2683SOL    HW2 8055   4.092   2.588   1.278
 2684SOL     OW 8056   3.788   3.426   1.331
 2684SOL    HW1 8057   3.742   3.508   1.297
 2684SOL    HW2 8058   3.886   3.445   1.340
 2685SOL     OW 8059   4.091   2.962   0.501
 2685SOL    HW1 8060   4.084   3.045   0.445
 2685SOL    HW2 8061   4.095   2.882   0.441
 2686SOL     OW 8062   4.290   2.399   0.865
 2686SOL    HW1 8063   4.302   2.465   0.791
 2686SOL    HW2 8064   4.336   2.433   0.948
 2687SOL     OW 8065   4.078   3.372   1.329
 2687SOL    HW1 8066   4.057   3.328   1.242
 2687SOL    HW2 8067   4.175   3.398   1.332
 2688SOL     OW 8068   4.126   2.613   1.598
 2688SOL    HW1 8069   4.194   2.668   1.551
 2688SOL    HW2 8070   4.166   2.525   1.625
 2689SOL     OW 8071   4.228   1.912   1.740
 2689SOL    HW1 8072   4.186   1.855   1.670
 2689SOL    HW2 8073   4.162   1.981   1.772
 2690SOL     OW 8074   4.297   2.732   1.029
 2690SOL    HW1 8075   4.341   2.821   1.020
 2690SOL    HW2 8076   4.234   2.732   1.106
 2691SOL     OW 8077   4.031   2.075   1.231
 2691SOL    HW1 8078   4.008   2.112   1.321
 2691SOL    HW2 8079   4.001   1.980   1.225
 2692SOL     OW 8080   3.761   3.172   1.282
 2692SOL    HW1 8081   3.814   3.123   1.350
 2692SOL    HW2 8082   3.783   3.270   1.287
 2693SOL     OW 8083   4.031   1.925   0.618
 2693SOL    HW1 8084   4.020   2.019   0.651
 2693SOL    HW2 8085   4.026   1.862   0.695
 2694SOL     OW 8086   4.074   2.760   1.804
 2694SOL    HW1 8087   4.150   2.804   1.852
 2694SOL    HW2 8088   4.109   2.713   1.722
 2695SOL     OW 8089   4.043   2.672   0.949
 2695SOL    HW1 8090   4.136   2.708   0.954
 2695SOL    HW2 8091   4.037   2.587   1.001
 2696SOL     OW 8092   4.063   2.371   1.006
 2696SOL    HW1 8093   4.011   2.288   0.989
 2696SOL    HW2 8094   4.140   2.376   0.942
 2697SOL     OW 8095   3.732   3.188   0.200
 2697SOL    HW1 8096   3.639   3.209   0.169
 2697SOL    HW2 8097   3.742   3.089   0.213
 2698SOL     OW 8098   3.812   3.663   0.927
 2698SOL    HW1 8099   3.770   3.577   0.900
 2698SOL    HW2 8100   3.906   3.666   0.893
 2699SOL     OW 8101   4.228   3.430   0.910
 2699SOL    HW1 8102   4.294   3.504   0.919
 2699SOL    HW2 8103   4.272   3.351   0.868
 2700SOL     OW 8104   3.764   2.406   1.114
 2700SOL    HW1 8105   3.849   2.373   1.073
 2700SOL    HW2 8106   3.777   2.421   1.212
 2701SOL     OW 8107   3.913   2.382   1.722
 2701SOL    HW1 8108   3.972   2.342   1.652
 2701SOL    HW2 8109   3.855   2.453   1.681
 2702SOL     OW 8110   4.539   2.434   0.325
 2702SOL    HW1 8111   4.546   2.345   0.279
 2702SOL    HW2 8112   4.445   2.468   0.317
 2703SOL     OW 8113   3.976   3.426   1.744
 2703SOL    HW1 8114   3.946   3.483   1.820
 2703SOL    HW2 8115   3.969   3.329   1.770
 2704SOL     OW 8116   4.197   2.362   0.191
 2704SOL    HW1 8117   4.258   2.442   0.195
 2704SOL    HW2 8118   4.102   2.393   0.198
 2705SOL     OW 8119   3.883   2.999   1.466
 2705SOL    HW1 8120   3.905   2.938   1.542
 2705SOL    HW2 8121   3.893   2.950   1.380
 2706SOL     OW 8122   3.807   3.120   1.022
 2706SOL    HW1 8123   3.802   3.119   1.122
 2706SOL    HW2 8124   3.724   3.079   0.984
 2707SOL     OW 8125   4.412   3.524   1.716
 2707SOL    HW1 8126   4.356   3.605   1.725
 2707SOL    HW2 8127   4.464   3.528   1.630
 2708SOL     OW 8128   3.854   3.656   1.851
 2708SOL    HW1 8129   3.813   3.582   1.904
 2708SOL    HW2 8130   3.918   3.707   1.909
 2709SOL     OW 8131   3.987   2.188   0.720
 2709SOL    HW1 8132   3.908   2.239   0.686
 2709SOL    HW2 8133   3.978   2.173   0.818
 2710SOL     OW 8134   4.096   3.150   1.490
 2710SOL    HW1 8135   4.083   3.243   1.456
 2710SOL    HW2 8136   4.012   3.098   1.477
 2711SOL     OW 8137   4.314   3.349   0.491
 2711SOL    HW1 8138   4.356   3.291   0.421
 2711SOL    HW2 8139   4.270   3.428   0.447
 2712SOL     OW 8140   3.979   3.210   0.290
 2712SOL    HW1 8141   3.883   3.211   0.263
 2712SOL    HW2 8142   3.991   3.263   0.374
 2713SOL     OW 8143   3.829   2.875   1.726
 2713SOL    HW1 8144   3.752   2.842   1.780
 2713SOL    HW2 8145   3.914   2.845   1.768
 2714SOL     OW 8146   4.396   2.065   1.489
 2714SOL    HW1 8147   4.486   2.049   1.449
 2714SOL    HW2 8148   4.404   2.070   1.588
 2715SOL     OW 8149   3.799   2.207   0.033
 2715SOL    HW1 8150   3.707   2.179   0.004
 2715SOL    HW2 8151   3.830   2.284  -0.023
 2716SOL     OW 8152   4.337   2.704   1.431
 2716SOL    HW1 8153   4.393   2.785   1.414
 2716SOL    HW2 8154   4.396   2.624   1.434
 2717SOL     OW 8155   4.440   2.427   1.708
 2717SOL    HW1 8156   4.459   2.492   1.782
 2717SOL    HW2 8157   4.500   2.347   1.717
 2718SOL     OW 8158   4.114   3.603   1.560
 2718SOL    HW1 8159   4.023   3.644   1.558
 2718SOL    HW2 8160   4.107   3.509   1.592
 2719SOL     OW 8161   4.318   2.607   0.652
 2719SOL    HW1 8162   4.368   2.692   0.633
 2719SOL    HW2 8163   4.230   2.609   0.604
 2720SOL     OW 8164   3.945   3.176   1.844
 2720SOL    HW1 8165   3.880   3.103   1.823
 2720SOL    HW2 8166   3.949   3.190   1.942
 2721SOL     OW 8167   3.803   3.102   0.653
 2721SOL    HW1 8168   3.802   3.055   0.741
 2721SOL    HW2 8169   3.885   3.074   0.602
 2722SOL     OW 8170   4.396   3.253   1.624
 2722SOL    HW1 8171   4.318   3.203   1.662
 2722SOL    HW2 8172   4.393   3.348   1.655
 2723SOL     OW 8173   4.152   2.286   0.520
 2723SOL    HW1 8174   4.182   2.214   0.458
 2723SOL    HW2 8175   4.113   2.246   0.603
 2724SOL     OW 8176   4.041   2.409   1.280
 2724SOL    HW1 8177   4.079   2.350   1.352
 2724SOL    HW2 8178   4.081   2.383   1.192
 2725SOL     OW 8179   4.536   3.448   0.687
 2725SOL    HW1 8180   4.568   3.458   0.593
 2725SOL    HW2 8181   4.457   3.386   0.689
 2726SOL     OW 8182   3.763   2.939   0.300
 2726SOL    HW1 8183   3.862   2.928   0.291
 2726SOL    HW2 8184   3.723   2.853   0.332
 2727SOL     OW 8185   3.954   2.490   1.975
 2727SOL    HW1 8186   3.861   2.488   2.012
 2727SOL    HW2 8187   3.955   2.451   1.883
 2728SOL     OW 8188   3.949   2.137   2.858
 2728SOL    HW1 8189   3.984   2.120   2.950
 2728SOL    HW2 8190   3.861   2.092   2.846
 2729SOL     OW 8191   3.743   2.230   2.509
 2729SOL    HW1 8192   3.661   2.273   2.548
 2729SOL    HW2 8193   3.715   2.157   2.446
 2730SOL     OW 8194   4.293   3.137   3.027
 2730SOL    HW1 8195   4.200   3.130   2.990
 2730SOL    HW2 8196   4.304   3.226   3.071
 2731SOL     OW 8197   4.574   2.660   3.685
 2731SOL    HW1 8198   4.570   2.736   3.750
 2731SOL    HW2 8199   4.596   2.696   3.594
 2732SOL     OW 8200   4.410   3.023   3.665
 2732SOL    HW1 8201   4.470   3.102   3.679
 2732SOL    HW2 8202   4.324   3.054   3.624
 2733SOL     OW 8203   4.059   3.297   2.923
 2733SOL    HW1 8204   3.981   3.266   2.870
 2733SOL    HW2 8205   4.117   3.355   2.866
 2734SOL     OW 8206   4.162   2.254   3.361
 2734SOL    HW1 8207   4.244   2.198   3.370
 2734SOL    HW2 8208   4.081   2.196   3.365
 2735SOL     OW 8209   3.955   3.575   2.345
 2735SOL    HW1 8210   3.989   3.652   2.399
 2735SOL    HW2 8211   3.999   3.575   2.255
 2736SOL     OW 8212   3.954   3.296   2.400
 2736SOL    HW1 8213   3.928   3.392   2.400
 2736SOL    HW2 8214   3.883   3.242   2.445
 2737SOL     OW 8215   3.964   2.953   2.748
 2737SOL    HW1 8216   3.978   2.869   2.800
 2737SOL    HW2 8217   3.909   3.017   2.803
 2738SOL     OW 8218   4.344   3.648   3.301
 2738SOL    HW1 8219   4.252   3.631   3.336
 2738SOL    HW2 8220   4.372   3.740   3.327
 2739SOL     OW 8221   4.330   2.826   1.985
 2739SOL    HW1 8222   4.337   2.910   1.931
 2739SOL    HW2 8223   4.376   2.839   2.073
 2740SOL     OW 8224   3.846   2.505   2.425
 2740SOL    HW1 8225   3.801   2.417   2.442
 2740SOL    HW2 8226   3.845   2.559   2.509
 2741SOL     OW 8227   3.751   3.458   1.979
 2741SOL    HW1 8228   3.732   3.362   2.000
 2741SOL    HW2 8229   3.718   3.516   2.054
 2742SOL     OW 8230   3.837   2.599   3.459
 2742SOL    HW1 8231   3.925   2.586   3.504
 2742SOL    HW2 8232   3.824   2.696   3.437
 2743SOL     OW 8233   4.337   3.227   2.588
 2743SOL    HW1 8234   4.288   3.140   2.597
 2743SOL    HW2 8235   4.314   3.270   2.501
 2744SOL     OW 8236   4.533   1.866   2.364
 2744SOL    HW1 8237   4.573   1.957   2.355
 2744SOL    HW2 8238   4.433   1.874   2.370
 2745SOL     OW 8239   3.921   2.838   3.126
 2745SOL    HW1 8240   4.010   2.793   3.112
 2745SOL    HW2 8241   3.848   2.773   3.107
 2746SOL     OW 8242   4.041   2.113   3.663
 2746SOL    HW1 8243   4.112   2.184   3.669
 2746SOL    HW2 8244   3.953   2.152   3.691
 2747SOL     OW 8245   4.322   2.591   2.132
 2747SOL    HW1 8246   4.346   2.660   2.064
 2747SOL    HW2 8247   4.244   2.624   2.186
 2748SOL     OW 8248   3.800   2.673   2.651
 2748SOL    HW1 8249   3.899   2.661   2.660
 2748SOL    HW2 8250   3.776   2.768   2.672
 2749SOL     OW 8251   3.854   3.683   3.433
 2749SOL    HW1 8252   3.844   3.668   3.532
 2749SOL    HW2 8253   3.768   3.719   3.397
 2750SOL     OW 8254   4.274   2.058   2.747
 2750SOL    HW1 8255   4.269   2.053   2.847
 2750SOL    HW2 8256   4.276   2.154   2.718
 2751SOL     OW 8257   4.075   3.663   2.715
 2751SOL    HW1 8258   4.125   3.577   2.721
 2751SOL    HW2 8259   4.140   3.740   2.712
 2752SOL     OW 8260   4.045   2.805   2.104
 2752SOL    HW1 8261   4.127   2.844   2.062
 2752SOL    HW2 8262   4.018   2.723   2.055
 2753SOL     OW 8263   4.185   3.128   3.589
 2753SOL    HW1 8264   4.135   3.129   3.503
 2753SOL    HW2 8265   4.122   3.110   3.665
 2754SOL     OW 8266   3.926   2.147   3.360
 2754SOL    HW1 8267   3.846   2.207   3.347
 2754SOL    HW2 8268   3.916   2.098   3.446
 2755SOL     OW 8269   4.188   3.605   2.185
 2755SOL    HW1 8270   4.221   3.644   2.271
 2755SOL    HW2 8271   4.264   3.598   2.120
 2756SOL     OW 8272   3.973   3.647   3.103
 2756SOL    HW1 8273   4.030   3.582   3.153
 2756SOL    HW2 8274   3.957   3.614   3.010
 2757SOL     OW 8275   4.106   2.562   2.342
 2757SOL    HW1 8276   4.151   2.472   2.339
 2757SOL    HW2 8277   4.012   2.551   2.375
 2758SOL     OW 8278   4.338   1.984   1.979
 2758SOL    HW1 8279   4.436   1.962   1.986
 2758SOL    HW2 8280   4.307   1.967   1.886
 2759SOL     OW 8281   4.527   3.264   2.786
 2759SOL    HW1 8282   4.617   3.278   2.744
 2759SOL    HW2 8283   4.456   3.266   2.715
 2760SOL     OW 8284   4.263   1.926   2.374
 2760SOL    HW1 8285   4.182   1.927   2.432
 2760SOL    HW2 8286   4.266   2.009   2.319
 2761SOL     OW 8287   4.021   1.897   2.033
 2761SOL    HW1 8288   4.070   1.981   2.012
 2761SOL    HW2 8289   4.083   1.832   2.078
 2762SOL     OW 8290   4.183   3.014   2.603
 2762SOL    HW1 8291   4.112   2.987   2.668
 2762SOL    HW2 8292   4.157   2.986   2.510
 2763SOL     OW 8293   3.802   2.418   3.248
 2763SOL    HW1 8294   3.894   2.417   3.207
 2763SOL    HW2 8295   3.796   2.492   3.315
 2764SOL     OW 8296   4.285   2.084   3.009
 2764SOL    HW1 8297   4.323   2.000   3.046
 2764SOL    HW2 8298   4.197   2.103   3.053
 2765SOL     OW 8299   4.212   3.247   2.036
 2765SOL    HW1 8300   4.125   3.232   2.083
 2765SOL    HW2 8301   4.195   3.273   1.941
 2766SOL     OW 8302   4.251   2.118   2.190
 2766SOL    HW1 8303   4.278   2.059   2.115
 2766SOL    HW2 8304   4.251   2.213   2.159
 2767SOL     OW 8305   4.134   2.675   3.113
 2767SOL    HW1 8306   4.220   2.687   3.163
 2767SOL    HW2 8307   4.092   2.588   3.140
 2768SOL     OW 8308   3.788   3.426   3.193
 2768SOL    HW1 8309   3.742   3.508   3.159
 2768SOL    HW2 8310   3.886   3.445   3.202
 2769SOL     OW 8311   4.091   2.962   2.363
 2769SOL    HW1 8312   4.084   3.045   2.307
 2769SOL    HW2 8313   4.095   2.882   2.303
 2770SOL     OW 8314   4.290   2.399   2.727
 2770SOL    HW1 8315   4.302   2.465   2.653
 2770SOL    HW2 8316   4.336   2.433   2.810
 2771SOL     OW 8317   4.078   3.372   3.191
 2771SOL    HW1 8318   4.057   3.328   3.104
 2771SOL    HW2 8319   4.175   3.398   3.194
 2772SOL     OW 8320   4.126   2.613   3.460
 2772SOL    HW1 8321   4.194   2.668   3.413
 2772SOL    HW2 8322   4.166   2.525   3.487
 2773SOL     OW 8323   4.228   1.912   3.602
 2773SOL    HW1 8324   4.186   1.855   3.532
 2773SOL    HW2 8325   4.162   1.981   3.634
 2774SOL     OW 8326   4.297   2.732   2.891
 2774SOL    HW1 8327   4.341   2.821   2.882
 2774SOL    HW2 8328   4.234   2.732   2.968
 2775SOL     OW 8329   4.031   2.075   3.093
 2775SOL    HW1 8330   4.008   2.112   3.183
 2775SOL    HW2 8331   4.001   1.980   3.087
 2776SOL     OW 8332   3.761   3.172   3.144
 2776SOL    HW1 8333   3.814   3.123   3.212
 2776SOL    HW2 8334   3.783   3.270   3.149
 2777SOL     OW 8335   4.031   1.925   2.480
 2777SOL    HW1 8336   4.020   2.019   2.513
 2777SOL    HW2 8337   4.026   1.862   2.557
 2778SOL     OW 8338   4.074   2.760   3.666
 2778SOL    HW1 8339   4.150   2.804   3.714
 2778SOL    HW2 8340   4.109   2.713   3.584
 2779SOL     OW 8341   4.043   2.672   2.811
 2779SOL    HW1 8342   4.136   2.708   2.816
 2779SOL    HW2 8343   4.037   2.587   2.863
 2780SOL     OW 8344   4.063   2.371   2.868
 2780SOL    HW1 8345   4.011   2.288   2.851
 2780SOL    HW2 8346   4.140   2.376   2.804
 2781SOL     OW 8347   3.732   3.188   2.062
 2781SOL    HW1 8348   3.639   3.209   2.031
 2781SOL    HW2 8349   3.742   3.089   2.075
 2782SOL     OW 8350   3.812   3.663   2.789
 2782SOL    HW1 8351   3.770   3.577   2.762
 2782SOL    HW2 8352   3.906   3.666   2.755
 2783SOL     OW 8353   4.228   3.430   2.772
 2783SOL    HW1 8354   4.294   3.504   2.781
 2783SOL    HW2 8355   4.272   3.351   2.730
 2784SOL     OW 8356   3.764   2.406   2.976
 2784SOL    HW1 8357   3.849   2.373   2.935
 2784SOL    HW2 8358   3.777   2.421   3.074
 2785SOL     OW 8359   3.913   2.382   3.584
 2785SOL    HW1 8360   3.972   2.342   3.514
 2785SOL    HW2 8361   3.855   2.453   3.543
 2786SOL     OW 8362   4.539   2.434   2.187
 2786SOL    HW1 8363   4.546   2.345   2.141
 2786SOL    HW2 8364   4.445   2.468   2.179
 2787SOL     OW 8365   3.976   3.426   3.606
 2787SOL    HW1 8366   3.946   3.483   3.682
 2787SOL    HW2 8367   3.969   3.329   3.632
 2788SOL     OW 8368   4.197   2.362   2.053
 2788SOL    HW1 8369   4.258   2.442   2.057
 2788SOL    HW2 8370   4.102   2.393   2.060
 2789SOL     OW 8371   3.883   2.999   3.328
 2789SOL    HW1 8372   3.905   2.938   3.404
 2789SOL    HW2 8373   3.893   2.950   3.242
 2790SOL     OW 8374   3.807   3.120   2.884
 2790SOL    HW1 8375   3.802   3.119   2.984
 2790SOL    HW2 8376   3.724   3.079   2.846
 2791SOL     OW 8377   4.412   3.524   3.578
 2791SOL    HW1 8378   4.356   3.605   3.587
 2791SOL    HW2 8379   4.464   3.528   3.492
 2792SOL     OW 8380   3.854   3.656   3.713
 2792SOL    HW1 8381   3.813   3.582   3.766
 2792SOL    HW2 8382   3.918   3.707   3.771
 2793SOL     OW 8383   3.987   2.188   2.582
 2793SOL    HW1 8384   3.908   2.239   2.548
 2793SOL    HW2 8385   3.978   2.173   2.680
 2794SOL     OW 8386   4.096   3.150   3.352
 2794SOL    HW1 8387   4.083   3.243   3.318
 2794SOL    HW2 8388   4.012   3.098   3.339
 2795SOL     OW 8389   4.314   3.349   2.353
 2795SOL    HW1 8390   4.356   3.291   2.283
 2795SOL    HW2 8391   4.270   3.428   2.309
 2796SOL     OW 8392   3.979   3.210   2.152
 2796SOL    HW1 8393   3.883   3.211   2.125
 2796SOL    HW2 8394   3.991   3.263   2.236
 2797SOL     OW 8395   3.829   2.875   3.588
 2797SOL    HW1 8396   3.752   2.842   3.642
 2797SOL    HW2 8397   3.914   2.845   3.630
 2798SOL     OW 8398   4.396   2.065   3.351
 2798SOL    HW1 8399   4.486   2.049   3.311
 2798SOL    HW2 8400   4.404   2.070   3.450
 2799SOL     OW 8401   3.799   2.207   1.895
 2799SOL    HW1 8402   3.707   2.179   1.866
 2799SOL    HW2 8403   3.830   2.284   1.839
 2800SOL     OW 8404   3.796   2.028   2.180
 2800SOL    HW1 8405   3.779   2.111   2.126
 2800SOL    HW2 8406   3.886   1.991   2.158
 2801SOL     OW 8407   4.337   2.704   3.293
 2801SOL    HW1 8408   4.393   2.785   3.276
 2801SOL    HW2 8409   4.396   2.624   3.296
 2802SOL     OW 8410   4.440   2.427   3.570
 2802SOL    HW1 8411   4.459   2.492   3.644
 2802SOL    HW2 8412   4.500   2.347   3.579
 2803SOL     OW 8413   4.114   3.603   3.422
 2803SOL    HW1 8414   4.023   3.644   3.420
 2803SOL    HW2 8415   4.107   3.509   3.454
 2804SOL     OW 8416   4.318   2.607   2.514
 2804SOL    HW1 8417   4.368   2.692   2.495
 2804SOL    HW2 8418   4.230   2.609   2.466
 2805SOL     OW 8419   3.945   3.176   3.706
 2805SOL    HW1 8420   3.880   3.103   3.685
 2805SOL    HW2 8421   3.949   3.190   3.804
 2806SOL     OW 8422   3.803   3.102   2.515
 2806SOL    HW1 8423   3.802   3.055   2.603
 2806SOL    HW2 8424   3.885   3.074   2.464
 2807SOL     OW 8425   4.396   3.253   3.486
 2807SOL    HW1 8426   4.318   3.203   3.524
 2807SOL    HW2 8427   4.393   3.348   3.517
 2808SOL     OW 8428   4.152   2.286   2.382
 2808SOL    HW1 8429   4.182   2.214   2.320
 2808SOL    HW2 8430   4.113   2.246   2.465
 2809SOL     OW 8431   4.041   2.409   3.142
 2809SOL    HW1 8432   4.079   2.350   3.214
 2809SOL    HW2 8433   4.081   2.383   3.054
 2810SOL     OW 8434   4.536   3.448   2.549
 2810SOL    HW1 8435   4.568   3.458   2.455
 2810SOL    HW2 8436   4.457   3.386   2.551
 2811SOL     OW 8437   3.763   2.939   2.162
 2811SOL    HW1 8438   3.862   2.928   2.153
 2811SOL    HW2 8439   3.723   2.853   2.194
 2812SOL     OW 8440   3.954   2.490   3.837
 2812SOL    HW1 8441   3.861   2.488   3.874
 2812SOL    HW2 8442   3.955   2.451   3.745
 2813SOL     OW 8443   3.949   2.137   4.720
 2813SOL    HW1 8444   3.984   2.120   4.812
 2813SOL    HW2 8445   3.861   2.092   4.708
 2814SOL     OW 8446   3.955   3.575   4.207
 2814SOL    HW1 8447   3.989   3.652   4.261
 2814SOL    HW2 8448   3.999   3.575   4.117
 2815SOL     OW 8449   3.954   3.296   4.262
 2815SOL    HW1 8450   3.928   3.392   4.262
 2815SOL    HW2 8451   3.883   3.242   4.307
 2816SOL     OW 8452   4.330   2.826   3.847
 2816SOL    HW1 8453   4.337   2.910   3.793
 2816SOL    HW2 8454   4.376   2.839   3.935
 2817SOL     OW 8455   3.846   2.505   4.287
 2817SOL    HW1 8456   3.801   2.417   4.304
 2817SOL    HW2 8457   3.845   2.559   4.371
 2818SOL     OW 8458   3.751   3.458   3.841
 2818SOL    HW1 8459   3.732   3.362   3.862
 2818SOL    HW2 8460   3.718   3.516   3.916
 2819SOL     OW 8461   4.337   3.227   4.450
 2819SOL    HW1 8462   4.288   3.140   4.459
 2819SOL    HW2 8463   4.314   3.270   4.363
 2820SOL     OW 8464   4.533   1.866   4.226
 2820SOL    HW1 8465   4.573   1.957   4.217
 2820SOL    HW2 8466   4.433   1.874   4.232
 2821SOL     OW 8467   4.322   2.591   3.994
 2821SOL    HW1 8468   4.346   2.660   3.926
 2821SOL    HW2 8469   4.244   2.624   4.048
 2822SOL     OW 8470   3.800   2.673   4.513
 2822SOL    HW1 8471   3.899   2.661   4.522
 2822SOL    HW2 8472   3.776   2.768   4.534
 2823SOL     OW 8473   4.075   3.663   4.577
 2823SOL    HW1 8474   4.125   3.577   4.583
 2823SOL    HW2 8475   4.140   3.740   4.574
 2824SOL     OW 8476   4.045   2.805   3.966
 2824SOL    HW1 8477   4.127   2.844   3.924
 2824SOL    HW2 8478   4.018   2.723   3.917
 2825SOL     OW 8479   4.188   3.605   4.047
 2825SOL    HW1 8480   4.221   3.644   4.133
 2825SOL    HW2 8481   4.264   3.598   3.982
 2826SOL     OW 8482   4.106   2.562   4.204
 2826SOL    HW1 8483   4.151   2.472   4.201
 2826SOL    HW2 8484   4.012   2.551   4.237
 2827SOL     OW 8485   4.338   1.984   3.841
 2827SOL    HW1 8486   4.436   1.962   3.848
 2827SOL    HW2 8487   4.307   1.967   3.748
 2828SOL     OW 8488   4.263   1.926   4.236
 2828SOL    HW1 8489   4.182   1.927   4.294
 2828SOL    HW2 8490   4.266   2.009   4.181
 2829SOL     OW 8491   4.021   1.897   3.895
 2829SOL    HW1 8492   4.070   1.981   3.874
 2829SOL    HW2 8493   4.083   1.832   3.940
 2830SOL     OW 8494   4.183   3.014   4.465
 2830SOL    HW1 8495   4.112   2.987   4.530
 2830SOL    HW2 8496   4.157   2.986   4.372
 2831SOL     OW 8497   4.212   3.247   3.898
 2831SOL    HW1 8498   4.125   3.232   3.945
 2831SOL    HW2 8499   4.195   3.273   3.803
 2832SOL     OW 8500   4.251   2.118   4.052
 2832SOL    HW1 8501   4.278   2.059   3.977
 2832SOL    HW2 8502   4.251   2.213   4.021
 2833SOL     OW 8503   4.091   2.962   4.225
 2833SOL    HW1 8504   4.084   3.045   4.169
 2833SOL    HW2 8505   4.095   2.882   4.165
 2834SOL     OW 8506   4.031   1.925   4.342
 2834SOL    HW1 8507   4.020   2.019   4.375
 2834SOL    HW2 8508   4.026   1.862   4.419
 2835SOL     OW 8509   3.732   3.188   3.924
 2835SOL    HW1 8510   3.639   3.209   3.893
 2835SOL    HW2 8511   3.742   3.089   3.937
 2836SOL     OW 8512   4.539   2.434   4.049
 2836SOL    HW1 8513   4.546   2.345   4.003
 2836SOL    HW2 8514   4.445   2.468   4.041
 2837SOL     OW 8515   4.197   2.362   3.915
 2837SOL    HW1 8516   4.258   2.442   3.919
 2837SOL    HW2 8517   4.102   2.393   3.922
 2838SOL     OW 8518   4.314   3.349   4.215
 2838SOL    HW1 8519   4.356   3.291   4.145
 2838SOL    HW2 8520   4.270   3.428   4.171
 2839SOL     OW 8521   3.979   3.210   4.014
 2839SOL    HW1 8522   3.883   3.211   3.987
 2839SOL    HW2 8523   3.991   3.263   4.098
 2840SOL     OW 8524   3.799   2.207   3.757
 2840SOL    HW1 8525   3.707   2.179   3.728
 2840SOL    HW2 8526   3.830   2.284   3.701
 2841SOL     OW 8527   3.796   2.028   4.042
 2841SOL    HW1 8528   3.779   2.111   3.988
 2841SOL    HW2 8529   3.886   1.991   4.020
 2842SOL     OW 8530   4.318   2.607   4.376
 2842SOL    HW1 8531   4.368   2.692   4.357
 2842SOL    HW2 8532   4.230   2.609   4.328
 2843SOL     OW 8533   3.803   3.102   4.377
 2843SOL    HW1 8534   3.802   3.055   4.465
 2843SOL    HW2 8535   3.885   3.074   4.326
 2844SOL     OW 8536   4.152   2.286   4.244
 2844SOL    HW1 8537   4.182   2.214   4.182
 2844SOL    HW2 8538   4.113   2.246   4.327
 2845SOL     OW 8539   4.536   3.448   4.411
 2845SOL    HW1 8540   4.568   3.458   4.317
 2845SOL    HW2 8541   4.457   3.386   4.413
 2846SOL     OW 8542   3.763   2.939   4.024
 2846SOL    HW1 8543   3.862   2.928   4.015
 2846SOL    HW2 8544   3.723   2.853   4.056
 2847SOL     OW 8545   3.954   4.352   0.113
 2847SOL    HW1 8546   3.861   4.350   0.150
 2847SOL    HW2 8547   3.955   4.313   0.021
 2848SOL     OW 8548   3.949   3.999   0.996
 2848SOL    HW1 8549   3.984   3.982   1.088
 2848SOL    HW2 8550   3.861   3.954   0.984
 2849SOL     OW 8551   3.743   4.092   0.647
 2849SOL    HW1 8552   3.661   4.135   0.686
 2849SOL    HW2 8553   3.715   4.019   0.584
 2850SOL     OW 8554   4.574   4.522   1.823
 2850SOL    HW1 8555   4.570   4.598   1.888
 2850SOL    HW2 8556   4.596   4.558   1.732
 2851SOL     OW 8557   4.162   4.116   1.499
 2851SOL    HW1 8558   4.244   4.060   1.508
 2851SOL    HW2 8559   4.081   4.058   1.503
 2852SOL     OW 8560   3.846   4.367   0.563
 2852SOL    HW1 8561   3.801   4.279   0.580
 2852SOL    HW2 8562   3.845   4.421   0.647
 2853SOL     OW 8563   3.837   4.461   1.597
 2853SOL    HW1 8564   3.925   4.448   1.642
 2853SOL    HW2 8565   3.824   4.558   1.575
 2854SOL     OW 8566   4.533   3.728   0.502
 2854SOL    HW1 8567   4.573   3.819   0.493
 2854SOL    HW2 8568   4.433   3.736   0.508
 2855SOL     OW 8569   4.041   3.975   1.801
 2855SOL    HW1 8570   4.112   4.046   1.807
 2855SOL    HW2 8571   3.953   4.014   1.829
 2856SOL     OW 8572   4.322   4.453   0.270
 2856SOL    HW1 8573   4.346   4.522   0.202
 2856SOL    HW2 8574   4.244   4.486   0.324
 2857SOL     OW 8575   4.274   3.920   0.885
 2857SOL    HW1 8576   4.269   3.915   0.985
 2857SOL    HW2 8577   4.276   4.016   0.856
 2858SOL     OW 8578   3.926   4.009   1.498
 2858SOL    HW1 8579   3.846   4.069   1.485
 2858SOL    HW2 8580   3.916   3.960   1.584
 2859SOL     OW 8581   4.106   4.424   0.480
 2859SOL    HW1 8582   4.151   4.334   0.477
 2859SOL    HW2 8583   4.012   4.413   0.513
 2860SOL     OW 8584   4.338   3.846   0.117
 2860SOL    HW1 8585   4.436   3.824   0.124
 2860SOL    HW2 8586   4.307   3.829   0.024
 2861SOL     OW 8587   4.263   3.788   0.512
 2861SOL    HW1 8588   4.182   3.789   0.570
 2861SOL    HW2 8589   4.266   3.871   0.457
 2862SOL     OW 8590   4.800   4.407   1.464
 2862SOL    HW1 8591   4.720   4.346   1.467
 2862SOL    HW2 8592   4.881   4.354   1.440
 2863SOL     OW 8593   3.802   4.280   1.386
 2863SOL    HW1 8594   3.894   4.279   1.345
 2863SOL    HW2 8595   3.796   4.354   1.453
 2864SOL     OW 8596   4.285   3.946   1.147
 2864SOL    HW1 8597   4.323   3.862   1.184
 2864SOL    HW2 8598   4.197   3.965   1.191
 2865SOL     OW 8599   4.251   3.980   0.328
 2865SOL    HW1 8600   4.278   3.921   0.253
 2865SOL    HW2 8601   4.251   4.075   0.297
 2866SOL     OW 8602   4.290   4.261   0.865
 2866SOL    HW1 8603   4.302   4.327   0.791
 2866SOL    HW2 8604   4.336   4.295   0.948
 2867SOL     OW 8605   4.228   3.774   1.740
 2867SOL    HW1 8606   4.186   3.717   1.670
 2867SOL    HW2 8607   4.162   3.843   1.772
 2868SOL     OW 8608   4.031   3.937   1.231
 2868SOL    HW1 8609   4.008   3.974   1.321
 2868SOL    HW2 8610   4.001   3.842   1.225
 2869SOL     OW 8611   4.031   3.787   0.618
 2869SOL    HW1 8612   4.020   3.881   0.651
 2869SOL    HW2 8613   4.026   3.724   0.695
 2870SOL     OW 8614   4.043   4.534   0.949
 2870SOL    HW1 8615   4.136   4.570   0.954
 2870SOL    HW2 8616   4.037   4.449   1.001
 2871SOL     OW 8617   4.063   4.233   1.006
 2871SOL    HW1 8618   4.011   4.150   0.989
 2871SOL    HW2 8619   4.140   4.238   0.942
 2872SOL     OW 8620   3.764   4.268   1.114
 2872SOL    HW1 8621   3.849   4.235   1.073
 2872SOL    HW2 8622   3.777   4.283   1.212
 2873SOL     OW 8623   3.913   4.244   1.722
 2873SOL    HW1 8624   3.972   4.204   1.652
 2873SOL    HW2 8625   3.855   4.315   1.681
 2874SOL     OW 8626   4.539   4.296   0.325
 2874SOL    HW1 8627   4.546   4.207   0.279
 2874SOL    HW2 8628   4.445   4.330   0.317
 2875SOL     OW 8629   4.197   4.224   0.191
 2875SOL    HW1 8630   4.258   4.304   0.195
 2875SOL    HW2 8631   4.102   4.255   0.198
 2876SOL     OW 8632   3.987   4.050   0.720
 2876SOL    HW1 8633   3.908   4.101   0.686
 2876SOL    HW2 8634   3.978   4.035   0.818
 2877SOL     OW 8635   4.396   3.927   1.489
 2877SOL    HW1 8636   4.486   3.911   1.449
 2877SOL    HW2 8637   4.404   3.932   1.588
 2878SOL     OW 8638   3.799   4.069   0.033
 2878SOL    HW1 8639   3.707   4.041   0.004
 2878SOL    HW2 8640   3.830   4.146  -0.023
 2879SOL     OW 8641   4.440   4.289   1.708
 2879SOL    HW1 8642   4.459   4.354   1.782
 2879SOL    HW2 8643   4.500   4.209   1.717
 2880SOL     OW 8644   4.152   4.148   0.520
 2880SOL    HW1 8645   4.182   4.076   0.458
 2880SOL    HW2 8646   4.113   4.108   0.603
 2881SOL     OW 8647   4.041   4.271   1.280
 2881SOL    HW1 8648   4.079   4.212   1.352
 2881SOL    HW2 8649   4.081   4.245   1.192
 2882SOL     OW 8650   3.954   4.352   1.975
 2882SOL    HW1 8651   3.861   4.350   2.012
 2882SOL    HW2 8652   3.955   4.313   1.883
 2883SOL     OW 8653   3.949   3.999   2.858
 2883SOL    HW1 8654   3.984   3.982   2.950
 2883SOL    HW2 8655   3.861   3.954   2.846
 2884SOL     OW 8656   3.743   4.092   2.509
 2884SOL    HW1 8657   3.661   4.135   2.548
 2884SOL    HW2 8658   3.715   4.019   2.446
 2885SOL     OW 8659   4.574   4.522   3.685
 2885SOL    HW1 8660   4.570   4.598   3.750
 2885SOL    HW2 8661   4.596   4.558   3.594
 2886SOL     OW 8662   4.162   4.116   3.361
 2886SOL    HW1 8663   4.244   4.060   3.370
 2886SOL    HW2 8664   4.081   4.058   3.365
 2887SOL     OW 8665   3.846   4.367   2.425
 2887SOL    HW1 8666   3.801   4.279   2.442
 2887SOL    HW2 8667   3.845   4.421   2.509
 2888SOL     OW 8668   3.837   4.461   3.459
 2888SOL    HW1 8669   3.925   4.448   3.504
 2888SOL    HW2 8670   3.824   4.558   3.437
 2889SOL     OW 8671   4.533   3.728   2.364
 2889SOL    HW1 8672   4.573   3.819   2.355
 2889SOL    HW2 8673   4.433   3.736   2.370
 2890SOL     OW 8674   4.041   3.975   3.663
 2890SOL    HW1 8675   4.112   4.046   3.669
 2890SOL    HW2 8676   3.953   4.014   3.691
 2891SOL     OW 8677   4.274   3.920   2.747
 2891SOL    HW1 8678   4.269   3.915   2.847
 2891SOL    HW2 8679   4.276   4.016   2.718
 2892SOL     OW 8680   3.926   4.009   3.360
 2892SOL    HW1 8681   3.846   4.069   3.347
 2892SOL    HW2 8682   3.916   3.960   3.446
 2893SOL     OW 8683   4.106   4.424   2.342
 2893SOL    HW1 8684   4.151   4.334   2.339
 2893SOL    HW2 8685   4.012   4.413   2.375
 2894SOL     OW 8686   4.338   3.846   1.979
 2894SOL    HW1 8687   4.436   3.824   1.986
 2894SOL    HW2 8688   4.307   3.829   1.886
 2895SOL     OW 8689   4.263   3.788   2.374
 2895SOL    HW1 8690   4.182   3.789   2.432
 2895SOL    HW2 8691   4.266   3.871   2.319
 2896SOL     OW 8692   4.021   3.759   2.033
 2896SOL    HW1 8693   4.070   3.843   2.012
 2896SOL    HW2 8694   4.083   3.694   2.078
 2897SOL     OW 8695   4.800   4.407   3.326
 2897SOL    HW1 8696   4.720   4.346   3.329
 2897SOL    HW2 8697   4.881   4.354   3.302
 2898SOL     OW 8698   3.802   4.280   3.248
 2898SOL    HW1 8699   3.894   4.279   3.207
 2898SOL    HW2 8700   3.796   4.354   3.315
 2899SOL     OW 8701   4.285   3.946   3.009
 2899SOL    HW1 8702   4.323   3.862   3.046
 2899SOL    HW2 8703   4.197   3.965   3.053
 2900SOL     OW 8704   4.251   3.980   2.190
 2900SOL    HW1 8705   4.278   3.921   2.115
 2900SOL    HW2 8706   4.251   4.075   2.159
 2901SOL     OW 8707   4.290   4.261   2.727
 2901SOL    HW1 8708   4.302   4.327   2.653
 2901SOL    HW2 8709   4.336   4.295   2.810
 2902SOL     OW 8710   4.228   3.774   3.602
 2902SOL    HW1 8711   4.186   3.717   3.532
 2902SOL    HW2 8712   4.162   3.843   3.634
 2903SOL     OW 8713   4.031   3.937   3.093
 2903SOL    HW1 8714   4.008   3.974   3.183
 2903SOL    HW2 8715   4.001   3.842   3.087
 2904SOL     OW 8716   4.031   3.787   2.480
 2904SOL    HW1 8717   4.020   3.881   2.513
 2904SOL    HW2 8718   4.026   3.724   2.557
 2905SOL     OW 8719   4.043   4.534   2.811
 2905SOL    HW1 8720   4.136   4.570   2.816
 2905SOL    HW2 8721   4.037   4.449   2.863
 2906SOL     OW 8722   4.063   4.233   2.868
 2906SOL    HW1 8723   4.011   4.150   2.851
 2906SOL    HW2 8724   4.140   4.238   2.804
 2907SOL     OW 8725   3.764   4.268   2.976
 2907SOL    HW1 8726   3.849   4.235   2.935
 2907SOL    HW2 8727   3.777   4.283   3.074
 2908SOL     OW 8728   3.913   4.244   3.584
 2908SOL    HW1 8729   3.972   4.204   3.514
 2908SOL    HW2 8730   3.855   4.315   3.543
 2909SOL     OW 8731   4.539   4.296   2.187
 2909SOL    HW1 8732   4.546   4.207   2.141
 2909SOL    HW2 8733   4.445   4.330   2.179
 2910SOL     OW 8734   4.197   4.224   2.053
 2910SOL    HW1 8735   4.258   4.304   2.057
 2910SOL    HW2 8736   4.102   4.255   2.060
 2911SOL     OW 8737   3.987   4.050   2.582
 2911SOL    HW1 8738   3.908   4.101   2.548
 2911SOL    HW2 8739   3.978   4.035   2.680
 2912SOL     OW 8740   4.396   3.927   3.351
 2912SOL    HW1 8741   4.486   3.911   3.311
 2912SOL    HW2 8742   4.404   3.932   3.450
 2913SOL     OW 8743   3.799   4.069   1.895
 2913SOL    HW1 8744   3.707   4.041   1.866
 2913SOL    HW2 8745   3.830   4.146   1.839
 2914SOL     OW 8746   3.796   3.890   2.180
 2914SOL    HW1 8747   3.779   3.973   2.126
 2914SOL    HW2 8748   3.886   3.853   2.158
 2915SOL     OW 8749   4.440   4.289   3.570
 2915SOL    HW1 8750   4.459   4.354   3.644
 2915SOL    HW2 8751   4.500   4.209   3.579
 2916SOL     OW 8752   4.152   4.148   2.382
 2916SOL    HW1 8753   4.182   4.076   2.320
 2916SOL    HW2 8754   4.113   4.108   2.465
 2917SOL     OW 8755   4.041   4.271   3.142
 2917SOL    HW1 8756   4.079   4.212   3.214
 2917SOL    HW2 8757   4.081   4.245   3.054
 2918SOL     OW 8758   3.954   4.352   3.837
 2918SOL    HW1 8759   3.861   4.350   3.874
 2918SOL    HW2 8760   3.955   4.313   3.745
 2919SOL     OW 8761   3.949   3.999   4.720
 2919SOL    HW1 8762   3.984   3.982   4.812
 2919SOL    HW2 8763   3.861   3.954   4.708
 2920SOL     OW 8764   3.846   4.367   4.287
 2920SOL    HW1 8765   3.801   4.279   4.304
 2920SOL    HW2 8766   3.845   4.421   4.371
 2921SOL     OW 8767   4.533   3.728   4.226
 2921SOL    HW1 8768   4.573   3.819   4.217
 2921SOL    HW2 8769   4.433   3.736   4.232
 2922SOL     OW 8770   4.106   4.424   4.204
 2922SOL    HW1 8771   4.151   4.334   4.201
 2922SOL    HW2 8772   4.012   4.413   4.237
 2923SOL     OW 8773   4.338   3.846   3.841
 2923SOL    HW1 8774   4.436   3.824   3.848
 2923SOL    HW2 8775   4.307   3.829   3.748
 2924SOL     OW 8776   4.263   3.788   4.236
 2924SOL    HW1 8777   4.182   3.789   4.294
 2924SOL    HW2 8778   4.266   3.871   4.181
 2925SOL     OW 8779   4.021   3.759   3.895
 2925SOL    HW1 8780   4.070   3.843   3.874
 2925SOL    HW2 8781   4.083   3.694   3.940
 2926SOL     OW 8782   4.251   3.980   4.052
 2926SOL    HW1 8783   4.278   3.921   3.977
 2926SOL    HW2 8784   4.251   4.075   4.021
 2927SOL     OW 8785   4.031   3.787   4.342
 2927SOL    HW1 8786   4.020   3.881   4.375
 2927SOL    HW2 8787   4.026   3.724   4.419
 2928SOL     OW 8788   4.539   4.296   4.049
 2928SOL    HW1 8789   4.546   4.207   4.003
 2928SOL    HW2 8790   4.445   4.330   4.041
 2929SOL     OW 8791   4.197   4.224   3.915
 2929SOL    HW1 8792   4.258   4.304   3.919
 2929SOL    HW2 8793   4.102   4.255   3.922
 2930SOL     OW 8794   3.799   4.069   3.757
 2930SOL    HW1 8795   3.707   4.041   3.728
 2930SOL    HW2 8796   3.830   4.146   3.701
 2931SOL     OW 8797   3.796   3.890   4.042
 2931SOL    HW1 8798   3.779   3.973   3.988
 2931SOL    HW2 8799   3.886   3.853   4.020
 2932SOL     OW 8800   4.152   4.148   4.244
 2932SOL    HW1 8801   4.182   4.076   4.182
 2932SOL    HW2 8802   4.113   4.108   4.327
   4.47127   4.47127   4.47127
