mobley_8118832_GMX.gro created by acpype (v: 2023.10.27) on Wed May 20 23:46:34 2026
   10
    1MOL     C1    1   2.321   2.318   2.170
    1MOL     C2    2   2.209   2.277   2.230
    1MOL     C3    3   2.141   2.148   2.199
    1MOL     O1    4   2.137   2.068   2.317
    1MOL     H1    5   2.368   2.413   2.196
    1MOL     H2    6   2.368   2.258   2.093
    1MOL     H3    7   2.164   2.340   2.306
    1MOL     H4    8   2.193   2.091   2.121
    1MOL     H5    9   2.038   2.167   2.167
    1MOL     H6   10   2.220   2.085   2.365
   4.43247   4.43247   4.43247
