mobley_8118832_GMX.gro created by acpype (v: 2023.10.27) on Wed May 20 23:46:34 2026
 8551
    1MOL     C1    1   2.321   2.318   2.170
    1MOL     C2    2   2.209   2.277   2.230
    1MOL     C3    3   2.141   2.148   2.199
    1MOL     O1    4   2.137   2.068   2.317
    1MOL     H1    5   2.368   2.413   2.196
    1MOL     H2    6   2.368   2.258   2.093
    1MOL     H3    7   2.164   2.340   2.306
    1MOL     H4    8   2.193   2.091   2.121
    1MOL     H5    9   2.038   2.167   2.167
    1MOL     H6   10   2.220   2.085   2.365
    2SOL     OW   11   0.230   0.628   0.113
    2SOL    HW1   12   0.137   0.626   0.150
    2SOL    HW2   13   0.231   0.589   0.021
    3SOL     OW   14   0.225   0.275   0.996
    3SOL    HW1   15   0.260   0.258   1.088
    3SOL    HW2   16   0.137   0.230   0.984
    4SOL     OW   17   0.019   0.368   0.647
    4SOL    HW1   18  -0.063   0.411   0.686
    4SOL    HW2   19  -0.009   0.295   0.584
    5SOL     OW   20   0.569   1.275   1.165
    5SOL    HW1   21   0.476   1.268   1.128
    5SOL    HW2   22   0.580   1.364   1.209
    6SOL     OW   23   1.555   1.511   0.703
    6SOL    HW1   24   1.498   1.495   0.784
    6SOL    HW2   25   1.496   1.521   0.623
    7SOL     OW   26   1.135   0.703   0.717
    7SOL    HW1   27   1.192   0.781   0.692
    7SOL    HW2   28   1.075   0.729   0.793
    8SOL     OW   29   1.755   0.607   0.231
    8SOL    HW1   30   1.743   0.594   0.132
    8SOL    HW2   31   1.725   0.526   0.280
    9SOL     OW   32   0.768   1.144   1.023
    9SOL    HW1   33   0.690   1.161   1.083
    9SOL    HW2   34   0.802   1.231   0.987
   10SOL     OW   35   0.850   0.798   1.823
   10SOL    HW1   36   0.846   0.874   1.888
   10SOL    HW2   37   0.872   0.834   1.732
   11SOL     OW   38   0.685   1.012   0.665
   11SOL    HW1   39   0.754   0.996   0.735
   11SOL    HW2   40   0.612   1.069   0.703
   12SOL     OW   41   0.686   1.161   1.803
   12SOL    HW1   42   0.746   1.240   1.817
   12SOL    HW2   43   0.600   1.192   1.762
   13SOL     OW   44   0.335   1.435   1.061
   13SOL    HW1   45   0.257   1.404   1.008
   13SOL    HW2   46   0.393   1.493   1.004
   14SOL     OW   47   1.460   1.505   1.339
   14SOL    HW1   48   1.484   1.599   1.365
   14SOL    HW2   49   1.444   1.451   1.421
   15SOL     OW   50   0.438   0.392   1.499
   15SOL    HW1   51   0.520   0.336   1.508
   15SOL    HW2   52   0.357   0.334   1.503
   16SOL     OW   53   1.603   0.447   0.737
   16SOL    HW1   54   1.529   0.493   0.687
   16SOL    HW2   55   1.654   0.515   0.790
   17SOL     OW   56   0.231   1.713   0.483
   17SOL    HW1   57   0.265   1.790   0.537
   17SOL    HW2   58   0.275   1.713   0.393
   18SOL     OW   59   1.127   1.341   1.690
   18SOL    HW1   60   1.174   1.341   1.778
   18SOL    HW2   61   1.079   1.254   1.679
   19SOL     OW   62   0.230   1.434   0.538
   19SOL    HW1   63   0.204   1.530   0.538
   19SOL    HW2   64   0.159   1.380   0.583
   20SOL     OW   65   0.240   1.091   0.886
   20SOL    HW1   66   0.254   1.007   0.938
   20SOL    HW2   67   0.185   1.155   0.941
   21SOL     OW   68   0.620   1.786   1.439
   21SOL    HW1   69   0.528   1.769   1.474
   21SOL    HW2   70   0.648   1.878   1.465
   22SOL     OW   71   0.606   0.964   0.123
   22SOL    HW1   72   0.613   1.048   0.069
   22SOL    HW2   73   0.652   0.977   0.211
   23SOL     OW   74   1.594   0.114   1.480
   23SOL    HW1   75   1.576   0.181   1.408
   23SOL    HW2   76   1.591   0.160   1.569
   24SOL     OW   77   0.122   0.643   0.563
   24SOL    HW1   78   0.077   0.555   0.580
   24SOL    HW2   79   0.121   0.697   0.647
   25SOL     OW   80   1.842   1.767   0.359
   25SOL    HW1   81   1.896   1.738   0.439
   25SOL    HW2   82   1.872   1.857   0.330
   26SOL     OW   83   0.027   1.596   0.117
   26SOL    HW1   84   0.008   1.500   0.138
   26SOL    HW2   85  -0.006   1.654   0.192
   27SOL     OW   86   1.689   0.922   0.612
   27SOL    HW1   87   1.784   0.893   0.620
   27SOL    HW2   88   1.681   0.987   0.537
   28SOL     OW   89   1.641   1.108   0.432
   28SOL    HW1   90   1.727   1.110   0.380
   28SOL    HW2   91   1.655   1.155   0.520
   29SOL     OW   92   0.113   0.737   1.597
   29SOL    HW1   93   0.201   0.724   1.642
   29SOL    HW2   94   0.100   0.834   1.575
   30SOL     OW   95   0.613   1.365   0.726
   30SOL    HW1   96   0.564   1.278   0.735
   30SOL    HW2   97   0.590   1.408   0.639
   31SOL     OW   98   1.293   1.228   1.423
   31SOL    HW1   99   1.330   1.155   1.365
   31SOL    HW2  100   1.345   1.233   1.508
   32SOL     OW  101   0.809   0.004   0.502
   32SOL    HW1  102   0.849   0.095   0.493
   32SOL    HW2  103   0.709   0.012   0.508
   33SOL     OW  104   0.197   0.976   1.264
   33SOL    HW1  105   0.286   0.931   1.250
   33SOL    HW2  106   0.124   0.911   1.245
   34SOL     OW  107   1.525   0.999   0.190
   34SOL    HW1  108   1.462   0.923   0.203
   34SOL    HW2  109   1.573   1.017   0.276
   35SOL     OW  110   1.187   1.792   1.616
   35SOL    HW1  111   1.211   1.852   1.540
   35SOL    HW2  112   1.194   1.697   1.586
   36SOL     OW  113   0.317   0.251   1.801
   36SOL    HW1  114   0.388   0.322   1.807
   36SOL    HW2  115   0.229   0.290   1.829
   37SOL     OW  116   1.466   1.417   0.953
   37SOL    HW1  117   1.407   1.423   1.033
   37SOL    HW2  118   1.451   1.329   0.907
   38SOL     OW  119   1.667   1.714   0.572
   38SOL    HW1  120   1.626   1.691   0.484
   38SOL    HW2  121   1.649   1.640   0.637
   39SOL     OW  122   0.598   0.729   0.270
   39SOL    HW1  123   0.622   0.798   0.202
   39SOL    HW2  124   0.520   0.762   0.324
   40SOL     OW  125   1.281   0.345   0.944
   40SOL    HW1  126   1.195   0.295   0.931
   40SOL    HW2  127   1.343   0.291   1.000
   41SOL     OW  128   1.576   1.662   0.307
   41SOL    HW1  129   1.665   1.708   0.310
   41SOL    HW2  130   1.555   1.638   0.212
   42SOL     OW  131   0.807   0.605   1.465
   42SOL    HW1  132   0.760   0.602   1.554
   42SOL    HW2  133   0.756   0.550   1.399
   43SOL     OW  134   1.394   0.469   1.674
   43SOL    HW1  135   1.374   0.512   1.762
   43SOL    HW2  136   1.472   0.407   1.683
   44SOL     OW  137   0.973   0.890   1.572
   44SOL    HW1  138   1.019   0.806   1.543
   44SOL    HW2  139   0.917   0.924   1.497
   45SOL     OW  140   0.991   0.410   1.242
   45SOL    HW1  141   0.914   0.444   1.296
   45SOL    HW2  142   0.957   0.359   1.163
   46SOL     OW  143   1.041   0.701   0.429
   46SOL    HW1  144   1.067   0.697   0.525
   46SOL    HW2  145   0.956   0.650   0.415
   47SOL     OW  146   0.076   0.811   0.789
   47SOL    HW1  147   0.175   0.799   0.798
   47SOL    HW2  148   0.052   0.906   0.810
   48SOL     OW  149   0.130   1.821   1.571
   48SOL    HW1  150   0.120   1.806   1.670
   48SOL    HW2  151   0.044   1.857   1.535
   49SOL     OW  152   0.865   0.348   0.195
   49SOL    HW1  153   0.924   0.411   0.146
   49SOL    HW2  154   0.884   0.254   0.166
   50SOL     OW  155   1.719   0.585   1.831
   50SOL    HW1  156   1.693   0.674   1.795
   50SOL    HW2  157   1.717   0.517   1.758
   51SOL     OW  158   1.362   1.144   0.545
   51SOL    HW1  159   1.445   1.115   0.497
   51SOL    HW2  160   1.313   1.211   0.489
   52SOL     OW  161   0.550   0.196   0.885
   52SOL    HW1  162   0.545   0.191   0.985
   52SOL    HW2  163   0.552   0.292   0.856
   53SOL     OW  164   1.008   1.456   0.477
   53SOL    HW1  165   0.962   1.528   0.425
   53SOL    HW2  166   1.004   1.476   0.575
   54SOL     OW  167   0.351   1.801   0.853
   54SOL    HW1  168   0.401   1.715   0.859
   54SOL    HW2  169   0.416   1.878   0.850
   55SOL     OW  170   1.795   1.066   0.873
   55SOL    HW1  171   1.733   1.051   0.797
   55SOL    HW2  172   1.743   1.077   0.958
   56SOL     OW  173   1.227   1.550   1.506
   56SOL    HW1  174   1.233   1.473   1.570
   56SOL    HW2  175   1.175   1.524   1.426
   57SOL     OW  176   0.321   0.943   0.242
   57SOL    HW1  177   0.403   0.982   0.200
   57SOL    HW2  178   0.294   0.861   0.193
   58SOL     OW  179   1.458   0.735   0.728
   58SOL    HW1  180   1.453   0.670   0.803
   58SOL    HW2  181   1.538   0.794   0.741
   59SOL     OW  182   0.461   1.266   1.727
   59SOL    HW1  183   0.411   1.267   1.641
   59SOL    HW2  184   0.398   1.248   1.803
   60SOL     OW  185   1.111   1.776   0.237
   60SOL    HW1  186   1.051   1.714   0.287
   60SOL    HW2  187   1.142   1.732   0.152
   61SOL     OW  188   0.202   0.285   1.498
   61SOL    HW1  189   0.122   0.345   1.485
   61SOL    HW2  190   0.192   0.236   1.584
   62SOL     OW  191   1.632   1.377   0.081
   62SOL    HW1  192   1.600   1.471   0.071
   62SOL    HW2  193   1.556   1.314   0.069
   63SOL     OW  194   0.464   1.743   0.323
   63SOL    HW1  195   0.497   1.782   0.409
   63SOL    HW2  196   0.540   1.736   0.258
   64SOL     OW  197   1.400   0.107   0.426
   64SOL    HW1  198   1.376   0.070   0.336
   64SOL    HW2  199   1.499   0.123   0.430
   65SOL     OW  200   0.249   1.785   1.241
   65SOL    HW1  201   0.306   1.720   1.291
   65SOL    HW2  202   0.233   1.752   1.148
   66SOL     OW  203   0.940   1.698   0.904
   66SOL    HW1  204   1.020   1.641   0.925
   66SOL    HW2  205   0.891   1.658   0.827
   67SOL     OW  206   0.382   0.700   0.480
   67SOL    HW1  207   0.427   0.610   0.477
   67SOL    HW2  208   0.288   0.689   0.513
   68SOL     OW  209   1.547   0.222   1.729
   68SOL    HW1  210   1.542   0.259   1.821
   68SOL    HW2  211   1.475   0.153   1.717
   69SOL     OW  212   0.614   0.122   0.117
   69SOL    HW1  213   0.712   0.100   0.124
   69SOL    HW2  214   0.583   0.105   0.024
   70SOL     OW  215   0.781   0.264   1.749
   70SOL    HW1  216   0.848   0.203   1.792
   70SOL    HW2  217   0.708   0.283   1.814
   71SOL     OW  218   0.888   1.514   1.195
   71SOL    HW1  219   0.865   1.489   1.101
   71SOL    HW2  220   0.949   1.445   1.234
   72SOL     OW  221   1.351   0.590   1.433
   72SOL    HW1  222   1.379   0.547   1.518
   72SOL    HW2  223   1.376   0.686   1.434
   73SOL     OW  224   0.803   1.402   0.924
   73SOL    HW1  225   0.893   1.416   0.882
   73SOL    HW2  226   0.732   1.404   0.853
   74SOL     OW  227   0.922   0.503   0.899
   74SOL    HW1  228   0.897   0.494   0.803
   74SOL    HW2  229   0.970   0.421   0.930
   75SOL     OW  230   0.539   0.064   0.512
   75SOL    HW1  231   0.458   0.065   0.570
   75SOL    HW2  232   0.542   0.147   0.457
   76SOL     OW  233   1.434   1.188   0.041
   76SOL    HW1  234   1.466   1.112   0.098
   76SOL    HW2  235   1.342   1.215   0.071
   77SOL     OW  236   0.297   0.035   0.171
   77SOL    HW1  237   0.346   0.119   0.150
   77SOL    HW2  238   0.359  -0.030   0.216
   78SOL     OW  239   0.935   0.236   0.480
   78SOL    HW1  240   0.887   0.277   0.402
   78SOL    HW2  241   1.034   0.234   0.461
   79SOL     OW  242   1.076   0.683   1.464
   79SOL    HW1  243   0.996   0.622   1.467
   79SOL    HW2  244   1.157   0.630   1.440
   80SOL     OW  245   1.227   1.570   0.793
   80SOL    HW1  246   1.248   1.644   0.728
   80SOL    HW2  247   1.295   1.570   0.866
   81SOL     OW  248   0.459   1.152   0.741
   81SOL    HW1  249   0.388   1.125   0.806
   81SOL    HW2  250   0.433   1.124   0.648
   82SOL     OW  251   1.271   1.797   0.591
   82SOL    HW1  252   1.315   1.861   0.527
   82SOL    HW2  253   1.221   1.849   0.661
   83SOL     OW  254   1.032   0.549   0.016
   83SOL    HW1  255   0.991   0.631  -0.023
   83SOL    HW2  256   1.096   0.575   0.089
   84SOL     OW  257   0.078   0.556   1.386
   84SOL    HW1  258   0.170   0.555   1.345
   84SOL    HW2  259   0.072   0.630   1.453
   85SOL     OW  260   0.561   0.222   1.147
   85SOL    HW1  261   0.599   0.138   1.184
   85SOL    HW2  262   0.473   0.241   1.191
   86SOL     OW  263   0.866   0.454   0.642
   86SOL    HW1  264   0.834   0.526   0.580
   86SOL    HW2  265   0.890   0.373   0.589
   87SOL     OW  266   1.017   0.039   0.753
   87SOL    HW1  267   0.945   0.044   0.684
   87SOL    HW2  268   0.993  -0.030   0.822
   88SOL     OW  269   1.429   1.173   0.867
   88SOL    HW1  270   1.374   1.089   0.860
   88SOL    HW2  271   1.455   1.202   0.775
   89SOL     OW  272   1.466   0.590   0.992
   89SOL    HW1  273   1.436   0.495   0.999
   89SOL    HW2  274   1.539   0.606   1.058
   90SOL     OW  275   1.857   0.833   0.377
   90SOL    HW1  276   1.899   0.769   0.441
   90SOL    HW2  277   1.819   0.782   0.299
   91SOL     OW  278   0.488   1.385   0.174
   91SOL    HW1  279   0.401   1.370   0.221
   91SOL    HW2  280   0.471   1.411   0.079
   92SOL     OW  281   1.664   1.280   0.657
   92SOL    HW1  282   1.763   1.288   0.671
   92SOL    HW2  283   1.619   1.364   0.688
   93SOL     OW  284   1.390   0.575   0.078
   93SOL    HW1  285   1.336   0.554   0.159
   93SOL    HW2  286   1.481   0.534   0.087
   94SOL     OW  287   0.527   0.256   0.328
   94SOL    HW1  288   0.554   0.197   0.253
   94SOL    HW2  289   0.527   0.351   0.297
   95SOL     OW  290   1.754   1.223   1.588
   95SOL    HW1  291   1.845   1.184   1.575
   95SOL    HW2  292   1.762   1.319   1.612
   96SOL     OW  293   1.064   1.347   1.340
   96SOL    HW1  294   0.984   1.324   1.395
   96SOL    HW2  295   1.147   1.321   1.389
   97SOL     OW  296   1.592   1.629   1.625
   97SOL    HW1  297   1.619   1.663   1.535
   97SOL    HW2  298   1.671   1.591   1.671
   98SOL     OW  299   1.111   1.195   1.100
   98SOL    HW1  300   1.071   1.239   1.181
   98SOL    HW2  301   1.070   1.232   1.017
   99SOL     OW  302   1.638   1.099   1.079
   99SOL    HW1  303   1.643   1.180   1.138
   99SOL    HW2  304   1.552   1.101   1.028
  100SOL     OW  305   0.915   0.089   1.402
  100SOL    HW1  306   0.940   0.069   1.307
  100SOL    HW2  307   0.987   0.145   1.444
  101SOL     OW  308   0.980   1.116   1.719
  101SOL    HW1  309   0.881   1.122   1.729
  101SOL    HW2  310   1.003   1.036   1.663
  102SOL     OW  311   0.705   1.050   0.368
  102SOL    HW1  312   0.691   1.057   0.467
  102SOL    HW2  313   0.789   0.999   0.350
  103SOL     OW  314   0.410   0.813   1.251
  103SOL    HW1  315   0.496   0.825   1.301
  103SOL    HW2  316   0.368   0.726   1.278
  104SOL     OW  317   1.274   0.386   1.262
  104SOL    HW1  318   1.295   0.460   1.326
  104SOL    HW2  319   1.185   0.403   1.219
  105SOL     OW  320   0.064   1.564   1.331
  105SOL    HW1  321   0.018   1.646   1.297
  105SOL    HW2  322   0.162   1.583   1.340
  106SOL     OW  323   0.367   1.100   0.501
  106SOL    HW1  324   0.360   1.183   0.445
  106SOL    HW2  325   0.371   1.020   0.441
  107SOL     OW  326   0.566   0.537   0.865
  107SOL    HW1  327   0.578   0.603   0.791
  107SOL    HW2  328   0.612   0.571   0.948
  108SOL     OW  329   1.252   1.348   0.388
  108SOL    HW1  330   1.302   1.425   0.428
  108SOL    HW2  331   1.157   1.350   0.420
  109SOL     OW  332   1.272   1.445   1.142
  109SOL    HW1  333   1.319   1.458   1.229
  109SOL    HW2  334   1.206   1.371   1.151
  110SOL     OW  335   1.582   0.639   0.472
  110SOL    HW1  336   1.551   0.700   0.545
  110SOL    HW2  337   1.632   0.691   0.403
  111SOL     OW  338   0.354   1.510   1.329
  111SOL    HW1  339   0.333   1.466   1.242
  111SOL    HW2  340   0.451   1.536   1.332
  112SOL     OW  341   0.402   0.751   1.598
  112SOL    HW1  342   0.470   0.806   1.551
  112SOL    HW2  343   0.442   0.663   1.625
  113SOL     OW  344   1.587   0.779   1.670
  113SOL    HW1  345   1.495   0.817   1.665
  113SOL    HW2  346   1.647   0.826   1.605
  114SOL     OW  347   1.013   0.105   1.770
  114SOL    HW1  348   1.019   0.190   1.718
  114SOL    HW2  349   1.045   0.029   1.713
  115SOL     OW  350   0.504   0.050   1.740
  115SOL    HW1  351   0.462  -0.007   1.670
  115SOL    HW2  352   0.438   0.119   1.772
  116SOL     OW  353   0.573   0.870   1.029
  116SOL    HW1  354   0.617   0.959   1.020
  116SOL    HW2  355   0.510   0.870   1.106
  117SOL     OW  356   1.360   0.862   1.045
  117SOL    HW1  357   1.285   0.862   0.979
  117SOL    HW2  358   1.397   0.770   1.054
  118SOL     OW  359   1.209   0.525   0.275
  118SOL    HW1  360   1.222   0.441   0.329
  118SOL    HW2  361   1.180   0.599   0.335
  119SOL     OW  362   0.307   0.213   1.231
  119SOL    HW1  363   0.284   0.250   1.321
  119SOL    HW2  364   0.277   0.118   1.225
  120SOL     OW  365   0.037   1.310   1.282
  120SOL    HW1  366   0.090   1.261   1.350
  120SOL    HW2  367   0.059   1.408   1.287
  121SOL     OW  368   0.732   0.634   1.064
  121SOL    HW1  369   0.791   0.608   0.988
  121SOL    HW2  370   0.704   0.730   1.053
  122SOL     OW  371   1.728   0.935   1.854
  122SOL    HW1  372   1.682   0.928   1.765
  122SOL    HW2  373   1.666   0.979   1.920
  123SOL     OW  374   0.307   0.063   0.618
  123SOL    HW1  375   0.296   0.157   0.651
  123SOL    HW2  376   0.302   0.000   0.695
  124SOL     OW  377   1.622   0.367   0.374
  124SOL    HW1  378   1.624   0.291   0.438
  124SOL    HW2  379   1.574   0.444   0.414
  125SOL     OW  380   1.023   0.766   0.966
  125SOL    HW1  381   1.038   0.787   1.062
  125SOL    HW2  382   0.993   0.671   0.957
  126SOL     OW  383   0.980   1.573   1.700
  126SOL    HW1  384   0.960   1.617   1.612
  126SOL    HW2  385   1.019   1.482   1.684
  127SOL     OW  386   1.859   1.518   1.605
  127SOL    HW1  387   1.873   1.545   1.510
  127SOL    HW2  388   1.942   1.540   1.658
  128SOL     OW  389   0.350   0.898   1.804
  128SOL    HW1  390   0.426   0.942   1.852
  128SOL    HW2  391   0.385   0.851   1.722
  129SOL     OW  392   1.540   0.274   0.125
  129SOL    HW1  393   1.479   0.199   0.148
  129SOL    HW2  394   1.562   0.326   0.208
  130SOL     OW  395   1.303   0.838   0.042
  130SOL    HW1  396   1.337   0.745   0.057
  130SOL    HW2  397   1.321   0.865  -0.053
  131SOL     OW  398   1.068   1.333   0.849
  131SOL    HW1  399   1.075   1.249   0.794
  131SOL    HW2  400   1.130   1.402   0.813
  132SOL     OW  401   0.319   0.810   0.949
  132SOL    HW1  402   0.412   0.846   0.954
  132SOL    HW2  403   0.313   0.725   1.001
  133SOL     OW  404   0.339   0.509   1.006
  133SOL    HW1  405   0.287   0.426   0.989
  133SOL    HW2  406   0.416   0.514   0.942
  134SOL     OW  407   1.138   0.380   1.678
  134SOL    HW1  408   1.093   0.443   1.742
  134SOL    HW2  409   1.231   0.411   1.661
  135SOL     OW  410   1.160   0.207   1.477
  135SOL    HW1  411   1.160   0.271   1.554
  135SOL    HW2  412   1.188   0.255   1.394
  136SOL     OW  413   0.008   1.326   0.200
  136SOL    HW1  414  -0.085   1.347   0.169
  136SOL    HW2  415   0.018   1.227   0.213
  137SOL     OW  416   0.088   1.801   0.927
  137SOL    HW1  417   0.046   1.715   0.900
  137SOL    HW2  418   0.182   1.804   0.893
  138SOL     OW  419   0.504   1.568   0.910
  138SOL    HW1  420   0.570   1.642   0.919
  138SOL    HW2  421   0.548   1.489   0.868
  139SOL     OW  422   1.002   0.796   1.238
  139SOL    HW1  423   1.043   0.764   1.324
  139SOL    HW2  424   0.906   0.769   1.235
  140SOL     OW  425   0.040   0.544   1.114
  140SOL    HW1  426   0.125   0.511   1.073
  140SOL    HW2  427   0.053   0.559   1.212
  141SOL     OW  428   0.189   0.520   1.722
  141SOL    HW1  429   0.248   0.480   1.652
  141SOL    HW2  430   0.131   0.591   1.681
  142SOL     OW  431   1.369   0.950   1.660
  142SOL    HW1  432   1.408   1.039   1.680
  142SOL    HW2  433   1.379   0.930   1.563
  143SOL     OW  434   0.815   0.572   0.325
  143SOL    HW1  435   0.822   0.483   0.279
  143SOL    HW2  436   0.721   0.606   0.317
  144SOL     OW  437   1.657   0.604   1.206
  144SOL    HW1  438   1.619   0.535   1.268
  144SOL    HW2  439   1.739   0.568   1.162
  145SOL     OW  440   0.252   1.564   1.744
  145SOL    HW1  441   0.222   1.621   1.820
  145SOL    HW2  442   0.245   1.467   1.770
  146SOL     OW  443   0.671   0.464   1.269
  146SOL    HW1  444   0.637   0.375   1.239
  146SOL    HW2  445   0.697   0.518   1.189
  147SOL     OW  446   0.930   1.678   1.465
  147SOL    HW1  447   0.906   1.660   1.370
  147SOL    HW2  448   0.960   1.772   1.475
  148SOL     OW  449   0.473   0.500   0.191
  148SOL    HW1  450   0.534   0.580   0.195
  148SOL    HW2  451   0.378   0.531   0.198
  149SOL     OW  452   0.159   1.137   1.466
  149SOL    HW1  453   0.181   1.076   1.542
  149SOL    HW2  454   0.169   1.088   1.380
  150SOL     OW  455   1.347   1.059   1.234
  150SOL    HW1  456   1.371   0.996   1.160
  150SOL    HW2  457   1.257   1.099   1.216
  151SOL     OW  458   1.302   0.855   0.309
  151SOL    HW1  459   1.216   0.824   0.351
  151SOL    HW2  460   1.298   0.841   0.210
  152SOL     OW  461   1.759   1.747   1.154
  152SOL    HW1  462   1.820   1.777   1.081
  152SOL    HW2  463   1.721   1.658   1.132
  153SOL     OW  464   1.252   1.731   1.128
  153SOL    HW1  465   1.336   1.736   1.074
  153SOL    HW2  466   1.229   1.635   1.146
  154SOL     OW  467   0.083   1.258   1.022
  154SOL    HW1  468   0.078   1.257   1.122
  154SOL    HW2  469   0.000   1.217   0.984
  155SOL     OW  470   0.688   1.662   1.716
  155SOL    HW1  471   0.632   1.743   1.725
  155SOL    HW2  472   0.740   1.666   1.630
  156SOL     OW  473   0.903   0.086   0.133
  156SOL    HW1  474   0.954   0.087   0.047
  156SOL    HW2  475   0.959   0.044   0.204
  157SOL     OW  476   1.726   0.135   0.523
  157SOL    HW1  477   1.799   0.118   0.456
  157SOL    HW2  478   1.695   0.048   0.561
  158SOL     OW  479   1.388   1.573   0.477
  158SOL    HW1  480   1.455   1.585   0.403
  158SOL    HW2  481   1.348   1.662   0.500
  159SOL     OW  482   0.130   1.794   1.851
  159SOL    HW1  483   0.089   1.720   1.904
  159SOL    HW2  484   0.194   1.845   1.909
  160SOL     OW  485   1.280   0.927   0.672
  160SOL    HW1  486   1.340   0.846   0.674
  160SOL    HW2  487   1.320   0.996   0.612
  161SOL     OW  488   0.830   1.273   1.422
  161SOL    HW1  489   0.825   1.306   1.517
  161SOL    HW2  490   0.744   1.292   1.376
  162SOL     OW  491   0.672   1.616   0.154
  162SOL    HW1  492   0.681   1.626   0.055
  162SOL    HW2  493   0.632   1.527   0.175
  163SOL     OW  494   1.650   1.720   1.394
  163SOL    HW1  495   1.703   1.730   1.310
  163SOL    HW2  496   1.623   1.810   1.428
  164SOL     OW  497   1.841   0.175   0.963
  164SOL    HW1  498   1.880   0.090   0.927
  164SOL    HW2  499   1.743   0.177   0.944
  165SOL     OW  500   0.263   0.326   0.720
  165SOL    HW1  501   0.184   0.377   0.686
  165SOL    HW2  502   0.254   0.311   0.818
  166SOL     OW  503   1.194   1.612   0.031
  166SOL    HW1  504   1.200   1.519   0.068
  166SOL    HW2  505   1.135   1.612  -0.049
  167SOL     OW  506   0.822   1.002   1.372
  167SOL    HW1  507   0.862   1.001   1.280
  167SOL    HW2  508   0.832   1.094   1.412
  168SOL     OW  509   0.916   0.910   0.291
  168SOL    HW1  510   0.979   0.948   0.223
  168SOL    HW2  511   0.956   0.827   0.330
  169SOL     OW  512   1.504   1.607   0.044
  169SOL    HW1  513   1.412   1.644   0.051
  169SOL    HW2  514   1.542   1.627  -0.046
  170SOL     OW  515   0.372   1.288   1.490
  170SOL    HW1  516   0.359   1.381   1.456
  170SOL    HW2  517   0.288   1.236   1.477
  171SOL     OW  518   1.614   1.292   1.289
  171SOL    HW1  519   1.674   1.295   1.369
  171SOL    HW2  520   1.539   1.356   1.302
  172SOL     OW  521   1.039   1.098   0.696
  172SOL    HW1  522   0.969   1.051   0.750
  172SOL    HW2  523   1.098   1.030   0.653
  173SOL     OW  524   1.014   0.236   0.971
  173SOL    HW1  525   1.006   0.200   0.878
  173SOL    HW2  526   1.012   0.160   1.036
  174SOL     OW  527   0.590   1.487   0.491
  174SOL    HW1  528   0.632   1.429   0.421
  174SOL    HW2  529   0.546   1.566   0.447
  175SOL     OW  530   1.709   0.385   1.381
  175SOL    HW1  531   1.782   0.454   1.385
  175SOL    HW2  532   1.737   0.310   1.322
  176SOL     OW  533   0.255   1.348   0.290
  176SOL    HW1  534   0.159   1.349   0.263
  176SOL    HW2  535   0.267   1.401   0.374
  177SOL     OW  536   0.105   1.013   1.726
  177SOL    HW1  537   0.028   0.980   1.780
  177SOL    HW2  538   0.190   0.983   1.768
  178SOL     OW  539   0.672   0.203   1.489
  178SOL    HW1  540   0.762   0.187   1.449
  178SOL    HW2  541   0.680   0.208   1.588
  179SOL     OW  542   0.075   0.345   0.033
  179SOL    HW1  543  -0.017   0.317   0.004
  179SOL    HW2  544   0.106   0.422  -0.023
  180SOL     OW  545   1.440   0.856   1.398
  180SOL    HW1  546   1.383   0.908   1.335
  180SOL    HW2  547   1.536   0.868   1.374
  181SOL     OW  548   0.072   0.166   0.318
  181SOL    HW1  549   0.055   0.249   0.264
  181SOL    HW2  550   0.162   0.129   0.296
  182SOL     OW  551   1.183   1.335   0.119
  182SOL    HW1  552   1.084   1.324   0.121
  182SOL    HW2  553   1.217   1.350   0.212
  183SOL     OW  554   0.613   0.842   1.431
  183SOL    HW1  555   0.669   0.923   1.414
  183SOL    HW2  556   0.672   0.762   1.434
  184SOL     OW  557   1.493   1.767   0.959
  184SOL    HW1  558   1.526   1.831   0.890
  184SOL    HW2  559   1.559   1.761   1.034
  185SOL     OW  560   0.716   0.565   1.708
  185SOL    HW1  561   0.735   0.630   1.782
  185SOL    HW2  562   0.776   0.485   1.717
  186SOL     OW  563   1.450   1.220   1.633
  186SOL    HW1  564   1.441   1.210   1.732
  186SOL    HW2  565   1.546   1.213   1.607
  187SOL     OW  566   0.390   1.741   1.560
  187SOL    HW1  567   0.299   1.782   1.558
  187SOL    HW2  568   0.383   1.647   1.592
  188SOL     OW  569   1.674   0.883   1.254
  188SOL    HW1  570   1.647   0.794   1.217
  188SOL    HW2  571   1.675   0.951   1.181
  189SOL     OW  572   1.225   0.325   0.449
  189SOL    HW1  573   1.290   0.251   0.438
  189SOL    HW2  574   1.245   0.375   0.533
  190SOL     OW  575   0.594   0.745   0.652
  190SOL    HW1  576   0.644   0.830   0.633
  190SOL    HW2  577   0.506   0.747   0.604
  191SOL     OW  578   1.777   0.342   1.642
  191SOL    HW1  579   1.760   0.373   1.548
  191SOL    HW2  580   1.693   0.305   1.680
  192SOL     OW  581   1.730   0.934   1.517
  192SOL    HW1  582   1.768   1.025   1.532
  192SOL    HW2  583   1.722   0.917   1.418
  193SOL     OW  584   0.859   1.374   0.016
  193SOL    HW1  585   0.813   1.389   0.104
  193SOL    HW2  586   0.903   1.459  -0.014
  194SOL     OW  587   0.661   1.790   0.953
  194SOL    HW1  588   0.615   1.878   0.940
  194SOL    HW2  589   0.760   1.802   0.946
  195SOL     OW  590   0.859   0.956   0.861
  195SOL    HW1  591   0.913   0.887   0.909
  195SOL    HW2  592   0.827   1.025   0.927
  196SOL     OW  593   1.083   0.984   0.087
  196SOL    HW1  594   1.060   1.037   0.005
  196SOL    HW2  595   1.164   0.928   0.068
  197SOL     OW  596   1.861   1.569   0.851
  197SOL    HW1  597   1.790   1.557   0.781
  197SOL    HW2  598   1.862   1.490   0.911
  198SOL     OW  599   0.221   1.314   1.844
  198SOL    HW1  600   0.156   1.241   1.823
  198SOL    HW2  601   0.225   1.328   1.942
  199SOL     OW  602   0.079   1.240   0.653
  199SOL    HW1  603   0.078   1.193   0.741
  199SOL    HW2  604   0.161   1.212   0.602
  200SOL     OW  605   0.672   1.391   1.624
  200SOL    HW1  606   0.594   1.341   1.662
  200SOL    HW2  607   0.669   1.486   1.655
  201SOL     OW  608   1.824   0.192   1.227
  201SOL    HW1  609   1.820   0.102   1.271
  201SOL    HW2  610   1.827   0.181   1.128
  202SOL     OW  611   0.428   0.424   0.520
  202SOL    HW1  612   0.458   0.352   0.458
  202SOL    HW2  613   0.389   0.384   0.603
  203SOL     OW  614   1.705   1.487   1.104
  203SOL    HW1  615   1.612   1.462   1.077
  203SOL    HW2  616   1.731   1.437   1.186
  204SOL     OW  617   0.317   0.547   1.280
  204SOL    HW1  618   0.355   0.488   1.352
  204SOL    HW2  619   0.357   0.521   1.192
  205SOL     OW  620   0.812   1.586   0.687
  205SOL    HW1  621   0.844   1.596   0.593
  205SOL    HW2  622   0.733   1.524   0.689
  206SOL     OW  623   1.424   0.214   1.112
  206SOL    HW1  624   1.476   0.149   1.167
  206SOL    HW2  625   1.375   0.277   1.173
  207SOL     OW  626   1.001   0.034   1.154
  207SOL    HW1  627   0.938  -0.038   1.123
  207SOL    HW2  628   1.094  -0.002   1.154
  208SOL     OW  629   0.770   1.330   0.301
  208SOL    HW1  630   0.724   1.243   0.318
  208SOL    HW2  631   0.861   1.327   0.342
  209SOL     OW  632   0.618   1.567   1.284
  209SOL    HW1  633   0.613   1.649   1.341
  209SOL    HW2  634   0.707   1.564   1.239
  210SOL     OW  635   1.352   0.052   0.168
  210SOL    HW1  636   1.387   0.011   0.084
  210SOL    HW2  637   1.262   0.014   0.188
  211SOL     OW  638   1.300   0.453   0.691
  211SOL    HW1  639   1.241   0.533   0.695
  211SOL    HW2  640   1.315   0.418   0.784
  212SOL     OW  641   1.593   0.221   0.882
  212SOL    HW1  642   1.509   0.220   0.936
  212SOL    HW2  643   1.595   0.304   0.826
  213SOL     OW  644   0.039   1.077   0.300
  213SOL    HW1  645   0.138   1.066   0.291
  213SOL    HW2  646  -0.001   0.991   0.332
  214SOL     OW  647   0.875   1.646   0.337
  214SOL    HW1  648   0.798   1.611   0.283
  214SOL    HW2  649   0.843   1.717   0.399
  215SOL     OW  650   0.230   0.628   1.975
  215SOL    HW1  651   0.137   0.626   2.012
  215SOL    HW2  652   0.231   0.589   1.883
  216SOL     OW  653   0.225   0.275   2.858
  216SOL    HW1  654   0.260   0.258   2.950
  216SOL    HW2  655   0.137   0.230   2.846
  217SOL     OW  656   0.019   0.368   2.509
  217SOL    HW1  657  -0.063   0.411   2.548
  217SOL    HW2  658  -0.009   0.295   2.446
  218SOL     OW  659   0.569   1.275   3.027
  218SOL    HW1  660   0.476   1.268   2.990
  218SOL    HW2  661   0.580   1.364   3.071
  219SOL     OW  662   1.555   1.511   2.565
  219SOL    HW1  663   1.498   1.495   2.646
  219SOL    HW2  664   1.496   1.521   2.485
  220SOL     OW  665   1.135   0.703   2.579
  220SOL    HW1  666   1.192   0.781   2.554
  220SOL    HW2  667   1.075   0.729   2.655
  221SOL     OW  668   1.755   0.607   2.093
  221SOL    HW1  669   1.743   0.594   1.994
  221SOL    HW2  670   1.725   0.526   2.142
  222SOL     OW  671   0.768   1.144   2.885
  222SOL    HW1  672   0.690   1.161   2.945
  222SOL    HW2  673   0.802   1.231   2.849
  223SOL     OW  674   0.850   0.798   3.685
  223SOL    HW1  675   0.846   0.874   3.750
  223SOL    HW2  676   0.872   0.834   3.594
  224SOL     OW  677   0.685   1.012   2.527
  224SOL    HW1  678   0.754   0.996   2.597
  224SOL    HW2  679   0.612   1.069   2.565
  225SOL     OW  680   0.686   1.161   3.665
  225SOL    HW1  681   0.746   1.240   3.679
  225SOL    HW2  682   0.600   1.192   3.624
  226SOL     OW  683   0.335   1.435   2.923
  226SOL    HW1  684   0.257   1.404   2.870
  226SOL    HW2  685   0.393   1.493   2.866
  227SOL     OW  686   1.460   1.505   3.201
  227SOL    HW1  687   1.484   1.599   3.227
  227SOL    HW2  688   1.444   1.451   3.283
  228SOL     OW  689   0.438   0.392   3.361
  228SOL    HW1  690   0.520   0.336   3.370
  228SOL    HW2  691   0.357   0.334   3.365
  229SOL     OW  692   1.603   0.447   2.599
  229SOL    HW1  693   1.529   0.493   2.549
  229SOL    HW2  694   1.654   0.515   2.652
  230SOL     OW  695   0.231   1.713   2.345
  230SOL    HW1  696   0.265   1.790   2.399
  230SOL    HW2  697   0.275   1.713   2.255
  231SOL     OW  698   1.127   1.341   3.552
  231SOL    HW1  699   1.174   1.341   3.640
  231SOL    HW2  700   1.079   1.254   3.541
  232SOL     OW  701   0.230   1.434   2.400
  232SOL    HW1  702   0.204   1.530   2.400
  232SOL    HW2  703   0.159   1.380   2.445
  233SOL     OW  704   0.240   1.091   2.748
  233SOL    HW1  705   0.254   1.007   2.800
  233SOL    HW2  706   0.185   1.155   2.803
  234SOL     OW  707   0.620   1.786   3.301
  234SOL    HW1  708   0.528   1.769   3.336
  234SOL    HW2  709   0.648   1.878   3.327
  235SOL     OW  710   0.606   0.964   1.985
  235SOL    HW1  711   0.613   1.048   1.931
  235SOL    HW2  712   0.652   0.977   2.073
  236SOL     OW  713   1.594   0.114   3.342
  236SOL    HW1  714   1.576   0.181   3.270
  236SOL    HW2  715   1.591   0.160   3.431
  237SOL     OW  716   0.122   0.643   2.425
  237SOL    HW1  717   0.077   0.555   2.442
  237SOL    HW2  718   0.121   0.697   2.509
  238SOL     OW  719   1.842   1.767   2.221
  238SOL    HW1  720   1.896   1.738   2.301
  238SOL    HW2  721   1.872   1.857   2.192
  239SOL     OW  722   0.027   1.596   1.979
  239SOL    HW1  723   0.008   1.500   2.000
  239SOL    HW2  724  -0.006   1.654   2.054
  240SOL     OW  725   1.689   0.922   2.474
  240SOL    HW1  726   1.784   0.893   2.482
  240SOL    HW2  727   1.681   0.987   2.399
  241SOL     OW  728   1.641   1.108   2.294
  241SOL    HW1  729   1.727   1.110   2.242
  241SOL    HW2  730   1.655   1.155   2.382
  242SOL     OW  731   0.113   0.737   3.459
  242SOL    HW1  732   0.201   0.724   3.504
  242SOL    HW2  733   0.100   0.834   3.437
  243SOL     OW  734   0.613   1.365   2.588
  243SOL    HW1  735   0.564   1.278   2.597
  243SOL    HW2  736   0.590   1.408   2.501
  244SOL     OW  737   1.293   1.228   3.285
  244SOL    HW1  738   1.330   1.155   3.227
  244SOL    HW2  739   1.345   1.233   3.370
  245SOL     OW  740   0.809   0.004   2.364
  245SOL    HW1  741   0.849   0.095   2.355
  245SOL    HW2  742   0.709   0.012   2.370
  246SOL     OW  743   0.197   0.976   3.126
  246SOL    HW1  744   0.286   0.931   3.112
  246SOL    HW2  745   0.124   0.911   3.107
  247SOL     OW  746   1.525   0.999   2.052
  247SOL    HW1  747   1.462   0.923   2.065
  247SOL    HW2  748   1.573   1.017   2.138
  248SOL     OW  749   1.187   1.792   3.478
  248SOL    HW1  750   1.211   1.852   3.402
  248SOL    HW2  751   1.194   1.697   3.448
  249SOL     OW  752   0.317   0.251   3.663
  249SOL    HW1  753   0.388   0.322   3.669
  249SOL    HW2  754   0.229   0.290   3.691
  250SOL     OW  755   1.466   1.417   2.815
  250SOL    HW1  756   1.407   1.423   2.895
  250SOL    HW2  757   1.451   1.329   2.769
  251SOL     OW  758   1.667   1.714   2.434
  251SOL    HW1  759   1.626   1.691   2.346
  251SOL    HW2  760   1.649   1.640   2.499
  252SOL     OW  761   0.598   0.729   2.132
  252SOL    HW1  762   0.622   0.798   2.064
  252SOL    HW2  763   0.520   0.762   2.186
  253SOL     OW  764   1.281   0.345   2.806
  253SOL    HW1  765   1.195   0.295   2.793
  253SOL    HW2  766   1.343   0.291   2.862
  254SOL     OW  767   1.576   1.662   2.169
  254SOL    HW1  768   1.665   1.708   2.172
  254SOL    HW2  769   1.555   1.638   2.074
  255SOL     OW  770   0.807   0.605   3.327
  255SOL    HW1  771   0.760   0.602   3.416
  255SOL    HW2  772   0.756   0.550   3.261
  256SOL     OW  773   1.394   0.469   3.536
  256SOL    HW1  774   1.374   0.512   3.624
  256SOL    HW2  775   1.472   0.407   3.545
  257SOL     OW  776   0.973   0.890   3.434
  257SOL    HW1  777   1.019   0.806   3.405
  257SOL    HW2  778   0.917   0.924   3.359
  258SOL     OW  779   0.991   0.410   3.104
  258SOL    HW1  780   0.914   0.444   3.158
  258SOL    HW2  781   0.957   0.359   3.025
  259SOL     OW  782   1.041   0.701   2.291
  259SOL    HW1  783   1.067   0.697   2.387
  259SOL    HW2  784   0.956   0.650   2.277
  260SOL     OW  785   0.076   0.811   2.651
  260SOL    HW1  786   0.175   0.799   2.660
  260SOL    HW2  787   0.052   0.906   2.672
  261SOL     OW  788   0.130   1.821   3.433
  261SOL    HW1  789   0.120   1.806   3.532
  261SOL    HW2  790   0.044   1.857   3.397
  262SOL     OW  791   0.865   0.348   2.057
  262SOL    HW1  792   0.924   0.411   2.008
  262SOL    HW2  793   0.884   0.254   2.028
  263SOL     OW  794   1.719   0.585   3.693
  263SOL    HW1  795   1.693   0.674   3.657
  263SOL    HW2  796   1.717   0.517   3.620
  264SOL     OW  797   1.362   1.144   2.407
  264SOL    HW1  798   1.445   1.115   2.359
  264SOL    HW2  799   1.313   1.211   2.351
  265SOL     OW  800   0.550   0.196   2.747
  265SOL    HW1  801   0.545   0.191   2.847
  265SOL    HW2  802   0.552   0.292   2.718
  266SOL     OW  803   1.008   1.456   2.339
  266SOL    HW1  804   0.962   1.528   2.287
  266SOL    HW2  805   1.004   1.476   2.437
  267SOL     OW  806   0.351   1.801   2.715
  267SOL    HW1  807   0.401   1.715   2.721
  267SOL    HW2  808   0.416   1.878   2.712
  268SOL     OW  809   1.795   1.066   2.735
  268SOL    HW1  810   1.733   1.051   2.659
  268SOL    HW2  811   1.743   1.077   2.820
  269SOL     OW  812   1.227   1.550   3.368
  269SOL    HW1  813   1.233   1.473   3.432
  269SOL    HW2  814   1.175   1.524   3.288
  270SOL     OW  815   0.321   0.943   2.104
  270SOL    HW1  816   0.403   0.982   2.062
  270SOL    HW2  817   0.294   0.861   2.055
  271SOL     OW  818   1.458   0.735   2.590
  271SOL    HW1  819   1.453   0.670   2.665
  271SOL    HW2  820   1.538   0.794   2.603
  272SOL     OW  821   0.461   1.266   3.589
  272SOL    HW1  822   0.411   1.267   3.503
  272SOL    HW2  823   0.398   1.248   3.665
  273SOL     OW  824   1.111   1.776   2.099
  273SOL    HW1  825   1.051   1.714   2.149
  273SOL    HW2  826   1.142   1.732   2.014
  274SOL     OW  827   0.202   0.285   3.360
  274SOL    HW1  828   0.122   0.345   3.347
  274SOL    HW2  829   0.192   0.236   3.446
  275SOL     OW  830   1.632   1.377   1.943
  275SOL    HW1  831   1.600   1.471   1.933
  275SOL    HW2  832   1.556   1.314   1.931
  276SOL     OW  833   0.464   1.743   2.185
  276SOL    HW1  834   0.497   1.782   2.271
  276SOL    HW2  835   0.540   1.736   2.120
  277SOL     OW  836   1.400   0.107   2.288
  277SOL    HW1  837   1.376   0.070   2.198
  277SOL    HW2  838   1.499   0.123   2.292
  278SOL     OW  839   0.249   1.785   3.103
  278SOL    HW1  840   0.306   1.720   3.153
  278SOL    HW2  841   0.233   1.752   3.010
  279SOL     OW  842   0.940   1.698   2.766
  279SOL    HW1  843   1.020   1.641   2.787
  279SOL    HW2  844   0.891   1.658   2.689
  280SOL     OW  845   0.382   0.700   2.342
  280SOL    HW1  846   0.427   0.610   2.339
  280SOL    HW2  847   0.288   0.689   2.375
  281SOL     OW  848   1.547   0.222   3.591
  281SOL    HW1  849   1.542   0.259   3.683
  281SOL    HW2  850   1.475   0.153   3.579
  282SOL     OW  851   0.614   0.122   1.979
  282SOL    HW1  852   0.712   0.100   1.986
  282SOL    HW2  853   0.583   0.105   1.886
  283SOL     OW  854   0.781   0.264   3.611
  283SOL    HW1  855   0.848   0.203   3.654
  283SOL    HW2  856   0.708   0.283   3.676
  284SOL     OW  857   0.888   1.514   3.057
  284SOL    HW1  858   0.865   1.489   2.963
  284SOL    HW2  859   0.949   1.445   3.096
  285SOL     OW  860   1.351   0.590   3.295
  285SOL    HW1  861   1.379   0.547   3.380
  285SOL    HW2  862   1.376   0.686   3.296
  286SOL     OW  863   0.803   1.402   2.786
  286SOL    HW1  864   0.893   1.416   2.744
  286SOL    HW2  865   0.732   1.404   2.715
  287SOL     OW  866   0.922   0.503   2.761
  287SOL    HW1  867   0.897   0.494   2.665
  287SOL    HW2  868   0.970   0.421   2.792
  288SOL     OW  869   0.539   0.064   2.374
  288SOL    HW1  870   0.458   0.065   2.432
  288SOL    HW2  871   0.542   0.147   2.319
  289SOL     OW  872   1.434   1.188   1.903
  289SOL    HW1  873   1.466   1.112   1.960
  289SOL    HW2  874   1.342   1.215   1.933
  290SOL     OW  875   0.297   0.035   2.033
  290SOL    HW1  876   0.346   0.119   2.012
  290SOL    HW2  877   0.359  -0.030   2.078
  291SOL     OW  878   0.935   0.236   2.342
  291SOL    HW1  879   0.887   0.277   2.264
  291SOL    HW2  880   1.034   0.234   2.323
  292SOL     OW  881   1.076   0.683   3.326
  292SOL    HW1  882   0.996   0.622   3.329
  292SOL    HW2  883   1.157   0.630   3.302
  293SOL     OW  884   1.227   1.570   2.655
  293SOL    HW1  885   1.248   1.644   2.590
  293SOL    HW2  886   1.295   1.570   2.728
  294SOL     OW  887   0.459   1.152   2.603
  294SOL    HW1  888   0.388   1.125   2.668
  294SOL    HW2  889   0.433   1.124   2.510
  295SOL     OW  890   1.271   1.797   2.453
  295SOL    HW1  891   1.315   1.861   2.389
  295SOL    HW2  892   1.221   1.849   2.523
  296SOL     OW  893   1.032   0.549   1.878
  296SOL    HW1  894   0.991   0.631   1.839
  296SOL    HW2  895   1.096   0.575   1.951
  297SOL     OW  896   0.078   0.556   3.248
  297SOL    HW1  897   0.170   0.555   3.207
  297SOL    HW2  898   0.072   0.630   3.315
  298SOL     OW  899   0.561   0.222   3.009
  298SOL    HW1  900   0.599   0.138   3.046
  298SOL    HW2  901   0.473   0.241   3.053
  299SOL     OW  902   0.866   0.454   2.504
  299SOL    HW1  903   0.834   0.526   2.442
  299SOL    HW2  904   0.890   0.373   2.451
  300SOL     OW  905   1.017   0.039   2.615
  300SOL    HW1  906   0.945   0.044   2.546
  300SOL    HW2  907   0.993  -0.030   2.684
  301SOL     OW  908   1.429   1.173   2.729
  301SOL    HW1  909   1.374   1.089   2.722
  301SOL    HW2  910   1.455   1.202   2.637
  302SOL     OW  911   1.466   0.590   2.854
  302SOL    HW1  912   1.436   0.495   2.861
  302SOL    HW2  913   1.539   0.606   2.920
  303SOL     OW  914   1.857   0.833   2.239
  303SOL    HW1  915   1.899   0.769   2.303
  303SOL    HW2  916   1.819   0.782   2.161
  304SOL     OW  917   0.488   1.385   2.036
  304SOL    HW1  918   0.401   1.370   2.083
  304SOL    HW2  919   0.471   1.411   1.941
  305SOL     OW  920   1.664   1.280   2.519
  305SOL    HW1  921   1.763   1.288   2.533
  305SOL    HW2  922   1.619   1.364   2.550
  306SOL     OW  923   1.390   0.575   1.940
  306SOL    HW1  924   1.336   0.554   2.021
  306SOL    HW2  925   1.481   0.534   1.949
  307SOL     OW  926   0.527   0.256   2.190
  307SOL    HW1  927   0.554   0.197   2.115
  307SOL    HW2  928   0.527   0.351   2.159
  308SOL     OW  929   1.754   1.223   3.450
  308SOL    HW1  930   1.845   1.184   3.437
  308SOL    HW2  931   1.762   1.319   3.474
  309SOL     OW  932   1.064   1.347   3.202
  309SOL    HW1  933   0.984   1.324   3.257
  309SOL    HW2  934   1.147   1.321   3.251
  310SOL     OW  935   1.592   1.629   3.487
  310SOL    HW1  936   1.619   1.663   3.397
  310SOL    HW2  937   1.671   1.591   3.533
  311SOL     OW  938   1.111   1.195   2.962
  311SOL    HW1  939   1.071   1.239   3.043
  311SOL    HW2  940   1.070   1.232   2.879
  312SOL     OW  941   1.638   1.099   2.941
  312SOL    HW1  942   1.643   1.180   3.000
  312SOL    HW2  943   1.552   1.101   2.890
  313SOL     OW  944   0.915   0.089   3.264
  313SOL    HW1  945   0.940   0.069   3.169
  313SOL    HW2  946   0.987   0.145   3.306
  314SOL     OW  947   0.980   1.116   3.581
  314SOL    HW1  948   0.881   1.122   3.591
  314SOL    HW2  949   1.003   1.036   3.525
  315SOL     OW  950   0.705   1.050   2.230
  315SOL    HW1  951   0.691   1.057   2.329
  315SOL    HW2  952   0.789   0.999   2.212
  316SOL     OW  953   0.410   0.813   3.113
  316SOL    HW1  954   0.496   0.825   3.163
  316SOL    HW2  955   0.368   0.726   3.140
  317SOL     OW  956   1.274   0.386   3.124
  317SOL    HW1  957   1.295   0.460   3.188
  317SOL    HW2  958   1.185   0.403   3.081
  318SOL     OW  959   0.064   1.564   3.193
  318SOL    HW1  960   0.018   1.646   3.159
  318SOL    HW2  961   0.162   1.583   3.202
  319SOL     OW  962   0.367   1.100   2.363
  319SOL    HW1  963   0.360   1.183   2.307
  319SOL    HW2  964   0.371   1.020   2.303
  320SOL     OW  965   0.566   0.537   2.727
  320SOL    HW1  966   0.578   0.603   2.653
  320SOL    HW2  967   0.612   0.571   2.810
  321SOL     OW  968   1.252   1.348   2.250
  321SOL    HW1  969   1.302   1.425   2.290
  321SOL    HW2  970   1.157   1.350   2.282
  322SOL     OW  971   1.272   1.445   3.004
  322SOL    HW1  972   1.319   1.458   3.091
  322SOL    HW2  973   1.206   1.371   3.013
  323SOL     OW  974   1.582   0.639   2.334
  323SOL    HW1  975   1.551   0.700   2.407
  323SOL    HW2  976   1.632   0.691   2.265
  324SOL     OW  977   0.354   1.510   3.191
  324SOL    HW1  978   0.333   1.466   3.104
  324SOL    HW2  979   0.451   1.536   3.194
  325SOL     OW  980   0.402   0.751   3.460
  325SOL    HW1  981   0.470   0.806   3.413
  325SOL    HW2  982   0.442   0.663   3.487
  326SOL     OW  983   1.587   0.779   3.532
  326SOL    HW1  984   1.495   0.817   3.527
  326SOL    HW2  985   1.647   0.826   3.467
  327SOL     OW  986   1.013   0.105   3.632
  327SOL    HW1  987   1.019   0.190   3.580
  327SOL    HW2  988   1.045   0.029   3.575
  328SOL     OW  989   0.504   0.050   3.602
  328SOL    HW1  990   0.462  -0.007   3.532
  328SOL    HW2  991   0.438   0.119   3.634
  329SOL     OW  992   0.573   0.870   2.891
  329SOL    HW1  993   0.617   0.959   2.882
  329SOL    HW2  994   0.510   0.870   2.968
  330SOL     OW  995   1.360   0.862   2.907
  330SOL    HW1  996   1.285   0.862   2.841
  330SOL    HW2  997   1.397   0.770   2.916
  331SOL     OW  998   1.209   0.525   2.137
  331SOL    HW1  999   1.222   0.441   2.191
  331SOL    HW2 1000   1.180   0.599   2.197
  332SOL     OW 1001   0.307   0.213   3.093
  332SOL    HW1 1002   0.284   0.250   3.183
  332SOL    HW2 1003   0.277   0.118   3.087
  333SOL     OW 1004   0.037   1.310   3.144
  333SOL    HW1 1005   0.090   1.261   3.212
  333SOL    HW2 1006   0.059   1.408   3.149
  334SOL     OW 1007   0.732   0.634   2.926
  334SOL    HW1 1008   0.791   0.608   2.850
  334SOL    HW2 1009   0.704   0.730   2.915
  335SOL     OW 1010   1.728   0.935   3.716
  335SOL    HW1 1011   1.682   0.928   3.627
  335SOL    HW2 1012   1.666   0.979   3.782
  336SOL     OW 1013   0.307   0.063   2.480
  336SOL    HW1 1014   0.296   0.157   2.513
  336SOL    HW2 1015   0.302   0.000   2.557
  337SOL     OW 1016   1.622   0.367   2.236
  337SOL    HW1 1017   1.624   0.291   2.300
  337SOL    HW2 1018   1.574   0.444   2.276
  338SOL     OW 1019   1.023   0.766   2.828
  338SOL    HW1 1020   1.038   0.787   2.924
  338SOL    HW2 1021   0.993   0.671   2.819
  339SOL     OW 1022   0.980   1.573   3.562
  339SOL    HW1 1023   0.960   1.617   3.474
  339SOL    HW2 1024   1.019   1.482   3.546
  340SOL     OW 1025   1.859   1.518   3.467
  340SOL    HW1 1026   1.873   1.545   3.372
  340SOL    HW2 1027   1.942   1.540   3.520
  341SOL     OW 1028   0.350   0.898   3.666
  341SOL    HW1 1029   0.426   0.942   3.714
  341SOL    HW2 1030   0.385   0.851   3.584
  342SOL     OW 1031   1.540   0.274   1.987
  342SOL    HW1 1032   1.479   0.199   2.010
  342SOL    HW2 1033   1.562   0.326   2.070
  343SOL     OW 1034   1.303   0.838   1.904
  343SOL    HW1 1035   1.337   0.745   1.919
  343SOL    HW2 1036   1.321   0.865   1.809
  344SOL     OW 1037   1.068   1.333   2.711
  344SOL    HW1 1038   1.075   1.249   2.656
  344SOL    HW2 1039   1.130   1.402   2.675
  345SOL     OW 1040   0.319   0.810   2.811
  345SOL    HW1 1041   0.412   0.846   2.816
  345SOL    HW2 1042   0.313   0.725   2.863
  346SOL     OW 1043   0.339   0.509   2.868
  346SOL    HW1 1044   0.287   0.426   2.851
  346SOL    HW2 1045   0.416   0.514   2.804
  347SOL     OW 1046   1.138   0.380   3.540
  347SOL    HW1 1047   1.093   0.443   3.604
  347SOL    HW2 1048   1.231   0.411   3.523
  348SOL     OW 1049   1.160   0.207   3.339
  348SOL    HW1 1050   1.160   0.271   3.416
  348SOL    HW2 1051   1.188   0.255   3.256
  349SOL     OW 1052   0.008   1.326   2.062
  349SOL    HW1 1053  -0.085   1.347   2.031
  349SOL    HW2 1054   0.018   1.227   2.075
  350SOL     OW 1055   0.088   1.801   2.789
  350SOL    HW1 1056   0.046   1.715   2.762
  350SOL    HW2 1057   0.182   1.804   2.755
  351SOL     OW 1058   0.504   1.568   2.772
  351SOL    HW1 1059   0.570   1.642   2.781
  351SOL    HW2 1060   0.548   1.489   2.730
  352SOL     OW 1061   1.002   0.796   3.100
  352SOL    HW1 1062   1.043   0.764   3.186
  352SOL    HW2 1063   0.906   0.769   3.097
  353SOL     OW 1064   0.040   0.544   2.976
  353SOL    HW1 1065   0.125   0.511   2.935
  353SOL    HW2 1066   0.053   0.559   3.074
  354SOL     OW 1067   0.189   0.520   3.584
  354SOL    HW1 1068   0.248   0.480   3.514
  354SOL    HW2 1069   0.131   0.591   3.543
  355SOL     OW 1070   1.369   0.950   3.522
  355SOL    HW1 1071   1.408   1.039   3.542
  355SOL    HW2 1072   1.379   0.930   3.425
  356SOL     OW 1073   0.815   0.572   2.187
  356SOL    HW1 1074   0.822   0.483   2.141
  356SOL    HW2 1075   0.721   0.606   2.179
  357SOL     OW 1076   1.657   0.604   3.068
  357SOL    HW1 1077   1.619   0.535   3.130
  357SOL    HW2 1078   1.739   0.568   3.024
  358SOL     OW 1079   0.252   1.564   3.606
  358SOL    HW1 1080   0.222   1.621   3.682
  358SOL    HW2 1081   0.245   1.467   3.632
  359SOL     OW 1082   0.671   0.464   3.131
  359SOL    HW1 1083   0.637   0.375   3.101
  359SOL    HW2 1084   0.697   0.518   3.051
  360SOL     OW 1085   0.930   1.678   3.327
  360SOL    HW1 1086   0.906   1.660   3.232
  360SOL    HW2 1087   0.960   1.772   3.337
  361SOL     OW 1088   0.473   0.500   2.053
  361SOL    HW1 1089   0.534   0.580   2.057
  361SOL    HW2 1090   0.378   0.531   2.060
  362SOL     OW 1091   0.159   1.137   3.328
  362SOL    HW1 1092   0.181   1.076   3.404
  362SOL    HW2 1093   0.169   1.088   3.242
  363SOL     OW 1094   1.347   1.059   3.096
  363SOL    HW1 1095   1.371   0.996   3.022
  363SOL    HW2 1096   1.257   1.099   3.078
  364SOL     OW 1097   1.302   0.855   2.171
  364SOL    HW1 1098   1.216   0.824   2.213
  364SOL    HW2 1099   1.298   0.841   2.072
  365SOL     OW 1100   1.759   1.747   3.016
  365SOL    HW1 1101   1.820   1.777   2.943
  365SOL    HW2 1102   1.721   1.658   2.994
  366SOL     OW 1103   1.252   1.731   2.990
  366SOL    HW1 1104   1.336   1.736   2.936
  366SOL    HW2 1105   1.229   1.635   3.008
  367SOL     OW 1106   0.083   1.258   2.884
  367SOL    HW1 1107   0.078   1.257   2.984
  367SOL    HW2 1108   0.000   1.217   2.846
  368SOL     OW 1109   0.688   1.662   3.578
  368SOL    HW1 1110   0.632   1.743   3.587
  368SOL    HW2 1111   0.740   1.666   3.492
  369SOL     OW 1112   1.726   0.135   2.385
  369SOL    HW1 1113   1.799   0.118   2.318
  369SOL    HW2 1114   1.695   0.048   2.423
  370SOL     OW 1115   1.388   1.573   2.339
  370SOL    HW1 1116   1.455   1.585   2.265
  370SOL    HW2 1117   1.348   1.662   2.362
  371SOL     OW 1118   0.130   1.794   3.713
  371SOL    HW1 1119   0.089   1.720   3.766
  371SOL    HW2 1120   0.194   1.845   3.771
  372SOL     OW 1121   1.280   0.927   2.534
  372SOL    HW1 1122   1.340   0.846   2.536
  372SOL    HW2 1123   1.320   0.996   2.474
  373SOL     OW 1124   0.830   1.273   3.284
  373SOL    HW1 1125   0.825   1.306   3.379
  373SOL    HW2 1126   0.744   1.292   3.238
  374SOL     OW 1127   0.672   1.616   2.016
  374SOL    HW1 1128   0.681   1.626   1.917
  374SOL    HW2 1129   0.632   1.527   2.037
  375SOL     OW 1130   1.650   1.720   3.256
  375SOL    HW1 1131   1.703   1.730   3.172
  375SOL    HW2 1132   1.623   1.810   3.290
  376SOL     OW 1133   1.841   0.175   2.825
  376SOL    HW1 1134   1.880   0.090   2.789
  376SOL    HW2 1135   1.743   0.177   2.806
  377SOL     OW 1136   0.263   0.326   2.582
  377SOL    HW1 1137   0.184   0.377   2.548
  377SOL    HW2 1138   0.254   0.311   2.680
  378SOL     OW 1139   1.194   1.612   1.893
  378SOL    HW1 1140   1.200   1.519   1.930
  378SOL    HW2 1141   1.135   1.612   1.813
  379SOL     OW 1142   0.822   1.002   3.234
  379SOL    HW1 1143   0.862   1.001   3.142
  379SOL    HW2 1144   0.832   1.094   3.274
  380SOL     OW 1145   0.916   0.910   2.153
  380SOL    HW1 1146   0.979   0.948   2.085
  380SOL    HW2 1147   0.956   0.827   2.192
  381SOL     OW 1148   1.504   1.607   1.906
  381SOL    HW1 1149   1.412   1.644   1.913
  381SOL    HW2 1150   1.542   1.627   1.816
  382SOL     OW 1151   0.372   1.288   3.352
  382SOL    HW1 1152   0.359   1.381   3.318
  382SOL    HW2 1153   0.288   1.236   3.339
  383SOL     OW 1154   1.614   1.292   3.151
  383SOL    HW1 1155   1.674   1.295   3.231
  383SOL    HW2 1156   1.539   1.356   3.164
  384SOL     OW 1157   1.039   1.098   2.558
  384SOL    HW1 1158   0.969   1.051   2.612
  384SOL    HW2 1159   1.098   1.030   2.515
  385SOL     OW 1160   1.014   0.236   2.833
  385SOL    HW1 1161   1.006   0.200   2.740
  385SOL    HW2 1162   1.012   0.160   2.898
  386SOL     OW 1163   0.590   1.487   2.353
  386SOL    HW1 1164   0.632   1.429   2.283
  386SOL    HW2 1165   0.546   1.566   2.309
  387SOL     OW 1166   1.709   0.385   3.243
  387SOL    HW1 1167   1.782   0.454   3.247
  387SOL    HW2 1168   1.737   0.310   3.184
  388SOL     OW 1169   0.255   1.348   2.152
  388SOL    HW1 1170   0.159   1.349   2.125
  388SOL    HW2 1171   0.267   1.401   2.236
  389SOL     OW 1172   0.105   1.013   3.588
  389SOL    HW1 1173   0.028   0.980   3.642
  389SOL    HW2 1174   0.190   0.983   3.630
  390SOL     OW 1175   0.672   0.203   3.351
  390SOL    HW1 1176   0.762   0.187   3.311
  390SOL    HW2 1177   0.680   0.208   3.450
  391SOL     OW 1178   0.075   0.345   1.895
  391SOL    HW1 1179  -0.017   0.317   1.866
  391SOL    HW2 1180   0.106   0.422   1.839
  392SOL     OW 1181   1.440   0.856   3.260
  392SOL    HW1 1182   1.383   0.908   3.197
  392SOL    HW2 1183   1.536   0.868   3.236
  393SOL     OW 1184   0.072   0.166   2.180
  393SOL    HW1 1185   0.055   0.249   2.126
  393SOL    HW2 1186   0.162   0.129   2.158
  394SOL     OW 1187   1.183   1.335   1.981
  394SOL    HW1 1188   1.084   1.324   1.983
  394SOL    HW2 1189   1.217   1.350   2.074
  395SOL     OW 1190   0.613   0.842   3.293
  395SOL    HW1 1191   0.669   0.923   3.276
  395SOL    HW2 1192   0.672   0.762   3.296
  396SOL     OW 1193   1.493   1.767   2.821
  396SOL    HW1 1194   1.526   1.831   2.752
  396SOL    HW2 1195   1.559   1.761   2.896
  397SOL     OW 1196   0.716   0.565   3.570
  397SOL    HW1 1197   0.735   0.630   3.644
  397SOL    HW2 1198   0.776   0.485   3.579
  398SOL     OW 1199   1.450   1.220   3.495
  398SOL    HW1 1200   1.441   1.210   3.594
  398SOL    HW2 1201   1.546   1.213   3.469
  399SOL     OW 1202   0.390   1.741   3.422
  399SOL    HW1 1203   0.299   1.782   3.420
  399SOL    HW2 1204   0.383   1.647   3.454
  400SOL     OW 1205   1.674   0.883   3.116
  400SOL    HW1 1206   1.647   0.794   3.079
  400SOL    HW2 1207   1.675   0.951   3.043
  401SOL     OW 1208   1.225   0.325   2.311
  401SOL    HW1 1209   1.290   0.251   2.300
  401SOL    HW2 1210   1.245   0.375   2.395
  402SOL     OW 1211   0.594   0.745   2.514
  402SOL    HW1 1212   0.644   0.830   2.495
  402SOL    HW2 1213   0.506   0.747   2.466
  403SOL     OW 1214   1.777   0.342   3.504
  403SOL    HW1 1215   1.760   0.373   3.410
  403SOL    HW2 1216   1.693   0.305   3.542
  404SOL     OW 1217   1.730   0.934   3.379
  404SOL    HW1 1218   1.768   1.025   3.394
  404SOL    HW2 1219   1.722   0.917   3.280
  405SOL     OW 1220   0.859   1.374   1.878
  405SOL    HW1 1221   0.813   1.389   1.966
  405SOL    HW2 1222   0.903   1.459   1.848
  406SOL     OW 1223   0.661   1.790   2.815
  406SOL    HW1 1224   0.615   1.878   2.802
  406SOL    HW2 1225   0.760   1.802   2.808
  407SOL     OW 1226   0.859   0.956   2.723
  407SOL    HW1 1227   0.913   0.887   2.771
  407SOL    HW2 1228   0.827   1.025   2.789
  408SOL     OW 1229   1.083   0.984   1.949
  408SOL    HW1 1230   1.060   1.037   1.867
  408SOL    HW2 1231   1.164   0.928   1.930
  409SOL     OW 1232   1.861   1.569   2.713
  409SOL    HW1 1233   1.790   1.557   2.643
  409SOL    HW2 1234   1.862   1.490   2.773
  410SOL     OW 1235   0.221   1.314   3.706
  410SOL    HW1 1236   0.156   1.241   3.685
  410SOL    HW2 1237   0.225   1.328   3.804
  411SOL     OW 1238   0.079   1.240   2.515
  411SOL    HW1 1239   0.078   1.193   2.603
  411SOL    HW2 1240   0.161   1.212   2.464
  412SOL     OW 1241   0.672   1.391   3.486
  412SOL    HW1 1242   0.594   1.341   3.524
  412SOL    HW2 1243   0.669   1.486   3.517
  413SOL     OW 1244   1.824   0.192   3.089
  413SOL    HW1 1245   1.820   0.102   3.133
  413SOL    HW2 1246   1.827   0.181   2.990
  414SOL     OW 1247   0.428   0.424   2.382
  414SOL    HW1 1248   0.458   0.352   2.320
  414SOL    HW2 1249   0.389   0.384   2.465
  415SOL     OW 1250   1.705   1.487   2.966
  415SOL    HW1 1251   1.612   1.462   2.939
  415SOL    HW2 1252   1.731   1.437   3.048
  416SOL     OW 1253   0.317   0.547   3.142
  416SOL    HW1 1254   0.355   0.488   3.214
  416SOL    HW2 1255   0.357   0.521   3.054
  417SOL     OW 1256   0.812   1.586   2.549
  417SOL    HW1 1257   0.844   1.596   2.455
  417SOL    HW2 1258   0.733   1.524   2.551
  418SOL     OW 1259   1.424   0.214   2.974
  418SOL    HW1 1260   1.476   0.149   3.029
  418SOL    HW2 1261   1.375   0.277   3.035
  419SOL     OW 1262   1.001   0.034   3.016
  419SOL    HW1 1263   0.938  -0.038   2.985
  419SOL    HW2 1264   1.094  -0.002   3.016
  420SOL     OW 1265   0.770   1.330   2.163
  420SOL    HW1 1266   0.724   1.243   2.180
  420SOL    HW2 1267   0.861   1.327   2.204
  421SOL     OW 1268   0.618   1.567   3.146
  421SOL    HW1 1269   0.613   1.649   3.203
  421SOL    HW2 1270   0.707   1.564   3.101
  422SOL     OW 1271   1.352   0.052   2.030
  422SOL    HW1 1272   1.387   0.011   1.946
  422SOL    HW2 1273   1.262   0.014   2.050
  423SOL     OW 1274   1.300   0.453   2.553
  423SOL    HW1 1275   1.241   0.533   2.557
  423SOL    HW2 1276   1.315   0.418   2.646
  424SOL     OW 1277   1.593   0.221   2.744
  424SOL    HW1 1278   1.509   0.220   2.798
  424SOL    HW2 1279   1.595   0.304   2.688
  425SOL     OW 1280   0.039   1.077   2.162
  425SOL    HW1 1281   0.138   1.066   2.153
  425SOL    HW2 1282  -0.001   0.991   2.194
  426SOL     OW 1283   0.875   1.646   2.199
  426SOL    HW1 1284   0.798   1.611   2.145
  426SOL    HW2 1285   0.843   1.717   2.261
  427SOL     OW 1286   0.230   0.628   3.837
  427SOL    HW1 1287   0.137   0.626   3.874
  427SOL    HW2 1288   0.231   0.589   3.745
  428SOL     OW 1289   1.755   0.607   3.955
  428SOL    HW1 1290   1.743   0.594   3.856
  428SOL    HW2 1291   1.725   0.526   4.004
  429SOL     OW 1292   0.231   1.713   4.207
  429SOL    HW1 1293   0.265   1.790   4.261
  429SOL    HW2 1294   0.275   1.713   4.117
  430SOL     OW 1295   0.230   1.434   4.262
  430SOL    HW1 1296   0.204   1.530   4.262
  430SOL    HW2 1297   0.159   1.380   4.307
  431SOL     OW 1298   0.606   0.964   3.847
  431SOL    HW1 1299   0.613   1.048   3.793
  431SOL    HW2 1300   0.652   0.977   3.935
  432SOL     OW 1301   0.122   0.643   4.287
  432SOL    HW1 1302   0.077   0.555   4.304
  432SOL    HW2 1303   0.121   0.697   4.371
  433SOL     OW 1304   1.842   1.767   4.083
  433SOL    HW1 1305   1.896   1.738   4.163
  433SOL    HW2 1306   1.872   1.857   4.054
  434SOL     OW 1307   0.027   1.596   3.841
  434SOL    HW1 1308   0.008   1.500   3.862
  434SOL    HW2 1309  -0.006   1.654   3.916
  435SOL     OW 1310   1.689   0.922   4.336
  435SOL    HW1 1311   1.784   0.893   4.344
  435SOL    HW2 1312   1.681   0.987   4.261
  436SOL     OW 1313   1.641   1.108   4.156
  436SOL    HW1 1314   1.727   1.110   4.104
  436SOL    HW2 1315   1.655   1.155   4.244
  437SOL     OW 1316   0.613   1.365   4.450
  437SOL    HW1 1317   0.564   1.278   4.459
  437SOL    HW2 1318   0.590   1.408   4.363
  438SOL     OW 1319   0.809   0.004   4.226
  438SOL    HW1 1320   0.849   0.095   4.217
  438SOL    HW2 1321   0.709   0.012   4.232
  439SOL     OW 1322   1.525   0.999   3.914
  439SOL    HW1 1323   1.462   0.923   3.927
  439SOL    HW2 1324   1.573   1.017   4.000
  440SOL     OW 1325   1.466   1.417   4.677
  440SOL    HW1 1326   1.407   1.423   4.757
  440SOL    HW2 1327   1.451   1.329   4.631
  441SOL     OW 1328   0.598   0.729   3.994
  441SOL    HW1 1329   0.622   0.798   3.926
  441SOL    HW2 1330   0.520   0.762   4.048
  442SOL     OW 1331   1.576   1.662   4.031
  442SOL    HW1 1332   1.665   1.708   4.034
  442SOL    HW2 1333   1.555   1.638   3.936
  443SOL     OW 1334   1.041   0.701   4.153
  443SOL    HW1 1335   1.067   0.697   4.249
  443SOL    HW2 1336   0.956   0.650   4.139
  444SOL     OW 1337   0.076   0.811   4.513
  444SOL    HW1 1338   0.175   0.799   4.522
  444SOL    HW2 1339   0.052   0.906   4.534
  445SOL     OW 1340   0.865   0.348   3.919
  445SOL    HW1 1341   0.924   0.411   3.870
  445SOL    HW2 1342   0.884   0.254   3.890
  446SOL     OW 1343   1.362   1.144   4.269
  446SOL    HW1 1344   1.445   1.115   4.221
  446SOL    HW2 1345   1.313   1.211   4.213
  447SOL     OW 1346   1.008   1.456   4.201
  447SOL    HW1 1347   0.962   1.528   4.149
  447SOL    HW2 1348   1.004   1.476   4.299
  448SOL     OW 1349   0.351   1.801   4.577
  448SOL    HW1 1350   0.401   1.715   4.583
  448SOL    HW2 1351   0.416   1.878   4.574
  449SOL     OW 1352   0.321   0.943   3.966
  449SOL    HW1 1353   0.403   0.982   3.924
  449SOL    HW2 1354   0.294   0.861   3.917
  450SOL     OW 1355   1.111   1.776   3.961
  450SOL    HW1 1356   1.051   1.714   4.011
  450SOL    HW2 1357   1.142   1.732   3.876
  451SOL     OW 1358   1.632   1.377   3.805
  451SOL    HW1 1359   1.600   1.471   3.795
  451SOL    HW2 1360   1.556   1.314   3.793
  452SOL     OW 1361   0.464   1.743   4.047
  452SOL    HW1 1362   0.497   1.782   4.133
  452SOL    HW2 1363   0.540   1.736   3.982
  453SOL     OW 1364   1.400   0.107   4.150
  453SOL    HW1 1365   1.376   0.070   4.060
  453SOL    HW2 1366   1.499   0.123   4.154
  454SOL     OW 1367   0.382   0.700   4.204
  454SOL    HW1 1368   0.427   0.610   4.201
  454SOL    HW2 1369   0.288   0.689   4.237
  455SOL     OW 1370   0.614   0.122   3.841
  455SOL    HW1 1371   0.712   0.100   3.848
  455SOL    HW2 1372   0.583   0.105   3.748
  456SOL     OW 1373   0.539   0.064   4.236
  456SOL    HW1 1374   0.458   0.065   4.294
  456SOL    HW2 1375   0.542   0.147   4.181
  457SOL     OW 1376   1.434   1.188   3.765
  457SOL    HW1 1377   1.466   1.112   3.822
  457SOL    HW2 1378   1.342   1.215   3.795
  458SOL     OW 1379   0.297   0.035   3.895
  458SOL    HW1 1380   0.346   0.119   3.874
  458SOL    HW2 1381   0.359  -0.030   3.940
  459SOL     OW 1382   0.935   0.236   4.204
  459SOL    HW1 1383   0.887   0.277   4.126
  459SOL    HW2 1384   1.034   0.234   4.185
  460SOL     OW 1385   0.459   1.152   4.465
  460SOL    HW1 1386   0.388   1.125   4.530
  460SOL    HW2 1387   0.433   1.124   4.372
  461SOL     OW 1388   1.271   1.797   4.315
  461SOL    HW1 1389   1.315   1.861   4.251
  461SOL    HW2 1390   1.221   1.849   4.385
  462SOL     OW 1391   1.032   0.549   3.740
  462SOL    HW1 1392   0.991   0.631   3.701
  462SOL    HW2 1393   1.096   0.575   3.813
  463SOL     OW 1394   0.866   0.454   4.366
  463SOL    HW1 1395   0.834   0.526   4.304
  463SOL    HW2 1396   0.890   0.373   4.313
  464SOL     OW 1397   1.857   0.833   4.101
  464SOL    HW1 1398   1.899   0.769   4.165
  464SOL    HW2 1399   1.819   0.782   4.023
  465SOL     OW 1400   0.488   1.385   3.898
  465SOL    HW1 1401   0.401   1.370   3.945
  465SOL    HW2 1402   0.471   1.411   3.803
  466SOL     OW 1403   1.390   0.575   3.802
  466SOL    HW1 1404   1.336   0.554   3.883
  466SOL    HW2 1405   1.481   0.534   3.811
  467SOL     OW 1406   0.527   0.256   4.052
  467SOL    HW1 1407   0.554   0.197   3.977
  467SOL    HW2 1408   0.527   0.351   4.021
  468SOL     OW 1409   0.705   1.050   4.092
  468SOL    HW1 1410   0.691   1.057   4.191
  468SOL    HW2 1411   0.789   0.999   4.074
  469SOL     OW 1412   0.367   1.100   4.225
  469SOL    HW1 1413   0.360   1.183   4.169
  469SOL    HW2 1414   0.371   1.020   4.165
  470SOL     OW 1415   1.252   1.348   4.112
  470SOL    HW1 1416   1.302   1.425   4.152
  470SOL    HW2 1417   1.157   1.350   4.144
  471SOL     OW 1418   1.582   0.639   4.196
  471SOL    HW1 1419   1.551   0.700   4.269
  471SOL    HW2 1420   1.632   0.691   4.127
  472SOL     OW 1421   1.209   0.525   3.999
  472SOL    HW1 1422   1.222   0.441   4.053
  472SOL    HW2 1423   1.180   0.599   4.059
  473SOL     OW 1424   0.307   0.063   4.342
  473SOL    HW1 1425   0.296   0.157   4.375
  473SOL    HW2 1426   0.302   0.000   4.419
  474SOL     OW 1427   1.622   0.367   4.098
  474SOL    HW1 1428   1.624   0.291   4.162
  474SOL    HW2 1429   1.574   0.444   4.138
  475SOL     OW 1430   1.540   0.274   3.849
  475SOL    HW1 1431   1.479   0.199   3.872
  475SOL    HW2 1432   1.562   0.326   3.932
  476SOL     OW 1433   1.303   0.838   3.766
  476SOL    HW1 1434   1.337   0.745   3.781
  476SOL    HW2 1435   1.321   0.865   3.671
  477SOL     OW 1436   0.008   1.326   3.924
  477SOL    HW1 1437  -0.085   1.347   3.893
  477SOL    HW2 1438   0.018   1.227   3.937
  478SOL     OW 1439   0.815   0.572   4.049
  478SOL    HW1 1440   0.822   0.483   4.003
  478SOL    HW2 1441   0.721   0.606   4.041
  479SOL     OW 1442   0.473   0.500   3.915
  479SOL    HW1 1443   0.534   0.580   3.919
  479SOL    HW2 1444   0.378   0.531   3.922
  480SOL     OW 1445   1.302   0.855   4.033
  480SOL    HW1 1446   1.216   0.824   4.075
  480SOL    HW2 1447   1.298   0.841   3.934
  481SOL     OW 1448   1.726   0.135   4.247
  481SOL    HW1 1449   1.799   0.118   4.180
  481SOL    HW2 1450   1.695   0.048   4.285
  482SOL     OW 1451   1.388   1.573   4.201
  482SOL    HW1 1452   1.455   1.585   4.127
  482SOL    HW2 1453   1.348   1.662   4.224
  483SOL     OW 1454   0.672   1.616   3.878
  483SOL    HW1 1455   0.681   1.626   3.779
  483SOL    HW2 1456   0.632   1.527   3.899
  484SOL     OW 1457   1.841   0.175   4.687
  484SOL    HW1 1458   1.880   0.090   4.651
  484SOL    HW2 1459   1.743   0.177   4.668
  485SOL     OW 1460   1.194   1.612   3.755
  485SOL    HW1 1461   1.200   1.519   3.792
  485SOL    HW2 1462   1.135   1.612   3.675
  486SOL     OW 1463   0.916   0.910   4.015
  486SOL    HW1 1464   0.979   0.948   3.947
  486SOL    HW2 1465   0.956   0.827   4.054
  487SOL     OW 1466   1.504   1.607   3.768
  487SOL    HW1 1467   1.412   1.644   3.775
  487SOL    HW2 1468   1.542   1.627   3.678
  488SOL     OW 1469   0.590   1.487   4.215
  488SOL    HW1 1470   0.632   1.429   4.145
  488SOL    HW2 1471   0.546   1.566   4.171
  489SOL     OW 1472   0.255   1.348   4.014
  489SOL    HW1 1473   0.159   1.349   3.987
  489SOL    HW2 1474   0.267   1.401   4.098
  490SOL     OW 1475   0.075   0.345   3.757
  490SOL    HW1 1476  -0.017   0.317   3.728
  490SOL    HW2 1477   0.106   0.422   3.701
  491SOL     OW 1478   0.072   0.166   4.042
  491SOL    HW1 1479   0.055   0.249   3.988
  491SOL    HW2 1480   0.162   0.129   4.020
  492SOL     OW 1481   1.183   1.335   3.843
  492SOL    HW1 1482   1.084   1.324   3.845
  492SOL    HW2 1483   1.217   1.350   3.936
  493SOL     OW 1484   1.225   0.325   4.173
  493SOL    HW1 1485   1.290   0.251   4.162
  493SOL    HW2 1486   1.245   0.375   4.257
  494SOL     OW 1487   0.594   0.745   4.376
  494SOL    HW1 1488   0.644   0.830   4.357
  494SOL    HW2 1489   0.506   0.747   4.328
  495SOL     OW 1490   0.859   1.374   3.740
  495SOL    HW1 1491   0.813   1.389   3.828
  495SOL    HW2 1492   0.903   1.459   3.710
  496SOL     OW 1493   1.083   0.984   3.811
  496SOL    HW1 1494   1.060   1.037   3.729
  496SOL    HW2 1495   1.164   0.928   3.792
  497SOL     OW 1496   0.079   1.240   4.377
  497SOL    HW1 1497   0.078   1.193   4.465
  497SOL    HW2 1498   0.161   1.212   4.326
  498SOL     OW 1499   0.428   0.424   4.244
  498SOL    HW1 1500   0.458   0.352   4.182
  498SOL    HW2 1501   0.389   0.384   4.327
  499SOL     OW 1502   0.770   1.330   4.025
  499SOL    HW1 1503   0.724   1.243   4.042
  499SOL    HW2 1504   0.861   1.327   4.066
  500SOL     OW 1505   1.352   0.052   3.892
  500SOL    HW1 1506   1.387   0.011   3.808
  500SOL    HW2 1507   1.262   0.014   3.912
  501SOL     OW 1508   1.300   0.453   4.415
  501SOL    HW1 1509   1.241   0.533   4.419
  501SOL    HW2 1510   1.315   0.418   4.508
  502SOL     OW 1511   0.039   1.077   4.024
  502SOL    HW1 1512   0.138   1.066   4.015
  502SOL    HW2 1513  -0.001   0.991   4.056
  503SOL     OW 1514   0.875   1.646   4.061
  503SOL    HW1 1515   0.798   1.611   4.007
  503SOL    HW2 1516   0.843   1.717   4.123
  504SOL     OW 1517   0.230   2.490   0.113
  504SOL    HW1 1518   0.137   2.488   0.150
  504SOL    HW2 1519   0.231   2.451   0.021
  505SOL     OW 1520   0.225   2.137   0.996
  505SOL    HW1 1521   0.260   2.120   1.088
  505SOL    HW2 1522   0.137   2.092   0.984
  506SOL     OW 1523   0.019   2.230   0.647
  506SOL    HW1 1524  -0.063   2.273   0.686
  506SOL    HW2 1525  -0.009   2.157   0.584
  507SOL     OW 1526   0.569   3.137   1.165
  507SOL    HW1 1527   0.476   3.130   1.128
  507SOL    HW2 1528   0.580   3.226   1.209
  508SOL     OW 1529   1.555   3.373   0.703
  508SOL    HW1 1530   1.498   3.357   0.784
  508SOL    HW2 1531   1.496   3.383   0.623
  509SOL     OW 1532   1.135   2.565   0.717
  509SOL    HW1 1533   1.192   2.643   0.692
  509SOL    HW2 1534   1.075   2.591   0.793
  510SOL     OW 1535   1.755   2.469   0.231
  510SOL    HW1 1536   1.743   2.456   0.132
  510SOL    HW2 1537   1.725   2.388   0.280
  511SOL     OW 1538   0.768   3.006   1.023
  511SOL    HW1 1539   0.690   3.023   1.083
  511SOL    HW2 1540   0.802   3.093   0.987
  512SOL     OW 1541   0.850   2.660   1.823
  512SOL    HW1 1542   0.846   2.736   1.888
  512SOL    HW2 1543   0.872   2.696   1.732
  513SOL     OW 1544   0.685   2.874   0.665
  513SOL    HW1 1545   0.754   2.858   0.735
  513SOL    HW2 1546   0.612   2.931   0.703
  514SOL     OW 1547   0.686   3.023   1.803
  514SOL    HW1 1548   0.746   3.102   1.817
  514SOL    HW2 1549   0.600   3.054   1.762
  515SOL     OW 1550   0.335   3.297   1.061
  515SOL    HW1 1551   0.257   3.266   1.008
  515SOL    HW2 1552   0.393   3.355   1.004
  516SOL     OW 1553   1.460   3.367   1.339
  516SOL    HW1 1554   1.484   3.461   1.365
  516SOL    HW2 1555   1.444   3.313   1.421
  517SOL     OW 1556   0.438   2.254   1.499
  517SOL    HW1 1557   0.520   2.198   1.508
  517SOL    HW2 1558   0.357   2.196   1.503
  518SOL     OW 1559   1.603   2.309   0.737
  518SOL    HW1 1560   1.529   2.355   0.687
  518SOL    HW2 1561   1.654   2.377   0.790
  519SOL     OW 1562   0.231   3.575   0.483
  519SOL    HW1 1563   0.265   3.652   0.537
  519SOL    HW2 1564   0.275   3.575   0.393
  520SOL     OW 1565   1.127   3.203   1.690
  520SOL    HW1 1566   1.174   3.203   1.778
  520SOL    HW2 1567   1.079   3.116   1.679
  521SOL     OW 1568   0.230   3.296   0.538
  521SOL    HW1 1569   0.204   3.392   0.538
  521SOL    HW2 1570   0.159   3.242   0.583
  522SOL     OW 1571   0.240   2.953   0.886
  522SOL    HW1 1572   0.254   2.869   0.938
  522SOL    HW2 1573   0.185   3.017   0.941
  523SOL     OW 1574   0.620   3.648   1.439
  523SOL    HW1 1575   0.528   3.631   1.474
  523SOL    HW2 1576   0.648   3.740   1.465
  524SOL     OW 1577   0.606   2.826   0.123
  524SOL    HW1 1578   0.613   2.910   0.069
  524SOL    HW2 1579   0.652   2.839   0.211
  525SOL     OW 1580   1.594   1.976   1.480
  525SOL    HW1 1581   1.576   2.043   1.408
  525SOL    HW2 1582   1.591   2.022   1.569
  526SOL     OW 1583   0.122   2.505   0.563
  526SOL    HW1 1584   0.077   2.417   0.580
  526SOL    HW2 1585   0.121   2.559   0.647
  527SOL     OW 1586   1.842   3.629   0.359
  527SOL    HW1 1587   1.896   3.600   0.439
  527SOL    HW2 1588   1.872   3.719   0.330
  528SOL     OW 1589   0.027   3.458   0.117
  528SOL    HW1 1590   0.008   3.362   0.138
  528SOL    HW2 1591  -0.006   3.516   0.192
  529SOL     OW 1592   1.689   2.784   0.612
  529SOL    HW1 1593   1.784   2.755   0.620
  529SOL    HW2 1594   1.681   2.849   0.537
  530SOL     OW 1595   1.641   2.970   0.432
  530SOL    HW1 1596   1.727   2.972   0.380
  530SOL    HW2 1597   1.655   3.017   0.520
  531SOL     OW 1598   0.113   2.599   1.597
  531SOL    HW1 1599   0.201   2.586   1.642
  531SOL    HW2 1600   0.100   2.696   1.575
  532SOL     OW 1601   0.613   3.227   0.726
  532SOL    HW1 1602   0.564   3.140   0.735
  532SOL    HW2 1603   0.590   3.270   0.639
  533SOL     OW 1604   1.293   3.090   1.423
  533SOL    HW1 1605   1.330   3.017   1.365
  533SOL    HW2 1606   1.345   3.095   1.508
  534SOL     OW 1607   0.809   1.866   0.502
  534SOL    HW1 1608   0.849   1.957   0.493
  534SOL    HW2 1609   0.709   1.874   0.508
  535SOL     OW 1610   0.197   2.838   1.264
  535SOL    HW1 1611   0.286   2.793   1.250
  535SOL    HW2 1612   0.124   2.773   1.245
  536SOL     OW 1613   1.525   2.861   0.190
  536SOL    HW1 1614   1.462   2.785   0.203
  536SOL    HW2 1615   1.573   2.879   0.276
  537SOL     OW 1616   1.187   3.654   1.616
  537SOL    HW1 1617   1.211   3.714   1.540
  537SOL    HW2 1618   1.194   3.559   1.586
  538SOL     OW 1619   0.317   2.113   1.801
  538SOL    HW1 1620   0.388   2.184   1.807
  538SOL    HW2 1621   0.229   2.152   1.829
  539SOL     OW 1622   1.466   3.279   0.953
  539SOL    HW1 1623   1.407   3.285   1.033
  539SOL    HW2 1624   1.451   3.191   0.907
  540SOL     OW 1625   1.667   3.576   0.572
  540SOL    HW1 1626   1.626   3.553   0.484
  540SOL    HW2 1627   1.649   3.502   0.637
  541SOL     OW 1628   0.598   2.591   0.270
  541SOL    HW1 1629   0.622   2.660   0.202
  541SOL    HW2 1630   0.520   2.624   0.324
  542SOL     OW 1631   1.281   2.207   0.944
  542SOL    HW1 1632   1.195   2.157   0.931
  542SOL    HW2 1633   1.343   2.153   1.000
  543SOL     OW 1634   1.576   3.524   0.307
  543SOL    HW1 1635   1.665   3.570   0.310
  543SOL    HW2 1636   1.555   3.500   0.212
  544SOL     OW 1637   0.807   2.467   1.465
  544SOL    HW1 1638   0.760   2.464   1.554
  544SOL    HW2 1639   0.756   2.412   1.399
  545SOL     OW 1640   1.394   2.331   1.674
  545SOL    HW1 1641   1.374   2.374   1.762
  545SOL    HW2 1642   1.472   2.269   1.683
  546SOL     OW 1643   0.973   2.752   1.572
  546SOL    HW1 1644   1.019   2.668   1.543
  546SOL    HW2 1645   0.917   2.786   1.497
  547SOL     OW 1646   0.991   2.272   1.242
  547SOL    HW1 1647   0.914   2.306   1.296
  547SOL    HW2 1648   0.957   2.221   1.163
  548SOL     OW 1649   1.041   2.563   0.429
  548SOL    HW1 1650   1.067   2.559   0.525
  548SOL    HW2 1651   0.956   2.512   0.415
  549SOL     OW 1652   0.076   2.673   0.789
  549SOL    HW1 1653   0.175   2.661   0.798
  549SOL    HW2 1654   0.052   2.768   0.810
  550SOL     OW 1655   0.130   3.683   1.571
  550SOL    HW1 1656   0.120   3.668   1.670
  550SOL    HW2 1657   0.044   3.719   1.535
  551SOL     OW 1658   0.865   2.210   0.195
  551SOL    HW1 1659   0.924   2.273   0.146
  551SOL    HW2 1660   0.884   2.116   0.166
  552SOL     OW 1661   1.719   2.447   1.831
  552SOL    HW1 1662   1.693   2.536   1.795
  552SOL    HW2 1663   1.717   2.379   1.758
  553SOL     OW 1664   1.362   3.006   0.545
  553SOL    HW1 1665   1.445   2.977   0.497
  553SOL    HW2 1666   1.313   3.073   0.489
  554SOL     OW 1667   0.550   2.058   0.885
  554SOL    HW1 1668   0.545   2.053   0.985
  554SOL    HW2 1669   0.552   2.154   0.856
  555SOL     OW 1670   1.008   3.318   0.477
  555SOL    HW1 1671   0.962   3.390   0.425
  555SOL    HW2 1672   1.004   3.338   0.575
  556SOL     OW 1673   0.351   3.663   0.853
  556SOL    HW1 1674   0.401   3.577   0.859
  556SOL    HW2 1675   0.416   3.740   0.850
  557SOL     OW 1676   1.795   2.928   0.873
  557SOL    HW1 1677   1.733   2.913   0.797
  557SOL    HW2 1678   1.743   2.939   0.958
  558SOL     OW 1679   1.227   3.412   1.506
  558SOL    HW1 1680   1.233   3.335   1.570
  558SOL    HW2 1681   1.175   3.386   1.426
  559SOL     OW 1682   0.321   2.805   0.242
  559SOL    HW1 1683   0.403   2.844   0.200
  559SOL    HW2 1684   0.294   2.723   0.193
  560SOL     OW 1685   1.458   2.597   0.728
  560SOL    HW1 1686   1.453   2.532   0.803
  560SOL    HW2 1687   1.538   2.656   0.741
  561SOL     OW 1688   0.461   3.128   1.727
  561SOL    HW1 1689   0.411   3.129   1.641
  561SOL    HW2 1690   0.398   3.110   1.803
  562SOL     OW 1691   1.111   3.638   0.237
  562SOL    HW1 1692   1.051   3.576   0.287
  562SOL    HW2 1693   1.142   3.594   0.152
  563SOL     OW 1694   0.202   2.147   1.498
  563SOL    HW1 1695   0.122   2.207   1.485
  563SOL    HW2 1696   0.192   2.098   1.584
  564SOL     OW 1697   1.632   3.239   0.081
  564SOL    HW1 1698   1.600   3.333   0.071
  564SOL    HW2 1699   1.556   3.176   0.069
  565SOL     OW 1700   0.464   3.605   0.323
  565SOL    HW1 1701   0.497   3.644   0.409
  565SOL    HW2 1702   0.540   3.598   0.258
  566SOL     OW 1703   1.400   1.969   0.426
  566SOL    HW1 1704   1.376   1.932   0.336
  566SOL    HW2 1705   1.499   1.985   0.430
  567SOL     OW 1706   0.249   3.647   1.241
  567SOL    HW1 1707   0.306   3.582   1.291
  567SOL    HW2 1708   0.233   3.614   1.148
  568SOL     OW 1709   0.940   3.560   0.904
  568SOL    HW1 1710   1.020   3.503   0.925
  568SOL    HW2 1711   0.891   3.520   0.827
  569SOL     OW 1712   0.382   2.562   0.480
  569SOL    HW1 1713   0.427   2.472   0.477
  569SOL    HW2 1714   0.288   2.551   0.513
  570SOL     OW 1715   1.547   2.084   1.729
  570SOL    HW1 1716   1.542   2.121   1.821
  570SOL    HW2 1717   1.475   2.015   1.717
  571SOL     OW 1718   0.614   1.984   0.117
  571SOL    HW1 1719   0.712   1.962   0.124
  571SOL    HW2 1720   0.583   1.967   0.024
  572SOL     OW 1721   0.781   2.126   1.749
  572SOL    HW1 1722   0.848   2.065   1.792
  572SOL    HW2 1723   0.708   2.145   1.814
  573SOL     OW 1724   0.888   3.376   1.195
  573SOL    HW1 1725   0.865   3.351   1.101
  573SOL    HW2 1726   0.949   3.307   1.234
  574SOL     OW 1727   1.351   2.452   1.433
  574SOL    HW1 1728   1.379   2.409   1.518
  574SOL    HW2 1729   1.376   2.548   1.434
  575SOL     OW 1730   0.803   3.264   0.924
  575SOL    HW1 1731   0.893   3.278   0.882
  575SOL    HW2 1732   0.732   3.266   0.853
  576SOL     OW 1733   0.922   2.365   0.899
  576SOL    HW1 1734   0.897   2.356   0.803
  576SOL    HW2 1735   0.970   2.283   0.930
  577SOL     OW 1736   0.539   1.926   0.512
  577SOL    HW1 1737   0.458   1.927   0.570
  577SOL    HW2 1738   0.542   2.009   0.457
  578SOL     OW 1739   1.434   3.050   0.041
  578SOL    HW1 1740   1.466   2.974   0.098
  578SOL    HW2 1741   1.342   3.077   0.071
  579SOL     OW 1742   0.935   2.098   0.480
  579SOL    HW1 1743   0.887   2.139   0.402
  579SOL    HW2 1744   1.034   2.096   0.461
  580SOL     OW 1745   1.076   2.545   1.464
  580SOL    HW1 1746   0.996   2.484   1.467
  580SOL    HW2 1747   1.157   2.492   1.440
  581SOL     OW 1748   1.227   3.432   0.793
  581SOL    HW1 1749   1.248   3.506   0.728
  581SOL    HW2 1750   1.295   3.432   0.866
  582SOL     OW 1751   0.459   3.014   0.741
  582SOL    HW1 1752   0.388   2.987   0.806
  582SOL    HW2 1753   0.433   2.986   0.648
  583SOL     OW 1754   1.271   3.659   0.591
  583SOL    HW1 1755   1.315   3.723   0.527
  583SOL    HW2 1756   1.221   3.711   0.661
  584SOL     OW 1757   1.032   2.411   0.016
  584SOL    HW1 1758   0.991   2.493  -0.023
  584SOL    HW2 1759   1.096   2.437   0.089
  585SOL     OW 1760   0.078   2.418   1.386
  585SOL    HW1 1761   0.170   2.417   1.345
  585SOL    HW2 1762   0.072   2.492   1.453
  586SOL     OW 1763   0.561   2.084   1.147
  586SOL    HW1 1764   0.599   2.000   1.184
  586SOL    HW2 1765   0.473   2.103   1.191
  587SOL     OW 1766   0.866   2.316   0.642
  587SOL    HW1 1767   0.834   2.388   0.580
  587SOL    HW2 1768   0.890   2.235   0.589
  588SOL     OW 1769   1.017   1.901   0.753
  588SOL    HW1 1770   0.945   1.906   0.684
  588SOL    HW2 1771   0.993   1.832   0.822
  589SOL     OW 1772   1.429   3.035   0.867
  589SOL    HW1 1773   1.374   2.951   0.860
  589SOL    HW2 1774   1.455   3.064   0.775
  590SOL     OW 1775   1.466   2.452   0.992
  590SOL    HW1 1776   1.436   2.357   0.999
  590SOL    HW2 1777   1.539   2.468   1.058
  591SOL     OW 1778   1.857   2.695   0.377
  591SOL    HW1 1779   1.899   2.631   0.441
  591SOL    HW2 1780   1.819   2.644   0.299
  592SOL     OW 1781   0.488   3.247   0.174
  592SOL    HW1 1782   0.401   3.232   0.221
  592SOL    HW2 1783   0.471   3.273   0.079
  593SOL     OW 1784   1.664   3.142   0.657
  593SOL    HW1 1785   1.763   3.150   0.671
  593SOL    HW2 1786   1.619   3.226   0.688
  594SOL     OW 1787   1.390   2.437   0.078
  594SOL    HW1 1788   1.336   2.416   0.159
  594SOL    HW2 1789   1.481   2.396   0.087
  595SOL     OW 1790   0.527   2.118   0.328
  595SOL    HW1 1791   0.554   2.059   0.253
  595SOL    HW2 1792   0.527   2.213   0.297
  596SOL     OW 1793   1.754   3.085   1.588
  596SOL    HW1 1794   1.845   3.046   1.575
  596SOL    HW2 1795   1.762   3.181   1.612
  597SOL     OW 1796   1.064   3.209   1.340
  597SOL    HW1 1797   0.984   3.186   1.395
  597SOL    HW2 1798   1.147   3.183   1.389
  598SOL     OW 1799   1.592   3.491   1.625
  598SOL    HW1 1800   1.619   3.525   1.535
  598SOL    HW2 1801   1.671   3.453   1.671
  599SOL     OW 1802   1.111   3.057   1.100
  599SOL    HW1 1803   1.071   3.101   1.181
  599SOL    HW2 1804   1.070   3.094   1.017
  600SOL     OW 1805   1.638   2.961   1.079
  600SOL    HW1 1806   1.643   3.042   1.138
  600SOL    HW2 1807   1.552   2.963   1.028
  601SOL     OW 1808   0.915   1.951   1.402
  601SOL    HW1 1809   0.940   1.931   1.307
  601SOL    HW2 1810   0.987   2.007   1.444
  602SOL     OW 1811   0.980   2.978   1.719
  602SOL    HW1 1812   0.881   2.984   1.729
  602SOL    HW2 1813   1.003   2.898   1.663
  603SOL     OW 1814   0.705   2.912   0.368
  603SOL    HW1 1815   0.691   2.919   0.467
  603SOL    HW2 1816   0.789   2.861   0.350
  604SOL     OW 1817   0.410   2.675   1.251
  604SOL    HW1 1818   0.496   2.687   1.301
  604SOL    HW2 1819   0.368   2.588   1.278
  605SOL     OW 1820   1.274   2.248   1.262
  605SOL    HW1 1821   1.295   2.322   1.326
  605SOL    HW2 1822   1.185   2.265   1.219
  606SOL     OW 1823   0.064   3.426   1.331
  606SOL    HW1 1824   0.018   3.508   1.297
  606SOL    HW2 1825   0.162   3.445   1.340
  607SOL     OW 1826   0.367   2.962   0.501
  607SOL    HW1 1827   0.360   3.045   0.445
  607SOL    HW2 1828   0.371   2.882   0.441
  608SOL     OW 1829   0.566   2.399   0.865
  608SOL    HW1 1830   0.578   2.465   0.791
  608SOL    HW2 1831   0.612   2.433   0.948
  609SOL     OW 1832   1.252   3.210   0.388
  609SOL    HW1 1833   1.302   3.287   0.428
  609SOL    HW2 1834   1.157   3.212   0.420
  610SOL     OW 1835   1.272   3.307   1.142
  610SOL    HW1 1836   1.319   3.320   1.229
  610SOL    HW2 1837   1.206   3.233   1.151
  611SOL     OW 1838   1.582   2.501   0.472
  611SOL    HW1 1839   1.551   2.562   0.545
  611SOL    HW2 1840   1.632   2.553   0.403
  612SOL     OW 1841   0.354   3.372   1.329
  612SOL    HW1 1842   0.333   3.328   1.242
  612SOL    HW2 1843   0.451   3.398   1.332
  613SOL     OW 1844   0.402   2.613   1.598
  613SOL    HW1 1845   0.470   2.668   1.551
  613SOL    HW2 1846   0.442   2.525   1.625
  614SOL     OW 1847   1.587   2.641   1.670
  614SOL    HW1 1848   1.495   2.679   1.665
  614SOL    HW2 1849   1.647   2.688   1.605
  615SOL     OW 1850   1.013   1.967   1.770
  615SOL    HW1 1851   1.019   2.052   1.718
  615SOL    HW2 1852   1.045   1.891   1.713
  616SOL     OW 1853   0.504   1.912   1.740
  616SOL    HW1 1854   0.462   1.855   1.670
  616SOL    HW2 1855   0.438   1.981   1.772
  617SOL     OW 1856   0.573   2.732   1.029
  617SOL    HW1 1857   0.617   2.821   1.020
  617SOL    HW2 1858   0.510   2.732   1.106
  618SOL     OW 1859   1.360   2.724   1.045
  618SOL    HW1 1860   1.285   2.724   0.979
  618SOL    HW2 1861   1.397   2.632   1.054
  619SOL     OW 1862   1.209   2.387   0.275
  619SOL    HW1 1863   1.222   2.303   0.329
  619SOL    HW2 1864   1.180   2.461   0.335
  620SOL     OW 1865   0.307   2.075   1.231
  620SOL    HW1 1866   0.284   2.112   1.321
  620SOL    HW2 1867   0.277   1.980   1.225
  621SOL     OW 1868   0.037   3.172   1.282
  621SOL    HW1 1869   0.090   3.123   1.350
  621SOL    HW2 1870   0.059   3.270   1.287
  622SOL     OW 1871   0.732   2.496   1.064
  622SOL    HW1 1872   0.791   2.470   0.988
  622SOL    HW2 1873   0.704   2.592   1.053
  623SOL     OW 1874   1.728   2.797   1.854
  623SOL    HW1 1875   1.682   2.790   1.765
  623SOL    HW2 1876   1.666   2.841   1.920
  624SOL     OW 1877   0.307   1.925   0.618
  624SOL    HW1 1878   0.296   2.019   0.651
  624SOL    HW2 1879   0.302   1.862   0.695
  625SOL     OW 1880   1.622   2.229   0.374
  625SOL    HW1 1881   1.624   2.153   0.438
  625SOL    HW2 1882   1.574   2.306   0.414
  626SOL     OW 1883   1.023   2.628   0.966
  626SOL    HW1 1884   1.038   2.649   1.062
  626SOL    HW2 1885   0.993   2.533   0.957
  627SOL     OW 1886   0.980   3.435   1.700
  627SOL    HW1 1887   0.960   3.479   1.612
  627SOL    HW2 1888   1.019   3.344   1.684
  628SOL     OW 1889   1.859   3.380   1.605
  628SOL    HW1 1890   1.873   3.407   1.510
  628SOL    HW2 1891   1.942   3.402   1.658
  629SOL     OW 1892   0.350   2.760   1.804
  629SOL    HW1 1893   0.426   2.804   1.852
  629SOL    HW2 1894   0.385   2.713   1.722
  630SOL     OW 1895   1.540   2.136   0.125
  630SOL    HW1 1896   1.479   2.061   0.148
  630SOL    HW2 1897   1.562   2.188   0.208
  631SOL     OW 1898   1.303   2.700   0.042
  631SOL    HW1 1899   1.337   2.607   0.057
  631SOL    HW2 1900   1.321   2.727  -0.053
  632SOL     OW 1901   1.068   3.195   0.849
  632SOL    HW1 1902   1.075   3.111   0.794
  632SOL    HW2 1903   1.130   3.264   0.813
  633SOL     OW 1904   0.319   2.672   0.949
  633SOL    HW1 1905   0.412   2.708   0.954
  633SOL    HW2 1906   0.313   2.587   1.001
  634SOL     OW 1907   0.339   2.371   1.006
  634SOL    HW1 1908   0.287   2.288   0.989
  634SOL    HW2 1909   0.416   2.376   0.942
  635SOL     OW 1910   1.138   2.242   1.678
  635SOL    HW1 1911   1.093   2.305   1.742
  635SOL    HW2 1912   1.231   2.273   1.661
  636SOL     OW 1913   1.160   2.069   1.477
  636SOL    HW1 1914   1.160   2.133   1.554
  636SOL    HW2 1915   1.188   2.117   1.394
  637SOL     OW 1916   0.008   3.188   0.200
  637SOL    HW1 1917  -0.085   3.209   0.169
  637SOL    HW2 1918   0.018   3.089   0.213
  638SOL     OW 1919   0.088   3.663   0.927
  638SOL    HW1 1920   0.046   3.577   0.900
  638SOL    HW2 1921   0.182   3.666   0.893
  639SOL     OW 1922   0.504   3.430   0.910
  639SOL    HW1 1923   0.570   3.504   0.919
  639SOL    HW2 1924   0.548   3.351   0.868
  640SOL     OW 1925   1.002   2.658   1.238
  640SOL    HW1 1926   1.043   2.626   1.324
  640SOL    HW2 1927   0.906   2.631   1.235
  641SOL     OW 1928   0.040   2.406   1.114
  641SOL    HW1 1929   0.125   2.373   1.073
  641SOL    HW2 1930   0.053   2.421   1.212
  642SOL     OW 1931   0.189   2.382   1.722
  642SOL    HW1 1932   0.248   2.342   1.652
  642SOL    HW2 1933   0.131   2.453   1.681
  643SOL     OW 1934   1.369   2.812   1.660
  643SOL    HW1 1935   1.408   2.901   1.680
  643SOL    HW2 1936   1.379   2.792   1.563
  644SOL     OW 1937   0.815   2.434   0.325
  644SOL    HW1 1938   0.822   2.345   0.279
  644SOL    HW2 1939   0.721   2.468   0.317
  645SOL     OW 1940   1.657   2.466   1.206
  645SOL    HW1 1941   1.619   2.397   1.268
  645SOL    HW2 1942   1.739   2.430   1.162
  646SOL     OW 1943   0.252   3.426   1.744
  646SOL    HW1 1944   0.222   3.483   1.820
  646SOL    HW2 1945   0.245   3.329   1.770
  647SOL     OW 1946   0.671   2.326   1.269
  647SOL    HW1 1947   0.637   2.237   1.239
  647SOL    HW2 1948   0.697   2.380   1.189
  648SOL     OW 1949   0.930   3.540   1.465
  648SOL    HW1 1950   0.906   3.522   1.370
  648SOL    HW2 1951   0.960   3.634   1.475
  649SOL     OW 1952   0.473   2.362   0.191
  649SOL    HW1 1953   0.534   2.442   0.195
  649SOL    HW2 1954   0.378   2.393   0.198
  650SOL     OW 1955   0.159   2.999   1.466
  650SOL    HW1 1956   0.181   2.938   1.542
  650SOL    HW2 1957   0.169   2.950   1.380
  651SOL     OW 1958   1.347   2.921   1.234
  651SOL    HW1 1959   1.371   2.858   1.160
  651SOL    HW2 1960   1.257   2.961   1.216
  652SOL     OW 1961   1.302   2.717   0.309
  652SOL    HW1 1962   1.216   2.686   0.351
  652SOL    HW2 1963   1.298   2.703   0.210
  653SOL     OW 1964   1.759   3.609   1.154
  653SOL    HW1 1965   1.820   3.639   1.081
  653SOL    HW2 1966   1.721   3.520   1.132
  654SOL     OW 1967   1.252   3.593   1.128
  654SOL    HW1 1968   1.336   3.598   1.074
  654SOL    HW2 1969   1.229   3.497   1.146
  655SOL     OW 1970   0.083   3.120   1.022
  655SOL    HW1 1971   0.078   3.119   1.122
  655SOL    HW2 1972   0.000   3.079   0.984
  656SOL     OW 1973   0.688   3.524   1.716
  656SOL    HW1 1974   0.632   3.605   1.725
  656SOL    HW2 1975   0.740   3.528   1.630
  657SOL     OW 1976   0.903   1.948   0.133
  657SOL    HW1 1977   0.954   1.949   0.047
  657SOL    HW2 1978   0.959   1.906   0.204
  658SOL     OW 1979   1.726   1.997   0.523
  658SOL    HW1 1980   1.799   1.980   0.456
  658SOL    HW2 1981   1.695   1.910   0.561
  659SOL     OW 1982   1.388   3.435   0.477
  659SOL    HW1 1983   1.455   3.447   0.403
  659SOL    HW2 1984   1.348   3.524   0.500
  660SOL     OW 1985   0.130   3.656   1.851
  660SOL    HW1 1986   0.089   3.582   1.904
  660SOL    HW2 1987   0.194   3.707   1.909
  661SOL     OW 1988   1.280   2.789   0.672
  661SOL    HW1 1989   1.340   2.708   0.674
  661SOL    HW2 1990   1.320   2.858   0.612
  662SOL     OW 1991   0.830   3.135   1.422
  662SOL    HW1 1992   0.825   3.168   1.517
  662SOL    HW2 1993   0.744   3.154   1.376
  663SOL     OW 1994   0.672   3.478   0.154
  663SOL    HW1 1995   0.681   3.488   0.055
  663SOL    HW2 1996   0.632   3.389   0.175
  664SOL     OW 1997   1.650   3.582   1.394
  664SOL    HW1 1998   1.703   3.592   1.310
  664SOL    HW2 1999   1.623   3.672   1.428
  665SOL     OW 2000   1.841   2.037   0.963
  665SOL    HW1 2001   1.880   1.952   0.927
  665SOL    HW2 2002   1.743   2.039   0.944
  666SOL     OW 2003   0.263   2.188   0.720
  666SOL    HW1 2004   0.184   2.239   0.686
  666SOL    HW2 2005   0.254   2.173   0.818
  667SOL     OW 2006   1.194   3.474   0.031
  667SOL    HW1 2007   1.200   3.381   0.068
  667SOL    HW2 2008   1.135   3.474  -0.049
  668SOL     OW 2009   0.822   2.864   1.372
  668SOL    HW1 2010   0.862   2.863   1.280
  668SOL    HW2 2011   0.832   2.956   1.412
  669SOL     OW 2012   0.916   2.772   0.291
  669SOL    HW1 2013   0.979   2.810   0.223
  669SOL    HW2 2014   0.956   2.689   0.330
  670SOL     OW 2015   1.504   3.469   0.044
  670SOL    HW1 2016   1.412   3.506   0.051
  670SOL    HW2 2017   1.542   3.489  -0.046
  671SOL     OW 2018   0.372   3.150   1.490
  671SOL    HW1 2019   0.359   3.243   1.456
  671SOL    HW2 2020   0.288   3.098   1.477
  672SOL     OW 2021   1.614   3.154   1.289
  672SOL    HW1 2022   1.674   3.157   1.369
  672SOL    HW2 2023   1.539   3.218   1.302
  673SOL     OW 2024   1.039   2.960   0.696
  673SOL    HW1 2025   0.969   2.913   0.750
  673SOL    HW2 2026   1.098   2.892   0.653
  674SOL     OW 2027   1.014   2.098   0.971
  674SOL    HW1 2028   1.006   2.062   0.878
  674SOL    HW2 2029   1.012   2.022   1.036
  675SOL     OW 2030   0.590   3.349   0.491
  675SOL    HW1 2031   0.632   3.291   0.421
  675SOL    HW2 2032   0.546   3.428   0.447
  676SOL     OW 2033   1.709   2.247   1.381
  676SOL    HW1 2034   1.782   2.316   1.385
  676SOL    HW2 2035   1.737   2.172   1.322
  677SOL     OW 2036   0.255   3.210   0.290
  677SOL    HW1 2037   0.159   3.211   0.263
  677SOL    HW2 2038   0.267   3.263   0.374
  678SOL     OW 2039   0.105   2.875   1.726
  678SOL    HW1 2040   0.028   2.842   1.780
  678SOL    HW2 2041   0.190   2.845   1.768
  679SOL     OW 2042   0.672   2.065   1.489
  679SOL    HW1 2043   0.762   2.049   1.449
  679SOL    HW2 2044   0.680   2.070   1.588
  680SOL     OW 2045   0.075   2.207   0.033
  680SOL    HW1 2046  -0.017   2.179   0.004
  680SOL    HW2 2047   0.106   2.284  -0.023
  681SOL     OW 2048   1.440   2.718   1.398
  681SOL    HW1 2049   1.383   2.770   1.335
  681SOL    HW2 2050   1.536   2.730   1.374
  682SOL     OW 2051   0.072   2.028   0.318
  682SOL    HW1 2052   0.055   2.111   0.264
  682SOL    HW2 2053   0.162   1.991   0.296
  683SOL     OW 2054   1.183   3.197   0.119
  683SOL    HW1 2055   1.084   3.186   0.121
  683SOL    HW2 2056   1.217   3.212   0.212
  684SOL     OW 2057   0.613   2.704   1.431
  684SOL    HW1 2058   0.669   2.785   1.414
  684SOL    HW2 2059   0.672   2.624   1.434
  685SOL     OW 2060   1.493   3.629   0.959
  685SOL    HW1 2061   1.526   3.693   0.890
  685SOL    HW2 2062   1.559   3.623   1.034
  686SOL     OW 2063   0.716   2.427   1.708
  686SOL    HW1 2064   0.735   2.492   1.782
  686SOL    HW2 2065   0.776   2.347   1.717
  687SOL     OW 2066   1.450   3.082   1.633
  687SOL    HW1 2067   1.441   3.072   1.732
  687SOL    HW2 2068   1.546   3.075   1.607
  688SOL     OW 2069   0.390   3.603   1.560
  688SOL    HW1 2070   0.299   3.644   1.558
  688SOL    HW2 2071   0.383   3.509   1.592
  689SOL     OW 2072   1.674   2.745   1.254
  689SOL    HW1 2073   1.647   2.656   1.217
  689SOL    HW2 2074   1.675   2.813   1.181
  690SOL     OW 2075   1.225   2.187   0.449
  690SOL    HW1 2076   1.290   2.113   0.438
  690SOL    HW2 2077   1.245   2.237   0.533
  691SOL     OW 2078   0.594   2.607   0.652
  691SOL    HW1 2079   0.644   2.692   0.633
  691SOL    HW2 2080   0.506   2.609   0.604
  692SOL     OW 2081   1.777   2.204   1.642
  692SOL    HW1 2082   1.760   2.235   1.548
  692SOL    HW2 2083   1.693   2.167   1.680
  693SOL     OW 2084   1.730   2.796   1.517
  693SOL    HW1 2085   1.768   2.887   1.532
  693SOL    HW2 2086   1.722   2.779   1.418
  694SOL     OW 2087   0.859   3.236   0.016
  694SOL    HW1 2088   0.813   3.251   0.104
  694SOL    HW2 2089   0.903   3.321  -0.014
  695SOL     OW 2090   0.661   3.652   0.953
  695SOL    HW1 2091   0.615   3.740   0.940
  695SOL    HW2 2092   0.760   3.664   0.946
  696SOL     OW 2093   0.859   2.818   0.861
  696SOL    HW1 2094   0.913   2.749   0.909
  696SOL    HW2 2095   0.827   2.887   0.927
  697SOL     OW 2096   1.083   2.846   0.087
  697SOL    HW1 2097   1.060   2.899   0.005
  697SOL    HW2 2098   1.164   2.790   0.068
  698SOL     OW 2099   1.861   3.431   0.851
  698SOL    HW1 2100   1.790   3.419   0.781
  698SOL    HW2 2101   1.862   3.352   0.911
  699SOL     OW 2102   0.221   3.176   1.844
  699SOL    HW1 2103   0.156   3.103   1.823
  699SOL    HW2 2104   0.225   3.190   1.942
  700SOL     OW 2105   0.079   3.102   0.653
  700SOL    HW1 2106   0.078   3.055   0.741
  700SOL    HW2 2107   0.161   3.074   0.602
  701SOL     OW 2108   0.672   3.253   1.624
  701SOL    HW1 2109   0.594   3.203   1.662
  701SOL    HW2 2110   0.669   3.348   1.655
  702SOL     OW 2111   1.824   2.054   1.227
  702SOL    HW1 2112   1.820   1.964   1.271
  702SOL    HW2 2113   1.827   2.043   1.128
  703SOL     OW 2114   0.428   2.286   0.520
  703SOL    HW1 2115   0.458   2.214   0.458
  703SOL    HW2 2116   0.389   2.246   0.603
  704SOL     OW 2117   1.705   3.349   1.104
  704SOL    HW1 2118   1.612   3.324   1.077
  704SOL    HW2 2119   1.731   3.299   1.186
  705SOL     OW 2120   0.317   2.409   1.280
  705SOL    HW1 2121   0.355   2.350   1.352
  705SOL    HW2 2122   0.357   2.383   1.192
  706SOL     OW 2123   0.812   3.448   0.687
  706SOL    HW1 2124   0.844   3.458   0.593
  706SOL    HW2 2125   0.733   3.386   0.689
  707SOL     OW 2126   1.424   2.076   1.112
  707SOL    HW1 2127   1.476   2.011   1.167
  707SOL    HW2 2128   1.375   2.139   1.173
  708SOL     OW 2129   1.001   1.896   1.154
  708SOL    HW1 2130   0.938   1.824   1.123
  708SOL    HW2 2131   1.094   1.860   1.154
  709SOL     OW 2132   0.770   3.192   0.301
  709SOL    HW1 2133   0.724   3.105   0.318
  709SOL    HW2 2134   0.861   3.189   0.342
  710SOL     OW 2135   0.618   3.429   1.284
  710SOL    HW1 2136   0.613   3.511   1.341
  710SOL    HW2 2137   0.707   3.426   1.239
  711SOL     OW 2138   1.352   1.914   0.168
  711SOL    HW1 2139   1.387   1.873   0.084
  711SOL    HW2 2140   1.262   1.876   0.188
  712SOL     OW 2141   1.300   2.315   0.691
  712SOL    HW1 2142   1.241   2.395   0.695
  712SOL    HW2 2143   1.315   2.280   0.784
  713SOL     OW 2144   1.593   2.083   0.882
  713SOL    HW1 2145   1.509   2.082   0.936
  713SOL    HW2 2146   1.595   2.166   0.826
  714SOL     OW 2147   0.039   2.939   0.300
  714SOL    HW1 2148   0.138   2.928   0.291
  714SOL    HW2 2149  -0.001   2.853   0.332
  715SOL     OW 2150   0.875   3.508   0.337
  715SOL    HW1 2151   0.798   3.473   0.283
  715SOL    HW2 2152   0.843   3.579   0.399
  716SOL     OW 2153   0.230   2.490   1.975
  716SOL    HW1 2154   0.137   2.488   2.012
  716SOL    HW2 2155   0.231   2.451   1.883
  717SOL     OW 2156   0.225   2.137   2.858
  717SOL    HW1 2157   0.260   2.120   2.950
  717SOL    HW2 2158   0.137   2.092   2.846
  718SOL     OW 2159   0.019   2.230   2.509
  718SOL    HW1 2160  -0.063   2.273   2.548
  718SOL    HW2 2161  -0.009   2.157   2.446
  719SOL     OW 2162   0.569   3.137   3.027
  719SOL    HW1 2163   0.476   3.130   2.990
  719SOL    HW2 2164   0.580   3.226   3.071
  720SOL     OW 2165   1.555   3.373   2.565
  720SOL    HW1 2166   1.498   3.357   2.646
  720SOL    HW2 2167   1.496   3.383   2.485
  721SOL     OW 2168   1.135   2.565   2.579
  721SOL    HW1 2169   1.192   2.643   2.554
  721SOL    HW2 2170   1.075   2.591   2.655
  722SOL     OW 2171   1.755   2.469   2.093
  722SOL    HW1 2172   1.743   2.456   1.994
  722SOL    HW2 2173   1.725   2.388   2.142
  723SOL     OW 2174   0.768   3.006   2.885
  723SOL    HW1 2175   0.690   3.023   2.945
  723SOL    HW2 2176   0.802   3.093   2.849
  724SOL     OW 2177   0.850   2.660   3.685
  724SOL    HW1 2178   0.846   2.736   3.750
  724SOL    HW2 2179   0.872   2.696   3.594
  725SOL     OW 2180   0.685   2.874   2.527
  725SOL    HW1 2181   0.754   2.858   2.597
  725SOL    HW2 2182   0.612   2.931   2.565
  726SOL     OW 2183   0.686   3.023   3.665
  726SOL    HW1 2184   0.746   3.102   3.679
  726SOL    HW2 2185   0.600   3.054   3.624
  727SOL     OW 2186   0.335   3.297   2.923
  727SOL    HW1 2187   0.257   3.266   2.870
  727SOL    HW2 2188   0.393   3.355   2.866
  728SOL     OW 2189   1.460   3.367   3.201
  728SOL    HW1 2190   1.484   3.461   3.227
  728SOL    HW2 2191   1.444   3.313   3.283
  729SOL     OW 2192   0.438   2.254   3.361
  729SOL    HW1 2193   0.520   2.198   3.370
  729SOL    HW2 2194   0.357   2.196   3.365
  730SOL     OW 2195   1.603   2.309   2.599
  730SOL    HW1 2196   1.529   2.355   2.549
  730SOL    HW2 2197   1.654   2.377   2.652
  731SOL     OW 2198   0.231   3.575   2.345
  731SOL    HW1 2199   0.265   3.652   2.399
  731SOL    HW2 2200   0.275   3.575   2.255
  732SOL     OW 2201   1.127   3.203   3.552
  732SOL    HW1 2202   1.174   3.203   3.640
  732SOL    HW2 2203   1.079   3.116   3.541
  733SOL     OW 2204   0.230   3.296   2.400
  733SOL    HW1 2205   0.204   3.392   2.400
  733SOL    HW2 2206   0.159   3.242   2.445
  734SOL     OW 2207   0.240   2.953   2.748
  734SOL    HW1 2208   0.254   2.869   2.800
  734SOL    HW2 2209   0.185   3.017   2.803
  735SOL     OW 2210   0.620   3.648   3.301
  735SOL    HW1 2211   0.528   3.631   3.336
  735SOL    HW2 2212   0.648   3.740   3.327
  736SOL     OW 2213   0.606   2.826   1.985
  736SOL    HW1 2214   0.613   2.910   1.931
  736SOL    HW2 2215   0.652   2.839   2.073
  737SOL     OW 2216   1.594   1.976   3.342
  737SOL    HW1 2217   1.576   2.043   3.270
  737SOL    HW2 2218   1.591   2.022   3.431
  738SOL     OW 2219   0.122   2.505   2.425
  738SOL    HW1 2220   0.077   2.417   2.442
  738SOL    HW2 2221   0.121   2.559   2.509
  739SOL     OW 2222   1.842   3.629   2.221
  739SOL    HW1 2223   1.896   3.600   2.301
  739SOL    HW2 2224   1.872   3.719   2.192
  740SOL     OW 2225   0.027   3.458   1.979
  740SOL    HW1 2226   0.008   3.362   2.000
  740SOL    HW2 2227  -0.006   3.516   2.054
  741SOL     OW 2228   1.689   2.784   2.474
  741SOL    HW1 2229   1.784   2.755   2.482
  741SOL    HW2 2230   1.681   2.849   2.399
  742SOL     OW 2231   1.641   2.970   2.294
  742SOL    HW1 2232   1.727   2.972   2.242
  742SOL    HW2 2233   1.655   3.017   2.382
  743SOL     OW 2234   0.113   2.599   3.459
  743SOL    HW1 2235   0.201   2.586   3.504
  743SOL    HW2 2236   0.100   2.696   3.437
  744SOL     OW 2237   0.613   3.227   2.588
  744SOL    HW1 2238   0.564   3.140   2.597
  744SOL    HW2 2239   0.590   3.270   2.501
  745SOL     OW 2240   1.293   3.090   3.285
  745SOL    HW1 2241   1.330   3.017   3.227
  745SOL    HW2 2242   1.345   3.095   3.370
  746SOL     OW 2243   0.809   1.866   2.364
  746SOL    HW1 2244   0.849   1.957   2.355
  746SOL    HW2 2245   0.709   1.874   2.370
  747SOL     OW 2246   0.197   2.838   3.126
  747SOL    HW1 2247   0.286   2.793   3.112
  747SOL    HW2 2248   0.124   2.773   3.107
  748SOL     OW 2249   1.525   2.861   2.052
  748SOL    HW1 2250   1.462   2.785   2.065
  748SOL    HW2 2251   1.573   2.879   2.138
  749SOL     OW 2252   1.187   3.654   3.478
  749SOL    HW1 2253   1.211   3.714   3.402
  749SOL    HW2 2254   1.194   3.559   3.448
  750SOL     OW 2255   0.317   2.113   3.663
  750SOL    HW1 2256   0.388   2.184   3.669
  750SOL    HW2 2257   0.229   2.152   3.691
  751SOL     OW 2258   1.466   3.279   2.815
  751SOL    HW1 2259   1.407   3.285   2.895
  751SOL    HW2 2260   1.451   3.191   2.769
  752SOL     OW 2261   1.667   3.576   2.434
  752SOL    HW1 2262   1.626   3.553   2.346
  752SOL    HW2 2263   1.649   3.502   2.499
  753SOL     OW 2264   0.598   2.591   2.132
  753SOL    HW1 2265   0.622   2.660   2.064
  753SOL    HW2 2266   0.520   2.624   2.186
  754SOL     OW 2267   1.281   2.207   2.806
  754SOL    HW1 2268   1.195   2.157   2.793
  754SOL    HW2 2269   1.343   2.153   2.862
  755SOL     OW 2270   1.576   3.524   2.169
  755SOL    HW1 2271   1.665   3.570   2.172
  755SOL    HW2 2272   1.555   3.500   2.074
  756SOL     OW 2273   0.807   2.467   3.327
  756SOL    HW1 2274   0.760   2.464   3.416
  756SOL    HW2 2275   0.756   2.412   3.261
  757SOL     OW 2276   1.394   2.331   3.536
  757SOL    HW1 2277   1.374   2.374   3.624
  757SOL    HW2 2278   1.472   2.269   3.545
  758SOL     OW 2279   0.973   2.752   3.434
  758SOL    HW1 2280   1.019   2.668   3.405
  758SOL    HW2 2281   0.917   2.786   3.359
  759SOL     OW 2282   0.991   2.272   3.104
  759SOL    HW1 2283   0.914   2.306   3.158
  759SOL    HW2 2284   0.957   2.221   3.025
  760SOL     OW 2285   1.041   2.563   2.291
  760SOL    HW1 2286   1.067   2.559   2.387
  760SOL    HW2 2287   0.956   2.512   2.277
  761SOL     OW 2288   0.076   2.673   2.651
  761SOL    HW1 2289   0.175   2.661   2.660
  761SOL    HW2 2290   0.052   2.768   2.672
  762SOL     OW 2291   0.130   3.683   3.433
  762SOL    HW1 2292   0.120   3.668   3.532
  762SOL    HW2 2293   0.044   3.719   3.397
  763SOL     OW 2294   0.865   2.210   2.057
  763SOL    HW1 2295   0.924   2.273   2.008
  763SOL    HW2 2296   0.884   2.116   2.028
  764SOL     OW 2297   1.719   2.447   3.693
  764SOL    HW1 2298   1.693   2.536   3.657
  764SOL    HW2 2299   1.717   2.379   3.620
  765SOL     OW 2300   1.362   3.006   2.407
  765SOL    HW1 2301   1.445   2.977   2.359
  765SOL    HW2 2302   1.313   3.073   2.351
  766SOL     OW 2303   0.550   2.058   2.747
  766SOL    HW1 2304   0.545   2.053   2.847
  766SOL    HW2 2305   0.552   2.154   2.718
  767SOL     OW 2306   1.008   3.318   2.339
  767SOL    HW1 2307   0.962   3.390   2.287
  767SOL    HW2 2308   1.004   3.338   2.437
  768SOL     OW 2309   0.351   3.663   2.715
  768SOL    HW1 2310   0.401   3.577   2.721
  768SOL    HW2 2311   0.416   3.740   2.712
  769SOL     OW 2312   1.795   2.928   2.735
  769SOL    HW1 2313   1.733   2.913   2.659
  769SOL    HW2 2314   1.743   2.939   2.820
  770SOL     OW 2315   1.227   3.412   3.368
  770SOL    HW1 2316   1.233   3.335   3.432
  770SOL    HW2 2317   1.175   3.386   3.288
  771SOL     OW 2318   0.321   2.805   2.104
  771SOL    HW1 2319   0.403   2.844   2.062
  771SOL    HW2 2320   0.294   2.723   2.055
  772SOL     OW 2321   1.458   2.597   2.590
  772SOL    HW1 2322   1.453   2.532   2.665
  772SOL    HW2 2323   1.538   2.656   2.603
  773SOL     OW 2324   0.461   3.128   3.589
  773SOL    HW1 2325   0.411   3.129   3.503
  773SOL    HW2 2326   0.398   3.110   3.665
  774SOL     OW 2327   1.111   3.638   2.099
  774SOL    HW1 2328   1.051   3.576   2.149
  774SOL    HW2 2329   1.142   3.594   2.014
  775SOL     OW 2330   0.202   2.147   3.360
  775SOL    HW1 2331   0.122   2.207   3.347
  775SOL    HW2 2332   0.192   2.098   3.446
  776SOL     OW 2333   1.632   3.239   1.943
  776SOL    HW1 2334   1.600   3.333   1.933
  776SOL    HW2 2335   1.556   3.176   1.931
  777SOL     OW 2336   0.464   3.605   2.185
  777SOL    HW1 2337   0.497   3.644   2.271
  777SOL    HW2 2338   0.540   3.598   2.120
  778SOL     OW 2339   1.400   1.969   2.288
  778SOL    HW1 2340   1.376   1.932   2.198
  778SOL    HW2 2341   1.499   1.985   2.292
  779SOL     OW 2342   0.249   3.647   3.103
  779SOL    HW1 2343   0.306   3.582   3.153
  779SOL    HW2 2344   0.233   3.614   3.010
  780SOL     OW 2345   0.940   3.560   2.766
  780SOL    HW1 2346   1.020   3.503   2.787
  780SOL    HW2 2347   0.891   3.520   2.689
  781SOL     OW 2348   0.382   2.562   2.342
  781SOL    HW1 2349   0.427   2.472   2.339
  781SOL    HW2 2350   0.288   2.551   2.375
  782SOL     OW 2351   1.547   2.084   3.591
  782SOL    HW1 2352   1.542   2.121   3.683
  782SOL    HW2 2353   1.475   2.015   3.579
  783SOL     OW 2354   0.614   1.984   1.979
  783SOL    HW1 2355   0.712   1.962   1.986
  783SOL    HW2 2356   0.583   1.967   1.886
  784SOL     OW 2357   0.781   2.126   3.611
  784SOL    HW1 2358   0.848   2.065   3.654
  784SOL    HW2 2359   0.708   2.145   3.676
  785SOL     OW 2360   0.888   3.376   3.057
  785SOL    HW1 2361   0.865   3.351   2.963
  785SOL    HW2 2362   0.949   3.307   3.096
  786SOL     OW 2363   1.351   2.452   3.295
  786SOL    HW1 2364   1.379   2.409   3.380
  786SOL    HW2 2365   1.376   2.548   3.296
  787SOL     OW 2366   0.803   3.264   2.786
  787SOL    HW1 2367   0.893   3.278   2.744
  787SOL    HW2 2368   0.732   3.266   2.715
  788SOL     OW 2369   0.922   2.365   2.761
  788SOL    HW1 2370   0.897   2.356   2.665
  788SOL    HW2 2371   0.970   2.283   2.792
  789SOL     OW 2372   0.539   1.926   2.374
  789SOL    HW1 2373   0.458   1.927   2.432
  789SOL    HW2 2374   0.542   2.009   2.319
  790SOL     OW 2375   1.434   3.050   1.903
  790SOL    HW1 2376   1.466   2.974   1.960
  790SOL    HW2 2377   1.342   3.077   1.933
  791SOL     OW 2378   0.297   1.897   2.033
  791SOL    HW1 2379   0.346   1.981   2.012
  791SOL    HW2 2380   0.359   1.832   2.078
  792SOL     OW 2381   0.935   2.098   2.342
  792SOL    HW1 2382   0.887   2.139   2.264
  792SOL    HW2 2383   1.034   2.096   2.323
  793SOL     OW 2384   1.076   2.545   3.326
  793SOL    HW1 2385   0.996   2.484   3.329
  793SOL    HW2 2386   1.157   2.492   3.302
  794SOL     OW 2387   1.227   3.432   2.655
  794SOL    HW1 2388   1.248   3.506   2.590
  794SOL    HW2 2389   1.295   3.432   2.728
  795SOL     OW 2390   0.459   3.014   2.603
  795SOL    HW1 2391   0.388   2.987   2.668
  795SOL    HW2 2392   0.433   2.986   2.510
  796SOL     OW 2393   1.271   3.659   2.453
  796SOL    HW1 2394   1.315   3.723   2.389
  796SOL    HW2 2395   1.221   3.711   2.523
  797SOL     OW 2396   1.032   2.411   1.878
  797SOL    HW1 2397   0.991   2.493   1.839
  797SOL    HW2 2398   1.096   2.437   1.951
  798SOL     OW 2399   0.078   2.418   3.248
  798SOL    HW1 2400   0.170   2.417   3.207
  798SOL    HW2 2401   0.072   2.492   3.315
  799SOL     OW 2402   0.561   2.084   3.009
  799SOL    HW1 2403   0.599   2.000   3.046
  799SOL    HW2 2404   0.473   2.103   3.053
  800SOL     OW 2405   0.866   2.316   2.504
  800SOL    HW1 2406   0.834   2.388   2.442
  800SOL    HW2 2407   0.890   2.235   2.451
  801SOL     OW 2408   1.017   1.901   2.615
  801SOL    HW1 2409   0.945   1.906   2.546
  801SOL    HW2 2410   0.993   1.832   2.684
  802SOL     OW 2411   1.429   3.035   2.729
  802SOL    HW1 2412   1.374   2.951   2.722
  802SOL    HW2 2413   1.455   3.064   2.637
  803SOL     OW 2414   1.466   2.452   2.854
  803SOL    HW1 2415   1.436   2.357   2.861
  803SOL    HW2 2416   1.539   2.468   2.920
  804SOL     OW 2417   1.857   2.695   2.239
  804SOL    HW1 2418   1.899   2.631   2.303
  804SOL    HW2 2419   1.819   2.644   2.161
  805SOL     OW 2420   0.488   3.247   2.036
  805SOL    HW1 2421   0.401   3.232   2.083
  805SOL    HW2 2422   0.471   3.273   1.941
  806SOL     OW 2423   1.664   3.142   2.519
  806SOL    HW1 2424   1.763   3.150   2.533
  806SOL    HW2 2425   1.619   3.226   2.550
  807SOL     OW 2426   1.390   2.437   1.940
  807SOL    HW1 2427   1.336   2.416   2.021
  807SOL    HW2 2428   1.481   2.396   1.949
  808SOL     OW 2429   0.527   2.118   2.190
  808SOL    HW1 2430   0.554   2.059   2.115
  808SOL    HW2 2431   0.527   2.213   2.159
  809SOL     OW 2432   1.754   3.085   3.450
  809SOL    HW1 2433   1.845   3.046   3.437
  809SOL    HW2 2434   1.762   3.181   3.474
  810SOL     OW 2435   1.064   3.209   3.202
  810SOL    HW1 2436   0.984   3.186   3.257
  810SOL    HW2 2437   1.147   3.183   3.251
  811SOL     OW 2438   1.592   3.491   3.487
  811SOL    HW1 2439   1.619   3.525   3.397
  811SOL    HW2 2440   1.671   3.453   3.533
  812SOL     OW 2441   1.111   3.057   2.962
  812SOL    HW1 2442   1.071   3.101   3.043
  812SOL    HW2 2443   1.070   3.094   2.879
  813SOL     OW 2444   1.638   2.961   2.941
  813SOL    HW1 2445   1.643   3.042   3.000
  813SOL    HW2 2446   1.552   2.963   2.890
  814SOL     OW 2447   0.915   1.951   3.264
  814SOL    HW1 2448   0.940   1.931   3.169
  814SOL    HW2 2449   0.987   2.007   3.306
  815SOL     OW 2450   0.980   2.978   3.581
  815SOL    HW1 2451   0.881   2.984   3.591
  815SOL    HW2 2452   1.003   2.898   3.525
  816SOL     OW 2453   0.705   2.912   2.230
  816SOL    HW1 2454   0.691   2.919   2.329
  816SOL    HW2 2455   0.789   2.861   2.212
  817SOL     OW 2456   0.410   2.675   3.113
  817SOL    HW1 2457   0.496   2.687   3.163
  817SOL    HW2 2458   0.368   2.588   3.140
  818SOL     OW 2459   1.274   2.248   3.124
  818SOL    HW1 2460   1.295   2.322   3.188
  818SOL    HW2 2461   1.185   2.265   3.081
  819SOL     OW 2462   0.064   3.426   3.193
  819SOL    HW1 2463   0.018   3.508   3.159
  819SOL    HW2 2464   0.162   3.445   3.202
  820SOL     OW 2465   0.367   2.962   2.363
  820SOL    HW1 2466   0.360   3.045   2.307
  820SOL    HW2 2467   0.371   2.882   2.303
  821SOL     OW 2468   0.566   2.399   2.727
  821SOL    HW1 2469   0.578   2.465   2.653
  821SOL    HW2 2470   0.612   2.433   2.810
  822SOL     OW 2471   1.252   3.210   2.250
  822SOL    HW1 2472   1.302   3.287   2.290
  822SOL    HW2 2473   1.157   3.212   2.282
  823SOL     OW 2474   1.272   3.307   3.004
  823SOL    HW1 2475   1.319   3.320   3.091
  823SOL    HW2 2476   1.206   3.233   3.013
  824SOL     OW 2477   1.582   2.501   2.334
  824SOL    HW1 2478   1.551   2.562   2.407
  824SOL    HW2 2479   1.632   2.553   2.265
  825SOL     OW 2480   0.354   3.372   3.191
  825SOL    HW1 2481   0.333   3.328   3.104
  825SOL    HW2 2482   0.451   3.398   3.194
  826SOL     OW 2483   0.402   2.613   3.460
  826SOL    HW1 2484   0.470   2.668   3.413
  826SOL    HW2 2485   0.442   2.525   3.487
  827SOL     OW 2486   1.587   2.641   3.532
  827SOL    HW1 2487   1.495   2.679   3.527
  827SOL    HW2 2488   1.647   2.688   3.467
  828SOL     OW 2489   1.013   1.967   3.632
  828SOL    HW1 2490   1.019   2.052   3.580
  828SOL    HW2 2491   1.045   1.891   3.575
  829SOL     OW 2492   0.504   1.912   3.602
  829SOL    HW1 2493   0.462   1.855   3.532
  829SOL    HW2 2494   0.438   1.981   3.634
  830SOL     OW 2495   0.573   2.732   2.891
  830SOL    HW1 2496   0.617   2.821   2.882
  830SOL    HW2 2497   0.510   2.732   2.968
  831SOL     OW 2498   1.360   2.724   2.907
  831SOL    HW1 2499   1.285   2.724   2.841
  831SOL    HW2 2500   1.397   2.632   2.916
  832SOL     OW 2501   1.209   2.387   2.137
  832SOL    HW1 2502   1.222   2.303   2.191
  832SOL    HW2 2503   1.180   2.461   2.197
  833SOL     OW 2504   0.307   2.075   3.093
  833SOL    HW1 2505   0.284   2.112   3.183
  833SOL    HW2 2506   0.277   1.980   3.087
  834SOL     OW 2507   0.037   3.172   3.144
  834SOL    HW1 2508   0.090   3.123   3.212
  834SOL    HW2 2509   0.059   3.270   3.149
  835SOL     OW 2510   0.732   2.496   2.926
  835SOL    HW1 2511   0.791   2.470   2.850
  835SOL    HW2 2512   0.704   2.592   2.915
  836SOL     OW 2513   1.728   2.797   3.716
  836SOL    HW1 2514   1.682   2.790   3.627
  836SOL    HW2 2515   1.666   2.841   3.782
  837SOL     OW 2516   0.307   1.925   2.480
  837SOL    HW1 2517   0.296   2.019   2.513
  837SOL    HW2 2518   0.302   1.862   2.557
  838SOL     OW 2519   1.622   2.229   2.236
  838SOL    HW1 2520   1.624   2.153   2.300
  838SOL    HW2 2521   1.574   2.306   2.276
  839SOL     OW 2522   1.023   2.628   2.828
  839SOL    HW1 2523   1.038   2.649   2.924
  839SOL    HW2 2524   0.993   2.533   2.819
  840SOL     OW 2525   0.980   3.435   3.562
  840SOL    HW1 2526   0.960   3.479   3.474
  840SOL    HW2 2527   1.019   3.344   3.546
  841SOL     OW 2528   1.859   3.380   3.467
  841SOL    HW1 2529   1.873   3.407   3.372
  841SOL    HW2 2530   1.942   3.402   3.520
  842SOL     OW 2531   0.350   2.760   3.666
  842SOL    HW1 2532   0.426   2.804   3.714
  842SOL    HW2 2533   0.385   2.713   3.584
  843SOL     OW 2534   1.540   2.136   1.987
  843SOL    HW1 2535   1.479   2.061   2.010
  843SOL    HW2 2536   1.562   2.188   2.070
  844SOL     OW 2537   1.303   2.700   1.904
  844SOL    HW1 2538   1.337   2.607   1.919
  844SOL    HW2 2539   1.321   2.727   1.809
  845SOL     OW 2540   1.068   3.195   2.711
  845SOL    HW1 2541   1.075   3.111   2.656
  845SOL    HW2 2542   1.130   3.264   2.675
  846SOL     OW 2543   0.319   2.672   2.811
  846SOL    HW1 2544   0.412   2.708   2.816
  846SOL    HW2 2545   0.313   2.587   2.863
  847SOL     OW 2546   0.339   2.371   2.868
  847SOL    HW1 2547   0.287   2.288   2.851
  847SOL    HW2 2548   0.416   2.376   2.804
  848SOL     OW 2549   1.138   2.242   3.540
  848SOL    HW1 2550   1.093   2.305   3.604
  848SOL    HW2 2551   1.231   2.273   3.523
  849SOL     OW 2552   1.160   2.069   3.339
  849SOL    HW1 2553   1.160   2.133   3.416
  849SOL    HW2 2554   1.188   2.117   3.256
  850SOL     OW 2555   0.008   3.188   2.062
  850SOL    HW1 2556  -0.085   3.209   2.031
  850SOL    HW2 2557   0.018   3.089   2.075
  851SOL     OW 2558   0.088   3.663   2.789
  851SOL    HW1 2559   0.046   3.577   2.762
  851SOL    HW2 2560   0.182   3.666   2.755
  852SOL     OW 2561   0.504   3.430   2.772
  852SOL    HW1 2562   0.570   3.504   2.781
  852SOL    HW2 2563   0.548   3.351   2.730
  853SOL     OW 2564   1.002   2.658   3.100
  853SOL    HW1 2565   1.043   2.626   3.186
  853SOL    HW2 2566   0.906   2.631   3.097
  854SOL     OW 2567   0.040   2.406   2.976
  854SOL    HW1 2568   0.125   2.373   2.935
  854SOL    HW2 2569   0.053   2.421   3.074
  855SOL     OW 2570   0.189   2.382   3.584
  855SOL    HW1 2571   0.248   2.342   3.514
  855SOL    HW2 2572   0.131   2.453   3.543
  856SOL     OW 2573   1.369   2.812   3.522
  856SOL    HW1 2574   1.408   2.901   3.542
  856SOL    HW2 2575   1.379   2.792   3.425
  857SOL     OW 2576   0.815   2.434   2.187
  857SOL    HW1 2577   0.822   2.345   2.141
  857SOL    HW2 2578   0.721   2.468   2.179
  858SOL     OW 2579   1.657   2.466   3.068
  858SOL    HW1 2580   1.619   2.397   3.130
  858SOL    HW2 2581   1.739   2.430   3.024
  859SOL     OW 2582   0.252   3.426   3.606
  859SOL    HW1 2583   0.222   3.483   3.682
  859SOL    HW2 2584   0.245   3.329   3.632
  860SOL     OW 2585   0.671   2.326   3.131
  860SOL    HW1 2586   0.637   2.237   3.101
  860SOL    HW2 2587   0.697   2.380   3.051
  861SOL     OW 2588   0.930   3.540   3.327
  861SOL    HW1 2589   0.906   3.522   3.232
  861SOL    HW2 2590   0.960   3.634   3.337
  862SOL     OW 2591   0.473   2.362   2.053
  862SOL    HW1 2592   0.534   2.442   2.057
  862SOL    HW2 2593   0.378   2.393   2.060
  863SOL     OW 2594   0.159   2.999   3.328
  863SOL    HW1 2595   0.181   2.938   3.404
  863SOL    HW2 2596   0.169   2.950   3.242
  864SOL     OW 2597   1.347   2.921   3.096
  864SOL    HW1 2598   1.371   2.858   3.022
  864SOL    HW2 2599   1.257   2.961   3.078
  865SOL     OW 2600   1.302   2.717   2.171
  865SOL    HW1 2601   1.216   2.686   2.213
  865SOL    HW2 2602   1.298   2.703   2.072
  866SOL     OW 2603   1.759   3.609   3.016
  866SOL    HW1 2604   1.820   3.639   2.943
  866SOL    HW2 2605   1.721   3.520   2.994
  867SOL     OW 2606   1.252   3.593   2.990
  867SOL    HW1 2607   1.336   3.598   2.936
  867SOL    HW2 2608   1.229   3.497   3.008
  868SOL     OW 2609   0.083   3.120   2.884
  868SOL    HW1 2610   0.078   3.119   2.984
  868SOL    HW2 2611   0.000   3.079   2.846
  869SOL     OW 2612   0.688   3.524   3.578
  869SOL    HW1 2613   0.632   3.605   3.587
  869SOL    HW2 2614   0.740   3.528   3.492
  870SOL     OW 2615   1.726   1.997   2.385
  870SOL    HW1 2616   1.799   1.980   2.318
  870SOL    HW2 2617   1.695   1.910   2.423
  871SOL     OW 2618   1.388   3.435   2.339
  871SOL    HW1 2619   1.455   3.447   2.265
  871SOL    HW2 2620   1.348   3.524   2.362
  872SOL     OW 2621   0.130   3.656   3.713
  872SOL    HW1 2622   0.089   3.582   3.766
  872SOL    HW2 2623   0.194   3.707   3.771
  873SOL     OW 2624   1.280   2.789   2.534
  873SOL    HW1 2625   1.340   2.708   2.536
  873SOL    HW2 2626   1.320   2.858   2.474
  874SOL     OW 2627   0.830   3.135   3.284
  874SOL    HW1 2628   0.825   3.168   3.379
  874SOL    HW2 2629   0.744   3.154   3.238
  875SOL     OW 2630   0.672   3.478   2.016
  875SOL    HW1 2631   0.681   3.488   1.917
  875SOL    HW2 2632   0.632   3.389   2.037
  876SOL     OW 2633   1.650   3.582   3.256
  876SOL    HW1 2634   1.703   3.592   3.172
  876SOL    HW2 2635   1.623   3.672   3.290
  877SOL     OW 2636   1.841   2.037   2.825
  877SOL    HW1 2637   1.880   1.952   2.789
  877SOL    HW2 2638   1.743   2.039   2.806
  878SOL     OW 2639   0.263   2.188   2.582
  878SOL    HW1 2640   0.184   2.239   2.548
  878SOL    HW2 2641   0.254   2.173   2.680
  879SOL     OW 2642   1.194   3.474   1.893
  879SOL    HW1 2643   1.200   3.381   1.930
  879SOL    HW2 2644   1.135   3.474   1.813
  880SOL     OW 2645   0.822   2.864   3.234
  880SOL    HW1 2646   0.862   2.863   3.142
  880SOL    HW2 2647   0.832   2.956   3.274
  881SOL     OW 2648   0.916   2.772   2.153
  881SOL    HW1 2649   0.979   2.810   2.085
  881SOL    HW2 2650   0.956   2.689   2.192
  882SOL     OW 2651   1.504   3.469   1.906
  882SOL    HW1 2652   1.412   3.506   1.913
  882SOL    HW2 2653   1.542   3.489   1.816
  883SOL     OW 2654   0.372   3.150   3.352
  883SOL    HW1 2655   0.359   3.243   3.318
  883SOL    HW2 2656   0.288   3.098   3.339
  884SOL     OW 2657   1.614   3.154   3.151
  884SOL    HW1 2658   1.674   3.157   3.231
  884SOL    HW2 2659   1.539   3.218   3.164
  885SOL     OW 2660   1.039   2.960   2.558
  885SOL    HW1 2661   0.969   2.913   2.612
  885SOL    HW2 2662   1.098   2.892   2.515
  886SOL     OW 2663   1.014   2.098   2.833
  886SOL    HW1 2664   1.006   2.062   2.740
  886SOL    HW2 2665   1.012   2.022   2.898
  887SOL     OW 2666   0.590   3.349   2.353
  887SOL    HW1 2667   0.632   3.291   2.283
  887SOL    HW2 2668   0.546   3.428   2.309
  888SOL     OW 2669   1.709   2.247   3.243
  888SOL    HW1 2670   1.782   2.316   3.247
  888SOL    HW2 2671   1.737   2.172   3.184
  889SOL     OW 2672   0.255   3.210   2.152
  889SOL    HW1 2673   0.159   3.211   2.125
  889SOL    HW2 2674   0.267   3.263   2.236
  890SOL     OW 2675   0.105   2.875   3.588
  890SOL    HW1 2676   0.028   2.842   3.642
  890SOL    HW2 2677   0.190   2.845   3.630
  891SOL     OW 2678   0.672   2.065   3.351
  891SOL    HW1 2679   0.762   2.049   3.311
  891SOL    HW2 2680   0.680   2.070   3.450
  892SOL     OW 2681   0.075   2.207   1.895
  892SOL    HW1 2682  -0.017   2.179   1.866
  892SOL    HW2 2683   0.106   2.284   1.839
  893SOL     OW 2684   1.440   2.718   3.260
  893SOL    HW1 2685   1.383   2.770   3.197
  893SOL    HW2 2686   1.536   2.730   3.236
  894SOL     OW 2687   0.072   2.028   2.180
  894SOL    HW1 2688   0.055   2.111   2.126
  894SOL    HW2 2689   0.162   1.991   2.158
  895SOL     OW 2690   1.183   3.197   1.981
  895SOL    HW1 2691   1.084   3.186   1.983
  895SOL    HW2 2692   1.217   3.212   2.074
  896SOL     OW 2693   0.613   2.704   3.293
  896SOL    HW1 2694   0.669   2.785   3.276
  896SOL    HW2 2695   0.672   2.624   3.296
  897SOL     OW 2696   1.493   3.629   2.821
  897SOL    HW1 2697   1.526   3.693   2.752
  897SOL    HW2 2698   1.559   3.623   2.896
  898SOL     OW 2699   0.716   2.427   3.570
  898SOL    HW1 2700   0.735   2.492   3.644
  898SOL    HW2 2701   0.776   2.347   3.579
  899SOL     OW 2702   1.450   3.082   3.495
  899SOL    HW1 2703   1.441   3.072   3.594
  899SOL    HW2 2704   1.546   3.075   3.469
  900SOL     OW 2705   0.390   3.603   3.422
  900SOL    HW1 2706   0.299   3.644   3.420
  900SOL    HW2 2707   0.383   3.509   3.454
  901SOL     OW 2708   1.674   2.745   3.116
  901SOL    HW1 2709   1.647   2.656   3.079
  901SOL    HW2 2710   1.675   2.813   3.043
  902SOL     OW 2711   1.225   2.187   2.311
  902SOL    HW1 2712   1.290   2.113   2.300
  902SOL    HW2 2713   1.245   2.237   2.395
  903SOL     OW 2714   0.594   2.607   2.514
  903SOL    HW1 2715   0.644   2.692   2.495
  903SOL    HW2 2716   0.506   2.609   2.466
  904SOL     OW 2717   1.777   2.204   3.504
  904SOL    HW1 2718   1.760   2.235   3.410
  904SOL    HW2 2719   1.693   2.167   3.542
  905SOL     OW 2720   1.730   2.796   3.379
  905SOL    HW1 2721   1.768   2.887   3.394
  905SOL    HW2 2722   1.722   2.779   3.280
  906SOL     OW 2723   0.859   3.236   1.878
  906SOL    HW1 2724   0.813   3.251   1.966
  906SOL    HW2 2725   0.903   3.321   1.848
  907SOL     OW 2726   0.661   3.652   2.815
  907SOL    HW1 2727   0.615   3.740   2.802
  907SOL    HW2 2728   0.760   3.664   2.808
  908SOL     OW 2729   0.859   2.818   2.723
  908SOL    HW1 2730   0.913   2.749   2.771
  908SOL    HW2 2731   0.827   2.887   2.789
  909SOL     OW 2732   1.083   2.846   1.949
  909SOL    HW1 2733   1.060   2.899   1.867
  909SOL    HW2 2734   1.164   2.790   1.930
  910SOL     OW 2735   1.861   3.431   2.713
  910SOL    HW1 2736   1.790   3.419   2.643
  910SOL    HW2 2737   1.862   3.352   2.773
  911SOL     OW 2738   0.221   3.176   3.706
  911SOL    HW1 2739   0.156   3.103   3.685
  911SOL    HW2 2740   0.225   3.190   3.804
  912SOL     OW 2741   0.079   3.102   2.515
  912SOL    HW1 2742   0.078   3.055   2.603
  912SOL    HW2 2743   0.161   3.074   2.464
  913SOL     OW 2744   0.672   3.253   3.486
  913SOL    HW1 2745   0.594   3.203   3.524
  913SOL    HW2 2746   0.669   3.348   3.517
  914SOL     OW 2747   1.824   2.054   3.089
  914SOL    HW1 2748   1.820   1.964   3.133
  914SOL    HW2 2749   1.827   2.043   2.990
  915SOL     OW 2750   0.428   2.286   2.382
  915SOL    HW1 2751   0.458   2.214   2.320
  915SOL    HW2 2752   0.389   2.246   2.465
  916SOL     OW 2753   1.705   3.349   2.966
  916SOL    HW1 2754   1.612   3.324   2.939
  916SOL    HW2 2755   1.731   3.299   3.048
  917SOL     OW 2756   0.317   2.409   3.142
  917SOL    HW1 2757   0.355   2.350   3.214
  917SOL    HW2 2758   0.357   2.383   3.054
  918SOL     OW 2759   0.812   3.448   2.549
  918SOL    HW1 2760   0.844   3.458   2.455
  918SOL    HW2 2761   0.733   3.386   2.551
  919SOL     OW 2762   1.424   2.076   2.974
  919SOL    HW1 2763   1.476   2.011   3.029
  919SOL    HW2 2764   1.375   2.139   3.035
  920SOL     OW 2765   1.001   1.896   3.016
  920SOL    HW1 2766   0.938   1.824   2.985
  920SOL    HW2 2767   1.094   1.860   3.016
  921SOL     OW 2768   0.770   3.192   2.163
  921SOL    HW1 2769   0.724   3.105   2.180
  921SOL    HW2 2770   0.861   3.189   2.204
  922SOL     OW 2771   0.618   3.429   3.146
  922SOL    HW1 2772   0.613   3.511   3.203
  922SOL    HW2 2773   0.707   3.426   3.101
  923SOL     OW 2774   1.352   1.914   2.030
  923SOL    HW1 2775   1.387   1.873   1.946
  923SOL    HW2 2776   1.262   1.876   2.050
  924SOL     OW 2777   1.300   2.315   2.553
  924SOL    HW1 2778   1.241   2.395   2.557
  924SOL    HW2 2779   1.315   2.280   2.646
  925SOL     OW 2780   1.593   2.083   2.744
  925SOL    HW1 2781   1.509   2.082   2.798
  925SOL    HW2 2782   1.595   2.166   2.688
  926SOL     OW 2783   0.039   2.939   2.162
  926SOL    HW1 2784   0.138   2.928   2.153
  926SOL    HW2 2785  -0.001   2.853   2.194
  927SOL     OW 2786   0.875   3.508   2.199
  927SOL    HW1 2787   0.798   3.473   2.145
  927SOL    HW2 2788   0.843   3.579   2.261
  928SOL     OW 2789   0.230   2.490   3.837
  928SOL    HW1 2790   0.137   2.488   3.874
  928SOL    HW2 2791   0.231   2.451   3.745
  929SOL     OW 2792   1.755   2.469   3.955
  929SOL    HW1 2793   1.743   2.456   3.856
  929SOL    HW2 2794   1.725   2.388   4.004
  930SOL     OW 2795   0.231   3.575   4.207
  930SOL    HW1 2796   0.265   3.652   4.261
  930SOL    HW2 2797   0.275   3.575   4.117
  931SOL     OW 2798   0.230   3.296   4.262
  931SOL    HW1 2799   0.204   3.392   4.262
  931SOL    HW2 2800   0.159   3.242   4.307
  932SOL     OW 2801   0.606   2.826   3.847
  932SOL    HW1 2802   0.613   2.910   3.793
  932SOL    HW2 2803   0.652   2.839   3.935
  933SOL     OW 2804   0.122   2.505   4.287
  933SOL    HW1 2805   0.077   2.417   4.304
  933SOL    HW2 2806   0.121   2.559   4.371
  934SOL     OW 2807   1.842   3.629   4.083
  934SOL    HW1 2808   1.896   3.600   4.163
  934SOL    HW2 2809   1.872   3.719   4.054
  935SOL     OW 2810   0.027   3.458   3.841
  935SOL    HW1 2811   0.008   3.362   3.862
  935SOL    HW2 2812  -0.006   3.516   3.916
  936SOL     OW 2813   1.689   2.784   4.336
  936SOL    HW1 2814   1.784   2.755   4.344
  936SOL    HW2 2815   1.681   2.849   4.261
  937SOL     OW 2816   1.641   2.970   4.156
  937SOL    HW1 2817   1.727   2.972   4.104
  937SOL    HW2 2818   1.655   3.017   4.244
  938SOL     OW 2819   0.613   3.227   4.450
  938SOL    HW1 2820   0.564   3.140   4.459
  938SOL    HW2 2821   0.590   3.270   4.363
  939SOL     OW 2822   0.809   1.866   4.226
  939SOL    HW1 2823   0.849   1.957   4.217
  939SOL    HW2 2824   0.709   1.874   4.232
  940SOL     OW 2825   1.525   2.861   3.914
  940SOL    HW1 2826   1.462   2.785   3.927
  940SOL    HW2 2827   1.573   2.879   4.000
  941SOL     OW 2828   1.466   3.279   4.677
  941SOL    HW1 2829   1.407   3.285   4.757
  941SOL    HW2 2830   1.451   3.191   4.631
  942SOL     OW 2831   0.598   2.591   3.994
  942SOL    HW1 2832   0.622   2.660   3.926
  942SOL    HW2 2833   0.520   2.624   4.048
  943SOL     OW 2834   1.576   3.524   4.031
  943SOL    HW1 2835   1.665   3.570   4.034
  943SOL    HW2 2836   1.555   3.500   3.936
  944SOL     OW 2837   1.041   2.563   4.153
  944SOL    HW1 2838   1.067   2.559   4.249
  944SOL    HW2 2839   0.956   2.512   4.139
  945SOL     OW 2840   0.076   2.673   4.513
  945SOL    HW1 2841   0.175   2.661   4.522
  945SOL    HW2 2842   0.052   2.768   4.534
  946SOL     OW 2843   0.865   2.210   3.919
  946SOL    HW1 2844   0.924   2.273   3.870
  946SOL    HW2 2845   0.884   2.116   3.890
  947SOL     OW 2846   1.362   3.006   4.269
  947SOL    HW1 2847   1.445   2.977   4.221
  947SOL    HW2 2848   1.313   3.073   4.213
  948SOL     OW 2849   1.008   3.318   4.201
  948SOL    HW1 2850   0.962   3.390   4.149
  948SOL    HW2 2851   1.004   3.338   4.299
  949SOL     OW 2852   0.351   3.663   4.577
  949SOL    HW1 2853   0.401   3.577   4.583
  949SOL    HW2 2854   0.416   3.740   4.574
  950SOL     OW 2855   0.321   2.805   3.966
  950SOL    HW1 2856   0.403   2.844   3.924
  950SOL    HW2 2857   0.294   2.723   3.917
  951SOL     OW 2858   1.111   3.638   3.961
  951SOL    HW1 2859   1.051   3.576   4.011
  951SOL    HW2 2860   1.142   3.594   3.876
  952SOL     OW 2861   1.632   3.239   3.805
  952SOL    HW1 2862   1.600   3.333   3.795
  952SOL    HW2 2863   1.556   3.176   3.793
  953SOL     OW 2864   0.464   3.605   4.047
  953SOL    HW1 2865   0.497   3.644   4.133
  953SOL    HW2 2866   0.540   3.598   3.982
  954SOL     OW 2867   1.400   1.969   4.150
  954SOL    HW1 2868   1.376   1.932   4.060
  954SOL    HW2 2869   1.499   1.985   4.154
  955SOL     OW 2870   0.382   2.562   4.204
  955SOL    HW1 2871   0.427   2.472   4.201
  955SOL    HW2 2872   0.288   2.551   4.237
  956SOL     OW 2873   0.614   1.984   3.841
  956SOL    HW1 2874   0.712   1.962   3.848
  956SOL    HW2 2875   0.583   1.967   3.748
  957SOL     OW 2876   0.539   1.926   4.236
  957SOL    HW1 2877   0.458   1.927   4.294
  957SOL    HW2 2878   0.542   2.009   4.181
  958SOL     OW 2879   1.434   3.050   3.765
  958SOL    HW1 2880   1.466   2.974   3.822
  958SOL    HW2 2881   1.342   3.077   3.795
  959SOL     OW 2882   0.297   1.897   3.895
  959SOL    HW1 2883   0.346   1.981   3.874
  959SOL    HW2 2884   0.359   1.832   3.940
  960SOL     OW 2885   0.935   2.098   4.204
  960SOL    HW1 2886   0.887   2.139   4.126
  960SOL    HW2 2887   1.034   2.096   4.185
  961SOL     OW 2888   0.459   3.014   4.465
  961SOL    HW1 2889   0.388   2.987   4.530
  961SOL    HW2 2890   0.433   2.986   4.372
  962SOL     OW 2891   1.271   3.659   4.315
  962SOL    HW1 2892   1.315   3.723   4.251
  962SOL    HW2 2893   1.221   3.711   4.385
  963SOL     OW 2894   1.032   2.411   3.740
  963SOL    HW1 2895   0.991   2.493   3.701
  963SOL    HW2 2896   1.096   2.437   3.813
  964SOL     OW 2897   0.866   2.316   4.366
  964SOL    HW1 2898   0.834   2.388   4.304
  964SOL    HW2 2899   0.890   2.235   4.313
  965SOL     OW 2900   1.857   2.695   4.101
  965SOL    HW1 2901   1.899   2.631   4.165
  965SOL    HW2 2902   1.819   2.644   4.023
  966SOL     OW 2903   0.488   3.247   3.898
  966SOL    HW1 2904   0.401   3.232   3.945
  966SOL    HW2 2905   0.471   3.273   3.803
  967SOL     OW 2906   1.390   2.437   3.802
  967SOL    HW1 2907   1.336   2.416   3.883
  967SOL    HW2 2908   1.481   2.396   3.811
  968SOL     OW 2909   0.527   2.118   4.052
  968SOL    HW1 2910   0.554   2.059   3.977
  968SOL    HW2 2911   0.527   2.213   4.021
  969SOL     OW 2912   0.705   2.912   4.092
  969SOL    HW1 2913   0.691   2.919   4.191
  969SOL    HW2 2914   0.789   2.861   4.074
  970SOL     OW 2915   0.367   2.962   4.225
  970SOL    HW1 2916   0.360   3.045   4.169
  970SOL    HW2 2917   0.371   2.882   4.165
  971SOL     OW 2918   1.252   3.210   4.112
  971SOL    HW1 2919   1.302   3.287   4.152
  971SOL    HW2 2920   1.157   3.212   4.144
  972SOL     OW 2921   1.582   2.501   4.196
  972SOL    HW1 2922   1.551   2.562   4.269
  972SOL    HW2 2923   1.632   2.553   4.127
  973SOL     OW 2924   1.209   2.387   3.999
  973SOL    HW1 2925   1.222   2.303   4.053
  973SOL    HW2 2926   1.180   2.461   4.059
  974SOL     OW 2927   0.307   1.925   4.342
  974SOL    HW1 2928   0.296   2.019   4.375
  974SOL    HW2 2929   0.302   1.862   4.419
  975SOL     OW 2930   1.622   2.229   4.098
  975SOL    HW1 2931   1.624   2.153   4.162
  975SOL    HW2 2932   1.574   2.306   4.138
  976SOL     OW 2933   1.540   2.136   3.849
  976SOL    HW1 2934   1.479   2.061   3.872
  976SOL    HW2 2935   1.562   2.188   3.932
  977SOL     OW 2936   1.303   2.700   3.766
  977SOL    HW1 2937   1.337   2.607   3.781
  977SOL    HW2 2938   1.321   2.727   3.671
  978SOL     OW 2939   0.008   3.188   3.924
  978SOL    HW1 2940  -0.085   3.209   3.893
  978SOL    HW2 2941   0.018   3.089   3.937
  979SOL     OW 2942   0.815   2.434   4.049
  979SOL    HW1 2943   0.822   2.345   4.003
  979SOL    HW2 2944   0.721   2.468   4.041
  980SOL     OW 2945   0.473   2.362   3.915
  980SOL    HW1 2946   0.534   2.442   3.919
  980SOL    HW2 2947   0.378   2.393   3.922
  981SOL     OW 2948   1.302   2.717   4.033
  981SOL    HW1 2949   1.216   2.686   4.075
  981SOL    HW2 2950   1.298   2.703   3.934
  982SOL     OW 2951   1.726   1.997   4.247
  982SOL    HW1 2952   1.799   1.980   4.180
  982SOL    HW2 2953   1.695   1.910   4.285
  983SOL     OW 2954   1.388   3.435   4.201
  983SOL    HW1 2955   1.455   3.447   4.127
  983SOL    HW2 2956   1.348   3.524   4.224
  984SOL     OW 2957   0.672   3.478   3.878
  984SOL    HW1 2958   0.681   3.488   3.779
  984SOL    HW2 2959   0.632   3.389   3.899
  985SOL     OW 2960   1.841   2.037   4.687
  985SOL    HW1 2961   1.880   1.952   4.651
  985SOL    HW2 2962   1.743   2.039   4.668
  986SOL     OW 2963   1.194   3.474   3.755
  986SOL    HW1 2964   1.200   3.381   3.792
  986SOL    HW2 2965   1.135   3.474   3.675
  987SOL     OW 2966   0.916   2.772   4.015
  987SOL    HW1 2967   0.979   2.810   3.947
  987SOL    HW2 2968   0.956   2.689   4.054
  988SOL     OW 2969   1.504   3.469   3.768
  988SOL    HW1 2970   1.412   3.506   3.775
  988SOL    HW2 2971   1.542   3.489   3.678
  989SOL     OW 2972   0.590   3.349   4.215
  989SOL    HW1 2973   0.632   3.291   4.145
  989SOL    HW2 2974   0.546   3.428   4.171
  990SOL     OW 2975   0.255   3.210   4.014
  990SOL    HW1 2976   0.159   3.211   3.987
  990SOL    HW2 2977   0.267   3.263   4.098
  991SOL     OW 2978   0.075   2.207   3.757
  991SOL    HW1 2979  -0.017   2.179   3.728
  991SOL    HW2 2980   0.106   2.284   3.701
  992SOL     OW 2981   0.072   2.028   4.042
  992SOL    HW1 2982   0.055   2.111   3.988
  992SOL    HW2 2983   0.162   1.991   4.020
  993SOL     OW 2984   1.183   3.197   3.843
  993SOL    HW1 2985   1.084   3.186   3.845
  993SOL    HW2 2986   1.217   3.212   3.936
  994SOL     OW 2987   1.225   2.187   4.173
  994SOL    HW1 2988   1.290   2.113   4.162
  994SOL    HW2 2989   1.245   2.237   4.257
  995SOL     OW 2990   0.594   2.607   4.376
  995SOL    HW1 2991   0.644   2.692   4.357
  995SOL    HW2 2992   0.506   2.609   4.328
  996SOL     OW 2993   0.859   3.236   3.740
  996SOL    HW1 2994   0.813   3.251   3.828
  996SOL    HW2 2995   0.903   3.321   3.710
  997SOL     OW 2996   1.083   2.846   3.811
  997SOL    HW1 2997   1.060   2.899   3.729
  997SOL    HW2 2998   1.164   2.790   3.792
  998SOL     OW 2999   0.079   3.102   4.377
  998SOL    HW1 3000   0.078   3.055   4.465
  998SOL    HW2 3001   0.161   3.074   4.326
  999SOL     OW 3002   0.428   2.286   4.244
  999SOL    HW1 3003   0.458   2.214   4.182
  999SOL    HW2 3004   0.389   2.246   4.327
 1000SOL     OW 3005   0.770   3.192   4.025
 1000SOL    HW1 3006   0.724   3.105   4.042
 1000SOL    HW2 3007   0.861   3.189   4.066
 1001SOL     OW 3008   1.352   1.914   3.892
 1001SOL    HW1 3009   1.387   1.873   3.808
 1001SOL    HW2 3010   1.262   1.876   3.912
 1002SOL     OW 3011   1.300   2.315   4.415
 1002SOL    HW1 3012   1.241   2.395   4.419
 1002SOL    HW2 3013   1.315   2.280   4.508
 1003SOL     OW 3014   0.039   2.939   4.024
 1003SOL    HW1 3015   0.138   2.928   4.015
 1003SOL    HW2 3016  -0.001   2.853   4.056
 1004SOL     OW 3017   0.875   3.508   4.061
 1004SOL    HW1 3018   0.798   3.473   4.007
 1004SOL    HW2 3019   0.843   3.579   4.123
 1005SOL     OW 3020   0.225   3.999   0.996
 1005SOL    HW1 3021   0.260   3.982   1.088
 1005SOL    HW2 3022   0.137   3.954   0.984
 1006SOL     OW 3023   0.019   4.092   0.647
 1006SOL    HW1 3024  -0.063   4.135   0.686
 1006SOL    HW2 3025  -0.009   4.019   0.584
 1007SOL     OW 3026   1.755   4.331   0.231
 1007SOL    HW1 3027   1.743   4.318   0.132
 1007SOL    HW2 3028   1.725   4.250   0.280
 1008SOL     OW 3029   0.438   4.116   1.499
 1008SOL    HW1 3030   0.520   4.060   1.508
 1008SOL    HW2 3031   0.357   4.058   1.503
 1009SOL     OW 3032   1.603   4.171   0.737
 1009SOL    HW1 3033   1.529   4.217   0.687
 1009SOL    HW2 3034   1.654   4.239   0.790
 1010SOL     OW 3035   1.594   3.838   1.480
 1010SOL    HW1 3036   1.576   3.905   1.408
 1010SOL    HW2 3037   1.591   3.884   1.569
 1011SOL     OW 3038   0.122   4.367   0.563
 1011SOL    HW1 3039   0.077   4.279   0.580
 1011SOL    HW2 3040   0.121   4.421   0.647
 1012SOL     OW 3041   0.113   4.461   1.597
 1012SOL    HW1 3042   0.201   4.448   1.642
 1012SOL    HW2 3043   0.100   4.558   1.575
 1013SOL     OW 3044   0.809   3.728   0.502
 1013SOL    HW1 3045   0.849   3.819   0.493
 1013SOL    HW2 3046   0.709   3.736   0.508
 1014SOL     OW 3047   0.317   3.975   1.801
 1014SOL    HW1 3048   0.388   4.046   1.807
 1014SOL    HW2 3049   0.229   4.014   1.829
 1015SOL     OW 3050   1.281   4.069   0.944
 1015SOL    HW1 3051   1.195   4.019   0.931
 1015SOL    HW2 3052   1.343   4.015   1.000
 1016SOL     OW 3053   0.807   4.329   1.465
 1016SOL    HW1 3054   0.760   4.326   1.554
 1016SOL    HW2 3055   0.756   4.274   1.399
 1017SOL     OW 3056   1.394   4.193   1.674
 1017SOL    HW1 3057   1.374   4.236   1.762
 1017SOL    HW2 3058   1.472   4.131   1.683
 1018SOL     OW 3059   0.991   4.134   1.242
 1018SOL    HW1 3060   0.914   4.168   1.296
 1018SOL    HW2 3061   0.957   4.083   1.163
 1019SOL     OW 3062   1.041   4.425   0.429
 1019SOL    HW1 3063   1.067   4.421   0.525
 1019SOL    HW2 3064   0.956   4.374   0.415
 1020SOL     OW 3065   0.076   4.535   0.789
 1020SOL    HW1 3066   0.175   4.523   0.798
 1020SOL    HW2 3067   0.052   4.630   0.810
 1021SOL     OW 3068   0.865   4.072   0.195
 1021SOL    HW1 3069   0.924   4.135   0.146
 1021SOL    HW2 3070   0.884   3.978   0.166
 1022SOL     OW 3071   1.719   4.309   1.831
 1022SOL    HW1 3072   1.693   4.398   1.795
 1022SOL    HW2 3073   1.717   4.241   1.758
 1023SOL     OW 3074   0.550   3.920   0.885
 1023SOL    HW1 3075   0.545   3.915   0.985
 1023SOL    HW2 3076   0.552   4.016   0.856
 1024SOL     OW 3077   1.458   4.459   0.728
 1024SOL    HW1 3078   1.453   4.394   0.803
 1024SOL    HW2 3079   1.538   4.518   0.741
 1025SOL     OW 3080   0.202   4.009   1.498
 1025SOL    HW1 3081   0.122   4.069   1.485
 1025SOL    HW2 3082   0.192   3.960   1.584
 1026SOL     OW 3083   1.400   3.831   0.426
 1026SOL    HW1 3084   1.376   3.794   0.336
 1026SOL    HW2 3085   1.499   3.847   0.430
 1027SOL     OW 3086   1.547   3.946   1.729
 1027SOL    HW1 3087   1.542   3.983   1.821
 1027SOL    HW2 3088   1.475   3.877   1.717
 1028SOL     OW 3089   0.614   3.846   0.117
 1028SOL    HW1 3090   0.712   3.824   0.124
 1028SOL    HW2 3091   0.583   3.829   0.024
 1029SOL     OW 3092   0.781   3.988   1.749
 1029SOL    HW1 3093   0.848   3.927   1.792
 1029SOL    HW2 3094   0.708   4.007   1.814
 1030SOL     OW 3095   1.351   4.314   1.433
 1030SOL    HW1 3096   1.379   4.271   1.518
 1030SOL    HW2 3097   1.376   4.410   1.434
 1031SOL     OW 3098   0.922   4.227   0.899
 1031SOL    HW1 3099   0.897   4.218   0.803
 1031SOL    HW2 3100   0.970   4.145   0.930
 1032SOL     OW 3101   0.539   3.788   0.512
 1032SOL    HW1 3102   0.458   3.789   0.570
 1032SOL    HW2 3103   0.542   3.871   0.457
 1033SOL     OW 3104   0.935   3.960   0.480
 1033SOL    HW1 3105   0.887   4.001   0.402
 1033SOL    HW2 3106   1.034   3.958   0.461
 1034SOL     OW 3107   1.076   4.407   1.464
 1034SOL    HW1 3108   0.996   4.346   1.467
 1034SOL    HW2 3109   1.157   4.354   1.440
 1035SOL     OW 3110   1.032   4.273   0.016
 1035SOL    HW1 3111   0.991   4.355  -0.023
 1035SOL    HW2 3112   1.096   4.299   0.089
 1036SOL     OW 3113   0.078   4.280   1.386
 1036SOL    HW1 3114   0.170   4.279   1.345
 1036SOL    HW2 3115   0.072   4.354   1.453
 1037SOL     OW 3116   0.561   3.946   1.147
 1037SOL    HW1 3117   0.599   3.862   1.184
 1037SOL    HW2 3118   0.473   3.965   1.191
 1038SOL     OW 3119   0.866   4.178   0.642
 1038SOL    HW1 3120   0.834   4.250   0.580
 1038SOL    HW2 3121   0.890   4.097   0.589
 1039SOL     OW 3122   1.017   3.763   0.753
 1039SOL    HW1 3123   0.945   3.768   0.684
 1039SOL    HW2 3124   0.993   3.694   0.822
 1040SOL     OW 3125   1.466   4.314   0.992
 1040SOL    HW1 3126   1.436   4.219   0.999
 1040SOL    HW2 3127   1.539   4.330   1.058
 1041SOL     OW 3128   0.527   3.980   0.328
 1041SOL    HW1 3129   0.554   3.921   0.253
 1041SOL    HW2 3130   0.527   4.075   0.297
 1042SOL     OW 3131   0.915   3.813   1.402
 1042SOL    HW1 3132   0.940   3.793   1.307
 1042SOL    HW2 3133   0.987   3.869   1.444
 1043SOL     OW 3134   1.274   4.110   1.262
 1043SOL    HW1 3135   1.295   4.184   1.326
 1043SOL    HW2 3136   1.185   4.127   1.219
 1044SOL     OW 3137   0.566   4.261   0.865
 1044SOL    HW1 3138   0.578   4.327   0.791
 1044SOL    HW2 3139   0.612   4.295   0.948
 1045SOL     OW 3140   1.582   4.363   0.472
 1045SOL    HW1 3141   1.551   4.424   0.545
 1045SOL    HW2 3142   1.632   4.415   0.403
 1046SOL     OW 3143   1.013   3.829   1.770
 1046SOL    HW1 3144   1.019   3.914   1.718
 1046SOL    HW2 3145   1.045   3.753   1.713
 1047SOL     OW 3146   0.504   3.774   1.740
 1047SOL    HW1 3147   0.462   3.717   1.670
 1047SOL    HW2 3148   0.438   3.843   1.772
 1048SOL     OW 3149   1.209   4.249   0.275
 1048SOL    HW1 3150   1.222   4.165   0.329
 1048SOL    HW2 3151   1.180   4.323   0.335
 1049SOL     OW 3152   0.307   3.937   1.231
 1049SOL    HW1 3153   0.284   3.974   1.321
 1049SOL    HW2 3154   0.277   3.842   1.225
 1050SOL     OW 3155   0.732   4.358   1.064
 1050SOL    HW1 3156   0.791   4.332   0.988
 1050SOL    HW2 3157   0.704   4.454   1.053
 1051SOL     OW 3158   0.307   3.787   0.618
 1051SOL    HW1 3159   0.296   3.881   0.651
 1051SOL    HW2 3160   0.302   3.724   0.695
 1052SOL     OW 3161   1.622   4.091   0.374
 1052SOL    HW1 3162   1.624   4.015   0.438
 1052SOL    HW2 3163   1.574   4.168   0.414
 1053SOL     OW 3164   1.540   3.998   0.125
 1053SOL    HW1 3165   1.479   3.923   0.148
 1053SOL    HW2 3166   1.562   4.050   0.208
 1054SOL     OW 3167   0.319   4.534   0.949
 1054SOL    HW1 3168   0.412   4.570   0.954
 1054SOL    HW2 3169   0.313   4.449   1.001
 1055SOL     OW 3170   0.339   4.233   1.006
 1055SOL    HW1 3171   0.287   4.150   0.989
 1055SOL    HW2 3172   0.416   4.238   0.942
 1056SOL     OW 3173   1.138   4.104   1.678
 1056SOL    HW1 3174   1.093   4.167   1.742
 1056SOL    HW2 3175   1.231   4.135   1.661
 1057SOL     OW 3176   1.160   3.931   1.477
 1057SOL    HW1 3177   1.160   3.995   1.554
 1057SOL    HW2 3178   1.188   3.979   1.394
 1058SOL     OW 3179   0.040   4.268   1.114
 1058SOL    HW1 3180   0.125   4.235   1.073
 1058SOL    HW2 3181   0.053   4.283   1.212
 1059SOL     OW 3182   0.189   4.244   1.722
 1059SOL    HW1 3183   0.248   4.204   1.652
 1059SOL    HW2 3184   0.131   4.315   1.681
 1060SOL     OW 3185   0.815   4.296   0.325
 1060SOL    HW1 3186   0.822   4.207   0.279
 1060SOL    HW2 3187   0.721   4.330   0.317
 1061SOL     OW 3188   1.657   4.328   1.206
 1061SOL    HW1 3189   1.619   4.259   1.268
 1061SOL    HW2 3190   1.739   4.292   1.162
 1062SOL     OW 3191   0.671   4.188   1.269
 1062SOL    HW1 3192   0.637   4.099   1.239
 1062SOL    HW2 3193   0.697   4.242   1.189
 1063SOL     OW 3194   0.473   4.224   0.191
 1063SOL    HW1 3195   0.534   4.304   0.195
 1063SOL    HW2 3196   0.378   4.255   0.198
 1064SOL     OW 3197   0.903   3.810   0.133
 1064SOL    HW1 3198   0.954   3.811   0.047
 1064SOL    HW2 3199   0.959   3.768   0.204
 1065SOL     OW 3200   1.726   3.859   0.523
 1065SOL    HW1 3201   1.799   3.842   0.456
 1065SOL    HW2 3202   1.695   3.772   0.561
 1066SOL     OW 3203   1.280   4.651   0.672
 1066SOL    HW1 3204   1.340   4.570   0.674
 1066SOL    HW2 3205   1.320   4.720   0.612
 1067SOL     OW 3206   1.841   3.899   0.963
 1067SOL    HW1 3207   1.880   3.814   0.927
 1067SOL    HW2 3208   1.743   3.901   0.944
 1068SOL     OW 3209   0.263   4.050   0.720
 1068SOL    HW1 3210   0.184   4.101   0.686
 1068SOL    HW2 3211   0.254   4.035   0.818
 1069SOL     OW 3212   1.014   3.960   0.971
 1069SOL    HW1 3213   1.006   3.924   0.878
 1069SOL    HW2 3214   1.012   3.884   1.036
 1070SOL     OW 3215   1.709   4.109   1.381
 1070SOL    HW1 3216   1.782   4.178   1.385
 1070SOL    HW2 3217   1.737   4.034   1.322
 1071SOL     OW 3218   0.672   3.927   1.489
 1071SOL    HW1 3219   0.762   3.911   1.449
 1071SOL    HW2 3220   0.680   3.932   1.588
 1072SOL     OW 3221   0.075   4.069   0.033
 1072SOL    HW1 3222  -0.017   4.041   0.004
 1072SOL    HW2 3223   0.106   4.146  -0.023
 1073SOL     OW 3224   0.072   3.890   0.318
 1073SOL    HW1 3225   0.055   3.973   0.264
 1073SOL    HW2 3226   0.162   3.853   0.296
 1074SOL     OW 3227   0.716   4.289   1.708
 1074SOL    HW1 3228   0.735   4.354   1.782
 1074SOL    HW2 3229   0.776   4.209   1.717
 1075SOL     OW 3230   1.225   4.049   0.449
 1075SOL    HW1 3231   1.290   3.975   0.438
 1075SOL    HW2 3232   1.245   4.099   0.533
 1076SOL     OW 3233   1.777   4.066   1.642
 1076SOL    HW1 3234   1.760   4.097   1.548
 1076SOL    HW2 3235   1.693   4.029   1.680
 1077SOL     OW 3236   1.083   4.708   0.087
 1077SOL    HW1 3237   1.060   4.761   0.005
 1077SOL    HW2 3238   1.164   4.652   0.068
 1078SOL     OW 3239   1.824   3.916   1.227
 1078SOL    HW1 3240   1.820   3.826   1.271
 1078SOL    HW2 3241   1.827   3.905   1.128
 1079SOL     OW 3242   0.428   4.148   0.520
 1079SOL    HW1 3243   0.458   4.076   0.458
 1079SOL    HW2 3244   0.389   4.108   0.603
 1080SOL     OW 3245   0.317   4.271   1.280
 1080SOL    HW1 3246   0.355   4.212   1.352
 1080SOL    HW2 3247   0.357   4.245   1.192
 1081SOL     OW 3248   1.424   3.938   1.112
 1081SOL    HW1 3249   1.476   3.873   1.167
 1081SOL    HW2 3250   1.375   4.001   1.173
 1082SOL     OW 3251   1.001   3.758   1.154
 1082SOL    HW1 3252   0.938   3.686   1.123
 1082SOL    HW2 3253   1.094   3.722   1.154
 1083SOL     OW 3254   1.352   3.776   0.168
 1083SOL    HW1 3255   1.387   3.735   0.084
 1083SOL    HW2 3256   1.262   3.738   0.188
 1084SOL     OW 3257   1.300   4.177   0.691
 1084SOL    HW1 3258   1.241   4.257   0.695
 1084SOL    HW2 3259   1.315   4.142   0.784
 1085SOL     OW 3260   1.593   3.945   0.882
 1085SOL    HW1 3261   1.509   3.944   0.936
 1085SOL    HW2 3262   1.595   4.028   0.826
 1086SOL     OW 3263   0.225   3.999   2.858
 1086SOL    HW1 3264   0.260   3.982   2.950
 1086SOL    HW2 3265   0.137   3.954   2.846
 1087SOL     OW 3266   0.019   4.092   2.509
 1087SOL    HW1 3267  -0.063   4.135   2.548
 1087SOL    HW2 3268  -0.009   4.019   2.446
 1088SOL     OW 3269   1.755   4.331   2.093
 1088SOL    HW1 3270   1.743   4.318   1.994
 1088SOL    HW2 3271   1.725   4.250   2.142
 1089SOL     OW 3272   0.438   4.116   3.361
 1089SOL    HW1 3273   0.520   4.060   3.370
 1089SOL    HW2 3274   0.357   4.058   3.365
 1090SOL     OW 3275   1.603   4.171   2.599
 1090SOL    HW1 3276   1.529   4.217   2.549
 1090SOL    HW2 3277   1.654   4.239   2.652
 1091SOL     OW 3278   1.594   3.838   3.342
 1091SOL    HW1 3279   1.576   3.905   3.270
 1091SOL    HW2 3280   1.591   3.884   3.431
 1092SOL     OW 3281   0.122   4.367   2.425
 1092SOL    HW1 3282   0.077   4.279   2.442
 1092SOL    HW2 3283   0.121   4.421   2.509
 1093SOL     OW 3284   0.113   4.461   3.459
 1093SOL    HW1 3285   0.201   4.448   3.504
 1093SOL    HW2 3286   0.100   4.558   3.437
 1094SOL     OW 3287   0.809   3.728   2.364
 1094SOL    HW1 3288   0.849   3.819   2.355
 1094SOL    HW2 3289   0.709   3.736   2.370
 1095SOL     OW 3290   0.317   3.975   3.663
 1095SOL    HW1 3291   0.388   4.046   3.669
 1095SOL    HW2 3292   0.229   4.014   3.691
 1096SOL     OW 3293   1.281   4.069   2.806
 1096SOL    HW1 3294   1.195   4.019   2.793
 1096SOL    HW2 3295   1.343   4.015   2.862
 1097SOL     OW 3296   0.807   4.329   3.327
 1097SOL    HW1 3297   0.760   4.326   3.416
 1097SOL    HW2 3298   0.756   4.274   3.261
 1098SOL     OW 3299   1.394   4.193   3.536
 1098SOL    HW1 3300   1.374   4.236   3.624
 1098SOL    HW2 3301   1.472   4.131   3.545
 1099SOL     OW 3302   0.991   4.134   3.104
 1099SOL    HW1 3303   0.914   4.168   3.158
 1099SOL    HW2 3304   0.957   4.083   3.025
 1100SOL     OW 3305   1.041   4.425   2.291
 1100SOL    HW1 3306   1.067   4.421   2.387
 1100SOL    HW2 3307   0.956   4.374   2.277
 1101SOL     OW 3308   0.076   4.535   2.651
 1101SOL    HW1 3309   0.175   4.523   2.660
 1101SOL    HW2 3310   0.052   4.630   2.672
 1102SOL     OW 3311   0.865   4.072   2.057
 1102SOL    HW1 3312   0.924   4.135   2.008
 1102SOL    HW2 3313   0.884   3.978   2.028
 1103SOL     OW 3314   1.719   4.309   3.693
 1103SOL    HW1 3315   1.693   4.398   3.657
 1103SOL    HW2 3316   1.717   4.241   3.620
 1104SOL     OW 3317   0.550   3.920   2.747
 1104SOL    HW1 3318   0.545   3.915   2.847
 1104SOL    HW2 3319   0.552   4.016   2.718
 1105SOL     OW 3320   1.458   4.459   2.590
 1105SOL    HW1 3321   1.453   4.394   2.665
 1105SOL    HW2 3322   1.538   4.518   2.603
 1106SOL     OW 3323   0.202   4.009   3.360
 1106SOL    HW1 3324   0.122   4.069   3.347
 1106SOL    HW2 3325   0.192   3.960   3.446
 1107SOL     OW 3326   1.400   3.831   2.288
 1107SOL    HW1 3327   1.376   3.794   2.198
 1107SOL    HW2 3328   1.499   3.847   2.292
 1108SOL     OW 3329   1.547   3.946   3.591
 1108SOL    HW1 3330   1.542   3.983   3.683
 1108SOL    HW2 3331   1.475   3.877   3.579
 1109SOL     OW 3332   0.614   3.846   1.979
 1109SOL    HW1 3333   0.712   3.824   1.986
 1109SOL    HW2 3334   0.583   3.829   1.886
 1110SOL     OW 3335   0.781   3.988   3.611
 1110SOL    HW1 3336   0.848   3.927   3.654
 1110SOL    HW2 3337   0.708   4.007   3.676
 1111SOL     OW 3338   1.351   4.314   3.295
 1111SOL    HW1 3339   1.379   4.271   3.380
 1111SOL    HW2 3340   1.376   4.410   3.296
 1112SOL     OW 3341   0.922   4.227   2.761
 1112SOL    HW1 3342   0.897   4.218   2.665
 1112SOL    HW2 3343   0.970   4.145   2.792
 1113SOL     OW 3344   0.539   3.788   2.374
 1113SOL    HW1 3345   0.458   3.789   2.432
 1113SOL    HW2 3346   0.542   3.871   2.319
 1114SOL     OW 3347   0.297   3.759   2.033
 1114SOL    HW1 3348   0.346   3.843   2.012
 1114SOL    HW2 3349   0.359   3.694   2.078
 1115SOL     OW 3350   0.935   3.960   2.342
 1115SOL    HW1 3351   0.887   4.001   2.264
 1115SOL    HW2 3352   1.034   3.958   2.323
 1116SOL     OW 3353   1.076   4.407   3.326
 1116SOL    HW1 3354   0.996   4.346   3.329
 1116SOL    HW2 3355   1.157   4.354   3.302
 1117SOL     OW 3356   1.032   4.273   1.878
 1117SOL    HW1 3357   0.991   4.355   1.839
 1117SOL    HW2 3358   1.096   4.299   1.951
 1118SOL     OW 3359   0.078   4.280   3.248
 1118SOL    HW1 3360   0.170   4.279   3.207
 1118SOL    HW2 3361   0.072   4.354   3.315
 1119SOL     OW 3362   0.561   3.946   3.009
 1119SOL    HW1 3363   0.599   3.862   3.046
 1119SOL    HW2 3364   0.473   3.965   3.053
 1120SOL     OW 3365   0.866   4.178   2.504
 1120SOL    HW1 3366   0.834   4.250   2.442
 1120SOL    HW2 3367   0.890   4.097   2.451
 1121SOL     OW 3368   1.017   3.763   2.615
 1121SOL    HW1 3369   0.945   3.768   2.546
 1121SOL    HW2 3370   0.993   3.694   2.684
 1122SOL     OW 3371   1.466   4.314   2.854
 1122SOL    HW1 3372   1.436   4.219   2.861
 1122SOL    HW2 3373   1.539   4.330   2.920
 1123SOL     OW 3374   0.527   3.980   2.190
 1123SOL    HW1 3375   0.554   3.921   2.115
 1123SOL    HW2 3376   0.527   4.075   2.159
 1124SOL     OW 3377   0.915   3.813   3.264
 1124SOL    HW1 3378   0.940   3.793   3.169
 1124SOL    HW2 3379   0.987   3.869   3.306
 1125SOL     OW 3380   1.274   4.110   3.124
 1125SOL    HW1 3381   1.295   4.184   3.188
 1125SOL    HW2 3382   1.185   4.127   3.081
 1126SOL     OW 3383   0.566   4.261   2.727
 1126SOL    HW1 3384   0.578   4.327   2.653
 1126SOL    HW2 3385   0.612   4.295   2.810
 1127SOL     OW 3386   1.582   4.363   2.334
 1127SOL    HW1 3387   1.551   4.424   2.407
 1127SOL    HW2 3388   1.632   4.415   2.265
 1128SOL     OW 3389   1.013   3.829   3.632
 1128SOL    HW1 3390   1.019   3.914   3.580
 1128SOL    HW2 3391   1.045   3.753   3.575
 1129SOL     OW 3392   0.504   3.774   3.602
 1129SOL    HW1 3393   0.462   3.717   3.532
 1129SOL    HW2 3394   0.438   3.843   3.634
 1130SOL     OW 3395   1.209   4.249   2.137
 1130SOL    HW1 3396   1.222   4.165   2.191
 1130SOL    HW2 3397   1.180   4.323   2.197
 1131SOL     OW 3398   0.307   3.937   3.093
 1131SOL    HW1 3399   0.284   3.974   3.183
 1131SOL    HW2 3400   0.277   3.842   3.087
 1132SOL     OW 3401   0.732   4.358   2.926
 1132SOL    HW1 3402   0.791   4.332   2.850
 1132SOL    HW2 3403   0.704   4.454   2.915
 1133SOL     OW 3404   0.307   3.787   2.480
 1133SOL    HW1 3405   0.296   3.881   2.513
 1133SOL    HW2 3406   0.302   3.724   2.557
 1134SOL     OW 3407   1.622   4.091   2.236
 1134SOL    HW1 3408   1.624   4.015   2.300
 1134SOL    HW2 3409   1.574   4.168   2.276
 1135SOL     OW 3410   1.540   3.998   1.987
 1135SOL    HW1 3411   1.479   3.923   2.010
 1135SOL    HW2 3412   1.562   4.050   2.070
 1136SOL     OW 3413   0.319   4.534   2.811
 1136SOL    HW1 3414   0.412   4.570   2.816
 1136SOL    HW2 3415   0.313   4.449   2.863
 1137SOL     OW 3416   0.339   4.233   2.868
 1137SOL    HW1 3417   0.287   4.150   2.851
 1137SOL    HW2 3418   0.416   4.238   2.804
 1138SOL     OW 3419   1.138   4.104   3.540
 1138SOL    HW1 3420   1.093   4.167   3.604
 1138SOL    HW2 3421   1.231   4.135   3.523
 1139SOL     OW 3422   1.160   3.931   3.339
 1139SOL    HW1 3423   1.160   3.995   3.416
 1139SOL    HW2 3424   1.188   3.979   3.256
 1140SOL     OW 3425   0.040   4.268   2.976
 1140SOL    HW1 3426   0.125   4.235   2.935
 1140SOL    HW2 3427   0.053   4.283   3.074
 1141SOL     OW 3428   0.189   4.244   3.584
 1141SOL    HW1 3429   0.248   4.204   3.514
 1141SOL    HW2 3430   0.131   4.315   3.543
 1142SOL     OW 3431   0.815   4.296   2.187
 1142SOL    HW1 3432   0.822   4.207   2.141
 1142SOL    HW2 3433   0.721   4.330   2.179
 1143SOL     OW 3434   1.657   4.328   3.068
 1143SOL    HW1 3435   1.619   4.259   3.130
 1143SOL    HW2 3436   1.739   4.292   3.024
 1144SOL     OW 3437   0.671   4.188   3.131
 1144SOL    HW1 3438   0.637   4.099   3.101
 1144SOL    HW2 3439   0.697   4.242   3.051
 1145SOL     OW 3440   0.473   4.224   2.053
 1145SOL    HW1 3441   0.534   4.304   2.057
 1145SOL    HW2 3442   0.378   4.255   2.060
 1146SOL     OW 3443   1.726   3.859   2.385
 1146SOL    HW1 3444   1.799   3.842   2.318
 1146SOL    HW2 3445   1.695   3.772   2.423
 1147SOL     OW 3446   1.280   4.651   2.534
 1147SOL    HW1 3447   1.340   4.570   2.536
 1147SOL    HW2 3448   1.320   4.720   2.474
 1148SOL     OW 3449   1.841   3.899   2.825
 1148SOL    HW1 3450   1.880   3.814   2.789
 1148SOL    HW2 3451   1.743   3.901   2.806
 1149SOL     OW 3452   0.263   4.050   2.582
 1149SOL    HW1 3453   0.184   4.101   2.548
 1149SOL    HW2 3454   0.254   4.035   2.680
 1150SOL     OW 3455   1.014   3.960   2.833
 1150SOL    HW1 3456   1.006   3.924   2.740
 1150SOL    HW2 3457   1.012   3.884   2.898
 1151SOL     OW 3458   1.709   4.109   3.243
 1151SOL    HW1 3459   1.782   4.178   3.247
 1151SOL    HW2 3460   1.737   4.034   3.184
 1152SOL     OW 3461   0.672   3.927   3.351
 1152SOL    HW1 3462   0.762   3.911   3.311
 1152SOL    HW2 3463   0.680   3.932   3.450
 1153SOL     OW 3464   0.075   4.069   1.895
 1153SOL    HW1 3465  -0.017   4.041   1.866
 1153SOL    HW2 3466   0.106   4.146   1.839
 1154SOL     OW 3467   0.072   3.890   2.180
 1154SOL    HW1 3468   0.055   3.973   2.126
 1154SOL    HW2 3469   0.162   3.853   2.158
 1155SOL     OW 3470   0.716   4.289   3.570
 1155SOL    HW1 3471   0.735   4.354   3.644
 1155SOL    HW2 3472   0.776   4.209   3.579
 1156SOL     OW 3473   1.225   4.049   2.311
 1156SOL    HW1 3474   1.290   3.975   2.300
 1156SOL    HW2 3475   1.245   4.099   2.395
 1157SOL     OW 3476   1.777   4.066   3.504
 1157SOL    HW1 3477   1.760   4.097   3.410
 1157SOL    HW2 3478   1.693   4.029   3.542
 1158SOL     OW 3479   1.083   4.708   1.949
 1158SOL    HW1 3480   1.060   4.761   1.867
 1158SOL    HW2 3481   1.164   4.652   1.930
 1159SOL     OW 3482   1.824   3.916   3.089
 1159SOL    HW1 3483   1.820   3.826   3.133
 1159SOL    HW2 3484   1.827   3.905   2.990
 1160SOL     OW 3485   0.428   4.148   2.382
 1160SOL    HW1 3486   0.458   4.076   2.320
 1160SOL    HW2 3487   0.389   4.108   2.465
 1161SOL     OW 3488   0.317   4.271   3.142
 1161SOL    HW1 3489   0.355   4.212   3.214
 1161SOL    HW2 3490   0.357   4.245   3.054
 1162SOL     OW 3491   1.424   3.938   2.974
 1162SOL    HW1 3492   1.476   3.873   3.029
 1162SOL    HW2 3493   1.375   4.001   3.035
 1163SOL     OW 3494   1.001   3.758   3.016
 1163SOL    HW1 3495   0.938   3.686   2.985
 1163SOL    HW2 3496   1.094   3.722   3.016
 1164SOL     OW 3497   1.352   3.776   2.030
 1164SOL    HW1 3498   1.387   3.735   1.946
 1164SOL    HW2 3499   1.262   3.738   2.050
 1165SOL     OW 3500   1.300   4.177   2.553
 1165SOL    HW1 3501   1.241   4.257   2.557
 1165SOL    HW2 3502   1.315   4.142   2.646
 1166SOL     OW 3503   1.593   3.945   2.744
 1166SOL    HW1 3504   1.509   3.944   2.798
 1166SOL    HW2 3505   1.595   4.028   2.688
 1167SOL     OW 3506   1.135   4.427   4.441
 1167SOL    HW1 3507   1.192   4.505   4.416
 1167SOL    HW2 3508   1.075   4.453   4.517
 1168SOL     OW 3509   1.755   4.331   3.955
 1168SOL    HW1 3510   1.743   4.318   3.856
 1168SOL    HW2 3511   1.725   4.250   4.004
 1169SOL     OW 3512   0.122   4.367   4.287
 1169SOL    HW1 3513   0.077   4.279   4.304
 1169SOL    HW2 3514   0.121   4.421   4.371
 1170SOL     OW 3515   0.809   3.728   4.226
 1170SOL    HW1 3516   0.849   3.819   4.217
 1170SOL    HW2 3517   0.709   3.736   4.232
 1171SOL     OW 3518   1.041   4.425   4.153
 1171SOL    HW1 3519   1.067   4.421   4.249
 1171SOL    HW2 3520   0.956   4.374   4.139
 1172SOL     OW 3521   0.076   4.535   4.513
 1172SOL    HW1 3522   0.175   4.523   4.522
 1172SOL    HW2 3523   0.052   4.630   4.534
 1173SOL     OW 3524   0.865   4.072   3.919
 1173SOL    HW1 3525   0.924   4.135   3.870
 1173SOL    HW2 3526   0.884   3.978   3.890
 1174SOL     OW 3527   1.400   3.831   4.150
 1174SOL    HW1 3528   1.376   3.794   4.060
 1174SOL    HW2 3529   1.499   3.847   4.154
 1175SOL     OW 3530   0.614   3.846   3.841
 1175SOL    HW1 3531   0.712   3.824   3.848
 1175SOL    HW2 3532   0.583   3.829   3.748
 1176SOL     OW 3533   0.539   3.788   4.236
 1176SOL    HW1 3534   0.458   3.789   4.294
 1176SOL    HW2 3535   0.542   3.871   4.181
 1177SOL     OW 3536   0.297   3.759   3.895
 1177SOL    HW1 3537   0.346   3.843   3.874
 1177SOL    HW2 3538   0.359   3.694   3.940
 1178SOL     OW 3539   0.935   3.960   4.204
 1178SOL    HW1 3540   0.887   4.001   4.126
 1178SOL    HW2 3541   1.034   3.958   4.185
 1179SOL     OW 3542   1.032   4.273   3.740
 1179SOL    HW1 3543   0.991   4.355   3.701
 1179SOL    HW2 3544   1.096   4.299   3.813
 1180SOL     OW 3545   0.866   4.178   4.366
 1180SOL    HW1 3546   0.834   4.250   4.304
 1180SOL    HW2 3547   0.890   4.097   4.313
 1181SOL     OW 3548   0.527   3.980   4.052
 1181SOL    HW1 3549   0.554   3.921   3.977
 1181SOL    HW2 3550   0.527   4.075   4.021
 1182SOL     OW 3551   1.582   4.363   4.196
 1182SOL    HW1 3552   1.551   4.424   4.269
 1182SOL    HW2 3553   1.632   4.415   4.127
 1183SOL     OW 3554   1.209   4.249   3.999
 1183SOL    HW1 3555   1.222   4.165   4.053
 1183SOL    HW2 3556   1.180   4.323   4.059
 1184SOL     OW 3557   0.307   3.787   4.342
 1184SOL    HW1 3558   0.296   3.881   4.375
 1184SOL    HW2 3559   0.302   3.724   4.419
 1185SOL     OW 3560   1.622   4.091   4.098
 1185SOL    HW1 3561   1.624   4.015   4.162
 1185SOL    HW2 3562   1.574   4.168   4.138
 1186SOL     OW 3563   1.540   3.998   3.849
 1186SOL    HW1 3564   1.479   3.923   3.872
 1186SOL    HW2 3565   1.562   4.050   3.932
 1187SOL     OW 3566   0.815   4.296   4.049
 1187SOL    HW1 3567   0.822   4.207   4.003
 1187SOL    HW2 3568   0.721   4.330   4.041
 1188SOL     OW 3569   0.473   4.224   3.915
 1188SOL    HW1 3570   0.534   4.304   3.919
 1188SOL    HW2 3571   0.378   4.255   3.922
 1189SOL     OW 3572   1.726   3.859   4.247
 1189SOL    HW1 3573   1.799   3.842   4.180
 1189SOL    HW2 3574   1.695   3.772   4.285
 1190SOL     OW 3575   1.280   4.651   4.396
 1190SOL    HW1 3576   1.340   4.570   4.398
 1190SOL    HW2 3577   1.320   4.720   4.336
 1191SOL     OW 3578   1.841   3.899   4.687
 1191SOL    HW1 3579   1.880   3.814   4.651
 1191SOL    HW2 3580   1.743   3.901   4.668
 1192SOL     OW 3581   0.075   4.069   3.757
 1192SOL    HW1 3582  -0.017   4.041   3.728
 1192SOL    HW2 3583   0.106   4.146   3.701
 1193SOL     OW 3584   0.072   3.890   4.042
 1193SOL    HW1 3585   0.055   3.973   3.988
 1193SOL    HW2 3586   0.162   3.853   4.020
 1194SOL     OW 3587   1.225   4.049   4.173
 1194SOL    HW1 3588   1.290   3.975   4.162
 1194SOL    HW2 3589   1.245   4.099   4.257
 1195SOL     OW 3590   1.083   4.708   3.811
 1195SOL    HW1 3591   1.060   4.761   3.729
 1195SOL    HW2 3592   1.164   4.652   3.792
 1196SOL     OW 3593   0.428   4.148   4.244
 1196SOL    HW1 3594   0.458   4.076   4.182
 1196SOL    HW2 3595   0.389   4.108   4.327
 1197SOL     OW 3596   1.352   3.776   3.892
 1197SOL    HW1 3597   1.387   3.735   3.808
 1197SOL    HW2 3598   1.262   3.738   3.912
 1198SOL     OW 3599   1.300   4.177   4.415
 1198SOL    HW1 3600   1.241   4.257   4.419
 1198SOL    HW2 3601   1.315   4.142   4.508
 1199SOL     OW 3602   2.092   0.628   0.113
 1199SOL    HW1 3603   1.999   0.626   0.150
 1199SOL    HW2 3604   2.093   0.589   0.021
 1200SOL     OW 3605   2.087   0.275   0.996
 1200SOL    HW1 3606   2.122   0.258   1.088
 1200SOL    HW2 3607   1.999   0.230   0.984
 1201SOL     OW 3608   1.881   0.368   0.647
 1201SOL    HW1 3609   1.799   0.411   0.686
 1201SOL    HW2 3610   1.853   0.295   0.584
 1202SOL     OW 3611   2.431   1.275   1.165
 1202SOL    HW1 3612   2.338   1.268   1.128
 1202SOL    HW2 3613   2.442   1.364   1.209
 1203SOL     OW 3614   3.417   1.511   0.703
 1203SOL    HW1 3615   3.360   1.495   0.784
 1203SOL    HW2 3616   3.358   1.521   0.623
 1204SOL     OW 3617   2.997   0.703   0.717
 1204SOL    HW1 3618   3.054   0.781   0.692
 1204SOL    HW2 3619   2.937   0.729   0.793
 1205SOL     OW 3620   3.617   0.607   0.231
 1205SOL    HW1 3621   3.605   0.594   0.132
 1205SOL    HW2 3622   3.587   0.526   0.280
 1206SOL     OW 3623   2.630   1.144   1.023
 1206SOL    HW1 3624   2.552   1.161   1.083
 1206SOL    HW2 3625   2.664   1.231   0.987
 1207SOL     OW 3626   2.712   0.798   1.823
 1207SOL    HW1 3627   2.708   0.874   1.888
 1207SOL    HW2 3628   2.734   0.834   1.732
 1208SOL     OW 3629   2.547   1.012   0.665
 1208SOL    HW1 3630   2.616   0.996   0.735
 1208SOL    HW2 3631   2.474   1.069   0.703
 1209SOL     OW 3632   2.548   1.161   1.803
 1209SOL    HW1 3633   2.608   1.240   1.817
 1209SOL    HW2 3634   2.462   1.192   1.762
 1210SOL     OW 3635   2.197   1.435   1.061
 1210SOL    HW1 3636   2.119   1.404   1.008
 1210SOL    HW2 3637   2.255   1.493   1.004
 1211SOL     OW 3638   3.322   1.505   1.339
 1211SOL    HW1 3639   3.346   1.599   1.365
 1211SOL    HW2 3640   3.306   1.451   1.421
 1212SOL     OW 3641   2.300   0.392   1.499
 1212SOL    HW1 3642   2.382   0.336   1.508
 1212SOL    HW2 3643   2.219   0.334   1.503
 1213SOL     OW 3644   3.465   0.447   0.737
 1213SOL    HW1 3645   3.391   0.493   0.687
 1213SOL    HW2 3646   3.516   0.515   0.790
 1214SOL     OW 3647   2.093   1.713   0.483
 1214SOL    HW1 3648   2.127   1.790   0.537
 1214SOL    HW2 3649   2.137   1.713   0.393
 1215SOL     OW 3650   2.989   1.341   1.690
 1215SOL    HW1 3651   3.036   1.341   1.778
 1215SOL    HW2 3652   2.941   1.254   1.679
 1216SOL     OW 3653   2.092   1.434   0.538
 1216SOL    HW1 3654   2.066   1.530   0.538
 1216SOL    HW2 3655   2.021   1.380   0.583
 1217SOL     OW 3656   2.102   1.091   0.886
 1217SOL    HW1 3657   2.116   1.007   0.938
 1217SOL    HW2 3658   2.047   1.155   0.941
 1218SOL     OW 3659   2.482   1.786   1.439
 1218SOL    HW1 3660   2.390   1.769   1.474
 1218SOL    HW2 3661   2.510   1.878   1.465
 1219SOL     OW 3662   2.468   0.964   0.123
 1219SOL    HW1 3663   2.475   1.048   0.069
 1219SOL    HW2 3664   2.514   0.977   0.211
 1220SOL     OW 3665   3.456   0.114   1.480
 1220SOL    HW1 3666   3.438   0.181   1.408
 1220SOL    HW2 3667   3.453   0.160   1.569
 1221SOL     OW 3668   1.984   0.643   0.563
 1221SOL    HW1 3669   1.939   0.555   0.580
 1221SOL    HW2 3670   1.983   0.697   0.647
 1222SOL     OW 3671   3.704   1.767   0.359
 1222SOL    HW1 3672   3.758   1.738   0.439
 1222SOL    HW2 3673   3.734   1.857   0.330
 1223SOL     OW 3674   1.889   1.596   0.117
 1223SOL    HW1 3675   1.870   1.500   0.138
 1223SOL    HW2 3676   1.856   1.654   0.192
 1224SOL     OW 3677   3.551   0.922   0.612
 1224SOL    HW1 3678   3.646   0.893   0.620
 1224SOL    HW2 3679   3.543   0.987   0.537
 1225SOL     OW 3680   3.503   1.108   0.432
 1225SOL    HW1 3681   3.589   1.110   0.380
 1225SOL    HW2 3682   3.517   1.155   0.520
 1226SOL     OW 3683   1.975   0.737   1.597
 1226SOL    HW1 3684   2.063   0.724   1.642
 1226SOL    HW2 3685   1.962   0.834   1.575
 1227SOL     OW 3686   2.475   1.365   0.726
 1227SOL    HW1 3687   2.426   1.278   0.735
 1227SOL    HW2 3688   2.452   1.408   0.639
 1228SOL     OW 3689   3.155   1.228   1.423
 1228SOL    HW1 3690   3.192   1.155   1.365
 1228SOL    HW2 3691   3.207   1.233   1.508
 1229SOL     OW 3692   2.671   0.004   0.502
 1229SOL    HW1 3693   2.711   0.095   0.493
 1229SOL    HW2 3694   2.571   0.012   0.508
 1230SOL     OW 3695   2.059   0.976   1.264
 1230SOL    HW1 3696   2.148   0.931   1.250
 1230SOL    HW2 3697   1.986   0.911   1.245
 1231SOL     OW 3698   3.387   0.999   0.190
 1231SOL    HW1 3699   3.324   0.923   0.203
 1231SOL    HW2 3700   3.435   1.017   0.276
 1232SOL     OW 3701   3.049   1.792   1.616
 1232SOL    HW1 3702   3.073   1.852   1.540
 1232SOL    HW2 3703   3.056   1.697   1.586
 1233SOL     OW 3704   2.179   0.251   1.801
 1233SOL    HW1 3705   2.250   0.322   1.807
 1233SOL    HW2 3706   2.091   0.290   1.829
 1234SOL     OW 3707   3.328   1.417   0.953
 1234SOL    HW1 3708   3.269   1.423   1.033
 1234SOL    HW2 3709   3.313   1.329   0.907
 1235SOL     OW 3710   3.529   1.714   0.572
 1235SOL    HW1 3711   3.488   1.691   0.484
 1235SOL    HW2 3712   3.511   1.640   0.637
 1236SOL     OW 3713   2.460   0.729   0.270
 1236SOL    HW1 3714   2.484   0.798   0.202
 1236SOL    HW2 3715   2.382   0.762   0.324
 1237SOL     OW 3716   3.143   0.345   0.944
 1237SOL    HW1 3717   3.057   0.295   0.931
 1237SOL    HW2 3718   3.205   0.291   1.000
 1238SOL     OW 3719   3.438   1.662   0.307
 1238SOL    HW1 3720   3.527   1.708   0.310
 1238SOL    HW2 3721   3.417   1.638   0.212
 1239SOL     OW 3722   2.669   0.605   1.465
 1239SOL    HW1 3723   2.622   0.602   1.554
 1239SOL    HW2 3724   2.618   0.550   1.399
 1240SOL     OW 3725   3.256   0.469   1.674
 1240SOL    HW1 3726   3.236   0.512   1.762
 1240SOL    HW2 3727   3.334   0.407   1.683
 1241SOL     OW 3728   2.835   0.890   1.572
 1241SOL    HW1 3729   2.881   0.806   1.543
 1241SOL    HW2 3730   2.779   0.924   1.497
 1242SOL     OW 3731   2.853   0.410   1.242
 1242SOL    HW1 3732   2.776   0.444   1.296
 1242SOL    HW2 3733   2.819   0.359   1.163
 1243SOL     OW 3734   2.903   0.701   0.429
 1243SOL    HW1 3735   2.929   0.697   0.525
 1243SOL    HW2 3736   2.818   0.650   0.415
 1244SOL     OW 3737   1.938   0.811   0.789
 1244SOL    HW1 3738   2.037   0.799   0.798
 1244SOL    HW2 3739   1.914   0.906   0.810
 1245SOL     OW 3740   1.992   1.821   1.571
 1245SOL    HW1 3741   1.982   1.806   1.670
 1245SOL    HW2 3742   1.906   1.857   1.535
 1246SOL     OW 3743   2.727   0.348   0.195
 1246SOL    HW1 3744   2.786   0.411   0.146
 1246SOL    HW2 3745   2.746   0.254   0.166
 1247SOL     OW 3746   3.581   0.585   1.831
 1247SOL    HW1 3747   3.555   0.674   1.795
 1247SOL    HW2 3748   3.579   0.517   1.758
 1248SOL     OW 3749   3.224   1.144   0.545
 1248SOL    HW1 3750   3.307   1.115   0.497
 1248SOL    HW2 3751   3.175   1.211   0.489
 1249SOL     OW 3752   2.412   0.196   0.885
 1249SOL    HW1 3753   2.407   0.191   0.985
 1249SOL    HW2 3754   2.414   0.292   0.856
 1250SOL     OW 3755   2.870   1.456   0.477
 1250SOL    HW1 3756   2.824   1.528   0.425
 1250SOL    HW2 3757   2.866   1.476   0.575
 1251SOL     OW 3758   2.213   1.801   0.853
 1251SOL    HW1 3759   2.263   1.715   0.859
 1251SOL    HW2 3760   2.278   1.878   0.850
 1252SOL     OW 3761   3.657   1.066   0.873
 1252SOL    HW1 3762   3.595   1.051   0.797
 1252SOL    HW2 3763   3.605   1.077   0.958
 1253SOL     OW 3764   3.089   1.550   1.506
 1253SOL    HW1 3765   3.095   1.473   1.570
 1253SOL    HW2 3766   3.037   1.524   1.426
 1254SOL     OW 3767   2.183   0.943   0.242
 1254SOL    HW1 3768   2.265   0.982   0.200
 1254SOL    HW2 3769   2.156   0.861   0.193
 1255SOL     OW 3770   3.320   0.735   0.728
 1255SOL    HW1 3771   3.315   0.670   0.803
 1255SOL    HW2 3772   3.400   0.794   0.741
 1256SOL     OW 3773   2.323   1.266   1.727
 1256SOL    HW1 3774   2.273   1.267   1.641
 1256SOL    HW2 3775   2.260   1.248   1.803
 1257SOL     OW 3776   2.973   1.776   0.237
 1257SOL    HW1 3777   2.913   1.714   0.287
 1257SOL    HW2 3778   3.004   1.732   0.152
 1258SOL     OW 3779   2.064   0.285   1.498
 1258SOL    HW1 3780   1.984   0.345   1.485
 1258SOL    HW2 3781   2.054   0.236   1.584
 1259SOL     OW 3782   3.494   1.377   0.081
 1259SOL    HW1 3783   3.462   1.471   0.071
 1259SOL    HW2 3784   3.418   1.314   0.069
 1260SOL     OW 3785   2.326   1.743   0.323
 1260SOL    HW1 3786   2.359   1.782   0.409
 1260SOL    HW2 3787   2.402   1.736   0.258
 1261SOL     OW 3788   3.262   0.107   0.426
 1261SOL    HW1 3789   3.238   0.070   0.336
 1261SOL    HW2 3790   3.361   0.123   0.430
 1262SOL     OW 3791   2.111   1.785   1.241
 1262SOL    HW1 3792   2.168   1.720   1.291
 1262SOL    HW2 3793   2.095   1.752   1.148
 1263SOL     OW 3794   2.802   1.698   0.904
 1263SOL    HW1 3795   2.882   1.641   0.925
 1263SOL    HW2 3796   2.753   1.658   0.827
 1264SOL     OW 3797   2.244   0.700   0.480
 1264SOL    HW1 3798   2.289   0.610   0.477
 1264SOL    HW2 3799   2.150   0.689   0.513
 1265SOL     OW 3800   3.409   0.222   1.729
 1265SOL    HW1 3801   3.404   0.259   1.821
 1265SOL    HW2 3802   3.337   0.153   1.717
 1266SOL     OW 3803   2.476   0.122   0.117
 1266SOL    HW1 3804   2.574   0.100   0.124
 1266SOL    HW2 3805   2.445   0.105   0.024
 1267SOL     OW 3806   2.643   0.264   1.749
 1267SOL    HW1 3807   2.710   0.203   1.792
 1267SOL    HW2 3808   2.570   0.283   1.814
 1268SOL     OW 3809   2.750   1.514   1.195
 1268SOL    HW1 3810   2.727   1.489   1.101
 1268SOL    HW2 3811   2.811   1.445   1.234
 1269SOL     OW 3812   3.213   0.590   1.433
 1269SOL    HW1 3813   3.241   0.547   1.518
 1269SOL    HW2 3814   3.238   0.686   1.434
 1270SOL     OW 3815   2.665   1.402   0.924
 1270SOL    HW1 3816   2.755   1.416   0.882
 1270SOL    HW2 3817   2.594   1.404   0.853
 1271SOL     OW 3818   2.784   0.503   0.899
 1271SOL    HW1 3819   2.759   0.494   0.803
 1271SOL    HW2 3820   2.832   0.421   0.930
 1272SOL     OW 3821   2.401   0.064   0.512
 1272SOL    HW1 3822   2.320   0.065   0.570
 1272SOL    HW2 3823   2.404   0.147   0.457
 1273SOL     OW 3824   3.296   1.188   0.041
 1273SOL    HW1 3825   3.328   1.112   0.098
 1273SOL    HW2 3826   3.204   1.215   0.071
 1274SOL     OW 3827   2.159   0.035   0.171
 1274SOL    HW1 3828   2.208   0.119   0.150
 1274SOL    HW2 3829   2.221  -0.030   0.216
 1275SOL     OW 3830   2.797   0.236   0.480
 1275SOL    HW1 3831   2.749   0.277   0.402
 1275SOL    HW2 3832   2.896   0.234   0.461
 1276SOL     OW 3833   2.938   0.683   1.464
 1276SOL    HW1 3834   2.858   0.622   1.467
 1276SOL    HW2 3835   3.019   0.630   1.440
 1277SOL     OW 3836   3.089   1.570   0.793
 1277SOL    HW1 3837   3.110   1.644   0.728
 1277SOL    HW2 3838   3.157   1.570   0.866
 1278SOL     OW 3839   2.321   1.152   0.741
 1278SOL    HW1 3840   2.250   1.125   0.806
 1278SOL    HW2 3841   2.295   1.124   0.648
 1279SOL     OW 3842   3.133   1.797   0.591
 1279SOL    HW1 3843   3.177   1.861   0.527
 1279SOL    HW2 3844   3.083   1.849   0.661
 1280SOL     OW 3845   2.894   0.549   0.016
 1280SOL    HW1 3846   2.853   0.631  -0.023
 1280SOL    HW2 3847   2.958   0.575   0.089
 1281SOL     OW 3848   1.940   0.556   1.386
 1281SOL    HW1 3849   2.032   0.555   1.345
 1281SOL    HW2 3850   1.934   0.630   1.453
 1282SOL     OW 3851   2.423   0.222   1.147
 1282SOL    HW1 3852   2.461   0.138   1.184
 1282SOL    HW2 3853   2.335   0.241   1.191
 1283SOL     OW 3854   2.728   0.454   0.642
 1283SOL    HW1 3855   2.696   0.526   0.580
 1283SOL    HW2 3856   2.752   0.373   0.589
 1284SOL     OW 3857   2.879   0.039   0.753
 1284SOL    HW1 3858   2.807   0.044   0.684
 1284SOL    HW2 3859   2.855  -0.030   0.822
 1285SOL     OW 3860   3.291   1.173   0.867
 1285SOL    HW1 3861   3.236   1.089   0.860
 1285SOL    HW2 3862   3.317   1.202   0.775
 1286SOL     OW 3863   3.328   0.590   0.992
 1286SOL    HW1 3864   3.298   0.495   0.999
 1286SOL    HW2 3865   3.401   0.606   1.058
 1287SOL     OW 3866   3.719   0.833   0.377
 1287SOL    HW1 3867   3.761   0.769   0.441
 1287SOL    HW2 3868   3.681   0.782   0.299
 1288SOL     OW 3869   2.350   1.385   0.174
 1288SOL    HW1 3870   2.263   1.370   0.221
 1288SOL    HW2 3871   2.333   1.411   0.079
 1289SOL     OW 3872   3.526   1.280   0.657
 1289SOL    HW1 3873   3.625   1.288   0.671
 1289SOL    HW2 3874   3.481   1.364   0.688
 1290SOL     OW 3875   3.252   0.575   0.078
 1290SOL    HW1 3876   3.198   0.554   0.159
 1290SOL    HW2 3877   3.343   0.534   0.087
 1291SOL     OW 3878   2.389   0.256   0.328
 1291SOL    HW1 3879   2.416   0.197   0.253
 1291SOL    HW2 3880   2.389   0.351   0.297
 1292SOL     OW 3881   3.616   1.223   1.588
 1292SOL    HW1 3882   3.707   1.184   1.575
 1292SOL    HW2 3883   3.624   1.319   1.612
 1293SOL     OW 3884   2.926   1.347   1.340
 1293SOL    HW1 3885   2.846   1.324   1.395
 1293SOL    HW2 3886   3.009   1.321   1.389
 1294SOL     OW 3887   3.454   1.629   1.625
 1294SOL    HW1 3888   3.481   1.663   1.535
 1294SOL    HW2 3889   3.533   1.591   1.671
 1295SOL     OW 3890   2.973   1.195   1.100
 1295SOL    HW1 3891   2.933   1.239   1.181
 1295SOL    HW2 3892   2.932   1.232   1.017
 1296SOL     OW 3893   3.500   1.099   1.079
 1296SOL    HW1 3894   3.505   1.180   1.138
 1296SOL    HW2 3895   3.414   1.101   1.028
 1297SOL     OW 3896   2.777   0.089   1.402
 1297SOL    HW1 3897   2.802   0.069   1.307
 1297SOL    HW2 3898   2.849   0.145   1.444
 1298SOL     OW 3899   2.842   1.116   1.719
 1298SOL    HW1 3900   2.743   1.122   1.729
 1298SOL    HW2 3901   2.865   1.036   1.663
 1299SOL     OW 3902   2.567   1.050   0.368
 1299SOL    HW1 3903   2.553   1.057   0.467
 1299SOL    HW2 3904   2.651   0.999   0.350
 1300SOL     OW 3905   2.272   0.813   1.251
 1300SOL    HW1 3906   2.358   0.825   1.301
 1300SOL    HW2 3907   2.230   0.726   1.278
 1301SOL     OW 3908   3.136   0.386   1.262
 1301SOL    HW1 3909   3.157   0.460   1.326
 1301SOL    HW2 3910   3.047   0.403   1.219
 1302SOL     OW 3911   1.926   1.564   1.331
 1302SOL    HW1 3912   1.880   1.646   1.297
 1302SOL    HW2 3913   2.024   1.583   1.340
 1303SOL     OW 3914   2.229   1.100   0.501
 1303SOL    HW1 3915   2.222   1.183   0.445
 1303SOL    HW2 3916   2.233   1.020   0.441
 1304SOL     OW 3917   2.428   0.537   0.865
 1304SOL    HW1 3918   2.440   0.603   0.791
 1304SOL    HW2 3919   2.474   0.571   0.948
 1305SOL     OW 3920   3.114   1.348   0.388
 1305SOL    HW1 3921   3.164   1.425   0.428
 1305SOL    HW2 3922   3.019   1.350   0.420
 1306SOL     OW 3923   3.134   1.445   1.142
 1306SOL    HW1 3924   3.181   1.458   1.229
 1306SOL    HW2 3925   3.068   1.371   1.151
 1307SOL     OW 3926   3.444   0.639   0.472
 1307SOL    HW1 3927   3.413   0.700   0.545
 1307SOL    HW2 3928   3.494   0.691   0.403
 1308SOL     OW 3929   2.216   1.510   1.329
 1308SOL    HW1 3930   2.195   1.466   1.242
 1308SOL    HW2 3931   2.313   1.536   1.332
 1309SOL     OW 3932   2.264   0.751   1.598
 1309SOL    HW1 3933   2.332   0.806   1.551
 1309SOL    HW2 3934   2.304   0.663   1.625
 1310SOL     OW 3935   3.449   0.779   1.670
 1310SOL    HW1 3936   3.357   0.817   1.665
 1310SOL    HW2 3937   3.509   0.826   1.605
 1311SOL     OW 3938   2.875   0.105   1.770
 1311SOL    HW1 3939   2.881   0.190   1.718
 1311SOL    HW2 3940   2.907   0.029   1.713
 1312SOL     OW 3941   2.366   0.050   1.740
 1312SOL    HW1 3942   2.324  -0.007   1.670
 1312SOL    HW2 3943   2.300   0.119   1.772
 1313SOL     OW 3944   2.435   0.870   1.029
 1313SOL    HW1 3945   2.479   0.959   1.020
 1313SOL    HW2 3946   2.372   0.870   1.106
 1314SOL     OW 3947   3.222   0.862   1.045
 1314SOL    HW1 3948   3.147   0.862   0.979
 1314SOL    HW2 3949   3.259   0.770   1.054
 1315SOL     OW 3950   3.071   0.525   0.275
 1315SOL    HW1 3951   3.084   0.441   0.329
 1315SOL    HW2 3952   3.042   0.599   0.335
 1316SOL     OW 3953   2.169   0.213   1.231
 1316SOL    HW1 3954   2.146   0.250   1.321
 1316SOL    HW2 3955   2.139   0.118   1.225
 1317SOL     OW 3956   1.899   1.310   1.282
 1317SOL    HW1 3957   1.952   1.261   1.350
 1317SOL    HW2 3958   1.921   1.408   1.287
 1318SOL     OW 3959   2.594   0.634   1.064
 1318SOL    HW1 3960   2.653   0.608   0.988
 1318SOL    HW2 3961   2.566   0.730   1.053
 1319SOL     OW 3962   3.590   0.935   1.854
 1319SOL    HW1 3963   3.544   0.928   1.765
 1319SOL    HW2 3964   3.528   0.979   1.920
 1320SOL     OW 3965   2.169   0.063   0.618
 1320SOL    HW1 3966   2.158   0.157   0.651
 1320SOL    HW2 3967   2.164   0.000   0.695
 1321SOL     OW 3968   3.484   0.367   0.374
 1321SOL    HW1 3969   3.486   0.291   0.438
 1321SOL    HW2 3970   3.436   0.444   0.414
 1322SOL     OW 3971   2.885   0.766   0.966
 1322SOL    HW1 3972   2.900   0.787   1.062
 1322SOL    HW2 3973   2.855   0.671   0.957
 1323SOL     OW 3974   2.842   1.573   1.700
 1323SOL    HW1 3975   2.822   1.617   1.612
 1323SOL    HW2 3976   2.881   1.482   1.684
 1324SOL     OW 3977   3.721   1.518   1.605
 1324SOL    HW1 3978   3.735   1.545   1.510
 1324SOL    HW2 3979   3.804   1.540   1.658
 1325SOL     OW 3980   2.212   0.898   1.804
 1325SOL    HW1 3981   2.288   0.942   1.852
 1325SOL    HW2 3982   2.247   0.851   1.722
 1326SOL     OW 3983   3.402   0.274   0.125
 1326SOL    HW1 3984   3.341   0.199   0.148
 1326SOL    HW2 3985   3.424   0.326   0.208
 1327SOL     OW 3986   3.165   0.838   0.042
 1327SOL    HW1 3987   3.199   0.745   0.057
 1327SOL    HW2 3988   3.183   0.865  -0.053
 1328SOL     OW 3989   2.930   1.333   0.849
 1328SOL    HW1 3990   2.937   1.249   0.794
 1328SOL    HW2 3991   2.992   1.402   0.813
 1329SOL     OW 3992   2.181   0.810   0.949
 1329SOL    HW1 3993   2.274   0.846   0.954
 1329SOL    HW2 3994   2.175   0.725   1.001
 1330SOL     OW 3995   2.201   0.509   1.006
 1330SOL    HW1 3996   2.149   0.426   0.989
 1330SOL    HW2 3997   2.278   0.514   0.942
 1331SOL     OW 3998   3.000   0.380   1.678
 1331SOL    HW1 3999   2.955   0.443   1.742
 1331SOL    HW2 4000   3.093   0.411   1.661
 1332SOL     OW 4001   3.022   0.207   1.477
 1332SOL    HW1 4002   3.022   0.271   1.554
 1332SOL    HW2 4003   3.050   0.255   1.394
 1333SOL     OW 4004   1.870   1.326   0.200
 1333SOL    HW1 4005   1.777   1.347   0.169
 1333SOL    HW2 4006   1.880   1.227   0.213
 1334SOL     OW 4007   1.950   1.801   0.927
 1334SOL    HW1 4008   1.908   1.715   0.900
 1334SOL    HW2 4009   2.044   1.804   0.893
 1335SOL     OW 4010   2.366   1.568   0.910
 1335SOL    HW1 4011   2.432   1.642   0.919
 1335SOL    HW2 4012   2.410   1.489   0.868
 1336SOL     OW 4013   2.864   0.796   1.238
 1336SOL    HW1 4014   2.905   0.764   1.324
 1336SOL    HW2 4015   2.768   0.769   1.235
 1337SOL     OW 4016   1.902   0.544   1.114
 1337SOL    HW1 4017   1.987   0.511   1.073
 1337SOL    HW2 4018   1.915   0.559   1.212
 1338SOL     OW 4019   2.051   0.520   1.722
 1338SOL    HW1 4020   2.110   0.480   1.652
 1338SOL    HW2 4021   1.993   0.591   1.681
 1339SOL     OW 4022   3.231   0.950   1.660
 1339SOL    HW1 4023   3.270   1.039   1.680
 1339SOL    HW2 4024   3.241   0.930   1.563
 1340SOL     OW 4025   2.677   0.572   0.325
 1340SOL    HW1 4026   2.684   0.483   0.279
 1340SOL    HW2 4027   2.583   0.606   0.317
 1341SOL     OW 4028   3.519   0.604   1.206
 1341SOL    HW1 4029   3.481   0.535   1.268
 1341SOL    HW2 4030   3.601   0.568   1.162
 1342SOL     OW 4031   2.114   1.564   1.744
 1342SOL    HW1 4032   2.084   1.621   1.820
 1342SOL    HW2 4033   2.107   1.467   1.770
 1343SOL     OW 4034   2.533   0.464   1.269
 1343SOL    HW1 4035   2.499   0.375   1.239
 1343SOL    HW2 4036   2.559   0.518   1.189
 1344SOL     OW 4037   2.792   1.678   1.465
 1344SOL    HW1 4038   2.768   1.660   1.370
 1344SOL    HW2 4039   2.822   1.772   1.475
 1345SOL     OW 4040   2.335   0.500   0.191
 1345SOL    HW1 4041   2.396   0.580   0.195
 1345SOL    HW2 4042   2.240   0.531   0.198
 1346SOL     OW 4043   2.021   1.137   1.466
 1346SOL    HW1 4044   2.043   1.076   1.542
 1346SOL    HW2 4045   2.031   1.088   1.380
 1347SOL     OW 4046   3.209   1.059   1.234
 1347SOL    HW1 4047   3.233   0.996   1.160
 1347SOL    HW2 4048   3.119   1.099   1.216
 1348SOL     OW 4049   3.164   0.855   0.309
 1348SOL    HW1 4050   3.078   0.824   0.351
 1348SOL    HW2 4051   3.160   0.841   0.210
 1349SOL     OW 4052   3.621   1.747   1.154
 1349SOL    HW1 4053   3.682   1.777   1.081
 1349SOL    HW2 4054   3.583   1.658   1.132
 1350SOL     OW 4055   3.114   1.731   1.128
 1350SOL    HW1 4056   3.198   1.736   1.074
 1350SOL    HW2 4057   3.091   1.635   1.146
 1351SOL     OW 4058   1.945   1.258   1.022
 1351SOL    HW1 4059   1.940   1.257   1.122
 1351SOL    HW2 4060   1.862   1.217   0.984
 1352SOL     OW 4061   2.550   1.662   1.716
 1352SOL    HW1 4062   2.494   1.743   1.725
 1352SOL    HW2 4063   2.602   1.666   1.630
 1353SOL     OW 4064   2.765   0.086   0.133
 1353SOL    HW1 4065   2.816   0.087   0.047
 1353SOL    HW2 4066   2.821   0.044   0.204
 1354SOL     OW 4067   3.588   0.135   0.523
 1354SOL    HW1 4068   3.661   0.118   0.456
 1354SOL    HW2 4069   3.557   0.048   0.561
 1355SOL     OW 4070   3.250   1.573   0.477
 1355SOL    HW1 4071   3.317   1.585   0.403
 1355SOL    HW2 4072   3.210   1.662   0.500
 1356SOL     OW 4073   1.992   1.794   1.851
 1356SOL    HW1 4074   1.951   1.720   1.904
 1356SOL    HW2 4075   2.056   1.845   1.909
 1357SOL     OW 4076   3.142   0.927   0.672
 1357SOL    HW1 4077   3.202   0.846   0.674
 1357SOL    HW2 4078   3.182   0.996   0.612
 1358SOL     OW 4079   2.692   1.273   1.422
 1358SOL    HW1 4080   2.687   1.306   1.517
 1358SOL    HW2 4081   2.606   1.292   1.376
 1359SOL     OW 4082   2.534   1.616   0.154
 1359SOL    HW1 4083   2.543   1.626   0.055
 1359SOL    HW2 4084   2.494   1.527   0.175
 1360SOL     OW 4085   3.512   1.720   1.394
 1360SOL    HW1 4086   3.565   1.730   1.310
 1360SOL    HW2 4087   3.485   1.810   1.428
 1361SOL     OW 4088   3.703   0.175   0.963
 1361SOL    HW1 4089   3.742   0.090   0.927
 1361SOL    HW2 4090   3.605   0.177   0.944
 1362SOL     OW 4091   2.125   0.326   0.720
 1362SOL    HW1 4092   2.046   0.377   0.686
 1362SOL    HW2 4093   2.116   0.311   0.818
 1363SOL     OW 4094   3.056   1.612   0.031
 1363SOL    HW1 4095   3.062   1.519   0.068
 1363SOL    HW2 4096   2.997   1.612  -0.049
 1364SOL     OW 4097   2.684   1.002   1.372
 1364SOL    HW1 4098   2.724   1.001   1.280
 1364SOL    HW2 4099   2.694   1.094   1.412
 1365SOL     OW 4100   2.778   0.910   0.291
 1365SOL    HW1 4101   2.841   0.948   0.223
 1365SOL    HW2 4102   2.818   0.827   0.330
 1366SOL     OW 4103   3.366   1.607   0.044
 1366SOL    HW1 4104   3.274   1.644   0.051
 1366SOL    HW2 4105   3.404   1.627  -0.046
 1367SOL     OW 4106   2.234   1.288   1.490
 1367SOL    HW1 4107   2.221   1.381   1.456
 1367SOL    HW2 4108   2.150   1.236   1.477
 1368SOL     OW 4109   3.476   1.292   1.289
 1368SOL    HW1 4110   3.536   1.295   1.369
 1368SOL    HW2 4111   3.401   1.356   1.302
 1369SOL     OW 4112   2.901   1.098   0.696
 1369SOL    HW1 4113   2.831   1.051   0.750
 1369SOL    HW2 4114   2.960   1.030   0.653
 1370SOL     OW 4115   2.876   0.236   0.971
 1370SOL    HW1 4116   2.868   0.200   0.878
 1370SOL    HW2 4117   2.874   0.160   1.036
 1371SOL     OW 4118   2.452   1.487   0.491
 1371SOL    HW1 4119   2.494   1.429   0.421
 1371SOL    HW2 4120   2.408   1.566   0.447
 1372SOL     OW 4121   3.571   0.385   1.381
 1372SOL    HW1 4122   3.644   0.454   1.385
 1372SOL    HW2 4123   3.599   0.310   1.322
 1373SOL     OW 4124   2.117   1.348   0.290
 1373SOL    HW1 4125   2.021   1.349   0.263
 1373SOL    HW2 4126   2.129   1.401   0.374
 1374SOL     OW 4127   1.967   1.013   1.726
 1374SOL    HW1 4128   1.890   0.980   1.780
 1374SOL    HW2 4129   2.052   0.983   1.768
 1375SOL     OW 4130   2.534   0.203   1.489
 1375SOL    HW1 4131   2.624   0.187   1.449
 1375SOL    HW2 4132   2.542   0.208   1.588
 1376SOL     OW 4133   1.937   0.345   0.033
 1376SOL    HW1 4134   1.845   0.317   0.004
 1376SOL    HW2 4135   1.968   0.422  -0.023
 1377SOL     OW 4136   3.302   0.856   1.398
 1377SOL    HW1 4137   3.245   0.908   1.335
 1377SOL    HW2 4138   3.398   0.868   1.374
 1378SOL     OW 4139   3.045   1.335   0.119
 1378SOL    HW1 4140   2.946   1.324   0.121
 1378SOL    HW2 4141   3.079   1.350   0.212
 1379SOL     OW 4142   2.475   0.842   1.431
 1379SOL    HW1 4143   2.531   0.923   1.414
 1379SOL    HW2 4144   2.534   0.762   1.434
 1380SOL     OW 4145   3.355   1.767   0.959
 1380SOL    HW1 4146   3.388   1.831   0.890
 1380SOL    HW2 4147   3.421   1.761   1.034
 1381SOL     OW 4148   2.578   0.565   1.708
 1381SOL    HW1 4149   2.597   0.630   1.782
 1381SOL    HW2 4150   2.638   0.485   1.717
 1382SOL     OW 4151   3.312   1.220   1.633
 1382SOL    HW1 4152   3.303   1.210   1.732
 1382SOL    HW2 4153   3.408   1.213   1.607
 1383SOL     OW 4154   2.252   1.741   1.560
 1383SOL    HW1 4155   2.161   1.782   1.558
 1383SOL    HW2 4156   2.245   1.647   1.592
 1384SOL     OW 4157   3.536   0.883   1.254
 1384SOL    HW1 4158   3.509   0.794   1.217
 1384SOL    HW2 4159   3.537   0.951   1.181
 1385SOL     OW 4160   3.087   0.325   0.449
 1385SOL    HW1 4161   3.152   0.251   0.438
 1385SOL    HW2 4162   3.107   0.375   0.533
 1386SOL     OW 4163   2.456   0.745   0.652
 1386SOL    HW1 4164   2.506   0.830   0.633
 1386SOL    HW2 4165   2.368   0.747   0.604
 1387SOL     OW 4166   3.639   0.342   1.642
 1387SOL    HW1 4167   3.622   0.373   1.548
 1387SOL    HW2 4168   3.555   0.305   1.680
 1388SOL     OW 4169   3.592   0.934   1.517
 1388SOL    HW1 4170   3.630   1.025   1.532
 1388SOL    HW2 4171   3.584   0.917   1.418
 1389SOL     OW 4172   2.721   1.374   0.016
 1389SOL    HW1 4173   2.675   1.389   0.104
 1389SOL    HW2 4174   2.765   1.459  -0.014
 1390SOL     OW 4175   2.523   1.790   0.953
 1390SOL    HW1 4176   2.477   1.878   0.940
 1390SOL    HW2 4177   2.622   1.802   0.946
 1391SOL     OW 4178   2.721   0.956   0.861
 1391SOL    HW1 4179   2.775   0.887   0.909
 1391SOL    HW2 4180   2.689   1.025   0.927
 1392SOL     OW 4181   2.945   0.984   0.087
 1392SOL    HW1 4182   2.922   1.037   0.005
 1392SOL    HW2 4183   3.026   0.928   0.068
 1393SOL     OW 4184   3.723   1.569   0.851
 1393SOL    HW1 4185   3.652   1.557   0.781
 1393SOL    HW2 4186   3.724   1.490   0.911
 1394SOL     OW 4187   2.083   1.314   1.844
 1394SOL    HW1 4188   2.018   1.241   1.823
 1394SOL    HW2 4189   2.087   1.328   1.942
 1395SOL     OW 4190   1.941   1.240   0.653
 1395SOL    HW1 4191   1.940   1.193   0.741
 1395SOL    HW2 4192   2.023   1.212   0.602
 1396SOL     OW 4193   2.534   1.391   1.624
 1396SOL    HW1 4194   2.456   1.341   1.662
 1396SOL    HW2 4195   2.531   1.486   1.655
 1397SOL     OW 4196   3.686   0.192   1.227
 1397SOL    HW1 4197   3.682   0.102   1.271
 1397SOL    HW2 4198   3.689   0.181   1.128
 1398SOL     OW 4199   2.290   0.424   0.520
 1398SOL    HW1 4200   2.320   0.352   0.458
 1398SOL    HW2 4201   2.251   0.384   0.603
 1399SOL     OW 4202   3.567   1.487   1.104
 1399SOL    HW1 4203   3.474   1.462   1.077
 1399SOL    HW2 4204   3.593   1.437   1.186
 1400SOL     OW 4205   2.179   0.547   1.280
 1400SOL    HW1 4206   2.217   0.488   1.352
 1400SOL    HW2 4207   2.219   0.521   1.192
 1401SOL     OW 4208   2.674   1.586   0.687
 1401SOL    HW1 4209   2.706   1.596   0.593
 1401SOL    HW2 4210   2.595   1.524   0.689
 1402SOL     OW 4211   3.286   0.214   1.112
 1402SOL    HW1 4212   3.338   0.149   1.167
 1402SOL    HW2 4213   3.237   0.277   1.173
 1403SOL     OW 4214   2.863   0.034   1.154
 1403SOL    HW1 4215   2.800  -0.038   1.123
 1403SOL    HW2 4216   2.956  -0.002   1.154
 1404SOL     OW 4217   2.632   1.330   0.301
 1404SOL    HW1 4218   2.586   1.243   0.318
 1404SOL    HW2 4219   2.723   1.327   0.342
 1405SOL     OW 4220   2.480   1.567   1.284
 1405SOL    HW1 4221   2.475   1.649   1.341
 1405SOL    HW2 4222   2.569   1.564   1.239
 1406SOL     OW 4223   3.214   0.052   0.168
 1406SOL    HW1 4224   3.249   0.011   0.084
 1406SOL    HW2 4225   3.124   0.014   0.188
 1407SOL     OW 4226   3.162   0.453   0.691
 1407SOL    HW1 4227   3.103   0.533   0.695
 1407SOL    HW2 4228   3.177   0.418   0.784
 1408SOL     OW 4229   3.455   0.221   0.882
 1408SOL    HW1 4230   3.371   0.220   0.936
 1408SOL    HW2 4231   3.457   0.304   0.826
 1409SOL     OW 4232   1.901   1.077   0.300
 1409SOL    HW1 4233   2.000   1.066   0.291
 1409SOL    HW2 4234   1.861   0.991   0.332
 1410SOL     OW 4235   2.737   1.646   0.337
 1410SOL    HW1 4236   2.660   1.611   0.283
 1410SOL    HW2 4237   2.705   1.717   0.399
 1411SOL     OW 4238   2.092   0.628   1.975
 1411SOL    HW1 4239   1.999   0.626   2.012
 1411SOL    HW2 4240   2.093   0.589   1.883
 1412SOL     OW 4241   2.087   0.275   2.858
 1412SOL    HW1 4242   2.122   0.258   2.950
 1412SOL    HW2 4243   1.999   0.230   2.846
 1413SOL     OW 4244   1.881   0.368   2.509
 1413SOL    HW1 4245   1.799   0.411   2.548
 1413SOL    HW2 4246   1.853   0.295   2.446
 1414SOL     OW 4247   2.431   1.275   3.027
 1414SOL    HW1 4248   2.338   1.268   2.990
 1414SOL    HW2 4249   2.442   1.364   3.071
 1415SOL     OW 4250   3.417   1.511   2.565
 1415SOL    HW1 4251   3.360   1.495   2.646
 1415SOL    HW2 4252   3.358   1.521   2.485
 1416SOL     OW 4253   2.997   0.703   2.579
 1416SOL    HW1 4254   3.054   0.781   2.554
 1416SOL    HW2 4255   2.937   0.729   2.655
 1417SOL     OW 4256   3.617   0.607   2.093
 1417SOL    HW1 4257   3.605   0.594   1.994
 1417SOL    HW2 4258   3.587   0.526   2.142
 1418SOL     OW 4259   2.630   1.144   2.885
 1418SOL    HW1 4260   2.552   1.161   2.945
 1418SOL    HW2 4261   2.664   1.231   2.849
 1419SOL     OW 4262   2.712   0.798   3.685
 1419SOL    HW1 4263   2.708   0.874   3.750
 1419SOL    HW2 4264   2.734   0.834   3.594
 1420SOL     OW 4265   2.547   1.012   2.527
 1420SOL    HW1 4266   2.616   0.996   2.597
 1420SOL    HW2 4267   2.474   1.069   2.565
 1421SOL     OW 4268   2.548   1.161   3.665
 1421SOL    HW1 4269   2.608   1.240   3.679
 1421SOL    HW2 4270   2.462   1.192   3.624
 1422SOL     OW 4271   2.197   1.435   2.923
 1422SOL    HW1 4272   2.119   1.404   2.870
 1422SOL    HW2 4273   2.255   1.493   2.866
 1423SOL     OW 4274   3.322   1.505   3.201
 1423SOL    HW1 4275   3.346   1.599   3.227
 1423SOL    HW2 4276   3.306   1.451   3.283
 1424SOL     OW 4277   2.300   0.392   3.361
 1424SOL    HW1 4278   2.382   0.336   3.370
 1424SOL    HW2 4279   2.219   0.334   3.365
 1425SOL     OW 4280   3.465   0.447   2.599
 1425SOL    HW1 4281   3.391   0.493   2.549
 1425SOL    HW2 4282   3.516   0.515   2.652
 1426SOL     OW 4283   2.093   1.713   2.345
 1426SOL    HW1 4284   2.127   1.790   2.399
 1426SOL    HW2 4285   2.137   1.713   2.255
 1427SOL     OW 4286   2.989   1.341   3.552
 1427SOL    HW1 4287   3.036   1.341   3.640
 1427SOL    HW2 4288   2.941   1.254   3.541
 1428SOL     OW 4289   2.092   1.434   2.400
 1428SOL    HW1 4290   2.066   1.530   2.400
 1428SOL    HW2 4291   2.021   1.380   2.445
 1429SOL     OW 4292   2.102   1.091   2.748
 1429SOL    HW1 4293   2.116   1.007   2.800
 1429SOL    HW2 4294   2.047   1.155   2.803
 1430SOL     OW 4295   2.482   1.786   3.301
 1430SOL    HW1 4296   2.390   1.769   3.336
 1430SOL    HW2 4297   2.510   1.878   3.327
 1431SOL     OW 4298   2.468   0.964   1.985
 1431SOL    HW1 4299   2.475   1.048   1.931
 1431SOL    HW2 4300   2.514   0.977   2.073
 1432SOL     OW 4301   3.456   0.114   3.342
 1432SOL    HW1 4302   3.438   0.181   3.270
 1432SOL    HW2 4303   3.453   0.160   3.431
 1433SOL     OW 4304   1.984   0.643   2.425
 1433SOL    HW1 4305   1.939   0.555   2.442
 1433SOL    HW2 4306   1.983   0.697   2.509
 1434SOL     OW 4307   3.704   1.767   2.221
 1434SOL    HW1 4308   3.758   1.738   2.301
 1434SOL    HW2 4309   3.734   1.857   2.192
 1435SOL     OW 4310   1.889   1.596   1.979
 1435SOL    HW1 4311   1.870   1.500   2.000
 1435SOL    HW2 4312   1.856   1.654   2.054
 1436SOL     OW 4313   3.551   0.922   2.474
 1436SOL    HW1 4314   3.646   0.893   2.482
 1436SOL    HW2 4315   3.543   0.987   2.399
 1437SOL     OW 4316   3.503   1.108   2.294
 1437SOL    HW1 4317   3.589   1.110   2.242
 1437SOL    HW2 4318   3.517   1.155   2.382
 1438SOL     OW 4319   1.975   0.737   3.459
 1438SOL    HW1 4320   2.063   0.724   3.504
 1438SOL    HW2 4321   1.962   0.834   3.437
 1439SOL     OW 4322   2.475   1.365   2.588
 1439SOL    HW1 4323   2.426   1.278   2.597
 1439SOL    HW2 4324   2.452   1.408   2.501
 1440SOL     OW 4325   3.155   1.228   3.285
 1440SOL    HW1 4326   3.192   1.155   3.227
 1440SOL    HW2 4327   3.207   1.233   3.370
 1441SOL     OW 4328   2.671   0.004   2.364
 1441SOL    HW1 4329   2.711   0.095   2.355
 1441SOL    HW2 4330   2.571   0.012   2.370
 1442SOL     OW 4331   2.059   0.976   3.126
 1442SOL    HW1 4332   2.148   0.931   3.112
 1442SOL    HW2 4333   1.986   0.911   3.107
 1443SOL     OW 4334   3.387   0.999   2.052
 1443SOL    HW1 4335   3.324   0.923   2.065
 1443SOL    HW2 4336   3.435   1.017   2.138
 1444SOL     OW 4337   3.049   1.792   3.478
 1444SOL    HW1 4338   3.073   1.852   3.402
 1444SOL    HW2 4339   3.056   1.697   3.448
 1445SOL     OW 4340   2.179   0.251   3.663
 1445SOL    HW1 4341   2.250   0.322   3.669
 1445SOL    HW2 4342   2.091   0.290   3.691
 1446SOL     OW 4343   3.328   1.417   2.815
 1446SOL    HW1 4344   3.269   1.423   2.895
 1446SOL    HW2 4345   3.313   1.329   2.769
 1447SOL     OW 4346   3.529   1.714   2.434
 1447SOL    HW1 4347   3.488   1.691   2.346
 1447SOL    HW2 4348   3.511   1.640   2.499
 1448SOL     OW 4349   2.460   0.729   2.132
 1448SOL    HW1 4350   2.484   0.798   2.064
 1448SOL    HW2 4351   2.382   0.762   2.186
 1449SOL     OW 4352   3.143   0.345   2.806
 1449SOL    HW1 4353   3.057   0.295   2.793
 1449SOL    HW2 4354   3.205   0.291   2.862
 1450SOL     OW 4355   3.438   1.662   2.169
 1450SOL    HW1 4356   3.527   1.708   2.172
 1450SOL    HW2 4357   3.417   1.638   2.074
 1451SOL     OW 4358   2.669   0.605   3.327
 1451SOL    HW1 4359   2.622   0.602   3.416
 1451SOL    HW2 4360   2.618   0.550   3.261
 1452SOL     OW 4361   3.256   0.469   3.536
 1452SOL    HW1 4362   3.236   0.512   3.624
 1452SOL    HW2 4363   3.334   0.407   3.545
 1453SOL     OW 4364   2.835   0.890   3.434
 1453SOL    HW1 4365   2.881   0.806   3.405
 1453SOL    HW2 4366   2.779   0.924   3.359
 1454SOL     OW 4367   2.853   0.410   3.104
 1454SOL    HW1 4368   2.776   0.444   3.158
 1454SOL    HW2 4369   2.819   0.359   3.025
 1455SOL     OW 4370   2.903   0.701   2.291
 1455SOL    HW1 4371   2.929   0.697   2.387
 1455SOL    HW2 4372   2.818   0.650   2.277
 1456SOL     OW 4373   1.938   0.811   2.651
 1456SOL    HW1 4374   2.037   0.799   2.660
 1456SOL    HW2 4375   1.914   0.906   2.672
 1457SOL     OW 4376   1.992   1.821   3.433
 1457SOL    HW1 4377   1.982   1.806   3.532
 1457SOL    HW2 4378   1.906   1.857   3.397
 1458SOL     OW 4379   2.727   0.348   2.057
 1458SOL    HW1 4380   2.786   0.411   2.008
 1458SOL    HW2 4381   2.746   0.254   2.028
 1459SOL     OW 4382   3.581   0.585   3.693
 1459SOL    HW1 4383   3.555   0.674   3.657
 1459SOL    HW2 4384   3.579   0.517   3.620
 1460SOL     OW 4385   3.224   1.144   2.407
 1460SOL    HW1 4386   3.307   1.115   2.359
 1460SOL    HW2 4387   3.175   1.211   2.351
 1461SOL     OW 4388   2.412   0.196   2.747
 1461SOL    HW1 4389   2.407   0.191   2.847
 1461SOL    HW2 4390   2.414   0.292   2.718
 1462SOL     OW 4391   2.870   1.456   2.339
 1462SOL    HW1 4392   2.824   1.528   2.287
 1462SOL    HW2 4393   2.866   1.476   2.437
 1463SOL     OW 4394   2.213   1.801   2.715
 1463SOL    HW1 4395   2.263   1.715   2.721
 1463SOL    HW2 4396   2.278   1.878   2.712
 1464SOL     OW 4397   3.657   1.066   2.735
 1464SOL    HW1 4398   3.595   1.051   2.659
 1464SOL    HW2 4399   3.605   1.077   2.820
 1465SOL     OW 4400   3.089   1.550   3.368
 1465SOL    HW1 4401   3.095   1.473   3.432
 1465SOL    HW2 4402   3.037   1.524   3.288
 1466SOL     OW 4403   2.183   0.943   2.104
 1466SOL    HW1 4404   2.265   0.982   2.062
 1466SOL    HW2 4405   2.156   0.861   2.055
 1467SOL     OW 4406   3.320   0.735   2.590
 1467SOL    HW1 4407   3.315   0.670   2.665
 1467SOL    HW2 4408   3.400   0.794   2.603
 1468SOL     OW 4409   2.323   1.266   3.589
 1468SOL    HW1 4410   2.273   1.267   3.503
 1468SOL    HW2 4411   2.260   1.248   3.665
 1469SOL     OW 4412   2.973   1.776   2.099
 1469SOL    HW1 4413   2.913   1.714   2.149
 1469SOL    HW2 4414   3.004   1.732   2.014
 1470SOL     OW 4415   2.064   0.285   3.360
 1470SOL    HW1 4416   1.984   0.345   3.347
 1470SOL    HW2 4417   2.054   0.236   3.446
 1471SOL     OW 4418   3.494   1.377   1.943
 1471SOL    HW1 4419   3.462   1.471   1.933
 1471SOL    HW2 4420   3.418   1.314   1.931
 1472SOL     OW 4421   2.326   1.743   2.185
 1472SOL    HW1 4422   2.359   1.782   2.271
 1472SOL    HW2 4423   2.402   1.736   2.120
 1473SOL     OW 4424   3.262   0.107   2.288
 1473SOL    HW1 4425   3.238   0.070   2.198
 1473SOL    HW2 4426   3.361   0.123   2.292
 1474SOL     OW 4427   2.111   1.785   3.103
 1474SOL    HW1 4428   2.168   1.720   3.153
 1474SOL    HW2 4429   2.095   1.752   3.010
 1475SOL     OW 4430   2.802   1.698   2.766
 1475SOL    HW1 4431   2.882   1.641   2.787
 1475SOL    HW2 4432   2.753   1.658   2.689
 1476SOL     OW 4433   2.244   0.700   2.342
 1476SOL    HW1 4434   2.289   0.610   2.339
 1476SOL    HW2 4435   2.150   0.689   2.375
 1477SOL     OW 4436   3.409   0.222   3.591
 1477SOL    HW1 4437   3.404   0.259   3.683
 1477SOL    HW2 4438   3.337   0.153   3.579
 1478SOL     OW 4439   2.476   0.122   1.979
 1478SOL    HW1 4440   2.574   0.100   1.986
 1478SOL    HW2 4441   2.445   0.105   1.886
 1479SOL     OW 4442   2.643   0.264   3.611
 1479SOL    HW1 4443   2.710   0.203   3.654
 1479SOL    HW2 4444   2.570   0.283   3.676
 1480SOL     OW 4445   2.750   1.514   3.057
 1480SOL    HW1 4446   2.727   1.489   2.963
 1480SOL    HW2 4447   2.811   1.445   3.096
 1481SOL     OW 4448   3.213   0.590   3.295
 1481SOL    HW1 4449   3.241   0.547   3.380
 1481SOL    HW2 4450   3.238   0.686   3.296
 1482SOL     OW 4451   2.665   1.402   2.786
 1482SOL    HW1 4452   2.755   1.416   2.744
 1482SOL    HW2 4453   2.594   1.404   2.715
 1483SOL     OW 4454   2.784   0.503   2.761
 1483SOL    HW1 4455   2.759   0.494   2.665
 1483SOL    HW2 4456   2.832   0.421   2.792
 1484SOL     OW 4457   2.401   0.064   2.374
 1484SOL    HW1 4458   2.320   0.065   2.432
 1484SOL    HW2 4459   2.404   0.147   2.319
 1485SOL     OW 4460   3.296   1.188   1.903
 1485SOL    HW1 4461   3.328   1.112   1.960
 1485SOL    HW2 4462   3.204   1.215   1.933
 1486SOL     OW 4463   2.159   0.035   2.033
 1486SOL    HW1 4464   2.208   0.119   2.012
 1486SOL    HW2 4465   2.221  -0.030   2.078
 1487SOL     OW 4466   2.797   0.236   2.342
 1487SOL    HW1 4467   2.749   0.277   2.264
 1487SOL    HW2 4468   2.896   0.234   2.323
 1488SOL     OW 4469   2.938   0.683   3.326
 1488SOL    HW1 4470   2.858   0.622   3.329
 1488SOL    HW2 4471   3.019   0.630   3.302
 1489SOL     OW 4472   3.089   1.570   2.655
 1489SOL    HW1 4473   3.110   1.644   2.590
 1489SOL    HW2 4474   3.157   1.570   2.728
 1490SOL     OW 4475   2.321   1.152   2.603
 1490SOL    HW1 4476   2.250   1.125   2.668
 1490SOL    HW2 4477   2.295   1.124   2.510
 1491SOL     OW 4478   3.133   1.797   2.453
 1491SOL    HW1 4479   3.177   1.861   2.389
 1491SOL    HW2 4480   3.083   1.849   2.523
 1492SOL     OW 4481   2.894   0.549   1.878
 1492SOL    HW1 4482   2.853   0.631   1.839
 1492SOL    HW2 4483   2.958   0.575   1.951
 1493SOL     OW 4484   1.940   0.556   3.248
 1493SOL    HW1 4485   2.032   0.555   3.207
 1493SOL    HW2 4486   1.934   0.630   3.315
 1494SOL     OW 4487   2.423   0.222   3.009
 1494SOL    HW1 4488   2.461   0.138   3.046
 1494SOL    HW2 4489   2.335   0.241   3.053
 1495SOL     OW 4490   2.728   0.454   2.504
 1495SOL    HW1 4491   2.696   0.526   2.442
 1495SOL    HW2 4492   2.752   0.373   2.451
 1496SOL     OW 4493   2.879   0.039   2.615
 1496SOL    HW1 4494   2.807   0.044   2.546
 1496SOL    HW2 4495   2.855  -0.030   2.684
 1497SOL     OW 4496   3.291   1.173   2.729
 1497SOL    HW1 4497   3.236   1.089   2.722
 1497SOL    HW2 4498   3.317   1.202   2.637
 1498SOL     OW 4499   3.328   0.590   2.854
 1498SOL    HW1 4500   3.298   0.495   2.861
 1498SOL    HW2 4501   3.401   0.606   2.920
 1499SOL     OW 4502   3.719   0.833   2.239
 1499SOL    HW1 4503   3.761   0.769   2.303
 1499SOL    HW2 4504   3.681   0.782   2.161
 1500SOL     OW 4505   2.350   1.385   2.036
 1500SOL    HW1 4506   2.263   1.370   2.083
 1500SOL    HW2 4507   2.333   1.411   1.941
 1501SOL     OW 4508   3.526   1.280   2.519
 1501SOL    HW1 4509   3.625   1.288   2.533
 1501SOL    HW2 4510   3.481   1.364   2.550
 1502SOL     OW 4511   3.252   0.575   1.940
 1502SOL    HW1 4512   3.198   0.554   2.021
 1502SOL    HW2 4513   3.343   0.534   1.949
 1503SOL     OW 4514   2.389   0.256   2.190
 1503SOL    HW1 4515   2.416   0.197   2.115
 1503SOL    HW2 4516   2.389   0.351   2.159
 1504SOL     OW 4517   3.616   1.223   3.450
 1504SOL    HW1 4518   3.707   1.184   3.437
 1504SOL    HW2 4519   3.624   1.319   3.474
 1505SOL     OW 4520   2.926   1.347   3.202
 1505SOL    HW1 4521   2.846   1.324   3.257
 1505SOL    HW2 4522   3.009   1.321   3.251
 1506SOL     OW 4523   3.454   1.629   3.487
 1506SOL    HW1 4524   3.481   1.663   3.397
 1506SOL    HW2 4525   3.533   1.591   3.533
 1507SOL     OW 4526   2.973   1.195   2.962
 1507SOL    HW1 4527   2.933   1.239   3.043
 1507SOL    HW2 4528   2.932   1.232   2.879
 1508SOL     OW 4529   3.500   1.099   2.941
 1508SOL    HW1 4530   3.505   1.180   3.000
 1508SOL    HW2 4531   3.414   1.101   2.890
 1509SOL     OW 4532   2.777   0.089   3.264
 1509SOL    HW1 4533   2.802   0.069   3.169
 1509SOL    HW2 4534   2.849   0.145   3.306
 1510SOL     OW 4535   2.842   1.116   3.581
 1510SOL    HW1 4536   2.743   1.122   3.591
 1510SOL    HW2 4537   2.865   1.036   3.525
 1511SOL     OW 4538   2.567   1.050   2.230
 1511SOL    HW1 4539   2.553   1.057   2.329
 1511SOL    HW2 4540   2.651   0.999   2.212
 1512SOL     OW 4541   2.272   0.813   3.113
 1512SOL    HW1 4542   2.358   0.825   3.163
 1512SOL    HW2 4543   2.230   0.726   3.140
 1513SOL     OW 4544   3.136   0.386   3.124
 1513SOL    HW1 4545   3.157   0.460   3.188
 1513SOL    HW2 4546   3.047   0.403   3.081
 1514SOL     OW 4547   1.926   1.564   3.193
 1514SOL    HW1 4548   1.880   1.646   3.159
 1514SOL    HW2 4549   2.024   1.583   3.202
 1515SOL     OW 4550   2.229   1.100   2.363
 1515SOL    HW1 4551   2.222   1.183   2.307
 1515SOL    HW2 4552   2.233   1.020   2.303
 1516SOL     OW 4553   2.428   0.537   2.727
 1516SOL    HW1 4554   2.440   0.603   2.653
 1516SOL    HW2 4555   2.474   0.571   2.810
 1517SOL     OW 4556   3.114   1.348   2.250
 1517SOL    HW1 4557   3.164   1.425   2.290
 1517SOL    HW2 4558   3.019   1.350   2.282
 1518SOL     OW 4559   3.134   1.445   3.004
 1518SOL    HW1 4560   3.181   1.458   3.091
 1518SOL    HW2 4561   3.068   1.371   3.013
 1519SOL     OW 4562   3.444   0.639   2.334
 1519SOL    HW1 4563   3.413   0.700   2.407
 1519SOL    HW2 4564   3.494   0.691   2.265
 1520SOL     OW 4565   2.216   1.510   3.191
 1520SOL    HW1 4566   2.195   1.466   3.104
 1520SOL    HW2 4567   2.313   1.536   3.194
 1521SOL     OW 4568   2.264   0.751   3.460
 1521SOL    HW1 4569   2.332   0.806   3.413
 1521SOL    HW2 4570   2.304   0.663   3.487
 1522SOL     OW 4571   3.449   0.779   3.532
 1522SOL    HW1 4572   3.357   0.817   3.527
 1522SOL    HW2 4573   3.509   0.826   3.467
 1523SOL     OW 4574   2.875   0.105   3.632
 1523SOL    HW1 4575   2.881   0.190   3.580
 1523SOL    HW2 4576   2.907   0.029   3.575
 1524SOL     OW 4577   2.366   0.050   3.602
 1524SOL    HW1 4578   2.324  -0.007   3.532
 1524SOL    HW2 4579   2.300   0.119   3.634
 1525SOL     OW 4580   2.435   0.870   2.891
 1525SOL    HW1 4581   2.479   0.959   2.882
 1525SOL    HW2 4582   2.372   0.870   2.968
 1526SOL     OW 4583   3.222   0.862   2.907
 1526SOL    HW1 4584   3.147   0.862   2.841
 1526SOL    HW2 4585   3.259   0.770   2.916
 1527SOL     OW 4586   3.071   0.525   2.137
 1527SOL    HW1 4587   3.084   0.441   2.191
 1527SOL    HW2 4588   3.042   0.599   2.197
 1528SOL     OW 4589   2.169   0.213   3.093
 1528SOL    HW1 4590   2.146   0.250   3.183
 1528SOL    HW2 4591   2.139   0.118   3.087
 1529SOL     OW 4592   1.899   1.310   3.144
 1529SOL    HW1 4593   1.952   1.261   3.212
 1529SOL    HW2 4594   1.921   1.408   3.149
 1530SOL     OW 4595   2.594   0.634   2.926
 1530SOL    HW1 4596   2.653   0.608   2.850
 1530SOL    HW2 4597   2.566   0.730   2.915
 1531SOL     OW 4598   3.590   0.935   3.716
 1531SOL    HW1 4599   3.544   0.928   3.627
 1531SOL    HW2 4600   3.528   0.979   3.782
 1532SOL     OW 4601   2.169   0.063   2.480
 1532SOL    HW1 4602   2.158   0.157   2.513
 1532SOL    HW2 4603   2.164   0.000   2.557
 1533SOL     OW 4604   3.484   0.367   2.236
 1533SOL    HW1 4605   3.486   0.291   2.300
 1533SOL    HW2 4606   3.436   0.444   2.276
 1534SOL     OW 4607   2.885   0.766   2.828
 1534SOL    HW1 4608   2.900   0.787   2.924
 1534SOL    HW2 4609   2.855   0.671   2.819
 1535SOL     OW 4610   2.842   1.573   3.562
 1535SOL    HW1 4611   2.822   1.617   3.474
 1535SOL    HW2 4612   2.881   1.482   3.546
 1536SOL     OW 4613   3.721   1.518   3.467
 1536SOL    HW1 4614   3.735   1.545   3.372
 1536SOL    HW2 4615   3.804   1.540   3.520
 1537SOL     OW 4616   2.212   0.898   3.666
 1537SOL    HW1 4617   2.288   0.942   3.714
 1537SOL    HW2 4618   2.247   0.851   3.584
 1538SOL     OW 4619   3.402   0.274   1.987
 1538SOL    HW1 4620   3.341   0.199   2.010
 1538SOL    HW2 4621   3.424   0.326   2.070
 1539SOL     OW 4622   3.165   0.838   1.904
 1539SOL    HW1 4623   3.199   0.745   1.919
 1539SOL    HW2 4624   3.183   0.865   1.809
 1540SOL     OW 4625   2.930   1.333   2.711
 1540SOL    HW1 4626   2.937   1.249   2.656
 1540SOL    HW2 4627   2.992   1.402   2.675
 1541SOL     OW 4628   2.181   0.810   2.811
 1541SOL    HW1 4629   2.274   0.846   2.816
 1541SOL    HW2 4630   2.175   0.725   2.863
 1542SOL     OW 4631   2.201   0.509   2.868
 1542SOL    HW1 4632   2.149   0.426   2.851
 1542SOL    HW2 4633   2.278   0.514   2.804
 1543SOL     OW 4634   3.000   0.380   3.540
 1543SOL    HW1 4635   2.955   0.443   3.604
 1543SOL    HW2 4636   3.093   0.411   3.523
 1544SOL     OW 4637   3.022   0.207   3.339
 1544SOL    HW1 4638   3.022   0.271   3.416
 1544SOL    HW2 4639   3.050   0.255   3.256
 1545SOL     OW 4640   1.870   1.326   2.062
 1545SOL    HW1 4641   1.777   1.347   2.031
 1545SOL    HW2 4642   1.880   1.227   2.075
 1546SOL     OW 4643   1.950   1.801   2.789
 1546SOL    HW1 4644   1.908   1.715   2.762
 1546SOL    HW2 4645   2.044   1.804   2.755
 1547SOL     OW 4646   2.366   1.568   2.772
 1547SOL    HW1 4647   2.432   1.642   2.781
 1547SOL    HW2 4648   2.410   1.489   2.730
 1548SOL     OW 4649   2.864   0.796   3.100
 1548SOL    HW1 4650   2.905   0.764   3.186
 1548SOL    HW2 4651   2.768   0.769   3.097
 1549SOL     OW 4652   1.902   0.544   2.976
 1549SOL    HW1 4653   1.987   0.511   2.935
 1549SOL    HW2 4654   1.915   0.559   3.074
 1550SOL     OW 4655   2.051   0.520   3.584
 1550SOL    HW1 4656   2.110   0.480   3.514
 1550SOL    HW2 4657   1.993   0.591   3.543
 1551SOL     OW 4658   3.231   0.950   3.522
 1551SOL    HW1 4659   3.270   1.039   3.542
 1551SOL    HW2 4660   3.241   0.930   3.425
 1552SOL     OW 4661   2.677   0.572   2.187
 1552SOL    HW1 4662   2.684   0.483   2.141
 1552SOL    HW2 4663   2.583   0.606   2.179
 1553SOL     OW 4664   3.519   0.604   3.068
 1553SOL    HW1 4665   3.481   0.535   3.130
 1553SOL    HW2 4666   3.601   0.568   3.024
 1554SOL     OW 4667   2.114   1.564   3.606
 1554SOL    HW1 4668   2.084   1.621   3.682
 1554SOL    HW2 4669   2.107   1.467   3.632
 1555SOL     OW 4670   2.533   0.464   3.131
 1555SOL    HW1 4671   2.499   0.375   3.101
 1555SOL    HW2 4672   2.559   0.518   3.051
 1556SOL     OW 4673   2.792   1.678   3.327
 1556SOL    HW1 4674   2.768   1.660   3.232
 1556SOL    HW2 4675   2.822   1.772   3.337
 1557SOL     OW 4676   2.335   0.500   2.053
 1557SOL    HW1 4677   2.396   0.580   2.057
 1557SOL    HW2 4678   2.240   0.531   2.060
 1558SOL     OW 4679   2.021   1.137   3.328
 1558SOL    HW1 4680   2.043   1.076   3.404
 1558SOL    HW2 4681   2.031   1.088   3.242
 1559SOL     OW 4682   3.209   1.059   3.096
 1559SOL    HW1 4683   3.233   0.996   3.022
 1559SOL    HW2 4684   3.119   1.099   3.078
 1560SOL     OW 4685   3.164   0.855   2.171
 1560SOL    HW1 4686   3.078   0.824   2.213
 1560SOL    HW2 4687   3.160   0.841   2.072
 1561SOL     OW 4688   3.621   1.747   3.016
 1561SOL    HW1 4689   3.682   1.777   2.943
 1561SOL    HW2 4690   3.583   1.658   2.994
 1562SOL     OW 4691   3.114   1.731   2.990
 1562SOL    HW1 4692   3.198   1.736   2.936
 1562SOL    HW2 4693   3.091   1.635   3.008
 1563SOL     OW 4694   1.945   1.258   2.884
 1563SOL    HW1 4695   1.940   1.257   2.984
 1563SOL    HW2 4696   1.862   1.217   2.846
 1564SOL     OW 4697   2.550   1.662   3.578
 1564SOL    HW1 4698   2.494   1.743   3.587
 1564SOL    HW2 4699   2.602   1.666   3.492
 1565SOL     OW 4700   3.588   0.135   2.385
 1565SOL    HW1 4701   3.661   0.118   2.318
 1565SOL    HW2 4702   3.557   0.048   2.423
 1566SOL     OW 4703   3.250   1.573   2.339
 1566SOL    HW1 4704   3.317   1.585   2.265
 1566SOL    HW2 4705   3.210   1.662   2.362
 1567SOL     OW 4706   1.992   1.794   3.713
 1567SOL    HW1 4707   1.951   1.720   3.766
 1567SOL    HW2 4708   2.056   1.845   3.771
 1568SOL     OW 4709   3.142   0.927   2.534
 1568SOL    HW1 4710   3.202   0.846   2.536
 1568SOL    HW2 4711   3.182   0.996   2.474
 1569SOL     OW 4712   2.692   1.273   3.284
 1569SOL    HW1 4713   2.687   1.306   3.379
 1569SOL    HW2 4714   2.606   1.292   3.238
 1570SOL     OW 4715   2.534   1.616   2.016
 1570SOL    HW1 4716   2.543   1.626   1.917
 1570SOL    HW2 4717   2.494   1.527   2.037
 1571SOL     OW 4718   3.512   1.720   3.256
 1571SOL    HW1 4719   3.565   1.730   3.172
 1571SOL    HW2 4720   3.485   1.810   3.290
 1572SOL     OW 4721   3.703   0.175   2.825
 1572SOL    HW1 4722   3.742   0.090   2.789
 1572SOL    HW2 4723   3.605   0.177   2.806
 1573SOL     OW 4724   2.125   0.326   2.582
 1573SOL    HW1 4725   2.046   0.377   2.548
 1573SOL    HW2 4726   2.116   0.311   2.680
 1574SOL     OW 4727   3.056   1.612   1.893
 1574SOL    HW1 4728   3.062   1.519   1.930
 1574SOL    HW2 4729   2.997   1.612   1.813
 1575SOL     OW 4730   2.684   1.002   3.234
 1575SOL    HW1 4731   2.724   1.001   3.142
 1575SOL    HW2 4732   2.694   1.094   3.274
 1576SOL     OW 4733   2.778   0.910   2.153
 1576SOL    HW1 4734   2.841   0.948   2.085
 1576SOL    HW2 4735   2.818   0.827   2.192
 1577SOL     OW 4736   3.366   1.607   1.906
 1577SOL    HW1 4737   3.274   1.644   1.913
 1577SOL    HW2 4738   3.404   1.627   1.816
 1578SOL     OW 4739   2.234   1.288   3.352
 1578SOL    HW1 4740   2.221   1.381   3.318
 1578SOL    HW2 4741   2.150   1.236   3.339
 1579SOL     OW 4742   3.476   1.292   3.151
 1579SOL    HW1 4743   3.536   1.295   3.231
 1579SOL    HW2 4744   3.401   1.356   3.164
 1580SOL     OW 4745   2.901   1.098   2.558
 1580SOL    HW1 4746   2.831   1.051   2.612
 1580SOL    HW2 4747   2.960   1.030   2.515
 1581SOL     OW 4748   2.876   0.236   2.833
 1581SOL    HW1 4749   2.868   0.200   2.740
 1581SOL    HW2 4750   2.874   0.160   2.898
 1582SOL     OW 4751   2.452   1.487   2.353
 1582SOL    HW1 4752   2.494   1.429   2.283
 1582SOL    HW2 4753   2.408   1.566   2.309
 1583SOL     OW 4754   3.571   0.385   3.243
 1583SOL    HW1 4755   3.644   0.454   3.247
 1583SOL    HW2 4756   3.599   0.310   3.184
 1584SOL     OW 4757   2.117   1.348   2.152
 1584SOL    HW1 4758   2.021   1.349   2.125
 1584SOL    HW2 4759   2.129   1.401   2.236
 1585SOL     OW 4760   1.967   1.013   3.588
 1585SOL    HW1 4761   1.890   0.980   3.642
 1585SOL    HW2 4762   2.052   0.983   3.630
 1586SOL     OW 4763   2.534   0.203   3.351
 1586SOL    HW1 4764   2.624   0.187   3.311
 1586SOL    HW2 4765   2.542   0.208   3.450
 1587SOL     OW 4766   1.937   0.345   1.895
 1587SOL    HW1 4767   1.845   0.317   1.866
 1587SOL    HW2 4768   1.968   0.422   1.839
 1588SOL     OW 4769   3.302   0.856   3.260
 1588SOL    HW1 4770   3.245   0.908   3.197
 1588SOL    HW2 4771   3.398   0.868   3.236
 1589SOL     OW 4772   1.934   0.166   2.180
 1589SOL    HW1 4773   1.917   0.249   2.126
 1589SOL    HW2 4774   2.024   0.129   2.158
 1590SOL     OW 4775   3.045   1.335   1.981
 1590SOL    HW1 4776   2.946   1.324   1.983
 1590SOL    HW2 4777   3.079   1.350   2.074
 1591SOL     OW 4778   2.475   0.842   3.293
 1591SOL    HW1 4779   2.531   0.923   3.276
 1591SOL    HW2 4780   2.534   0.762   3.296
 1592SOL     OW 4781   3.355   1.767   2.821
 1592SOL    HW1 4782   3.388   1.831   2.752
 1592SOL    HW2 4783   3.421   1.761   2.896
 1593SOL     OW 4784   2.578   0.565   3.570
 1593SOL    HW1 4785   2.597   0.630   3.644
 1593SOL    HW2 4786   2.638   0.485   3.579
 1594SOL     OW 4787   3.312   1.220   3.495
 1594SOL    HW1 4788   3.303   1.210   3.594
 1594SOL    HW2 4789   3.408   1.213   3.469
 1595SOL     OW 4790   2.252   1.741   3.422
 1595SOL    HW1 4791   2.161   1.782   3.420
 1595SOL    HW2 4792   2.245   1.647   3.454
 1596SOL     OW 4793   3.536   0.883   3.116
 1596SOL    HW1 4794   3.509   0.794   3.079
 1596SOL    HW2 4795   3.537   0.951   3.043
 1597SOL     OW 4796   3.087   0.325   2.311
 1597SOL    HW1 4797   3.152   0.251   2.300
 1597SOL    HW2 4798   3.107   0.375   2.395
 1598SOL     OW 4799   2.456   0.745   2.514
 1598SOL    HW1 4800   2.506   0.830   2.495
 1598SOL    HW2 4801   2.368   0.747   2.466
 1599SOL     OW 4802   3.639   0.342   3.504
 1599SOL    HW1 4803   3.622   0.373   3.410
 1599SOL    HW2 4804   3.555   0.305   3.542
 1600SOL     OW 4805   3.592   0.934   3.379
 1600SOL    HW1 4806   3.630   1.025   3.394
 1600SOL    HW2 4807   3.584   0.917   3.280
 1601SOL     OW 4808   2.721   1.374   1.878
 1601SOL    HW1 4809   2.675   1.389   1.966
 1601SOL    HW2 4810   2.765   1.459   1.848
 1602SOL     OW 4811   2.523   1.790   2.815
 1602SOL    HW1 4812   2.477   1.878   2.802
 1602SOL    HW2 4813   2.622   1.802   2.808
 1603SOL     OW 4814   2.721   0.956   2.723
 1603SOL    HW1 4815   2.775   0.887   2.771
 1603SOL    HW2 4816   2.689   1.025   2.789
 1604SOL     OW 4817   2.945   0.984   1.949
 1604SOL    HW1 4818   2.922   1.037   1.867
 1604SOL    HW2 4819   3.026   0.928   1.930
 1605SOL     OW 4820   3.723   1.569   2.713
 1605SOL    HW1 4821   3.652   1.557   2.643
 1605SOL    HW2 4822   3.724   1.490   2.773
 1606SOL     OW 4823   2.083   1.314   3.706
 1606SOL    HW1 4824   2.018   1.241   3.685
 1606SOL    HW2 4825   2.087   1.328   3.804
 1607SOL     OW 4826   1.941   1.240   2.515
 1607SOL    HW1 4827   1.940   1.193   2.603
 1607SOL    HW2 4828   2.023   1.212   2.464
 1608SOL     OW 4829   2.534   1.391   3.486
 1608SOL    HW1 4830   2.456   1.341   3.524
 1608SOL    HW2 4831   2.531   1.486   3.517
 1609SOL     OW 4832   3.686   0.192   3.089
 1609SOL    HW1 4833   3.682   0.102   3.133
 1609SOL    HW2 4834   3.689   0.181   2.990
 1610SOL     OW 4835   2.290   0.424   2.382
 1610SOL    HW1 4836   2.320   0.352   2.320
 1610SOL    HW2 4837   2.251   0.384   2.465
 1611SOL     OW 4838   3.567   1.487   2.966
 1611SOL    HW1 4839   3.474   1.462   2.939
 1611SOL    HW2 4840   3.593   1.437   3.048
 1612SOL     OW 4841   2.179   0.547   3.142
 1612SOL    HW1 4842   2.217   0.488   3.214
 1612SOL    HW2 4843   2.219   0.521   3.054
 1613SOL     OW 4844   2.674   1.586   2.549
 1613SOL    HW1 4845   2.706   1.596   2.455
 1613SOL    HW2 4846   2.595   1.524   2.551
 1614SOL     OW 4847   3.286   0.214   2.974
 1614SOL    HW1 4848   3.338   0.149   3.029
 1614SOL    HW2 4849   3.237   0.277   3.035
 1615SOL     OW 4850   2.863   0.034   3.016
 1615SOL    HW1 4851   2.800  -0.038   2.985
 1615SOL    HW2 4852   2.956  -0.002   3.016
 1616SOL     OW 4853   2.632   1.330   2.163
 1616SOL    HW1 4854   2.586   1.243   2.180
 1616SOL    HW2 4855   2.723   1.327   2.204
 1617SOL     OW 4856   2.480   1.567   3.146
 1617SOL    HW1 4857   2.475   1.649   3.203
 1617SOL    HW2 4858   2.569   1.564   3.101
 1618SOL     OW 4859   3.214   0.052   2.030
 1618SOL    HW1 4860   3.249   0.011   1.946
 1618SOL    HW2 4861   3.124   0.014   2.050
 1619SOL     OW 4862   3.162   0.453   2.553
 1619SOL    HW1 4863   3.103   0.533   2.557
 1619SOL    HW2 4864   3.177   0.418   2.646
 1620SOL     OW 4865   3.455   0.221   2.744
 1620SOL    HW1 4866   3.371   0.220   2.798
 1620SOL    HW2 4867   3.457   0.304   2.688
 1621SOL     OW 4868   1.901   1.077   2.162
 1621SOL    HW1 4869   2.000   1.066   2.153
 1621SOL    HW2 4870   1.861   0.991   2.194
 1622SOL     OW 4871   2.737   1.646   2.199
 1622SOL    HW1 4872   2.660   1.611   2.145
 1622SOL    HW2 4873   2.705   1.717   2.261
 1623SOL     OW 4874   2.092   0.628   3.837
 1623SOL    HW1 4875   1.999   0.626   3.874
 1623SOL    HW2 4876   2.093   0.589   3.745
 1624SOL     OW 4877   3.617   0.607   3.955
 1624SOL    HW1 4878   3.605   0.594   3.856
 1624SOL    HW2 4879   3.587   0.526   4.004
 1625SOL     OW 4880   2.093   1.713   4.207
 1625SOL    HW1 4881   2.127   1.790   4.261
 1625SOL    HW2 4882   2.137   1.713   4.117
 1626SOL     OW 4883   2.092   1.434   4.262
 1626SOL    HW1 4884   2.066   1.530   4.262
 1626SOL    HW2 4885   2.021   1.380   4.307
 1627SOL     OW 4886   2.468   0.964   3.847
 1627SOL    HW1 4887   2.475   1.048   3.793
 1627SOL    HW2 4888   2.514   0.977   3.935
 1628SOL     OW 4889   1.984   0.643   4.287
 1628SOL    HW1 4890   1.939   0.555   4.304
 1628SOL    HW2 4891   1.983   0.697   4.371
 1629SOL     OW 4892   3.704   1.767   4.083
 1629SOL    HW1 4893   3.758   1.738   4.163
 1629SOL    HW2 4894   3.734   1.857   4.054
 1630SOL     OW 4895   1.889   1.596   3.841
 1630SOL    HW1 4896   1.870   1.500   3.862
 1630SOL    HW2 4897   1.856   1.654   3.916
 1631SOL     OW 4898   3.551   0.922   4.336
 1631SOL    HW1 4899   3.646   0.893   4.344
 1631SOL    HW2 4900   3.543   0.987   4.261
 1632SOL     OW 4901   3.503   1.108   4.156
 1632SOL    HW1 4902   3.589   1.110   4.104
 1632SOL    HW2 4903   3.517   1.155   4.244
 1633SOL     OW 4904   2.475   1.365   4.450
 1633SOL    HW1 4905   2.426   1.278   4.459
 1633SOL    HW2 4906   2.452   1.408   4.363
 1634SOL     OW 4907   2.671   0.004   4.226
 1634SOL    HW1 4908   2.711   0.095   4.217
 1634SOL    HW2 4909   2.571   0.012   4.232
 1635SOL     OW 4910   3.387   0.999   3.914
 1635SOL    HW1 4911   3.324   0.923   3.927
 1635SOL    HW2 4912   3.435   1.017   4.000
 1636SOL     OW 4913   3.328   1.417   4.677
 1636SOL    HW1 4914   3.269   1.423   4.757
 1636SOL    HW2 4915   3.313   1.329   4.631
 1637SOL     OW 4916   2.460   0.729   3.994
 1637SOL    HW1 4917   2.484   0.798   3.926
 1637SOL    HW2 4918   2.382   0.762   4.048
 1638SOL     OW 4919   3.438   1.662   4.031
 1638SOL    HW1 4920   3.527   1.708   4.034
 1638SOL    HW2 4921   3.417   1.638   3.936
 1639SOL     OW 4922   2.903   0.701   4.153
 1639SOL    HW1 4923   2.929   0.697   4.249
 1639SOL    HW2 4924   2.818   0.650   4.139
 1640SOL     OW 4925   1.938   0.811   4.513
 1640SOL    HW1 4926   2.037   0.799   4.522
 1640SOL    HW2 4927   1.914   0.906   4.534
 1641SOL     OW 4928   2.727   0.348   3.919
 1641SOL    HW1 4929   2.786   0.411   3.870
 1641SOL    HW2 4930   2.746   0.254   3.890
 1642SOL     OW 4931   3.224   1.144   4.269
 1642SOL    HW1 4932   3.307   1.115   4.221
 1642SOL    HW2 4933   3.175   1.211   4.213
 1643SOL     OW 4934   2.870   1.456   4.201
 1643SOL    HW1 4935   2.824   1.528   4.149
 1643SOL    HW2 4936   2.866   1.476   4.299
 1644SOL     OW 4937   2.213   1.801   4.577
 1644SOL    HW1 4938   2.263   1.715   4.583
 1644SOL    HW2 4939   2.278   1.878   4.574
 1645SOL     OW 4940   2.183   0.943   3.966
 1645SOL    HW1 4941   2.265   0.982   3.924
 1645SOL    HW2 4942   2.156   0.861   3.917
 1646SOL     OW 4943   2.973   1.776   3.961
 1646SOL    HW1 4944   2.913   1.714   4.011
 1646SOL    HW2 4945   3.004   1.732   3.876
 1647SOL     OW 4946   3.494   1.377   3.805
 1647SOL    HW1 4947   3.462   1.471   3.795
 1647SOL    HW2 4948   3.418   1.314   3.793
 1648SOL     OW 4949   2.326   1.743   4.047
 1648SOL    HW1 4950   2.359   1.782   4.133
 1648SOL    HW2 4951   2.402   1.736   3.982
 1649SOL     OW 4952   3.262   0.107   4.150
 1649SOL    HW1 4953   3.238   0.070   4.060
 1649SOL    HW2 4954   3.361   0.123   4.154
 1650SOL     OW 4955   2.244   0.700   4.204
 1650SOL    HW1 4956   2.289   0.610   4.201
 1650SOL    HW2 4957   2.150   0.689   4.237
 1651SOL     OW 4958   2.476   0.122   3.841
 1651SOL    HW1 4959   2.574   0.100   3.848
 1651SOL    HW2 4960   2.445   0.105   3.748
 1652SOL     OW 4961   2.401   0.064   4.236
 1652SOL    HW1 4962   2.320   0.065   4.294
 1652SOL    HW2 4963   2.404   0.147   4.181
 1653SOL     OW 4964   3.296   1.188   3.765
 1653SOL    HW1 4965   3.328   1.112   3.822
 1653SOL    HW2 4966   3.204   1.215   3.795
 1654SOL     OW 4967   2.159   0.035   3.895
 1654SOL    HW1 4968   2.208   0.119   3.874
 1654SOL    HW2 4969   2.221  -0.030   3.940
 1655SOL     OW 4970   2.797   0.236   4.204
 1655SOL    HW1 4971   2.749   0.277   4.126
 1655SOL    HW2 4972   2.896   0.234   4.185
 1656SOL     OW 4973   2.321   1.152   4.465
 1656SOL    HW1 4974   2.250   1.125   4.530
 1656SOL    HW2 4975   2.295   1.124   4.372
 1657SOL     OW 4976   3.133   1.797   4.315
 1657SOL    HW1 4977   3.177   1.861   4.251
 1657SOL    HW2 4978   3.083   1.849   4.385
 1658SOL     OW 4979   2.894   0.549   3.740
 1658SOL    HW1 4980   2.853   0.631   3.701
 1658SOL    HW2 4981   2.958   0.575   3.813
 1659SOL     OW 4982   2.728   0.454   4.366
 1659SOL    HW1 4983   2.696   0.526   4.304
 1659SOL    HW2 4984   2.752   0.373   4.313
 1660SOL     OW 4985   3.719   0.833   4.101
 1660SOL    HW1 4986   3.761   0.769   4.165
 1660SOL    HW2 4987   3.681   0.782   4.023
 1661SOL     OW 4988   2.350   1.385   3.898
 1661SOL    HW1 4989   2.263   1.370   3.945
 1661SOL    HW2 4990   2.333   1.411   3.803
 1662SOL     OW 4991   3.252   0.575   3.802
 1662SOL    HW1 4992   3.198   0.554   3.883
 1662SOL    HW2 4993   3.343   0.534   3.811
 1663SOL     OW 4994   2.389   0.256   4.052
 1663SOL    HW1 4995   2.416   0.197   3.977
 1663SOL    HW2 4996   2.389   0.351   4.021
 1664SOL     OW 4997   2.567   1.050   4.092
 1664SOL    HW1 4998   2.553   1.057   4.191
 1664SOL    HW2 4999   2.651   0.999   4.074
 1665SOL     OW 5000   2.229   1.100   4.225
 1665SOL    HW1 5001   2.222   1.183   4.169
 1665SOL    HW2 5002   2.233   1.020   4.165
 1666SOL     OW 5003   3.114   1.348   4.112
 1666SOL    HW1 5004   3.164   1.425   4.152
 1666SOL    HW2 5005   3.019   1.350   4.144
 1667SOL     OW 5006   3.444   0.639   4.196
 1667SOL    HW1 5007   3.413   0.700   4.269
 1667SOL    HW2 5008   3.494   0.691   4.127
 1668SOL     OW 5009   3.071   0.525   3.999
 1668SOL    HW1 5010   3.084   0.441   4.053
 1668SOL    HW2 5011   3.042   0.599   4.059
 1669SOL     OW 5012   2.169   0.063   4.342
 1669SOL    HW1 5013   2.158   0.157   4.375
 1669SOL    HW2 5014   2.164   0.000   4.419
 1670SOL     OW 5015   3.484   0.367   4.098
 1670SOL    HW1 5016   3.486   0.291   4.162
 1670SOL    HW2 5017   3.436   0.444   4.138
 1671SOL     OW 5018   3.402   0.274   3.849
 1671SOL    HW1 5019   3.341   0.199   3.872
 1671SOL    HW2 5020   3.424   0.326   3.932
 1672SOL     OW 5021   3.165   0.838   3.766
 1672SOL    HW1 5022   3.199   0.745   3.781
 1672SOL    HW2 5023   3.183   0.865   3.671
 1673SOL     OW 5024   1.870   1.326   3.924
 1673SOL    HW1 5025   1.777   1.347   3.893
 1673SOL    HW2 5026   1.880   1.227   3.937
 1674SOL     OW 5027   2.677   0.572   4.049
 1674SOL    HW1 5028   2.684   0.483   4.003
 1674SOL    HW2 5029   2.583   0.606   4.041
 1675SOL     OW 5030   2.335   0.500   3.915
 1675SOL    HW1 5031   2.396   0.580   3.919
 1675SOL    HW2 5032   2.240   0.531   3.922
 1676SOL     OW 5033   3.164   0.855   4.033
 1676SOL    HW1 5034   3.078   0.824   4.075
 1676SOL    HW2 5035   3.160   0.841   3.934
 1677SOL     OW 5036   3.588   0.135   4.247
 1677SOL    HW1 5037   3.661   0.118   4.180
 1677SOL    HW2 5038   3.557   0.048   4.285
 1678SOL     OW 5039   3.250   1.573   4.201
 1678SOL    HW1 5040   3.317   1.585   4.127
 1678SOL    HW2 5041   3.210   1.662   4.224
 1679SOL     OW 5042   2.534   1.616   3.878
 1679SOL    HW1 5043   2.543   1.626   3.779
 1679SOL    HW2 5044   2.494   1.527   3.899
 1680SOL     OW 5045   3.703   0.175   4.687
 1680SOL    HW1 5046   3.742   0.090   4.651
 1680SOL    HW2 5047   3.605   0.177   4.668
 1681SOL     OW 5048   3.056   1.612   3.755
 1681SOL    HW1 5049   3.062   1.519   3.792
 1681SOL    HW2 5050   2.997   1.612   3.675
 1682SOL     OW 5051   2.778   0.910   4.015
 1682SOL    HW1 5052   2.841   0.948   3.947
 1682SOL    HW2 5053   2.818   0.827   4.054
 1683SOL     OW 5054   3.366   1.607   3.768
 1683SOL    HW1 5055   3.274   1.644   3.775
 1683SOL    HW2 5056   3.404   1.627   3.678
 1684SOL     OW 5057   2.452   1.487   4.215
 1684SOL    HW1 5058   2.494   1.429   4.145
 1684SOL    HW2 5059   2.408   1.566   4.171
 1685SOL     OW 5060   2.117   1.348   4.014
 1685SOL    HW1 5061   2.021   1.349   3.987
 1685SOL    HW2 5062   2.129   1.401   4.098
 1686SOL     OW 5063   1.937   0.345   3.757
 1686SOL    HW1 5064   1.845   0.317   3.728
 1686SOL    HW2 5065   1.968   0.422   3.701
 1687SOL     OW 5066   1.934   0.166   4.042
 1687SOL    HW1 5067   1.917   0.249   3.988
 1687SOL    HW2 5068   2.024   0.129   4.020
 1688SOL     OW 5069   3.045   1.335   3.843
 1688SOL    HW1 5070   2.946   1.324   3.845
 1688SOL    HW2 5071   3.079   1.350   3.936
 1689SOL     OW 5072   3.087   0.325   4.173
 1689SOL    HW1 5073   3.152   0.251   4.162
 1689SOL    HW2 5074   3.107   0.375   4.257
 1690SOL     OW 5075   2.456   0.745   4.376
 1690SOL    HW1 5076   2.506   0.830   4.357
 1690SOL    HW2 5077   2.368   0.747   4.328
 1691SOL     OW 5078   2.721   1.374   3.740
 1691SOL    HW1 5079   2.675   1.389   3.828
 1691SOL    HW2 5080   2.765   1.459   3.710
 1692SOL     OW 5081   2.945   0.984   3.811
 1692SOL    HW1 5082   2.922   1.037   3.729
 1692SOL    HW2 5083   3.026   0.928   3.792
 1693SOL     OW 5084   1.941   1.240   4.377
 1693SOL    HW1 5085   1.940   1.193   4.465
 1693SOL    HW2 5086   2.023   1.212   4.326
 1694SOL     OW 5087   2.290   0.424   4.244
 1694SOL    HW1 5088   2.320   0.352   4.182
 1694SOL    HW2 5089   2.251   0.384   4.327
 1695SOL     OW 5090   2.632   1.330   4.025
 1695SOL    HW1 5091   2.586   1.243   4.042
 1695SOL    HW2 5092   2.723   1.327   4.066
 1696SOL     OW 5093   3.214   0.052   3.892
 1696SOL    HW1 5094   3.249   0.011   3.808
 1696SOL    HW2 5095   3.124   0.014   3.912
 1697SOL     OW 5096   3.162   0.453   4.415
 1697SOL    HW1 5097   3.103   0.533   4.419
 1697SOL    HW2 5098   3.177   0.418   4.508
 1698SOL     OW 5099   1.901   1.077   4.024
 1698SOL    HW1 5100   2.000   1.066   4.015
 1698SOL    HW2 5101   1.861   0.991   4.056
 1699SOL     OW 5102   2.737   1.646   4.061
 1699SOL    HW1 5103   2.660   1.611   4.007
 1699SOL    HW2 5104   2.705   1.717   4.123
 1700SOL     OW 5105   2.092   2.490   0.113
 1700SOL    HW1 5106   1.999   2.488   0.150
 1700SOL    HW2 5107   2.093   2.451   0.021
 1701SOL     OW 5108   2.087   2.137   0.996
 1701SOL    HW1 5109   2.122   2.120   1.088
 1701SOL    HW2 5110   1.999   2.092   0.984
 1702SOL     OW 5111   1.881   2.230   0.647
 1702SOL    HW1 5112   1.799   2.273   0.686
 1702SOL    HW2 5113   1.853   2.157   0.584
 1703SOL     OW 5114   2.431   3.137   1.165
 1703SOL    HW1 5115   2.338   3.130   1.128
 1703SOL    HW2 5116   2.442   3.226   1.209
 1704SOL     OW 5117   3.417   3.373   0.703
 1704SOL    HW1 5118   3.360   3.357   0.784
 1704SOL    HW2 5119   3.358   3.383   0.623
 1705SOL     OW 5120   2.997   2.565   0.717
 1705SOL    HW1 5121   3.054   2.643   0.692
 1705SOL    HW2 5122   2.937   2.591   0.793
 1706SOL     OW 5123   3.617   2.469   0.231
 1706SOL    HW1 5124   3.605   2.456   0.132
 1706SOL    HW2 5125   3.587   2.388   0.280
 1707SOL     OW 5126   2.630   3.006   1.023
 1707SOL    HW1 5127   2.552   3.023   1.083
 1707SOL    HW2 5128   2.664   3.093   0.987
 1708SOL     OW 5129   2.712   2.660   1.823
 1708SOL    HW1 5130   2.708   2.736   1.888
 1708SOL    HW2 5131   2.734   2.696   1.732
 1709SOL     OW 5132   2.547   2.874   0.665
 1709SOL    HW1 5133   2.616   2.858   0.735
 1709SOL    HW2 5134   2.474   2.931   0.703
 1710SOL     OW 5135   2.548   3.023   1.803
 1710SOL    HW1 5136   2.608   3.102   1.817
 1710SOL    HW2 5137   2.462   3.054   1.762
 1711SOL     OW 5138   2.197   3.297   1.061
 1711SOL    HW1 5139   2.119   3.266   1.008
 1711SOL    HW2 5140   2.255   3.355   1.004
 1712SOL     OW 5141   3.322   3.367   1.339
 1712SOL    HW1 5142   3.346   3.461   1.365
 1712SOL    HW2 5143   3.306   3.313   1.421
 1713SOL     OW 5144   2.300   2.254   1.499
 1713SOL    HW1 5145   2.382   2.198   1.508
 1713SOL    HW2 5146   2.219   2.196   1.503
 1714SOL     OW 5147   3.465   2.309   0.737
 1714SOL    HW1 5148   3.391   2.355   0.687
 1714SOL    HW2 5149   3.516   2.377   0.790
 1715SOL     OW 5150   2.093   3.575   0.483
 1715SOL    HW1 5151   2.127   3.652   0.537
 1715SOL    HW2 5152   2.137   3.575   0.393
 1716SOL     OW 5153   2.989   3.203   1.690
 1716SOL    HW1 5154   3.036   3.203   1.778
 1716SOL    HW2 5155   2.941   3.116   1.679
 1717SOL     OW 5156   2.092   3.296   0.538
 1717SOL    HW1 5157   2.066   3.392   0.538
 1717SOL    HW2 5158   2.021   3.242   0.583
 1718SOL     OW 5159   2.102   2.953   0.886
 1718SOL    HW1 5160   2.116   2.869   0.938
 1718SOL    HW2 5161   2.047   3.017   0.941
 1719SOL     OW 5162   2.482   3.648   1.439
 1719SOL    HW1 5163   2.390   3.631   1.474
 1719SOL    HW2 5164   2.510   3.740   1.465
 1720SOL     OW 5165   2.468   2.826   0.123
 1720SOL    HW1 5166   2.475   2.910   0.069
 1720SOL    HW2 5167   2.514   2.839   0.211
 1721SOL     OW 5168   3.456   1.976   1.480
 1721SOL    HW1 5169   3.438   2.043   1.408
 1721SOL    HW2 5170   3.453   2.022   1.569
 1722SOL     OW 5171   1.984   2.505   0.563
 1722SOL    HW1 5172   1.939   2.417   0.580
 1722SOL    HW2 5173   1.983   2.559   0.647
 1723SOL     OW 5174   3.704   3.629   0.359
 1723SOL    HW1 5175   3.758   3.600   0.439
 1723SOL    HW2 5176   3.734   3.719   0.330
 1724SOL     OW 5177   1.889   3.458   0.117
 1724SOL    HW1 5178   1.870   3.362   0.138
 1724SOL    HW2 5179   1.856   3.516   0.192
 1725SOL     OW 5180   3.551   2.784   0.612
 1725SOL    HW1 5181   3.646   2.755   0.620
 1725SOL    HW2 5182   3.543   2.849   0.537
 1726SOL     OW 5183   3.503   2.970   0.432
 1726SOL    HW1 5184   3.589   2.972   0.380
 1726SOL    HW2 5185   3.517   3.017   0.520
 1727SOL     OW 5186   1.975   2.599   1.597
 1727SOL    HW1 5187   2.063   2.586   1.642
 1727SOL    HW2 5188   1.962   2.696   1.575
 1728SOL     OW 5189   2.475   3.227   0.726
 1728SOL    HW1 5190   2.426   3.140   0.735
 1728SOL    HW2 5191   2.452   3.270   0.639
 1729SOL     OW 5192   3.155   3.090   1.423
 1729SOL    HW1 5193   3.192   3.017   1.365
 1729SOL    HW2 5194   3.207   3.095   1.508
 1730SOL     OW 5195   2.671   1.866   0.502
 1730SOL    HW1 5196   2.711   1.957   0.493
 1730SOL    HW2 5197   2.571   1.874   0.508
 1731SOL     OW 5198   2.059   2.838   1.264
 1731SOL    HW1 5199   2.148   2.793   1.250
 1731SOL    HW2 5200   1.986   2.773   1.245
 1732SOL     OW 5201   3.387   2.861   0.190
 1732SOL    HW1 5202   3.324   2.785   0.203
 1732SOL    HW2 5203   3.435   2.879   0.276
 1733SOL     OW 5204   3.049   3.654   1.616
 1733SOL    HW1 5205   3.073   3.714   1.540
 1733SOL    HW2 5206   3.056   3.559   1.586
 1734SOL     OW 5207   2.179   2.113   1.801
 1734SOL    HW1 5208   2.250   2.184   1.807
 1734SOL    HW2 5209   2.091   2.152   1.829
 1735SOL     OW 5210   3.328   3.279   0.953
 1735SOL    HW1 5211   3.269   3.285   1.033
 1735SOL    HW2 5212   3.313   3.191   0.907
 1736SOL     OW 5213   3.529   3.576   0.572
 1736SOL    HW1 5214   3.488   3.553   0.484
 1736SOL    HW2 5215   3.511   3.502   0.637
 1737SOL     OW 5216   2.460   2.591   0.270
 1737SOL    HW1 5217   2.484   2.660   0.202
 1737SOL    HW2 5218   2.382   2.624   0.324
 1738SOL     OW 5219   3.143   2.207   0.944
 1738SOL    HW1 5220   3.057   2.157   0.931
 1738SOL    HW2 5221   3.205   2.153   1.000
 1739SOL     OW 5222   3.438   3.524   0.307
 1739SOL    HW1 5223   3.527   3.570   0.310
 1739SOL    HW2 5224   3.417   3.500   0.212
 1740SOL     OW 5225   2.669   2.467   1.465
 1740SOL    HW1 5226   2.622   2.464   1.554
 1740SOL    HW2 5227   2.618   2.412   1.399
 1741SOL     OW 5228   3.256   2.331   1.674
 1741SOL    HW1 5229   3.236   2.374   1.762
 1741SOL    HW2 5230   3.334   2.269   1.683
 1742SOL     OW 5231   2.835   2.752   1.572
 1742SOL    HW1 5232   2.881   2.668   1.543
 1742SOL    HW2 5233   2.779   2.786   1.497
 1743SOL     OW 5234   2.853   2.272   1.242
 1743SOL    HW1 5235   2.776   2.306   1.296
 1743SOL    HW2 5236   2.819   2.221   1.163
 1744SOL     OW 5237   2.903   2.563   0.429
 1744SOL    HW1 5238   2.929   2.559   0.525
 1744SOL    HW2 5239   2.818   2.512   0.415
 1745SOL     OW 5240   1.938   2.673   0.789
 1745SOL    HW1 5241   2.037   2.661   0.798
 1745SOL    HW2 5242   1.914   2.768   0.810
 1746SOL     OW 5243   1.992   3.683   1.571
 1746SOL    HW1 5244   1.982   3.668   1.670
 1746SOL    HW2 5245   1.906   3.719   1.535
 1747SOL     OW 5246   2.727   2.210   0.195
 1747SOL    HW1 5247   2.786   2.273   0.146
 1747SOL    HW2 5248   2.746   2.116   0.166
 1748SOL     OW 5249   3.581   2.447   1.831
 1748SOL    HW1 5250   3.555   2.536   1.795
 1748SOL    HW2 5251   3.579   2.379   1.758
 1749SOL     OW 5252   3.224   3.006   0.545
 1749SOL    HW1 5253   3.307   2.977   0.497
 1749SOL    HW2 5254   3.175   3.073   0.489
 1750SOL     OW 5255   2.412   2.058   0.885
 1750SOL    HW1 5256   2.407   2.053   0.985
 1750SOL    HW2 5257   2.414   2.154   0.856
 1751SOL     OW 5258   2.870   3.318   0.477
 1751SOL    HW1 5259   2.824   3.390   0.425
 1751SOL    HW2 5260   2.866   3.338   0.575
 1752SOL     OW 5261   2.213   3.663   0.853
 1752SOL    HW1 5262   2.263   3.577   0.859
 1752SOL    HW2 5263   2.278   3.740   0.850
 1753SOL     OW 5264   3.657   2.928   0.873
 1753SOL    HW1 5265   3.595   2.913   0.797
 1753SOL    HW2 5266   3.605   2.939   0.958
 1754SOL     OW 5267   3.089   3.412   1.506
 1754SOL    HW1 5268   3.095   3.335   1.570
 1754SOL    HW2 5269   3.037   3.386   1.426
 1755SOL     OW 5270   2.183   2.805   0.242
 1755SOL    HW1 5271   2.265   2.844   0.200
 1755SOL    HW2 5272   2.156   2.723   0.193
 1756SOL     OW 5273   3.320   2.597   0.728
 1756SOL    HW1 5274   3.315   2.532   0.803
 1756SOL    HW2 5275   3.400   2.656   0.741
 1757SOL     OW 5276   2.323   3.128   1.727
 1757SOL    HW1 5277   2.273   3.129   1.641
 1757SOL    HW2 5278   2.260   3.110   1.803
 1758SOL     OW 5279   2.973   3.638   0.237
 1758SOL    HW1 5280   2.913   3.576   0.287
 1758SOL    HW2 5281   3.004   3.594   0.152
 1759SOL     OW 5282   2.064   2.147   1.498
 1759SOL    HW1 5283   1.984   2.207   1.485
 1759SOL    HW2 5284   2.054   2.098   1.584
 1760SOL     OW 5285   3.494   3.239   0.081
 1760SOL    HW1 5286   3.462   3.333   0.071
 1760SOL    HW2 5287   3.418   3.176   0.069
 1761SOL     OW 5288   2.326   3.605   0.323
 1761SOL    HW1 5289   2.359   3.644   0.409
 1761SOL    HW2 5290   2.402   3.598   0.258
 1762SOL     OW 5291   3.262   1.969   0.426
 1762SOL    HW1 5292   3.238   1.932   0.336
 1762SOL    HW2 5293   3.361   1.985   0.430
 1763SOL     OW 5294   2.111   3.647   1.241
 1763SOL    HW1 5295   2.168   3.582   1.291
 1763SOL    HW2 5296   2.095   3.614   1.148
 1764SOL     OW 5297   2.802   3.560   0.904
 1764SOL    HW1 5298   2.882   3.503   0.925
 1764SOL    HW2 5299   2.753   3.520   0.827
 1765SOL     OW 5300   2.244   2.562   0.480
 1765SOL    HW1 5301   2.289   2.472   0.477
 1765SOL    HW2 5302   2.150   2.551   0.513
 1766SOL     OW 5303   3.409   2.084   1.729
 1766SOL    HW1 5304   3.404   2.121   1.821
 1766SOL    HW2 5305   3.337   2.015   1.717
 1767SOL     OW 5306   2.476   1.984   0.117
 1767SOL    HW1 5307   2.574   1.962   0.124
 1767SOL    HW2 5308   2.445   1.967   0.024
 1768SOL     OW 5309   2.643   2.126   1.749
 1768SOL    HW1 5310   2.710   2.065   1.792
 1768SOL    HW2 5311   2.570   2.145   1.814
 1769SOL     OW 5312   2.750   3.376   1.195
 1769SOL    HW1 5313   2.727   3.351   1.101
 1769SOL    HW2 5314   2.811   3.307   1.234
 1770SOL     OW 5315   3.213   2.452   1.433
 1770SOL    HW1 5316   3.241   2.409   1.518
 1770SOL    HW2 5317   3.238   2.548   1.434
 1771SOL     OW 5318   2.665   3.264   0.924
 1771SOL    HW1 5319   2.755   3.278   0.882
 1771SOL    HW2 5320   2.594   3.266   0.853
 1772SOL     OW 5321   2.784   2.365   0.899
 1772SOL    HW1 5322   2.759   2.356   0.803
 1772SOL    HW2 5323   2.832   2.283   0.930
 1773SOL     OW 5324   2.401   1.926   0.512
 1773SOL    HW1 5325   2.320   1.927   0.570
 1773SOL    HW2 5326   2.404   2.009   0.457
 1774SOL     OW 5327   3.296   3.050   0.041
 1774SOL    HW1 5328   3.328   2.974   0.098
 1774SOL    HW2 5329   3.204   3.077   0.071
 1775SOL     OW 5330   2.797   2.098   0.480
 1775SOL    HW1 5331   2.749   2.139   0.402
 1775SOL    HW2 5332   2.896   2.096   0.461
 1776SOL     OW 5333   2.938   2.545   1.464
 1776SOL    HW1 5334   2.858   2.484   1.467
 1776SOL    HW2 5335   3.019   2.492   1.440
 1777SOL     OW 5336   3.089   3.432   0.793
 1777SOL    HW1 5337   3.110   3.506   0.728
 1777SOL    HW2 5338   3.157   3.432   0.866
 1778SOL     OW 5339   2.321   3.014   0.741
 1778SOL    HW1 5340   2.250   2.987   0.806
 1778SOL    HW2 5341   2.295   2.986   0.648
 1779SOL     OW 5342   3.133   3.659   0.591
 1779SOL    HW1 5343   3.177   3.723   0.527
 1779SOL    HW2 5344   3.083   3.711   0.661
 1780SOL     OW 5345   2.894   2.411   0.016
 1780SOL    HW1 5346   2.853   2.493  -0.023
 1780SOL    HW2 5347   2.958   2.437   0.089
 1781SOL     OW 5348   1.940   2.418   1.386
 1781SOL    HW1 5349   2.032   2.417   1.345
 1781SOL    HW2 5350   1.934   2.492   1.453
 1782SOL     OW 5351   2.423   2.084   1.147
 1782SOL    HW1 5352   2.461   2.000   1.184
 1782SOL    HW2 5353   2.335   2.103   1.191
 1783SOL     OW 5354   2.728   2.316   0.642
 1783SOL    HW1 5355   2.696   2.388   0.580
 1783SOL    HW2 5356   2.752   2.235   0.589
 1784SOL     OW 5357   2.879   1.901   0.753
 1784SOL    HW1 5358   2.807   1.906   0.684
 1784SOL    HW2 5359   2.855   1.832   0.822
 1785SOL     OW 5360   3.291   3.035   0.867
 1785SOL    HW1 5361   3.236   2.951   0.860
 1785SOL    HW2 5362   3.317   3.064   0.775
 1786SOL     OW 5363   3.328   2.452   0.992
 1786SOL    HW1 5364   3.298   2.357   0.999
 1786SOL    HW2 5365   3.401   2.468   1.058
 1787SOL     OW 5366   3.719   2.695   0.377
 1787SOL    HW1 5367   3.761   2.631   0.441
 1787SOL    HW2 5368   3.681   2.644   0.299
 1788SOL     OW 5369   2.350   3.247   0.174
 1788SOL    HW1 5370   2.263   3.232   0.221
 1788SOL    HW2 5371   2.333   3.273   0.079
 1789SOL     OW 5372   3.526   3.142   0.657
 1789SOL    HW1 5373   3.625   3.150   0.671
 1789SOL    HW2 5374   3.481   3.226   0.688
 1790SOL     OW 5375   3.252   2.437   0.078
 1790SOL    HW1 5376   3.198   2.416   0.159
 1790SOL    HW2 5377   3.343   2.396   0.087
 1791SOL     OW 5378   2.389   2.118   0.328
 1791SOL    HW1 5379   2.416   2.059   0.253
 1791SOL    HW2 5380   2.389   2.213   0.297
 1792SOL     OW 5381   3.616   3.085   1.588
 1792SOL    HW1 5382   3.707   3.046   1.575
 1792SOL    HW2 5383   3.624   3.181   1.612
 1793SOL     OW 5384   2.926   3.209   1.340
 1793SOL    HW1 5385   2.846   3.186   1.395
 1793SOL    HW2 5386   3.009   3.183   1.389
 1794SOL     OW 5387   3.454   3.491   1.625
 1794SOL    HW1 5388   3.481   3.525   1.535
 1794SOL    HW2 5389   3.533   3.453   1.671
 1795SOL     OW 5390   2.973   3.057   1.100
 1795SOL    HW1 5391   2.933   3.101   1.181
 1795SOL    HW2 5392   2.932   3.094   1.017
 1796SOL     OW 5393   3.500   2.961   1.079
 1796SOL    HW1 5394   3.505   3.042   1.138
 1796SOL    HW2 5395   3.414   2.963   1.028
 1797SOL     OW 5396   2.777   1.951   1.402
 1797SOL    HW1 5397   2.802   1.931   1.307
 1797SOL    HW2 5398   2.849   2.007   1.444
 1798SOL     OW 5399   2.842   2.978   1.719
 1798SOL    HW1 5400   2.743   2.984   1.729
 1798SOL    HW2 5401   2.865   2.898   1.663
 1799SOL     OW 5402   2.567   2.912   0.368
 1799SOL    HW1 5403   2.553   2.919   0.467
 1799SOL    HW2 5404   2.651   2.861   0.350
 1800SOL     OW 5405   2.272   2.675   1.251
 1800SOL    HW1 5406   2.358   2.687   1.301
 1800SOL    HW2 5407   2.230   2.588   1.278
 1801SOL     OW 5408   3.136   2.248   1.262
 1801SOL    HW1 5409   3.157   2.322   1.326
 1801SOL    HW2 5410   3.047   2.265   1.219
 1802SOL     OW 5411   1.926   3.426   1.331
 1802SOL    HW1 5412   1.880   3.508   1.297
 1802SOL    HW2 5413   2.024   3.445   1.340
 1803SOL     OW 5414   2.229   2.962   0.501
 1803SOL    HW1 5415   2.222   3.045   0.445
 1803SOL    HW2 5416   2.233   2.882   0.441
 1804SOL     OW 5417   2.428   2.399   0.865
 1804SOL    HW1 5418   2.440   2.465   0.791
 1804SOL    HW2 5419   2.474   2.433   0.948
 1805SOL     OW 5420   3.114   3.210   0.388
 1805SOL    HW1 5421   3.164   3.287   0.428
 1805SOL    HW2 5422   3.019   3.212   0.420
 1806SOL     OW 5423   3.134   3.307   1.142
 1806SOL    HW1 5424   3.181   3.320   1.229
 1806SOL    HW2 5425   3.068   3.233   1.151
 1807SOL     OW 5426   3.444   2.501   0.472
 1807SOL    HW1 5427   3.413   2.562   0.545
 1807SOL    HW2 5428   3.494   2.553   0.403
 1808SOL     OW 5429   2.216   3.372   1.329
 1808SOL    HW1 5430   2.195   3.328   1.242
 1808SOL    HW2 5431   2.313   3.398   1.332
 1809SOL     OW 5432   2.264   2.613   1.598
 1809SOL    HW1 5433   2.332   2.668   1.551
 1809SOL    HW2 5434   2.304   2.525   1.625
 1810SOL     OW 5435   3.449   2.641   1.670
 1810SOL    HW1 5436   3.357   2.679   1.665
 1810SOL    HW2 5437   3.509   2.688   1.605
 1811SOL     OW 5438   2.875   1.967   1.770
 1811SOL    HW1 5439   2.881   2.052   1.718
 1811SOL    HW2 5440   2.907   1.891   1.713
 1812SOL     OW 5441   2.366   1.912   1.740
 1812SOL    HW1 5442   2.324   1.855   1.670
 1812SOL    HW2 5443   2.300   1.981   1.772
 1813SOL     OW 5444   2.435   2.732   1.029
 1813SOL    HW1 5445   2.479   2.821   1.020
 1813SOL    HW2 5446   2.372   2.732   1.106
 1814SOL     OW 5447   3.222   2.724   1.045
 1814SOL    HW1 5448   3.147   2.724   0.979
 1814SOL    HW2 5449   3.259   2.632   1.054
 1815SOL     OW 5450   3.071   2.387   0.275
 1815SOL    HW1 5451   3.084   2.303   0.329
 1815SOL    HW2 5452   3.042   2.461   0.335
 1816SOL     OW 5453   2.169   2.075   1.231
 1816SOL    HW1 5454   2.146   2.112   1.321
 1816SOL    HW2 5455   2.139   1.980   1.225
 1817SOL     OW 5456   1.899   3.172   1.282
 1817SOL    HW1 5457   1.952   3.123   1.350
 1817SOL    HW2 5458   1.921   3.270   1.287
 1818SOL     OW 5459   2.594   2.496   1.064
 1818SOL    HW1 5460   2.653   2.470   0.988
 1818SOL    HW2 5461   2.566   2.592   1.053
 1819SOL     OW 5462   3.590   2.797   1.854
 1819SOL    HW1 5463   3.544   2.790   1.765
 1819SOL    HW2 5464   3.528   2.841   1.920
 1820SOL     OW 5465   2.169   1.925   0.618
 1820SOL    HW1 5466   2.158   2.019   0.651
 1820SOL    HW2 5467   2.164   1.862   0.695
 1821SOL     OW 5468   3.484   2.229   0.374
 1821SOL    HW1 5469   3.486   2.153   0.438
 1821SOL    HW2 5470   3.436   2.306   0.414
 1822SOL     OW 5471   2.885   2.628   0.966
 1822SOL    HW1 5472   2.900   2.649   1.062
 1822SOL    HW2 5473   2.855   2.533   0.957
 1823SOL     OW 5474   2.842   3.435   1.700
 1823SOL    HW1 5475   2.822   3.479   1.612
 1823SOL    HW2 5476   2.881   3.344   1.684
 1824SOL     OW 5477   3.721   3.380   1.605
 1824SOL    HW1 5478   3.735   3.407   1.510
 1824SOL    HW2 5479   3.804   3.402   1.658
 1825SOL     OW 5480   2.212   2.760   1.804
 1825SOL    HW1 5481   2.288   2.804   1.852
 1825SOL    HW2 5482   2.247   2.713   1.722
 1826SOL     OW 5483   3.402   2.136   0.125
 1826SOL    HW1 5484   3.341   2.061   0.148
 1826SOL    HW2 5485   3.424   2.188   0.208
 1827SOL     OW 5486   3.165   2.700   0.042
 1827SOL    HW1 5487   3.199   2.607   0.057
 1827SOL    HW2 5488   3.183   2.727  -0.053
 1828SOL     OW 5489   2.930   3.195   0.849
 1828SOL    HW1 5490   2.937   3.111   0.794
 1828SOL    HW2 5491   2.992   3.264   0.813
 1829SOL     OW 5492   2.181   2.672   0.949
 1829SOL    HW1 5493   2.274   2.708   0.954
 1829SOL    HW2 5494   2.175   2.587   1.001
 1830SOL     OW 5495   2.201   2.371   1.006
 1830SOL    HW1 5496   2.149   2.288   0.989
 1830SOL    HW2 5497   2.278   2.376   0.942
 1831SOL     OW 5498   3.000   2.242   1.678
 1831SOL    HW1 5499   2.955   2.305   1.742
 1831SOL    HW2 5500   3.093   2.273   1.661
 1832SOL     OW 5501   3.022   2.069   1.477
 1832SOL    HW1 5502   3.022   2.133   1.554
 1832SOL    HW2 5503   3.050   2.117   1.394
 1833SOL     OW 5504   1.870   3.188   0.200
 1833SOL    HW1 5505   1.777   3.209   0.169
 1833SOL    HW2 5506   1.880   3.089   0.213
 1834SOL     OW 5507   1.950   3.663   0.927
 1834SOL    HW1 5508   1.908   3.577   0.900
 1834SOL    HW2 5509   2.044   3.666   0.893
 1835SOL     OW 5510   2.366   3.430   0.910
 1835SOL    HW1 5511   2.432   3.504   0.919
 1835SOL    HW2 5512   2.410   3.351   0.868
 1836SOL     OW 5513   2.864   2.658   1.238
 1836SOL    HW1 5514   2.905   2.626   1.324
 1836SOL    HW2 5515   2.768   2.631   1.235
 1837SOL     OW 5516   1.902   2.406   1.114
 1837SOL    HW1 5517   1.987   2.373   1.073
 1837SOL    HW2 5518   1.915   2.421   1.212
 1838SOL     OW 5519   2.051   2.382   1.722
 1838SOL    HW1 5520   2.110   2.342   1.652
 1838SOL    HW2 5521   1.993   2.453   1.681
 1839SOL     OW 5522   3.231   2.812   1.660
 1839SOL    HW1 5523   3.270   2.901   1.680
 1839SOL    HW2 5524   3.241   2.792   1.563
 1840SOL     OW 5525   2.677   2.434   0.325
 1840SOL    HW1 5526   2.684   2.345   0.279
 1840SOL    HW2 5527   2.583   2.468   0.317
 1841SOL     OW 5528   3.519   2.466   1.206
 1841SOL    HW1 5529   3.481   2.397   1.268
 1841SOL    HW2 5530   3.601   2.430   1.162
 1842SOL     OW 5531   2.114   3.426   1.744
 1842SOL    HW1 5532   2.084   3.483   1.820
 1842SOL    HW2 5533   2.107   3.329   1.770
 1843SOL     OW 5534   2.533   2.326   1.269
 1843SOL    HW1 5535   2.499   2.237   1.239
 1843SOL    HW2 5536   2.559   2.380   1.189
 1844SOL     OW 5537   2.792   3.540   1.465
 1844SOL    HW1 5538   2.768   3.522   1.370
 1844SOL    HW2 5539   2.822   3.634   1.475
 1845SOL     OW 5540   2.335   2.362   0.191
 1845SOL    HW1 5541   2.396   2.442   0.195
 1845SOL    HW2 5542   2.240   2.393   0.198
 1846SOL     OW 5543   2.021   2.999   1.466
 1846SOL    HW1 5544   2.043   2.938   1.542
 1846SOL    HW2 5545   2.031   2.950   1.380
 1847SOL     OW 5546   3.209   2.921   1.234
 1847SOL    HW1 5547   3.233   2.858   1.160
 1847SOL    HW2 5548   3.119   2.961   1.216
 1848SOL     OW 5549   3.164   2.717   0.309
 1848SOL    HW1 5550   3.078   2.686   0.351
 1848SOL    HW2 5551   3.160   2.703   0.210
 1849SOL     OW 5552   3.621   3.609   1.154
 1849SOL    HW1 5553   3.682   3.639   1.081
 1849SOL    HW2 5554   3.583   3.520   1.132
 1850SOL     OW 5555   3.114   3.593   1.128
 1850SOL    HW1 5556   3.198   3.598   1.074
 1850SOL    HW2 5557   3.091   3.497   1.146
 1851SOL     OW 5558   1.945   3.120   1.022
 1851SOL    HW1 5559   1.940   3.119   1.122
 1851SOL    HW2 5560   1.862   3.079   0.984
 1852SOL     OW 5561   2.550   3.524   1.716
 1852SOL    HW1 5562   2.494   3.605   1.725
 1852SOL    HW2 5563   2.602   3.528   1.630
 1853SOL     OW 5564   2.765   1.948   0.133
 1853SOL    HW1 5565   2.816   1.949   0.047
 1853SOL    HW2 5566   2.821   1.906   0.204
 1854SOL     OW 5567   3.588   1.997   0.523
 1854SOL    HW1 5568   3.661   1.980   0.456
 1854SOL    HW2 5569   3.557   1.910   0.561
 1855SOL     OW 5570   3.250   3.435   0.477
 1855SOL    HW1 5571   3.317   3.447   0.403
 1855SOL    HW2 5572   3.210   3.524   0.500
 1856SOL     OW 5573   1.992   3.656   1.851
 1856SOL    HW1 5574   1.951   3.582   1.904
 1856SOL    HW2 5575   2.056   3.707   1.909
 1857SOL     OW 5576   3.142   2.789   0.672
 1857SOL    HW1 5577   3.202   2.708   0.674
 1857SOL    HW2 5578   3.182   2.858   0.612
 1858SOL     OW 5579   2.692   3.135   1.422
 1858SOL    HW1 5580   2.687   3.168   1.517
 1858SOL    HW2 5581   2.606   3.154   1.376
 1859SOL     OW 5582   2.534   3.478   0.154
 1859SOL    HW1 5583   2.543   3.488   0.055
 1859SOL    HW2 5584   2.494   3.389   0.175
 1860SOL     OW 5585   3.512   3.582   1.394
 1860SOL    HW1 5586   3.565   3.592   1.310
 1860SOL    HW2 5587   3.485   3.672   1.428
 1861SOL     OW 5588   3.703   2.037   0.963
 1861SOL    HW1 5589   3.742   1.952   0.927
 1861SOL    HW2 5590   3.605   2.039   0.944
 1862SOL     OW 5591   2.125   2.188   0.720
 1862SOL    HW1 5592   2.046   2.239   0.686
 1862SOL    HW2 5593   2.116   2.173   0.818
 1863SOL     OW 5594   3.056   3.474   0.031
 1863SOL    HW1 5595   3.062   3.381   0.068
 1863SOL    HW2 5596   2.997   3.474  -0.049
 1864SOL     OW 5597   2.684   2.864   1.372
 1864SOL    HW1 5598   2.724   2.863   1.280
 1864SOL    HW2 5599   2.694   2.956   1.412
 1865SOL     OW 5600   2.778   2.772   0.291
 1865SOL    HW1 5601   2.841   2.810   0.223
 1865SOL    HW2 5602   2.818   2.689   0.330
 1866SOL     OW 5603   3.366   3.469   0.044
 1866SOL    HW1 5604   3.274   3.506   0.051
 1866SOL    HW2 5605   3.404   3.489  -0.046
 1867SOL     OW 5606   2.234   3.150   1.490
 1867SOL    HW1 5607   2.221   3.243   1.456
 1867SOL    HW2 5608   2.150   3.098   1.477
 1868SOL     OW 5609   3.476   3.154   1.289
 1868SOL    HW1 5610   3.536   3.157   1.369
 1868SOL    HW2 5611   3.401   3.218   1.302
 1869SOL     OW 5612   2.901   2.960   0.696
 1869SOL    HW1 5613   2.831   2.913   0.750
 1869SOL    HW2 5614   2.960   2.892   0.653
 1870SOL     OW 5615   2.876   2.098   0.971
 1870SOL    HW1 5616   2.868   2.062   0.878
 1870SOL    HW2 5617   2.874   2.022   1.036
 1871SOL     OW 5618   2.452   3.349   0.491
 1871SOL    HW1 5619   2.494   3.291   0.421
 1871SOL    HW2 5620   2.408   3.428   0.447
 1872SOL     OW 5621   3.571   2.247   1.381
 1872SOL    HW1 5622   3.644   2.316   1.385
 1872SOL    HW2 5623   3.599   2.172   1.322
 1873SOL     OW 5624   2.117   3.210   0.290
 1873SOL    HW1 5625   2.021   3.211   0.263
 1873SOL    HW2 5626   2.129   3.263   0.374
 1874SOL     OW 5627   1.967   2.875   1.726
 1874SOL    HW1 5628   1.890   2.842   1.780
 1874SOL    HW2 5629   2.052   2.845   1.768
 1875SOL     OW 5630   2.534   2.065   1.489
 1875SOL    HW1 5631   2.624   2.049   1.449
 1875SOL    HW2 5632   2.542   2.070   1.588
 1876SOL     OW 5633   1.937   2.207   0.033
 1876SOL    HW1 5634   1.845   2.179   0.004
 1876SOL    HW2 5635   1.968   2.284  -0.023
 1877SOL     OW 5636   3.302   2.718   1.398
 1877SOL    HW1 5637   3.245   2.770   1.335
 1877SOL    HW2 5638   3.398   2.730   1.374
 1878SOL     OW 5639   3.045   3.197   0.119
 1878SOL    HW1 5640   2.946   3.186   0.121
 1878SOL    HW2 5641   3.079   3.212   0.212
 1879SOL     OW 5642   2.475   2.704   1.431
 1879SOL    HW1 5643   2.531   2.785   1.414
 1879SOL    HW2 5644   2.534   2.624   1.434
 1880SOL     OW 5645   3.355   3.629   0.959
 1880SOL    HW1 5646   3.388   3.693   0.890
 1880SOL    HW2 5647   3.421   3.623   1.034
 1881SOL     OW 5648   2.578   2.427   1.708
 1881SOL    HW1 5649   2.597   2.492   1.782
 1881SOL    HW2 5650   2.638   2.347   1.717
 1882SOL     OW 5651   3.312   3.082   1.633
 1882SOL    HW1 5652   3.303   3.072   1.732
 1882SOL    HW2 5653   3.408   3.075   1.607
 1883SOL     OW 5654   2.252   3.603   1.560
 1883SOL    HW1 5655   2.161   3.644   1.558
 1883SOL    HW2 5656   2.245   3.509   1.592
 1884SOL     OW 5657   3.536   2.745   1.254
 1884SOL    HW1 5658   3.509   2.656   1.217
 1884SOL    HW2 5659   3.537   2.813   1.181
 1885SOL     OW 5660   3.087   2.187   0.449
 1885SOL    HW1 5661   3.152   2.113   0.438
 1885SOL    HW2 5662   3.107   2.237   0.533
 1886SOL     OW 5663   2.456   2.607   0.652
 1886SOL    HW1 5664   2.506   2.692   0.633
 1886SOL    HW2 5665   2.368   2.609   0.604
 1887SOL     OW 5666   3.639   2.204   1.642
 1887SOL    HW1 5667   3.622   2.235   1.548
 1887SOL    HW2 5668   3.555   2.167   1.680
 1888SOL     OW 5669   3.592   2.796   1.517
 1888SOL    HW1 5670   3.630   2.887   1.532
 1888SOL    HW2 5671   3.584   2.779   1.418
 1889SOL     OW 5672   2.721   3.236   0.016
 1889SOL    HW1 5673   2.675   3.251   0.104
 1889SOL    HW2 5674   2.765   3.321  -0.014
 1890SOL     OW 5675   2.523   3.652   0.953
 1890SOL    HW1 5676   2.477   3.740   0.940
 1890SOL    HW2 5677   2.622   3.664   0.946
 1891SOL     OW 5678   2.721   2.818   0.861
 1891SOL    HW1 5679   2.775   2.749   0.909
 1891SOL    HW2 5680   2.689   2.887   0.927
 1892SOL     OW 5681   2.945   2.846   0.087
 1892SOL    HW1 5682   2.922   2.899   0.005
 1892SOL    HW2 5683   3.026   2.790   0.068
 1893SOL     OW 5684   3.723   3.431   0.851
 1893SOL    HW1 5685   3.652   3.419   0.781
 1893SOL    HW2 5686   3.724   3.352   0.911
 1894SOL     OW 5687   2.083   3.176   1.844
 1894SOL    HW1 5688   2.018   3.103   1.823
 1894SOL    HW2 5689   2.087   3.190   1.942
 1895SOL     OW 5690   1.941   3.102   0.653
 1895SOL    HW1 5691   1.940   3.055   0.741
 1895SOL    HW2 5692   2.023   3.074   0.602
 1896SOL     OW 5693   2.534   3.253   1.624
 1896SOL    HW1 5694   2.456   3.203   1.662
 1896SOL    HW2 5695   2.531   3.348   1.655
 1897SOL     OW 5696   3.686   2.054   1.227
 1897SOL    HW1 5697   3.682   1.964   1.271
 1897SOL    HW2 5698   3.689   2.043   1.128
 1898SOL     OW 5699   2.290   2.286   0.520
 1898SOL    HW1 5700   2.320   2.214   0.458
 1898SOL    HW2 5701   2.251   2.246   0.603
 1899SOL     OW 5702   3.567   3.349   1.104
 1899SOL    HW1 5703   3.474   3.324   1.077
 1899SOL    HW2 5704   3.593   3.299   1.186
 1900SOL     OW 5705   2.179   2.409   1.280
 1900SOL    HW1 5706   2.217   2.350   1.352
 1900SOL    HW2 5707   2.219   2.383   1.192
 1901SOL     OW 5708   2.674   3.448   0.687
 1901SOL    HW1 5709   2.706   3.458   0.593
 1901SOL    HW2 5710   2.595   3.386   0.689
 1902SOL     OW 5711   3.286   2.076   1.112
 1902SOL    HW1 5712   3.338   2.011   1.167
 1902SOL    HW2 5713   3.237   2.139   1.173
 1903SOL     OW 5714   2.863   1.896   1.154
 1903SOL    HW1 5715   2.800   1.824   1.123
 1903SOL    HW2 5716   2.956   1.860   1.154
 1904SOL     OW 5717   2.632   3.192   0.301
 1904SOL    HW1 5718   2.586   3.105   0.318
 1904SOL    HW2 5719   2.723   3.189   0.342
 1905SOL     OW 5720   2.480   3.429   1.284
 1905SOL    HW1 5721   2.475   3.511   1.341
 1905SOL    HW2 5722   2.569   3.426   1.239
 1906SOL     OW 5723   3.214   1.914   0.168
 1906SOL    HW1 5724   3.249   1.873   0.084
 1906SOL    HW2 5725   3.124   1.876   0.188
 1907SOL     OW 5726   3.162   2.315   0.691
 1907SOL    HW1 5727   3.103   2.395   0.695
 1907SOL    HW2 5728   3.177   2.280   0.784
 1908SOL     OW 5729   3.455   2.083   0.882
 1908SOL    HW1 5730   3.371   2.082   0.936
 1908SOL    HW2 5731   3.457   2.166   0.826
 1909SOL     OW 5732   1.901   2.939   0.300
 1909SOL    HW1 5733   2.000   2.928   0.291
 1909SOL    HW2 5734   1.861   2.853   0.332
 1910SOL     OW 5735   2.737   3.508   0.337
 1910SOL    HW1 5736   2.660   3.473   0.283
 1910SOL    HW2 5737   2.705   3.579   0.399
 1911SOL     OW 5738   2.092   2.490   1.975
 1911SOL    HW1 5739   1.999   2.488   2.012
 1911SOL    HW2 5740   2.093   2.451   1.883
 1912SOL     OW 5741   2.087   2.137   2.858
 1912SOL    HW1 5742   2.122   2.120   2.950
 1912SOL    HW2 5743   1.999   2.092   2.846
 1913SOL     OW 5744   1.881   2.230   2.509
 1913SOL    HW1 5745   1.799   2.273   2.548
 1913SOL    HW2 5746   1.853   2.157   2.446
 1914SOL     OW 5747   2.431   3.137   3.027
 1914SOL    HW1 5748   2.338   3.130   2.990
 1914SOL    HW2 5749   2.442   3.226   3.071
 1915SOL     OW 5750   3.417   3.373   2.565
 1915SOL    HW1 5751   3.360   3.357   2.646
 1915SOL    HW2 5752   3.358   3.383   2.485
 1916SOL     OW 5753   2.997   2.565   2.579
 1916SOL    HW1 5754   3.054   2.643   2.554
 1916SOL    HW2 5755   2.937   2.591   2.655
 1917SOL     OW 5756   3.617   2.469   2.093
 1917SOL    HW1 5757   3.605   2.456   1.994
 1917SOL    HW2 5758   3.587   2.388   2.142
 1918SOL     OW 5759   2.630   3.006   2.885
 1918SOL    HW1 5760   2.552   3.023   2.945
 1918SOL    HW2 5761   2.664   3.093   2.849
 1919SOL     OW 5762   2.712   2.660   3.685
 1919SOL    HW1 5763   2.708   2.736   3.750
 1919SOL    HW2 5764   2.734   2.696   3.594
 1920SOL     OW 5765   2.547   2.874   2.527
 1920SOL    HW1 5766   2.616   2.858   2.597
 1920SOL    HW2 5767   2.474   2.931   2.565
 1921SOL     OW 5768   2.548   3.023   3.665
 1921SOL    HW1 5769   2.608   3.102   3.679
 1921SOL    HW2 5770   2.462   3.054   3.624
 1922SOL     OW 5771   2.197   3.297   2.923
 1922SOL    HW1 5772   2.119   3.266   2.870
 1922SOL    HW2 5773   2.255   3.355   2.866
 1923SOL     OW 5774   3.322   3.367   3.201
 1923SOL    HW1 5775   3.346   3.461   3.227
 1923SOL    HW2 5776   3.306   3.313   3.283
 1924SOL     OW 5777   2.300   2.254   3.361
 1924SOL    HW1 5778   2.382   2.198   3.370
 1924SOL    HW2 5779   2.219   2.196   3.365
 1925SOL     OW 5780   3.465   2.309   2.599
 1925SOL    HW1 5781   3.391   2.355   2.549
 1925SOL    HW2 5782   3.516   2.377   2.652
 1926SOL     OW 5783   2.093   3.575   2.345
 1926SOL    HW1 5784   2.127   3.652   2.399
 1926SOL    HW2 5785   2.137   3.575   2.255
 1927SOL     OW 5786   2.989   3.203   3.552
 1927SOL    HW1 5787   3.036   3.203   3.640
 1927SOL    HW2 5788   2.941   3.116   3.541
 1928SOL     OW 5789   2.092   3.296   2.400
 1928SOL    HW1 5790   2.066   3.392   2.400
 1928SOL    HW2 5791   2.021   3.242   2.445
 1929SOL     OW 5792   2.102   2.953   2.748
 1929SOL    HW1 5793   2.116   2.869   2.800
 1929SOL    HW2 5794   2.047   3.017   2.803
 1930SOL     OW 5795   2.482   3.648   3.301
 1930SOL    HW1 5796   2.390   3.631   3.336
 1930SOL    HW2 5797   2.510   3.740   3.327
 1931SOL     OW 5798   2.468   2.826   1.985
 1931SOL    HW1 5799   2.475   2.910   1.931
 1931SOL    HW2 5800   2.514   2.839   2.073
 1932SOL     OW 5801   3.456   1.976   3.342
 1932SOL    HW1 5802   3.438   2.043   3.270
 1932SOL    HW2 5803   3.453   2.022   3.431
 1933SOL     OW 5804   1.984   2.505   2.425
 1933SOL    HW1 5805   1.939   2.417   2.442
 1933SOL    HW2 5806   1.983   2.559   2.509
 1934SOL     OW 5807   3.704   3.629   2.221
 1934SOL    HW1 5808   3.758   3.600   2.301
 1934SOL    HW2 5809   3.734   3.719   2.192
 1935SOL     OW 5810   1.889   3.458   1.979
 1935SOL    HW1 5811   1.870   3.362   2.000
 1935SOL    HW2 5812   1.856   3.516   2.054
 1936SOL     OW 5813   3.551   2.784   2.474
 1936SOL    HW1 5814   3.646   2.755   2.482
 1936SOL    HW2 5815   3.543   2.849   2.399
 1937SOL     OW 5816   3.503   2.970   2.294
 1937SOL    HW1 5817   3.589   2.972   2.242
 1937SOL    HW2 5818   3.517   3.017   2.382
 1938SOL     OW 5819   1.975   2.599   3.459
 1938SOL    HW1 5820   2.063   2.586   3.504
 1938SOL    HW2 5821   1.962   2.696   3.437
 1939SOL     OW 5822   2.475   3.227   2.588
 1939SOL    HW1 5823   2.426   3.140   2.597
 1939SOL    HW2 5824   2.452   3.270   2.501
 1940SOL     OW 5825   3.155   3.090   3.285
 1940SOL    HW1 5826   3.192   3.017   3.227
 1940SOL    HW2 5827   3.207   3.095   3.370
 1941SOL     OW 5828   2.671   1.866   2.364
 1941SOL    HW1 5829   2.711   1.957   2.355
 1941SOL    HW2 5830   2.571   1.874   2.370
 1942SOL     OW 5831   2.059   2.838   3.126
 1942SOL    HW1 5832   2.148   2.793   3.112
 1942SOL    HW2 5833   1.986   2.773   3.107
 1943SOL     OW 5834   3.387   2.861   2.052
 1943SOL    HW1 5835   3.324   2.785   2.065
 1943SOL    HW2 5836   3.435   2.879   2.138
 1944SOL     OW 5837   3.049   3.654   3.478
 1944SOL    HW1 5838   3.073   3.714   3.402
 1944SOL    HW2 5839   3.056   3.559   3.448
 1945SOL     OW 5840   2.179   2.113   3.663
 1945SOL    HW1 5841   2.250   2.184   3.669
 1945SOL    HW2 5842   2.091   2.152   3.691
 1946SOL     OW 5843   3.328   3.279   2.815
 1946SOL    HW1 5844   3.269   3.285   2.895
 1946SOL    HW2 5845   3.313   3.191   2.769
 1947SOL     OW 5846   3.529   3.576   2.434
 1947SOL    HW1 5847   3.488   3.553   2.346
 1947SOL    HW2 5848   3.511   3.502   2.499
 1948SOL     OW 5849   2.460   2.591   2.132
 1948SOL    HW1 5850   2.484   2.660   2.064
 1948SOL    HW2 5851   2.382   2.624   2.186
 1949SOL     OW 5852   3.143   2.207   2.806
 1949SOL    HW1 5853   3.057   2.157   2.793
 1949SOL    HW2 5854   3.205   2.153   2.862
 1950SOL     OW 5855   3.438   3.524   2.169
 1950SOL    HW1 5856   3.527   3.570   2.172
 1950SOL    HW2 5857   3.417   3.500   2.074
 1951SOL     OW 5858   2.669   2.467   3.327
 1951SOL    HW1 5859   2.622   2.464   3.416
 1951SOL    HW2 5860   2.618   2.412   3.261
 1952SOL     OW 5861   3.256   2.331   3.536
 1952SOL    HW1 5862   3.236   2.374   3.624
 1952SOL    HW2 5863   3.334   2.269   3.545
 1953SOL     OW 5864   2.835   2.752   3.434
 1953SOL    HW1 5865   2.881   2.668   3.405
 1953SOL    HW2 5866   2.779   2.786   3.359
 1954SOL     OW 5867   2.853   2.272   3.104
 1954SOL    HW1 5868   2.776   2.306   3.158
 1954SOL    HW2 5869   2.819   2.221   3.025
 1955SOL     OW 5870   2.903   2.563   2.291
 1955SOL    HW1 5871   2.929   2.559   2.387
 1955SOL    HW2 5872   2.818   2.512   2.277
 1956SOL     OW 5873   1.938   2.673   2.651
 1956SOL    HW1 5874   2.037   2.661   2.660
 1956SOL    HW2 5875   1.914   2.768   2.672
 1957SOL     OW 5876   1.992   3.683   3.433
 1957SOL    HW1 5877   1.982   3.668   3.532
 1957SOL    HW2 5878   1.906   3.719   3.397
 1958SOL     OW 5879   2.727   2.210   2.057
 1958SOL    HW1 5880   2.786   2.273   2.008
 1958SOL    HW2 5881   2.746   2.116   2.028
 1959SOL     OW 5882   3.581   2.447   3.693
 1959SOL    HW1 5883   3.555   2.536   3.657
 1959SOL    HW2 5884   3.579   2.379   3.620
 1960SOL     OW 5885   3.224   3.006   2.407
 1960SOL    HW1 5886   3.307   2.977   2.359
 1960SOL    HW2 5887   3.175   3.073   2.351
 1961SOL     OW 5888   2.412   2.058   2.747
 1961SOL    HW1 5889   2.407   2.053   2.847
 1961SOL    HW2 5890   2.414   2.154   2.718
 1962SOL     OW 5891   2.870   3.318   2.339
 1962SOL    HW1 5892   2.824   3.390   2.287
 1962SOL    HW2 5893   2.866   3.338   2.437
 1963SOL     OW 5894   2.213   3.663   2.715
 1963SOL    HW1 5895   2.263   3.577   2.721
 1963SOL    HW2 5896   2.278   3.740   2.712
 1964SOL     OW 5897   3.657   2.928   2.735
 1964SOL    HW1 5898   3.595   2.913   2.659
 1964SOL    HW2 5899   3.605   2.939   2.820
 1965SOL     OW 5900   3.089   3.412   3.368
 1965SOL    HW1 5901   3.095   3.335   3.432
 1965SOL    HW2 5902   3.037   3.386   3.288
 1966SOL     OW 5903   2.183   2.805   2.104
 1966SOL    HW1 5904   2.265   2.844   2.062
 1966SOL    HW2 5905   2.156   2.723   2.055
 1967SOL     OW 5906   3.320   2.597   2.590
 1967SOL    HW1 5907   3.315   2.532   2.665
 1967SOL    HW2 5908   3.400   2.656   2.603
 1968SOL     OW 5909   2.323   3.128   3.589
 1968SOL    HW1 5910   2.273   3.129   3.503
 1968SOL    HW2 5911   2.260   3.110   3.665
 1969SOL     OW 5912   2.973   3.638   2.099
 1969SOL    HW1 5913   2.913   3.576   2.149
 1969SOL    HW2 5914   3.004   3.594   2.014
 1970SOL     OW 5915   2.064   2.147   3.360
 1970SOL    HW1 5916   1.984   2.207   3.347
 1970SOL    HW2 5917   2.054   2.098   3.446
 1971SOL     OW 5918   3.494   3.239   1.943
 1971SOL    HW1 5919   3.462   3.333   1.933
 1971SOL    HW2 5920   3.418   3.176   1.931
 1972SOL     OW 5921   2.326   3.605   2.185
 1972SOL    HW1 5922   2.359   3.644   2.271
 1972SOL    HW2 5923   2.402   3.598   2.120
 1973SOL     OW 5924   3.262   1.969   2.288
 1973SOL    HW1 5925   3.238   1.932   2.198
 1973SOL    HW2 5926   3.361   1.985   2.292
 1974SOL     OW 5927   2.111   3.647   3.103
 1974SOL    HW1 5928   2.168   3.582   3.153
 1974SOL    HW2 5929   2.095   3.614   3.010
 1975SOL     OW 5930   2.802   3.560   2.766
 1975SOL    HW1 5931   2.882   3.503   2.787
 1975SOL    HW2 5932   2.753   3.520   2.689
 1976SOL     OW 5933   2.244   2.562   2.342
 1976SOL    HW1 5934   2.289   2.472   2.339
 1976SOL    HW2 5935   2.150   2.551   2.375
 1977SOL     OW 5936   3.409   2.084   3.591
 1977SOL    HW1 5937   3.404   2.121   3.683
 1977SOL    HW2 5938   3.337   2.015   3.579
 1978SOL     OW 5939   2.476   1.984   1.979
 1978SOL    HW1 5940   2.574   1.962   1.986
 1978SOL    HW2 5941   2.445   1.967   1.886
 1979SOL     OW 5942   2.643   2.126   3.611
 1979SOL    HW1 5943   2.710   2.065   3.654
 1979SOL    HW2 5944   2.570   2.145   3.676
 1980SOL     OW 5945   2.750   3.376   3.057
 1980SOL    HW1 5946   2.727   3.351   2.963
 1980SOL    HW2 5947   2.811   3.307   3.096
 1981SOL     OW 5948   3.213   2.452   3.295
 1981SOL    HW1 5949   3.241   2.409   3.380
 1981SOL    HW2 5950   3.238   2.548   3.296
 1982SOL     OW 5951   2.665   3.264   2.786
 1982SOL    HW1 5952   2.755   3.278   2.744
 1982SOL    HW2 5953   2.594   3.266   2.715
 1983SOL     OW 5954   2.784   2.365   2.761
 1983SOL    HW1 5955   2.759   2.356   2.665
 1983SOL    HW2 5956   2.832   2.283   2.792
 1984SOL     OW 5957   2.401   1.926   2.374
 1984SOL    HW1 5958   2.320   1.927   2.432
 1984SOL    HW2 5959   2.404   2.009   2.319
 1985SOL     OW 5960   3.296   3.050   1.903
 1985SOL    HW1 5961   3.328   2.974   1.960
 1985SOL    HW2 5962   3.204   3.077   1.933
 1986SOL     OW 5963   2.159   1.897   2.033
 1986SOL    HW1 5964   2.208   1.981   2.012
 1986SOL    HW2 5965   2.221   1.832   2.078
 1987SOL     OW 5966   2.797   2.098   2.342
 1987SOL    HW1 5967   2.749   2.139   2.264
 1987SOL    HW2 5968   2.896   2.096   2.323
 1988SOL     OW 5969   2.938   2.545   3.326
 1988SOL    HW1 5970   2.858   2.484   3.329
 1988SOL    HW2 5971   3.019   2.492   3.302
 1989SOL     OW 5972   3.089   3.432   2.655
 1989SOL    HW1 5973   3.110   3.506   2.590
 1989SOL    HW2 5974   3.157   3.432   2.728
 1990SOL     OW 5975   2.321   3.014   2.603
 1990SOL    HW1 5976   2.250   2.987   2.668
 1990SOL    HW2 5977   2.295   2.986   2.510
 1991SOL     OW 5978   3.133   3.659   2.453
 1991SOL    HW1 5979   3.177   3.723   2.389
 1991SOL    HW2 5980   3.083   3.711   2.523
 1992SOL     OW 5981   2.894   2.411   1.878
 1992SOL    HW1 5982   2.853   2.493   1.839
 1992SOL    HW2 5983   2.958   2.437   1.951
 1993SOL     OW 5984   1.940   2.418   3.248
 1993SOL    HW1 5985   2.032   2.417   3.207
 1993SOL    HW2 5986   1.934   2.492   3.315
 1994SOL     OW 5987   2.423   2.084   3.009
 1994SOL    HW1 5988   2.461   2.000   3.046
 1994SOL    HW2 5989   2.335   2.103   3.053
 1995SOL     OW 5990   2.728   2.316   2.504
 1995SOL    HW1 5991   2.696   2.388   2.442
 1995SOL    HW2 5992   2.752   2.235   2.451
 1996SOL     OW 5993   2.879   1.901   2.615
 1996SOL    HW1 5994   2.807   1.906   2.546
 1996SOL    HW2 5995   2.855   1.832   2.684
 1997SOL     OW 5996   3.291   3.035   2.729
 1997SOL    HW1 5997   3.236   2.951   2.722
 1997SOL    HW2 5998   3.317   3.064   2.637
 1998SOL     OW 5999   3.328   2.452   2.854
 1998SOL    HW1 6000   3.298   2.357   2.861
 1998SOL    HW2 6001   3.401   2.468   2.920
 1999SOL     OW 6002   3.719   2.695   2.239
 1999SOL    HW1 6003   3.761   2.631   2.303
 1999SOL    HW2 6004   3.681   2.644   2.161
 2000SOL     OW 6005   2.350   3.247   2.036
 2000SOL    HW1 6006   2.263   3.232   2.083
 2000SOL    HW2 6007   2.333   3.273   1.941
 2001SOL     OW 6008   3.526   3.142   2.519
 2001SOL    HW1 6009   3.625   3.150   2.533
 2001SOL    HW2 6010   3.481   3.226   2.550
 2002SOL     OW 6011   3.252   2.437   1.940
 2002SOL    HW1 6012   3.198   2.416   2.021
 2002SOL    HW2 6013   3.343   2.396   1.949
 2003SOL     OW 6014   3.616   3.085   3.450
 2003SOL    HW1 6015   3.707   3.046   3.437
 2003SOL    HW2 6016   3.624   3.181   3.474
 2004SOL     OW 6017   2.926   3.209   3.202
 2004SOL    HW1 6018   2.846   3.186   3.257
 2004SOL    HW2 6019   3.009   3.183   3.251
 2005SOL     OW 6020   3.454   3.491   3.487
 2005SOL    HW1 6021   3.481   3.525   3.397
 2005SOL    HW2 6022   3.533   3.453   3.533
 2006SOL     OW 6023   2.973   3.057   2.962
 2006SOL    HW1 6024   2.933   3.101   3.043
 2006SOL    HW2 6025   2.932   3.094   2.879
 2007SOL     OW 6026   3.500   2.961   2.941
 2007SOL    HW1 6027   3.505   3.042   3.000
 2007SOL    HW2 6028   3.414   2.963   2.890
 2008SOL     OW 6029   2.777   1.951   3.264
 2008SOL    HW1 6030   2.802   1.931   3.169
 2008SOL    HW2 6031   2.849   2.007   3.306
 2009SOL     OW 6032   2.842   2.978   3.581
 2009SOL    HW1 6033   2.743   2.984   3.591
 2009SOL    HW2 6034   2.865   2.898   3.525
 2010SOL     OW 6035   2.567   2.912   2.230
 2010SOL    HW1 6036   2.553   2.919   2.329
 2010SOL    HW2 6037   2.651   2.861   2.212
 2011SOL     OW 6038   2.272   2.675   3.113
 2011SOL    HW1 6039   2.358   2.687   3.163
 2011SOL    HW2 6040   2.230   2.588   3.140
 2012SOL     OW 6041   3.136   2.248   3.124
 2012SOL    HW1 6042   3.157   2.322   3.188
 2012SOL    HW2 6043   3.047   2.265   3.081
 2013SOL     OW 6044   1.926   3.426   3.193
 2013SOL    HW1 6045   1.880   3.508   3.159
 2013SOL    HW2 6046   2.024   3.445   3.202
 2014SOL     OW 6047   2.229   2.962   2.363
 2014SOL    HW1 6048   2.222   3.045   2.307
 2014SOL    HW2 6049   2.233   2.882   2.303
 2015SOL     OW 6050   2.428   2.399   2.727
 2015SOL    HW1 6051   2.440   2.465   2.653
 2015SOL    HW2 6052   2.474   2.433   2.810
 2016SOL     OW 6053   3.114   3.210   2.250
 2016SOL    HW1 6054   3.164   3.287   2.290
 2016SOL    HW2 6055   3.019   3.212   2.282
 2017SOL     OW 6056   3.134   3.307   3.004
 2017SOL    HW1 6057   3.181   3.320   3.091
 2017SOL    HW2 6058   3.068   3.233   3.013
 2018SOL     OW 6059   3.444   2.501   2.334
 2018SOL    HW1 6060   3.413   2.562   2.407
 2018SOL    HW2 6061   3.494   2.553   2.265
 2019SOL     OW 6062   2.216   3.372   3.191
 2019SOL    HW1 6063   2.195   3.328   3.104
 2019SOL    HW2 6064   2.313   3.398   3.194
 2020SOL     OW 6065   2.264   2.613   3.460
 2020SOL    HW1 6066   2.332   2.668   3.413
 2020SOL    HW2 6067   2.304   2.525   3.487
 2021SOL     OW 6068   3.449   2.641   3.532
 2021SOL    HW1 6069   3.357   2.679   3.527
 2021SOL    HW2 6070   3.509   2.688   3.467
 2022SOL     OW 6071   2.875   1.967   3.632
 2022SOL    HW1 6072   2.881   2.052   3.580
 2022SOL    HW2 6073   2.907   1.891   3.575
 2023SOL     OW 6074   2.366   1.912   3.602
 2023SOL    HW1 6075   2.324   1.855   3.532
 2023SOL    HW2 6076   2.300   1.981   3.634
 2024SOL     OW 6077   2.435   2.732   2.891
 2024SOL    HW1 6078   2.479   2.821   2.882
 2024SOL    HW2 6079   2.372   2.732   2.968
 2025SOL     OW 6080   3.222   2.724   2.907
 2025SOL    HW1 6081   3.147   2.724   2.841
 2025SOL    HW2 6082   3.259   2.632   2.916
 2026SOL     OW 6083   3.071   2.387   2.137
 2026SOL    HW1 6084   3.084   2.303   2.191
 2026SOL    HW2 6085   3.042   2.461   2.197
 2027SOL     OW 6086   2.169   2.075   3.093
 2027SOL    HW1 6087   2.146   2.112   3.183
 2027SOL    HW2 6088   2.139   1.980   3.087
 2028SOL     OW 6089   1.899   3.172   3.144
 2028SOL    HW1 6090   1.952   3.123   3.212
 2028SOL    HW2 6091   1.921   3.270   3.149
 2029SOL     OW 6092   2.594   2.496   2.926
 2029SOL    HW1 6093   2.653   2.470   2.850
 2029SOL    HW2 6094   2.566   2.592   2.915
 2030SOL     OW 6095   3.590   2.797   3.716
 2030SOL    HW1 6096   3.544   2.790   3.627
 2030SOL    HW2 6097   3.528   2.841   3.782
 2031SOL     OW 6098   2.169   1.925   2.480
 2031SOL    HW1 6099   2.158   2.019   2.513
 2031SOL    HW2 6100   2.164   1.862   2.557
 2032SOL     OW 6101   3.484   2.229   2.236
 2032SOL    HW1 6102   3.486   2.153   2.300
 2032SOL    HW2 6103   3.436   2.306   2.276
 2033SOL     OW 6104   2.885   2.628   2.828
 2033SOL    HW1 6105   2.900   2.649   2.924
 2033SOL    HW2 6106   2.855   2.533   2.819
 2034SOL     OW 6107   2.842   3.435   3.562
 2034SOL    HW1 6108   2.822   3.479   3.474
 2034SOL    HW2 6109   2.881   3.344   3.546
 2035SOL     OW 6110   3.721   3.380   3.467
 2035SOL    HW1 6111   3.735   3.407   3.372
 2035SOL    HW2 6112   3.804   3.402   3.520
 2036SOL     OW 6113   2.212   2.760   3.666
 2036SOL    HW1 6114   2.288   2.804   3.714
 2036SOL    HW2 6115   2.247   2.713   3.584
 2037SOL     OW 6116   3.402   2.136   1.987
 2037SOL    HW1 6117   3.341   2.061   2.010
 2037SOL    HW2 6118   3.424   2.188   2.070
 2038SOL     OW 6119   3.165   2.700   1.904
 2038SOL    HW1 6120   3.199   2.607   1.919
 2038SOL    HW2 6121   3.183   2.727   1.809
 2039SOL     OW 6122   2.930   3.195   2.711
 2039SOL    HW1 6123   2.937   3.111   2.656
 2039SOL    HW2 6124   2.992   3.264   2.675
 2040SOL     OW 6125   2.181   2.672   2.811
 2040SOL    HW1 6126   2.274   2.708   2.816
 2040SOL    HW2 6127   2.175   2.587   2.863
 2041SOL     OW 6128   2.201   2.371   2.868
 2041SOL    HW1 6129   2.149   2.288   2.851
 2041SOL    HW2 6130   2.278   2.376   2.804
 2042SOL     OW 6131   3.000   2.242   3.540
 2042SOL    HW1 6132   2.955   2.305   3.604
 2042SOL    HW2 6133   3.093   2.273   3.523
 2043SOL     OW 6134   3.022   2.069   3.339
 2043SOL    HW1 6135   3.022   2.133   3.416
 2043SOL    HW2 6136   3.050   2.117   3.256
 2044SOL     OW 6137   1.870   3.188   2.062
 2044SOL    HW1 6138   1.777   3.209   2.031
 2044SOL    HW2 6139   1.880   3.089   2.075
 2045SOL     OW 6140   1.950   3.663   2.789
 2045SOL    HW1 6141   1.908   3.577   2.762
 2045SOL    HW2 6142   2.044   3.666   2.755
 2046SOL     OW 6143   2.366   3.430   2.772
 2046SOL    HW1 6144   2.432   3.504   2.781
 2046SOL    HW2 6145   2.410   3.351   2.730
 2047SOL     OW 6146   2.864   2.658   3.100
 2047SOL    HW1 6147   2.905   2.626   3.186
 2047SOL    HW2 6148   2.768   2.631   3.097
 2048SOL     OW 6149   1.902   2.406   2.976
 2048SOL    HW1 6150   1.987   2.373   2.935
 2048SOL    HW2 6151   1.915   2.421   3.074
 2049SOL     OW 6152   2.051   2.382   3.584
 2049SOL    HW1 6153   2.110   2.342   3.514
 2049SOL    HW2 6154   1.993   2.453   3.543
 2050SOL     OW 6155   3.231   2.812   3.522
 2050SOL    HW1 6156   3.270   2.901   3.542
 2050SOL    HW2 6157   3.241   2.792   3.425
 2051SOL     OW 6158   2.677   2.434   2.187
 2051SOL    HW1 6159   2.684   2.345   2.141
 2051SOL    HW2 6160   2.583   2.468   2.179
 2052SOL     OW 6161   3.519   2.466   3.068
 2052SOL    HW1 6162   3.481   2.397   3.130
 2052SOL    HW2 6163   3.601   2.430   3.024
 2053SOL     OW 6164   2.114   3.426   3.606
 2053SOL    HW1 6165   2.084   3.483   3.682
 2053SOL    HW2 6166   2.107   3.329   3.632
 2054SOL     OW 6167   2.533   2.326   3.131
 2054SOL    HW1 6168   2.499   2.237   3.101
 2054SOL    HW2 6169   2.559   2.380   3.051
 2055SOL     OW 6170   2.792   3.540   3.327
 2055SOL    HW1 6171   2.768   3.522   3.232
 2055SOL    HW2 6172   2.822   3.634   3.337
 2056SOL     OW 6173   2.021   2.999   3.328
 2056SOL    HW1 6174   2.043   2.938   3.404
 2056SOL    HW2 6175   2.031   2.950   3.242
 2057SOL     OW 6176   3.209   2.921   3.096
 2057SOL    HW1 6177   3.233   2.858   3.022
 2057SOL    HW2 6178   3.119   2.961   3.078
 2058SOL     OW 6179   3.164   2.717   2.171
 2058SOL    HW1 6180   3.078   2.686   2.213
 2058SOL    HW2 6181   3.160   2.703   2.072
 2059SOL     OW 6182   3.621   3.609   3.016
 2059SOL    HW1 6183   3.682   3.639   2.943
 2059SOL    HW2 6184   3.583   3.520   2.994
 2060SOL     OW 6185   3.114   3.593   2.990
 2060SOL    HW1 6186   3.198   3.598   2.936
 2060SOL    HW2 6187   3.091   3.497   3.008
 2061SOL     OW 6188   1.945   3.120   2.884
 2061SOL    HW1 6189   1.940   3.119   2.984
 2061SOL    HW2 6190   1.862   3.079   2.846
 2062SOL     OW 6191   2.550   3.524   3.578
 2062SOL    HW1 6192   2.494   3.605   3.587
 2062SOL    HW2 6193   2.602   3.528   3.492
 2063SOL     OW 6194   3.588   1.997   2.385
 2063SOL    HW1 6195   3.661   1.980   2.318
 2063SOL    HW2 6196   3.557   1.910   2.423
 2064SOL     OW 6197   3.250   3.435   2.339
 2064SOL    HW1 6198   3.317   3.447   2.265
 2064SOL    HW2 6199   3.210   3.524   2.362
 2065SOL     OW 6200   1.992   3.656   3.713
 2065SOL    HW1 6201   1.951   3.582   3.766
 2065SOL    HW2 6202   2.056   3.707   3.771
 2066SOL     OW 6203   3.142   2.789   2.534
 2066SOL    HW1 6204   3.202   2.708   2.536
 2066SOL    HW2 6205   3.182   2.858   2.474
 2067SOL     OW 6206   2.692   3.135   3.284
 2067SOL    HW1 6207   2.687   3.168   3.379
 2067SOL    HW2 6208   2.606   3.154   3.238
 2068SOL     OW 6209   2.534   3.478   2.016
 2068SOL    HW1 6210   2.543   3.488   1.917
 2068SOL    HW2 6211   2.494   3.389   2.037
 2069SOL     OW 6212   3.512   3.582   3.256
 2069SOL    HW1 6213   3.565   3.592   3.172
 2069SOL    HW2 6214   3.485   3.672   3.290
 2070SOL     OW 6215   3.703   2.037   2.825
 2070SOL    HW1 6216   3.742   1.952   2.789
 2070SOL    HW2 6217   3.605   2.039   2.806
 2071SOL     OW 6218   2.125   2.188   2.582
 2071SOL    HW1 6219   2.046   2.239   2.548
 2071SOL    HW2 6220   2.116   2.173   2.680
 2072SOL     OW 6221   3.056   3.474   1.893
 2072SOL    HW1 6222   3.062   3.381   1.930
 2072SOL    HW2 6223   2.997   3.474   1.813
 2073SOL     OW 6224   2.684   2.864   3.234
 2073SOL    HW1 6225   2.724   2.863   3.142
 2073SOL    HW2 6226   2.694   2.956   3.274
 2074SOL     OW 6227   2.778   2.772   2.153
 2074SOL    HW1 6228   2.841   2.810   2.085
 2074SOL    HW2 6229   2.818   2.689   2.192
 2075SOL     OW 6230   3.366   3.469   1.906
 2075SOL    HW1 6231   3.274   3.506   1.913
 2075SOL    HW2 6232   3.404   3.489   1.816
 2076SOL     OW 6233   2.234   3.150   3.352
 2076SOL    HW1 6234   2.221   3.243   3.318
 2076SOL    HW2 6235   2.150   3.098   3.339
 2077SOL     OW 6236   3.476   3.154   3.151
 2077SOL    HW1 6237   3.536   3.157   3.231
 2077SOL    HW2 6238   3.401   3.218   3.164
 2078SOL     OW 6239   2.901   2.960   2.558
 2078SOL    HW1 6240   2.831   2.913   2.612
 2078SOL    HW2 6241   2.960   2.892   2.515
 2079SOL     OW 6242   2.876   2.098   2.833
 2079SOL    HW1 6243   2.868   2.062   2.740
 2079SOL    HW2 6244   2.874   2.022   2.898
 2080SOL     OW 6245   2.452   3.349   2.353
 2080SOL    HW1 6246   2.494   3.291   2.283
 2080SOL    HW2 6247   2.408   3.428   2.309
 2081SOL     OW 6248   3.571   2.247   3.243
 2081SOL    HW1 6249   3.644   2.316   3.247
 2081SOL    HW2 6250   3.599   2.172   3.184
 2082SOL     OW 6251   2.117   3.210   2.152
 2082SOL    HW1 6252   2.021   3.211   2.125
 2082SOL    HW2 6253   2.129   3.263   2.236
 2083SOL     OW 6254   1.967   2.875   3.588
 2083SOL    HW1 6255   1.890   2.842   3.642
 2083SOL    HW2 6256   2.052   2.845   3.630
 2084SOL     OW 6257   2.534   2.065   3.351
 2084SOL    HW1 6258   2.624   2.049   3.311
 2084SOL    HW2 6259   2.542   2.070   3.450
 2085SOL     OW 6260   1.937   2.207   1.895
 2085SOL    HW1 6261   1.845   2.179   1.866
 2085SOL    HW2 6262   1.968   2.284   1.839
 2086SOL     OW 6263   3.302   2.718   3.260
 2086SOL    HW1 6264   3.245   2.770   3.197
 2086SOL    HW2 6265   3.398   2.730   3.236
 2087SOL     OW 6266   1.934   2.028   2.180
 2087SOL    HW1 6267   1.917   2.111   2.126
 2087SOL    HW2 6268   2.024   1.991   2.158
 2088SOL     OW 6269   3.045   3.197   1.981
 2088SOL    HW1 6270   2.946   3.186   1.983
 2088SOL    HW2 6271   3.079   3.212   2.074
 2089SOL     OW 6272   2.475   2.704   3.293
 2089SOL    HW1 6273   2.531   2.785   3.276
 2089SOL    HW2 6274   2.534   2.624   3.296
 2090SOL     OW 6275   3.355   3.629   2.821
 2090SOL    HW1 6276   3.388   3.693   2.752
 2090SOL    HW2 6277   3.421   3.623   2.896
 2091SOL     OW 6278   2.578   2.427   3.570
 2091SOL    HW1 6279   2.597   2.492   3.644
 2091SOL    HW2 6280   2.638   2.347   3.579
 2092SOL     OW 6281   3.312   3.082   3.495
 2092SOL    HW1 6282   3.303   3.072   3.594
 2092SOL    HW2 6283   3.408   3.075   3.469
 2093SOL     OW 6284   2.252   3.603   3.422
 2093SOL    HW1 6285   2.161   3.644   3.420
 2093SOL    HW2 6286   2.245   3.509   3.454
 2094SOL     OW 6287   3.536   2.745   3.116
 2094SOL    HW1 6288   3.509   2.656   3.079
 2094SOL    HW2 6289   3.537   2.813   3.043
 2095SOL     OW 6290   3.087   2.187   2.311
 2095SOL    HW1 6291   3.152   2.113   2.300
 2095SOL    HW2 6292   3.107   2.237   2.395
 2096SOL     OW 6293   2.456   2.607   2.514
 2096SOL    HW1 6294   2.506   2.692   2.495
 2096SOL    HW2 6295   2.368   2.609   2.466
 2097SOL     OW 6296   3.639   2.204   3.504
 2097SOL    HW1 6297   3.622   2.235   3.410
 2097SOL    HW2 6298   3.555   2.167   3.542
 2098SOL     OW 6299   3.592   2.796   3.379
 2098SOL    HW1 6300   3.630   2.887   3.394
 2098SOL    HW2 6301   3.584   2.779   3.280
 2099SOL     OW 6302   2.721   3.236   1.878
 2099SOL    HW1 6303   2.675   3.251   1.966
 2099SOL    HW2 6304   2.765   3.321   1.848
 2100SOL     OW 6305   2.523   3.652   2.815
 2100SOL    HW1 6306   2.477   3.740   2.802
 2100SOL    HW2 6307   2.622   3.664   2.808
 2101SOL     OW 6308   2.721   2.818   2.723
 2101SOL    HW1 6309   2.775   2.749   2.771
 2101SOL    HW2 6310   2.689   2.887   2.789
 2102SOL     OW 6311   2.945   2.846   1.949
 2102SOL    HW1 6312   2.922   2.899   1.867
 2102SOL    HW2 6313   3.026   2.790   1.930
 2103SOL     OW 6314   3.723   3.431   2.713
 2103SOL    HW1 6315   3.652   3.419   2.643
 2103SOL    HW2 6316   3.724   3.352   2.773
 2104SOL     OW 6317   2.083   3.176   3.706
 2104SOL    HW1 6318   2.018   3.103   3.685
 2104SOL    HW2 6319   2.087   3.190   3.804
 2105SOL     OW 6320   1.941   3.102   2.515
 2105SOL    HW1 6321   1.940   3.055   2.603
 2105SOL    HW2 6322   2.023   3.074   2.464
 2106SOL     OW 6323   2.534   3.253   3.486
 2106SOL    HW1 6324   2.456   3.203   3.524
 2106SOL    HW2 6325   2.531   3.348   3.517
 2107SOL     OW 6326   3.686   2.054   3.089
 2107SOL    HW1 6327   3.682   1.964   3.133
 2107SOL    HW2 6328   3.689   2.043   2.990
 2108SOL     OW 6329   3.567   3.349   2.966
 2108SOL    HW1 6330   3.474   3.324   2.939
 2108SOL    HW2 6331   3.593   3.299   3.048
 2109SOL     OW 6332   2.179   2.409   3.142
 2109SOL    HW1 6333   2.217   2.350   3.214
 2109SOL    HW2 6334   2.219   2.383   3.054
 2110SOL     OW 6335   2.674   3.448   2.549
 2110SOL    HW1 6336   2.706   3.458   2.455
 2110SOL    HW2 6337   2.595   3.386   2.551
 2111SOL     OW 6338   3.286   2.076   2.974
 2111SOL    HW1 6339   3.338   2.011   3.029
 2111SOL    HW2 6340   3.237   2.139   3.035
 2112SOL     OW 6341   2.863   1.896   3.016
 2112SOL    HW1 6342   2.800   1.824   2.985
 2112SOL    HW2 6343   2.956   1.860   3.016
 2113SOL     OW 6344   2.632   3.192   2.163
 2113SOL    HW1 6345   2.586   3.105   2.180
 2113SOL    HW2 6346   2.723   3.189   2.204
 2114SOL     OW 6347   2.480   3.429   3.146
 2114SOL    HW1 6348   2.475   3.511   3.203
 2114SOL    HW2 6349   2.569   3.426   3.101
 2115SOL     OW 6350   3.214   1.914   2.030
 2115SOL    HW1 6351   3.249   1.873   1.946
 2115SOL    HW2 6352   3.124   1.876   2.050
 2116SOL     OW 6353   3.162   2.315   2.553
 2116SOL    HW1 6354   3.103   2.395   2.557
 2116SOL    HW2 6355   3.177   2.280   2.646
 2117SOL     OW 6356   3.455   2.083   2.744
 2117SOL    HW1 6357   3.371   2.082   2.798
 2117SOL    HW2 6358   3.457   2.166   2.688
 2118SOL     OW 6359   1.901   2.939   2.162
 2118SOL    HW1 6360   2.000   2.928   2.153
 2118SOL    HW2 6361   1.861   2.853   2.194
 2119SOL     OW 6362   2.737   3.508   2.199
 2119SOL    HW1 6363   2.660   3.473   2.145
 2119SOL    HW2 6364   2.705   3.579   2.261
 2120SOL     OW 6365   2.092   2.490   3.837
 2120SOL    HW1 6366   1.999   2.488   3.874
 2120SOL    HW2 6367   2.093   2.451   3.745
 2121SOL     OW 6368   3.617   2.469   3.955
 2121SOL    HW1 6369   3.605   2.456   3.856
 2121SOL    HW2 6370   3.587   2.388   4.004
 2122SOL     OW 6371   2.093   3.575   4.207
 2122SOL    HW1 6372   2.127   3.652   4.261
 2122SOL    HW2 6373   2.137   3.575   4.117
 2123SOL     OW 6374   2.092   3.296   4.262
 2123SOL    HW1 6375   2.066   3.392   4.262
 2123SOL    HW2 6376   2.021   3.242   4.307
 2124SOL     OW 6377   2.468   2.826   3.847
 2124SOL    HW1 6378   2.475   2.910   3.793
 2124SOL    HW2 6379   2.514   2.839   3.935
 2125SOL     OW 6380   1.984   2.505   4.287
 2125SOL    HW1 6381   1.939   2.417   4.304
 2125SOL    HW2 6382   1.983   2.559   4.371
 2126SOL     OW 6383   3.704   3.629   4.083
 2126SOL    HW1 6384   3.758   3.600   4.163
 2126SOL    HW2 6385   3.734   3.719   4.054
 2127SOL     OW 6386   1.889   3.458   3.841
 2127SOL    HW1 6387   1.870   3.362   3.862
 2127SOL    HW2 6388   1.856   3.516   3.916
 2128SOL     OW 6389   3.551   2.784   4.336
 2128SOL    HW1 6390   3.646   2.755   4.344
 2128SOL    HW2 6391   3.543   2.849   4.261
 2129SOL     OW 6392   3.503   2.970   4.156
 2129SOL    HW1 6393   3.589   2.972   4.104
 2129SOL    HW2 6394   3.517   3.017   4.244
 2130SOL     OW 6395   2.475   3.227   4.450
 2130SOL    HW1 6396   2.426   3.140   4.459
 2130SOL    HW2 6397   2.452   3.270   4.363
 2131SOL     OW 6398   2.671   1.866   4.226
 2131SOL    HW1 6399   2.711   1.957   4.217
 2131SOL    HW2 6400   2.571   1.874   4.232
 2132SOL     OW 6401   3.387   2.861   3.914
 2132SOL    HW1 6402   3.324   2.785   3.927
 2132SOL    HW2 6403   3.435   2.879   4.000
 2133SOL     OW 6404   3.328   3.279   4.677
 2133SOL    HW1 6405   3.269   3.285   4.757
 2133SOL    HW2 6406   3.313   3.191   4.631
 2134SOL     OW 6407   2.460   2.591   3.994
 2134SOL    HW1 6408   2.484   2.660   3.926
 2134SOL    HW2 6409   2.382   2.624   4.048
 2135SOL     OW 6410   3.438   3.524   4.031
 2135SOL    HW1 6411   3.527   3.570   4.034
 2135SOL    HW2 6412   3.417   3.500   3.936
 2136SOL     OW 6413   2.903   2.563   4.153
 2136SOL    HW1 6414   2.929   2.559   4.249
 2136SOL    HW2 6415   2.818   2.512   4.139
 2137SOL     OW 6416   1.938   2.673   4.513
 2137SOL    HW1 6417   2.037   2.661   4.522
 2137SOL    HW2 6418   1.914   2.768   4.534
 2138SOL     OW 6419   2.727   2.210   3.919
 2138SOL    HW1 6420   2.786   2.273   3.870
 2138SOL    HW2 6421   2.746   2.116   3.890
 2139SOL     OW 6422   3.224   3.006   4.269
 2139SOL    HW1 6423   3.307   2.977   4.221
 2139SOL    HW2 6424   3.175   3.073   4.213
 2140SOL     OW 6425   2.870   3.318   4.201
 2140SOL    HW1 6426   2.824   3.390   4.149
 2140SOL    HW2 6427   2.866   3.338   4.299
 2141SOL     OW 6428   2.213   3.663   4.577
 2141SOL    HW1 6429   2.263   3.577   4.583
 2141SOL    HW2 6430   2.278   3.740   4.574
 2142SOL     OW 6431   2.183   2.805   3.966
 2142SOL    HW1 6432   2.265   2.844   3.924
 2142SOL    HW2 6433   2.156   2.723   3.917
 2143SOL     OW 6434   2.973   3.638   3.961
 2143SOL    HW1 6435   2.913   3.576   4.011
 2143SOL    HW2 6436   3.004   3.594   3.876
 2144SOL     OW 6437   3.494   3.239   3.805
 2144SOL    HW1 6438   3.462   3.333   3.795
 2144SOL    HW2 6439   3.418   3.176   3.793
 2145SOL     OW 6440   2.326   3.605   4.047
 2145SOL    HW1 6441   2.359   3.644   4.133
 2145SOL    HW2 6442   2.402   3.598   3.982
 2146SOL     OW 6443   3.262   1.969   4.150
 2146SOL    HW1 6444   3.238   1.932   4.060
 2146SOL    HW2 6445   3.361   1.985   4.154
 2147SOL     OW 6446   2.244   2.562   4.204
 2147SOL    HW1 6447   2.289   2.472   4.201
 2147SOL    HW2 6448   2.150   2.551   4.237
 2148SOL     OW 6449   2.476   1.984   3.841
 2148SOL    HW1 6450   2.574   1.962   3.848
 2148SOL    HW2 6451   2.445   1.967   3.748
 2149SOL     OW 6452   2.401   1.926   4.236
 2149SOL    HW1 6453   2.320   1.927   4.294
 2149SOL    HW2 6454   2.404   2.009   4.181
 2150SOL     OW 6455   3.296   3.050   3.765
 2150SOL    HW1 6456   3.328   2.974   3.822
 2150SOL    HW2 6457   3.204   3.077   3.795
 2151SOL     OW 6458   2.159   1.897   3.895
 2151SOL    HW1 6459   2.208   1.981   3.874
 2151SOL    HW2 6460   2.221   1.832   3.940
 2152SOL     OW 6461   2.797   2.098   4.204
 2152SOL    HW1 6462   2.749   2.139   4.126
 2152SOL    HW2 6463   2.896   2.096   4.185
 2153SOL     OW 6464   2.321   3.014   4.465
 2153SOL    HW1 6465   2.250   2.987   4.530
 2153SOL    HW2 6466   2.295   2.986   4.372
 2154SOL     OW 6467   3.133   3.659   4.315
 2154SOL    HW1 6468   3.177   3.723   4.251
 2154SOL    HW2 6469   3.083   3.711   4.385
 2155SOL     OW 6470   2.894   2.411   3.740
 2155SOL    HW1 6471   2.853   2.493   3.701
 2155SOL    HW2 6472   2.958   2.437   3.813
 2156SOL     OW 6473   2.728   2.316   4.366
 2156SOL    HW1 6474   2.696   2.388   4.304
 2156SOL    HW2 6475   2.752   2.235   4.313
 2157SOL     OW 6476   3.719   2.695   4.101
 2157SOL    HW1 6477   3.761   2.631   4.165
 2157SOL    HW2 6478   3.681   2.644   4.023
 2158SOL     OW 6479   2.350   3.247   3.898
 2158SOL    HW1 6480   2.263   3.232   3.945
 2158SOL    HW2 6481   2.333   3.273   3.803
 2159SOL     OW 6482   3.252   2.437   3.802
 2159SOL    HW1 6483   3.198   2.416   3.883
 2159SOL    HW2 6484   3.343   2.396   3.811
 2160SOL     OW 6485   2.389   2.118   4.052
 2160SOL    HW1 6486   2.416   2.059   3.977
 2160SOL    HW2 6487   2.389   2.213   4.021
 2161SOL     OW 6488   2.567   2.912   4.092
 2161SOL    HW1 6489   2.553   2.919   4.191
 2161SOL    HW2 6490   2.651   2.861   4.074
 2162SOL     OW 6491   2.229   2.962   4.225
 2162SOL    HW1 6492   2.222   3.045   4.169
 2162SOL    HW2 6493   2.233   2.882   4.165
 2163SOL     OW 6494   3.114   3.210   4.112
 2163SOL    HW1 6495   3.164   3.287   4.152
 2163SOL    HW2 6496   3.019   3.212   4.144
 2164SOL     OW 6497   3.444   2.501   4.196
 2164SOL    HW1 6498   3.413   2.562   4.269
 2164SOL    HW2 6499   3.494   2.553   4.127
 2165SOL     OW 6500   3.071   2.387   3.999
 2165SOL    HW1 6501   3.084   2.303   4.053
 2165SOL    HW2 6502   3.042   2.461   4.059
 2166SOL     OW 6503   2.169   1.925   4.342
 2166SOL    HW1 6504   2.158   2.019   4.375
 2166SOL    HW2 6505   2.164   1.862   4.419
 2167SOL     OW 6506   3.484   2.229   4.098
 2167SOL    HW1 6507   3.486   2.153   4.162
 2167SOL    HW2 6508   3.436   2.306   4.138
 2168SOL     OW 6509   3.402   2.136   3.849
 2168SOL    HW1 6510   3.341   2.061   3.872
 2168SOL    HW2 6511   3.424   2.188   3.932
 2169SOL     OW 6512   3.165   2.700   3.766
 2169SOL    HW1 6513   3.199   2.607   3.781
 2169SOL    HW2 6514   3.183   2.727   3.671
 2170SOL     OW 6515   1.870   3.188   3.924
 2170SOL    HW1 6516   1.777   3.209   3.893
 2170SOL    HW2 6517   1.880   3.089   3.937
 2171SOL     OW 6518   2.677   2.434   4.049
 2171SOL    HW1 6519   2.684   2.345   4.003
 2171SOL    HW2 6520   2.583   2.468   4.041
 2172SOL     OW 6521   2.335   2.362   3.915
 2172SOL    HW1 6522   2.396   2.442   3.919
 2172SOL    HW2 6523   2.240   2.393   3.922
 2173SOL     OW 6524   3.164   2.717   4.033
 2173SOL    HW1 6525   3.078   2.686   4.075
 2173SOL    HW2 6526   3.160   2.703   3.934
 2174SOL     OW 6527   3.588   1.997   4.247
 2174SOL    HW1 6528   3.661   1.980   4.180
 2174SOL    HW2 6529   3.557   1.910   4.285
 2175SOL     OW 6530   3.250   3.435   4.201
 2175SOL    HW1 6531   3.317   3.447   4.127
 2175SOL    HW2 6532   3.210   3.524   4.224
 2176SOL     OW 6533   2.534   3.478   3.878
 2176SOL    HW1 6534   2.543   3.488   3.779
 2176SOL    HW2 6535   2.494   3.389   3.899
 2177SOL     OW 6536   3.703   2.037   4.687
 2177SOL    HW1 6537   3.742   1.952   4.651
 2177SOL    HW2 6538   3.605   2.039   4.668
 2178SOL     OW 6539   3.056   3.474   3.755
 2178SOL    HW1 6540   3.062   3.381   3.792
 2178SOL    HW2 6541   2.997   3.474   3.675
 2179SOL     OW 6542   2.778   2.772   4.015
 2179SOL    HW1 6543   2.841   2.810   3.947
 2179SOL    HW2 6544   2.818   2.689   4.054
 2180SOL     OW 6545   3.366   3.469   3.768
 2180SOL    HW1 6546   3.274   3.506   3.775
 2180SOL    HW2 6547   3.404   3.489   3.678
 2181SOL     OW 6548   2.452   3.349   4.215
 2181SOL    HW1 6549   2.494   3.291   4.145
 2181SOL    HW2 6550   2.408   3.428   4.171
 2182SOL     OW 6551   2.117   3.210   4.014
 2182SOL    HW1 6552   2.021   3.211   3.987
 2182SOL    HW2 6553   2.129   3.263   4.098
 2183SOL     OW 6554   1.937   2.207   3.757
 2183SOL    HW1 6555   1.845   2.179   3.728
 2183SOL    HW2 6556   1.968   2.284   3.701
 2184SOL     OW 6557   1.934   2.028   4.042
 2184SOL    HW1 6558   1.917   2.111   3.988
 2184SOL    HW2 6559   2.024   1.991   4.020
 2185SOL     OW 6560   3.045   3.197   3.843
 2185SOL    HW1 6561   2.946   3.186   3.845
 2185SOL    HW2 6562   3.079   3.212   3.936
 2186SOL     OW 6563   3.087   2.187   4.173
 2186SOL    HW1 6564   3.152   2.113   4.162
 2186SOL    HW2 6565   3.107   2.237   4.257
 2187SOL     OW 6566   2.456   2.607   4.376
 2187SOL    HW1 6567   2.506   2.692   4.357
 2187SOL    HW2 6568   2.368   2.609   4.328
 2188SOL     OW 6569   2.721   3.236   3.740
 2188SOL    HW1 6570   2.675   3.251   3.828
 2188SOL    HW2 6571   2.765   3.321   3.710
 2189SOL     OW 6572   2.945   2.846   3.811
 2189SOL    HW1 6573   2.922   2.899   3.729
 2189SOL    HW2 6574   3.026   2.790   3.792
 2190SOL     OW 6575   1.941   3.102   4.377
 2190SOL    HW1 6576   1.940   3.055   4.465
 2190SOL    HW2 6577   2.023   3.074   4.326
 2191SOL     OW 6578   2.290   2.286   4.244
 2191SOL    HW1 6579   2.320   2.214   4.182
 2191SOL    HW2 6580   2.251   2.246   4.327
 2192SOL     OW 6581   2.632   3.192   4.025
 2192SOL    HW1 6582   2.586   3.105   4.042
 2192SOL    HW2 6583   2.723   3.189   4.066
 2193SOL     OW 6584   3.214   1.914   3.892
 2193SOL    HW1 6585   3.249   1.873   3.808
 2193SOL    HW2 6586   3.124   1.876   3.912
 2194SOL     OW 6587   3.162   2.315   4.415
 2194SOL    HW1 6588   3.103   2.395   4.419
 2194SOL    HW2 6589   3.177   2.280   4.508
 2195SOL     OW 6590   1.901   2.939   4.024
 2195SOL    HW1 6591   2.000   2.928   4.015
 2195SOL    HW2 6592   1.861   2.853   4.056
 2196SOL     OW 6593   2.737   3.508   4.061
 2196SOL    HW1 6594   2.660   3.473   4.007
 2196SOL    HW2 6595   2.705   3.579   4.123
 2197SOL     OW 6596   2.087   3.999   0.996
 2197SOL    HW1 6597   2.122   3.982   1.088
 2197SOL    HW2 6598   1.999   3.954   0.984
 2198SOL     OW 6599   1.881   4.092   0.647
 2198SOL    HW1 6600   1.799   4.135   0.686
 2198SOL    HW2 6601   1.853   4.019   0.584
 2199SOL     OW 6602   3.617   4.331   0.231
 2199SOL    HW1 6603   3.605   4.318   0.132
 2199SOL    HW2 6604   3.587   4.250   0.280
 2200SOL     OW 6605   2.300   4.116   1.499
 2200SOL    HW1 6606   2.382   4.060   1.508
 2200SOL    HW2 6607   2.219   4.058   1.503
 2201SOL     OW 6608   3.465   4.171   0.737
 2201SOL    HW1 6609   3.391   4.217   0.687
 2201SOL    HW2 6610   3.516   4.239   0.790
 2202SOL     OW 6611   3.456   3.838   1.480
 2202SOL    HW1 6612   3.438   3.905   1.408
 2202SOL    HW2 6613   3.453   3.884   1.569
 2203SOL     OW 6614   1.984   4.367   0.563
 2203SOL    HW1 6615   1.939   4.279   0.580
 2203SOL    HW2 6616   1.983   4.421   0.647
 2204SOL     OW 6617   1.975   4.461   1.597
 2204SOL    HW1 6618   2.063   4.448   1.642
 2204SOL    HW2 6619   1.962   4.558   1.575
 2205SOL     OW 6620   2.671   3.728   0.502
 2205SOL    HW1 6621   2.711   3.819   0.493
 2205SOL    HW2 6622   2.571   3.736   0.508
 2206SOL     OW 6623   2.179   3.975   1.801
 2206SOL    HW1 6624   2.250   4.046   1.807
 2206SOL    HW2 6625   2.091   4.014   1.829
 2207SOL     OW 6626   3.143   4.069   0.944
 2207SOL    HW1 6627   3.057   4.019   0.931
 2207SOL    HW2 6628   3.205   4.015   1.000
 2208SOL     OW 6629   2.669   4.329   1.465
 2208SOL    HW1 6630   2.622   4.326   1.554
 2208SOL    HW2 6631   2.618   4.274   1.399
 2209SOL     OW 6632   3.256   4.193   1.674
 2209SOL    HW1 6633   3.236   4.236   1.762
 2209SOL    HW2 6634   3.334   4.131   1.683
 2210SOL     OW 6635   2.853   4.134   1.242
 2210SOL    HW1 6636   2.776   4.168   1.296
 2210SOL    HW2 6637   2.819   4.083   1.163
 2211SOL     OW 6638   2.903   4.425   0.429
 2211SOL    HW1 6639   2.929   4.421   0.525
 2211SOL    HW2 6640   2.818   4.374   0.415
 2212SOL     OW 6641   2.727   4.072   0.195
 2212SOL    HW1 6642   2.786   4.135   0.146
 2212SOL    HW2 6643   2.746   3.978   0.166
 2213SOL     OW 6644   3.581   4.309   1.831
 2213SOL    HW1 6645   3.555   4.398   1.795
 2213SOL    HW2 6646   3.579   4.241   1.758
 2214SOL     OW 6647   2.412   3.920   0.885
 2214SOL    HW1 6648   2.407   3.915   0.985
 2214SOL    HW2 6649   2.414   4.016   0.856
 2215SOL     OW 6650   3.320   4.459   0.728
 2215SOL    HW1 6651   3.315   4.394   0.803
 2215SOL    HW2 6652   3.400   4.518   0.741
 2216SOL     OW 6653   2.064   4.009   1.498
 2216SOL    HW1 6654   1.984   4.069   1.485
 2216SOL    HW2 6655   2.054   3.960   1.584
 2217SOL     OW 6656   3.262   3.831   0.426
 2217SOL    HW1 6657   3.238   3.794   0.336
 2217SOL    HW2 6658   3.361   3.847   0.430
 2218SOL     OW 6659   3.409   3.946   1.729
 2218SOL    HW1 6660   3.404   3.983   1.821
 2218SOL    HW2 6661   3.337   3.877   1.717
 2219SOL     OW 6662   2.476   3.846   0.117
 2219SOL    HW1 6663   2.574   3.824   0.124
 2219SOL    HW2 6664   2.445   3.829   0.024
 2220SOL     OW 6665   2.643   3.988   1.749
 2220SOL    HW1 6666   2.710   3.927   1.792
 2220SOL    HW2 6667   2.570   4.007   1.814
 2221SOL     OW 6668   3.213   4.314   1.433
 2221SOL    HW1 6669   3.241   4.271   1.518
 2221SOL    HW2 6670   3.238   4.410   1.434
 2222SOL     OW 6671   2.784   4.227   0.899
 2222SOL    HW1 6672   2.759   4.218   0.803
 2222SOL    HW2 6673   2.832   4.145   0.930
 2223SOL     OW 6674   2.401   3.788   0.512
 2223SOL    HW1 6675   2.320   3.789   0.570
 2223SOL    HW2 6676   2.404   3.871   0.457
 2224SOL     OW 6677   2.797   3.960   0.480
 2224SOL    HW1 6678   2.749   4.001   0.402
 2224SOL    HW2 6679   2.896   3.958   0.461
 2225SOL     OW 6680   2.938   4.407   1.464
 2225SOL    HW1 6681   2.858   4.346   1.467
 2225SOL    HW2 6682   3.019   4.354   1.440
 2226SOL     OW 6683   2.894   4.273   0.016
 2226SOL    HW1 6684   2.853   4.355  -0.023
 2226SOL    HW2 6685   2.958   4.299   0.089
 2227SOL     OW 6686   1.940   4.280   1.386
 2227SOL    HW1 6687   2.032   4.279   1.345
 2227SOL    HW2 6688   1.934   4.354   1.453
 2228SOL     OW 6689   2.423   3.946   1.147
 2228SOL    HW1 6690   2.461   3.862   1.184
 2228SOL    HW2 6691   2.335   3.965   1.191
 2229SOL     OW 6692   2.728   4.178   0.642
 2229SOL    HW1 6693   2.696   4.250   0.580
 2229SOL    HW2 6694   2.752   4.097   0.589
 2230SOL     OW 6695   2.879   3.763   0.753
 2230SOL    HW1 6696   2.807   3.768   0.684
 2230SOL    HW2 6697   2.855   3.694   0.822
 2231SOL     OW 6698   3.328   4.314   0.992
 2231SOL    HW1 6699   3.298   4.219   0.999
 2231SOL    HW2 6700   3.401   4.330   1.058
 2232SOL     OW 6701   2.389   3.980   0.328
 2232SOL    HW1 6702   2.416   3.921   0.253
 2232SOL    HW2 6703   2.389   4.075   0.297
 2233SOL     OW 6704   2.777   3.813   1.402
 2233SOL    HW1 6705   2.802   3.793   1.307
 2233SOL    HW2 6706   2.849   3.869   1.444
 2234SOL     OW 6707   3.136   4.110   1.262
 2234SOL    HW1 6708   3.157   4.184   1.326
 2234SOL    HW2 6709   3.047   4.127   1.219
 2235SOL     OW 6710   2.428   4.261   0.865
 2235SOL    HW1 6711   2.440   4.327   0.791
 2235SOL    HW2 6712   2.474   4.295   0.948
 2236SOL     OW 6713   3.444   4.363   0.472
 2236SOL    HW1 6714   3.413   4.424   0.545
 2236SOL    HW2 6715   3.494   4.415   0.403
 2237SOL     OW 6716   2.875   3.829   1.770
 2237SOL    HW1 6717   2.881   3.914   1.718
 2237SOL    HW2 6718   2.907   3.753   1.713
 2238SOL     OW 6719   2.366   3.774   1.740
 2238SOL    HW1 6720   2.324   3.717   1.670
 2238SOL    HW2 6721   2.300   3.843   1.772
 2239SOL     OW 6722   3.071   4.249   0.275
 2239SOL    HW1 6723   3.084   4.165   0.329
 2239SOL    HW2 6724   3.042   4.323   0.335
 2240SOL     OW 6725   2.169   3.937   1.231
 2240SOL    HW1 6726   2.146   3.974   1.321
 2240SOL    HW2 6727   2.139   3.842   1.225
 2241SOL     OW 6728   2.594   4.358   1.064
 2241SOL    HW1 6729   2.653   4.332   0.988
 2241SOL    HW2 6730   2.566   4.454   1.053
 2242SOL     OW 6731   2.169   3.787   0.618
 2242SOL    HW1 6732   2.158   3.881   0.651
 2242SOL    HW2 6733   2.164   3.724   0.695
 2243SOL     OW 6734   3.484   4.091   0.374
 2243SOL    HW1 6735   3.486   4.015   0.438
 2243SOL    HW2 6736   3.436   4.168   0.414
 2244SOL     OW 6737   3.402   3.998   0.125
 2244SOL    HW1 6738   3.341   3.923   0.148
 2244SOL    HW2 6739   3.424   4.050   0.208
 2245SOL     OW 6740   2.181   4.534   0.949
 2245SOL    HW1 6741   2.274   4.570   0.954
 2245SOL    HW2 6742   2.175   4.449   1.001
 2246SOL     OW 6743   2.201   4.233   1.006
 2246SOL    HW1 6744   2.149   4.150   0.989
 2246SOL    HW2 6745   2.278   4.238   0.942
 2247SOL     OW 6746   3.000   4.104   1.678
 2247SOL    HW1 6747   2.955   4.167   1.742
 2247SOL    HW2 6748   3.093   4.135   1.661
 2248SOL     OW 6749   3.022   3.931   1.477
 2248SOL    HW1 6750   3.022   3.995   1.554
 2248SOL    HW2 6751   3.050   3.979   1.394
 2249SOL     OW 6752   1.902   4.268   1.114
 2249SOL    HW1 6753   1.987   4.235   1.073
 2249SOL    HW2 6754   1.915   4.283   1.212
 2250SOL     OW 6755   2.051   4.244   1.722
 2250SOL    HW1 6756   2.110   4.204   1.652
 2250SOL    HW2 6757   1.993   4.315   1.681
 2251SOL     OW 6758   2.677   4.296   0.325
 2251SOL    HW1 6759   2.684   4.207   0.279
 2251SOL    HW2 6760   2.583   4.330   0.317
 2252SOL     OW 6761   3.519   4.328   1.206
 2252SOL    HW1 6762   3.481   4.259   1.268
 2252SOL    HW2 6763   3.601   4.292   1.162
 2253SOL     OW 6764   2.533   4.188   1.269
 2253SOL    HW1 6765   2.499   4.099   1.239
 2253SOL    HW2 6766   2.559   4.242   1.189
 2254SOL     OW 6767   2.335   4.224   0.191
 2254SOL    HW1 6768   2.396   4.304   0.195
 2254SOL    HW2 6769   2.240   4.255   0.198
 2255SOL     OW 6770   2.765   3.810   0.133
 2255SOL    HW1 6771   2.816   3.811   0.047
 2255SOL    HW2 6772   2.821   3.768   0.204
 2256SOL     OW 6773   3.588   3.859   0.523
 2256SOL    HW1 6774   3.661   3.842   0.456
 2256SOL    HW2 6775   3.557   3.772   0.561
 2257SOL     OW 6776   3.142   4.651   0.672
 2257SOL    HW1 6777   3.202   4.570   0.674
 2257SOL    HW2 6778   3.182   4.720   0.612
 2258SOL     OW 6779   3.703   3.899   0.963
 2258SOL    HW1 6780   3.742   3.814   0.927
 2258SOL    HW2 6781   3.605   3.901   0.944
 2259SOL     OW 6782   2.125   4.050   0.720
 2259SOL    HW1 6783   2.046   4.101   0.686
 2259SOL    HW2 6784   2.116   4.035   0.818
 2260SOL     OW 6785   2.876   3.960   0.971
 2260SOL    HW1 6786   2.868   3.924   0.878
 2260SOL    HW2 6787   2.874   3.884   1.036
 2261SOL     OW 6788   3.571   4.109   1.381
 2261SOL    HW1 6789   3.644   4.178   1.385
 2261SOL    HW2 6790   3.599   4.034   1.322
 2262SOL     OW 6791   2.534   3.927   1.489
 2262SOL    HW1 6792   2.624   3.911   1.449
 2262SOL    HW2 6793   2.542   3.932   1.588
 2263SOL     OW 6794   1.937   4.069   0.033
 2263SOL    HW1 6795   1.845   4.041   0.004
 2263SOL    HW2 6796   1.968   4.146  -0.023
 2264SOL     OW 6797   2.578   4.289   1.708
 2264SOL    HW1 6798   2.597   4.354   1.782
 2264SOL    HW2 6799   2.638   4.209   1.717
 2265SOL     OW 6800   3.087   4.049   0.449
 2265SOL    HW1 6801   3.152   3.975   0.438
 2265SOL    HW2 6802   3.107   4.099   0.533
 2266SOL     OW 6803   3.639   4.066   1.642
 2266SOL    HW1 6804   3.622   4.097   1.548
 2266SOL    HW2 6805   3.555   4.029   1.680
 2267SOL     OW 6806   2.945   4.708   0.087
 2267SOL    HW1 6807   2.922   4.761   0.005
 2267SOL    HW2 6808   3.026   4.652   0.068
 2268SOL     OW 6809   3.686   3.916   1.227
 2268SOL    HW1 6810   3.682   3.826   1.271
 2268SOL    HW2 6811   3.689   3.905   1.128
 2269SOL     OW 6812   2.290   4.148   0.520
 2269SOL    HW1 6813   2.320   4.076   0.458
 2269SOL    HW2 6814   2.251   4.108   0.603
 2270SOL     OW 6815   2.179   4.271   1.280
 2270SOL    HW1 6816   2.217   4.212   1.352
 2270SOL    HW2 6817   2.219   4.245   1.192
 2271SOL     OW 6818   3.286   3.938   1.112
 2271SOL    HW1 6819   3.338   3.873   1.167
 2271SOL    HW2 6820   3.237   4.001   1.173
 2272SOL     OW 6821   2.863   3.758   1.154
 2272SOL    HW1 6822   2.800   3.686   1.123
 2272SOL    HW2 6823   2.956   3.722   1.154
 2273SOL     OW 6824   3.214   3.776   0.168
 2273SOL    HW1 6825   3.249   3.735   0.084
 2273SOL    HW2 6826   3.124   3.738   0.188
 2274SOL     OW 6827   3.162   4.177   0.691
 2274SOL    HW1 6828   3.103   4.257   0.695
 2274SOL    HW2 6829   3.177   4.142   0.784
 2275SOL     OW 6830   3.455   3.945   0.882
 2275SOL    HW1 6831   3.371   3.944   0.936
 2275SOL    HW2 6832   3.457   4.028   0.826
 2276SOL     OW 6833   2.087   3.999   2.858
 2276SOL    HW1 6834   2.122   3.982   2.950
 2276SOL    HW2 6835   1.999   3.954   2.846
 2277SOL     OW 6836   1.881   4.092   2.509
 2277SOL    HW1 6837   1.799   4.135   2.548
 2277SOL    HW2 6838   1.853   4.019   2.446
 2278SOL     OW 6839   3.617   4.331   2.093
 2278SOL    HW1 6840   3.605   4.318   1.994
 2278SOL    HW2 6841   3.587   4.250   2.142
 2279SOL     OW 6842   2.300   4.116   3.361
 2279SOL    HW1 6843   2.382   4.060   3.370
 2279SOL    HW2 6844   2.219   4.058   3.365
 2280SOL     OW 6845   3.465   4.171   2.599
 2280SOL    HW1 6846   3.391   4.217   2.549
 2280SOL    HW2 6847   3.516   4.239   2.652
 2281SOL     OW 6848   3.456   3.838   3.342
 2281SOL    HW1 6849   3.438   3.905   3.270
 2281SOL    HW2 6850   3.453   3.884   3.431
 2282SOL     OW 6851   1.984   4.367   2.425
 2282SOL    HW1 6852   1.939   4.279   2.442
 2282SOL    HW2 6853   1.983   4.421   2.509
 2283SOL     OW 6854   1.975   4.461   3.459
 2283SOL    HW1 6855   2.063   4.448   3.504
 2283SOL    HW2 6856   1.962   4.558   3.437
 2284SOL     OW 6857   2.671   3.728   2.364
 2284SOL    HW1 6858   2.711   3.819   2.355
 2284SOL    HW2 6859   2.571   3.736   2.370
 2285SOL     OW 6860   2.179   3.975   3.663
 2285SOL    HW1 6861   2.250   4.046   3.669
 2285SOL    HW2 6862   2.091   4.014   3.691
 2286SOL     OW 6863   3.143   4.069   2.806
 2286SOL    HW1 6864   3.057   4.019   2.793
 2286SOL    HW2 6865   3.205   4.015   2.862
 2287SOL     OW 6866   2.669   4.329   3.327
 2287SOL    HW1 6867   2.622   4.326   3.416
 2287SOL    HW2 6868   2.618   4.274   3.261
 2288SOL     OW 6869   3.256   4.193   3.536
 2288SOL    HW1 6870   3.236   4.236   3.624
 2288SOL    HW2 6871   3.334   4.131   3.545
 2289SOL     OW 6872   2.853   4.134   3.104
 2289SOL    HW1 6873   2.776   4.168   3.158
 2289SOL    HW2 6874   2.819   4.083   3.025
 2290SOL     OW 6875   2.903   4.425   2.291
 2290SOL    HW1 6876   2.929   4.421   2.387
 2290SOL    HW2 6877   2.818   4.374   2.277
 2291SOL     OW 6878   2.727   4.072   2.057
 2291SOL    HW1 6879   2.786   4.135   2.008
 2291SOL    HW2 6880   2.746   3.978   2.028
 2292SOL     OW 6881   3.581   4.309   3.693
 2292SOL    HW1 6882   3.555   4.398   3.657
 2292SOL    HW2 6883   3.579   4.241   3.620
 2293SOL     OW 6884   2.412   3.920   2.747
 2293SOL    HW1 6885   2.407   3.915   2.847
 2293SOL    HW2 6886   2.414   4.016   2.718
 2294SOL     OW 6887   3.320   4.459   2.590
 2294SOL    HW1 6888   3.315   4.394   2.665
 2294SOL    HW2 6889   3.400   4.518   2.603
 2295SOL     OW 6890   2.064   4.009   3.360
 2295SOL    HW1 6891   1.984   4.069   3.347
 2295SOL    HW2 6892   2.054   3.960   3.446
 2296SOL     OW 6893   3.262   3.831   2.288
 2296SOL    HW1 6894   3.238   3.794   2.198
 2296SOL    HW2 6895   3.361   3.847   2.292
 2297SOL     OW 6896   3.409   3.946   3.591
 2297SOL    HW1 6897   3.404   3.983   3.683
 2297SOL    HW2 6898   3.337   3.877   3.579
 2298SOL     OW 6899   2.476   3.846   1.979
 2298SOL    HW1 6900   2.574   3.824   1.986
 2298SOL    HW2 6901   2.445   3.829   1.886
 2299SOL     OW 6902   2.643   3.988   3.611
 2299SOL    HW1 6903   2.710   3.927   3.654
 2299SOL    HW2 6904   2.570   4.007   3.676
 2300SOL     OW 6905   3.213   4.314   3.295
 2300SOL    HW1 6906   3.241   4.271   3.380
 2300SOL    HW2 6907   3.238   4.410   3.296
 2301SOL     OW 6908   2.784   4.227   2.761
 2301SOL    HW1 6909   2.759   4.218   2.665
 2301SOL    HW2 6910   2.832   4.145   2.792
 2302SOL     OW 6911   2.401   3.788   2.374
 2302SOL    HW1 6912   2.320   3.789   2.432
 2302SOL    HW2 6913   2.404   3.871   2.319
 2303SOL     OW 6914   2.159   3.759   2.033
 2303SOL    HW1 6915   2.208   3.843   2.012
 2303SOL    HW2 6916   2.221   3.694   2.078
 2304SOL     OW 6917   2.797   3.960   2.342
 2304SOL    HW1 6918   2.749   4.001   2.264
 2304SOL    HW2 6919   2.896   3.958   2.323
 2305SOL     OW 6920   2.938   4.407   3.326
 2305SOL    HW1 6921   2.858   4.346   3.329
 2305SOL    HW2 6922   3.019   4.354   3.302
 2306SOL     OW 6923   2.894   4.273   1.878
 2306SOL    HW1 6924   2.853   4.355   1.839
 2306SOL    HW2 6925   2.958   4.299   1.951
 2307SOL     OW 6926   1.940   4.280   3.248
 2307SOL    HW1 6927   2.032   4.279   3.207
 2307SOL    HW2 6928   1.934   4.354   3.315
 2308SOL     OW 6929   2.423   3.946   3.009
 2308SOL    HW1 6930   2.461   3.862   3.046
 2308SOL    HW2 6931   2.335   3.965   3.053
 2309SOL     OW 6932   2.728   4.178   2.504
 2309SOL    HW1 6933   2.696   4.250   2.442
 2309SOL    HW2 6934   2.752   4.097   2.451
 2310SOL     OW 6935   2.879   3.763   2.615
 2310SOL    HW1 6936   2.807   3.768   2.546
 2310SOL    HW2 6937   2.855   3.694   2.684
 2311SOL     OW 6938   3.328   4.314   2.854
 2311SOL    HW1 6939   3.298   4.219   2.861
 2311SOL    HW2 6940   3.401   4.330   2.920
 2312SOL     OW 6941   2.389   3.980   2.190
 2312SOL    HW1 6942   2.416   3.921   2.115
 2312SOL    HW2 6943   2.389   4.075   2.159
 2313SOL     OW 6944   2.777   3.813   3.264
 2313SOL    HW1 6945   2.802   3.793   3.169
 2313SOL    HW2 6946   2.849   3.869   3.306
 2314SOL     OW 6947   3.136   4.110   3.124
 2314SOL    HW1 6948   3.157   4.184   3.188
 2314SOL    HW2 6949   3.047   4.127   3.081
 2315SOL     OW 6950   2.428   4.261   2.727
 2315SOL    HW1 6951   2.440   4.327   2.653
 2315SOL    HW2 6952   2.474   4.295   2.810
 2316SOL     OW 6953   3.444   4.363   2.334
 2316SOL    HW1 6954   3.413   4.424   2.407
 2316SOL    HW2 6955   3.494   4.415   2.265
 2317SOL     OW 6956   2.875   3.829   3.632
 2317SOL    HW1 6957   2.881   3.914   3.580
 2317SOL    HW2 6958   2.907   3.753   3.575
 2318SOL     OW 6959   2.366   3.774   3.602
 2318SOL    HW1 6960   2.324   3.717   3.532
 2318SOL    HW2 6961   2.300   3.843   3.634
 2319SOL     OW 6962   3.071   4.249   2.137
 2319SOL    HW1 6963   3.084   4.165   2.191
 2319SOL    HW2 6964   3.042   4.323   2.197
 2320SOL     OW 6965   2.169   3.937   3.093
 2320SOL    HW1 6966   2.146   3.974   3.183
 2320SOL    HW2 6967   2.139   3.842   3.087
 2321SOL     OW 6968   2.594   4.358   2.926
 2321SOL    HW1 6969   2.653   4.332   2.850
 2321SOL    HW2 6970   2.566   4.454   2.915
 2322SOL     OW 6971   2.169   3.787   2.480
 2322SOL    HW1 6972   2.158   3.881   2.513
 2322SOL    HW2 6973   2.164   3.724   2.557
 2323SOL     OW 6974   3.484   4.091   2.236
 2323SOL    HW1 6975   3.486   4.015   2.300
 2323SOL    HW2 6976   3.436   4.168   2.276
 2324SOL     OW 6977   3.402   3.998   1.987
 2324SOL    HW1 6978   3.341   3.923   2.010
 2324SOL    HW2 6979   3.424   4.050   2.070
 2325SOL     OW 6980   2.181   4.534   2.811
 2325SOL    HW1 6981   2.274   4.570   2.816
 2325SOL    HW2 6982   2.175   4.449   2.863
 2326SOL     OW 6983   2.201   4.233   2.868
 2326SOL    HW1 6984   2.149   4.150   2.851
 2326SOL    HW2 6985   2.278   4.238   2.804
 2327SOL     OW 6986   3.000   4.104   3.540
 2327SOL    HW1 6987   2.955   4.167   3.604
 2327SOL    HW2 6988   3.093   4.135   3.523
 2328SOL     OW 6989   3.022   3.931   3.339
 2328SOL    HW1 6990   3.022   3.995   3.416
 2328SOL    HW2 6991   3.050   3.979   3.256
 2329SOL     OW 6992   1.902   4.268   2.976
 2329SOL    HW1 6993   1.987   4.235   2.935
 2329SOL    HW2 6994   1.915   4.283   3.074
 2330SOL     OW 6995   2.051   4.244   3.584
 2330SOL    HW1 6996   2.110   4.204   3.514
 2330SOL    HW2 6997   1.993   4.315   3.543
 2331SOL     OW 6998   2.677   4.296   2.187
 2331SOL    HW1 6999   2.684   4.207   2.141
 2331SOL    HW2 7000   2.583   4.330   2.179
 2332SOL     OW 7001   3.519   4.328   3.068
 2332SOL    HW1 7002   3.481   4.259   3.130
 2332SOL    HW2 7003   3.601   4.292   3.024
 2333SOL     OW 7004   2.533   4.188   3.131
 2333SOL    HW1 7005   2.499   4.099   3.101
 2333SOL    HW2 7006   2.559   4.242   3.051
 2334SOL     OW 7007   2.335   4.224   2.053
 2334SOL    HW1 7008   2.396   4.304   2.057
 2334SOL    HW2 7009   2.240   4.255   2.060
 2335SOL     OW 7010   3.588   3.859   2.385
 2335SOL    HW1 7011   3.661   3.842   2.318
 2335SOL    HW2 7012   3.557   3.772   2.423
 2336SOL     OW 7013   3.142   4.651   2.534
 2336SOL    HW1 7014   3.202   4.570   2.536
 2336SOL    HW2 7015   3.182   4.720   2.474
 2337SOL     OW 7016   3.703   3.899   2.825
 2337SOL    HW1 7017   3.742   3.814   2.789
 2337SOL    HW2 7018   3.605   3.901   2.806
 2338SOL     OW 7019   2.125   4.050   2.582
 2338SOL    HW1 7020   2.046   4.101   2.548
 2338SOL    HW2 7021   2.116   4.035   2.680
 2339SOL     OW 7022   2.876   3.960   2.833
 2339SOL    HW1 7023   2.868   3.924   2.740
 2339SOL    HW2 7024   2.874   3.884   2.898
 2340SOL     OW 7025   3.571   4.109   3.243
 2340SOL    HW1 7026   3.644   4.178   3.247
 2340SOL    HW2 7027   3.599   4.034   3.184
 2341SOL     OW 7028   2.534   3.927   3.351
 2341SOL    HW1 7029   2.624   3.911   3.311
 2341SOL    HW2 7030   2.542   3.932   3.450
 2342SOL     OW 7031   1.937   4.069   1.895
 2342SOL    HW1 7032   1.845   4.041   1.866
 2342SOL    HW2 7033   1.968   4.146   1.839
 2343SOL     OW 7034   1.934   3.890   2.180
 2343SOL    HW1 7035   1.917   3.973   2.126
 2343SOL    HW2 7036   2.024   3.853   2.158
 2344SOL     OW 7037   2.578   4.289   3.570
 2344SOL    HW1 7038   2.597   4.354   3.644
 2344SOL    HW2 7039   2.638   4.209   3.579
 2345SOL     OW 7040   3.087   4.049   2.311
 2345SOL    HW1 7041   3.152   3.975   2.300
 2345SOL    HW2 7042   3.107   4.099   2.395
 2346SOL     OW 7043   3.639   4.066   3.504
 2346SOL    HW1 7044   3.622   4.097   3.410
 2346SOL    HW2 7045   3.555   4.029   3.542
 2347SOL     OW 7046   2.945   4.708   1.949
 2347SOL    HW1 7047   2.922   4.761   1.867
 2347SOL    HW2 7048   3.026   4.652   1.930
 2348SOL     OW 7049   3.686   3.916   3.089
 2348SOL    HW1 7050   3.682   3.826   3.133
 2348SOL    HW2 7051   3.689   3.905   2.990
 2349SOL     OW 7052   2.290   4.148   2.382
 2349SOL    HW1 7053   2.320   4.076   2.320
 2349SOL    HW2 7054   2.251   4.108   2.465
 2350SOL     OW 7055   2.179   4.271   3.142
 2350SOL    HW1 7056   2.217   4.212   3.214
 2350SOL    HW2 7057   2.219   4.245   3.054
 2351SOL     OW 7058   3.286   3.938   2.974
 2351SOL    HW1 7059   3.338   3.873   3.029
 2351SOL    HW2 7060   3.237   4.001   3.035
 2352SOL     OW 7061   2.863   3.758   3.016
 2352SOL    HW1 7062   2.800   3.686   2.985
 2352SOL    HW2 7063   2.956   3.722   3.016
 2353SOL     OW 7064   3.214   3.776   2.030
 2353SOL    HW1 7065   3.249   3.735   1.946
 2353SOL    HW2 7066   3.124   3.738   2.050
 2354SOL     OW 7067   3.162   4.177   2.553
 2354SOL    HW1 7068   3.103   4.257   2.557
 2354SOL    HW2 7069   3.177   4.142   2.646
 2355SOL     OW 7070   3.455   3.945   2.744
 2355SOL    HW1 7071   3.371   3.944   2.798
 2355SOL    HW2 7072   3.457   4.028   2.688
 2356SOL     OW 7073   2.997   4.427   4.441
 2356SOL    HW1 7074   3.054   4.505   4.416
 2356SOL    HW2 7075   2.937   4.453   4.517
 2357SOL     OW 7076   3.617   4.331   3.955
 2357SOL    HW1 7077   3.605   4.318   3.856
 2357SOL    HW2 7078   3.587   4.250   4.004
 2358SOL     OW 7079   1.984   4.367   4.287
 2358SOL    HW1 7080   1.939   4.279   4.304
 2358SOL    HW2 7081   1.983   4.421   4.371
 2359SOL     OW 7082   2.671   3.728   4.226
 2359SOL    HW1 7083   2.711   3.819   4.217
 2359SOL    HW2 7084   2.571   3.736   4.232
 2360SOL     OW 7085   2.903   4.425   4.153
 2360SOL    HW1 7086   2.929   4.421   4.249
 2360SOL    HW2 7087   2.818   4.374   4.139
 2361SOL     OW 7088   2.727   4.072   3.919
 2361SOL    HW1 7089   2.786   4.135   3.870
 2361SOL    HW2 7090   2.746   3.978   3.890
 2362SOL     OW 7091   3.262   3.831   4.150
 2362SOL    HW1 7092   3.238   3.794   4.060
 2362SOL    HW2 7093   3.361   3.847   4.154
 2363SOL     OW 7094   2.476   3.846   3.841
 2363SOL    HW1 7095   2.574   3.824   3.848
 2363SOL    HW2 7096   2.445   3.829   3.748
 2364SOL     OW 7097   2.401   3.788   4.236
 2364SOL    HW1 7098   2.320   3.789   4.294
 2364SOL    HW2 7099   2.404   3.871   4.181
 2365SOL     OW 7100   2.159   3.759   3.895
 2365SOL    HW1 7101   2.208   3.843   3.874
 2365SOL    HW2 7102   2.221   3.694   3.940
 2366SOL     OW 7103   2.797   3.960   4.204
 2366SOL    HW1 7104   2.749   4.001   4.126
 2366SOL    HW2 7105   2.896   3.958   4.185
 2367SOL     OW 7106   2.894   4.273   3.740
 2367SOL    HW1 7107   2.853   4.355   3.701
 2367SOL    HW2 7108   2.958   4.299   3.813
 2368SOL     OW 7109   2.728   4.178   4.366
 2368SOL    HW1 7110   2.696   4.250   4.304
 2368SOL    HW2 7111   2.752   4.097   4.313
 2369SOL     OW 7112   2.389   3.980   4.052
 2369SOL    HW1 7113   2.416   3.921   3.977
 2369SOL    HW2 7114   2.389   4.075   4.021
 2370SOL     OW 7115   3.444   4.363   4.196
 2370SOL    HW1 7116   3.413   4.424   4.269
 2370SOL    HW2 7117   3.494   4.415   4.127
 2371SOL     OW 7118   3.071   4.249   3.999
 2371SOL    HW1 7119   3.084   4.165   4.053
 2371SOL    HW2 7120   3.042   4.323   4.059
 2372SOL     OW 7121   2.169   3.787   4.342
 2372SOL    HW1 7122   2.158   3.881   4.375
 2372SOL    HW2 7123   2.164   3.724   4.419
 2373SOL     OW 7124   3.484   4.091   4.098
 2373SOL    HW1 7125   3.486   4.015   4.162
 2373SOL    HW2 7126   3.436   4.168   4.138
 2374SOL     OW 7127   3.402   3.998   3.849
 2374SOL    HW1 7128   3.341   3.923   3.872
 2374SOL    HW2 7129   3.424   4.050   3.932
 2375SOL     OW 7130   2.677   4.296   4.049
 2375SOL    HW1 7131   2.684   4.207   4.003
 2375SOL    HW2 7132   2.583   4.330   4.041
 2376SOL     OW 7133   2.335   4.224   3.915
 2376SOL    HW1 7134   2.396   4.304   3.919
 2376SOL    HW2 7135   2.240   4.255   3.922
 2377SOL     OW 7136   3.588   3.859   4.247
 2377SOL    HW1 7137   3.661   3.842   4.180
 2377SOL    HW2 7138   3.557   3.772   4.285
 2378SOL     OW 7139   3.142   4.651   4.396
 2378SOL    HW1 7140   3.202   4.570   4.398
 2378SOL    HW2 7141   3.182   4.720   4.336
 2379SOL     OW 7142   3.703   3.899   4.687
 2379SOL    HW1 7143   3.742   3.814   4.651
 2379SOL    HW2 7144   3.605   3.901   4.668
 2380SOL     OW 7145   1.937   4.069   3.757
 2380SOL    HW1 7146   1.845   4.041   3.728
 2380SOL    HW2 7147   1.968   4.146   3.701
 2381SOL     OW 7148   1.934   3.890   4.042
 2381SOL    HW1 7149   1.917   3.973   3.988
 2381SOL    HW2 7150   2.024   3.853   4.020
 2382SOL     OW 7151   3.087   4.049   4.173
 2382SOL    HW1 7152   3.152   3.975   4.162
 2382SOL    HW2 7153   3.107   4.099   4.257
 2383SOL     OW 7154   2.945   4.708   3.811
 2383SOL    HW1 7155   2.922   4.761   3.729
 2383SOL    HW2 7156   3.026   4.652   3.792
 2384SOL     OW 7157   2.290   4.148   4.244
 2384SOL    HW1 7158   2.320   4.076   4.182
 2384SOL    HW2 7159   2.251   4.108   4.327
 2385SOL     OW 7160   3.214   3.776   3.892
 2385SOL    HW1 7161   3.249   3.735   3.808
 2385SOL    HW2 7162   3.124   3.738   3.912
 2386SOL     OW 7163   3.162   4.177   4.415
 2386SOL    HW1 7164   3.103   4.257   4.419
 2386SOL    HW2 7165   3.177   4.142   4.508
 2387SOL     OW 7166   3.954   0.628   0.113
 2387SOL    HW1 7167   3.861   0.626   0.150
 2387SOL    HW2 7168   3.955   0.589   0.021
 2388SOL     OW 7169   3.949   0.275   0.996
 2388SOL    HW1 7170   3.984   0.258   1.088
 2388SOL    HW2 7171   3.861   0.230   0.984
 2389SOL     OW 7172   3.743   0.368   0.647
 2389SOL    HW1 7173   3.661   0.411   0.686
 2389SOL    HW2 7174   3.715   0.295   0.584
 2390SOL     OW 7175   4.293   1.275   1.165
 2390SOL    HW1 7176   4.200   1.268   1.128
 2390SOL    HW2 7177   4.304   1.364   1.209
 2391SOL     OW 7178   4.574   0.798   1.823
 2391SOL    HW1 7179   4.570   0.874   1.888
 2391SOL    HW2 7180   4.596   0.834   1.732
 2392SOL     OW 7181   4.059   1.435   1.061
 2392SOL    HW1 7182   3.981   1.404   1.008
 2392SOL    HW2 7183   4.117   1.493   1.004
 2393SOL     OW 7184   4.162   0.392   1.499
 2393SOL    HW1 7185   4.244   0.336   1.508
 2393SOL    HW2 7186   4.081   0.334   1.503
 2394SOL     OW 7187   3.955   1.713   0.483
 2394SOL    HW1 7188   3.989   1.790   0.537
 2394SOL    HW2 7189   3.999   1.713   0.393
 2395SOL     OW 7190   3.954   1.434   0.538
 2395SOL    HW1 7191   3.928   1.530   0.538
 2395SOL    HW2 7192   3.883   1.380   0.583
 2396SOL     OW 7193   3.964   1.091   0.886
 2396SOL    HW1 7194   3.978   1.007   0.938
 2396SOL    HW2 7195   3.909   1.155   0.941
 2397SOL     OW 7196   3.846   0.643   0.563
 2397SOL    HW1 7197   3.801   0.555   0.580
 2397SOL    HW2 7198   3.845   0.697   0.647
 2398SOL     OW 7199   3.751   1.596   0.117
 2398SOL    HW1 7200   3.732   1.500   0.138
 2398SOL    HW2 7201   3.718   1.654   0.192
 2399SOL     OW 7202   3.837   0.737   1.597
 2399SOL    HW1 7203   3.925   0.724   1.642
 2399SOL    HW2 7204   3.824   0.834   1.575
 2400SOL     OW 7205   4.337   1.365   0.726
 2400SOL    HW1 7206   4.288   1.278   0.735
 2400SOL    HW2 7207   4.314   1.408   0.639
 2401SOL     OW 7208   3.921   0.976   1.264
 2401SOL    HW1 7209   4.010   0.931   1.250
 2401SOL    HW2 7210   3.848   0.911   1.245
 2402SOL     OW 7211   4.041   0.251   1.801
 2402SOL    HW1 7212   4.112   0.322   1.807
 2402SOL    HW2 7213   3.953   0.290   1.829
 2403SOL     OW 7214   4.322   0.729   0.270
 2403SOL    HW1 7215   4.346   0.798   0.202
 2403SOL    HW2 7216   4.244   0.762   0.324
 2404SOL     OW 7217   3.800   0.811   0.789
 2404SOL    HW1 7218   3.899   0.799   0.798
 2404SOL    HW2 7219   3.776   0.906   0.810
 2405SOL     OW 7220   3.854   1.821   1.571
 2405SOL    HW1 7221   3.844   1.806   1.670
 2405SOL    HW2 7222   3.768   1.857   1.535
 2406SOL     OW 7223   4.589   0.348   0.195
 2406SOL    HW1 7224   4.648   0.411   0.146
 2406SOL    HW2 7225   4.608   0.254   0.166
 2407SOL     OW 7226   4.274   0.196   0.885
 2407SOL    HW1 7227   4.269   0.191   0.985
 2407SOL    HW2 7228   4.276   0.292   0.856
 2408SOL     OW 7229   4.075   1.801   0.853
 2408SOL    HW1 7230   4.125   1.715   0.859
 2408SOL    HW2 7231   4.140   1.878   0.850
 2409SOL     OW 7232   4.045   0.943   0.242
 2409SOL    HW1 7233   4.127   0.982   0.200
 2409SOL    HW2 7234   4.018   0.861   0.193
 2410SOL     OW 7235   4.185   1.266   1.727
 2410SOL    HW1 7236   4.135   1.267   1.641
 2410SOL    HW2 7237   4.122   1.248   1.803
 2411SOL     OW 7238   3.926   0.285   1.498
 2411SOL    HW1 7239   3.846   0.345   1.485
 2411SOL    HW2 7240   3.916   0.236   1.584
 2412SOL     OW 7241   4.188   1.743   0.323
 2412SOL    HW1 7242   4.221   1.782   0.409
 2412SOL    HW2 7243   4.264   1.736   0.258
 2413SOL     OW 7244   3.973   1.785   1.241
 2413SOL    HW1 7245   4.030   1.720   1.291
 2413SOL    HW2 7246   3.957   1.752   1.148
 2414SOL     OW 7247   4.106   0.700   0.480
 2414SOL    HW1 7248   4.151   0.610   0.477
 2414SOL    HW2 7249   4.012   0.689   0.513
 2415SOL     OW 7250   4.527   1.402   0.924
 2415SOL    HW1 7251   4.617   1.416   0.882
 2415SOL    HW2 7252   4.456   1.404   0.853
 2416SOL     OW 7253   4.263   0.064   0.512
 2416SOL    HW1 7254   4.182   0.065   0.570
 2416SOL    HW2 7255   4.266   0.147   0.457
 2417SOL     OW 7256   4.021   0.035   0.171
 2417SOL    HW1 7257   4.070   0.119   0.150
 2417SOL    HW2 7258   4.083  -0.030   0.216
 2418SOL     OW 7259   4.659   0.236   0.480
 2418SOL    HW1 7260   4.611   0.277   0.402
 2418SOL    HW2 7261   4.758   0.234   0.461
 2419SOL     OW 7262   4.183   1.152   0.741
 2419SOL    HW1 7263   4.112   1.125   0.806
 2419SOL    HW2 7264   4.157   1.124   0.648
 2420SOL     OW 7265   3.802   0.556   1.386
 2420SOL    HW1 7266   3.894   0.555   1.345
 2420SOL    HW2 7267   3.796   0.630   1.453
 2421SOL     OW 7268   4.285   0.222   1.147
 2421SOL    HW1 7269   4.323   0.138   1.184
 2421SOL    HW2 7270   4.197   0.241   1.191
 2422SOL     OW 7271   4.251   0.256   0.328
 2422SOL    HW1 7272   4.278   0.197   0.253
 2422SOL    HW2 7273   4.251   0.351   0.297
 2423SOL     OW 7274   4.134   0.813   1.251
 2423SOL    HW1 7275   4.220   0.825   1.301
 2423SOL    HW2 7276   4.092   0.726   1.278
 2424SOL     OW 7277   3.788   1.564   1.331
 2424SOL    HW1 7278   3.742   1.646   1.297
 2424SOL    HW2 7279   3.886   1.583   1.340
 2425SOL     OW 7280   4.091   1.100   0.501
 2425SOL    HW1 7281   4.084   1.183   0.445
 2425SOL    HW2 7282   4.095   1.020   0.441
 2426SOL     OW 7283   4.290   0.537   0.865
 2426SOL    HW1 7284   4.302   0.603   0.791
 2426SOL    HW2 7285   4.336   0.571   0.948
 2427SOL     OW 7286   4.078   1.510   1.329
 2427SOL    HW1 7287   4.057   1.466   1.242
 2427SOL    HW2 7288   4.175   1.536   1.332
 2428SOL     OW 7289   4.126   0.751   1.598
 2428SOL    HW1 7290   4.194   0.806   1.551
 2428SOL    HW2 7291   4.166   0.663   1.625
 2429SOL     OW 7292   4.228   0.050   1.740
 2429SOL    HW1 7293   4.186  -0.007   1.670
 2429SOL    HW2 7294   4.162   0.119   1.772
 2430SOL     OW 7295   4.297   0.870   1.029
 2430SOL    HW1 7296   4.341   0.959   1.020
 2430SOL    HW2 7297   4.234   0.870   1.106
 2431SOL     OW 7298   4.031   0.213   1.231
 2431SOL    HW1 7299   4.008   0.250   1.321
 2431SOL    HW2 7300   4.001   0.118   1.225
 2432SOL     OW 7301   3.761   1.310   1.282
 2432SOL    HW1 7302   3.814   1.261   1.350
 2432SOL    HW2 7303   3.783   1.408   1.287
 2433SOL     OW 7304   4.031   0.063   0.618
 2433SOL    HW1 7305   4.020   0.157   0.651
 2433SOL    HW2 7306   4.026   0.000   0.695
 2434SOL     OW 7307   4.074   0.898   1.804
 2434SOL    HW1 7308   4.150   0.942   1.852
 2434SOL    HW2 7309   4.109   0.851   1.722
 2435SOL     OW 7310   4.043   0.810   0.949
 2435SOL    HW1 7311   4.136   0.846   0.954
 2435SOL    HW2 7312   4.037   0.725   1.001
 2436SOL     OW 7313   4.063   0.509   1.006
 2436SOL    HW1 7314   4.011   0.426   0.989
 2436SOL    HW2 7315   4.140   0.514   0.942
 2437SOL     OW 7316   3.732   1.326   0.200
 2437SOL    HW1 7317   3.639   1.347   0.169
 2437SOL    HW2 7318   3.742   1.227   0.213
 2438SOL     OW 7319   3.812   1.801   0.927
 2438SOL    HW1 7320   3.770   1.715   0.900
 2438SOL    HW2 7321   3.906   1.804   0.893
 2439SOL     OW 7322   4.228   1.568   0.910
 2439SOL    HW1 7323   4.294   1.642   0.919
 2439SOL    HW2 7324   4.272   1.489   0.868
 2440SOL     OW 7325   3.764   0.544   1.114
 2440SOL    HW1 7326   3.849   0.511   1.073
 2440SOL    HW2 7327   3.777   0.559   1.212
 2441SOL     OW 7328   3.913   0.520   1.722
 2441SOL    HW1 7329   3.972   0.480   1.652
 2441SOL    HW2 7330   3.855   0.591   1.681
 2442SOL     OW 7331   4.539   0.572   0.325
 2442SOL    HW1 7332   4.546   0.483   0.279
 2442SOL    HW2 7333   4.445   0.606   0.317
 2443SOL     OW 7334   3.976   1.564   1.744
 2443SOL    HW1 7335   3.946   1.621   1.820
 2443SOL    HW2 7336   3.969   1.467   1.770
 2444SOL     OW 7337   4.197   0.500   0.191
 2444SOL    HW1 7338   4.258   0.580   0.195
 2444SOL    HW2 7339   4.102   0.531   0.198
 2445SOL     OW 7340   3.883   1.137   1.466
 2445SOL    HW1 7341   3.905   1.076   1.542
 2445SOL    HW2 7342   3.893   1.088   1.380
 2446SOL     OW 7343   3.807   1.258   1.022
 2446SOL    HW1 7344   3.802   1.257   1.122
 2446SOL    HW2 7345   3.724   1.217   0.984
 2447SOL     OW 7346   4.412   1.662   1.716
 2447SOL    HW1 7347   4.356   1.743   1.725
 2447SOL    HW2 7348   4.464   1.666   1.630
 2448SOL     OW 7349   3.854   1.794   1.851
 2448SOL    HW1 7350   3.813   1.720   1.904
 2448SOL    HW2 7351   3.918   1.845   1.909
 2449SOL     OW 7352   3.987   0.326   0.720
 2449SOL    HW1 7353   3.908   0.377   0.686
 2449SOL    HW2 7354   3.978   0.311   0.818
 2450SOL     OW 7355   4.096   1.288   1.490
 2450SOL    HW1 7356   4.083   1.381   1.456
 2450SOL    HW2 7357   4.012   1.236   1.477
 2451SOL     OW 7358   4.314   1.487   0.491
 2451SOL    HW1 7359   4.356   1.429   0.421
 2451SOL    HW2 7360   4.270   1.566   0.447
 2452SOL     OW 7361   3.979   1.348   0.290
 2452SOL    HW1 7362   3.883   1.349   0.263
 2452SOL    HW2 7363   3.991   1.401   0.374
 2453SOL     OW 7364   3.829   1.013   1.726
 2453SOL    HW1 7365   3.752   0.980   1.780
 2453SOL    HW2 7366   3.914   0.983   1.768
 2454SOL     OW 7367   4.396   0.203   1.489
 2454SOL    HW1 7368   4.486   0.187   1.449
 2454SOL    HW2 7369   4.404   0.208   1.588
 2455SOL     OW 7370   3.799   0.345   0.033
 2455SOL    HW1 7371   3.707   0.317   0.004
 2455SOL    HW2 7372   3.830   0.422  -0.023
 2456SOL     OW 7373   4.337   0.842   1.431
 2456SOL    HW1 7374   4.393   0.923   1.414
 2456SOL    HW2 7375   4.396   0.762   1.434
 2457SOL     OW 7376   4.114   1.741   1.560
 2457SOL    HW1 7377   4.023   1.782   1.558
 2457SOL    HW2 7378   4.107   1.647   1.592
 2458SOL     OW 7379   4.318   0.745   0.652
 2458SOL    HW1 7380   4.368   0.830   0.633
 2458SOL    HW2 7381   4.230   0.747   0.604
 2459SOL     OW 7382   3.945   1.314   1.844
 2459SOL    HW1 7383   3.880   1.241   1.823
 2459SOL    HW2 7384   3.949   1.328   1.942
 2460SOL     OW 7385   3.803   1.240   0.653
 2460SOL    HW1 7386   3.802   1.193   0.741
 2460SOL    HW2 7387   3.885   1.212   0.602
 2461SOL     OW 7388   4.396   1.391   1.624
 2461SOL    HW1 7389   4.318   1.341   1.662
 2461SOL    HW2 7390   4.393   1.486   1.655
 2462SOL     OW 7391   4.152   0.424   0.520
 2462SOL    HW1 7392   4.182   0.352   0.458
 2462SOL    HW2 7393   4.113   0.384   0.603
 2463SOL     OW 7394   4.041   0.547   1.280
 2463SOL    HW1 7395   4.079   0.488   1.352
 2463SOL    HW2 7396   4.081   0.521   1.192
 2464SOL     OW 7397   3.763   1.077   0.300
 2464SOL    HW1 7398   3.862   1.066   0.291
 2464SOL    HW2 7399   3.723   0.991   0.332
 2465SOL     OW 7400   3.954   0.628   1.975
 2465SOL    HW1 7401   3.861   0.626   2.012
 2465SOL    HW2 7402   3.955   0.589   1.883
 2466SOL     OW 7403   3.949   0.275   2.858
 2466SOL    HW1 7404   3.984   0.258   2.950
 2466SOL    HW2 7405   3.861   0.230   2.846
 2467SOL     OW 7406   3.743   0.368   2.509
 2467SOL    HW1 7407   3.661   0.411   2.548
 2467SOL    HW2 7408   3.715   0.295   2.446
 2468SOL     OW 7409   4.293   1.275   3.027
 2468SOL    HW1 7410   4.200   1.268   2.990
 2468SOL    HW2 7411   4.304   1.364   3.071
 2469SOL     OW 7412   4.574   0.798   3.685
 2469SOL    HW1 7413   4.570   0.874   3.750
 2469SOL    HW2 7414   4.596   0.834   3.594
 2470SOL     OW 7415   4.059   1.435   2.923
 2470SOL    HW1 7416   3.981   1.404   2.870
 2470SOL    HW2 7417   4.117   1.493   2.866
 2471SOL     OW 7418   4.162   0.392   3.361
 2471SOL    HW1 7419   4.244   0.336   3.370
 2471SOL    HW2 7420   4.081   0.334   3.365
 2472SOL     OW 7421   3.955   1.713   2.345
 2472SOL    HW1 7422   3.989   1.790   2.399
 2472SOL    HW2 7423   3.999   1.713   2.255
 2473SOL     OW 7424   3.954   1.434   2.400
 2473SOL    HW1 7425   3.928   1.530   2.400
 2473SOL    HW2 7426   3.883   1.380   2.445
 2474SOL     OW 7427   3.964   1.091   2.748
 2474SOL    HW1 7428   3.978   1.007   2.800
 2474SOL    HW2 7429   3.909   1.155   2.803
 2475SOL     OW 7430   3.846   0.643   2.425
 2475SOL    HW1 7431   3.801   0.555   2.442
 2475SOL    HW2 7432   3.845   0.697   2.509
 2476SOL     OW 7433   3.751   1.596   1.979
 2476SOL    HW1 7434   3.732   1.500   2.000
 2476SOL    HW2 7435   3.718   1.654   2.054
 2477SOL     OW 7436   3.837   0.737   3.459
 2477SOL    HW1 7437   3.925   0.724   3.504
 2477SOL    HW2 7438   3.824   0.834   3.437
 2478SOL     OW 7439   4.337   1.365   2.588
 2478SOL    HW1 7440   4.288   1.278   2.597
 2478SOL    HW2 7441   4.314   1.408   2.501
 2479SOL     OW 7442   3.921   0.976   3.126
 2479SOL    HW1 7443   4.010   0.931   3.112
 2479SOL    HW2 7444   3.848   0.911   3.107
 2480SOL     OW 7445   4.041   0.251   3.663
 2480SOL    HW1 7446   4.112   0.322   3.669
 2480SOL    HW2 7447   3.953   0.290   3.691
 2481SOL     OW 7448   4.322   0.729   2.132
 2481SOL    HW1 7449   4.346   0.798   2.064
 2481SOL    HW2 7450   4.244   0.762   2.186
 2482SOL     OW 7451   3.800   0.811   2.651
 2482SOL    HW1 7452   3.899   0.799   2.660
 2482SOL    HW2 7453   3.776   0.906   2.672
 2483SOL     OW 7454   3.854   1.821   3.433
 2483SOL    HW1 7455   3.844   1.806   3.532
 2483SOL    HW2 7456   3.768   1.857   3.397
 2484SOL     OW 7457   4.589   0.348   2.057
 2484SOL    HW1 7458   4.648   0.411   2.008
 2484SOL    HW2 7459   4.608   0.254   2.028
 2485SOL     OW 7460   4.274   0.196   2.747
 2485SOL    HW1 7461   4.269   0.191   2.847
 2485SOL    HW2 7462   4.276   0.292   2.718
 2486SOL     OW 7463   4.075   1.801   2.715
 2486SOL    HW1 7464   4.125   1.715   2.721
 2486SOL    HW2 7465   4.140   1.878   2.712
 2487SOL     OW 7466   4.045   0.943   2.104
 2487SOL    HW1 7467   4.127   0.982   2.062
 2487SOL    HW2 7468   4.018   0.861   2.055
 2488SOL     OW 7469   4.185   1.266   3.589
 2488SOL    HW1 7470   4.135   1.267   3.503
 2488SOL    HW2 7471   4.122   1.248   3.665
 2489SOL     OW 7472   3.926   0.285   3.360
 2489SOL    HW1 7473   3.846   0.345   3.347
 2489SOL    HW2 7474   3.916   0.236   3.446
 2490SOL     OW 7475   4.188   1.743   2.185
 2490SOL    HW1 7476   4.221   1.782   2.271
 2490SOL    HW2 7477   4.264   1.736   2.120
 2491SOL     OW 7478   3.973   1.785   3.103
 2491SOL    HW1 7479   4.030   1.720   3.153
 2491SOL    HW2 7480   3.957   1.752   3.010
 2492SOL     OW 7481   4.106   0.700   2.342
 2492SOL    HW1 7482   4.151   0.610   2.339
 2492SOL    HW2 7483   4.012   0.689   2.375
 2493SOL     OW 7484   4.338   0.122   1.979
 2493SOL    HW1 7485   4.436   0.100   1.986
 2493SOL    HW2 7486   4.307   0.105   1.886
 2494SOL     OW 7487   4.527   1.402   2.786
 2494SOL    HW1 7488   4.617   1.416   2.744
 2494SOL    HW2 7489   4.456   1.404   2.715
 2495SOL     OW 7490   4.263   0.064   2.374
 2495SOL    HW1 7491   4.182   0.065   2.432
 2495SOL    HW2 7492   4.266   0.147   2.319
 2496SOL     OW 7493   4.021   0.035   2.033
 2496SOL    HW1 7494   4.070   0.119   2.012
 2496SOL    HW2 7495   4.083  -0.030   2.078
 2497SOL     OW 7496   4.659   0.236   2.342
 2497SOL    HW1 7497   4.611   0.277   2.264
 2497SOL    HW2 7498   4.758   0.234   2.323
 2498SOL     OW 7499   4.183   1.152   2.603
 2498SOL    HW1 7500   4.112   1.125   2.668
 2498SOL    HW2 7501   4.157   1.124   2.510
 2499SOL     OW 7502   3.802   0.556   3.248
 2499SOL    HW1 7503   3.894   0.555   3.207
 2499SOL    HW2 7504   3.796   0.630   3.315
 2500SOL     OW 7505   4.285   0.222   3.009
 2500SOL    HW1 7506   4.323   0.138   3.046
 2500SOL    HW2 7507   4.197   0.241   3.053
 2501SOL     OW 7508   4.251   0.256   2.190
 2501SOL    HW1 7509   4.278   0.197   2.115
 2501SOL    HW2 7510   4.251   0.351   2.159
 2502SOL     OW 7511   4.134   0.813   3.113
 2502SOL    HW1 7512   4.220   0.825   3.163
 2502SOL    HW2 7513   4.092   0.726   3.140
 2503SOL     OW 7514   3.788   1.564   3.193
 2503SOL    HW1 7515   3.742   1.646   3.159
 2503SOL    HW2 7516   3.886   1.583   3.202
 2504SOL     OW 7517   4.091   1.100   2.363
 2504SOL    HW1 7518   4.084   1.183   2.307
 2504SOL    HW2 7519   4.095   1.020   2.303
 2505SOL     OW 7520   4.290   0.537   2.727
 2505SOL    HW1 7521   4.302   0.603   2.653
 2505SOL    HW2 7522   4.336   0.571   2.810
 2506SOL     OW 7523   4.078   1.510   3.191
 2506SOL    HW1 7524   4.057   1.466   3.104
 2506SOL    HW2 7525   4.175   1.536   3.194
 2507SOL     OW 7526   4.126   0.751   3.460
 2507SOL    HW1 7527   4.194   0.806   3.413
 2507SOL    HW2 7528   4.166   0.663   3.487
 2508SOL     OW 7529   4.228   0.050   3.602
 2508SOL    HW1 7530   4.186  -0.007   3.532
 2508SOL    HW2 7531   4.162   0.119   3.634
 2509SOL     OW 7532   4.297   0.870   2.891
 2509SOL    HW1 7533   4.341   0.959   2.882
 2509SOL    HW2 7534   4.234   0.870   2.968
 2510SOL     OW 7535   4.031   0.213   3.093
 2510SOL    HW1 7536   4.008   0.250   3.183
 2510SOL    HW2 7537   4.001   0.118   3.087
 2511SOL     OW 7538   3.761   1.310   3.144
 2511SOL    HW1 7539   3.814   1.261   3.212
 2511SOL    HW2 7540   3.783   1.408   3.149
 2512SOL     OW 7541   4.031   0.063   2.480
 2512SOL    HW1 7542   4.020   0.157   2.513
 2512SOL    HW2 7543   4.026   0.000   2.557
 2513SOL     OW 7544   4.074   0.898   3.666
 2513SOL    HW1 7545   4.150   0.942   3.714
 2513SOL    HW2 7546   4.109   0.851   3.584
 2514SOL     OW 7547   4.043   0.810   2.811
 2514SOL    HW1 7548   4.136   0.846   2.816
 2514SOL    HW2 7549   4.037   0.725   2.863
 2515SOL     OW 7550   4.063   0.509   2.868
 2515SOL    HW1 7551   4.011   0.426   2.851
 2515SOL    HW2 7552   4.140   0.514   2.804
 2516SOL     OW 7553   3.732   1.326   2.062
 2516SOL    HW1 7554   3.639   1.347   2.031
 2516SOL    HW2 7555   3.742   1.227   2.075
 2517SOL     OW 7556   3.812   1.801   2.789
 2517SOL    HW1 7557   3.770   1.715   2.762
 2517SOL    HW2 7558   3.906   1.804   2.755
 2518SOL     OW 7559   4.228   1.568   2.772
 2518SOL    HW1 7560   4.294   1.642   2.781
 2518SOL    HW2 7561   4.272   1.489   2.730
 2519SOL     OW 7562   3.764   0.544   2.976
 2519SOL    HW1 7563   3.849   0.511   2.935
 2519SOL    HW2 7564   3.777   0.559   3.074
 2520SOL     OW 7565   3.913   0.520   3.584
 2520SOL    HW1 7566   3.972   0.480   3.514
 2520SOL    HW2 7567   3.855   0.591   3.543
 2521SOL     OW 7568   4.539   0.572   2.187
 2521SOL    HW1 7569   4.546   0.483   2.141
 2521SOL    HW2 7570   4.445   0.606   2.179
 2522SOL     OW 7571   3.976   1.564   3.606
 2522SOL    HW1 7572   3.946   1.621   3.682
 2522SOL    HW2 7573   3.969   1.467   3.632
 2523SOL     OW 7574   4.197   0.500   2.053
 2523SOL    HW1 7575   4.258   0.580   2.057
 2523SOL    HW2 7576   4.102   0.531   2.060
 2524SOL     OW 7577   3.883   1.137   3.328
 2524SOL    HW1 7578   3.905   1.076   3.404
 2524SOL    HW2 7579   3.893   1.088   3.242
 2525SOL     OW 7580   3.807   1.258   2.884
 2525SOL    HW1 7581   3.802   1.257   2.984
 2525SOL    HW2 7582   3.724   1.217   2.846
 2526SOL     OW 7583   4.412   1.662   3.578
 2526SOL    HW1 7584   4.356   1.743   3.587
 2526SOL    HW2 7585   4.464   1.666   3.492
 2527SOL     OW 7586   3.854   1.794   3.713
 2527SOL    HW1 7587   3.813   1.720   3.766
 2527SOL    HW2 7588   3.918   1.845   3.771
 2528SOL     OW 7589   3.987   0.326   2.582
 2528SOL    HW1 7590   3.908   0.377   2.548
 2528SOL    HW2 7591   3.978   0.311   2.680
 2529SOL     OW 7592   4.096   1.288   3.352
 2529SOL    HW1 7593   4.083   1.381   3.318
 2529SOL    HW2 7594   4.012   1.236   3.339
 2530SOL     OW 7595   4.314   1.487   2.353
 2530SOL    HW1 7596   4.356   1.429   2.283
 2530SOL    HW2 7597   4.270   1.566   2.309
 2531SOL     OW 7598   3.979   1.348   2.152
 2531SOL    HW1 7599   3.883   1.349   2.125
 2531SOL    HW2 7600   3.991   1.401   2.236
 2532SOL     OW 7601   3.829   1.013   3.588
 2532SOL    HW1 7602   3.752   0.980   3.642
 2532SOL    HW2 7603   3.914   0.983   3.630
 2533SOL     OW 7604   4.396   0.203   3.351
 2533SOL    HW1 7605   4.486   0.187   3.311
 2533SOL    HW2 7606   4.404   0.208   3.450
 2534SOL     OW 7607   3.799   0.345   1.895
 2534SOL    HW1 7608   3.707   0.317   1.866
 2534SOL    HW2 7609   3.830   0.422   1.839
 2535SOL     OW 7610   3.796   0.166   2.180
 2535SOL    HW1 7611   3.779   0.249   2.126
 2535SOL    HW2 7612   3.886   0.129   2.158
 2536SOL     OW 7613   4.337   0.842   3.293
 2536SOL    HW1 7614   4.393   0.923   3.276
 2536SOL    HW2 7615   4.396   0.762   3.296
 2537SOL     OW 7616   4.114   1.741   3.422
 2537SOL    HW1 7617   4.023   1.782   3.420
 2537SOL    HW2 7618   4.107   1.647   3.454
 2538SOL     OW 7619   4.318   0.745   2.514
 2538SOL    HW1 7620   4.368   0.830   2.495
 2538SOL    HW2 7621   4.230   0.747   2.466
 2539SOL     OW 7622   3.945   1.314   3.706
 2539SOL    HW1 7623   3.880   1.241   3.685
 2539SOL    HW2 7624   3.949   1.328   3.804
 2540SOL     OW 7625   3.803   1.240   2.515
 2540SOL    HW1 7626   3.802   1.193   2.603
 2540SOL    HW2 7627   3.885   1.212   2.464
 2541SOL     OW 7628   4.396   1.391   3.486
 2541SOL    HW1 7629   4.318   1.341   3.524
 2541SOL    HW2 7630   4.393   1.486   3.517
 2542SOL     OW 7631   4.152   0.424   2.382
 2542SOL    HW1 7632   4.182   0.352   2.320
 2542SOL    HW2 7633   4.113   0.384   2.465
 2543SOL     OW 7634   4.041   0.547   3.142
 2543SOL    HW1 7635   4.079   0.488   3.214
 2543SOL    HW2 7636   4.081   0.521   3.054
 2544SOL     OW 7637   3.763   1.077   2.162
 2544SOL    HW1 7638   3.862   1.066   2.153
 2544SOL    HW2 7639   3.723   0.991   2.194
 2545SOL     OW 7640   3.954   0.628   3.837
 2545SOL    HW1 7641   3.861   0.626   3.874
 2545SOL    HW2 7642   3.955   0.589   3.745
 2546SOL     OW 7643   3.955   1.713   4.207
 2546SOL    HW1 7644   3.989   1.790   4.261
 2546SOL    HW2 7645   3.999   1.713   4.117
 2547SOL     OW 7646   3.954   1.434   4.262
 2547SOL    HW1 7647   3.928   1.530   4.262
 2547SOL    HW2 7648   3.883   1.380   4.307
 2548SOL     OW 7649   3.846   0.643   4.287
 2548SOL    HW1 7650   3.801   0.555   4.304
 2548SOL    HW2 7651   3.845   0.697   4.371
 2549SOL     OW 7652   3.751   1.596   3.841
 2549SOL    HW1 7653   3.732   1.500   3.862
 2549SOL    HW2 7654   3.718   1.654   3.916
 2550SOL     OW 7655   4.322   0.729   3.994
 2550SOL    HW1 7656   4.346   0.798   3.926
 2550SOL    HW2 7657   4.244   0.762   4.048
 2551SOL     OW 7658   3.800   0.811   4.513
 2551SOL    HW1 7659   3.899   0.799   4.522
 2551SOL    HW2 7660   3.776   0.906   4.534
 2552SOL     OW 7661   4.589   0.348   3.919
 2552SOL    HW1 7662   4.648   0.411   3.870
 2552SOL    HW2 7663   4.608   0.254   3.890
 2553SOL     OW 7664   4.075   1.801   4.577
 2553SOL    HW1 7665   4.125   1.715   4.583
 2553SOL    HW2 7666   4.140   1.878   4.574
 2554SOL     OW 7667   4.045   0.943   3.966
 2554SOL    HW1 7668   4.127   0.982   3.924
 2554SOL    HW2 7669   4.018   0.861   3.917
 2555SOL     OW 7670   4.188   1.743   4.047
 2555SOL    HW1 7671   4.221   1.782   4.133
 2555SOL    HW2 7672   4.264   1.736   3.982
 2556SOL     OW 7673   4.106   0.700   4.204
 2556SOL    HW1 7674   4.151   0.610   4.201
 2556SOL    HW2 7675   4.012   0.689   4.237
 2557SOL     OW 7676   4.338   0.122   3.841
 2557SOL    HW1 7677   4.436   0.100   3.848
 2557SOL    HW2 7678   4.307   0.105   3.748
 2558SOL     OW 7679   4.263   0.064   4.236
 2558SOL    HW1 7680   4.182   0.065   4.294
 2558SOL    HW2 7681   4.266   0.147   4.181
 2559SOL     OW 7682   4.021   0.035   3.895
 2559SOL    HW1 7683   4.070   0.119   3.874
 2559SOL    HW2 7684   4.083  -0.030   3.940
 2560SOL     OW 7685   4.659   0.236   4.204
 2560SOL    HW1 7686   4.611   0.277   4.126
 2560SOL    HW2 7687   4.758   0.234   4.185
 2561SOL     OW 7688   4.183   1.152   4.465
 2561SOL    HW1 7689   4.112   1.125   4.530
 2561SOL    HW2 7690   4.157   1.124   4.372
 2562SOL     OW 7691   4.251   0.256   4.052
 2562SOL    HW1 7692   4.278   0.197   3.977
 2562SOL    HW2 7693   4.251   0.351   4.021
 2563SOL     OW 7694   4.091   1.100   4.225
 2563SOL    HW1 7695   4.084   1.183   4.169
 2563SOL    HW2 7696   4.095   1.020   4.165
 2564SOL     OW 7697   4.031   0.063   4.342
 2564SOL    HW1 7698   4.020   0.157   4.375
 2564SOL    HW2 7699   4.026   0.000   4.419
 2565SOL     OW 7700   3.732   1.326   3.924
 2565SOL    HW1 7701   3.639   1.347   3.893
 2565SOL    HW2 7702   3.742   1.227   3.937
 2566SOL     OW 7703   4.539   0.572   4.049
 2566SOL    HW1 7704   4.546   0.483   4.003
 2566SOL    HW2 7705   4.445   0.606   4.041
 2567SOL     OW 7706   4.197   0.500   3.915
 2567SOL    HW1 7707   4.258   0.580   3.919
 2567SOL    HW2 7708   4.102   0.531   3.922
 2568SOL     OW 7709   4.314   1.487   4.215
 2568SOL    HW1 7710   4.356   1.429   4.145
 2568SOL    HW2 7711   4.270   1.566   4.171
 2569SOL     OW 7712   3.979   1.348   4.014
 2569SOL    HW1 7713   3.883   1.349   3.987
 2569SOL    HW2 7714   3.991   1.401   4.098
 2570SOL     OW 7715   3.799   0.345   3.757
 2570SOL    HW1 7716   3.707   0.317   3.728
 2570SOL    HW2 7717   3.830   0.422   3.701
 2571SOL     OW 7718   3.796   0.166   4.042
 2571SOL    HW1 7719   3.779   0.249   3.988
 2571SOL    HW2 7720   3.886   0.129   4.020
 2572SOL     OW 7721   4.318   0.745   4.376
 2572SOL    HW1 7722   4.368   0.830   4.357
 2572SOL    HW2 7723   4.230   0.747   4.328
 2573SOL     OW 7724   3.803   1.240   4.377
 2573SOL    HW1 7725   3.802   1.193   4.465
 2573SOL    HW2 7726   3.885   1.212   4.326
 2574SOL     OW 7727   4.152   0.424   4.244
 2574SOL    HW1 7728   4.182   0.352   4.182
 2574SOL    HW2 7729   4.113   0.384   4.327
 2575SOL     OW 7730   3.763   1.077   4.024
 2575SOL    HW1 7731   3.862   1.066   4.015
 2575SOL    HW2 7732   3.723   0.991   4.056
 2576SOL     OW 7733   3.954   2.490   0.113
 2576SOL    HW1 7734   3.861   2.488   0.150
 2576SOL    HW2 7735   3.955   2.451   0.021
 2577SOL     OW 7736   3.949   2.137   0.996
 2577SOL    HW1 7737   3.984   2.120   1.088
 2577SOL    HW2 7738   3.861   2.092   0.984
 2578SOL     OW 7739   3.743   2.230   0.647
 2578SOL    HW1 7740   3.661   2.273   0.686
 2578SOL    HW2 7741   3.715   2.157   0.584
 2579SOL     OW 7742   4.293   3.137   1.165
 2579SOL    HW1 7743   4.200   3.130   1.128
 2579SOL    HW2 7744   4.304   3.226   1.209
 2580SOL     OW 7745   4.574   2.660   1.823
 2580SOL    HW1 7746   4.570   2.736   1.888
 2580SOL    HW2 7747   4.596   2.696   1.732
 2581SOL     OW 7748   4.059   3.297   1.061
 2581SOL    HW1 7749   3.981   3.266   1.008
 2581SOL    HW2 7750   4.117   3.355   1.004
 2582SOL     OW 7751   4.162   2.254   1.499
 2582SOL    HW1 7752   4.244   2.198   1.508
 2582SOL    HW2 7753   4.081   2.196   1.503
 2583SOL     OW 7754   3.955   3.575   0.483
 2583SOL    HW1 7755   3.989   3.652   0.537
 2583SOL    HW2 7756   3.999   3.575   0.393
 2584SOL     OW 7757   3.954   3.296   0.538
 2584SOL    HW1 7758   3.928   3.392   0.538
 2584SOL    HW2 7759   3.883   3.242   0.583
 2585SOL     OW 7760   3.964   2.953   0.886
 2585SOL    HW1 7761   3.978   2.869   0.938
 2585SOL    HW2 7762   3.909   3.017   0.941
 2586SOL     OW 7763   3.846   2.505   0.563
 2586SOL    HW1 7764   3.801   2.417   0.580
 2586SOL    HW2 7765   3.845   2.559   0.647
 2587SOL     OW 7766   3.751   3.458   0.117
 2587SOL    HW1 7767   3.732   3.362   0.138
 2587SOL    HW2 7768   3.718   3.516   0.192
 2588SOL     OW 7769   3.837   2.599   1.597
 2588SOL    HW1 7770   3.925   2.586   1.642
 2588SOL    HW2 7771   3.824   2.696   1.575
 2589SOL     OW 7772   4.337   3.227   0.726
 2589SOL    HW1 7773   4.288   3.140   0.735
 2589SOL    HW2 7774   4.314   3.270   0.639
 2590SOL     OW 7775   4.533   1.866   0.502
 2590SOL    HW1 7776   4.573   1.957   0.493
 2590SOL    HW2 7777   4.433   1.874   0.508
 2591SOL     OW 7778   3.921   2.838   1.264
 2591SOL    HW1 7779   4.010   2.793   1.250
 2591SOL    HW2 7780   3.848   2.773   1.245
 2592SOL     OW 7781   4.041   2.113   1.801
 2592SOL    HW1 7782   4.112   2.184   1.807
 2592SOL    HW2 7783   3.953   2.152   1.829
 2593SOL     OW 7784   4.322   2.591   0.270
 2593SOL    HW1 7785   4.346   2.660   0.202
 2593SOL    HW2 7786   4.244   2.624   0.324
 2594SOL     OW 7787   3.800   2.673   0.789
 2594SOL    HW1 7788   3.899   2.661   0.798
 2594SOL    HW2 7789   3.776   2.768   0.810
 2595SOL     OW 7790   3.854   3.683   1.571
 2595SOL    HW1 7791   3.844   3.668   1.670
 2595SOL    HW2 7792   3.768   3.719   1.535
 2596SOL     OW 7793   4.589   2.210   0.195
 2596SOL    HW1 7794   4.648   2.273   0.146
 2596SOL    HW2 7795   4.608   2.116   0.166
 2597SOL     OW 7796   4.274   2.058   0.885
 2597SOL    HW1 7797   4.269   2.053   0.985
 2597SOL    HW2 7798   4.276   2.154   0.856
 2598SOL     OW 7799   4.075   3.663   0.853
 2598SOL    HW1 7800   4.125   3.577   0.859
 2598SOL    HW2 7801   4.140   3.740   0.850
 2599SOL     OW 7802   4.045   2.805   0.242
 2599SOL    HW1 7803   4.127   2.844   0.200
 2599SOL    HW2 7804   4.018   2.723   0.193
 2600SOL     OW 7805   4.185   3.128   1.727
 2600SOL    HW1 7806   4.135   3.129   1.641
 2600SOL    HW2 7807   4.122   3.110   1.803
 2601SOL     OW 7808   3.926   2.147   1.498
 2601SOL    HW1 7809   3.846   2.207   1.485
 2601SOL    HW2 7810   3.916   2.098   1.584
 2602SOL     OW 7811   4.188   3.605   0.323
 2602SOL    HW1 7812   4.221   3.644   0.409
 2602SOL    HW2 7813   4.264   3.598   0.258
 2603SOL     OW 7814   3.973   3.647   1.241
 2603SOL    HW1 7815   4.030   3.582   1.291
 2603SOL    HW2 7816   3.957   3.614   1.148
 2604SOL     OW 7817   4.106   2.562   0.480
 2604SOL    HW1 7818   4.151   2.472   0.477
 2604SOL    HW2 7819   4.012   2.551   0.513
 2605SOL     OW 7820   4.338   1.984   0.117
 2605SOL    HW1 7821   4.436   1.962   0.124
 2605SOL    HW2 7822   4.307   1.967   0.024
 2606SOL     OW 7823   4.527   3.264   0.924
 2606SOL    HW1 7824   4.617   3.278   0.882
 2606SOL    HW2 7825   4.456   3.266   0.853
 2607SOL     OW 7826   4.263   1.926   0.512
 2607SOL    HW1 7827   4.182   1.927   0.570
 2607SOL    HW2 7828   4.266   2.009   0.457
 2608SOL     OW 7829   4.659   2.098   0.480
 2608SOL    HW1 7830   4.611   2.139   0.402
 2608SOL    HW2 7831   4.758   2.096   0.461
 2609SOL     OW 7832   4.183   3.014   0.741
 2609SOL    HW1 7833   4.112   2.987   0.806
 2609SOL    HW2 7834   4.157   2.986   0.648
 2610SOL     OW 7835   3.802   2.418   1.386
 2610SOL    HW1 7836   3.894   2.417   1.345
 2610SOL    HW2 7837   3.796   2.492   1.453
 2611SOL     OW 7838   4.285   2.084   1.147
 2611SOL    HW1 7839   4.323   2.000   1.184
 2611SOL    HW2 7840   4.197   2.103   1.191
 2612SOL     OW 7841   4.251   2.118   0.328
 2612SOL    HW1 7842   4.278   2.059   0.253
 2612SOL    HW2 7843   4.251   2.213   0.297
 2613SOL     OW 7844   4.134   2.675   1.251
 2613SOL    HW1 7845   4.220   2.687   1.301
 2613SOL    HW2 7846   4.092   2.588   1.278
 2614SOL     OW 7847   3.788   3.426   1.331
 2614SOL    HW1 7848   3.742   3.508   1.297
 2614SOL    HW2 7849   3.886   3.445   1.340
 2615SOL     OW 7850   4.091   2.962   0.501
 2615SOL    HW1 7851   4.084   3.045   0.445
 2615SOL    HW2 7852   4.095   2.882   0.441
 2616SOL     OW 7853   4.290   2.399   0.865
 2616SOL    HW1 7854   4.302   2.465   0.791
 2616SOL    HW2 7855   4.336   2.433   0.948
 2617SOL     OW 7856   4.078   3.372   1.329
 2617SOL    HW1 7857   4.057   3.328   1.242
 2617SOL    HW2 7858   4.175   3.398   1.332
 2618SOL     OW 7859   4.126   2.613   1.598
 2618SOL    HW1 7860   4.194   2.668   1.551
 2618SOL    HW2 7861   4.166   2.525   1.625
 2619SOL     OW 7862   4.228   1.912   1.740
 2619SOL    HW1 7863   4.186   1.855   1.670
 2619SOL    HW2 7864   4.162   1.981   1.772
 2620SOL     OW 7865   4.297   2.732   1.029
 2620SOL    HW1 7866   4.341   2.821   1.020
 2620SOL    HW2 7867   4.234   2.732   1.106
 2621SOL     OW 7868   4.031   2.075   1.231
 2621SOL    HW1 7869   4.008   2.112   1.321
 2621SOL    HW2 7870   4.001   1.980   1.225
 2622SOL     OW 7871   3.761   3.172   1.282
 2622SOL    HW1 7872   3.814   3.123   1.350
 2622SOL    HW2 7873   3.783   3.270   1.287
 2623SOL     OW 7874   4.031   1.925   0.618
 2623SOL    HW1 7875   4.020   2.019   0.651
 2623SOL    HW2 7876   4.026   1.862   0.695
 2624SOL     OW 7877   4.074   2.760   1.804
 2624SOL    HW1 7878   4.150   2.804   1.852
 2624SOL    HW2 7879   4.109   2.713   1.722
 2625SOL     OW 7880   4.043   2.672   0.949
 2625SOL    HW1 7881   4.136   2.708   0.954
 2625SOL    HW2 7882   4.037   2.587   1.001
 2626SOL     OW 7883   4.063   2.371   1.006
 2626SOL    HW1 7884   4.011   2.288   0.989
 2626SOL    HW2 7885   4.140   2.376   0.942
 2627SOL     OW 7886   3.732   3.188   0.200
 2627SOL    HW1 7887   3.639   3.209   0.169
 2627SOL    HW2 7888   3.742   3.089   0.213
 2628SOL     OW 7889   3.812   3.663   0.927
 2628SOL    HW1 7890   3.770   3.577   0.900
 2628SOL    HW2 7891   3.906   3.666   0.893
 2629SOL     OW 7892   4.228   3.430   0.910
 2629SOL    HW1 7893   4.294   3.504   0.919
 2629SOL    HW2 7894   4.272   3.351   0.868
 2630SOL     OW 7895   3.764   2.406   1.114
 2630SOL    HW1 7896   3.849   2.373   1.073
 2630SOL    HW2 7897   3.777   2.421   1.212
 2631SOL     OW 7898   3.913   2.382   1.722
 2631SOL    HW1 7899   3.972   2.342   1.652
 2631SOL    HW2 7900   3.855   2.453   1.681
 2632SOL     OW 7901   4.539   2.434   0.325
 2632SOL    HW1 7902   4.546   2.345   0.279
 2632SOL    HW2 7903   4.445   2.468   0.317
 2633SOL     OW 7904   3.976   3.426   1.744
 2633SOL    HW1 7905   3.946   3.483   1.820
 2633SOL    HW2 7906   3.969   3.329   1.770
 2634SOL     OW 7907   4.197   2.362   0.191
 2634SOL    HW1 7908   4.258   2.442   0.195
 2634SOL    HW2 7909   4.102   2.393   0.198
 2635SOL     OW 7910   3.883   2.999   1.466
 2635SOL    HW1 7911   3.905   2.938   1.542
 2635SOL    HW2 7912   3.893   2.950   1.380
 2636SOL     OW 7913   3.807   3.120   1.022
 2636SOL    HW1 7914   3.802   3.119   1.122
 2636SOL    HW2 7915   3.724   3.079   0.984
 2637SOL     OW 7916   4.412   3.524   1.716
 2637SOL    HW1 7917   4.356   3.605   1.725
 2637SOL    HW2 7918   4.464   3.528   1.630
 2638SOL     OW 7919   3.854   3.656   1.851
 2638SOL    HW1 7920   3.813   3.582   1.904
 2638SOL    HW2 7921   3.918   3.707   1.909
 2639SOL     OW 7922   3.987   2.188   0.720
 2639SOL    HW1 7923   3.908   2.239   0.686
 2639SOL    HW2 7924   3.978   2.173   0.818
 2640SOL     OW 7925   4.096   3.150   1.490
 2640SOL    HW1 7926   4.083   3.243   1.456
 2640SOL    HW2 7927   4.012   3.098   1.477
 2641SOL     OW 7928   4.314   3.349   0.491
 2641SOL    HW1 7929   4.356   3.291   0.421
 2641SOL    HW2 7930   4.270   3.428   0.447
 2642SOL     OW 7931   3.979   3.210   0.290
 2642SOL    HW1 7932   3.883   3.211   0.263
 2642SOL    HW2 7933   3.991   3.263   0.374
 2643SOL     OW 7934   3.829   2.875   1.726
 2643SOL    HW1 7935   3.752   2.842   1.780
 2643SOL    HW2 7936   3.914   2.845   1.768
 2644SOL     OW 7937   4.396   2.065   1.489
 2644SOL    HW1 7938   4.486   2.049   1.449
 2644SOL    HW2 7939   4.404   2.070   1.588
 2645SOL     OW 7940   3.799   2.207   0.033
 2645SOL    HW1 7941   3.707   2.179   0.004
 2645SOL    HW2 7942   3.830   2.284  -0.023
 2646SOL     OW 7943   4.337   2.704   1.431
 2646SOL    HW1 7944   4.393   2.785   1.414
 2646SOL    HW2 7945   4.396   2.624   1.434
 2647SOL     OW 7946   4.114   3.603   1.560
 2647SOL    HW1 7947   4.023   3.644   1.558
 2647SOL    HW2 7948   4.107   3.509   1.592
 2648SOL     OW 7949   4.318   2.607   0.652
 2648SOL    HW1 7950   4.368   2.692   0.633
 2648SOL    HW2 7951   4.230   2.609   0.604
 2649SOL     OW 7952   3.945   3.176   1.844
 2649SOL    HW1 7953   3.880   3.103   1.823
 2649SOL    HW2 7954   3.949   3.190   1.942
 2650SOL     OW 7955   3.803   3.102   0.653
 2650SOL    HW1 7956   3.802   3.055   0.741
 2650SOL    HW2 7957   3.885   3.074   0.602
 2651SOL     OW 7958   4.396   3.253   1.624
 2651SOL    HW1 7959   4.318   3.203   1.662
 2651SOL    HW2 7960   4.393   3.348   1.655
 2652SOL     OW 7961   4.152   2.286   0.520
 2652SOL    HW1 7962   4.182   2.214   0.458
 2652SOL    HW2 7963   4.113   2.246   0.603
 2653SOL     OW 7964   4.041   2.409   1.280
 2653SOL    HW1 7965   4.079   2.350   1.352
 2653SOL    HW2 7966   4.081   2.383   1.192
 2654SOL     OW 7967   3.763   2.939   0.300
 2654SOL    HW1 7968   3.862   2.928   0.291
 2654SOL    HW2 7969   3.723   2.853   0.332
 2655SOL     OW 7970   3.954   2.490   1.975
 2655SOL    HW1 7971   3.861   2.488   2.012
 2655SOL    HW2 7972   3.955   2.451   1.883
 2656SOL     OW 7973   3.949   2.137   2.858
 2656SOL    HW1 7974   3.984   2.120   2.950
 2656SOL    HW2 7975   3.861   2.092   2.846
 2657SOL     OW 7976   3.743   2.230   2.509
 2657SOL    HW1 7977   3.661   2.273   2.548
 2657SOL    HW2 7978   3.715   2.157   2.446
 2658SOL     OW 7979   4.293   3.137   3.027
 2658SOL    HW1 7980   4.200   3.130   2.990
 2658SOL    HW2 7981   4.304   3.226   3.071
 2659SOL     OW 7982   4.574   2.660   3.685
 2659SOL    HW1 7983   4.570   2.736   3.750
 2659SOL    HW2 7984   4.596   2.696   3.594
 2660SOL     OW 7985   4.059   3.297   2.923
 2660SOL    HW1 7986   3.981   3.266   2.870
 2660SOL    HW2 7987   4.117   3.355   2.866
 2661SOL     OW 7988   4.162   2.254   3.361
 2661SOL    HW1 7989   4.244   2.198   3.370
 2661SOL    HW2 7990   4.081   2.196   3.365
 2662SOL     OW 7991   3.955   3.575   2.345
 2662SOL    HW1 7992   3.989   3.652   2.399
 2662SOL    HW2 7993   3.999   3.575   2.255
 2663SOL     OW 7994   3.954   3.296   2.400
 2663SOL    HW1 7995   3.928   3.392   2.400
 2663SOL    HW2 7996   3.883   3.242   2.445
 2664SOL     OW 7997   3.964   2.953   2.748
 2664SOL    HW1 7998   3.978   2.869   2.800
 2664SOL    HW2 7999   3.909   3.017   2.803
 2665SOL     OW 8000   3.846   2.505   2.425
 2665SOL    HW1 8001   3.801   2.417   2.442
 2665SOL    HW2 8002   3.845   2.559   2.509
 2666SOL     OW 8003   3.751   3.458   1.979
 2666SOL    HW1 8004   3.732   3.362   2.000
 2666SOL    HW2 8005   3.718   3.516   2.054
 2667SOL     OW 8006   3.837   2.599   3.459
 2667SOL    HW1 8007   3.925   2.586   3.504
 2667SOL    HW2 8008   3.824   2.696   3.437
 2668SOL     OW 8009   4.337   3.227   2.588
 2668SOL    HW1 8010   4.288   3.140   2.597
 2668SOL    HW2 8011   4.314   3.270   2.501
 2669SOL     OW 8012   4.533   1.866   2.364
 2669SOL    HW1 8013   4.573   1.957   2.355
 2669SOL    HW2 8014   4.433   1.874   2.370
 2670SOL     OW 8015   3.921   2.838   3.126
 2670SOL    HW1 8016   4.010   2.793   3.112
 2670SOL    HW2 8017   3.848   2.773   3.107
 2671SOL     OW 8018   4.041   2.113   3.663
 2671SOL    HW1 8019   4.112   2.184   3.669
 2671SOL    HW2 8020   3.953   2.152   3.691
 2672SOL     OW 8021   4.322   2.591   2.132
 2672SOL    HW1 8022   4.346   2.660   2.064
 2672SOL    HW2 8023   4.244   2.624   2.186
 2673SOL     OW 8024   3.800   2.673   2.651
 2673SOL    HW1 8025   3.899   2.661   2.660
 2673SOL    HW2 8026   3.776   2.768   2.672
 2674SOL     OW 8027   3.854   3.683   3.433
 2674SOL    HW1 8028   3.844   3.668   3.532
 2674SOL    HW2 8029   3.768   3.719   3.397
 2675SOL     OW 8030   4.589   2.210   2.057
 2675SOL    HW1 8031   4.648   2.273   2.008
 2675SOL    HW2 8032   4.608   2.116   2.028
 2676SOL     OW 8033   4.274   2.058   2.747
 2676SOL    HW1 8034   4.269   2.053   2.847
 2676SOL    HW2 8035   4.276   2.154   2.718
 2677SOL     OW 8036   4.075   3.663   2.715
 2677SOL    HW1 8037   4.125   3.577   2.721
 2677SOL    HW2 8038   4.140   3.740   2.712
 2678SOL     OW 8039   4.045   2.805   2.104
 2678SOL    HW1 8040   4.127   2.844   2.062
 2678SOL    HW2 8041   4.018   2.723   2.055
 2679SOL     OW 8042   4.185   3.128   3.589
 2679SOL    HW1 8043   4.135   3.129   3.503
 2679SOL    HW2 8044   4.122   3.110   3.665
 2680SOL     OW 8045   3.926   2.147   3.360
 2680SOL    HW1 8046   3.846   2.207   3.347
 2680SOL    HW2 8047   3.916   2.098   3.446
 2681SOL     OW 8048   4.188   3.605   2.185
 2681SOL    HW1 8049   4.221   3.644   2.271
 2681SOL    HW2 8050   4.264   3.598   2.120
 2682SOL     OW 8051   3.973   3.647   3.103
 2682SOL    HW1 8052   4.030   3.582   3.153
 2682SOL    HW2 8053   3.957   3.614   3.010
 2683SOL     OW 8054   4.106   2.562   2.342
 2683SOL    HW1 8055   4.151   2.472   2.339
 2683SOL    HW2 8056   4.012   2.551   2.375
 2684SOL     OW 8057   4.338   1.984   1.979
 2684SOL    HW1 8058   4.436   1.962   1.986
 2684SOL    HW2 8059   4.307   1.967   1.886
 2685SOL     OW 8060   4.527   3.264   2.786
 2685SOL    HW1 8061   4.617   3.278   2.744
 2685SOL    HW2 8062   4.456   3.266   2.715
 2686SOL     OW 8063   4.263   1.926   2.374
 2686SOL    HW1 8064   4.182   1.927   2.432
 2686SOL    HW2 8065   4.266   2.009   2.319
 2687SOL     OW 8066   4.021   1.897   2.033
 2687SOL    HW1 8067   4.070   1.981   2.012
 2687SOL    HW2 8068   4.083   1.832   2.078
 2688SOL     OW 8069   4.659   2.098   2.342
 2688SOL    HW1 8070   4.611   2.139   2.264
 2688SOL    HW2 8071   4.758   2.096   2.323
 2689SOL     OW 8072   4.183   3.014   2.603
 2689SOL    HW1 8073   4.112   2.987   2.668
 2689SOL    HW2 8074   4.157   2.986   2.510
 2690SOL     OW 8075   3.802   2.418   3.248
 2690SOL    HW1 8076   3.894   2.417   3.207
 2690SOL    HW2 8077   3.796   2.492   3.315
 2691SOL     OW 8078   4.285   2.084   3.009
 2691SOL    HW1 8079   4.323   2.000   3.046
 2691SOL    HW2 8080   4.197   2.103   3.053
 2692SOL     OW 8081   4.251   2.118   2.190
 2692SOL    HW1 8082   4.278   2.059   2.115
 2692SOL    HW2 8083   4.251   2.213   2.159
 2693SOL     OW 8084   4.134   2.675   3.113
 2693SOL    HW1 8085   4.220   2.687   3.163
 2693SOL    HW2 8086   4.092   2.588   3.140
 2694SOL     OW 8087   3.788   3.426   3.193
 2694SOL    HW1 8088   3.742   3.508   3.159
 2694SOL    HW2 8089   3.886   3.445   3.202
 2695SOL     OW 8090   4.091   2.962   2.363
 2695SOL    HW1 8091   4.084   3.045   2.307
 2695SOL    HW2 8092   4.095   2.882   2.303
 2696SOL     OW 8093   4.290   2.399   2.727
 2696SOL    HW1 8094   4.302   2.465   2.653
 2696SOL    HW2 8095   4.336   2.433   2.810
 2697SOL     OW 8096   4.078   3.372   3.191
 2697SOL    HW1 8097   4.057   3.328   3.104
 2697SOL    HW2 8098   4.175   3.398   3.194
 2698SOL     OW 8099   4.126   2.613   3.460
 2698SOL    HW1 8100   4.194   2.668   3.413
 2698SOL    HW2 8101   4.166   2.525   3.487
 2699SOL     OW 8102   4.228   1.912   3.602
 2699SOL    HW1 8103   4.186   1.855   3.532
 2699SOL    HW2 8104   4.162   1.981   3.634
 2700SOL     OW 8105   4.297   2.732   2.891
 2700SOL    HW1 8106   4.341   2.821   2.882
 2700SOL    HW2 8107   4.234   2.732   2.968
 2701SOL     OW 8108   4.031   2.075   3.093
 2701SOL    HW1 8109   4.008   2.112   3.183
 2701SOL    HW2 8110   4.001   1.980   3.087
 2702SOL     OW 8111   3.761   3.172   3.144
 2702SOL    HW1 8112   3.814   3.123   3.212
 2702SOL    HW2 8113   3.783   3.270   3.149
 2703SOL     OW 8114   4.031   1.925   2.480
 2703SOL    HW1 8115   4.020   2.019   2.513
 2703SOL    HW2 8116   4.026   1.862   2.557
 2704SOL     OW 8117   4.074   2.760   3.666
 2704SOL    HW1 8118   4.150   2.804   3.714
 2704SOL    HW2 8119   4.109   2.713   3.584
 2705SOL     OW 8120   4.043   2.672   2.811
 2705SOL    HW1 8121   4.136   2.708   2.816
 2705SOL    HW2 8122   4.037   2.587   2.863
 2706SOL     OW 8123   4.063   2.371   2.868
 2706SOL    HW1 8124   4.011   2.288   2.851
 2706SOL    HW2 8125   4.140   2.376   2.804
 2707SOL     OW 8126   3.732   3.188   2.062
 2707SOL    HW1 8127   3.639   3.209   2.031
 2707SOL    HW2 8128   3.742   3.089   2.075
 2708SOL     OW 8129   3.812   3.663   2.789
 2708SOL    HW1 8130   3.770   3.577   2.762
 2708SOL    HW2 8131   3.906   3.666   2.755
 2709SOL     OW 8132   4.228   3.430   2.772
 2709SOL    HW1 8133   4.294   3.504   2.781
 2709SOL    HW2 8134   4.272   3.351   2.730
 2710SOL     OW 8135   3.764   2.406   2.976
 2710SOL    HW1 8136   3.849   2.373   2.935
 2710SOL    HW2 8137   3.777   2.421   3.074
 2711SOL     OW 8138   3.913   2.382   3.584
 2711SOL    HW1 8139   3.972   2.342   3.514
 2711SOL    HW2 8140   3.855   2.453   3.543
 2712SOL     OW 8141   4.539   2.434   2.187
 2712SOL    HW1 8142   4.546   2.345   2.141
 2712SOL    HW2 8143   4.445   2.468   2.179
 2713SOL     OW 8144   3.976   3.426   3.606
 2713SOL    HW1 8145   3.946   3.483   3.682
 2713SOL    HW2 8146   3.969   3.329   3.632
 2714SOL     OW 8147   4.197   2.362   2.053
 2714SOL    HW1 8148   4.258   2.442   2.057
 2714SOL    HW2 8149   4.102   2.393   2.060
 2715SOL     OW 8150   3.883   2.999   3.328
 2715SOL    HW1 8151   3.905   2.938   3.404
 2715SOL    HW2 8152   3.893   2.950   3.242
 2716SOL     OW 8153   3.807   3.120   2.884
 2716SOL    HW1 8154   3.802   3.119   2.984
 2716SOL    HW2 8155   3.724   3.079   2.846
 2717SOL     OW 8156   4.412   3.524   3.578
 2717SOL    HW1 8157   4.356   3.605   3.587
 2717SOL    HW2 8158   4.464   3.528   3.492
 2718SOL     OW 8159   3.854   3.656   3.713
 2718SOL    HW1 8160   3.813   3.582   3.766
 2718SOL    HW2 8161   3.918   3.707   3.771
 2719SOL     OW 8162   3.987   2.188   2.582
 2719SOL    HW1 8163   3.908   2.239   2.548
 2719SOL    HW2 8164   3.978   2.173   2.680
 2720SOL     OW 8165   4.096   3.150   3.352
 2720SOL    HW1 8166   4.083   3.243   3.318
 2720SOL    HW2 8167   4.012   3.098   3.339
 2721SOL     OW 8168   4.314   3.349   2.353
 2721SOL    HW1 8169   4.356   3.291   2.283
 2721SOL    HW2 8170   4.270   3.428   2.309
 2722SOL     OW 8171   3.979   3.210   2.152
 2722SOL    HW1 8172   3.883   3.211   2.125
 2722SOL    HW2 8173   3.991   3.263   2.236
 2723SOL     OW 8174   3.829   2.875   3.588
 2723SOL    HW1 8175   3.752   2.842   3.642
 2723SOL    HW2 8176   3.914   2.845   3.630
 2724SOL     OW 8177   4.396   2.065   3.351
 2724SOL    HW1 8178   4.486   2.049   3.311
 2724SOL    HW2 8179   4.404   2.070   3.450
 2725SOL     OW 8180   3.799   2.207   1.895
 2725SOL    HW1 8181   3.707   2.179   1.866
 2725SOL    HW2 8182   3.830   2.284   1.839
 2726SOL     OW 8183   3.796   2.028   2.180
 2726SOL    HW1 8184   3.779   2.111   2.126
 2726SOL    HW2 8185   3.886   1.991   2.158
 2727SOL     OW 8186   4.337   2.704   3.293
 2727SOL    HW1 8187   4.393   2.785   3.276
 2727SOL    HW2 8188   4.396   2.624   3.296
 2728SOL     OW 8189   4.114   3.603   3.422
 2728SOL    HW1 8190   4.023   3.644   3.420
 2728SOL    HW2 8191   4.107   3.509   3.454
 2729SOL     OW 8192   4.318   2.607   2.514
 2729SOL    HW1 8193   4.368   2.692   2.495
 2729SOL    HW2 8194   4.230   2.609   2.466
 2730SOL     OW 8195   3.945   3.176   3.706
 2730SOL    HW1 8196   3.880   3.103   3.685
 2730SOL    HW2 8197   3.949   3.190   3.804
 2731SOL     OW 8198   3.803   3.102   2.515
 2731SOL    HW1 8199   3.802   3.055   2.603
 2731SOL    HW2 8200   3.885   3.074   2.464
 2732SOL     OW 8201   4.396   3.253   3.486
 2732SOL    HW1 8202   4.318   3.203   3.524
 2732SOL    HW2 8203   4.393   3.348   3.517
 2733SOL     OW 8204   4.152   2.286   2.382
 2733SOL    HW1 8205   4.182   2.214   2.320
 2733SOL    HW2 8206   4.113   2.246   2.465
 2734SOL     OW 8207   4.041   2.409   3.142
 2734SOL    HW1 8208   4.079   2.350   3.214
 2734SOL    HW2 8209   4.081   2.383   3.054
 2735SOL     OW 8210   3.763   2.939   2.162
 2735SOL    HW1 8211   3.862   2.928   2.153
 2735SOL    HW2 8212   3.723   2.853   2.194
 2736SOL     OW 8213   3.954   2.490   3.837
 2736SOL    HW1 8214   3.861   2.488   3.874
 2736SOL    HW2 8215   3.955   2.451   3.745
 2737SOL     OW 8216   3.955   3.575   4.207
 2737SOL    HW1 8217   3.989   3.652   4.261
 2737SOL    HW2 8218   3.999   3.575   4.117
 2738SOL     OW 8219   3.954   3.296   4.262
 2738SOL    HW1 8220   3.928   3.392   4.262
 2738SOL    HW2 8221   3.883   3.242   4.307
 2739SOL     OW 8222   3.846   2.505   4.287
 2739SOL    HW1 8223   3.801   2.417   4.304
 2739SOL    HW2 8224   3.845   2.559   4.371
 2740SOL     OW 8225   3.751   3.458   3.841
 2740SOL    HW1 8226   3.732   3.362   3.862
 2740SOL    HW2 8227   3.718   3.516   3.916
 2741SOL     OW 8228   4.533   1.866   4.226
 2741SOL    HW1 8229   4.573   1.957   4.217
 2741SOL    HW2 8230   4.433   1.874   4.232
 2742SOL     OW 8231   4.322   2.591   3.994
 2742SOL    HW1 8232   4.346   2.660   3.926
 2742SOL    HW2 8233   4.244   2.624   4.048
 2743SOL     OW 8234   3.800   2.673   4.513
 2743SOL    HW1 8235   3.899   2.661   4.522
 2743SOL    HW2 8236   3.776   2.768   4.534
 2744SOL     OW 8237   4.589   2.210   3.919
 2744SOL    HW1 8238   4.648   2.273   3.870
 2744SOL    HW2 8239   4.608   2.116   3.890
 2745SOL     OW 8240   4.075   3.663   4.577
 2745SOL    HW1 8241   4.125   3.577   4.583
 2745SOL    HW2 8242   4.140   3.740   4.574
 2746SOL     OW 8243   4.045   2.805   3.966
 2746SOL    HW1 8244   4.127   2.844   3.924
 2746SOL    HW2 8245   4.018   2.723   3.917
 2747SOL     OW 8246   4.188   3.605   4.047
 2747SOL    HW1 8247   4.221   3.644   4.133
 2747SOL    HW2 8248   4.264   3.598   3.982
 2748SOL     OW 8249   4.106   2.562   4.204
 2748SOL    HW1 8250   4.151   2.472   4.201
 2748SOL    HW2 8251   4.012   2.551   4.237
 2749SOL     OW 8252   4.338   1.984   3.841
 2749SOL    HW1 8253   4.436   1.962   3.848
 2749SOL    HW2 8254   4.307   1.967   3.748
 2750SOL     OW 8255   4.263   1.926   4.236
 2750SOL    HW1 8256   4.182   1.927   4.294
 2750SOL    HW2 8257   4.266   2.009   4.181
 2751SOL     OW 8258   4.021   1.897   3.895
 2751SOL    HW1 8259   4.070   1.981   3.874
 2751SOL    HW2 8260   4.083   1.832   3.940
 2752SOL     OW 8261   4.659   2.098   4.204
 2752SOL    HW1 8262   4.611   2.139   4.126
 2752SOL    HW2 8263   4.758   2.096   4.185
 2753SOL     OW 8264   4.183   3.014   4.465
 2753SOL    HW1 8265   4.112   2.987   4.530
 2753SOL    HW2 8266   4.157   2.986   4.372
 2754SOL     OW 8267   4.251   2.118   4.052
 2754SOL    HW1 8268   4.278   2.059   3.977
 2754SOL    HW2 8269   4.251   2.213   4.021
 2755SOL     OW 8270   4.091   2.962   4.225
 2755SOL    HW1 8271   4.084   3.045   4.169
 2755SOL    HW2 8272   4.095   2.882   4.165
 2756SOL     OW 8273   4.031   1.925   4.342
 2756SOL    HW1 8274   4.020   2.019   4.375
 2756SOL    HW2 8275   4.026   1.862   4.419
 2757SOL     OW 8276   3.732   3.188   3.924
 2757SOL    HW1 8277   3.639   3.209   3.893
 2757SOL    HW2 8278   3.742   3.089   3.937
 2758SOL     OW 8279   4.539   2.434   4.049
 2758SOL    HW1 8280   4.546   2.345   4.003
 2758SOL    HW2 8281   4.445   2.468   4.041
 2759SOL     OW 8282   4.197   2.362   3.915
 2759SOL    HW1 8283   4.258   2.442   3.919
 2759SOL    HW2 8284   4.102   2.393   3.922
 2760SOL     OW 8285   4.314   3.349   4.215
 2760SOL    HW1 8286   4.356   3.291   4.145
 2760SOL    HW2 8287   4.270   3.428   4.171
 2761SOL     OW 8288   3.979   3.210   4.014
 2761SOL    HW1 8289   3.883   3.211   3.987
 2761SOL    HW2 8290   3.991   3.263   4.098
 2762SOL     OW 8291   3.799   2.207   3.757
 2762SOL    HW1 8292   3.707   2.179   3.728
 2762SOL    HW2 8293   3.830   2.284   3.701
 2763SOL     OW 8294   3.796   2.028   4.042
 2763SOL    HW1 8295   3.779   2.111   3.988
 2763SOL    HW2 8296   3.886   1.991   4.020
 2764SOL     OW 8297   4.318   2.607   4.376
 2764SOL    HW1 8298   4.368   2.692   4.357
 2764SOL    HW2 8299   4.230   2.609   4.328
 2765SOL     OW 8300   3.803   3.102   4.377
 2765SOL    HW1 8301   3.802   3.055   4.465
 2765SOL    HW2 8302   3.885   3.074   4.326
 2766SOL     OW 8303   4.152   2.286   4.244
 2766SOL    HW1 8304   4.182   2.214   4.182
 2766SOL    HW2 8305   4.113   2.246   4.327
 2767SOL     OW 8306   3.763   2.939   4.024
 2767SOL    HW1 8307   3.862   2.928   4.015
 2767SOL    HW2 8308   3.723   2.853   4.056
 2768SOL     OW 8309   3.949   3.999   0.996
 2768SOL    HW1 8310   3.984   3.982   1.088
 2768SOL    HW2 8311   3.861   3.954   0.984
 2769SOL     OW 8312   3.743   4.092   0.647
 2769SOL    HW1 8313   3.661   4.135   0.686
 2769SOL    HW2 8314   3.715   4.019   0.584
 2770SOL     OW 8315   4.574   4.522   1.823
 2770SOL    HW1 8316   4.570   4.598   1.888
 2770SOL    HW2 8317   4.596   4.558   1.732
 2771SOL     OW 8318   4.162   4.116   1.499
 2771SOL    HW1 8319   4.244   4.060   1.508
 2771SOL    HW2 8320   4.081   4.058   1.503
 2772SOL     OW 8321   3.846   4.367   0.563
 2772SOL    HW1 8322   3.801   4.279   0.580
 2772SOL    HW2 8323   3.845   4.421   0.647
 2773SOL     OW 8324   3.837   4.461   1.597
 2773SOL    HW1 8325   3.925   4.448   1.642
 2773SOL    HW2 8326   3.824   4.558   1.575
 2774SOL     OW 8327   4.533   3.728   0.502
 2774SOL    HW1 8328   4.573   3.819   0.493
 2774SOL    HW2 8329   4.433   3.736   0.508
 2775SOL     OW 8330   4.041   3.975   1.801
 2775SOL    HW1 8331   4.112   4.046   1.807
 2775SOL    HW2 8332   3.953   4.014   1.829
 2776SOL     OW 8333   4.322   4.453   0.270
 2776SOL    HW1 8334   4.346   4.522   0.202
 2776SOL    HW2 8335   4.244   4.486   0.324
 2777SOL     OW 8336   4.589   4.072   0.195
 2777SOL    HW1 8337   4.648   4.135   0.146
 2777SOL    HW2 8338   4.608   3.978   0.166
 2778SOL     OW 8339   4.274   3.920   0.885
 2778SOL    HW1 8340   4.269   3.915   0.985
 2778SOL    HW2 8341   4.276   4.016   0.856
 2779SOL     OW 8342   3.926   4.009   1.498
 2779SOL    HW1 8343   3.846   4.069   1.485
 2779SOL    HW2 8344   3.916   3.960   1.584
 2780SOL     OW 8345   4.338   3.846   0.117
 2780SOL    HW1 8346   4.436   3.824   0.124
 2780SOL    HW2 8347   4.307   3.829   0.024
 2781SOL     OW 8348   4.263   3.788   0.512
 2781SOL    HW1 8349   4.182   3.789   0.570
 2781SOL    HW2 8350   4.266   3.871   0.457
 2782SOL     OW 8351   4.659   3.960   0.480
 2782SOL    HW1 8352   4.611   4.001   0.402
 2782SOL    HW2 8353   4.758   3.958   0.461
 2783SOL     OW 8354   3.802   4.280   1.386
 2783SOL    HW1 8355   3.894   4.279   1.345
 2783SOL    HW2 8356   3.796   4.354   1.453
 2784SOL     OW 8357   4.285   3.946   1.147
 2784SOL    HW1 8358   4.323   3.862   1.184
 2784SOL    HW2 8359   4.197   3.965   1.191
 2785SOL     OW 8360   4.251   3.980   0.328
 2785SOL    HW1 8361   4.278   3.921   0.253
 2785SOL    HW2 8362   4.251   4.075   0.297
 2786SOL     OW 8363   4.290   4.261   0.865
 2786SOL    HW1 8364   4.302   4.327   0.791
 2786SOL    HW2 8365   4.336   4.295   0.948
 2787SOL     OW 8366   4.228   3.774   1.740
 2787SOL    HW1 8367   4.186   3.717   1.670
 2787SOL    HW2 8368   4.162   3.843   1.772
 2788SOL     OW 8369   4.031   3.937   1.231
 2788SOL    HW1 8370   4.008   3.974   1.321
 2788SOL    HW2 8371   4.001   3.842   1.225
 2789SOL     OW 8372   4.031   3.787   0.618
 2789SOL    HW1 8373   4.020   3.881   0.651
 2789SOL    HW2 8374   4.026   3.724   0.695
 2790SOL     OW 8375   4.043   4.534   0.949
 2790SOL    HW1 8376   4.136   4.570   0.954
 2790SOL    HW2 8377   4.037   4.449   1.001
 2791SOL     OW 8378   4.063   4.233   1.006
 2791SOL    HW1 8379   4.011   4.150   0.989
 2791SOL    HW2 8380   4.140   4.238   0.942
 2792SOL     OW 8381   3.764   4.268   1.114
 2792SOL    HW1 8382   3.849   4.235   1.073
 2792SOL    HW2 8383   3.777   4.283   1.212
 2793SOL     OW 8384   3.913   4.244   1.722
 2793SOL    HW1 8385   3.972   4.204   1.652
 2793SOL    HW2 8386   3.855   4.315   1.681
 2794SOL     OW 8387   4.539   4.296   0.325
 2794SOL    HW1 8388   4.546   4.207   0.279
 2794SOL    HW2 8389   4.445   4.330   0.317
 2795SOL     OW 8390   4.197   4.224   0.191
 2795SOL    HW1 8391   4.258   4.304   0.195
 2795SOL    HW2 8392   4.102   4.255   0.198
 2796SOL     OW 8393   3.987   4.050   0.720
 2796SOL    HW1 8394   3.908   4.101   0.686
 2796SOL    HW2 8395   3.978   4.035   0.818
 2797SOL     OW 8396   4.396   3.927   1.489
 2797SOL    HW1 8397   4.486   3.911   1.449
 2797SOL    HW2 8398   4.404   3.932   1.588
 2798SOL     OW 8399   3.799   4.069   0.033
 2798SOL    HW1 8400   3.707   4.041   0.004
 2798SOL    HW2 8401   3.830   4.146  -0.023
 2799SOL     OW 8402   4.152   4.148   0.520
 2799SOL    HW1 8403   4.182   4.076   0.458
 2799SOL    HW2 8404   4.113   4.108   0.603
 2800SOL     OW 8405   4.041   4.271   1.280
 2800SOL    HW1 8406   4.079   4.212   1.352
 2800SOL    HW2 8407   4.081   4.245   1.192
 2801SOL     OW 8408   3.949   3.999   2.858
 2801SOL    HW1 8409   3.984   3.982   2.950
 2801SOL    HW2 8410   3.861   3.954   2.846
 2802SOL     OW 8411   3.743   4.092   2.509
 2802SOL    HW1 8412   3.661   4.135   2.548
 2802SOL    HW2 8413   3.715   4.019   2.446
 2803SOL     OW 8414   4.574   4.522   3.685
 2803SOL    HW1 8415   4.570   4.598   3.750
 2803SOL    HW2 8416   4.596   4.558   3.594
 2804SOL     OW 8417   4.162   4.116   3.361
 2804SOL    HW1 8418   4.244   4.060   3.370
 2804SOL    HW2 8419   4.081   4.058   3.365
 2805SOL     OW 8420   3.846   4.367   2.425
 2805SOL    HW1 8421   3.801   4.279   2.442
 2805SOL    HW2 8422   3.845   4.421   2.509
 2806SOL     OW 8423   3.837   4.461   3.459
 2806SOL    HW1 8424   3.925   4.448   3.504
 2806SOL    HW2 8425   3.824   4.558   3.437
 2807SOL     OW 8426   4.533   3.728   2.364
 2807SOL    HW1 8427   4.573   3.819   2.355
 2807SOL    HW2 8428   4.433   3.736   2.370
 2808SOL     OW 8429   4.041   3.975   3.663
 2808SOL    HW1 8430   4.112   4.046   3.669
 2808SOL    HW2 8431   3.953   4.014   3.691
 2809SOL     OW 8432   4.589   4.072   2.057
 2809SOL    HW1 8433   4.648   4.135   2.008
 2809SOL    HW2 8434   4.608   3.978   2.028
 2810SOL     OW 8435   4.274   3.920   2.747
 2810SOL    HW1 8436   4.269   3.915   2.847
 2810SOL    HW2 8437   4.276   4.016   2.718
 2811SOL     OW 8438   3.926   4.009   3.360
 2811SOL    HW1 8439   3.846   4.069   3.347
 2811SOL    HW2 8440   3.916   3.960   3.446
 2812SOL     OW 8441   4.338   3.846   1.979
 2812SOL    HW1 8442   4.436   3.824   1.986
 2812SOL    HW2 8443   4.307   3.829   1.886
 2813SOL     OW 8444   4.263   3.788   2.374
 2813SOL    HW1 8445   4.182   3.789   2.432
 2813SOL    HW2 8446   4.266   3.871   2.319
 2814SOL     OW 8447   4.021   3.759   2.033
 2814SOL    HW1 8448   4.070   3.843   2.012
 2814SOL    HW2 8449   4.083   3.694   2.078
 2815SOL     OW 8450   4.659   3.960   2.342
 2815SOL    HW1 8451   4.611   4.001   2.264
 2815SOL    HW2 8452   4.758   3.958   2.323
 2816SOL     OW 8453   3.802   4.280   3.248
 2816SOL    HW1 8454   3.894   4.279   3.207
 2816SOL    HW2 8455   3.796   4.354   3.315
 2817SOL     OW 8456   4.285   3.946   3.009
 2817SOL    HW1 8457   4.323   3.862   3.046
 2817SOL    HW2 8458   4.197   3.965   3.053
 2818SOL     OW 8459   4.251   3.980   2.190
 2818SOL    HW1 8460   4.278   3.921   2.115
 2818SOL    HW2 8461   4.251   4.075   2.159
 2819SOL     OW 8462   4.290   4.261   2.727
 2819SOL    HW1 8463   4.302   4.327   2.653
 2819SOL    HW2 8464   4.336   4.295   2.810
 2820SOL     OW 8465   4.228   3.774   3.602
 2820SOL    HW1 8466   4.186   3.717   3.532
 2820SOL    HW2 8467   4.162   3.843   3.634
 2821SOL     OW 8468   4.031   3.937   3.093
 2821SOL    HW1 8469   4.008   3.974   3.183
 2821SOL    HW2 8470   4.001   3.842   3.087
 2822SOL     OW 8471   4.031   3.787   2.480
 2822SOL    HW1 8472   4.020   3.881   2.513
 2822SOL    HW2 8473   4.026   3.724   2.557
 2823SOL     OW 8474   4.043   4.534   2.811
 2823SOL    HW1 8475   4.136   4.570   2.816
 2823SOL    HW2 8476   4.037   4.449   2.863
 2824SOL     OW 8477   4.063   4.233   2.868
 2824SOL    HW1 8478   4.011   4.150   2.851
 2824SOL    HW2 8479   4.140   4.238   2.804
 2825SOL     OW 8480   3.764   4.268   2.976
 2825SOL    HW1 8481   3.849   4.235   2.935
 2825SOL    HW2 8482   3.777   4.283   3.074
 2826SOL     OW 8483   3.913   4.244   3.584
 2826SOL    HW1 8484   3.972   4.204   3.514
 2826SOL    HW2 8485   3.855   4.315   3.543
 2827SOL     OW 8486   4.539   4.296   2.187
 2827SOL    HW1 8487   4.546   4.207   2.141
 2827SOL    HW2 8488   4.445   4.330   2.179
 2828SOL     OW 8489   4.197   4.224   2.053
 2828SOL    HW1 8490   4.258   4.304   2.057
 2828SOL    HW2 8491   4.102   4.255   2.060
 2829SOL     OW 8492   3.987   4.050   2.582
 2829SOL    HW1 8493   3.908   4.101   2.548
 2829SOL    HW2 8494   3.978   4.035   2.680
 2830SOL     OW 8495   4.396   3.927   3.351
 2830SOL    HW1 8496   4.486   3.911   3.311
 2830SOL    HW2 8497   4.404   3.932   3.450
 2831SOL     OW 8498   3.799   4.069   1.895
 2831SOL    HW1 8499   3.707   4.041   1.866
 2831SOL    HW2 8500   3.830   4.146   1.839
 2832SOL     OW 8501   3.796   3.890   2.180
 2832SOL    HW1 8502   3.779   3.973   2.126
 2832SOL    HW2 8503   3.886   3.853   2.158
 2833SOL     OW 8504   4.152   4.148   2.382
 2833SOL    HW1 8505   4.182   4.076   2.320
 2833SOL    HW2 8506   4.113   4.108   2.465
 2834SOL     OW 8507   4.041   4.271   3.142
 2834SOL    HW1 8508   4.079   4.212   3.214
 2834SOL    HW2 8509   4.081   4.245   3.054
 2835SOL     OW 8510   3.846   4.367   4.287
 2835SOL    HW1 8511   3.801   4.279   4.304
 2835SOL    HW2 8512   3.845   4.421   4.371
 2836SOL     OW 8513   4.533   3.728   4.226
 2836SOL    HW1 8514   4.573   3.819   4.217
 2836SOL    HW2 8515   4.433   3.736   4.232
 2837SOL     OW 8516   4.589   4.072   3.919
 2837SOL    HW1 8517   4.648   4.135   3.870
 2837SOL    HW2 8518   4.608   3.978   3.890
 2838SOL     OW 8519   4.338   3.846   3.841
 2838SOL    HW1 8520   4.436   3.824   3.848
 2838SOL    HW2 8521   4.307   3.829   3.748
 2839SOL     OW 8522   4.263   3.788   4.236
 2839SOL    HW1 8523   4.182   3.789   4.294
 2839SOL    HW2 8524   4.266   3.871   4.181
 2840SOL     OW 8525   4.021   3.759   3.895
 2840SOL    HW1 8526   4.070   3.843   3.874
 2840SOL    HW2 8527   4.083   3.694   3.940
 2841SOL     OW 8528   4.659   3.960   4.204
 2841SOL    HW1 8529   4.611   4.001   4.126
 2841SOL    HW2 8530   4.758   3.958   4.185
 2842SOL     OW 8531   4.251   3.980   4.052
 2842SOL    HW1 8532   4.278   3.921   3.977
 2842SOL    HW2 8533   4.251   4.075   4.021
 2843SOL     OW 8534   4.031   3.787   4.342
 2843SOL    HW1 8535   4.020   3.881   4.375
 2843SOL    HW2 8536   4.026   3.724   4.419
 2844SOL     OW 8537   4.539   4.296   4.049
 2844SOL    HW1 8538   4.546   4.207   4.003
 2844SOL    HW2 8539   4.445   4.330   4.041
 2845SOL     OW 8540   4.197   4.224   3.915
 2845SOL    HW1 8541   4.258   4.304   3.919
 2845SOL    HW2 8542   4.102   4.255   3.922
 2846SOL     OW 8543   3.799   4.069   3.757
 2846SOL    HW1 8544   3.707   4.041   3.728
 2846SOL    HW2 8545   3.830   4.146   3.701
 2847SOL     OW 8546   3.796   3.890   4.042
 2847SOL    HW1 8547   3.779   3.973   3.988
 2847SOL    HW2 8548   3.886   3.853   4.020
 2848SOL     OW 8549   4.152   4.148   4.244
 2848SOL    HW1 8550   4.182   4.076   4.182
 2848SOL    HW2 8551   4.113   4.108   4.327
   4.43247   4.43247   4.43247
