mobley_3323117_GMX.gro created by acpype (v: 2023.10.27) on Thu May 21 00:04:10 2026
 8625
    1MOL     C1    1   2.247   2.310   2.131
    1MOL     C2    2   2.132   2.314   2.231
    1MOL     C3    3   2.357   2.227   2.195
    1MOL     C4    4   2.109   2.170   2.275
    1MOL     O1    5   2.316   2.098   2.421
    1MOL     O2    6   2.273   1.977   2.202
    1MOL     S1    7   2.272   2.097   2.283
    1MOL     H1    8   2.213   2.262   2.038
    1MOL     H2    9   2.282   2.411   2.105
    1MOL     H3   10   2.161   2.375   2.318
    1MOL     H4   11   2.041   2.358   2.188
    1MOL     H5   12   2.425   2.184   2.122
    1MOL     H6   13   2.413   2.286   2.268
    1MOL     H7   14   2.060   2.163   2.372
    1MOL     H8   15   2.052   2.115   2.200
    2SOL     OW   16   0.230   0.628   0.113
    2SOL    HW1   17   0.137   0.626   0.150
    2SOL    HW2   18   0.231   0.589   0.021
    3SOL     OW   19   0.225   0.275   0.996
    3SOL    HW1   20   0.260   0.258   1.088
    3SOL    HW2   21   0.137   0.230   0.984
    4SOL     OW   22   0.019   0.368   0.647
    4SOL    HW1   23  -0.063   0.411   0.686
    4SOL    HW2   24  -0.009   0.295   0.584
    5SOL     OW   25   0.569   1.275   1.165
    5SOL    HW1   26   0.476   1.268   1.128
    5SOL    HW2   27   0.580   1.364   1.209
    6SOL     OW   28   1.555   1.511   0.703
    6SOL    HW1   29   1.498   1.495   0.784
    6SOL    HW2   30   1.496   1.521   0.623
    7SOL     OW   31   1.135   0.703   0.717
    7SOL    HW1   32   1.192   0.781   0.692
    7SOL    HW2   33   1.075   0.729   0.793
    8SOL     OW   34   1.755   0.607   0.231
    8SOL    HW1   35   1.743   0.594   0.132
    8SOL    HW2   36   1.725   0.526   0.280
    9SOL     OW   37   0.768   1.144   1.023
    9SOL    HW1   38   0.690   1.161   1.083
    9SOL    HW2   39   0.802   1.231   0.987
   10SOL     OW   40   0.850   0.798   1.823
   10SOL    HW1   41   0.846   0.874   1.888
   10SOL    HW2   42   0.872   0.834   1.732
   11SOL     OW   43   0.685   1.012   0.665
   11SOL    HW1   44   0.754   0.996   0.735
   11SOL    HW2   45   0.612   1.069   0.703
   12SOL     OW   46   0.686   1.161   1.803
   12SOL    HW1   47   0.746   1.240   1.817
   12SOL    HW2   48   0.600   1.192   1.762
   13SOL     OW   49   0.335   1.435   1.061
   13SOL    HW1   50   0.257   1.404   1.008
   13SOL    HW2   51   0.393   1.493   1.004
   14SOL     OW   52   1.460   1.505   1.339
   14SOL    HW1   53   1.484   1.599   1.365
   14SOL    HW2   54   1.444   1.451   1.421
   15SOL     OW   55   0.438   0.392   1.499
   15SOL    HW1   56   0.520   0.336   1.508
   15SOL    HW2   57   0.357   0.334   1.503
   16SOL     OW   58   1.603   0.447   0.737
   16SOL    HW1   59   1.529   0.493   0.687
   16SOL    HW2   60   1.654   0.515   0.790
   17SOL     OW   61   0.231   1.713   0.483
   17SOL    HW1   62   0.265   1.790   0.537
   17SOL    HW2   63   0.275   1.713   0.393
   18SOL     OW   64   1.127   1.341   1.690
   18SOL    HW1   65   1.174   1.341   1.778
   18SOL    HW2   66   1.079   1.254   1.679
   19SOL     OW   67   0.230   1.434   0.538
   19SOL    HW1   68   0.204   1.530   0.538
   19SOL    HW2   69   0.159   1.380   0.583
   20SOL     OW   70   0.240   1.091   0.886
   20SOL    HW1   71   0.254   1.007   0.938
   20SOL    HW2   72   0.185   1.155   0.941
   21SOL     OW   73   0.620   1.786   1.439
   21SOL    HW1   74   0.528   1.769   1.474
   21SOL    HW2   75   0.648   1.878   1.465
   22SOL     OW   76   0.606   0.964   0.123
   22SOL    HW1   77   0.613   1.048   0.069
   22SOL    HW2   78   0.652   0.977   0.211
   23SOL     OW   79   1.594   0.114   1.480
   23SOL    HW1   80   1.576   0.181   1.408
   23SOL    HW2   81   1.591   0.160   1.569
   24SOL     OW   82   0.122   0.643   0.563
   24SOL    HW1   83   0.077   0.555   0.580
   24SOL    HW2   84   0.121   0.697   0.647
   25SOL     OW   85   1.842   1.767   0.359
   25SOL    HW1   86   1.896   1.738   0.439
   25SOL    HW2   87   1.872   1.857   0.330
   26SOL     OW   88   0.027   1.596   0.117
   26SOL    HW1   89   0.008   1.500   0.138
   26SOL    HW2   90  -0.006   1.654   0.192
   27SOL     OW   91   1.689   0.922   0.612
   27SOL    HW1   92   1.784   0.893   0.620
   27SOL    HW2   93   1.681   0.987   0.537
   28SOL     OW   94   1.641   1.108   0.432
   28SOL    HW1   95   1.727   1.110   0.380
   28SOL    HW2   96   1.655   1.155   0.520
   29SOL     OW   97   0.113   0.737   1.597
   29SOL    HW1   98   0.201   0.724   1.642
   29SOL    HW2   99   0.100   0.834   1.575
   30SOL     OW  100   0.613   1.365   0.726
   30SOL    HW1  101   0.564   1.278   0.735
   30SOL    HW2  102   0.590   1.408   0.639
   31SOL     OW  103   1.293   1.228   1.423
   31SOL    HW1  104   1.330   1.155   1.365
   31SOL    HW2  105   1.345   1.233   1.508
   32SOL     OW  106   0.809   0.004   0.502
   32SOL    HW1  107   0.849   0.095   0.493
   32SOL    HW2  108   0.709   0.012   0.508
   33SOL     OW  109   0.197   0.976   1.264
   33SOL    HW1  110   0.286   0.931   1.250
   33SOL    HW2  111   0.124   0.911   1.245
   34SOL     OW  112   1.525   0.999   0.190
   34SOL    HW1  113   1.462   0.923   0.203
   34SOL    HW2  114   1.573   1.017   0.276
   35SOL     OW  115   1.187   1.792   1.616
   35SOL    HW1  116   1.211   1.852   1.540
   35SOL    HW2  117   1.194   1.697   1.586
   36SOL     OW  118   0.317   0.251   1.801
   36SOL    HW1  119   0.388   0.322   1.807
   36SOL    HW2  120   0.229   0.290   1.829
   37SOL     OW  121   1.466   1.417   0.953
   37SOL    HW1  122   1.407   1.423   1.033
   37SOL    HW2  123   1.451   1.329   0.907
   38SOL     OW  124   1.667   1.714   0.572
   38SOL    HW1  125   1.626   1.691   0.484
   38SOL    HW2  126   1.649   1.640   0.637
   39SOL     OW  127   0.598   0.729   0.270
   39SOL    HW1  128   0.622   0.798   0.202
   39SOL    HW2  129   0.520   0.762   0.324
   40SOL     OW  130   1.281   0.345   0.944
   40SOL    HW1  131   1.195   0.295   0.931
   40SOL    HW2  132   1.343   0.291   1.000
   41SOL     OW  133   1.576   1.662   0.307
   41SOL    HW1  134   1.665   1.708   0.310
   41SOL    HW2  135   1.555   1.638   0.212
   42SOL     OW  136   0.807   0.605   1.465
   42SOL    HW1  137   0.760   0.602   1.554
   42SOL    HW2  138   0.756   0.550   1.399
   43SOL     OW  139   1.394   0.469   1.674
   43SOL    HW1  140   1.374   0.512   1.762
   43SOL    HW2  141   1.472   0.407   1.683
   44SOL     OW  142   0.973   0.890   1.572
   44SOL    HW1  143   1.019   0.806   1.543
   44SOL    HW2  144   0.917   0.924   1.497
   45SOL     OW  145   0.991   0.410   1.242
   45SOL    HW1  146   0.914   0.444   1.296
   45SOL    HW2  147   0.957   0.359   1.163
   46SOL     OW  148   1.041   0.701   0.429
   46SOL    HW1  149   1.067   0.697   0.525
   46SOL    HW2  150   0.956   0.650   0.415
   47SOL     OW  151   0.076   0.811   0.789
   47SOL    HW1  152   0.175   0.799   0.798
   47SOL    HW2  153   0.052   0.906   0.810
   48SOL     OW  154   0.130   1.821   1.571
   48SOL    HW1  155   0.120   1.806   1.670
   48SOL    HW2  156   0.044   1.857   1.535
   49SOL     OW  157   0.865   0.348   0.195
   49SOL    HW1  158   0.924   0.411   0.146
   49SOL    HW2  159   0.884   0.254   0.166
   50SOL     OW  160   1.719   0.585   1.831
   50SOL    HW1  161   1.693   0.674   1.795
   50SOL    HW2  162   1.717   0.517   1.758
   51SOL     OW  163   1.362   1.144   0.545
   51SOL    HW1  164   1.445   1.115   0.497
   51SOL    HW2  165   1.313   1.211   0.489
   52SOL     OW  166   0.550   0.196   0.885
   52SOL    HW1  167   0.545   0.191   0.985
   52SOL    HW2  168   0.552   0.292   0.856
   53SOL     OW  169   1.008   1.456   0.477
   53SOL    HW1  170   0.962   1.528   0.425
   53SOL    HW2  171   1.004   1.476   0.575
   54SOL     OW  172   0.351   1.801   0.853
   54SOL    HW1  173   0.401   1.715   0.859
   54SOL    HW2  174   0.416   1.878   0.850
   55SOL     OW  175   1.795   1.066   0.873
   55SOL    HW1  176   1.733   1.051   0.797
   55SOL    HW2  177   1.743   1.077   0.958
   56SOL     OW  178   1.227   1.550   1.506
   56SOL    HW1  179   1.233   1.473   1.570
   56SOL    HW2  180   1.175   1.524   1.426
   57SOL     OW  181   0.321   0.943   0.242
   57SOL    HW1  182   0.403   0.982   0.200
   57SOL    HW2  183   0.294   0.861   0.193
   58SOL     OW  184   1.458   0.735   0.728
   58SOL    HW1  185   1.453   0.670   0.803
   58SOL    HW2  186   1.538   0.794   0.741
   59SOL     OW  187   0.461   1.266   1.727
   59SOL    HW1  188   0.411   1.267   1.641
   59SOL    HW2  189   0.398   1.248   1.803
   60SOL     OW  190   1.111   1.776   0.237
   60SOL    HW1  191   1.051   1.714   0.287
   60SOL    HW2  192   1.142   1.732   0.152
   61SOL     OW  193   0.202   0.285   1.498
   61SOL    HW1  194   0.122   0.345   1.485
   61SOL    HW2  195   0.192   0.236   1.584
   62SOL     OW  196   1.632   1.377   0.081
   62SOL    HW1  197   1.600   1.471   0.071
   62SOL    HW2  198   1.556   1.314   0.069
   63SOL     OW  199   0.464   1.743   0.323
   63SOL    HW1  200   0.497   1.782   0.409
   63SOL    HW2  201   0.540   1.736   0.258
   64SOL     OW  202   1.400   0.107   0.426
   64SOL    HW1  203   1.376   0.070   0.336
   64SOL    HW2  204   1.499   0.123   0.430
   65SOL     OW  205   0.249   1.785   1.241
   65SOL    HW1  206   0.306   1.720   1.291
   65SOL    HW2  207   0.233   1.752   1.148
   66SOL     OW  208   0.940   1.698   0.904
   66SOL    HW1  209   1.020   1.641   0.925
   66SOL    HW2  210   0.891   1.658   0.827
   67SOL     OW  211   0.382   0.700   0.480
   67SOL    HW1  212   0.427   0.610   0.477
   67SOL    HW2  213   0.288   0.689   0.513
   68SOL     OW  214   1.547   0.222   1.729
   68SOL    HW1  215   1.542   0.259   1.821
   68SOL    HW2  216   1.475   0.153   1.717
   69SOL     OW  217   0.614   0.122   0.117
   69SOL    HW1  218   0.712   0.100   0.124
   69SOL    HW2  219   0.583   0.105   0.024
   70SOL     OW  220   0.781   0.264   1.749
   70SOL    HW1  221   0.848   0.203   1.792
   70SOL    HW2  222   0.708   0.283   1.814
   71SOL     OW  223   0.888   1.514   1.195
   71SOL    HW1  224   0.865   1.489   1.101
   71SOL    HW2  225   0.949   1.445   1.234
   72SOL     OW  226   1.351   0.590   1.433
   72SOL    HW1  227   1.379   0.547   1.518
   72SOL    HW2  228   1.376   0.686   1.434
   73SOL     OW  229   0.803   1.402   0.924
   73SOL    HW1  230   0.893   1.416   0.882
   73SOL    HW2  231   0.732   1.404   0.853
   74SOL     OW  232   0.922   0.503   0.899
   74SOL    HW1  233   0.897   0.494   0.803
   74SOL    HW2  234   0.970   0.421   0.930
   75SOL     OW  235   0.539   0.064   0.512
   75SOL    HW1  236   0.458   0.065   0.570
   75SOL    HW2  237   0.542   0.147   0.457
   76SOL     OW  238   1.434   1.188   0.041
   76SOL    HW1  239   1.466   1.112   0.098
   76SOL    HW2  240   1.342   1.215   0.071
   77SOL     OW  241   0.297   0.035   0.171
   77SOL    HW1  242   0.346   0.119   0.150
   77SOL    HW2  243   0.359  -0.030   0.216
   78SOL     OW  244   0.935   0.236   0.480
   78SOL    HW1  245   0.887   0.277   0.402
   78SOL    HW2  246   1.034   0.234   0.461
   79SOL     OW  247   1.076   0.683   1.464
   79SOL    HW1  248   0.996   0.622   1.467
   79SOL    HW2  249   1.157   0.630   1.440
   80SOL     OW  250   1.227   1.570   0.793
   80SOL    HW1  251   1.248   1.644   0.728
   80SOL    HW2  252   1.295   1.570   0.866
   81SOL     OW  253   0.459   1.152   0.741
   81SOL    HW1  254   0.388   1.125   0.806
   81SOL    HW2  255   0.433   1.124   0.648
   82SOL     OW  256   1.271   1.797   0.591
   82SOL    HW1  257   1.315   1.861   0.527
   82SOL    HW2  258   1.221   1.849   0.661
   83SOL     OW  259   1.032   0.549   0.016
   83SOL    HW1  260   0.991   0.631  -0.023
   83SOL    HW2  261   1.096   0.575   0.089
   84SOL     OW  262   0.078   0.556   1.386
   84SOL    HW1  263   0.170   0.555   1.345
   84SOL    HW2  264   0.072   0.630   1.453
   85SOL     OW  265   0.561   0.222   1.147
   85SOL    HW1  266   0.599   0.138   1.184
   85SOL    HW2  267   0.473   0.241   1.191
   86SOL     OW  268   0.866   0.454   0.642
   86SOL    HW1  269   0.834   0.526   0.580
   86SOL    HW2  270   0.890   0.373   0.589
   87SOL     OW  271   1.017   0.039   0.753
   87SOL    HW1  272   0.945   0.044   0.684
   87SOL    HW2  273   0.993  -0.030   0.822
   88SOL     OW  274   1.429   1.173   0.867
   88SOL    HW1  275   1.374   1.089   0.860
   88SOL    HW2  276   1.455   1.202   0.775
   89SOL     OW  277   1.466   0.590   0.992
   89SOL    HW1  278   1.436   0.495   0.999
   89SOL    HW2  279   1.539   0.606   1.058
   90SOL     OW  280   1.857   0.833   0.377
   90SOL    HW1  281   1.899   0.769   0.441
   90SOL    HW2  282   1.819   0.782   0.299
   91SOL     OW  283   0.488   1.385   0.174
   91SOL    HW1  284   0.401   1.370   0.221
   91SOL    HW2  285   0.471   1.411   0.079
   92SOL     OW  286   1.664   1.280   0.657
   92SOL    HW1  287   1.763   1.288   0.671
   92SOL    HW2  288   1.619   1.364   0.688
   93SOL     OW  289   1.390   0.575   0.078
   93SOL    HW1  290   1.336   0.554   0.159
   93SOL    HW2  291   1.481   0.534   0.087
   94SOL     OW  292   0.527   0.256   0.328
   94SOL    HW1  293   0.554   0.197   0.253
   94SOL    HW2  294   0.527   0.351   0.297
   95SOL     OW  295   1.754   1.223   1.588
   95SOL    HW1  296   1.845   1.184   1.575
   95SOL    HW2  297   1.762   1.319   1.612
   96SOL     OW  298   1.064   1.347   1.340
   96SOL    HW1  299   0.984   1.324   1.395
   96SOL    HW2  300   1.147   1.321   1.389
   97SOL     OW  301   1.592   1.629   1.625
   97SOL    HW1  302   1.619   1.663   1.535
   97SOL    HW2  303   1.671   1.591   1.671
   98SOL     OW  304   1.111   1.195   1.100
   98SOL    HW1  305   1.071   1.239   1.181
   98SOL    HW2  306   1.070   1.232   1.017
   99SOL     OW  307   1.638   1.099   1.079
   99SOL    HW1  308   1.643   1.180   1.138
   99SOL    HW2  309   1.552   1.101   1.028
  100SOL     OW  310   0.915   0.089   1.402
  100SOL    HW1  311   0.940   0.069   1.307
  100SOL    HW2  312   0.987   0.145   1.444
  101SOL     OW  313   0.980   1.116   1.719
  101SOL    HW1  314   0.881   1.122   1.729
  101SOL    HW2  315   1.003   1.036   1.663
  102SOL     OW  316   0.705   1.050   0.368
  102SOL    HW1  317   0.691   1.057   0.467
  102SOL    HW2  318   0.789   0.999   0.350
  103SOL     OW  319   0.410   0.813   1.251
  103SOL    HW1  320   0.496   0.825   1.301
  103SOL    HW2  321   0.368   0.726   1.278
  104SOL     OW  322   1.274   0.386   1.262
  104SOL    HW1  323   1.295   0.460   1.326
  104SOL    HW2  324   1.185   0.403   1.219
  105SOL     OW  325   0.064   1.564   1.331
  105SOL    HW1  326   0.018   1.646   1.297
  105SOL    HW2  327   0.162   1.583   1.340
  106SOL     OW  328   0.367   1.100   0.501
  106SOL    HW1  329   0.360   1.183   0.445
  106SOL    HW2  330   0.371   1.020   0.441
  107SOL     OW  331   0.566   0.537   0.865
  107SOL    HW1  332   0.578   0.603   0.791
  107SOL    HW2  333   0.612   0.571   0.948
  108SOL     OW  334   1.252   1.348   0.388
  108SOL    HW1  335   1.302   1.425   0.428
  108SOL    HW2  336   1.157   1.350   0.420
  109SOL     OW  337   1.272   1.445   1.142
  109SOL    HW1  338   1.319   1.458   1.229
  109SOL    HW2  339   1.206   1.371   1.151
  110SOL     OW  340   1.582   0.639   0.472
  110SOL    HW1  341   1.551   0.700   0.545
  110SOL    HW2  342   1.632   0.691   0.403
  111SOL     OW  343   0.354   1.510   1.329
  111SOL    HW1  344   0.333   1.466   1.242
  111SOL    HW2  345   0.451   1.536   1.332
  112SOL     OW  346   0.402   0.751   1.598
  112SOL    HW1  347   0.470   0.806   1.551
  112SOL    HW2  348   0.442   0.663   1.625
  113SOL     OW  349   1.587   0.779   1.670
  113SOL    HW1  350   1.495   0.817   1.665
  113SOL    HW2  351   1.647   0.826   1.605
  114SOL     OW  352   1.013   0.105   1.770
  114SOL    HW1  353   1.019   0.190   1.718
  114SOL    HW2  354   1.045   0.029   1.713
  115SOL     OW  355   0.504   0.050   1.740
  115SOL    HW1  356   0.462  -0.007   1.670
  115SOL    HW2  357   0.438   0.119   1.772
  116SOL     OW  358   0.573   0.870   1.029
  116SOL    HW1  359   0.617   0.959   1.020
  116SOL    HW2  360   0.510   0.870   1.106
  117SOL     OW  361   1.360   0.862   1.045
  117SOL    HW1  362   1.285   0.862   0.979
  117SOL    HW2  363   1.397   0.770   1.054
  118SOL     OW  364   1.209   0.525   0.275
  118SOL    HW1  365   1.222   0.441   0.329
  118SOL    HW2  366   1.180   0.599   0.335
  119SOL     OW  367   0.307   0.213   1.231
  119SOL    HW1  368   0.284   0.250   1.321
  119SOL    HW2  369   0.277   0.118   1.225
  120SOL     OW  370   0.037   1.310   1.282
  120SOL    HW1  371   0.090   1.261   1.350
  120SOL    HW2  372   0.059   1.408   1.287
  121SOL     OW  373   0.732   0.634   1.064
  121SOL    HW1  374   0.791   0.608   0.988
  121SOL    HW2  375   0.704   0.730   1.053
  122SOL     OW  376   1.728   0.935   1.854
  122SOL    HW1  377   1.682   0.928   1.765
  122SOL    HW2  378   1.666   0.979   1.920
  123SOL     OW  379   0.307   0.063   0.618
  123SOL    HW1  380   0.296   0.157   0.651
  123SOL    HW2  381   0.302   0.000   0.695
  124SOL     OW  382   1.622   0.367   0.374
  124SOL    HW1  383   1.624   0.291   0.438
  124SOL    HW2  384   1.574   0.444   0.414
  125SOL     OW  385   1.023   0.766   0.966
  125SOL    HW1  386   1.038   0.787   1.062
  125SOL    HW2  387   0.993   0.671   0.957
  126SOL     OW  388   0.980   1.573   1.700
  126SOL    HW1  389   0.960   1.617   1.612
  126SOL    HW2  390   1.019   1.482   1.684
  127SOL     OW  391   1.859   1.518   1.605
  127SOL    HW1  392   1.873   1.545   1.510
  127SOL    HW2  393   1.942   1.540   1.658
  128SOL     OW  394   0.350   0.898   1.804
  128SOL    HW1  395   0.426   0.942   1.852
  128SOL    HW2  396   0.385   0.851   1.722
  129SOL     OW  397   1.540   0.274   0.125
  129SOL    HW1  398   1.479   0.199   0.148
  129SOL    HW2  399   1.562   0.326   0.208
  130SOL     OW  400   1.303   0.838   0.042
  130SOL    HW1  401   1.337   0.745   0.057
  130SOL    HW2  402   1.321   0.865  -0.053
  131SOL     OW  403   1.068   1.333   0.849
  131SOL    HW1  404   1.075   1.249   0.794
  131SOL    HW2  405   1.130   1.402   0.813
  132SOL     OW  406   0.319   0.810   0.949
  132SOL    HW1  407   0.412   0.846   0.954
  132SOL    HW2  408   0.313   0.725   1.001
  133SOL     OW  409   0.339   0.509   1.006
  133SOL    HW1  410   0.287   0.426   0.989
  133SOL    HW2  411   0.416   0.514   0.942
  134SOL     OW  412   1.138   0.380   1.678
  134SOL    HW1  413   1.093   0.443   1.742
  134SOL    HW2  414   1.231   0.411   1.661
  135SOL     OW  415   1.160   0.207   1.477
  135SOL    HW1  416   1.160   0.271   1.554
  135SOL    HW2  417   1.188   0.255   1.394
  136SOL     OW  418   0.008   1.326   0.200
  136SOL    HW1  419  -0.085   1.347   0.169
  136SOL    HW2  420   0.018   1.227   0.213
  137SOL     OW  421   0.088   1.801   0.927
  137SOL    HW1  422   0.046   1.715   0.900
  137SOL    HW2  423   0.182   1.804   0.893
  138SOL     OW  424   0.504   1.568   0.910
  138SOL    HW1  425   0.570   1.642   0.919
  138SOL    HW2  426   0.548   1.489   0.868
  139SOL     OW  427   1.002   0.796   1.238
  139SOL    HW1  428   1.043   0.764   1.324
  139SOL    HW2  429   0.906   0.769   1.235
  140SOL     OW  430   0.040   0.544   1.114
  140SOL    HW1  431   0.125   0.511   1.073
  140SOL    HW2  432   0.053   0.559   1.212
  141SOL     OW  433   0.189   0.520   1.722
  141SOL    HW1  434   0.248   0.480   1.652
  141SOL    HW2  435   0.131   0.591   1.681
  142SOL     OW  436   1.369   0.950   1.660
  142SOL    HW1  437   1.408   1.039   1.680
  142SOL    HW2  438   1.379   0.930   1.563
  143SOL     OW  439   0.815   0.572   0.325
  143SOL    HW1  440   0.822   0.483   0.279
  143SOL    HW2  441   0.721   0.606   0.317
  144SOL     OW  442   1.657   0.604   1.206
  144SOL    HW1  443   1.619   0.535   1.268
  144SOL    HW2  444   1.739   0.568   1.162
  145SOL     OW  445   0.252   1.564   1.744
  145SOL    HW1  446   0.222   1.621   1.820
  145SOL    HW2  447   0.245   1.467   1.770
  146SOL     OW  448   0.671   0.464   1.269
  146SOL    HW1  449   0.637   0.375   1.239
  146SOL    HW2  450   0.697   0.518   1.189
  147SOL     OW  451   0.930   1.678   1.465
  147SOL    HW1  452   0.906   1.660   1.370
  147SOL    HW2  453   0.960   1.772   1.475
  148SOL     OW  454   0.473   0.500   0.191
  148SOL    HW1  455   0.534   0.580   0.195
  148SOL    HW2  456   0.378   0.531   0.198
  149SOL     OW  457   0.159   1.137   1.466
  149SOL    HW1  458   0.181   1.076   1.542
  149SOL    HW2  459   0.169   1.088   1.380
  150SOL     OW  460   1.347   1.059   1.234
  150SOL    HW1  461   1.371   0.996   1.160
  150SOL    HW2  462   1.257   1.099   1.216
  151SOL     OW  463   1.302   0.855   0.309
  151SOL    HW1  464   1.216   0.824   0.351
  151SOL    HW2  465   1.298   0.841   0.210
  152SOL     OW  466   1.759   1.747   1.154
  152SOL    HW1  467   1.820   1.777   1.081
  152SOL    HW2  468   1.721   1.658   1.132
  153SOL     OW  469   1.252   1.731   1.128
  153SOL    HW1  470   1.336   1.736   1.074
  153SOL    HW2  471   1.229   1.635   1.146
  154SOL     OW  472   0.083   1.258   1.022
  154SOL    HW1  473   0.078   1.257   1.122
  154SOL    HW2  474   0.000   1.217   0.984
  155SOL     OW  475   0.688   1.662   1.716
  155SOL    HW1  476   0.632   1.743   1.725
  155SOL    HW2  477   0.740   1.666   1.630
  156SOL     OW  478   0.903   0.086   0.133
  156SOL    HW1  479   0.954   0.087   0.047
  156SOL    HW2  480   0.959   0.044   0.204
  157SOL     OW  481   1.726   0.135   0.523
  157SOL    HW1  482   1.799   0.118   0.456
  157SOL    HW2  483   1.695   0.048   0.561
  158SOL     OW  484   1.388   1.573   0.477
  158SOL    HW1  485   1.455   1.585   0.403
  158SOL    HW2  486   1.348   1.662   0.500
  159SOL     OW  487   0.130   1.794   1.851
  159SOL    HW1  488   0.089   1.720   1.904
  159SOL    HW2  489   0.194   1.845   1.909
  160SOL     OW  490   1.280   0.927   0.672
  160SOL    HW1  491   1.340   0.846   0.674
  160SOL    HW2  492   1.320   0.996   0.612
  161SOL     OW  493   0.830   1.273   1.422
  161SOL    HW1  494   0.825   1.306   1.517
  161SOL    HW2  495   0.744   1.292   1.376
  162SOL     OW  496   0.672   1.616   0.154
  162SOL    HW1  497   0.681   1.626   0.055
  162SOL    HW2  498   0.632   1.527   0.175
  163SOL     OW  499   1.650   1.720   1.394
  163SOL    HW1  500   1.703   1.730   1.310
  163SOL    HW2  501   1.623   1.810   1.428
  164SOL     OW  502   1.841   0.175   0.963
  164SOL    HW1  503   1.880   0.090   0.927
  164SOL    HW2  504   1.743   0.177   0.944
  165SOL     OW  505   0.263   0.326   0.720
  165SOL    HW1  506   0.184   0.377   0.686
  165SOL    HW2  507   0.254   0.311   0.818
  166SOL     OW  508   1.194   1.612   0.031
  166SOL    HW1  509   1.200   1.519   0.068
  166SOL    HW2  510   1.135   1.612  -0.049
  167SOL     OW  511   0.822   1.002   1.372
  167SOL    HW1  512   0.862   1.001   1.280
  167SOL    HW2  513   0.832   1.094   1.412
  168SOL     OW  514   0.916   0.910   0.291
  168SOL    HW1  515   0.979   0.948   0.223
  168SOL    HW2  516   0.956   0.827   0.330
  169SOL     OW  517   1.504   1.607   0.044
  169SOL    HW1  518   1.412   1.644   0.051
  169SOL    HW2  519   1.542   1.627  -0.046
  170SOL     OW  520   0.372   1.288   1.490
  170SOL    HW1  521   0.359   1.381   1.456
  170SOL    HW2  522   0.288   1.236   1.477
  171SOL     OW  523   1.614   1.292   1.289
  171SOL    HW1  524   1.674   1.295   1.369
  171SOL    HW2  525   1.539   1.356   1.302
  172SOL     OW  526   1.039   1.098   0.696
  172SOL    HW1  527   0.969   1.051   0.750
  172SOL    HW2  528   1.098   1.030   0.653
  173SOL     OW  529   1.014   0.236   0.971
  173SOL    HW1  530   1.006   0.200   0.878
  173SOL    HW2  531   1.012   0.160   1.036
  174SOL     OW  532   0.590   1.487   0.491
  174SOL    HW1  533   0.632   1.429   0.421
  174SOL    HW2  534   0.546   1.566   0.447
  175SOL     OW  535   1.709   0.385   1.381
  175SOL    HW1  536   1.782   0.454   1.385
  175SOL    HW2  537   1.737   0.310   1.322
  176SOL     OW  538   0.255   1.348   0.290
  176SOL    HW1  539   0.159   1.349   0.263
  176SOL    HW2  540   0.267   1.401   0.374
  177SOL     OW  541   0.105   1.013   1.726
  177SOL    HW1  542   0.028   0.980   1.780
  177SOL    HW2  543   0.190   0.983   1.768
  178SOL     OW  544   0.672   0.203   1.489
  178SOL    HW1  545   0.762   0.187   1.449
  178SOL    HW2  546   0.680   0.208   1.588
  179SOL     OW  547   0.075   0.345   0.033
  179SOL    HW1  548  -0.017   0.317   0.004
  179SOL    HW2  549   0.106   0.422  -0.023
  180SOL     OW  550   1.440   0.856   1.398
  180SOL    HW1  551   1.383   0.908   1.335
  180SOL    HW2  552   1.536   0.868   1.374
  181SOL     OW  553   0.072   0.166   0.318
  181SOL    HW1  554   0.055   0.249   0.264
  181SOL    HW2  555   0.162   0.129   0.296
  182SOL     OW  556   1.183   1.335   0.119
  182SOL    HW1  557   1.084   1.324   0.121
  182SOL    HW2  558   1.217   1.350   0.212
  183SOL     OW  559   0.613   0.842   1.431
  183SOL    HW1  560   0.669   0.923   1.414
  183SOL    HW2  561   0.672   0.762   1.434
  184SOL     OW  562   1.493   1.767   0.959
  184SOL    HW1  563   1.526   1.831   0.890
  184SOL    HW2  564   1.559   1.761   1.034
  185SOL     OW  565   0.716   0.565   1.708
  185SOL    HW1  566   0.735   0.630   1.782
  185SOL    HW2  567   0.776   0.485   1.717
  186SOL     OW  568   1.450   1.220   1.633
  186SOL    HW1  569   1.441   1.210   1.732
  186SOL    HW2  570   1.546   1.213   1.607
  187SOL     OW  571   0.390   1.741   1.560
  187SOL    HW1  572   0.299   1.782   1.558
  187SOL    HW2  573   0.383   1.647   1.592
  188SOL     OW  574   1.674   0.883   1.254
  188SOL    HW1  575   1.647   0.794   1.217
  188SOL    HW2  576   1.675   0.951   1.181
  189SOL     OW  577   1.225   0.325   0.449
  189SOL    HW1  578   1.290   0.251   0.438
  189SOL    HW2  579   1.245   0.375   0.533
  190SOL     OW  580   0.594   0.745   0.652
  190SOL    HW1  581   0.644   0.830   0.633
  190SOL    HW2  582   0.506   0.747   0.604
  191SOL     OW  583   1.777   0.342   1.642
  191SOL    HW1  584   1.760   0.373   1.548
  191SOL    HW2  585   1.693   0.305   1.680
  192SOL     OW  586   1.730   0.934   1.517
  192SOL    HW1  587   1.768   1.025   1.532
  192SOL    HW2  588   1.722   0.917   1.418
  193SOL     OW  589   0.859   1.374   0.016
  193SOL    HW1  590   0.813   1.389   0.104
  193SOL    HW2  591   0.903   1.459  -0.014
  194SOL     OW  592   0.661   1.790   0.953
  194SOL    HW1  593   0.615   1.878   0.940
  194SOL    HW2  594   0.760   1.802   0.946
  195SOL     OW  595   0.859   0.956   0.861
  195SOL    HW1  596   0.913   0.887   0.909
  195SOL    HW2  597   0.827   1.025   0.927
  196SOL     OW  598   1.083   0.984   0.087
  196SOL    HW1  599   1.060   1.037   0.005
  196SOL    HW2  600   1.164   0.928   0.068
  197SOL     OW  601   1.861   1.569   0.851
  197SOL    HW1  602   1.790   1.557   0.781
  197SOL    HW2  603   1.862   1.490   0.911
  198SOL     OW  604   0.221   1.314   1.844
  198SOL    HW1  605   0.156   1.241   1.823
  198SOL    HW2  606   0.225   1.328   1.942
  199SOL     OW  607   0.079   1.240   0.653
  199SOL    HW1  608   0.078   1.193   0.741
  199SOL    HW2  609   0.161   1.212   0.602
  200SOL     OW  610   0.672   1.391   1.624
  200SOL    HW1  611   0.594   1.341   1.662
  200SOL    HW2  612   0.669   1.486   1.655
  201SOL     OW  613   1.824   0.192   1.227
  201SOL    HW1  614   1.820   0.102   1.271
  201SOL    HW2  615   1.827   0.181   1.128
  202SOL     OW  616   0.428   0.424   0.520
  202SOL    HW1  617   0.458   0.352   0.458
  202SOL    HW2  618   0.389   0.384   0.603
  203SOL     OW  619   1.705   1.487   1.104
  203SOL    HW1  620   1.612   1.462   1.077
  203SOL    HW2  621   1.731   1.437   1.186
  204SOL     OW  622   0.317   0.547   1.280
  204SOL    HW1  623   0.355   0.488   1.352
  204SOL    HW2  624   0.357   0.521   1.192
  205SOL     OW  625   0.812   1.586   0.687
  205SOL    HW1  626   0.844   1.596   0.593
  205SOL    HW2  627   0.733   1.524   0.689
  206SOL     OW  628   1.424   0.214   1.112
  206SOL    HW1  629   1.476   0.149   1.167
  206SOL    HW2  630   1.375   0.277   1.173
  207SOL     OW  631   1.001   0.034   1.154
  207SOL    HW1  632   0.938  -0.038   1.123
  207SOL    HW2  633   1.094  -0.002   1.154
  208SOL     OW  634   0.770   1.330   0.301
  208SOL    HW1  635   0.724   1.243   0.318
  208SOL    HW2  636   0.861   1.327   0.342
  209SOL     OW  637   0.618   1.567   1.284
  209SOL    HW1  638   0.613   1.649   1.341
  209SOL    HW2  639   0.707   1.564   1.239
  210SOL     OW  640   1.352   0.052   0.168
  210SOL    HW1  641   1.387   0.011   0.084
  210SOL    HW2  642   1.262   0.014   0.188
  211SOL     OW  643   1.300   0.453   0.691
  211SOL    HW1  644   1.241   0.533   0.695
  211SOL    HW2  645   1.315   0.418   0.784
  212SOL     OW  646   1.593   0.221   0.882
  212SOL    HW1  647   1.509   0.220   0.936
  212SOL    HW2  648   1.595   0.304   0.826
  213SOL     OW  649   0.039   1.077   0.300
  213SOL    HW1  650   0.138   1.066   0.291
  213SOL    HW2  651  -0.001   0.991   0.332
  214SOL     OW  652   0.875   1.646   0.337
  214SOL    HW1  653   0.798   1.611   0.283
  214SOL    HW2  654   0.843   1.717   0.399
  215SOL     OW  655   0.230   0.628   1.975
  215SOL    HW1  656   0.137   0.626   2.012
  215SOL    HW2  657   0.231   0.589   1.883
  216SOL     OW  658   0.225   0.275   2.858
  216SOL    HW1  659   0.260   0.258   2.950
  216SOL    HW2  660   0.137   0.230   2.846
  217SOL     OW  661   0.019   0.368   2.509
  217SOL    HW1  662  -0.063   0.411   2.548
  217SOL    HW2  663  -0.009   0.295   2.446
  218SOL     OW  664   0.569   1.275   3.027
  218SOL    HW1  665   0.476   1.268   2.990
  218SOL    HW2  666   0.580   1.364   3.071
  219SOL     OW  667   1.555   1.511   2.565
  219SOL    HW1  668   1.498   1.495   2.646
  219SOL    HW2  669   1.496   1.521   2.485
  220SOL     OW  670   1.135   0.703   2.579
  220SOL    HW1  671   1.192   0.781   2.554
  220SOL    HW2  672   1.075   0.729   2.655
  221SOL     OW  673   1.755   0.607   2.093
  221SOL    HW1  674   1.743   0.594   1.994
  221SOL    HW2  675   1.725   0.526   2.142
  222SOL     OW  676   0.768   1.144   2.885
  222SOL    HW1  677   0.690   1.161   2.945
  222SOL    HW2  678   0.802   1.231   2.849
  223SOL     OW  679   0.850   0.798   3.685
  223SOL    HW1  680   0.846   0.874   3.750
  223SOL    HW2  681   0.872   0.834   3.594
  224SOL     OW  682   0.685   1.012   2.527
  224SOL    HW1  683   0.754   0.996   2.597
  224SOL    HW2  684   0.612   1.069   2.565
  225SOL     OW  685   0.686   1.161   3.665
  225SOL    HW1  686   0.746   1.240   3.679
  225SOL    HW2  687   0.600   1.192   3.624
  226SOL     OW  688   0.335   1.435   2.923
  226SOL    HW1  689   0.257   1.404   2.870
  226SOL    HW2  690   0.393   1.493   2.866
  227SOL     OW  691   1.460   1.505   3.201
  227SOL    HW1  692   1.484   1.599   3.227
  227SOL    HW2  693   1.444   1.451   3.283
  228SOL     OW  694   0.438   0.392   3.361
  228SOL    HW1  695   0.520   0.336   3.370
  228SOL    HW2  696   0.357   0.334   3.365
  229SOL     OW  697   1.603   0.447   2.599
  229SOL    HW1  698   1.529   0.493   2.549
  229SOL    HW2  699   1.654   0.515   2.652
  230SOL     OW  700   0.231   1.713   2.345
  230SOL    HW1  701   0.265   1.790   2.399
  230SOL    HW2  702   0.275   1.713   2.255
  231SOL     OW  703   1.127   1.341   3.552
  231SOL    HW1  704   1.174   1.341   3.640
  231SOL    HW2  705   1.079   1.254   3.541
  232SOL     OW  706   0.230   1.434   2.400
  232SOL    HW1  707   0.204   1.530   2.400
  232SOL    HW2  708   0.159   1.380   2.445
  233SOL     OW  709   0.240   1.091   2.748
  233SOL    HW1  710   0.254   1.007   2.800
  233SOL    HW2  711   0.185   1.155   2.803
  234SOL     OW  712   0.620   1.786   3.301
  234SOL    HW1  713   0.528   1.769   3.336
  234SOL    HW2  714   0.648   1.878   3.327
  235SOL     OW  715   0.606   0.964   1.985
  235SOL    HW1  716   0.613   1.048   1.931
  235SOL    HW2  717   0.652   0.977   2.073
  236SOL     OW  718   1.594   0.114   3.342
  236SOL    HW1  719   1.576   0.181   3.270
  236SOL    HW2  720   1.591   0.160   3.431
  237SOL     OW  721   0.122   0.643   2.425
  237SOL    HW1  722   0.077   0.555   2.442
  237SOL    HW2  723   0.121   0.697   2.509
  238SOL     OW  724   1.842   1.767   2.221
  238SOL    HW1  725   1.896   1.738   2.301
  238SOL    HW2  726   1.872   1.857   2.192
  239SOL     OW  727   0.027   1.596   1.979
  239SOL    HW1  728   0.008   1.500   2.000
  239SOL    HW2  729  -0.006   1.654   2.054
  240SOL     OW  730   1.689   0.922   2.474
  240SOL    HW1  731   1.784   0.893   2.482
  240SOL    HW2  732   1.681   0.987   2.399
  241SOL     OW  733   1.641   1.108   2.294
  241SOL    HW1  734   1.727   1.110   2.242
  241SOL    HW2  735   1.655   1.155   2.382
  242SOL     OW  736   0.113   0.737   3.459
  242SOL    HW1  737   0.201   0.724   3.504
  242SOL    HW2  738   0.100   0.834   3.437
  243SOL     OW  739   0.613   1.365   2.588
  243SOL    HW1  740   0.564   1.278   2.597
  243SOL    HW2  741   0.590   1.408   2.501
  244SOL     OW  742   1.293   1.228   3.285
  244SOL    HW1  743   1.330   1.155   3.227
  244SOL    HW2  744   1.345   1.233   3.370
  245SOL     OW  745   0.809   0.004   2.364
  245SOL    HW1  746   0.849   0.095   2.355
  245SOL    HW2  747   0.709   0.012   2.370
  246SOL     OW  748   0.197   0.976   3.126
  246SOL    HW1  749   0.286   0.931   3.112
  246SOL    HW2  750   0.124   0.911   3.107
  247SOL     OW  751   1.525   0.999   2.052
  247SOL    HW1  752   1.462   0.923   2.065
  247SOL    HW2  753   1.573   1.017   2.138
  248SOL     OW  754   1.187   1.792   3.478
  248SOL    HW1  755   1.211   1.852   3.402
  248SOL    HW2  756   1.194   1.697   3.448
  249SOL     OW  757   0.317   0.251   3.663
  249SOL    HW1  758   0.388   0.322   3.669
  249SOL    HW2  759   0.229   0.290   3.691
  250SOL     OW  760   1.466   1.417   2.815
  250SOL    HW1  761   1.407   1.423   2.895
  250SOL    HW2  762   1.451   1.329   2.769
  251SOL     OW  763   1.667   1.714   2.434
  251SOL    HW1  764   1.626   1.691   2.346
  251SOL    HW2  765   1.649   1.640   2.499
  252SOL     OW  766   0.598   0.729   2.132
  252SOL    HW1  767   0.622   0.798   2.064
  252SOL    HW2  768   0.520   0.762   2.186
  253SOL     OW  769   1.281   0.345   2.806
  253SOL    HW1  770   1.195   0.295   2.793
  253SOL    HW2  771   1.343   0.291   2.862
  254SOL     OW  772   1.576   1.662   2.169
  254SOL    HW1  773   1.665   1.708   2.172
  254SOL    HW2  774   1.555   1.638   2.074
  255SOL     OW  775   0.807   0.605   3.327
  255SOL    HW1  776   0.760   0.602   3.416
  255SOL    HW2  777   0.756   0.550   3.261
  256SOL     OW  778   1.394   0.469   3.536
  256SOL    HW1  779   1.374   0.512   3.624
  256SOL    HW2  780   1.472   0.407   3.545
  257SOL     OW  781   0.973   0.890   3.434
  257SOL    HW1  782   1.019   0.806   3.405
  257SOL    HW2  783   0.917   0.924   3.359
  258SOL     OW  784   0.991   0.410   3.104
  258SOL    HW1  785   0.914   0.444   3.158
  258SOL    HW2  786   0.957   0.359   3.025
  259SOL     OW  787   1.041   0.701   2.291
  259SOL    HW1  788   1.067   0.697   2.387
  259SOL    HW2  789   0.956   0.650   2.277
  260SOL     OW  790   0.076   0.811   2.651
  260SOL    HW1  791   0.175   0.799   2.660
  260SOL    HW2  792   0.052   0.906   2.672
  261SOL     OW  793   0.130   1.821   3.433
  261SOL    HW1  794   0.120   1.806   3.532
  261SOL    HW2  795   0.044   1.857   3.397
  262SOL     OW  796   0.865   0.348   2.057
  262SOL    HW1  797   0.924   0.411   2.008
  262SOL    HW2  798   0.884   0.254   2.028
  263SOL     OW  799   1.719   0.585   3.693
  263SOL    HW1  800   1.693   0.674   3.657
  263SOL    HW2  801   1.717   0.517   3.620
  264SOL     OW  802   1.362   1.144   2.407
  264SOL    HW1  803   1.445   1.115   2.359
  264SOL    HW2  804   1.313   1.211   2.351
  265SOL     OW  805   0.550   0.196   2.747
  265SOL    HW1  806   0.545   0.191   2.847
  265SOL    HW2  807   0.552   0.292   2.718
  266SOL     OW  808   1.008   1.456   2.339
  266SOL    HW1  809   0.962   1.528   2.287
  266SOL    HW2  810   1.004   1.476   2.437
  267SOL     OW  811   0.351   1.801   2.715
  267SOL    HW1  812   0.401   1.715   2.721
  267SOL    HW2  813   0.416   1.878   2.712
  268SOL     OW  814   1.795   1.066   2.735
  268SOL    HW1  815   1.733   1.051   2.659
  268SOL    HW2  816   1.743   1.077   2.820
  269SOL     OW  817   1.227   1.550   3.368
  269SOL    HW1  818   1.233   1.473   3.432
  269SOL    HW2  819   1.175   1.524   3.288
  270SOL     OW  820   0.321   0.943   2.104
  270SOL    HW1  821   0.403   0.982   2.062
  270SOL    HW2  822   0.294   0.861   2.055
  271SOL     OW  823   1.458   0.735   2.590
  271SOL    HW1  824   1.453   0.670   2.665
  271SOL    HW2  825   1.538   0.794   2.603
  272SOL     OW  826   0.461   1.266   3.589
  272SOL    HW1  827   0.411   1.267   3.503
  272SOL    HW2  828   0.398   1.248   3.665
  273SOL     OW  829   1.111   1.776   2.099
  273SOL    HW1  830   1.051   1.714   2.149
  273SOL    HW2  831   1.142   1.732   2.014
  274SOL     OW  832   0.202   0.285   3.360
  274SOL    HW1  833   0.122   0.345   3.347
  274SOL    HW2  834   0.192   0.236   3.446
  275SOL     OW  835   1.632   1.377   1.943
  275SOL    HW1  836   1.600   1.471   1.933
  275SOL    HW2  837   1.556   1.314   1.931
  276SOL     OW  838   0.464   1.743   2.185
  276SOL    HW1  839   0.497   1.782   2.271
  276SOL    HW2  840   0.540   1.736   2.120
  277SOL     OW  841   1.400   0.107   2.288
  277SOL    HW1  842   1.376   0.070   2.198
  277SOL    HW2  843   1.499   0.123   2.292
  278SOL     OW  844   0.249   1.785   3.103
  278SOL    HW1  845   0.306   1.720   3.153
  278SOL    HW2  846   0.233   1.752   3.010
  279SOL     OW  847   0.940   1.698   2.766
  279SOL    HW1  848   1.020   1.641   2.787
  279SOL    HW2  849   0.891   1.658   2.689
  280SOL     OW  850   0.382   0.700   2.342
  280SOL    HW1  851   0.427   0.610   2.339
  280SOL    HW2  852   0.288   0.689   2.375
  281SOL     OW  853   1.547   0.222   3.591
  281SOL    HW1  854   1.542   0.259   3.683
  281SOL    HW2  855   1.475   0.153   3.579
  282SOL     OW  856   0.614   0.122   1.979
  282SOL    HW1  857   0.712   0.100   1.986
  282SOL    HW2  858   0.583   0.105   1.886
  283SOL     OW  859   0.781   0.264   3.611
  283SOL    HW1  860   0.848   0.203   3.654
  283SOL    HW2  861   0.708   0.283   3.676
  284SOL     OW  862   0.888   1.514   3.057
  284SOL    HW1  863   0.865   1.489   2.963
  284SOL    HW2  864   0.949   1.445   3.096
  285SOL     OW  865   1.351   0.590   3.295
  285SOL    HW1  866   1.379   0.547   3.380
  285SOL    HW2  867   1.376   0.686   3.296
  286SOL     OW  868   0.803   1.402   2.786
  286SOL    HW1  869   0.893   1.416   2.744
  286SOL    HW2  870   0.732   1.404   2.715
  287SOL     OW  871   0.922   0.503   2.761
  287SOL    HW1  872   0.897   0.494   2.665
  287SOL    HW2  873   0.970   0.421   2.792
  288SOL     OW  874   0.539   0.064   2.374
  288SOL    HW1  875   0.458   0.065   2.432
  288SOL    HW2  876   0.542   0.147   2.319
  289SOL     OW  877   1.434   1.188   1.903
  289SOL    HW1  878   1.466   1.112   1.960
  289SOL    HW2  879   1.342   1.215   1.933
  290SOL     OW  880   0.297   0.035   2.033
  290SOL    HW1  881   0.346   0.119   2.012
  290SOL    HW2  882   0.359  -0.030   2.078
  291SOL     OW  883   0.935   0.236   2.342
  291SOL    HW1  884   0.887   0.277   2.264
  291SOL    HW2  885   1.034   0.234   2.323
  292SOL     OW  886   1.076   0.683   3.326
  292SOL    HW1  887   0.996   0.622   3.329
  292SOL    HW2  888   1.157   0.630   3.302
  293SOL     OW  889   1.227   1.570   2.655
  293SOL    HW1  890   1.248   1.644   2.590
  293SOL    HW2  891   1.295   1.570   2.728
  294SOL     OW  892   0.459   1.152   2.603
  294SOL    HW1  893   0.388   1.125   2.668
  294SOL    HW2  894   0.433   1.124   2.510
  295SOL     OW  895   1.271   1.797   2.453
  295SOL    HW1  896   1.315   1.861   2.389
  295SOL    HW2  897   1.221   1.849   2.523
  296SOL     OW  898   1.032   0.549   1.878
  296SOL    HW1  899   0.991   0.631   1.839
  296SOL    HW2  900   1.096   0.575   1.951
  297SOL     OW  901   0.078   0.556   3.248
  297SOL    HW1  902   0.170   0.555   3.207
  297SOL    HW2  903   0.072   0.630   3.315
  298SOL     OW  904   0.561   0.222   3.009
  298SOL    HW1  905   0.599   0.138   3.046
  298SOL    HW2  906   0.473   0.241   3.053
  299SOL     OW  907   0.866   0.454   2.504
  299SOL    HW1  908   0.834   0.526   2.442
  299SOL    HW2  909   0.890   0.373   2.451
  300SOL     OW  910   1.017   0.039   2.615
  300SOL    HW1  911   0.945   0.044   2.546
  300SOL    HW2  912   0.993  -0.030   2.684
  301SOL     OW  913   1.429   1.173   2.729
  301SOL    HW1  914   1.374   1.089   2.722
  301SOL    HW2  915   1.455   1.202   2.637
  302SOL     OW  916   1.466   0.590   2.854
  302SOL    HW1  917   1.436   0.495   2.861
  302SOL    HW2  918   1.539   0.606   2.920
  303SOL     OW  919   1.857   0.833   2.239
  303SOL    HW1  920   1.899   0.769   2.303
  303SOL    HW2  921   1.819   0.782   2.161
  304SOL     OW  922   0.488   1.385   2.036
  304SOL    HW1  923   0.401   1.370   2.083
  304SOL    HW2  924   0.471   1.411   1.941
  305SOL     OW  925   1.664   1.280   2.519
  305SOL    HW1  926   1.763   1.288   2.533
  305SOL    HW2  927   1.619   1.364   2.550
  306SOL     OW  928   1.390   0.575   1.940
  306SOL    HW1  929   1.336   0.554   2.021
  306SOL    HW2  930   1.481   0.534   1.949
  307SOL     OW  931   0.527   0.256   2.190
  307SOL    HW1  932   0.554   0.197   2.115
  307SOL    HW2  933   0.527   0.351   2.159
  308SOL     OW  934   1.754   1.223   3.450
  308SOL    HW1  935   1.845   1.184   3.437
  308SOL    HW2  936   1.762   1.319   3.474
  309SOL     OW  937   1.064   1.347   3.202
  309SOL    HW1  938   0.984   1.324   3.257
  309SOL    HW2  939   1.147   1.321   3.251
  310SOL     OW  940   1.592   1.629   3.487
  310SOL    HW1  941   1.619   1.663   3.397
  310SOL    HW2  942   1.671   1.591   3.533
  311SOL     OW  943   1.111   1.195   2.962
  311SOL    HW1  944   1.071   1.239   3.043
  311SOL    HW2  945   1.070   1.232   2.879
  312SOL     OW  946   1.638   1.099   2.941
  312SOL    HW1  947   1.643   1.180   3.000
  312SOL    HW2  948   1.552   1.101   2.890
  313SOL     OW  949   0.915   0.089   3.264
  313SOL    HW1  950   0.940   0.069   3.169
  313SOL    HW2  951   0.987   0.145   3.306
  314SOL     OW  952   0.980   1.116   3.581
  314SOL    HW1  953   0.881   1.122   3.591
  314SOL    HW2  954   1.003   1.036   3.525
  315SOL     OW  955   0.705   1.050   2.230
  315SOL    HW1  956   0.691   1.057   2.329
  315SOL    HW2  957   0.789   0.999   2.212
  316SOL     OW  958   0.410   0.813   3.113
  316SOL    HW1  959   0.496   0.825   3.163
  316SOL    HW2  960   0.368   0.726   3.140
  317SOL     OW  961   1.274   0.386   3.124
  317SOL    HW1  962   1.295   0.460   3.188
  317SOL    HW2  963   1.185   0.403   3.081
  318SOL     OW  964   0.064   1.564   3.193
  318SOL    HW1  965   0.018   1.646   3.159
  318SOL    HW2  966   0.162   1.583   3.202
  319SOL     OW  967   0.367   1.100   2.363
  319SOL    HW1  968   0.360   1.183   2.307
  319SOL    HW2  969   0.371   1.020   2.303
  320SOL     OW  970   0.566   0.537   2.727
  320SOL    HW1  971   0.578   0.603   2.653
  320SOL    HW2  972   0.612   0.571   2.810
  321SOL     OW  973   1.252   1.348   2.250
  321SOL    HW1  974   1.302   1.425   2.290
  321SOL    HW2  975   1.157   1.350   2.282
  322SOL     OW  976   1.272   1.445   3.004
  322SOL    HW1  977   1.319   1.458   3.091
  322SOL    HW2  978   1.206   1.371   3.013
  323SOL     OW  979   1.582   0.639   2.334
  323SOL    HW1  980   1.551   0.700   2.407
  323SOL    HW2  981   1.632   0.691   2.265
  324SOL     OW  982   0.354   1.510   3.191
  324SOL    HW1  983   0.333   1.466   3.104
  324SOL    HW2  984   0.451   1.536   3.194
  325SOL     OW  985   0.402   0.751   3.460
  325SOL    HW1  986   0.470   0.806   3.413
  325SOL    HW2  987   0.442   0.663   3.487
  326SOL     OW  988   1.587   0.779   3.532
  326SOL    HW1  989   1.495   0.817   3.527
  326SOL    HW2  990   1.647   0.826   3.467
  327SOL     OW  991   1.013   0.105   3.632
  327SOL    HW1  992   1.019   0.190   3.580
  327SOL    HW2  993   1.045   0.029   3.575
  328SOL     OW  994   0.504   0.050   3.602
  328SOL    HW1  995   0.462  -0.007   3.532
  328SOL    HW2  996   0.438   0.119   3.634
  329SOL     OW  997   0.573   0.870   2.891
  329SOL    HW1  998   0.617   0.959   2.882
  329SOL    HW2  999   0.510   0.870   2.968
  330SOL     OW 1000   1.360   0.862   2.907
  330SOL    HW1 1001   1.285   0.862   2.841
  330SOL    HW2 1002   1.397   0.770   2.916
  331SOL     OW 1003   1.209   0.525   2.137
  331SOL    HW1 1004   1.222   0.441   2.191
  331SOL    HW2 1005   1.180   0.599   2.197
  332SOL     OW 1006   0.307   0.213   3.093
  332SOL    HW1 1007   0.284   0.250   3.183
  332SOL    HW2 1008   0.277   0.118   3.087
  333SOL     OW 1009   0.037   1.310   3.144
  333SOL    HW1 1010   0.090   1.261   3.212
  333SOL    HW2 1011   0.059   1.408   3.149
  334SOL     OW 1012   0.732   0.634   2.926
  334SOL    HW1 1013   0.791   0.608   2.850
  334SOL    HW2 1014   0.704   0.730   2.915
  335SOL     OW 1015   1.728   0.935   3.716
  335SOL    HW1 1016   1.682   0.928   3.627
  335SOL    HW2 1017   1.666   0.979   3.782
  336SOL     OW 1018   0.307   0.063   2.480
  336SOL    HW1 1019   0.296   0.157   2.513
  336SOL    HW2 1020   0.302   0.000   2.557
  337SOL     OW 1021   1.622   0.367   2.236
  337SOL    HW1 1022   1.624   0.291   2.300
  337SOL    HW2 1023   1.574   0.444   2.276
  338SOL     OW 1024   1.023   0.766   2.828
  338SOL    HW1 1025   1.038   0.787   2.924
  338SOL    HW2 1026   0.993   0.671   2.819
  339SOL     OW 1027   0.980   1.573   3.562
  339SOL    HW1 1028   0.960   1.617   3.474
  339SOL    HW2 1029   1.019   1.482   3.546
  340SOL     OW 1030   1.859   1.518   3.467
  340SOL    HW1 1031   1.873   1.545   3.372
  340SOL    HW2 1032   1.942   1.540   3.520
  341SOL     OW 1033   0.350   0.898   3.666
  341SOL    HW1 1034   0.426   0.942   3.714
  341SOL    HW2 1035   0.385   0.851   3.584
  342SOL     OW 1036   1.540   0.274   1.987
  342SOL    HW1 1037   1.479   0.199   2.010
  342SOL    HW2 1038   1.562   0.326   2.070
  343SOL     OW 1039   1.303   0.838   1.904
  343SOL    HW1 1040   1.337   0.745   1.919
  343SOL    HW2 1041   1.321   0.865   1.809
  344SOL     OW 1042   1.068   1.333   2.711
  344SOL    HW1 1043   1.075   1.249   2.656
  344SOL    HW2 1044   1.130   1.402   2.675
  345SOL     OW 1045   0.319   0.810   2.811
  345SOL    HW1 1046   0.412   0.846   2.816
  345SOL    HW2 1047   0.313   0.725   2.863
  346SOL     OW 1048   0.339   0.509   2.868
  346SOL    HW1 1049   0.287   0.426   2.851
  346SOL    HW2 1050   0.416   0.514   2.804
  347SOL     OW 1051   1.138   0.380   3.540
  347SOL    HW1 1052   1.093   0.443   3.604
  347SOL    HW2 1053   1.231   0.411   3.523
  348SOL     OW 1054   1.160   0.207   3.339
  348SOL    HW1 1055   1.160   0.271   3.416
  348SOL    HW2 1056   1.188   0.255   3.256
  349SOL     OW 1057   0.008   1.326   2.062
  349SOL    HW1 1058  -0.085   1.347   2.031
  349SOL    HW2 1059   0.018   1.227   2.075
  350SOL     OW 1060   0.088   1.801   2.789
  350SOL    HW1 1061   0.046   1.715   2.762
  350SOL    HW2 1062   0.182   1.804   2.755
  351SOL     OW 1063   0.504   1.568   2.772
  351SOL    HW1 1064   0.570   1.642   2.781
  351SOL    HW2 1065   0.548   1.489   2.730
  352SOL     OW 1066   1.002   0.796   3.100
  352SOL    HW1 1067   1.043   0.764   3.186
  352SOL    HW2 1068   0.906   0.769   3.097
  353SOL     OW 1069   0.040   0.544   2.976
  353SOL    HW1 1070   0.125   0.511   2.935
  353SOL    HW2 1071   0.053   0.559   3.074
  354SOL     OW 1072   0.189   0.520   3.584
  354SOL    HW1 1073   0.248   0.480   3.514
  354SOL    HW2 1074   0.131   0.591   3.543
  355SOL     OW 1075   1.369   0.950   3.522
  355SOL    HW1 1076   1.408   1.039   3.542
  355SOL    HW2 1077   1.379   0.930   3.425
  356SOL     OW 1078   0.815   0.572   2.187
  356SOL    HW1 1079   0.822   0.483   2.141
  356SOL    HW2 1080   0.721   0.606   2.179
  357SOL     OW 1081   1.657   0.604   3.068
  357SOL    HW1 1082   1.619   0.535   3.130
  357SOL    HW2 1083   1.739   0.568   3.024
  358SOL     OW 1084   0.252   1.564   3.606
  358SOL    HW1 1085   0.222   1.621   3.682
  358SOL    HW2 1086   0.245   1.467   3.632
  359SOL     OW 1087   0.671   0.464   3.131
  359SOL    HW1 1088   0.637   0.375   3.101
  359SOL    HW2 1089   0.697   0.518   3.051
  360SOL     OW 1090   0.930   1.678   3.327
  360SOL    HW1 1091   0.906   1.660   3.232
  360SOL    HW2 1092   0.960   1.772   3.337
  361SOL     OW 1093   0.473   0.500   2.053
  361SOL    HW1 1094   0.534   0.580   2.057
  361SOL    HW2 1095   0.378   0.531   2.060
  362SOL     OW 1096   0.159   1.137   3.328
  362SOL    HW1 1097   0.181   1.076   3.404
  362SOL    HW2 1098   0.169   1.088   3.242
  363SOL     OW 1099   1.347   1.059   3.096
  363SOL    HW1 1100   1.371   0.996   3.022
  363SOL    HW2 1101   1.257   1.099   3.078
  364SOL     OW 1102   1.302   0.855   2.171
  364SOL    HW1 1103   1.216   0.824   2.213
  364SOL    HW2 1104   1.298   0.841   2.072
  365SOL     OW 1105   1.759   1.747   3.016
  365SOL    HW1 1106   1.820   1.777   2.943
  365SOL    HW2 1107   1.721   1.658   2.994
  366SOL     OW 1108   1.252   1.731   2.990
  366SOL    HW1 1109   1.336   1.736   2.936
  366SOL    HW2 1110   1.229   1.635   3.008
  367SOL     OW 1111   0.083   1.258   2.884
  367SOL    HW1 1112   0.078   1.257   2.984
  367SOL    HW2 1113   0.000   1.217   2.846
  368SOL     OW 1114   0.688   1.662   3.578
  368SOL    HW1 1115   0.632   1.743   3.587
  368SOL    HW2 1116   0.740   1.666   3.492
  369SOL     OW 1117   1.726   0.135   2.385
  369SOL    HW1 1118   1.799   0.118   2.318
  369SOL    HW2 1119   1.695   0.048   2.423
  370SOL     OW 1120   1.388   1.573   2.339
  370SOL    HW1 1121   1.455   1.585   2.265
  370SOL    HW2 1122   1.348   1.662   2.362
  371SOL     OW 1123   0.130   1.794   3.713
  371SOL    HW1 1124   0.089   1.720   3.766
  371SOL    HW2 1125   0.194   1.845   3.771
  372SOL     OW 1126   1.280   0.927   2.534
  372SOL    HW1 1127   1.340   0.846   2.536
  372SOL    HW2 1128   1.320   0.996   2.474
  373SOL     OW 1129   0.830   1.273   3.284
  373SOL    HW1 1130   0.825   1.306   3.379
  373SOL    HW2 1131   0.744   1.292   3.238
  374SOL     OW 1132   0.672   1.616   2.016
  374SOL    HW1 1133   0.681   1.626   1.917
  374SOL    HW2 1134   0.632   1.527   2.037
  375SOL     OW 1135   1.650   1.720   3.256
  375SOL    HW1 1136   1.703   1.730   3.172
  375SOL    HW2 1137   1.623   1.810   3.290
  376SOL     OW 1138   1.841   0.175   2.825
  376SOL    HW1 1139   1.880   0.090   2.789
  376SOL    HW2 1140   1.743   0.177   2.806
  377SOL     OW 1141   0.263   0.326   2.582
  377SOL    HW1 1142   0.184   0.377   2.548
  377SOL    HW2 1143   0.254   0.311   2.680
  378SOL     OW 1144   1.194   1.612   1.893
  378SOL    HW1 1145   1.200   1.519   1.930
  378SOL    HW2 1146   1.135   1.612   1.813
  379SOL     OW 1147   0.822   1.002   3.234
  379SOL    HW1 1148   0.862   1.001   3.142
  379SOL    HW2 1149   0.832   1.094   3.274
  380SOL     OW 1150   0.916   0.910   2.153
  380SOL    HW1 1151   0.979   0.948   2.085
  380SOL    HW2 1152   0.956   0.827   2.192
  381SOL     OW 1153   1.504   1.607   1.906
  381SOL    HW1 1154   1.412   1.644   1.913
  381SOL    HW2 1155   1.542   1.627   1.816
  382SOL     OW 1156   0.372   1.288   3.352
  382SOL    HW1 1157   0.359   1.381   3.318
  382SOL    HW2 1158   0.288   1.236   3.339
  383SOL     OW 1159   1.614   1.292   3.151
  383SOL    HW1 1160   1.674   1.295   3.231
  383SOL    HW2 1161   1.539   1.356   3.164
  384SOL     OW 1162   1.039   1.098   2.558
  384SOL    HW1 1163   0.969   1.051   2.612
  384SOL    HW2 1164   1.098   1.030   2.515
  385SOL     OW 1165   1.014   0.236   2.833
  385SOL    HW1 1166   1.006   0.200   2.740
  385SOL    HW2 1167   1.012   0.160   2.898
  386SOL     OW 1168   0.590   1.487   2.353
  386SOL    HW1 1169   0.632   1.429   2.283
  386SOL    HW2 1170   0.546   1.566   2.309
  387SOL     OW 1171   1.709   0.385   3.243
  387SOL    HW1 1172   1.782   0.454   3.247
  387SOL    HW2 1173   1.737   0.310   3.184
  388SOL     OW 1174   0.255   1.348   2.152
  388SOL    HW1 1175   0.159   1.349   2.125
  388SOL    HW2 1176   0.267   1.401   2.236
  389SOL     OW 1177   0.105   1.013   3.588
  389SOL    HW1 1178   0.028   0.980   3.642
  389SOL    HW2 1179   0.190   0.983   3.630
  390SOL     OW 1180   0.672   0.203   3.351
  390SOL    HW1 1181   0.762   0.187   3.311
  390SOL    HW2 1182   0.680   0.208   3.450
  391SOL     OW 1183   0.075   0.345   1.895
  391SOL    HW1 1184  -0.017   0.317   1.866
  391SOL    HW2 1185   0.106   0.422   1.839
  392SOL     OW 1186   1.440   0.856   3.260
  392SOL    HW1 1187   1.383   0.908   3.197
  392SOL    HW2 1188   1.536   0.868   3.236
  393SOL     OW 1189   0.072   0.166   2.180
  393SOL    HW1 1190   0.055   0.249   2.126
  393SOL    HW2 1191   0.162   0.129   2.158
  394SOL     OW 1192   1.183   1.335   1.981
  394SOL    HW1 1193   1.084   1.324   1.983
  394SOL    HW2 1194   1.217   1.350   2.074
  395SOL     OW 1195   0.613   0.842   3.293
  395SOL    HW1 1196   0.669   0.923   3.276
  395SOL    HW2 1197   0.672   0.762   3.296
  396SOL     OW 1198   1.493   1.767   2.821
  396SOL    HW1 1199   1.526   1.831   2.752
  396SOL    HW2 1200   1.559   1.761   2.896
  397SOL     OW 1201   0.716   0.565   3.570
  397SOL    HW1 1202   0.735   0.630   3.644
  397SOL    HW2 1203   0.776   0.485   3.579
  398SOL     OW 1204   1.450   1.220   3.495
  398SOL    HW1 1205   1.441   1.210   3.594
  398SOL    HW2 1206   1.546   1.213   3.469
  399SOL     OW 1207   0.390   1.741   3.422
  399SOL    HW1 1208   0.299   1.782   3.420
  399SOL    HW2 1209   0.383   1.647   3.454
  400SOL     OW 1210   1.674   0.883   3.116
  400SOL    HW1 1211   1.647   0.794   3.079
  400SOL    HW2 1212   1.675   0.951   3.043
  401SOL     OW 1213   1.225   0.325   2.311
  401SOL    HW1 1214   1.290   0.251   2.300
  401SOL    HW2 1215   1.245   0.375   2.395
  402SOL     OW 1216   0.594   0.745   2.514
  402SOL    HW1 1217   0.644   0.830   2.495
  402SOL    HW2 1218   0.506   0.747   2.466
  403SOL     OW 1219   1.777   0.342   3.504
  403SOL    HW1 1220   1.760   0.373   3.410
  403SOL    HW2 1221   1.693   0.305   3.542
  404SOL     OW 1222   1.730   0.934   3.379
  404SOL    HW1 1223   1.768   1.025   3.394
  404SOL    HW2 1224   1.722   0.917   3.280
  405SOL     OW 1225   0.859   1.374   1.878
  405SOL    HW1 1226   0.813   1.389   1.966
  405SOL    HW2 1227   0.903   1.459   1.848
  406SOL     OW 1228   0.661   1.790   2.815
  406SOL    HW1 1229   0.615   1.878   2.802
  406SOL    HW2 1230   0.760   1.802   2.808
  407SOL     OW 1231   0.859   0.956   2.723
  407SOL    HW1 1232   0.913   0.887   2.771
  407SOL    HW2 1233   0.827   1.025   2.789
  408SOL     OW 1234   1.083   0.984   1.949
  408SOL    HW1 1235   1.060   1.037   1.867
  408SOL    HW2 1236   1.164   0.928   1.930
  409SOL     OW 1237   1.861   1.569   2.713
  409SOL    HW1 1238   1.790   1.557   2.643
  409SOL    HW2 1239   1.862   1.490   2.773
  410SOL     OW 1240   0.221   1.314   3.706
  410SOL    HW1 1241   0.156   1.241   3.685
  410SOL    HW2 1242   0.225   1.328   3.804
  411SOL     OW 1243   0.079   1.240   2.515
  411SOL    HW1 1244   0.078   1.193   2.603
  411SOL    HW2 1245   0.161   1.212   2.464
  412SOL     OW 1246   0.672   1.391   3.486
  412SOL    HW1 1247   0.594   1.341   3.524
  412SOL    HW2 1248   0.669   1.486   3.517
  413SOL     OW 1249   1.824   0.192   3.089
  413SOL    HW1 1250   1.820   0.102   3.133
  413SOL    HW2 1251   1.827   0.181   2.990
  414SOL     OW 1252   0.428   0.424   2.382
  414SOL    HW1 1253   0.458   0.352   2.320
  414SOL    HW2 1254   0.389   0.384   2.465
  415SOL     OW 1255   1.705   1.487   2.966
  415SOL    HW1 1256   1.612   1.462   2.939
  415SOL    HW2 1257   1.731   1.437   3.048
  416SOL     OW 1258   0.317   0.547   3.142
  416SOL    HW1 1259   0.355   0.488   3.214
  416SOL    HW2 1260   0.357   0.521   3.054
  417SOL     OW 1261   0.812   1.586   2.549
  417SOL    HW1 1262   0.844   1.596   2.455
  417SOL    HW2 1263   0.733   1.524   2.551
  418SOL     OW 1264   1.424   0.214   2.974
  418SOL    HW1 1265   1.476   0.149   3.029
  418SOL    HW2 1266   1.375   0.277   3.035
  419SOL     OW 1267   1.001   0.034   3.016
  419SOL    HW1 1268   0.938  -0.038   2.985
  419SOL    HW2 1269   1.094  -0.002   3.016
  420SOL     OW 1270   0.770   1.330   2.163
  420SOL    HW1 1271   0.724   1.243   2.180
  420SOL    HW2 1272   0.861   1.327   2.204
  421SOL     OW 1273   0.618   1.567   3.146
  421SOL    HW1 1274   0.613   1.649   3.203
  421SOL    HW2 1275   0.707   1.564   3.101
  422SOL     OW 1276   1.352   0.052   2.030
  422SOL    HW1 1277   1.387   0.011   1.946
  422SOL    HW2 1278   1.262   0.014   2.050
  423SOL     OW 1279   1.300   0.453   2.553
  423SOL    HW1 1280   1.241   0.533   2.557
  423SOL    HW2 1281   1.315   0.418   2.646
  424SOL     OW 1282   1.593   0.221   2.744
  424SOL    HW1 1283   1.509   0.220   2.798
  424SOL    HW2 1284   1.595   0.304   2.688
  425SOL     OW 1285   0.039   1.077   2.162
  425SOL    HW1 1286   0.138   1.066   2.153
  425SOL    HW2 1287  -0.001   0.991   2.194
  426SOL     OW 1288   0.875   1.646   2.199
  426SOL    HW1 1289   0.798   1.611   2.145
  426SOL    HW2 1290   0.843   1.717   2.261
  427SOL     OW 1291   0.230   0.628   3.837
  427SOL    HW1 1292   0.137   0.626   3.874
  427SOL    HW2 1293   0.231   0.589   3.745
  428SOL     OW 1294   1.755   0.607   3.955
  428SOL    HW1 1295   1.743   0.594   3.856
  428SOL    HW2 1296   1.725   0.526   4.004
  429SOL     OW 1297   0.231   1.713   4.207
  429SOL    HW1 1298   0.265   1.790   4.261
  429SOL    HW2 1299   0.275   1.713   4.117
  430SOL     OW 1300   0.230   1.434   4.262
  430SOL    HW1 1301   0.204   1.530   4.262
  430SOL    HW2 1302   0.159   1.380   4.307
  431SOL     OW 1303   0.606   0.964   3.847
  431SOL    HW1 1304   0.613   1.048   3.793
  431SOL    HW2 1305   0.652   0.977   3.935
  432SOL     OW 1306   0.122   0.643   4.287
  432SOL    HW1 1307   0.077   0.555   4.304
  432SOL    HW2 1308   0.121   0.697   4.371
  433SOL     OW 1309   1.842   1.767   4.083
  433SOL    HW1 1310   1.896   1.738   4.163
  433SOL    HW2 1311   1.872   1.857   4.054
  434SOL     OW 1312   0.027   1.596   3.841
  434SOL    HW1 1313   0.008   1.500   3.862
  434SOL    HW2 1314  -0.006   1.654   3.916
  435SOL     OW 1315   1.689   0.922   4.336
  435SOL    HW1 1316   1.784   0.893   4.344
  435SOL    HW2 1317   1.681   0.987   4.261
  436SOL     OW 1318   1.641   1.108   4.156
  436SOL    HW1 1319   1.727   1.110   4.104
  436SOL    HW2 1320   1.655   1.155   4.244
  437SOL     OW 1321   0.613   1.365   4.450
  437SOL    HW1 1322   0.564   1.278   4.459
  437SOL    HW2 1323   0.590   1.408   4.363
  438SOL     OW 1324   0.809   0.004   4.226
  438SOL    HW1 1325   0.849   0.095   4.217
  438SOL    HW2 1326   0.709   0.012   4.232
  439SOL     OW 1327   1.525   0.999   3.914
  439SOL    HW1 1328   1.462   0.923   3.927
  439SOL    HW2 1329   1.573   1.017   4.000
  440SOL     OW 1330   1.466   1.417   4.677
  440SOL    HW1 1331   1.407   1.423   4.757
  440SOL    HW2 1332   1.451   1.329   4.631
  441SOL     OW 1333   0.598   0.729   3.994
  441SOL    HW1 1334   0.622   0.798   3.926
  441SOL    HW2 1335   0.520   0.762   4.048
  442SOL     OW 1336   1.281   0.345   4.668
  442SOL    HW1 1337   1.195   0.295   4.655
  442SOL    HW2 1338   1.343   0.291   4.724
  443SOL     OW 1339   1.576   1.662   4.031
  443SOL    HW1 1340   1.665   1.708   4.034
  443SOL    HW2 1341   1.555   1.638   3.936
  444SOL     OW 1342   1.041   0.701   4.153
  444SOL    HW1 1343   1.067   0.697   4.249
  444SOL    HW2 1344   0.956   0.650   4.139
  445SOL     OW 1345   0.076   0.811   4.513
  445SOL    HW1 1346   0.175   0.799   4.522
  445SOL    HW2 1347   0.052   0.906   4.534
  446SOL     OW 1348   0.865   0.348   3.919
  446SOL    HW1 1349   0.924   0.411   3.870
  446SOL    HW2 1350   0.884   0.254   3.890
  447SOL     OW 1351   1.362   1.144   4.269
  447SOL    HW1 1352   1.445   1.115   4.221
  447SOL    HW2 1353   1.313   1.211   4.213
  448SOL     OW 1354   1.008   1.456   4.201
  448SOL    HW1 1355   0.962   1.528   4.149
  448SOL    HW2 1356   1.004   1.476   4.299
  449SOL     OW 1357   0.351   1.801   4.577
  449SOL    HW1 1358   0.401   1.715   4.583
  449SOL    HW2 1359   0.416   1.878   4.574
  450SOL     OW 1360   1.795   1.066   4.597
  450SOL    HW1 1361   1.733   1.051   4.521
  450SOL    HW2 1362   1.743   1.077   4.682
  451SOL     OW 1363   0.321   0.943   3.966
  451SOL    HW1 1364   0.403   0.982   3.924
  451SOL    HW2 1365   0.294   0.861   3.917
  452SOL     OW 1366   1.111   1.776   3.961
  452SOL    HW1 1367   1.051   1.714   4.011
  452SOL    HW2 1368   1.142   1.732   3.876
  453SOL     OW 1369   1.632   1.377   3.805
  453SOL    HW1 1370   1.600   1.471   3.795
  453SOL    HW2 1371   1.556   1.314   3.793
  454SOL     OW 1372   0.464   1.743   4.047
  454SOL    HW1 1373   0.497   1.782   4.133
  454SOL    HW2 1374   0.540   1.736   3.982
  455SOL     OW 1375   1.400   0.107   4.150
  455SOL    HW1 1376   1.376   0.070   4.060
  455SOL    HW2 1377   1.499   0.123   4.154
  456SOL     OW 1378   0.382   0.700   4.204
  456SOL    HW1 1379   0.427   0.610   4.201
  456SOL    HW2 1380   0.288   0.689   4.237
  457SOL     OW 1381   0.614   0.122   3.841
  457SOL    HW1 1382   0.712   0.100   3.848
  457SOL    HW2 1383   0.583   0.105   3.748
  458SOL     OW 1384   0.539   0.064   4.236
  458SOL    HW1 1385   0.458   0.065   4.294
  458SOL    HW2 1386   0.542   0.147   4.181
  459SOL     OW 1387   1.434   1.188   3.765
  459SOL    HW1 1388   1.466   1.112   3.822
  459SOL    HW2 1389   1.342   1.215   3.795
  460SOL     OW 1390   0.297   0.035   3.895
  460SOL    HW1 1391   0.346   0.119   3.874
  460SOL    HW2 1392   0.359  -0.030   3.940
  461SOL     OW 1393   0.935   0.236   4.204
  461SOL    HW1 1394   0.887   0.277   4.126
  461SOL    HW2 1395   1.034   0.234   4.185
  462SOL     OW 1396   0.459   1.152   4.465
  462SOL    HW1 1397   0.388   1.125   4.530
  462SOL    HW2 1398   0.433   1.124   4.372
  463SOL     OW 1399   1.271   1.797   4.315
  463SOL    HW1 1400   1.315   1.861   4.251
  463SOL    HW2 1401   1.221   1.849   4.385
  464SOL     OW 1402   1.032   0.549   3.740
  464SOL    HW1 1403   0.991   0.631   3.701
  464SOL    HW2 1404   1.096   0.575   3.813
  465SOL     OW 1405   0.866   0.454   4.366
  465SOL    HW1 1406   0.834   0.526   4.304
  465SOL    HW2 1407   0.890   0.373   4.313
  466SOL     OW 1408   1.857   0.833   4.101
  466SOL    HW1 1409   1.899   0.769   4.165
  466SOL    HW2 1410   1.819   0.782   4.023
  467SOL     OW 1411   0.488   1.385   3.898
  467SOL    HW1 1412   0.401   1.370   3.945
  467SOL    HW2 1413   0.471   1.411   3.803
  468SOL     OW 1414   1.390   0.575   3.802
  468SOL    HW1 1415   1.336   0.554   3.883
  468SOL    HW2 1416   1.481   0.534   3.811
  469SOL     OW 1417   0.527   0.256   4.052
  469SOL    HW1 1418   0.554   0.197   3.977
  469SOL    HW2 1419   0.527   0.351   4.021
  470SOL     OW 1420   0.705   1.050   4.092
  470SOL    HW1 1421   0.691   1.057   4.191
  470SOL    HW2 1422   0.789   0.999   4.074
  471SOL     OW 1423   0.367   1.100   4.225
  471SOL    HW1 1424   0.360   1.183   4.169
  471SOL    HW2 1425   0.371   1.020   4.165
  472SOL     OW 1426   1.252   1.348   4.112
  472SOL    HW1 1427   1.302   1.425   4.152
  472SOL    HW2 1428   1.157   1.350   4.144
  473SOL     OW 1429   1.582   0.639   4.196
  473SOL    HW1 1430   1.551   0.700   4.269
  473SOL    HW2 1431   1.632   0.691   4.127
  474SOL     OW 1432   1.209   0.525   3.999
  474SOL    HW1 1433   1.222   0.441   4.053
  474SOL    HW2 1434   1.180   0.599   4.059
  475SOL     OW 1435   0.307   0.063   4.342
  475SOL    HW1 1436   0.296   0.157   4.375
  475SOL    HW2 1437   0.302   0.000   4.419
  476SOL     OW 1438   1.622   0.367   4.098
  476SOL    HW1 1439   1.624   0.291   4.162
  476SOL    HW2 1440   1.574   0.444   4.138
  477SOL     OW 1441   1.540   0.274   3.849
  477SOL    HW1 1442   1.479   0.199   3.872
  477SOL    HW2 1443   1.562   0.326   3.932
  478SOL     OW 1444   1.303   0.838   3.766
  478SOL    HW1 1445   1.337   0.745   3.781
  478SOL    HW2 1446   1.321   0.865   3.671
  479SOL     OW 1447   0.008   1.326   3.924
  479SOL    HW1 1448  -0.085   1.347   3.893
  479SOL    HW2 1449   0.018   1.227   3.937
  480SOL     OW 1450   0.815   0.572   4.049
  480SOL    HW1 1451   0.822   0.483   4.003
  480SOL    HW2 1452   0.721   0.606   4.041
  481SOL     OW 1453   0.473   0.500   3.915
  481SOL    HW1 1454   0.534   0.580   3.919
  481SOL    HW2 1455   0.378   0.531   3.922
  482SOL     OW 1456   1.302   0.855   4.033
  482SOL    HW1 1457   1.216   0.824   4.075
  482SOL    HW2 1458   1.298   0.841   3.934
  483SOL     OW 1459   1.726   0.135   4.247
  483SOL    HW1 1460   1.799   0.118   4.180
  483SOL    HW2 1461   1.695   0.048   4.285
  484SOL     OW 1462   1.388   1.573   4.201
  484SOL    HW1 1463   1.455   1.585   4.127
  484SOL    HW2 1464   1.348   1.662   4.224
  485SOL     OW 1465   0.672   1.616   3.878
  485SOL    HW1 1466   0.681   1.626   3.779
  485SOL    HW2 1467   0.632   1.527   3.899
  486SOL     OW 1468   1.841   0.175   4.687
  486SOL    HW1 1469   1.880   0.090   4.651
  486SOL    HW2 1470   1.743   0.177   4.668
  487SOL     OW 1471   1.194   1.612   3.755
  487SOL    HW1 1472   1.200   1.519   3.792
  487SOL    HW2 1473   1.135   1.612   3.675
  488SOL     OW 1474   0.916   0.910   4.015
  488SOL    HW1 1475   0.979   0.948   3.947
  488SOL    HW2 1476   0.956   0.827   4.054
  489SOL     OW 1477   1.504   1.607   3.768
  489SOL    HW1 1478   1.412   1.644   3.775
  489SOL    HW2 1479   1.542   1.627   3.678
  490SOL     OW 1480   0.590   1.487   4.215
  490SOL    HW1 1481   0.632   1.429   4.145
  490SOL    HW2 1482   0.546   1.566   4.171
  491SOL     OW 1483   0.255   1.348   4.014
  491SOL    HW1 1484   0.159   1.349   3.987
  491SOL    HW2 1485   0.267   1.401   4.098
  492SOL     OW 1486   0.075   0.345   3.757
  492SOL    HW1 1487  -0.017   0.317   3.728
  492SOL    HW2 1488   0.106   0.422   3.701
  493SOL     OW 1489   0.072   0.166   4.042
  493SOL    HW1 1490   0.055   0.249   3.988
  493SOL    HW2 1491   0.162   0.129   4.020
  494SOL     OW 1492   1.183   1.335   3.843
  494SOL    HW1 1493   1.084   1.324   3.845
  494SOL    HW2 1494   1.217   1.350   3.936
  495SOL     OW 1495   1.225   0.325   4.173
  495SOL    HW1 1496   1.290   0.251   4.162
  495SOL    HW2 1497   1.245   0.375   4.257
  496SOL     OW 1498   0.594   0.745   4.376
  496SOL    HW1 1499   0.644   0.830   4.357
  496SOL    HW2 1500   0.506   0.747   4.328
  497SOL     OW 1501   0.859   1.374   3.740
  497SOL    HW1 1502   0.813   1.389   3.828
  497SOL    HW2 1503   0.903   1.459   3.710
  498SOL     OW 1504   1.083   0.984   3.811
  498SOL    HW1 1505   1.060   1.037   3.729
  498SOL    HW2 1506   1.164   0.928   3.792
  499SOL     OW 1507   0.079   1.240   4.377
  499SOL    HW1 1508   0.078   1.193   4.465
  499SOL    HW2 1509   0.161   1.212   4.326
  500SOL     OW 1510   0.428   0.424   4.244
  500SOL    HW1 1511   0.458   0.352   4.182
  500SOL    HW2 1512   0.389   0.384   4.327
  501SOL     OW 1513   0.812   1.586   4.411
  501SOL    HW1 1514   0.844   1.596   4.317
  501SOL    HW2 1515   0.733   1.524   4.413
  502SOL     OW 1516   0.770   1.330   4.025
  502SOL    HW1 1517   0.724   1.243   4.042
  502SOL    HW2 1518   0.861   1.327   4.066
  503SOL     OW 1519   1.352   0.052   3.892
  503SOL    HW1 1520   1.387   0.011   3.808
  503SOL    HW2 1521   1.262   0.014   3.912
  504SOL     OW 1522   1.300   0.453   4.415
  504SOL    HW1 1523   1.241   0.533   4.419
  504SOL    HW2 1524   1.315   0.418   4.508
  505SOL     OW 1525   0.039   1.077   4.024
  505SOL    HW1 1526   0.138   1.066   4.015
  505SOL    HW2 1527  -0.001   0.991   4.056
  506SOL     OW 1528   0.875   1.646   4.061
  506SOL    HW1 1529   0.798   1.611   4.007
  506SOL    HW2 1530   0.843   1.717   4.123
  507SOL     OW 1531   0.230   2.490   0.113
  507SOL    HW1 1532   0.137   2.488   0.150
  507SOL    HW2 1533   0.231   2.451   0.021
  508SOL     OW 1534   0.225   2.137   0.996
  508SOL    HW1 1535   0.260   2.120   1.088
  508SOL    HW2 1536   0.137   2.092   0.984
  509SOL     OW 1537   0.019   2.230   0.647
  509SOL    HW1 1538  -0.063   2.273   0.686
  509SOL    HW2 1539  -0.009   2.157   0.584
  510SOL     OW 1540   0.569   3.137   1.165
  510SOL    HW1 1541   0.476   3.130   1.128
  510SOL    HW2 1542   0.580   3.226   1.209
  511SOL     OW 1543   1.555   3.373   0.703
  511SOL    HW1 1544   1.498   3.357   0.784
  511SOL    HW2 1545   1.496   3.383   0.623
  512SOL     OW 1546   1.135   2.565   0.717
  512SOL    HW1 1547   1.192   2.643   0.692
  512SOL    HW2 1548   1.075   2.591   0.793
  513SOL     OW 1549   1.755   2.469   0.231
  513SOL    HW1 1550   1.743   2.456   0.132
  513SOL    HW2 1551   1.725   2.388   0.280
  514SOL     OW 1552   0.768   3.006   1.023
  514SOL    HW1 1553   0.690   3.023   1.083
  514SOL    HW2 1554   0.802   3.093   0.987
  515SOL     OW 1555   0.850   2.660   1.823
  515SOL    HW1 1556   0.846   2.736   1.888
  515SOL    HW2 1557   0.872   2.696   1.732
  516SOL     OW 1558   0.685   2.874   0.665
  516SOL    HW1 1559   0.754   2.858   0.735
  516SOL    HW2 1560   0.612   2.931   0.703
  517SOL     OW 1561   0.686   3.023   1.803
  517SOL    HW1 1562   0.746   3.102   1.817
  517SOL    HW2 1563   0.600   3.054   1.762
  518SOL     OW 1564   0.335   3.297   1.061
  518SOL    HW1 1565   0.257   3.266   1.008
  518SOL    HW2 1566   0.393   3.355   1.004
  519SOL     OW 1567   1.460   3.367   1.339
  519SOL    HW1 1568   1.484   3.461   1.365
  519SOL    HW2 1569   1.444   3.313   1.421
  520SOL     OW 1570   0.438   2.254   1.499
  520SOL    HW1 1571   0.520   2.198   1.508
  520SOL    HW2 1572   0.357   2.196   1.503
  521SOL     OW 1573   1.603   2.309   0.737
  521SOL    HW1 1574   1.529   2.355   0.687
  521SOL    HW2 1575   1.654   2.377   0.790
  522SOL     OW 1576   0.231   3.575   0.483
  522SOL    HW1 1577   0.265   3.652   0.537
  522SOL    HW2 1578   0.275   3.575   0.393
  523SOL     OW 1579   1.127   3.203   1.690
  523SOL    HW1 1580   1.174   3.203   1.778
  523SOL    HW2 1581   1.079   3.116   1.679
  524SOL     OW 1582   0.230   3.296   0.538
  524SOL    HW1 1583   0.204   3.392   0.538
  524SOL    HW2 1584   0.159   3.242   0.583
  525SOL     OW 1585   0.240   2.953   0.886
  525SOL    HW1 1586   0.254   2.869   0.938
  525SOL    HW2 1587   0.185   3.017   0.941
  526SOL     OW 1588   0.620   3.648   1.439
  526SOL    HW1 1589   0.528   3.631   1.474
  526SOL    HW2 1590   0.648   3.740   1.465
  527SOL     OW 1591   0.606   2.826   0.123
  527SOL    HW1 1592   0.613   2.910   0.069
  527SOL    HW2 1593   0.652   2.839   0.211
  528SOL     OW 1594   1.594   1.976   1.480
  528SOL    HW1 1595   1.576   2.043   1.408
  528SOL    HW2 1596   1.591   2.022   1.569
  529SOL     OW 1597   0.122   2.505   0.563
  529SOL    HW1 1598   0.077   2.417   0.580
  529SOL    HW2 1599   0.121   2.559   0.647
  530SOL     OW 1600   1.842   3.629   0.359
  530SOL    HW1 1601   1.896   3.600   0.439
  530SOL    HW2 1602   1.872   3.719   0.330
  531SOL     OW 1603   0.027   3.458   0.117
  531SOL    HW1 1604   0.008   3.362   0.138
  531SOL    HW2 1605  -0.006   3.516   0.192
  532SOL     OW 1606   1.689   2.784   0.612
  532SOL    HW1 1607   1.784   2.755   0.620
  532SOL    HW2 1608   1.681   2.849   0.537
  533SOL     OW 1609   1.641   2.970   0.432
  533SOL    HW1 1610   1.727   2.972   0.380
  533SOL    HW2 1611   1.655   3.017   0.520
  534SOL     OW 1612   0.113   2.599   1.597
  534SOL    HW1 1613   0.201   2.586   1.642
  534SOL    HW2 1614   0.100   2.696   1.575
  535SOL     OW 1615   0.613   3.227   0.726
  535SOL    HW1 1616   0.564   3.140   0.735
  535SOL    HW2 1617   0.590   3.270   0.639
  536SOL     OW 1618   1.293   3.090   1.423
  536SOL    HW1 1619   1.330   3.017   1.365
  536SOL    HW2 1620   1.345   3.095   1.508
  537SOL     OW 1621   0.809   1.866   0.502
  537SOL    HW1 1622   0.849   1.957   0.493
  537SOL    HW2 1623   0.709   1.874   0.508
  538SOL     OW 1624   0.197   2.838   1.264
  538SOL    HW1 1625   0.286   2.793   1.250
  538SOL    HW2 1626   0.124   2.773   1.245
  539SOL     OW 1627   1.525   2.861   0.190
  539SOL    HW1 1628   1.462   2.785   0.203
  539SOL    HW2 1629   1.573   2.879   0.276
  540SOL     OW 1630   1.187   3.654   1.616
  540SOL    HW1 1631   1.211   3.714   1.540
  540SOL    HW2 1632   1.194   3.559   1.586
  541SOL     OW 1633   0.317   2.113   1.801
  541SOL    HW1 1634   0.388   2.184   1.807
  541SOL    HW2 1635   0.229   2.152   1.829
  542SOL     OW 1636   1.466   3.279   0.953
  542SOL    HW1 1637   1.407   3.285   1.033
  542SOL    HW2 1638   1.451   3.191   0.907
  543SOL     OW 1639   1.667   3.576   0.572
  543SOL    HW1 1640   1.626   3.553   0.484
  543SOL    HW2 1641   1.649   3.502   0.637
  544SOL     OW 1642   0.598   2.591   0.270
  544SOL    HW1 1643   0.622   2.660   0.202
  544SOL    HW2 1644   0.520   2.624   0.324
  545SOL     OW 1645   1.281   2.207   0.944
  545SOL    HW1 1646   1.195   2.157   0.931
  545SOL    HW2 1647   1.343   2.153   1.000
  546SOL     OW 1648   1.576   3.524   0.307
  546SOL    HW1 1649   1.665   3.570   0.310
  546SOL    HW2 1650   1.555   3.500   0.212
  547SOL     OW 1651   0.807   2.467   1.465
  547SOL    HW1 1652   0.760   2.464   1.554
  547SOL    HW2 1653   0.756   2.412   1.399
  548SOL     OW 1654   1.394   2.331   1.674
  548SOL    HW1 1655   1.374   2.374   1.762
  548SOL    HW2 1656   1.472   2.269   1.683
  549SOL     OW 1657   0.973   2.752   1.572
  549SOL    HW1 1658   1.019   2.668   1.543
  549SOL    HW2 1659   0.917   2.786   1.497
  550SOL     OW 1660   0.991   2.272   1.242
  550SOL    HW1 1661   0.914   2.306   1.296
  550SOL    HW2 1662   0.957   2.221   1.163
  551SOL     OW 1663   1.041   2.563   0.429
  551SOL    HW1 1664   1.067   2.559   0.525
  551SOL    HW2 1665   0.956   2.512   0.415
  552SOL     OW 1666   0.076   2.673   0.789
  552SOL    HW1 1667   0.175   2.661   0.798
  552SOL    HW2 1668   0.052   2.768   0.810
  553SOL     OW 1669   0.130   3.683   1.571
  553SOL    HW1 1670   0.120   3.668   1.670
  553SOL    HW2 1671   0.044   3.719   1.535
  554SOL     OW 1672   0.865   2.210   0.195
  554SOL    HW1 1673   0.924   2.273   0.146
  554SOL    HW2 1674   0.884   2.116   0.166
  555SOL     OW 1675   1.719   2.447   1.831
  555SOL    HW1 1676   1.693   2.536   1.795
  555SOL    HW2 1677   1.717   2.379   1.758
  556SOL     OW 1678   1.362   3.006   0.545
  556SOL    HW1 1679   1.445   2.977   0.497
  556SOL    HW2 1680   1.313   3.073   0.489
  557SOL     OW 1681   0.550   2.058   0.885
  557SOL    HW1 1682   0.545   2.053   0.985
  557SOL    HW2 1683   0.552   2.154   0.856
  558SOL     OW 1684   1.008   3.318   0.477
  558SOL    HW1 1685   0.962   3.390   0.425
  558SOL    HW2 1686   1.004   3.338   0.575
  559SOL     OW 1687   0.351   3.663   0.853
  559SOL    HW1 1688   0.401   3.577   0.859
  559SOL    HW2 1689   0.416   3.740   0.850
  560SOL     OW 1690   1.795   2.928   0.873
  560SOL    HW1 1691   1.733   2.913   0.797
  560SOL    HW2 1692   1.743   2.939   0.958
  561SOL     OW 1693   1.227   3.412   1.506
  561SOL    HW1 1694   1.233   3.335   1.570
  561SOL    HW2 1695   1.175   3.386   1.426
  562SOL     OW 1696   0.321   2.805   0.242
  562SOL    HW1 1697   0.403   2.844   0.200
  562SOL    HW2 1698   0.294   2.723   0.193
  563SOL     OW 1699   1.458   2.597   0.728
  563SOL    HW1 1700   1.453   2.532   0.803
  563SOL    HW2 1701   1.538   2.656   0.741
  564SOL     OW 1702   0.461   3.128   1.727
  564SOL    HW1 1703   0.411   3.129   1.641
  564SOL    HW2 1704   0.398   3.110   1.803
  565SOL     OW 1705   1.111   3.638   0.237
  565SOL    HW1 1706   1.051   3.576   0.287
  565SOL    HW2 1707   1.142   3.594   0.152
  566SOL     OW 1708   0.202   2.147   1.498
  566SOL    HW1 1709   0.122   2.207   1.485
  566SOL    HW2 1710   0.192   2.098   1.584
  567SOL     OW 1711   1.632   3.239   0.081
  567SOL    HW1 1712   1.600   3.333   0.071
  567SOL    HW2 1713   1.556   3.176   0.069
  568SOL     OW 1714   0.464   3.605   0.323
  568SOL    HW1 1715   0.497   3.644   0.409
  568SOL    HW2 1716   0.540   3.598   0.258
  569SOL     OW 1717   1.400   1.969   0.426
  569SOL    HW1 1718   1.376   1.932   0.336
  569SOL    HW2 1719   1.499   1.985   0.430
  570SOL     OW 1720   0.249   3.647   1.241
  570SOL    HW1 1721   0.306   3.582   1.291
  570SOL    HW2 1722   0.233   3.614   1.148
  571SOL     OW 1723   0.940   3.560   0.904
  571SOL    HW1 1724   1.020   3.503   0.925
  571SOL    HW2 1725   0.891   3.520   0.827
  572SOL     OW 1726   0.382   2.562   0.480
  572SOL    HW1 1727   0.427   2.472   0.477
  572SOL    HW2 1728   0.288   2.551   0.513
  573SOL     OW 1729   1.547   2.084   1.729
  573SOL    HW1 1730   1.542   2.121   1.821
  573SOL    HW2 1731   1.475   2.015   1.717
  574SOL     OW 1732   0.614   1.984   0.117
  574SOL    HW1 1733   0.712   1.962   0.124
  574SOL    HW2 1734   0.583   1.967   0.024
  575SOL     OW 1735   0.781   2.126   1.749
  575SOL    HW1 1736   0.848   2.065   1.792
  575SOL    HW2 1737   0.708   2.145   1.814
  576SOL     OW 1738   0.888   3.376   1.195
  576SOL    HW1 1739   0.865   3.351   1.101
  576SOL    HW2 1740   0.949   3.307   1.234
  577SOL     OW 1741   1.351   2.452   1.433
  577SOL    HW1 1742   1.379   2.409   1.518
  577SOL    HW2 1743   1.376   2.548   1.434
  578SOL     OW 1744   0.803   3.264   0.924
  578SOL    HW1 1745   0.893   3.278   0.882
  578SOL    HW2 1746   0.732   3.266   0.853
  579SOL     OW 1747   0.922   2.365   0.899
  579SOL    HW1 1748   0.897   2.356   0.803
  579SOL    HW2 1749   0.970   2.283   0.930
  580SOL     OW 1750   0.539   1.926   0.512
  580SOL    HW1 1751   0.458   1.927   0.570
  580SOL    HW2 1752   0.542   2.009   0.457
  581SOL     OW 1753   1.434   3.050   0.041
  581SOL    HW1 1754   1.466   2.974   0.098
  581SOL    HW2 1755   1.342   3.077   0.071
  582SOL     OW 1756   0.935   2.098   0.480
  582SOL    HW1 1757   0.887   2.139   0.402
  582SOL    HW2 1758   1.034   2.096   0.461
  583SOL     OW 1759   1.076   2.545   1.464
  583SOL    HW1 1760   0.996   2.484   1.467
  583SOL    HW2 1761   1.157   2.492   1.440
  584SOL     OW 1762   1.227   3.432   0.793
  584SOL    HW1 1763   1.248   3.506   0.728
  584SOL    HW2 1764   1.295   3.432   0.866
  585SOL     OW 1765   0.459   3.014   0.741
  585SOL    HW1 1766   0.388   2.987   0.806
  585SOL    HW2 1767   0.433   2.986   0.648
  586SOL     OW 1768   1.271   3.659   0.591
  586SOL    HW1 1769   1.315   3.723   0.527
  586SOL    HW2 1770   1.221   3.711   0.661
  587SOL     OW 1771   1.032   2.411   0.016
  587SOL    HW1 1772   0.991   2.493  -0.023
  587SOL    HW2 1773   1.096   2.437   0.089
  588SOL     OW 1774   0.078   2.418   1.386
  588SOL    HW1 1775   0.170   2.417   1.345
  588SOL    HW2 1776   0.072   2.492   1.453
  589SOL     OW 1777   0.561   2.084   1.147
  589SOL    HW1 1778   0.599   2.000   1.184
  589SOL    HW2 1779   0.473   2.103   1.191
  590SOL     OW 1780   0.866   2.316   0.642
  590SOL    HW1 1781   0.834   2.388   0.580
  590SOL    HW2 1782   0.890   2.235   0.589
  591SOL     OW 1783   1.017   1.901   0.753
  591SOL    HW1 1784   0.945   1.906   0.684
  591SOL    HW2 1785   0.993   1.832   0.822
  592SOL     OW 1786   1.429   3.035   0.867
  592SOL    HW1 1787   1.374   2.951   0.860
  592SOL    HW2 1788   1.455   3.064   0.775
  593SOL     OW 1789   1.466   2.452   0.992
  593SOL    HW1 1790   1.436   2.357   0.999
  593SOL    HW2 1791   1.539   2.468   1.058
  594SOL     OW 1792   1.857   2.695   0.377
  594SOL    HW1 1793   1.899   2.631   0.441
  594SOL    HW2 1794   1.819   2.644   0.299
  595SOL     OW 1795   0.488   3.247   0.174
  595SOL    HW1 1796   0.401   3.232   0.221
  595SOL    HW2 1797   0.471   3.273   0.079
  596SOL     OW 1798   1.664   3.142   0.657
  596SOL    HW1 1799   1.763   3.150   0.671
  596SOL    HW2 1800   1.619   3.226   0.688
  597SOL     OW 1801   1.390   2.437   0.078
  597SOL    HW1 1802   1.336   2.416   0.159
  597SOL    HW2 1803   1.481   2.396   0.087
  598SOL     OW 1804   0.527   2.118   0.328
  598SOL    HW1 1805   0.554   2.059   0.253
  598SOL    HW2 1806   0.527   2.213   0.297
  599SOL     OW 1807   1.754   3.085   1.588
  599SOL    HW1 1808   1.845   3.046   1.575
  599SOL    HW2 1809   1.762   3.181   1.612
  600SOL     OW 1810   1.064   3.209   1.340
  600SOL    HW1 1811   0.984   3.186   1.395
  600SOL    HW2 1812   1.147   3.183   1.389
  601SOL     OW 1813   1.592   3.491   1.625
  601SOL    HW1 1814   1.619   3.525   1.535
  601SOL    HW2 1815   1.671   3.453   1.671
  602SOL     OW 1816   1.111   3.057   1.100
  602SOL    HW1 1817   1.071   3.101   1.181
  602SOL    HW2 1818   1.070   3.094   1.017
  603SOL     OW 1819   1.638   2.961   1.079
  603SOL    HW1 1820   1.643   3.042   1.138
  603SOL    HW2 1821   1.552   2.963   1.028
  604SOL     OW 1822   0.915   1.951   1.402
  604SOL    HW1 1823   0.940   1.931   1.307
  604SOL    HW2 1824   0.987   2.007   1.444
  605SOL     OW 1825   0.980   2.978   1.719
  605SOL    HW1 1826   0.881   2.984   1.729
  605SOL    HW2 1827   1.003   2.898   1.663
  606SOL     OW 1828   0.705   2.912   0.368
  606SOL    HW1 1829   0.691   2.919   0.467
  606SOL    HW2 1830   0.789   2.861   0.350
  607SOL     OW 1831   0.410   2.675   1.251
  607SOL    HW1 1832   0.496   2.687   1.301
  607SOL    HW2 1833   0.368   2.588   1.278
  608SOL     OW 1834   1.274   2.248   1.262
  608SOL    HW1 1835   1.295   2.322   1.326
  608SOL    HW2 1836   1.185   2.265   1.219
  609SOL     OW 1837   0.064   3.426   1.331
  609SOL    HW1 1838   0.018   3.508   1.297
  609SOL    HW2 1839   0.162   3.445   1.340
  610SOL     OW 1840   0.367   2.962   0.501
  610SOL    HW1 1841   0.360   3.045   0.445
  610SOL    HW2 1842   0.371   2.882   0.441
  611SOL     OW 1843   0.566   2.399   0.865
  611SOL    HW1 1844   0.578   2.465   0.791
  611SOL    HW2 1845   0.612   2.433   0.948
  612SOL     OW 1846   1.252   3.210   0.388
  612SOL    HW1 1847   1.302   3.287   0.428
  612SOL    HW2 1848   1.157   3.212   0.420
  613SOL     OW 1849   1.272   3.307   1.142
  613SOL    HW1 1850   1.319   3.320   1.229
  613SOL    HW2 1851   1.206   3.233   1.151
  614SOL     OW 1852   1.582   2.501   0.472
  614SOL    HW1 1853   1.551   2.562   0.545
  614SOL    HW2 1854   1.632   2.553   0.403
  615SOL     OW 1855   0.354   3.372   1.329
  615SOL    HW1 1856   0.333   3.328   1.242
  615SOL    HW2 1857   0.451   3.398   1.332
  616SOL     OW 1858   0.402   2.613   1.598
  616SOL    HW1 1859   0.470   2.668   1.551
  616SOL    HW2 1860   0.442   2.525   1.625
  617SOL     OW 1861   1.587   2.641   1.670
  617SOL    HW1 1862   1.495   2.679   1.665
  617SOL    HW2 1863   1.647   2.688   1.605
  618SOL     OW 1864   1.013   1.967   1.770
  618SOL    HW1 1865   1.019   2.052   1.718
  618SOL    HW2 1866   1.045   1.891   1.713
  619SOL     OW 1867   0.504   1.912   1.740
  619SOL    HW1 1868   0.462   1.855   1.670
  619SOL    HW2 1869   0.438   1.981   1.772
  620SOL     OW 1870   0.573   2.732   1.029
  620SOL    HW1 1871   0.617   2.821   1.020
  620SOL    HW2 1872   0.510   2.732   1.106
  621SOL     OW 1873   1.360   2.724   1.045
  621SOL    HW1 1874   1.285   2.724   0.979
  621SOL    HW2 1875   1.397   2.632   1.054
  622SOL     OW 1876   1.209   2.387   0.275
  622SOL    HW1 1877   1.222   2.303   0.329
  622SOL    HW2 1878   1.180   2.461   0.335
  623SOL     OW 1879   0.307   2.075   1.231
  623SOL    HW1 1880   0.284   2.112   1.321
  623SOL    HW2 1881   0.277   1.980   1.225
  624SOL     OW 1882   0.037   3.172   1.282
  624SOL    HW1 1883   0.090   3.123   1.350
  624SOL    HW2 1884   0.059   3.270   1.287
  625SOL     OW 1885   0.732   2.496   1.064
  625SOL    HW1 1886   0.791   2.470   0.988
  625SOL    HW2 1887   0.704   2.592   1.053
  626SOL     OW 1888   1.728   2.797   1.854
  626SOL    HW1 1889   1.682   2.790   1.765
  626SOL    HW2 1890   1.666   2.841   1.920
  627SOL     OW 1891   0.307   1.925   0.618
  627SOL    HW1 1892   0.296   2.019   0.651
  627SOL    HW2 1893   0.302   1.862   0.695
  628SOL     OW 1894   1.622   2.229   0.374
  628SOL    HW1 1895   1.624   2.153   0.438
  628SOL    HW2 1896   1.574   2.306   0.414
  629SOL     OW 1897   1.023   2.628   0.966
  629SOL    HW1 1898   1.038   2.649   1.062
  629SOL    HW2 1899   0.993   2.533   0.957
  630SOL     OW 1900   0.980   3.435   1.700
  630SOL    HW1 1901   0.960   3.479   1.612
  630SOL    HW2 1902   1.019   3.344   1.684
  631SOL     OW 1903   1.859   3.380   1.605
  631SOL    HW1 1904   1.873   3.407   1.510
  631SOL    HW2 1905   1.942   3.402   1.658
  632SOL     OW 1906   0.350   2.760   1.804
  632SOL    HW1 1907   0.426   2.804   1.852
  632SOL    HW2 1908   0.385   2.713   1.722
  633SOL     OW 1909   1.540   2.136   0.125
  633SOL    HW1 1910   1.479   2.061   0.148
  633SOL    HW2 1911   1.562   2.188   0.208
  634SOL     OW 1912   1.303   2.700   0.042
  634SOL    HW1 1913   1.337   2.607   0.057
  634SOL    HW2 1914   1.321   2.727  -0.053
  635SOL     OW 1915   1.068   3.195   0.849
  635SOL    HW1 1916   1.075   3.111   0.794
  635SOL    HW2 1917   1.130   3.264   0.813
  636SOL     OW 1918   0.319   2.672   0.949
  636SOL    HW1 1919   0.412   2.708   0.954
  636SOL    HW2 1920   0.313   2.587   1.001
  637SOL     OW 1921   0.339   2.371   1.006
  637SOL    HW1 1922   0.287   2.288   0.989
  637SOL    HW2 1923   0.416   2.376   0.942
  638SOL     OW 1924   1.138   2.242   1.678
  638SOL    HW1 1925   1.093   2.305   1.742
  638SOL    HW2 1926   1.231   2.273   1.661
  639SOL     OW 1927   1.160   2.069   1.477
  639SOL    HW1 1928   1.160   2.133   1.554
  639SOL    HW2 1929   1.188   2.117   1.394
  640SOL     OW 1930   0.008   3.188   0.200
  640SOL    HW1 1931  -0.085   3.209   0.169
  640SOL    HW2 1932   0.018   3.089   0.213
  641SOL     OW 1933   0.088   3.663   0.927
  641SOL    HW1 1934   0.046   3.577   0.900
  641SOL    HW2 1935   0.182   3.666   0.893
  642SOL     OW 1936   0.504   3.430   0.910
  642SOL    HW1 1937   0.570   3.504   0.919
  642SOL    HW2 1938   0.548   3.351   0.868
  643SOL     OW 1939   1.002   2.658   1.238
  643SOL    HW1 1940   1.043   2.626   1.324
  643SOL    HW2 1941   0.906   2.631   1.235
  644SOL     OW 1942   0.040   2.406   1.114
  644SOL    HW1 1943   0.125   2.373   1.073
  644SOL    HW2 1944   0.053   2.421   1.212
  645SOL     OW 1945   0.189   2.382   1.722
  645SOL    HW1 1946   0.248   2.342   1.652
  645SOL    HW2 1947   0.131   2.453   1.681
  646SOL     OW 1948   1.369   2.812   1.660
  646SOL    HW1 1949   1.408   2.901   1.680
  646SOL    HW2 1950   1.379   2.792   1.563
  647SOL     OW 1951   0.815   2.434   0.325
  647SOL    HW1 1952   0.822   2.345   0.279
  647SOL    HW2 1953   0.721   2.468   0.317
  648SOL     OW 1954   1.657   2.466   1.206
  648SOL    HW1 1955   1.619   2.397   1.268
  648SOL    HW2 1956   1.739   2.430   1.162
  649SOL     OW 1957   0.252   3.426   1.744
  649SOL    HW1 1958   0.222   3.483   1.820
  649SOL    HW2 1959   0.245   3.329   1.770
  650SOL     OW 1960   0.671   2.326   1.269
  650SOL    HW1 1961   0.637   2.237   1.239
  650SOL    HW2 1962   0.697   2.380   1.189
  651SOL     OW 1963   0.930   3.540   1.465
  651SOL    HW1 1964   0.906   3.522   1.370
  651SOL    HW2 1965   0.960   3.634   1.475
  652SOL     OW 1966   0.473   2.362   0.191
  652SOL    HW1 1967   0.534   2.442   0.195
  652SOL    HW2 1968   0.378   2.393   0.198
  653SOL     OW 1969   0.159   2.999   1.466
  653SOL    HW1 1970   0.181   2.938   1.542
  653SOL    HW2 1971   0.169   2.950   1.380
  654SOL     OW 1972   1.347   2.921   1.234
  654SOL    HW1 1973   1.371   2.858   1.160
  654SOL    HW2 1974   1.257   2.961   1.216
  655SOL     OW 1975   1.302   2.717   0.309
  655SOL    HW1 1976   1.216   2.686   0.351
  655SOL    HW2 1977   1.298   2.703   0.210
  656SOL     OW 1978   1.759   3.609   1.154
  656SOL    HW1 1979   1.820   3.639   1.081
  656SOL    HW2 1980   1.721   3.520   1.132
  657SOL     OW 1981   1.252   3.593   1.128
  657SOL    HW1 1982   1.336   3.598   1.074
  657SOL    HW2 1983   1.229   3.497   1.146
  658SOL     OW 1984   0.083   3.120   1.022
  658SOL    HW1 1985   0.078   3.119   1.122
  658SOL    HW2 1986   0.000   3.079   0.984
  659SOL     OW 1987   0.688   3.524   1.716
  659SOL    HW1 1988   0.632   3.605   1.725
  659SOL    HW2 1989   0.740   3.528   1.630
  660SOL     OW 1990   0.903   1.948   0.133
  660SOL    HW1 1991   0.954   1.949   0.047
  660SOL    HW2 1992   0.959   1.906   0.204
  661SOL     OW 1993   1.726   1.997   0.523
  661SOL    HW1 1994   1.799   1.980   0.456
  661SOL    HW2 1995   1.695   1.910   0.561
  662SOL     OW 1996   1.388   3.435   0.477
  662SOL    HW1 1997   1.455   3.447   0.403
  662SOL    HW2 1998   1.348   3.524   0.500
  663SOL     OW 1999   0.130   3.656   1.851
  663SOL    HW1 2000   0.089   3.582   1.904
  663SOL    HW2 2001   0.194   3.707   1.909
  664SOL     OW 2002   1.280   2.789   0.672
  664SOL    HW1 2003   1.340   2.708   0.674
  664SOL    HW2 2004   1.320   2.858   0.612
  665SOL     OW 2005   0.830   3.135   1.422
  665SOL    HW1 2006   0.825   3.168   1.517
  665SOL    HW2 2007   0.744   3.154   1.376
  666SOL     OW 2008   0.672   3.478   0.154
  666SOL    HW1 2009   0.681   3.488   0.055
  666SOL    HW2 2010   0.632   3.389   0.175
  667SOL     OW 2011   1.650   3.582   1.394
  667SOL    HW1 2012   1.703   3.592   1.310
  667SOL    HW2 2013   1.623   3.672   1.428
  668SOL     OW 2014   1.841   2.037   0.963
  668SOL    HW1 2015   1.880   1.952   0.927
  668SOL    HW2 2016   1.743   2.039   0.944
  669SOL     OW 2017   0.263   2.188   0.720
  669SOL    HW1 2018   0.184   2.239   0.686
  669SOL    HW2 2019   0.254   2.173   0.818
  670SOL     OW 2020   1.194   3.474   0.031
  670SOL    HW1 2021   1.200   3.381   0.068
  670SOL    HW2 2022   1.135   3.474  -0.049
  671SOL     OW 2023   0.822   2.864   1.372
  671SOL    HW1 2024   0.862   2.863   1.280
  671SOL    HW2 2025   0.832   2.956   1.412
  672SOL     OW 2026   0.916   2.772   0.291
  672SOL    HW1 2027   0.979   2.810   0.223
  672SOL    HW2 2028   0.956   2.689   0.330
  673SOL     OW 2029   1.504   3.469   0.044
  673SOL    HW1 2030   1.412   3.506   0.051
  673SOL    HW2 2031   1.542   3.489  -0.046
  674SOL     OW 2032   0.372   3.150   1.490
  674SOL    HW1 2033   0.359   3.243   1.456
  674SOL    HW2 2034   0.288   3.098   1.477
  675SOL     OW 2035   1.614   3.154   1.289
  675SOL    HW1 2036   1.674   3.157   1.369
  675SOL    HW2 2037   1.539   3.218   1.302
  676SOL     OW 2038   1.039   2.960   0.696
  676SOL    HW1 2039   0.969   2.913   0.750
  676SOL    HW2 2040   1.098   2.892   0.653
  677SOL     OW 2041   1.014   2.098   0.971
  677SOL    HW1 2042   1.006   2.062   0.878
  677SOL    HW2 2043   1.012   2.022   1.036
  678SOL     OW 2044   0.590   3.349   0.491
  678SOL    HW1 2045   0.632   3.291   0.421
  678SOL    HW2 2046   0.546   3.428   0.447
  679SOL     OW 2047   1.709   2.247   1.381
  679SOL    HW1 2048   1.782   2.316   1.385
  679SOL    HW2 2049   1.737   2.172   1.322
  680SOL     OW 2050   0.255   3.210   0.290
  680SOL    HW1 2051   0.159   3.211   0.263
  680SOL    HW2 2052   0.267   3.263   0.374
  681SOL     OW 2053   0.105   2.875   1.726
  681SOL    HW1 2054   0.028   2.842   1.780
  681SOL    HW2 2055   0.190   2.845   1.768
  682SOL     OW 2056   0.672   2.065   1.489
  682SOL    HW1 2057   0.762   2.049   1.449
  682SOL    HW2 2058   0.680   2.070   1.588
  683SOL     OW 2059   0.075   2.207   0.033
  683SOL    HW1 2060  -0.017   2.179   0.004
  683SOL    HW2 2061   0.106   2.284  -0.023
  684SOL     OW 2062   1.440   2.718   1.398
  684SOL    HW1 2063   1.383   2.770   1.335
  684SOL    HW2 2064   1.536   2.730   1.374
  685SOL     OW 2065   0.072   2.028   0.318
  685SOL    HW1 2066   0.055   2.111   0.264
  685SOL    HW2 2067   0.162   1.991   0.296
  686SOL     OW 2068   1.183   3.197   0.119
  686SOL    HW1 2069   1.084   3.186   0.121
  686SOL    HW2 2070   1.217   3.212   0.212
  687SOL     OW 2071   0.613   2.704   1.431
  687SOL    HW1 2072   0.669   2.785   1.414
  687SOL    HW2 2073   0.672   2.624   1.434
  688SOL     OW 2074   1.493   3.629   0.959
  688SOL    HW1 2075   1.526   3.693   0.890
  688SOL    HW2 2076   1.559   3.623   1.034
  689SOL     OW 2077   0.716   2.427   1.708
  689SOL    HW1 2078   0.735   2.492   1.782
  689SOL    HW2 2079   0.776   2.347   1.717
  690SOL     OW 2080   1.450   3.082   1.633
  690SOL    HW1 2081   1.441   3.072   1.732
  690SOL    HW2 2082   1.546   3.075   1.607
  691SOL     OW 2083   0.390   3.603   1.560
  691SOL    HW1 2084   0.299   3.644   1.558
  691SOL    HW2 2085   0.383   3.509   1.592
  692SOL     OW 2086   1.674   2.745   1.254
  692SOL    HW1 2087   1.647   2.656   1.217
  692SOL    HW2 2088   1.675   2.813   1.181
  693SOL     OW 2089   1.225   2.187   0.449
  693SOL    HW1 2090   1.290   2.113   0.438
  693SOL    HW2 2091   1.245   2.237   0.533
  694SOL     OW 2092   0.594   2.607   0.652
  694SOL    HW1 2093   0.644   2.692   0.633
  694SOL    HW2 2094   0.506   2.609   0.604
  695SOL     OW 2095   1.777   2.204   1.642
  695SOL    HW1 2096   1.760   2.235   1.548
  695SOL    HW2 2097   1.693   2.167   1.680
  696SOL     OW 2098   1.730   2.796   1.517
  696SOL    HW1 2099   1.768   2.887   1.532
  696SOL    HW2 2100   1.722   2.779   1.418
  697SOL     OW 2101   0.859   3.236   0.016
  697SOL    HW1 2102   0.813   3.251   0.104
  697SOL    HW2 2103   0.903   3.321  -0.014
  698SOL     OW 2104   0.661   3.652   0.953
  698SOL    HW1 2105   0.615   3.740   0.940
  698SOL    HW2 2106   0.760   3.664   0.946
  699SOL     OW 2107   0.859   2.818   0.861
  699SOL    HW1 2108   0.913   2.749   0.909
  699SOL    HW2 2109   0.827   2.887   0.927
  700SOL     OW 2110   1.083   2.846   0.087
  700SOL    HW1 2111   1.060   2.899   0.005
  700SOL    HW2 2112   1.164   2.790   0.068
  701SOL     OW 2113   1.861   3.431   0.851
  701SOL    HW1 2114   1.790   3.419   0.781
  701SOL    HW2 2115   1.862   3.352   0.911
  702SOL     OW 2116   0.221   3.176   1.844
  702SOL    HW1 2117   0.156   3.103   1.823
  702SOL    HW2 2118   0.225   3.190   1.942
  703SOL     OW 2119   0.079   3.102   0.653
  703SOL    HW1 2120   0.078   3.055   0.741
  703SOL    HW2 2121   0.161   3.074   0.602
  704SOL     OW 2122   0.672   3.253   1.624
  704SOL    HW1 2123   0.594   3.203   1.662
  704SOL    HW2 2124   0.669   3.348   1.655
  705SOL     OW 2125   1.824   2.054   1.227
  705SOL    HW1 2126   1.820   1.964   1.271
  705SOL    HW2 2127   1.827   2.043   1.128
  706SOL     OW 2128   0.428   2.286   0.520
  706SOL    HW1 2129   0.458   2.214   0.458
  706SOL    HW2 2130   0.389   2.246   0.603
  707SOL     OW 2131   1.705   3.349   1.104
  707SOL    HW1 2132   1.612   3.324   1.077
  707SOL    HW2 2133   1.731   3.299   1.186
  708SOL     OW 2134   0.317   2.409   1.280
  708SOL    HW1 2135   0.355   2.350   1.352
  708SOL    HW2 2136   0.357   2.383   1.192
  709SOL     OW 2137   0.812   3.448   0.687
  709SOL    HW1 2138   0.844   3.458   0.593
  709SOL    HW2 2139   0.733   3.386   0.689
  710SOL     OW 2140   1.424   2.076   1.112
  710SOL    HW1 2141   1.476   2.011   1.167
  710SOL    HW2 2142   1.375   2.139   1.173
  711SOL     OW 2143   1.001   1.896   1.154
  711SOL    HW1 2144   0.938   1.824   1.123
  711SOL    HW2 2145   1.094   1.860   1.154
  712SOL     OW 2146   0.770   3.192   0.301
  712SOL    HW1 2147   0.724   3.105   0.318
  712SOL    HW2 2148   0.861   3.189   0.342
  713SOL     OW 2149   0.618   3.429   1.284
  713SOL    HW1 2150   0.613   3.511   1.341
  713SOL    HW2 2151   0.707   3.426   1.239
  714SOL     OW 2152   1.352   1.914   0.168
  714SOL    HW1 2153   1.387   1.873   0.084
  714SOL    HW2 2154   1.262   1.876   0.188
  715SOL     OW 2155   1.300   2.315   0.691
  715SOL    HW1 2156   1.241   2.395   0.695
  715SOL    HW2 2157   1.315   2.280   0.784
  716SOL     OW 2158   1.593   2.083   0.882
  716SOL    HW1 2159   1.509   2.082   0.936
  716SOL    HW2 2160   1.595   2.166   0.826
  717SOL     OW 2161   0.039   2.939   0.300
  717SOL    HW1 2162   0.138   2.928   0.291
  717SOL    HW2 2163  -0.001   2.853   0.332
  718SOL     OW 2164   0.875   3.508   0.337
  718SOL    HW1 2165   0.798   3.473   0.283
  718SOL    HW2 2166   0.843   3.579   0.399
  719SOL     OW 2167   0.230   2.490   1.975
  719SOL    HW1 2168   0.137   2.488   2.012
  719SOL    HW2 2169   0.231   2.451   1.883
  720SOL     OW 2170   0.225   2.137   2.858
  720SOL    HW1 2171   0.260   2.120   2.950
  720SOL    HW2 2172   0.137   2.092   2.846
  721SOL     OW 2173   0.019   2.230   2.509
  721SOL    HW1 2174  -0.063   2.273   2.548
  721SOL    HW2 2175  -0.009   2.157   2.446
  722SOL     OW 2176   0.569   3.137   3.027
  722SOL    HW1 2177   0.476   3.130   2.990
  722SOL    HW2 2178   0.580   3.226   3.071
  723SOL     OW 2179   1.555   3.373   2.565
  723SOL    HW1 2180   1.498   3.357   2.646
  723SOL    HW2 2181   1.496   3.383   2.485
  724SOL     OW 2182   1.135   2.565   2.579
  724SOL    HW1 2183   1.192   2.643   2.554
  724SOL    HW2 2184   1.075   2.591   2.655
  725SOL     OW 2185   1.755   2.469   2.093
  725SOL    HW1 2186   1.743   2.456   1.994
  725SOL    HW2 2187   1.725   2.388   2.142
  726SOL     OW 2188   0.768   3.006   2.885
  726SOL    HW1 2189   0.690   3.023   2.945
  726SOL    HW2 2190   0.802   3.093   2.849
  727SOL     OW 2191   0.850   2.660   3.685
  727SOL    HW1 2192   0.846   2.736   3.750
  727SOL    HW2 2193   0.872   2.696   3.594
  728SOL     OW 2194   0.685   2.874   2.527
  728SOL    HW1 2195   0.754   2.858   2.597
  728SOL    HW2 2196   0.612   2.931   2.565
  729SOL     OW 2197   0.686   3.023   3.665
  729SOL    HW1 2198   0.746   3.102   3.679
  729SOL    HW2 2199   0.600   3.054   3.624
  730SOL     OW 2200   0.335   3.297   2.923
  730SOL    HW1 2201   0.257   3.266   2.870
  730SOL    HW2 2202   0.393   3.355   2.866
  731SOL     OW 2203   1.460   3.367   3.201
  731SOL    HW1 2204   1.484   3.461   3.227
  731SOL    HW2 2205   1.444   3.313   3.283
  732SOL     OW 2206   0.438   2.254   3.361
  732SOL    HW1 2207   0.520   2.198   3.370
  732SOL    HW2 2208   0.357   2.196   3.365
  733SOL     OW 2209   1.603   2.309   2.599
  733SOL    HW1 2210   1.529   2.355   2.549
  733SOL    HW2 2211   1.654   2.377   2.652
  734SOL     OW 2212   0.231   3.575   2.345
  734SOL    HW1 2213   0.265   3.652   2.399
  734SOL    HW2 2214   0.275   3.575   2.255
  735SOL     OW 2215   1.127   3.203   3.552
  735SOL    HW1 2216   1.174   3.203   3.640
  735SOL    HW2 2217   1.079   3.116   3.541
  736SOL     OW 2218   0.230   3.296   2.400
  736SOL    HW1 2219   0.204   3.392   2.400
  736SOL    HW2 2220   0.159   3.242   2.445
  737SOL     OW 2221   0.240   2.953   2.748
  737SOL    HW1 2222   0.254   2.869   2.800
  737SOL    HW2 2223   0.185   3.017   2.803
  738SOL     OW 2224   0.620   3.648   3.301
  738SOL    HW1 2225   0.528   3.631   3.336
  738SOL    HW2 2226   0.648   3.740   3.327
  739SOL     OW 2227   0.606   2.826   1.985
  739SOL    HW1 2228   0.613   2.910   1.931
  739SOL    HW2 2229   0.652   2.839   2.073
  740SOL     OW 2230   1.594   1.976   3.342
  740SOL    HW1 2231   1.576   2.043   3.270
  740SOL    HW2 2232   1.591   2.022   3.431
  741SOL     OW 2233   0.122   2.505   2.425
  741SOL    HW1 2234   0.077   2.417   2.442
  741SOL    HW2 2235   0.121   2.559   2.509
  742SOL     OW 2236   1.842   3.629   2.221
  742SOL    HW1 2237   1.896   3.600   2.301
  742SOL    HW2 2238   1.872   3.719   2.192
  743SOL     OW 2239   0.027   3.458   1.979
  743SOL    HW1 2240   0.008   3.362   2.000
  743SOL    HW2 2241  -0.006   3.516   2.054
  744SOL     OW 2242   1.689   2.784   2.474
  744SOL    HW1 2243   1.784   2.755   2.482
  744SOL    HW2 2244   1.681   2.849   2.399
  745SOL     OW 2245   1.641   2.970   2.294
  745SOL    HW1 2246   1.727   2.972   2.242
  745SOL    HW2 2247   1.655   3.017   2.382
  746SOL     OW 2248   0.113   2.599   3.459
  746SOL    HW1 2249   0.201   2.586   3.504
  746SOL    HW2 2250   0.100   2.696   3.437
  747SOL     OW 2251   0.613   3.227   2.588
  747SOL    HW1 2252   0.564   3.140   2.597
  747SOL    HW2 2253   0.590   3.270   2.501
  748SOL     OW 2254   1.293   3.090   3.285
  748SOL    HW1 2255   1.330   3.017   3.227
  748SOL    HW2 2256   1.345   3.095   3.370
  749SOL     OW 2257   0.809   1.866   2.364
  749SOL    HW1 2258   0.849   1.957   2.355
  749SOL    HW2 2259   0.709   1.874   2.370
  750SOL     OW 2260   0.197   2.838   3.126
  750SOL    HW1 2261   0.286   2.793   3.112
  750SOL    HW2 2262   0.124   2.773   3.107
  751SOL     OW 2263   1.525   2.861   2.052
  751SOL    HW1 2264   1.462   2.785   2.065
  751SOL    HW2 2265   1.573   2.879   2.138
  752SOL     OW 2266   1.187   3.654   3.478
  752SOL    HW1 2267   1.211   3.714   3.402
  752SOL    HW2 2268   1.194   3.559   3.448
  753SOL     OW 2269   0.317   2.113   3.663
  753SOL    HW1 2270   0.388   2.184   3.669
  753SOL    HW2 2271   0.229   2.152   3.691
  754SOL     OW 2272   1.466   3.279   2.815
  754SOL    HW1 2273   1.407   3.285   2.895
  754SOL    HW2 2274   1.451   3.191   2.769
  755SOL     OW 2275   1.667   3.576   2.434
  755SOL    HW1 2276   1.626   3.553   2.346
  755SOL    HW2 2277   1.649   3.502   2.499
  756SOL     OW 2278   0.598   2.591   2.132
  756SOL    HW1 2279   0.622   2.660   2.064
  756SOL    HW2 2280   0.520   2.624   2.186
  757SOL     OW 2281   1.281   2.207   2.806
  757SOL    HW1 2282   1.195   2.157   2.793
  757SOL    HW2 2283   1.343   2.153   2.862
  758SOL     OW 2284   1.576   3.524   2.169
  758SOL    HW1 2285   1.665   3.570   2.172
  758SOL    HW2 2286   1.555   3.500   2.074
  759SOL     OW 2287   0.807   2.467   3.327
  759SOL    HW1 2288   0.760   2.464   3.416
  759SOL    HW2 2289   0.756   2.412   3.261
  760SOL     OW 2290   1.394   2.331   3.536
  760SOL    HW1 2291   1.374   2.374   3.624
  760SOL    HW2 2292   1.472   2.269   3.545
  761SOL     OW 2293   0.973   2.752   3.434
  761SOL    HW1 2294   1.019   2.668   3.405
  761SOL    HW2 2295   0.917   2.786   3.359
  762SOL     OW 2296   0.991   2.272   3.104
  762SOL    HW1 2297   0.914   2.306   3.158
  762SOL    HW2 2298   0.957   2.221   3.025
  763SOL     OW 2299   1.041   2.563   2.291
  763SOL    HW1 2300   1.067   2.559   2.387
  763SOL    HW2 2301   0.956   2.512   2.277
  764SOL     OW 2302   0.076   2.673   2.651
  764SOL    HW1 2303   0.175   2.661   2.660
  764SOL    HW2 2304   0.052   2.768   2.672
  765SOL     OW 2305   0.130   3.683   3.433
  765SOL    HW1 2306   0.120   3.668   3.532
  765SOL    HW2 2307   0.044   3.719   3.397
  766SOL     OW 2308   0.865   2.210   2.057
  766SOL    HW1 2309   0.924   2.273   2.008
  766SOL    HW2 2310   0.884   2.116   2.028
  767SOL     OW 2311   1.719   2.447   3.693
  767SOL    HW1 2312   1.693   2.536   3.657
  767SOL    HW2 2313   1.717   2.379   3.620
  768SOL     OW 2314   1.362   3.006   2.407
  768SOL    HW1 2315   1.445   2.977   2.359
  768SOL    HW2 2316   1.313   3.073   2.351
  769SOL     OW 2317   0.550   2.058   2.747
  769SOL    HW1 2318   0.545   2.053   2.847
  769SOL    HW2 2319   0.552   2.154   2.718
  770SOL     OW 2320   1.008   3.318   2.339
  770SOL    HW1 2321   0.962   3.390   2.287
  770SOL    HW2 2322   1.004   3.338   2.437
  771SOL     OW 2323   0.351   3.663   2.715
  771SOL    HW1 2324   0.401   3.577   2.721
  771SOL    HW2 2325   0.416   3.740   2.712
  772SOL     OW 2326   1.795   2.928   2.735
  772SOL    HW1 2327   1.733   2.913   2.659
  772SOL    HW2 2328   1.743   2.939   2.820
  773SOL     OW 2329   1.227   3.412   3.368
  773SOL    HW1 2330   1.233   3.335   3.432
  773SOL    HW2 2331   1.175   3.386   3.288
  774SOL     OW 2332   0.321   2.805   2.104
  774SOL    HW1 2333   0.403   2.844   2.062
  774SOL    HW2 2334   0.294   2.723   2.055
  775SOL     OW 2335   1.458   2.597   2.590
  775SOL    HW1 2336   1.453   2.532   2.665
  775SOL    HW2 2337   1.538   2.656   2.603
  776SOL     OW 2338   0.461   3.128   3.589
  776SOL    HW1 2339   0.411   3.129   3.503
  776SOL    HW2 2340   0.398   3.110   3.665
  777SOL     OW 2341   1.111   3.638   2.099
  777SOL    HW1 2342   1.051   3.576   2.149
  777SOL    HW2 2343   1.142   3.594   2.014
  778SOL     OW 2344   0.202   2.147   3.360
  778SOL    HW1 2345   0.122   2.207   3.347
  778SOL    HW2 2346   0.192   2.098   3.446
  779SOL     OW 2347   1.632   3.239   1.943
  779SOL    HW1 2348   1.600   3.333   1.933
  779SOL    HW2 2349   1.556   3.176   1.931
  780SOL     OW 2350   0.464   3.605   2.185
  780SOL    HW1 2351   0.497   3.644   2.271
  780SOL    HW2 2352   0.540   3.598   2.120
  781SOL     OW 2353   1.400   1.969   2.288
  781SOL    HW1 2354   1.376   1.932   2.198
  781SOL    HW2 2355   1.499   1.985   2.292
  782SOL     OW 2356   0.249   3.647   3.103
  782SOL    HW1 2357   0.306   3.582   3.153
  782SOL    HW2 2358   0.233   3.614   3.010
  783SOL     OW 2359   0.940   3.560   2.766
  783SOL    HW1 2360   1.020   3.503   2.787
  783SOL    HW2 2361   0.891   3.520   2.689
  784SOL     OW 2362   0.382   2.562   2.342
  784SOL    HW1 2363   0.427   2.472   2.339
  784SOL    HW2 2364   0.288   2.551   2.375
  785SOL     OW 2365   1.547   2.084   3.591
  785SOL    HW1 2366   1.542   2.121   3.683
  785SOL    HW2 2367   1.475   2.015   3.579
  786SOL     OW 2368   0.614   1.984   1.979
  786SOL    HW1 2369   0.712   1.962   1.986
  786SOL    HW2 2370   0.583   1.967   1.886
  787SOL     OW 2371   0.781   2.126   3.611
  787SOL    HW1 2372   0.848   2.065   3.654
  787SOL    HW2 2373   0.708   2.145   3.676
  788SOL     OW 2374   0.888   3.376   3.057
  788SOL    HW1 2375   0.865   3.351   2.963
  788SOL    HW2 2376   0.949   3.307   3.096
  789SOL     OW 2377   1.351   2.452   3.295
  789SOL    HW1 2378   1.379   2.409   3.380
  789SOL    HW2 2379   1.376   2.548   3.296
  790SOL     OW 2380   0.803   3.264   2.786
  790SOL    HW1 2381   0.893   3.278   2.744
  790SOL    HW2 2382   0.732   3.266   2.715
  791SOL     OW 2383   0.922   2.365   2.761
  791SOL    HW1 2384   0.897   2.356   2.665
  791SOL    HW2 2385   0.970   2.283   2.792
  792SOL     OW 2386   0.539   1.926   2.374
  792SOL    HW1 2387   0.458   1.927   2.432
  792SOL    HW2 2388   0.542   2.009   2.319
  793SOL     OW 2389   1.434   3.050   1.903
  793SOL    HW1 2390   1.466   2.974   1.960
  793SOL    HW2 2391   1.342   3.077   1.933
  794SOL     OW 2392   0.297   1.897   2.033
  794SOL    HW1 2393   0.346   1.981   2.012
  794SOL    HW2 2394   0.359   1.832   2.078
  795SOL     OW 2395   0.935   2.098   2.342
  795SOL    HW1 2396   0.887   2.139   2.264
  795SOL    HW2 2397   1.034   2.096   2.323
  796SOL     OW 2398   1.076   2.545   3.326
  796SOL    HW1 2399   0.996   2.484   3.329
  796SOL    HW2 2400   1.157   2.492   3.302
  797SOL     OW 2401   1.227   3.432   2.655
  797SOL    HW1 2402   1.248   3.506   2.590
  797SOL    HW2 2403   1.295   3.432   2.728
  798SOL     OW 2404   0.459   3.014   2.603
  798SOL    HW1 2405   0.388   2.987   2.668
  798SOL    HW2 2406   0.433   2.986   2.510
  799SOL     OW 2407   1.271   3.659   2.453
  799SOL    HW1 2408   1.315   3.723   2.389
  799SOL    HW2 2409   1.221   3.711   2.523
  800SOL     OW 2410   1.032   2.411   1.878
  800SOL    HW1 2411   0.991   2.493   1.839
  800SOL    HW2 2412   1.096   2.437   1.951
  801SOL     OW 2413   0.078   2.418   3.248
  801SOL    HW1 2414   0.170   2.417   3.207
  801SOL    HW2 2415   0.072   2.492   3.315
  802SOL     OW 2416   0.561   2.084   3.009
  802SOL    HW1 2417   0.599   2.000   3.046
  802SOL    HW2 2418   0.473   2.103   3.053
  803SOL     OW 2419   0.866   2.316   2.504
  803SOL    HW1 2420   0.834   2.388   2.442
  803SOL    HW2 2421   0.890   2.235   2.451
  804SOL     OW 2422   1.017   1.901   2.615
  804SOL    HW1 2423   0.945   1.906   2.546
  804SOL    HW2 2424   0.993   1.832   2.684
  805SOL     OW 2425   1.429   3.035   2.729
  805SOL    HW1 2426   1.374   2.951   2.722
  805SOL    HW2 2427   1.455   3.064   2.637
  806SOL     OW 2428   1.466   2.452   2.854
  806SOL    HW1 2429   1.436   2.357   2.861
  806SOL    HW2 2430   1.539   2.468   2.920
  807SOL     OW 2431   1.857   2.695   2.239
  807SOL    HW1 2432   1.899   2.631   2.303
  807SOL    HW2 2433   1.819   2.644   2.161
  808SOL     OW 2434   0.488   3.247   2.036
  808SOL    HW1 2435   0.401   3.232   2.083
  808SOL    HW2 2436   0.471   3.273   1.941
  809SOL     OW 2437   1.664   3.142   2.519
  809SOL    HW1 2438   1.763   3.150   2.533
  809SOL    HW2 2439   1.619   3.226   2.550
  810SOL     OW 2440   1.390   2.437   1.940
  810SOL    HW1 2441   1.336   2.416   2.021
  810SOL    HW2 2442   1.481   2.396   1.949
  811SOL     OW 2443   0.527   2.118   2.190
  811SOL    HW1 2444   0.554   2.059   2.115
  811SOL    HW2 2445   0.527   2.213   2.159
  812SOL     OW 2446   1.754   3.085   3.450
  812SOL    HW1 2447   1.845   3.046   3.437
  812SOL    HW2 2448   1.762   3.181   3.474
  813SOL     OW 2449   1.064   3.209   3.202
  813SOL    HW1 2450   0.984   3.186   3.257
  813SOL    HW2 2451   1.147   3.183   3.251
  814SOL     OW 2452   1.592   3.491   3.487
  814SOL    HW1 2453   1.619   3.525   3.397
  814SOL    HW2 2454   1.671   3.453   3.533
  815SOL     OW 2455   1.111   3.057   2.962
  815SOL    HW1 2456   1.071   3.101   3.043
  815SOL    HW2 2457   1.070   3.094   2.879
  816SOL     OW 2458   1.638   2.961   2.941
  816SOL    HW1 2459   1.643   3.042   3.000
  816SOL    HW2 2460   1.552   2.963   2.890
  817SOL     OW 2461   0.915   1.951   3.264
  817SOL    HW1 2462   0.940   1.931   3.169
  817SOL    HW2 2463   0.987   2.007   3.306
  818SOL     OW 2464   0.980   2.978   3.581
  818SOL    HW1 2465   0.881   2.984   3.591
  818SOL    HW2 2466   1.003   2.898   3.525
  819SOL     OW 2467   0.705   2.912   2.230
  819SOL    HW1 2468   0.691   2.919   2.329
  819SOL    HW2 2469   0.789   2.861   2.212
  820SOL     OW 2470   0.410   2.675   3.113
  820SOL    HW1 2471   0.496   2.687   3.163
  820SOL    HW2 2472   0.368   2.588   3.140
  821SOL     OW 2473   1.274   2.248   3.124
  821SOL    HW1 2474   1.295   2.322   3.188
  821SOL    HW2 2475   1.185   2.265   3.081
  822SOL     OW 2476   0.064   3.426   3.193
  822SOL    HW1 2477   0.018   3.508   3.159
  822SOL    HW2 2478   0.162   3.445   3.202
  823SOL     OW 2479   0.367   2.962   2.363
  823SOL    HW1 2480   0.360   3.045   2.307
  823SOL    HW2 2481   0.371   2.882   2.303
  824SOL     OW 2482   0.566   2.399   2.727
  824SOL    HW1 2483   0.578   2.465   2.653
  824SOL    HW2 2484   0.612   2.433   2.810
  825SOL     OW 2485   1.252   3.210   2.250
  825SOL    HW1 2486   1.302   3.287   2.290
  825SOL    HW2 2487   1.157   3.212   2.282
  826SOL     OW 2488   1.272   3.307   3.004
  826SOL    HW1 2489   1.319   3.320   3.091
  826SOL    HW2 2490   1.206   3.233   3.013
  827SOL     OW 2491   1.582   2.501   2.334
  827SOL    HW1 2492   1.551   2.562   2.407
  827SOL    HW2 2493   1.632   2.553   2.265
  828SOL     OW 2494   0.354   3.372   3.191
  828SOL    HW1 2495   0.333   3.328   3.104
  828SOL    HW2 2496   0.451   3.398   3.194
  829SOL     OW 2497   0.402   2.613   3.460
  829SOL    HW1 2498   0.470   2.668   3.413
  829SOL    HW2 2499   0.442   2.525   3.487
  830SOL     OW 2500   1.587   2.641   3.532
  830SOL    HW1 2501   1.495   2.679   3.527
  830SOL    HW2 2502   1.647   2.688   3.467
  831SOL     OW 2503   1.013   1.967   3.632
  831SOL    HW1 2504   1.019   2.052   3.580
  831SOL    HW2 2505   1.045   1.891   3.575
  832SOL     OW 2506   0.504   1.912   3.602
  832SOL    HW1 2507   0.462   1.855   3.532
  832SOL    HW2 2508   0.438   1.981   3.634
  833SOL     OW 2509   0.573   2.732   2.891
  833SOL    HW1 2510   0.617   2.821   2.882
  833SOL    HW2 2511   0.510   2.732   2.968
  834SOL     OW 2512   1.360   2.724   2.907
  834SOL    HW1 2513   1.285   2.724   2.841
  834SOL    HW2 2514   1.397   2.632   2.916
  835SOL     OW 2515   1.209   2.387   2.137
  835SOL    HW1 2516   1.222   2.303   2.191
  835SOL    HW2 2517   1.180   2.461   2.197
  836SOL     OW 2518   0.307   2.075   3.093
  836SOL    HW1 2519   0.284   2.112   3.183
  836SOL    HW2 2520   0.277   1.980   3.087
  837SOL     OW 2521   0.037   3.172   3.144
  837SOL    HW1 2522   0.090   3.123   3.212
  837SOL    HW2 2523   0.059   3.270   3.149
  838SOL     OW 2524   0.732   2.496   2.926
  838SOL    HW1 2525   0.791   2.470   2.850
  838SOL    HW2 2526   0.704   2.592   2.915
  839SOL     OW 2527   1.728   2.797   3.716
  839SOL    HW1 2528   1.682   2.790   3.627
  839SOL    HW2 2529   1.666   2.841   3.782
  840SOL     OW 2530   0.307   1.925   2.480
  840SOL    HW1 2531   0.296   2.019   2.513
  840SOL    HW2 2532   0.302   1.862   2.557
  841SOL     OW 2533   1.622   2.229   2.236
  841SOL    HW1 2534   1.624   2.153   2.300
  841SOL    HW2 2535   1.574   2.306   2.276
  842SOL     OW 2536   1.023   2.628   2.828
  842SOL    HW1 2537   1.038   2.649   2.924
  842SOL    HW2 2538   0.993   2.533   2.819
  843SOL     OW 2539   0.980   3.435   3.562
  843SOL    HW1 2540   0.960   3.479   3.474
  843SOL    HW2 2541   1.019   3.344   3.546
  844SOL     OW 2542   1.859   3.380   3.467
  844SOL    HW1 2543   1.873   3.407   3.372
  844SOL    HW2 2544   1.942   3.402   3.520
  845SOL     OW 2545   0.350   2.760   3.666
  845SOL    HW1 2546   0.426   2.804   3.714
  845SOL    HW2 2547   0.385   2.713   3.584
  846SOL     OW 2548   1.540   2.136   1.987
  846SOL    HW1 2549   1.479   2.061   2.010
  846SOL    HW2 2550   1.562   2.188   2.070
  847SOL     OW 2551   1.303   2.700   1.904
  847SOL    HW1 2552   1.337   2.607   1.919
  847SOL    HW2 2553   1.321   2.727   1.809
  848SOL     OW 2554   1.068   3.195   2.711
  848SOL    HW1 2555   1.075   3.111   2.656
  848SOL    HW2 2556   1.130   3.264   2.675
  849SOL     OW 2557   0.319   2.672   2.811
  849SOL    HW1 2558   0.412   2.708   2.816
  849SOL    HW2 2559   0.313   2.587   2.863
  850SOL     OW 2560   0.339   2.371   2.868
  850SOL    HW1 2561   0.287   2.288   2.851
  850SOL    HW2 2562   0.416   2.376   2.804
  851SOL     OW 2563   1.138   2.242   3.540
  851SOL    HW1 2564   1.093   2.305   3.604
  851SOL    HW2 2565   1.231   2.273   3.523
  852SOL     OW 2566   1.160   2.069   3.339
  852SOL    HW1 2567   1.160   2.133   3.416
  852SOL    HW2 2568   1.188   2.117   3.256
  853SOL     OW 2569   0.008   3.188   2.062
  853SOL    HW1 2570  -0.085   3.209   2.031
  853SOL    HW2 2571   0.018   3.089   2.075
  854SOL     OW 2572   0.088   3.663   2.789
  854SOL    HW1 2573   0.046   3.577   2.762
  854SOL    HW2 2574   0.182   3.666   2.755
  855SOL     OW 2575   0.504   3.430   2.772
  855SOL    HW1 2576   0.570   3.504   2.781
  855SOL    HW2 2577   0.548   3.351   2.730
  856SOL     OW 2578   1.002   2.658   3.100
  856SOL    HW1 2579   1.043   2.626   3.186
  856SOL    HW2 2580   0.906   2.631   3.097
  857SOL     OW 2581   0.040   2.406   2.976
  857SOL    HW1 2582   0.125   2.373   2.935
  857SOL    HW2 2583   0.053   2.421   3.074
  858SOL     OW 2584   0.189   2.382   3.584
  858SOL    HW1 2585   0.248   2.342   3.514
  858SOL    HW2 2586   0.131   2.453   3.543
  859SOL     OW 2587   1.369   2.812   3.522
  859SOL    HW1 2588   1.408   2.901   3.542
  859SOL    HW2 2589   1.379   2.792   3.425
  860SOL     OW 2590   0.815   2.434   2.187
  860SOL    HW1 2591   0.822   2.345   2.141
  860SOL    HW2 2592   0.721   2.468   2.179
  861SOL     OW 2593   1.657   2.466   3.068
  861SOL    HW1 2594   1.619   2.397   3.130
  861SOL    HW2 2595   1.739   2.430   3.024
  862SOL     OW 2596   0.252   3.426   3.606
  862SOL    HW1 2597   0.222   3.483   3.682
  862SOL    HW2 2598   0.245   3.329   3.632
  863SOL     OW 2599   0.671   2.326   3.131
  863SOL    HW1 2600   0.637   2.237   3.101
  863SOL    HW2 2601   0.697   2.380   3.051
  864SOL     OW 2602   0.930   3.540   3.327
  864SOL    HW1 2603   0.906   3.522   3.232
  864SOL    HW2 2604   0.960   3.634   3.337
  865SOL     OW 2605   0.473   2.362   2.053
  865SOL    HW1 2606   0.534   2.442   2.057
  865SOL    HW2 2607   0.378   2.393   2.060
  866SOL     OW 2608   0.159   2.999   3.328
  866SOL    HW1 2609   0.181   2.938   3.404
  866SOL    HW2 2610   0.169   2.950   3.242
  867SOL     OW 2611   1.347   2.921   3.096
  867SOL    HW1 2612   1.371   2.858   3.022
  867SOL    HW2 2613   1.257   2.961   3.078
  868SOL     OW 2614   1.302   2.717   2.171
  868SOL    HW1 2615   1.216   2.686   2.213
  868SOL    HW2 2616   1.298   2.703   2.072
  869SOL     OW 2617   1.759   3.609   3.016
  869SOL    HW1 2618   1.820   3.639   2.943
  869SOL    HW2 2619   1.721   3.520   2.994
  870SOL     OW 2620   1.252   3.593   2.990
  870SOL    HW1 2621   1.336   3.598   2.936
  870SOL    HW2 2622   1.229   3.497   3.008
  871SOL     OW 2623   0.083   3.120   2.884
  871SOL    HW1 2624   0.078   3.119   2.984
  871SOL    HW2 2625   0.000   3.079   2.846
  872SOL     OW 2626   0.688   3.524   3.578
  872SOL    HW1 2627   0.632   3.605   3.587
  872SOL    HW2 2628   0.740   3.528   3.492
  873SOL     OW 2629   1.726   1.997   2.385
  873SOL    HW1 2630   1.799   1.980   2.318
  873SOL    HW2 2631   1.695   1.910   2.423
  874SOL     OW 2632   1.388   3.435   2.339
  874SOL    HW1 2633   1.455   3.447   2.265
  874SOL    HW2 2634   1.348   3.524   2.362
  875SOL     OW 2635   0.130   3.656   3.713
  875SOL    HW1 2636   0.089   3.582   3.766
  875SOL    HW2 2637   0.194   3.707   3.771
  876SOL     OW 2638   1.280   2.789   2.534
  876SOL    HW1 2639   1.340   2.708   2.536
  876SOL    HW2 2640   1.320   2.858   2.474
  877SOL     OW 2641   0.830   3.135   3.284
  877SOL    HW1 2642   0.825   3.168   3.379
  877SOL    HW2 2643   0.744   3.154   3.238
  878SOL     OW 2644   0.672   3.478   2.016
  878SOL    HW1 2645   0.681   3.488   1.917
  878SOL    HW2 2646   0.632   3.389   2.037
  879SOL     OW 2647   1.650   3.582   3.256
  879SOL    HW1 2648   1.703   3.592   3.172
  879SOL    HW2 2649   1.623   3.672   3.290
  880SOL     OW 2650   1.841   2.037   2.825
  880SOL    HW1 2651   1.880   1.952   2.789
  880SOL    HW2 2652   1.743   2.039   2.806
  881SOL     OW 2653   0.263   2.188   2.582
  881SOL    HW1 2654   0.184   2.239   2.548
  881SOL    HW2 2655   0.254   2.173   2.680
  882SOL     OW 2656   1.194   3.474   1.893
  882SOL    HW1 2657   1.200   3.381   1.930
  882SOL    HW2 2658   1.135   3.474   1.813
  883SOL     OW 2659   0.822   2.864   3.234
  883SOL    HW1 2660   0.862   2.863   3.142
  883SOL    HW2 2661   0.832   2.956   3.274
  884SOL     OW 2662   0.916   2.772   2.153
  884SOL    HW1 2663   0.979   2.810   2.085
  884SOL    HW2 2664   0.956   2.689   2.192
  885SOL     OW 2665   1.504   3.469   1.906
  885SOL    HW1 2666   1.412   3.506   1.913
  885SOL    HW2 2667   1.542   3.489   1.816
  886SOL     OW 2668   0.372   3.150   3.352
  886SOL    HW1 2669   0.359   3.243   3.318
  886SOL    HW2 2670   0.288   3.098   3.339
  887SOL     OW 2671   1.614   3.154   3.151
  887SOL    HW1 2672   1.674   3.157   3.231
  887SOL    HW2 2673   1.539   3.218   3.164
  888SOL     OW 2674   1.039   2.960   2.558
  888SOL    HW1 2675   0.969   2.913   2.612
  888SOL    HW2 2676   1.098   2.892   2.515
  889SOL     OW 2677   1.014   2.098   2.833
  889SOL    HW1 2678   1.006   2.062   2.740
  889SOL    HW2 2679   1.012   2.022   2.898
  890SOL     OW 2680   0.590   3.349   2.353
  890SOL    HW1 2681   0.632   3.291   2.283
  890SOL    HW2 2682   0.546   3.428   2.309
  891SOL     OW 2683   1.709   2.247   3.243
  891SOL    HW1 2684   1.782   2.316   3.247
  891SOL    HW2 2685   1.737   2.172   3.184
  892SOL     OW 2686   0.255   3.210   2.152
  892SOL    HW1 2687   0.159   3.211   2.125
  892SOL    HW2 2688   0.267   3.263   2.236
  893SOL     OW 2689   0.105   2.875   3.588
  893SOL    HW1 2690   0.028   2.842   3.642
  893SOL    HW2 2691   0.190   2.845   3.630
  894SOL     OW 2692   0.672   2.065   3.351
  894SOL    HW1 2693   0.762   2.049   3.311
  894SOL    HW2 2694   0.680   2.070   3.450
  895SOL     OW 2695   0.075   2.207   1.895
  895SOL    HW1 2696  -0.017   2.179   1.866
  895SOL    HW2 2697   0.106   2.284   1.839
  896SOL     OW 2698   1.440   2.718   3.260
  896SOL    HW1 2699   1.383   2.770   3.197
  896SOL    HW2 2700   1.536   2.730   3.236
  897SOL     OW 2701   0.072   2.028   2.180
  897SOL    HW1 2702   0.055   2.111   2.126
  897SOL    HW2 2703   0.162   1.991   2.158
  898SOL     OW 2704   1.183   3.197   1.981
  898SOL    HW1 2705   1.084   3.186   1.983
  898SOL    HW2 2706   1.217   3.212   2.074
  899SOL     OW 2707   0.613   2.704   3.293
  899SOL    HW1 2708   0.669   2.785   3.276
  899SOL    HW2 2709   0.672   2.624   3.296
  900SOL     OW 2710   1.493   3.629   2.821
  900SOL    HW1 2711   1.526   3.693   2.752
  900SOL    HW2 2712   1.559   3.623   2.896
  901SOL     OW 2713   0.716   2.427   3.570
  901SOL    HW1 2714   0.735   2.492   3.644
  901SOL    HW2 2715   0.776   2.347   3.579
  902SOL     OW 2716   1.450   3.082   3.495
  902SOL    HW1 2717   1.441   3.072   3.594
  902SOL    HW2 2718   1.546   3.075   3.469
  903SOL     OW 2719   0.390   3.603   3.422
  903SOL    HW1 2720   0.299   3.644   3.420
  903SOL    HW2 2721   0.383   3.509   3.454
  904SOL     OW 2722   1.674   2.745   3.116
  904SOL    HW1 2723   1.647   2.656   3.079
  904SOL    HW2 2724   1.675   2.813   3.043
  905SOL     OW 2725   1.225   2.187   2.311
  905SOL    HW1 2726   1.290   2.113   2.300
  905SOL    HW2 2727   1.245   2.237   2.395
  906SOL     OW 2728   0.594   2.607   2.514
  906SOL    HW1 2729   0.644   2.692   2.495
  906SOL    HW2 2730   0.506   2.609   2.466
  907SOL     OW 2731   1.777   2.204   3.504
  907SOL    HW1 2732   1.760   2.235   3.410
  907SOL    HW2 2733   1.693   2.167   3.542
  908SOL     OW 2734   1.730   2.796   3.379
  908SOL    HW1 2735   1.768   2.887   3.394
  908SOL    HW2 2736   1.722   2.779   3.280
  909SOL     OW 2737   0.859   3.236   1.878
  909SOL    HW1 2738   0.813   3.251   1.966
  909SOL    HW2 2739   0.903   3.321   1.848
  910SOL     OW 2740   0.661   3.652   2.815
  910SOL    HW1 2741   0.615   3.740   2.802
  910SOL    HW2 2742   0.760   3.664   2.808
  911SOL     OW 2743   0.859   2.818   2.723
  911SOL    HW1 2744   0.913   2.749   2.771
  911SOL    HW2 2745   0.827   2.887   2.789
  912SOL     OW 2746   1.083   2.846   1.949
  912SOL    HW1 2747   1.060   2.899   1.867
  912SOL    HW2 2748   1.164   2.790   1.930
  913SOL     OW 2749   1.861   3.431   2.713
  913SOL    HW1 2750   1.790   3.419   2.643
  913SOL    HW2 2751   1.862   3.352   2.773
  914SOL     OW 2752   0.221   3.176   3.706
  914SOL    HW1 2753   0.156   3.103   3.685
  914SOL    HW2 2754   0.225   3.190   3.804
  915SOL     OW 2755   0.079   3.102   2.515
  915SOL    HW1 2756   0.078   3.055   2.603
  915SOL    HW2 2757   0.161   3.074   2.464
  916SOL     OW 2758   0.672   3.253   3.486
  916SOL    HW1 2759   0.594   3.203   3.524
  916SOL    HW2 2760   0.669   3.348   3.517
  917SOL     OW 2761   1.824   2.054   3.089
  917SOL    HW1 2762   1.820   1.964   3.133
  917SOL    HW2 2763   1.827   2.043   2.990
  918SOL     OW 2764   0.428   2.286   2.382
  918SOL    HW1 2765   0.458   2.214   2.320
  918SOL    HW2 2766   0.389   2.246   2.465
  919SOL     OW 2767   1.705   3.349   2.966
  919SOL    HW1 2768   1.612   3.324   2.939
  919SOL    HW2 2769   1.731   3.299   3.048
  920SOL     OW 2770   0.317   2.409   3.142
  920SOL    HW1 2771   0.355   2.350   3.214
  920SOL    HW2 2772   0.357   2.383   3.054
  921SOL     OW 2773   0.812   3.448   2.549
  921SOL    HW1 2774   0.844   3.458   2.455
  921SOL    HW2 2775   0.733   3.386   2.551
  922SOL     OW 2776   1.424   2.076   2.974
  922SOL    HW1 2777   1.476   2.011   3.029
  922SOL    HW2 2778   1.375   2.139   3.035
  923SOL     OW 2779   1.001   1.896   3.016
  923SOL    HW1 2780   0.938   1.824   2.985
  923SOL    HW2 2781   1.094   1.860   3.016
  924SOL     OW 2782   0.770   3.192   2.163
  924SOL    HW1 2783   0.724   3.105   2.180
  924SOL    HW2 2784   0.861   3.189   2.204
  925SOL     OW 2785   0.618   3.429   3.146
  925SOL    HW1 2786   0.613   3.511   3.203
  925SOL    HW2 2787   0.707   3.426   3.101
  926SOL     OW 2788   1.352   1.914   2.030
  926SOL    HW1 2789   1.387   1.873   1.946
  926SOL    HW2 2790   1.262   1.876   2.050
  927SOL     OW 2791   1.300   2.315   2.553
  927SOL    HW1 2792   1.241   2.395   2.557
  927SOL    HW2 2793   1.315   2.280   2.646
  928SOL     OW 2794   1.593   2.083   2.744
  928SOL    HW1 2795   1.509   2.082   2.798
  928SOL    HW2 2796   1.595   2.166   2.688
  929SOL     OW 2797   0.039   2.939   2.162
  929SOL    HW1 2798   0.138   2.928   2.153
  929SOL    HW2 2799  -0.001   2.853   2.194
  930SOL     OW 2800   0.875   3.508   2.199
  930SOL    HW1 2801   0.798   3.473   2.145
  930SOL    HW2 2802   0.843   3.579   2.261
  931SOL     OW 2803   0.230   2.490   3.837
  931SOL    HW1 2804   0.137   2.488   3.874
  931SOL    HW2 2805   0.231   2.451   3.745
  932SOL     OW 2806   1.755   2.469   3.955
  932SOL    HW1 2807   1.743   2.456   3.856
  932SOL    HW2 2808   1.725   2.388   4.004
  933SOL     OW 2809   0.231   3.575   4.207
  933SOL    HW1 2810   0.265   3.652   4.261
  933SOL    HW2 2811   0.275   3.575   4.117
  934SOL     OW 2812   0.230   3.296   4.262
  934SOL    HW1 2813   0.204   3.392   4.262
  934SOL    HW2 2814   0.159   3.242   4.307
  935SOL     OW 2815   0.606   2.826   3.847
  935SOL    HW1 2816   0.613   2.910   3.793
  935SOL    HW2 2817   0.652   2.839   3.935
  936SOL     OW 2818   0.122   2.505   4.287
  936SOL    HW1 2819   0.077   2.417   4.304
  936SOL    HW2 2820   0.121   2.559   4.371
  937SOL     OW 2821   1.842   3.629   4.083
  937SOL    HW1 2822   1.896   3.600   4.163
  937SOL    HW2 2823   1.872   3.719   4.054
  938SOL     OW 2824   0.027   3.458   3.841
  938SOL    HW1 2825   0.008   3.362   3.862
  938SOL    HW2 2826  -0.006   3.516   3.916
  939SOL     OW 2827   1.689   2.784   4.336
  939SOL    HW1 2828   1.784   2.755   4.344
  939SOL    HW2 2829   1.681   2.849   4.261
  940SOL     OW 2830   1.641   2.970   4.156
  940SOL    HW1 2831   1.727   2.972   4.104
  940SOL    HW2 2832   1.655   3.017   4.244
  941SOL     OW 2833   0.613   3.227   4.450
  941SOL    HW1 2834   0.564   3.140   4.459
  941SOL    HW2 2835   0.590   3.270   4.363
  942SOL     OW 2836   0.809   1.866   4.226
  942SOL    HW1 2837   0.849   1.957   4.217
  942SOL    HW2 2838   0.709   1.874   4.232
  943SOL     OW 2839   1.525   2.861   3.914
  943SOL    HW1 2840   1.462   2.785   3.927
  943SOL    HW2 2841   1.573   2.879   4.000
  944SOL     OW 2842   1.466   3.279   4.677
  944SOL    HW1 2843   1.407   3.285   4.757
  944SOL    HW2 2844   1.451   3.191   4.631
  945SOL     OW 2845   0.598   2.591   3.994
  945SOL    HW1 2846   0.622   2.660   3.926
  945SOL    HW2 2847   0.520   2.624   4.048
  946SOL     OW 2848   1.281   2.207   4.668
  946SOL    HW1 2849   1.195   2.157   4.655
  946SOL    HW2 2850   1.343   2.153   4.724
  947SOL     OW 2851   1.576   3.524   4.031
  947SOL    HW1 2852   1.665   3.570   4.034
  947SOL    HW2 2853   1.555   3.500   3.936
  948SOL     OW 2854   1.041   2.563   4.153
  948SOL    HW1 2855   1.067   2.559   4.249
  948SOL    HW2 2856   0.956   2.512   4.139
  949SOL     OW 2857   0.076   2.673   4.513
  949SOL    HW1 2858   0.175   2.661   4.522
  949SOL    HW2 2859   0.052   2.768   4.534
  950SOL     OW 2860   0.865   2.210   3.919
  950SOL    HW1 2861   0.924   2.273   3.870
  950SOL    HW2 2862   0.884   2.116   3.890
  951SOL     OW 2863   1.362   3.006   4.269
  951SOL    HW1 2864   1.445   2.977   4.221
  951SOL    HW2 2865   1.313   3.073   4.213
  952SOL     OW 2866   1.008   3.318   4.201
  952SOL    HW1 2867   0.962   3.390   4.149
  952SOL    HW2 2868   1.004   3.338   4.299
  953SOL     OW 2869   0.351   3.663   4.577
  953SOL    HW1 2870   0.401   3.577   4.583
  953SOL    HW2 2871   0.416   3.740   4.574
  954SOL     OW 2872   1.795   2.928   4.597
  954SOL    HW1 2873   1.733   2.913   4.521
  954SOL    HW2 2874   1.743   2.939   4.682
  955SOL     OW 2875   0.321   2.805   3.966
  955SOL    HW1 2876   0.403   2.844   3.924
  955SOL    HW2 2877   0.294   2.723   3.917
  956SOL     OW 2878   1.111   3.638   3.961
  956SOL    HW1 2879   1.051   3.576   4.011
  956SOL    HW2 2880   1.142   3.594   3.876
  957SOL     OW 2881   1.632   3.239   3.805
  957SOL    HW1 2882   1.600   3.333   3.795
  957SOL    HW2 2883   1.556   3.176   3.793
  958SOL     OW 2884   0.464   3.605   4.047
  958SOL    HW1 2885   0.497   3.644   4.133
  958SOL    HW2 2886   0.540   3.598   3.982
  959SOL     OW 2887   1.400   1.969   4.150
  959SOL    HW1 2888   1.376   1.932   4.060
  959SOL    HW2 2889   1.499   1.985   4.154
  960SOL     OW 2890   0.382   2.562   4.204
  960SOL    HW1 2891   0.427   2.472   4.201
  960SOL    HW2 2892   0.288   2.551   4.237
  961SOL     OW 2893   0.614   1.984   3.841
  961SOL    HW1 2894   0.712   1.962   3.848
  961SOL    HW2 2895   0.583   1.967   3.748
  962SOL     OW 2896   0.539   1.926   4.236
  962SOL    HW1 2897   0.458   1.927   4.294
  962SOL    HW2 2898   0.542   2.009   4.181
  963SOL     OW 2899   1.434   3.050   3.765
  963SOL    HW1 2900   1.466   2.974   3.822
  963SOL    HW2 2901   1.342   3.077   3.795
  964SOL     OW 2902   0.297   1.897   3.895
  964SOL    HW1 2903   0.346   1.981   3.874
  964SOL    HW2 2904   0.359   1.832   3.940
  965SOL     OW 2905   0.935   2.098   4.204
  965SOL    HW1 2906   0.887   2.139   4.126
  965SOL    HW2 2907   1.034   2.096   4.185
  966SOL     OW 2908   0.459   3.014   4.465
  966SOL    HW1 2909   0.388   2.987   4.530
  966SOL    HW2 2910   0.433   2.986   4.372
  967SOL     OW 2911   1.271   3.659   4.315
  967SOL    HW1 2912   1.315   3.723   4.251
  967SOL    HW2 2913   1.221   3.711   4.385
  968SOL     OW 2914   1.032   2.411   3.740
  968SOL    HW1 2915   0.991   2.493   3.701
  968SOL    HW2 2916   1.096   2.437   3.813
  969SOL     OW 2917   0.866   2.316   4.366
  969SOL    HW1 2918   0.834   2.388   4.304
  969SOL    HW2 2919   0.890   2.235   4.313
  970SOL     OW 2920   1.857   2.695   4.101
  970SOL    HW1 2921   1.899   2.631   4.165
  970SOL    HW2 2922   1.819   2.644   4.023
  971SOL     OW 2923   0.488   3.247   3.898
  971SOL    HW1 2924   0.401   3.232   3.945
  971SOL    HW2 2925   0.471   3.273   3.803
  972SOL     OW 2926   1.390   2.437   3.802
  972SOL    HW1 2927   1.336   2.416   3.883
  972SOL    HW2 2928   1.481   2.396   3.811
  973SOL     OW 2929   0.527   2.118   4.052
  973SOL    HW1 2930   0.554   2.059   3.977
  973SOL    HW2 2931   0.527   2.213   4.021
  974SOL     OW 2932   0.705   2.912   4.092
  974SOL    HW1 2933   0.691   2.919   4.191
  974SOL    HW2 2934   0.789   2.861   4.074
  975SOL     OW 2935   0.367   2.962   4.225
  975SOL    HW1 2936   0.360   3.045   4.169
  975SOL    HW2 2937   0.371   2.882   4.165
  976SOL     OW 2938   1.252   3.210   4.112
  976SOL    HW1 2939   1.302   3.287   4.152
  976SOL    HW2 2940   1.157   3.212   4.144
  977SOL     OW 2941   1.582   2.501   4.196
  977SOL    HW1 2942   1.551   2.562   4.269
  977SOL    HW2 2943   1.632   2.553   4.127
  978SOL     OW 2944   1.209   2.387   3.999
  978SOL    HW1 2945   1.222   2.303   4.053
  978SOL    HW2 2946   1.180   2.461   4.059
  979SOL     OW 2947   0.307   1.925   4.342
  979SOL    HW1 2948   0.296   2.019   4.375
  979SOL    HW2 2949   0.302   1.862   4.419
  980SOL     OW 2950   1.622   2.229   4.098
  980SOL    HW1 2951   1.624   2.153   4.162
  980SOL    HW2 2952   1.574   2.306   4.138
  981SOL     OW 2953   1.540   2.136   3.849
  981SOL    HW1 2954   1.479   2.061   3.872
  981SOL    HW2 2955   1.562   2.188   3.932
  982SOL     OW 2956   1.303   2.700   3.766
  982SOL    HW1 2957   1.337   2.607   3.781
  982SOL    HW2 2958   1.321   2.727   3.671
  983SOL     OW 2959   0.008   3.188   3.924
  983SOL    HW1 2960  -0.085   3.209   3.893
  983SOL    HW2 2961   0.018   3.089   3.937
  984SOL     OW 2962   0.815   2.434   4.049
  984SOL    HW1 2963   0.822   2.345   4.003
  984SOL    HW2 2964   0.721   2.468   4.041
  985SOL     OW 2965   0.473   2.362   3.915
  985SOL    HW1 2966   0.534   2.442   3.919
  985SOL    HW2 2967   0.378   2.393   3.922
  986SOL     OW 2968   1.302   2.717   4.033
  986SOL    HW1 2969   1.216   2.686   4.075
  986SOL    HW2 2970   1.298   2.703   3.934
  987SOL     OW 2971   1.726   1.997   4.247
  987SOL    HW1 2972   1.799   1.980   4.180
  987SOL    HW2 2973   1.695   1.910   4.285
  988SOL     OW 2974   1.388   3.435   4.201
  988SOL    HW1 2975   1.455   3.447   4.127
  988SOL    HW2 2976   1.348   3.524   4.224
  989SOL     OW 2977   0.672   3.478   3.878
  989SOL    HW1 2978   0.681   3.488   3.779
  989SOL    HW2 2979   0.632   3.389   3.899
  990SOL     OW 2980   1.841   2.037   4.687
  990SOL    HW1 2981   1.880   1.952   4.651
  990SOL    HW2 2982   1.743   2.039   4.668
  991SOL     OW 2983   1.194   3.474   3.755
  991SOL    HW1 2984   1.200   3.381   3.792
  991SOL    HW2 2985   1.135   3.474   3.675
  992SOL     OW 2986   0.916   2.772   4.015
  992SOL    HW1 2987   0.979   2.810   3.947
  992SOL    HW2 2988   0.956   2.689   4.054
  993SOL     OW 2989   1.504   3.469   3.768
  993SOL    HW1 2990   1.412   3.506   3.775
  993SOL    HW2 2991   1.542   3.489   3.678
  994SOL     OW 2992   0.590   3.349   4.215
  994SOL    HW1 2993   0.632   3.291   4.145
  994SOL    HW2 2994   0.546   3.428   4.171
  995SOL     OW 2995   0.255   3.210   4.014
  995SOL    HW1 2996   0.159   3.211   3.987
  995SOL    HW2 2997   0.267   3.263   4.098
  996SOL     OW 2998   0.075   2.207   3.757
  996SOL    HW1 2999  -0.017   2.179   3.728
  996SOL    HW2 3000   0.106   2.284   3.701
  997SOL     OW 3001   0.072   2.028   4.042
  997SOL    HW1 3002   0.055   2.111   3.988
  997SOL    HW2 3003   0.162   1.991   4.020
  998SOL     OW 3004   1.183   3.197   3.843
  998SOL    HW1 3005   1.084   3.186   3.845
  998SOL    HW2 3006   1.217   3.212   3.936
  999SOL     OW 3007   1.225   2.187   4.173
  999SOL    HW1 3008   1.290   2.113   4.162
  999SOL    HW2 3009   1.245   2.237   4.257
 1000SOL     OW 3010   0.594   2.607   4.376
 1000SOL    HW1 3011   0.644   2.692   4.357
 1000SOL    HW2 3012   0.506   2.609   4.328
 1001SOL     OW 3013   0.859   3.236   3.740
 1001SOL    HW1 3014   0.813   3.251   3.828
 1001SOL    HW2 3015   0.903   3.321   3.710
 1002SOL     OW 3016   1.083   2.846   3.811
 1002SOL    HW1 3017   1.060   2.899   3.729
 1002SOL    HW2 3018   1.164   2.790   3.792
 1003SOL     OW 3019   0.079   3.102   4.377
 1003SOL    HW1 3020   0.078   3.055   4.465
 1003SOL    HW2 3021   0.161   3.074   4.326
 1004SOL     OW 3022   0.428   2.286   4.244
 1004SOL    HW1 3023   0.458   2.214   4.182
 1004SOL    HW2 3024   0.389   2.246   4.327
 1005SOL     OW 3025   0.812   3.448   4.411
 1005SOL    HW1 3026   0.844   3.458   4.317
 1005SOL    HW2 3027   0.733   3.386   4.413
 1006SOL     OW 3028   0.770   3.192   4.025
 1006SOL    HW1 3029   0.724   3.105   4.042
 1006SOL    HW2 3030   0.861   3.189   4.066
 1007SOL     OW 3031   1.352   1.914   3.892
 1007SOL    HW1 3032   1.387   1.873   3.808
 1007SOL    HW2 3033   1.262   1.876   3.912
 1008SOL     OW 3034   1.300   2.315   4.415
 1008SOL    HW1 3035   1.241   2.395   4.419
 1008SOL    HW2 3036   1.315   2.280   4.508
 1009SOL     OW 3037   0.039   2.939   4.024
 1009SOL    HW1 3038   0.138   2.928   4.015
 1009SOL    HW2 3039  -0.001   2.853   4.056
 1010SOL     OW 3040   0.875   3.508   4.061
 1010SOL    HW1 3041   0.798   3.473   4.007
 1010SOL    HW2 3042   0.843   3.579   4.123
 1011SOL     OW 3043   0.225   3.999   0.996
 1011SOL    HW1 3044   0.260   3.982   1.088
 1011SOL    HW2 3045   0.137   3.954   0.984
 1012SOL     OW 3046   0.019   4.092   0.647
 1012SOL    HW1 3047  -0.063   4.135   0.686
 1012SOL    HW2 3048  -0.009   4.019   0.584
 1013SOL     OW 3049   1.755   4.331   0.231
 1013SOL    HW1 3050   1.743   4.318   0.132
 1013SOL    HW2 3051   1.725   4.250   0.280
 1014SOL     OW 3052   0.438   4.116   1.499
 1014SOL    HW1 3053   0.520   4.060   1.508
 1014SOL    HW2 3054   0.357   4.058   1.503
 1015SOL     OW 3055   1.603   4.171   0.737
 1015SOL    HW1 3056   1.529   4.217   0.687
 1015SOL    HW2 3057   1.654   4.239   0.790
 1016SOL     OW 3058   1.594   3.838   1.480
 1016SOL    HW1 3059   1.576   3.905   1.408
 1016SOL    HW2 3060   1.591   3.884   1.569
 1017SOL     OW 3061   0.122   4.367   0.563
 1017SOL    HW1 3062   0.077   4.279   0.580
 1017SOL    HW2 3063   0.121   4.421   0.647
 1018SOL     OW 3064   0.113   4.461   1.597
 1018SOL    HW1 3065   0.201   4.448   1.642
 1018SOL    HW2 3066   0.100   4.558   1.575
 1019SOL     OW 3067   0.809   3.728   0.502
 1019SOL    HW1 3068   0.849   3.819   0.493
 1019SOL    HW2 3069   0.709   3.736   0.508
 1020SOL     OW 3070   0.317   3.975   1.801
 1020SOL    HW1 3071   0.388   4.046   1.807
 1020SOL    HW2 3072   0.229   4.014   1.829
 1021SOL     OW 3073   1.281   4.069   0.944
 1021SOL    HW1 3074   1.195   4.019   0.931
 1021SOL    HW2 3075   1.343   4.015   1.000
 1022SOL     OW 3076   0.807   4.329   1.465
 1022SOL    HW1 3077   0.760   4.326   1.554
 1022SOL    HW2 3078   0.756   4.274   1.399
 1023SOL     OW 3079   1.394   4.193   1.674
 1023SOL    HW1 3080   1.374   4.236   1.762
 1023SOL    HW2 3081   1.472   4.131   1.683
 1024SOL     OW 3082   0.991   4.134   1.242
 1024SOL    HW1 3083   0.914   4.168   1.296
 1024SOL    HW2 3084   0.957   4.083   1.163
 1025SOL     OW 3085   1.041   4.425   0.429
 1025SOL    HW1 3086   1.067   4.421   0.525
 1025SOL    HW2 3087   0.956   4.374   0.415
 1026SOL     OW 3088   0.076   4.535   0.789
 1026SOL    HW1 3089   0.175   4.523   0.798
 1026SOL    HW2 3090   0.052   4.630   0.810
 1027SOL     OW 3091   0.865   4.072   0.195
 1027SOL    HW1 3092   0.924   4.135   0.146
 1027SOL    HW2 3093   0.884   3.978   0.166
 1028SOL     OW 3094   1.719   4.309   1.831
 1028SOL    HW1 3095   1.693   4.398   1.795
 1028SOL    HW2 3096   1.717   4.241   1.758
 1029SOL     OW 3097   0.550   3.920   0.885
 1029SOL    HW1 3098   0.545   3.915   0.985
 1029SOL    HW2 3099   0.552   4.016   0.856
 1030SOL     OW 3100   1.458   4.459   0.728
 1030SOL    HW1 3101   1.453   4.394   0.803
 1030SOL    HW2 3102   1.538   4.518   0.741
 1031SOL     OW 3103   0.202   4.009   1.498
 1031SOL    HW1 3104   0.122   4.069   1.485
 1031SOL    HW2 3105   0.192   3.960   1.584
 1032SOL     OW 3106   1.400   3.831   0.426
 1032SOL    HW1 3107   1.376   3.794   0.336
 1032SOL    HW2 3108   1.499   3.847   0.430
 1033SOL     OW 3109   1.547   3.946   1.729
 1033SOL    HW1 3110   1.542   3.983   1.821
 1033SOL    HW2 3111   1.475   3.877   1.717
 1034SOL     OW 3112   0.614   3.846   0.117
 1034SOL    HW1 3113   0.712   3.824   0.124
 1034SOL    HW2 3114   0.583   3.829   0.024
 1035SOL     OW 3115   0.781   3.988   1.749
 1035SOL    HW1 3116   0.848   3.927   1.792
 1035SOL    HW2 3117   0.708   4.007   1.814
 1036SOL     OW 3118   1.351   4.314   1.433
 1036SOL    HW1 3119   1.379   4.271   1.518
 1036SOL    HW2 3120   1.376   4.410   1.434
 1037SOL     OW 3121   0.922   4.227   0.899
 1037SOL    HW1 3122   0.897   4.218   0.803
 1037SOL    HW2 3123   0.970   4.145   0.930
 1038SOL     OW 3124   0.539   3.788   0.512
 1038SOL    HW1 3125   0.458   3.789   0.570
 1038SOL    HW2 3126   0.542   3.871   0.457
 1039SOL     OW 3127   0.935   3.960   0.480
 1039SOL    HW1 3128   0.887   4.001   0.402
 1039SOL    HW2 3129   1.034   3.958   0.461
 1040SOL     OW 3130   1.076   4.407   1.464
 1040SOL    HW1 3131   0.996   4.346   1.467
 1040SOL    HW2 3132   1.157   4.354   1.440
 1041SOL     OW 3133   1.032   4.273   0.016
 1041SOL    HW1 3134   0.991   4.355  -0.023
 1041SOL    HW2 3135   1.096   4.299   0.089
 1042SOL     OW 3136   0.078   4.280   1.386
 1042SOL    HW1 3137   0.170   4.279   1.345
 1042SOL    HW2 3138   0.072   4.354   1.453
 1043SOL     OW 3139   0.561   3.946   1.147
 1043SOL    HW1 3140   0.599   3.862   1.184
 1043SOL    HW2 3141   0.473   3.965   1.191
 1044SOL     OW 3142   0.866   4.178   0.642
 1044SOL    HW1 3143   0.834   4.250   0.580
 1044SOL    HW2 3144   0.890   4.097   0.589
 1045SOL     OW 3145   1.017   3.763   0.753
 1045SOL    HW1 3146   0.945   3.768   0.684
 1045SOL    HW2 3147   0.993   3.694   0.822
 1046SOL     OW 3148   1.466   4.314   0.992
 1046SOL    HW1 3149   1.436   4.219   0.999
 1046SOL    HW2 3150   1.539   4.330   1.058
 1047SOL     OW 3151   1.390   4.299   0.078
 1047SOL    HW1 3152   1.336   4.278   0.159
 1047SOL    HW2 3153   1.481   4.258   0.087
 1048SOL     OW 3154   0.527   3.980   0.328
 1048SOL    HW1 3155   0.554   3.921   0.253
 1048SOL    HW2 3156   0.527   4.075   0.297
 1049SOL     OW 3157   0.915   3.813   1.402
 1049SOL    HW1 3158   0.940   3.793   1.307
 1049SOL    HW2 3159   0.987   3.869   1.444
 1050SOL     OW 3160   1.274   4.110   1.262
 1050SOL    HW1 3161   1.295   4.184   1.326
 1050SOL    HW2 3162   1.185   4.127   1.219
 1051SOL     OW 3163   0.566   4.261   0.865
 1051SOL    HW1 3164   0.578   4.327   0.791
 1051SOL    HW2 3165   0.612   4.295   0.948
 1052SOL     OW 3166   1.582   4.363   0.472
 1052SOL    HW1 3167   1.551   4.424   0.545
 1052SOL    HW2 3168   1.632   4.415   0.403
 1053SOL     OW 3169   1.013   3.829   1.770
 1053SOL    HW1 3170   1.019   3.914   1.718
 1053SOL    HW2 3171   1.045   3.753   1.713
 1054SOL     OW 3172   0.504   3.774   1.740
 1054SOL    HW1 3173   0.462   3.717   1.670
 1054SOL    HW2 3174   0.438   3.843   1.772
 1055SOL     OW 3175   1.209   4.249   0.275
 1055SOL    HW1 3176   1.222   4.165   0.329
 1055SOL    HW2 3177   1.180   4.323   0.335
 1056SOL     OW 3178   0.307   3.937   1.231
 1056SOL    HW1 3179   0.284   3.974   1.321
 1056SOL    HW2 3180   0.277   3.842   1.225
 1057SOL     OW 3181   0.732   4.358   1.064
 1057SOL    HW1 3182   0.791   4.332   0.988
 1057SOL    HW2 3183   0.704   4.454   1.053
 1058SOL     OW 3184   0.307   3.787   0.618
 1058SOL    HW1 3185   0.296   3.881   0.651
 1058SOL    HW2 3186   0.302   3.724   0.695
 1059SOL     OW 3187   1.622   4.091   0.374
 1059SOL    HW1 3188   1.624   4.015   0.438
 1059SOL    HW2 3189   1.574   4.168   0.414
 1060SOL     OW 3190   1.540   3.998   0.125
 1060SOL    HW1 3191   1.479   3.923   0.148
 1060SOL    HW2 3192   1.562   4.050   0.208
 1061SOL     OW 3193   0.319   4.534   0.949
 1061SOL    HW1 3194   0.412   4.570   0.954
 1061SOL    HW2 3195   0.313   4.449   1.001
 1062SOL     OW 3196   0.339   4.233   1.006
 1062SOL    HW1 3197   0.287   4.150   0.989
 1062SOL    HW2 3198   0.416   4.238   0.942
 1063SOL     OW 3199   1.138   4.104   1.678
 1063SOL    HW1 3200   1.093   4.167   1.742
 1063SOL    HW2 3201   1.231   4.135   1.661
 1064SOL     OW 3202   1.160   3.931   1.477
 1064SOL    HW1 3203   1.160   3.995   1.554
 1064SOL    HW2 3204   1.188   3.979   1.394
 1065SOL     OW 3205   0.040   4.268   1.114
 1065SOL    HW1 3206   0.125   4.235   1.073
 1065SOL    HW2 3207   0.053   4.283   1.212
 1066SOL     OW 3208   0.189   4.244   1.722
 1066SOL    HW1 3209   0.248   4.204   1.652
 1066SOL    HW2 3210   0.131   4.315   1.681
 1067SOL     OW 3211   0.815   4.296   0.325
 1067SOL    HW1 3212   0.822   4.207   0.279
 1067SOL    HW2 3213   0.721   4.330   0.317
 1068SOL     OW 3214   1.657   4.328   1.206
 1068SOL    HW1 3215   1.619   4.259   1.268
 1068SOL    HW2 3216   1.739   4.292   1.162
 1069SOL     OW 3217   0.671   4.188   1.269
 1069SOL    HW1 3218   0.637   4.099   1.239
 1069SOL    HW2 3219   0.697   4.242   1.189
 1070SOL     OW 3220   0.473   4.224   0.191
 1070SOL    HW1 3221   0.534   4.304   0.195
 1070SOL    HW2 3222   0.378   4.255   0.198
 1071SOL     OW 3223   0.903   3.810   0.133
 1071SOL    HW1 3224   0.954   3.811   0.047
 1071SOL    HW2 3225   0.959   3.768   0.204
 1072SOL     OW 3226   1.726   3.859   0.523
 1072SOL    HW1 3227   1.799   3.842   0.456
 1072SOL    HW2 3228   1.695   3.772   0.561
 1073SOL     OW 3229   1.280   4.651   0.672
 1073SOL    HW1 3230   1.340   4.570   0.674
 1073SOL    HW2 3231   1.320   4.720   0.612
 1074SOL     OW 3232   1.841   3.899   0.963
 1074SOL    HW1 3233   1.880   3.814   0.927
 1074SOL    HW2 3234   1.743   3.901   0.944
 1075SOL     OW 3235   0.263   4.050   0.720
 1075SOL    HW1 3236   0.184   4.101   0.686
 1075SOL    HW2 3237   0.254   4.035   0.818
 1076SOL     OW 3238   1.014   3.960   0.971
 1076SOL    HW1 3239   1.006   3.924   0.878
 1076SOL    HW2 3240   1.012   3.884   1.036
 1077SOL     OW 3241   1.709   4.109   1.381
 1077SOL    HW1 3242   1.782   4.178   1.385
 1077SOL    HW2 3243   1.737   4.034   1.322
 1078SOL     OW 3244   0.672   3.927   1.489
 1078SOL    HW1 3245   0.762   3.911   1.449
 1078SOL    HW2 3246   0.680   3.932   1.588
 1079SOL     OW 3247   0.075   4.069   0.033
 1079SOL    HW1 3248  -0.017   4.041   0.004
 1079SOL    HW2 3249   0.106   4.146  -0.023
 1080SOL     OW 3250   0.072   3.890   0.318
 1080SOL    HW1 3251   0.055   3.973   0.264
 1080SOL    HW2 3252   0.162   3.853   0.296
 1081SOL     OW 3253   0.716   4.289   1.708
 1081SOL    HW1 3254   0.735   4.354   1.782
 1081SOL    HW2 3255   0.776   4.209   1.717
 1082SOL     OW 3256   1.225   4.049   0.449
 1082SOL    HW1 3257   1.290   3.975   0.438
 1082SOL    HW2 3258   1.245   4.099   0.533
 1083SOL     OW 3259   1.777   4.066   1.642
 1083SOL    HW1 3260   1.760   4.097   1.548
 1083SOL    HW2 3261   1.693   4.029   1.680
 1084SOL     OW 3262   1.083   4.708   0.087
 1084SOL    HW1 3263   1.060   4.761   0.005
 1084SOL    HW2 3264   1.164   4.652   0.068
 1085SOL     OW 3265   1.824   3.916   1.227
 1085SOL    HW1 3266   1.820   3.826   1.271
 1085SOL    HW2 3267   1.827   3.905   1.128
 1086SOL     OW 3268   0.428   4.148   0.520
 1086SOL    HW1 3269   0.458   4.076   0.458
 1086SOL    HW2 3270   0.389   4.108   0.603
 1087SOL     OW 3271   0.317   4.271   1.280
 1087SOL    HW1 3272   0.355   4.212   1.352
 1087SOL    HW2 3273   0.357   4.245   1.192
 1088SOL     OW 3274   1.424   3.938   1.112
 1088SOL    HW1 3275   1.476   3.873   1.167
 1088SOL    HW2 3276   1.375   4.001   1.173
 1089SOL     OW 3277   1.001   3.758   1.154
 1089SOL    HW1 3278   0.938   3.686   1.123
 1089SOL    HW2 3279   1.094   3.722   1.154
 1090SOL     OW 3280   1.352   3.776   0.168
 1090SOL    HW1 3281   1.387   3.735   0.084
 1090SOL    HW2 3282   1.262   3.738   0.188
 1091SOL     OW 3283   1.300   4.177   0.691
 1091SOL    HW1 3284   1.241   4.257   0.695
 1091SOL    HW2 3285   1.315   4.142   0.784
 1092SOL     OW 3286   1.593   3.945   0.882
 1092SOL    HW1 3287   1.509   3.944   0.936
 1092SOL    HW2 3288   1.595   4.028   0.826
 1093SOL     OW 3289   0.225   3.999   2.858
 1093SOL    HW1 3290   0.260   3.982   2.950
 1093SOL    HW2 3291   0.137   3.954   2.846
 1094SOL     OW 3292   0.019   4.092   2.509
 1094SOL    HW1 3293  -0.063   4.135   2.548
 1094SOL    HW2 3294  -0.009   4.019   2.446
 1095SOL     OW 3295   1.755   4.331   2.093
 1095SOL    HW1 3296   1.743   4.318   1.994
 1095SOL    HW2 3297   1.725   4.250   2.142
 1096SOL     OW 3298   0.438   4.116   3.361
 1096SOL    HW1 3299   0.520   4.060   3.370
 1096SOL    HW2 3300   0.357   4.058   3.365
 1097SOL     OW 3301   1.603   4.171   2.599
 1097SOL    HW1 3302   1.529   4.217   2.549
 1097SOL    HW2 3303   1.654   4.239   2.652
 1098SOL     OW 3304   1.594   3.838   3.342
 1098SOL    HW1 3305   1.576   3.905   3.270
 1098SOL    HW2 3306   1.591   3.884   3.431
 1099SOL     OW 3307   0.122   4.367   2.425
 1099SOL    HW1 3308   0.077   4.279   2.442
 1099SOL    HW2 3309   0.121   4.421   2.509
 1100SOL     OW 3310   0.113   4.461   3.459
 1100SOL    HW1 3311   0.201   4.448   3.504
 1100SOL    HW2 3312   0.100   4.558   3.437
 1101SOL     OW 3313   0.809   3.728   2.364
 1101SOL    HW1 3314   0.849   3.819   2.355
 1101SOL    HW2 3315   0.709   3.736   2.370
 1102SOL     OW 3316   0.317   3.975   3.663
 1102SOL    HW1 3317   0.388   4.046   3.669
 1102SOL    HW2 3318   0.229   4.014   3.691
 1103SOL     OW 3319   1.281   4.069   2.806
 1103SOL    HW1 3320   1.195   4.019   2.793
 1103SOL    HW2 3321   1.343   4.015   2.862
 1104SOL     OW 3322   0.807   4.329   3.327
 1104SOL    HW1 3323   0.760   4.326   3.416
 1104SOL    HW2 3324   0.756   4.274   3.261
 1105SOL     OW 3325   1.394   4.193   3.536
 1105SOL    HW1 3326   1.374   4.236   3.624
 1105SOL    HW2 3327   1.472   4.131   3.545
 1106SOL     OW 3328   0.991   4.134   3.104
 1106SOL    HW1 3329   0.914   4.168   3.158
 1106SOL    HW2 3330   0.957   4.083   3.025
 1107SOL     OW 3331   1.041   4.425   2.291
 1107SOL    HW1 3332   1.067   4.421   2.387
 1107SOL    HW2 3333   0.956   4.374   2.277
 1108SOL     OW 3334   0.076   4.535   2.651
 1108SOL    HW1 3335   0.175   4.523   2.660
 1108SOL    HW2 3336   0.052   4.630   2.672
 1109SOL     OW 3337   0.865   4.072   2.057
 1109SOL    HW1 3338   0.924   4.135   2.008
 1109SOL    HW2 3339   0.884   3.978   2.028
 1110SOL     OW 3340   1.719   4.309   3.693
 1110SOL    HW1 3341   1.693   4.398   3.657
 1110SOL    HW2 3342   1.717   4.241   3.620
 1111SOL     OW 3343   0.550   3.920   2.747
 1111SOL    HW1 3344   0.545   3.915   2.847
 1111SOL    HW2 3345   0.552   4.016   2.718
 1112SOL     OW 3346   1.458   4.459   2.590
 1112SOL    HW1 3347   1.453   4.394   2.665
 1112SOL    HW2 3348   1.538   4.518   2.603
 1113SOL     OW 3349   0.202   4.009   3.360
 1113SOL    HW1 3350   0.122   4.069   3.347
 1113SOL    HW2 3351   0.192   3.960   3.446
 1114SOL     OW 3352   1.400   3.831   2.288
 1114SOL    HW1 3353   1.376   3.794   2.198
 1114SOL    HW2 3354   1.499   3.847   2.292
 1115SOL     OW 3355   1.547   3.946   3.591
 1115SOL    HW1 3356   1.542   3.983   3.683
 1115SOL    HW2 3357   1.475   3.877   3.579
 1116SOL     OW 3358   0.614   3.846   1.979
 1116SOL    HW1 3359   0.712   3.824   1.986
 1116SOL    HW2 3360   0.583   3.829   1.886
 1117SOL     OW 3361   0.781   3.988   3.611
 1117SOL    HW1 3362   0.848   3.927   3.654
 1117SOL    HW2 3363   0.708   4.007   3.676
 1118SOL     OW 3364   1.351   4.314   3.295
 1118SOL    HW1 3365   1.379   4.271   3.380
 1118SOL    HW2 3366   1.376   4.410   3.296
 1119SOL     OW 3367   0.922   4.227   2.761
 1119SOL    HW1 3368   0.897   4.218   2.665
 1119SOL    HW2 3369   0.970   4.145   2.792
 1120SOL     OW 3370   0.539   3.788   2.374
 1120SOL    HW1 3371   0.458   3.789   2.432
 1120SOL    HW2 3372   0.542   3.871   2.319
 1121SOL     OW 3373   0.297   3.759   2.033
 1121SOL    HW1 3374   0.346   3.843   2.012
 1121SOL    HW2 3375   0.359   3.694   2.078
 1122SOL     OW 3376   0.935   3.960   2.342
 1122SOL    HW1 3377   0.887   4.001   2.264
 1122SOL    HW2 3378   1.034   3.958   2.323
 1123SOL     OW 3379   1.076   4.407   3.326
 1123SOL    HW1 3380   0.996   4.346   3.329
 1123SOL    HW2 3381   1.157   4.354   3.302
 1124SOL     OW 3382   1.032   4.273   1.878
 1124SOL    HW1 3383   0.991   4.355   1.839
 1124SOL    HW2 3384   1.096   4.299   1.951
 1125SOL     OW 3385   0.078   4.280   3.248
 1125SOL    HW1 3386   0.170   4.279   3.207
 1125SOL    HW2 3387   0.072   4.354   3.315
 1126SOL     OW 3388   0.561   3.946   3.009
 1126SOL    HW1 3389   0.599   3.862   3.046
 1126SOL    HW2 3390   0.473   3.965   3.053
 1127SOL     OW 3391   0.866   4.178   2.504
 1127SOL    HW1 3392   0.834   4.250   2.442
 1127SOL    HW2 3393   0.890   4.097   2.451
 1128SOL     OW 3394   1.017   3.763   2.615
 1128SOL    HW1 3395   0.945   3.768   2.546
 1128SOL    HW2 3396   0.993   3.694   2.684
 1129SOL     OW 3397   1.466   4.314   2.854
 1129SOL    HW1 3398   1.436   4.219   2.861
 1129SOL    HW2 3399   1.539   4.330   2.920
 1130SOL     OW 3400   1.390   4.299   1.940
 1130SOL    HW1 3401   1.336   4.278   2.021
 1130SOL    HW2 3402   1.481   4.258   1.949
 1131SOL     OW 3403   0.527   3.980   2.190
 1131SOL    HW1 3404   0.554   3.921   2.115
 1131SOL    HW2 3405   0.527   4.075   2.159
 1132SOL     OW 3406   0.915   3.813   3.264
 1132SOL    HW1 3407   0.940   3.793   3.169
 1132SOL    HW2 3408   0.987   3.869   3.306
 1133SOL     OW 3409   1.274   4.110   3.124
 1133SOL    HW1 3410   1.295   4.184   3.188
 1133SOL    HW2 3411   1.185   4.127   3.081
 1134SOL     OW 3412   0.566   4.261   2.727
 1134SOL    HW1 3413   0.578   4.327   2.653
 1134SOL    HW2 3414   0.612   4.295   2.810
 1135SOL     OW 3415   1.582   4.363   2.334
 1135SOL    HW1 3416   1.551   4.424   2.407
 1135SOL    HW2 3417   1.632   4.415   2.265
 1136SOL     OW 3418   1.013   3.829   3.632
 1136SOL    HW1 3419   1.019   3.914   3.580
 1136SOL    HW2 3420   1.045   3.753   3.575
 1137SOL     OW 3421   0.504   3.774   3.602
 1137SOL    HW1 3422   0.462   3.717   3.532
 1137SOL    HW2 3423   0.438   3.843   3.634
 1138SOL     OW 3424   1.209   4.249   2.137
 1138SOL    HW1 3425   1.222   4.165   2.191
 1138SOL    HW2 3426   1.180   4.323   2.197
 1139SOL     OW 3427   0.307   3.937   3.093
 1139SOL    HW1 3428   0.284   3.974   3.183
 1139SOL    HW2 3429   0.277   3.842   3.087
 1140SOL     OW 3430   0.732   4.358   2.926
 1140SOL    HW1 3431   0.791   4.332   2.850
 1140SOL    HW2 3432   0.704   4.454   2.915
 1141SOL     OW 3433   0.307   3.787   2.480
 1141SOL    HW1 3434   0.296   3.881   2.513
 1141SOL    HW2 3435   0.302   3.724   2.557
 1142SOL     OW 3436   1.622   4.091   2.236
 1142SOL    HW1 3437   1.624   4.015   2.300
 1142SOL    HW2 3438   1.574   4.168   2.276
 1143SOL     OW 3439   1.540   3.998   1.987
 1143SOL    HW1 3440   1.479   3.923   2.010
 1143SOL    HW2 3441   1.562   4.050   2.070
 1144SOL     OW 3442   0.319   4.534   2.811
 1144SOL    HW1 3443   0.412   4.570   2.816
 1144SOL    HW2 3444   0.313   4.449   2.863
 1145SOL     OW 3445   0.339   4.233   2.868
 1145SOL    HW1 3446   0.287   4.150   2.851
 1145SOL    HW2 3447   0.416   4.238   2.804
 1146SOL     OW 3448   1.138   4.104   3.540
 1146SOL    HW1 3449   1.093   4.167   3.604
 1146SOL    HW2 3450   1.231   4.135   3.523
 1147SOL     OW 3451   1.160   3.931   3.339
 1147SOL    HW1 3452   1.160   3.995   3.416
 1147SOL    HW2 3453   1.188   3.979   3.256
 1148SOL     OW 3454   0.040   4.268   2.976
 1148SOL    HW1 3455   0.125   4.235   2.935
 1148SOL    HW2 3456   0.053   4.283   3.074
 1149SOL     OW 3457   0.189   4.244   3.584
 1149SOL    HW1 3458   0.248   4.204   3.514
 1149SOL    HW2 3459   0.131   4.315   3.543
 1150SOL     OW 3460   0.815   4.296   2.187
 1150SOL    HW1 3461   0.822   4.207   2.141
 1150SOL    HW2 3462   0.721   4.330   2.179
 1151SOL     OW 3463   1.657   4.328   3.068
 1151SOL    HW1 3464   1.619   4.259   3.130
 1151SOL    HW2 3465   1.739   4.292   3.024
 1152SOL     OW 3466   0.671   4.188   3.131
 1152SOL    HW1 3467   0.637   4.099   3.101
 1152SOL    HW2 3468   0.697   4.242   3.051
 1153SOL     OW 3469   0.473   4.224   2.053
 1153SOL    HW1 3470   0.534   4.304   2.057
 1153SOL    HW2 3471   0.378   4.255   2.060
 1154SOL     OW 3472   1.726   3.859   2.385
 1154SOL    HW1 3473   1.799   3.842   2.318
 1154SOL    HW2 3474   1.695   3.772   2.423
 1155SOL     OW 3475   1.280   4.651   2.534
 1155SOL    HW1 3476   1.340   4.570   2.536
 1155SOL    HW2 3477   1.320   4.720   2.474
 1156SOL     OW 3478   1.841   3.899   2.825
 1156SOL    HW1 3479   1.880   3.814   2.789
 1156SOL    HW2 3480   1.743   3.901   2.806
 1157SOL     OW 3481   0.263   4.050   2.582
 1157SOL    HW1 3482   0.184   4.101   2.548
 1157SOL    HW2 3483   0.254   4.035   2.680
 1158SOL     OW 3484   1.014   3.960   2.833
 1158SOL    HW1 3485   1.006   3.924   2.740
 1158SOL    HW2 3486   1.012   3.884   2.898
 1159SOL     OW 3487   1.709   4.109   3.243
 1159SOL    HW1 3488   1.782   4.178   3.247
 1159SOL    HW2 3489   1.737   4.034   3.184
 1160SOL     OW 3490   0.672   3.927   3.351
 1160SOL    HW1 3491   0.762   3.911   3.311
 1160SOL    HW2 3492   0.680   3.932   3.450
 1161SOL     OW 3493   0.075   4.069   1.895
 1161SOL    HW1 3494  -0.017   4.041   1.866
 1161SOL    HW2 3495   0.106   4.146   1.839
 1162SOL     OW 3496   0.072   3.890   2.180
 1162SOL    HW1 3497   0.055   3.973   2.126
 1162SOL    HW2 3498   0.162   3.853   2.158
 1163SOL     OW 3499   0.716   4.289   3.570
 1163SOL    HW1 3500   0.735   4.354   3.644
 1163SOL    HW2 3501   0.776   4.209   3.579
 1164SOL     OW 3502   1.225   4.049   2.311
 1164SOL    HW1 3503   1.290   3.975   2.300
 1164SOL    HW2 3504   1.245   4.099   2.395
 1165SOL     OW 3505   1.777   4.066   3.504
 1165SOL    HW1 3506   1.760   4.097   3.410
 1165SOL    HW2 3507   1.693   4.029   3.542
 1166SOL     OW 3508   1.083   4.708   1.949
 1166SOL    HW1 3509   1.060   4.761   1.867
 1166SOL    HW2 3510   1.164   4.652   1.930
 1167SOL     OW 3511   1.824   3.916   3.089
 1167SOL    HW1 3512   1.820   3.826   3.133
 1167SOL    HW2 3513   1.827   3.905   2.990
 1168SOL     OW 3514   0.428   4.148   2.382
 1168SOL    HW1 3515   0.458   4.076   2.320
 1168SOL    HW2 3516   0.389   4.108   2.465
 1169SOL     OW 3517   0.317   4.271   3.142
 1169SOL    HW1 3518   0.355   4.212   3.214
 1169SOL    HW2 3519   0.357   4.245   3.054
 1170SOL     OW 3520   1.424   3.938   2.974
 1170SOL    HW1 3521   1.476   3.873   3.029
 1170SOL    HW2 3522   1.375   4.001   3.035
 1171SOL     OW 3523   1.001   3.758   3.016
 1171SOL    HW1 3524   0.938   3.686   2.985
 1171SOL    HW2 3525   1.094   3.722   3.016
 1172SOL     OW 3526   1.352   3.776   2.030
 1172SOL    HW1 3527   1.387   3.735   1.946
 1172SOL    HW2 3528   1.262   3.738   2.050
 1173SOL     OW 3529   1.300   4.177   2.553
 1173SOL    HW1 3530   1.241   4.257   2.557
 1173SOL    HW2 3531   1.315   4.142   2.646
 1174SOL     OW 3532   1.593   3.945   2.744
 1174SOL    HW1 3533   1.509   3.944   2.798
 1174SOL    HW2 3534   1.595   4.028   2.688
 1175SOL     OW 3535   1.135   4.427   4.441
 1175SOL    HW1 3536   1.192   4.505   4.416
 1175SOL    HW2 3537   1.075   4.453   4.517
 1176SOL     OW 3538   1.755   4.331   3.955
 1176SOL    HW1 3539   1.743   4.318   3.856
 1176SOL    HW2 3540   1.725   4.250   4.004
 1177SOL     OW 3541   0.122   4.367   4.287
 1177SOL    HW1 3542   0.077   4.279   4.304
 1177SOL    HW2 3543   0.121   4.421   4.371
 1178SOL     OW 3544   0.809   3.728   4.226
 1178SOL    HW1 3545   0.849   3.819   4.217
 1178SOL    HW2 3546   0.709   3.736   4.232
 1179SOL     OW 3547   1.281   4.069   4.668
 1179SOL    HW1 3548   1.195   4.019   4.655
 1179SOL    HW2 3549   1.343   4.015   4.724
 1180SOL     OW 3550   1.041   4.425   4.153
 1180SOL    HW1 3551   1.067   4.421   4.249
 1180SOL    HW2 3552   0.956   4.374   4.139
 1181SOL     OW 3553   0.076   4.535   4.513
 1181SOL    HW1 3554   0.175   4.523   4.522
 1181SOL    HW2 3555   0.052   4.630   4.534
 1182SOL     OW 3556   0.865   4.072   3.919
 1182SOL    HW1 3557   0.924   4.135   3.870
 1182SOL    HW2 3558   0.884   3.978   3.890
 1183SOL     OW 3559   1.400   3.831   4.150
 1183SOL    HW1 3560   1.376   3.794   4.060
 1183SOL    HW2 3561   1.499   3.847   4.154
 1184SOL     OW 3562   0.614   3.846   3.841
 1184SOL    HW1 3563   0.712   3.824   3.848
 1184SOL    HW2 3564   0.583   3.829   3.748
 1185SOL     OW 3565   0.539   3.788   4.236
 1185SOL    HW1 3566   0.458   3.789   4.294
 1185SOL    HW2 3567   0.542   3.871   4.181
 1186SOL     OW 3568   0.297   3.759   3.895
 1186SOL    HW1 3569   0.346   3.843   3.874
 1186SOL    HW2 3570   0.359   3.694   3.940
 1187SOL     OW 3571   0.935   3.960   4.204
 1187SOL    HW1 3572   0.887   4.001   4.126
 1187SOL    HW2 3573   1.034   3.958   4.185
 1188SOL     OW 3574   1.032   4.273   3.740
 1188SOL    HW1 3575   0.991   4.355   3.701
 1188SOL    HW2 3576   1.096   4.299   3.813
 1189SOL     OW 3577   0.866   4.178   4.366
 1189SOL    HW1 3578   0.834   4.250   4.304
 1189SOL    HW2 3579   0.890   4.097   4.313
 1190SOL     OW 3580   1.390   4.299   3.802
 1190SOL    HW1 3581   1.336   4.278   3.883
 1190SOL    HW2 3582   1.481   4.258   3.811
 1191SOL     OW 3583   0.527   3.980   4.052
 1191SOL    HW1 3584   0.554   3.921   3.977
 1191SOL    HW2 3585   0.527   4.075   4.021
 1192SOL     OW 3586   1.582   4.363   4.196
 1192SOL    HW1 3587   1.551   4.424   4.269
 1192SOL    HW2 3588   1.632   4.415   4.127
 1193SOL     OW 3589   1.209   4.249   3.999
 1193SOL    HW1 3590   1.222   4.165   4.053
 1193SOL    HW2 3591   1.180   4.323   4.059
 1194SOL     OW 3592   0.307   3.787   4.342
 1194SOL    HW1 3593   0.296   3.881   4.375
 1194SOL    HW2 3594   0.302   3.724   4.419
 1195SOL     OW 3595   1.622   4.091   4.098
 1195SOL    HW1 3596   1.624   4.015   4.162
 1195SOL    HW2 3597   1.574   4.168   4.138
 1196SOL     OW 3598   1.540   3.998   3.849
 1196SOL    HW1 3599   1.479   3.923   3.872
 1196SOL    HW2 3600   1.562   4.050   3.932
 1197SOL     OW 3601   0.815   4.296   4.049
 1197SOL    HW1 3602   0.822   4.207   4.003
 1197SOL    HW2 3603   0.721   4.330   4.041
 1198SOL     OW 3604   0.473   4.224   3.915
 1198SOL    HW1 3605   0.534   4.304   3.919
 1198SOL    HW2 3606   0.378   4.255   3.922
 1199SOL     OW 3607   1.726   3.859   4.247
 1199SOL    HW1 3608   1.799   3.842   4.180
 1199SOL    HW2 3609   1.695   3.772   4.285
 1200SOL     OW 3610   1.280   4.651   4.396
 1200SOL    HW1 3611   1.340   4.570   4.398
 1200SOL    HW2 3612   1.320   4.720   4.336
 1201SOL     OW 3613   1.841   3.899   4.687
 1201SOL    HW1 3614   1.880   3.814   4.651
 1201SOL    HW2 3615   1.743   3.901   4.668
 1202SOL     OW 3616   0.075   4.069   3.757
 1202SOL    HW1 3617  -0.017   4.041   3.728
 1202SOL    HW2 3618   0.106   4.146   3.701
 1203SOL     OW 3619   0.072   3.890   4.042
 1203SOL    HW1 3620   0.055   3.973   3.988
 1203SOL    HW2 3621   0.162   3.853   4.020
 1204SOL     OW 3622   1.225   4.049   4.173
 1204SOL    HW1 3623   1.290   3.975   4.162
 1204SOL    HW2 3624   1.245   4.099   4.257
 1205SOL     OW 3625   1.083   4.708   3.811
 1205SOL    HW1 3626   1.060   4.761   3.729
 1205SOL    HW2 3627   1.164   4.652   3.792
 1206SOL     OW 3628   0.428   4.148   4.244
 1206SOL    HW1 3629   0.458   4.076   4.182
 1206SOL    HW2 3630   0.389   4.108   4.327
 1207SOL     OW 3631   1.352   3.776   3.892
 1207SOL    HW1 3632   1.387   3.735   3.808
 1207SOL    HW2 3633   1.262   3.738   3.912
 1208SOL     OW 3634   1.300   4.177   4.415
 1208SOL    HW1 3635   1.241   4.257   4.419
 1208SOL    HW2 3636   1.315   4.142   4.508
 1209SOL     OW 3637   2.092   0.628   0.113
 1209SOL    HW1 3638   1.999   0.626   0.150
 1209SOL    HW2 3639   2.093   0.589   0.021
 1210SOL     OW 3640   2.087   0.275   0.996
 1210SOL    HW1 3641   2.122   0.258   1.088
 1210SOL    HW2 3642   1.999   0.230   0.984
 1211SOL     OW 3643   1.881   0.368   0.647
 1211SOL    HW1 3644   1.799   0.411   0.686
 1211SOL    HW2 3645   1.853   0.295   0.584
 1212SOL     OW 3646   2.431   1.275   1.165
 1212SOL    HW1 3647   2.338   1.268   1.128
 1212SOL    HW2 3648   2.442   1.364   1.209
 1213SOL     OW 3649   3.417   1.511   0.703
 1213SOL    HW1 3650   3.360   1.495   0.784
 1213SOL    HW2 3651   3.358   1.521   0.623
 1214SOL     OW 3652   2.997   0.703   0.717
 1214SOL    HW1 3653   3.054   0.781   0.692
 1214SOL    HW2 3654   2.937   0.729   0.793
 1215SOL     OW 3655   3.617   0.607   0.231
 1215SOL    HW1 3656   3.605   0.594   0.132
 1215SOL    HW2 3657   3.587   0.526   0.280
 1216SOL     OW 3658   2.630   1.144   1.023
 1216SOL    HW1 3659   2.552   1.161   1.083
 1216SOL    HW2 3660   2.664   1.231   0.987
 1217SOL     OW 3661   2.712   0.798   1.823
 1217SOL    HW1 3662   2.708   0.874   1.888
 1217SOL    HW2 3663   2.734   0.834   1.732
 1218SOL     OW 3664   2.547   1.012   0.665
 1218SOL    HW1 3665   2.616   0.996   0.735
 1218SOL    HW2 3666   2.474   1.069   0.703
 1219SOL     OW 3667   2.548   1.161   1.803
 1219SOL    HW1 3668   2.608   1.240   1.817
 1219SOL    HW2 3669   2.462   1.192   1.762
 1220SOL     OW 3670   2.197   1.435   1.061
 1220SOL    HW1 3671   2.119   1.404   1.008
 1220SOL    HW2 3672   2.255   1.493   1.004
 1221SOL     OW 3673   3.322   1.505   1.339
 1221SOL    HW1 3674   3.346   1.599   1.365
 1221SOL    HW2 3675   3.306   1.451   1.421
 1222SOL     OW 3676   2.300   0.392   1.499
 1222SOL    HW1 3677   2.382   0.336   1.508
 1222SOL    HW2 3678   2.219   0.334   1.503
 1223SOL     OW 3679   3.465   0.447   0.737
 1223SOL    HW1 3680   3.391   0.493   0.687
 1223SOL    HW2 3681   3.516   0.515   0.790
 1224SOL     OW 3682   2.093   1.713   0.483
 1224SOL    HW1 3683   2.127   1.790   0.537
 1224SOL    HW2 3684   2.137   1.713   0.393
 1225SOL     OW 3685   2.989   1.341   1.690
 1225SOL    HW1 3686   3.036   1.341   1.778
 1225SOL    HW2 3687   2.941   1.254   1.679
 1226SOL     OW 3688   2.092   1.434   0.538
 1226SOL    HW1 3689   2.066   1.530   0.538
 1226SOL    HW2 3690   2.021   1.380   0.583
 1227SOL     OW 3691   2.102   1.091   0.886
 1227SOL    HW1 3692   2.116   1.007   0.938
 1227SOL    HW2 3693   2.047   1.155   0.941
 1228SOL     OW 3694   2.482   1.786   1.439
 1228SOL    HW1 3695   2.390   1.769   1.474
 1228SOL    HW2 3696   2.510   1.878   1.465
 1229SOL     OW 3697   2.468   0.964   0.123
 1229SOL    HW1 3698   2.475   1.048   0.069
 1229SOL    HW2 3699   2.514   0.977   0.211
 1230SOL     OW 3700   3.456   0.114   1.480
 1230SOL    HW1 3701   3.438   0.181   1.408
 1230SOL    HW2 3702   3.453   0.160   1.569
 1231SOL     OW 3703   1.984   0.643   0.563
 1231SOL    HW1 3704   1.939   0.555   0.580
 1231SOL    HW2 3705   1.983   0.697   0.647
 1232SOL     OW 3706   3.704   1.767   0.359
 1232SOL    HW1 3707   3.758   1.738   0.439
 1232SOL    HW2 3708   3.734   1.857   0.330
 1233SOL     OW 3709   1.889   1.596   0.117
 1233SOL    HW1 3710   1.870   1.500   0.138
 1233SOL    HW2 3711   1.856   1.654   0.192
 1234SOL     OW 3712   3.551   0.922   0.612
 1234SOL    HW1 3713   3.646   0.893   0.620
 1234SOL    HW2 3714   3.543   0.987   0.537
 1235SOL     OW 3715   3.503   1.108   0.432
 1235SOL    HW1 3716   3.589   1.110   0.380
 1235SOL    HW2 3717   3.517   1.155   0.520
 1236SOL     OW 3718   1.975   0.737   1.597
 1236SOL    HW1 3719   2.063   0.724   1.642
 1236SOL    HW2 3720   1.962   0.834   1.575
 1237SOL     OW 3721   2.475   1.365   0.726
 1237SOL    HW1 3722   2.426   1.278   0.735
 1237SOL    HW2 3723   2.452   1.408   0.639
 1238SOL     OW 3724   3.155   1.228   1.423
 1238SOL    HW1 3725   3.192   1.155   1.365
 1238SOL    HW2 3726   3.207   1.233   1.508
 1239SOL     OW 3727   2.671   0.004   0.502
 1239SOL    HW1 3728   2.711   0.095   0.493
 1239SOL    HW2 3729   2.571   0.012   0.508
 1240SOL     OW 3730   2.059   0.976   1.264
 1240SOL    HW1 3731   2.148   0.931   1.250
 1240SOL    HW2 3732   1.986   0.911   1.245
 1241SOL     OW 3733   3.387   0.999   0.190
 1241SOL    HW1 3734   3.324   0.923   0.203
 1241SOL    HW2 3735   3.435   1.017   0.276
 1242SOL     OW 3736   3.049   1.792   1.616
 1242SOL    HW1 3737   3.073   1.852   1.540
 1242SOL    HW2 3738   3.056   1.697   1.586
 1243SOL     OW 3739   2.179   0.251   1.801
 1243SOL    HW1 3740   2.250   0.322   1.807
 1243SOL    HW2 3741   2.091   0.290   1.829
 1244SOL     OW 3742   3.328   1.417   0.953
 1244SOL    HW1 3743   3.269   1.423   1.033
 1244SOL    HW2 3744   3.313   1.329   0.907
 1245SOL     OW 3745   3.529   1.714   0.572
 1245SOL    HW1 3746   3.488   1.691   0.484
 1245SOL    HW2 3747   3.511   1.640   0.637
 1246SOL     OW 3748   2.460   0.729   0.270
 1246SOL    HW1 3749   2.484   0.798   0.202
 1246SOL    HW2 3750   2.382   0.762   0.324
 1247SOL     OW 3751   3.143   0.345   0.944
 1247SOL    HW1 3752   3.057   0.295   0.931
 1247SOL    HW2 3753   3.205   0.291   1.000
 1248SOL     OW 3754   3.438   1.662   0.307
 1248SOL    HW1 3755   3.527   1.708   0.310
 1248SOL    HW2 3756   3.417   1.638   0.212
 1249SOL     OW 3757   2.669   0.605   1.465
 1249SOL    HW1 3758   2.622   0.602   1.554
 1249SOL    HW2 3759   2.618   0.550   1.399
 1250SOL     OW 3760   3.256   0.469   1.674
 1250SOL    HW1 3761   3.236   0.512   1.762
 1250SOL    HW2 3762   3.334   0.407   1.683
 1251SOL     OW 3763   2.835   0.890   1.572
 1251SOL    HW1 3764   2.881   0.806   1.543
 1251SOL    HW2 3765   2.779   0.924   1.497
 1252SOL     OW 3766   2.853   0.410   1.242
 1252SOL    HW1 3767   2.776   0.444   1.296
 1252SOL    HW2 3768   2.819   0.359   1.163
 1253SOL     OW 3769   2.903   0.701   0.429
 1253SOL    HW1 3770   2.929   0.697   0.525
 1253SOL    HW2 3771   2.818   0.650   0.415
 1254SOL     OW 3772   1.938   0.811   0.789
 1254SOL    HW1 3773   2.037   0.799   0.798
 1254SOL    HW2 3774   1.914   0.906   0.810
 1255SOL     OW 3775   1.992   1.821   1.571
 1255SOL    HW1 3776   1.982   1.806   1.670
 1255SOL    HW2 3777   1.906   1.857   1.535
 1256SOL     OW 3778   2.727   0.348   0.195
 1256SOL    HW1 3779   2.786   0.411   0.146
 1256SOL    HW2 3780   2.746   0.254   0.166
 1257SOL     OW 3781   3.581   0.585   1.831
 1257SOL    HW1 3782   3.555   0.674   1.795
 1257SOL    HW2 3783   3.579   0.517   1.758
 1258SOL     OW 3784   3.224   1.144   0.545
 1258SOL    HW1 3785   3.307   1.115   0.497
 1258SOL    HW2 3786   3.175   1.211   0.489
 1259SOL     OW 3787   2.412   0.196   0.885
 1259SOL    HW1 3788   2.407   0.191   0.985
 1259SOL    HW2 3789   2.414   0.292   0.856
 1260SOL     OW 3790   2.870   1.456   0.477
 1260SOL    HW1 3791   2.824   1.528   0.425
 1260SOL    HW2 3792   2.866   1.476   0.575
 1261SOL     OW 3793   2.213   1.801   0.853
 1261SOL    HW1 3794   2.263   1.715   0.859
 1261SOL    HW2 3795   2.278   1.878   0.850
 1262SOL     OW 3796   3.657   1.066   0.873
 1262SOL    HW1 3797   3.595   1.051   0.797
 1262SOL    HW2 3798   3.605   1.077   0.958
 1263SOL     OW 3799   3.089   1.550   1.506
 1263SOL    HW1 3800   3.095   1.473   1.570
 1263SOL    HW2 3801   3.037   1.524   1.426
 1264SOL     OW 3802   2.183   0.943   0.242
 1264SOL    HW1 3803   2.265   0.982   0.200
 1264SOL    HW2 3804   2.156   0.861   0.193
 1265SOL     OW 3805   3.320   0.735   0.728
 1265SOL    HW1 3806   3.315   0.670   0.803
 1265SOL    HW2 3807   3.400   0.794   0.741
 1266SOL     OW 3808   2.323   1.266   1.727
 1266SOL    HW1 3809   2.273   1.267   1.641
 1266SOL    HW2 3810   2.260   1.248   1.803
 1267SOL     OW 3811   2.973   1.776   0.237
 1267SOL    HW1 3812   2.913   1.714   0.287
 1267SOL    HW2 3813   3.004   1.732   0.152
 1268SOL     OW 3814   2.064   0.285   1.498
 1268SOL    HW1 3815   1.984   0.345   1.485
 1268SOL    HW2 3816   2.054   0.236   1.584
 1269SOL     OW 3817   3.494   1.377   0.081
 1269SOL    HW1 3818   3.462   1.471   0.071
 1269SOL    HW2 3819   3.418   1.314   0.069
 1270SOL     OW 3820   2.326   1.743   0.323
 1270SOL    HW1 3821   2.359   1.782   0.409
 1270SOL    HW2 3822   2.402   1.736   0.258
 1271SOL     OW 3823   3.262   0.107   0.426
 1271SOL    HW1 3824   3.238   0.070   0.336
 1271SOL    HW2 3825   3.361   0.123   0.430
 1272SOL     OW 3826   2.111   1.785   1.241
 1272SOL    HW1 3827   2.168   1.720   1.291
 1272SOL    HW2 3828   2.095   1.752   1.148
 1273SOL     OW 3829   2.802   1.698   0.904
 1273SOL    HW1 3830   2.882   1.641   0.925
 1273SOL    HW2 3831   2.753   1.658   0.827
 1274SOL     OW 3832   2.244   0.700   0.480
 1274SOL    HW1 3833   2.289   0.610   0.477
 1274SOL    HW2 3834   2.150   0.689   0.513
 1275SOL     OW 3835   3.409   0.222   1.729
 1275SOL    HW1 3836   3.404   0.259   1.821
 1275SOL    HW2 3837   3.337   0.153   1.717
 1276SOL     OW 3838   2.476   0.122   0.117
 1276SOL    HW1 3839   2.574   0.100   0.124
 1276SOL    HW2 3840   2.445   0.105   0.024
 1277SOL     OW 3841   2.643   0.264   1.749
 1277SOL    HW1 3842   2.710   0.203   1.792
 1277SOL    HW2 3843   2.570   0.283   1.814
 1278SOL     OW 3844   2.750   1.514   1.195
 1278SOL    HW1 3845   2.727   1.489   1.101
 1278SOL    HW2 3846   2.811   1.445   1.234
 1279SOL     OW 3847   3.213   0.590   1.433
 1279SOL    HW1 3848   3.241   0.547   1.518
 1279SOL    HW2 3849   3.238   0.686   1.434
 1280SOL     OW 3850   2.665   1.402   0.924
 1280SOL    HW1 3851   2.755   1.416   0.882
 1280SOL    HW2 3852   2.594   1.404   0.853
 1281SOL     OW 3853   2.784   0.503   0.899
 1281SOL    HW1 3854   2.759   0.494   0.803
 1281SOL    HW2 3855   2.832   0.421   0.930
 1282SOL     OW 3856   2.401   0.064   0.512
 1282SOL    HW1 3857   2.320   0.065   0.570
 1282SOL    HW2 3858   2.404   0.147   0.457
 1283SOL     OW 3859   3.296   1.188   0.041
 1283SOL    HW1 3860   3.328   1.112   0.098
 1283SOL    HW2 3861   3.204   1.215   0.071
 1284SOL     OW 3862   2.159   0.035   0.171
 1284SOL    HW1 3863   2.208   0.119   0.150
 1284SOL    HW2 3864   2.221  -0.030   0.216
 1285SOL     OW 3865   2.797   0.236   0.480
 1285SOL    HW1 3866   2.749   0.277   0.402
 1285SOL    HW2 3867   2.896   0.234   0.461
 1286SOL     OW 3868   2.938   0.683   1.464
 1286SOL    HW1 3869   2.858   0.622   1.467
 1286SOL    HW2 3870   3.019   0.630   1.440
 1287SOL     OW 3871   3.089   1.570   0.793
 1287SOL    HW1 3872   3.110   1.644   0.728
 1287SOL    HW2 3873   3.157   1.570   0.866
 1288SOL     OW 3874   2.321   1.152   0.741
 1288SOL    HW1 3875   2.250   1.125   0.806
 1288SOL    HW2 3876   2.295   1.124   0.648
 1289SOL     OW 3877   3.133   1.797   0.591
 1289SOL    HW1 3878   3.177   1.861   0.527
 1289SOL    HW2 3879   3.083   1.849   0.661
 1290SOL     OW 3880   2.894   0.549   0.016
 1290SOL    HW1 3881   2.853   0.631  -0.023
 1290SOL    HW2 3882   2.958   0.575   0.089
 1291SOL     OW 3883   1.940   0.556   1.386
 1291SOL    HW1 3884   2.032   0.555   1.345
 1291SOL    HW2 3885   1.934   0.630   1.453
 1292SOL     OW 3886   2.423   0.222   1.147
 1292SOL    HW1 3887   2.461   0.138   1.184
 1292SOL    HW2 3888   2.335   0.241   1.191
 1293SOL     OW 3889   2.728   0.454   0.642
 1293SOL    HW1 3890   2.696   0.526   0.580
 1293SOL    HW2 3891   2.752   0.373   0.589
 1294SOL     OW 3892   2.879   0.039   0.753
 1294SOL    HW1 3893   2.807   0.044   0.684
 1294SOL    HW2 3894   2.855  -0.030   0.822
 1295SOL     OW 3895   3.291   1.173   0.867
 1295SOL    HW1 3896   3.236   1.089   0.860
 1295SOL    HW2 3897   3.317   1.202   0.775
 1296SOL     OW 3898   3.328   0.590   0.992
 1296SOL    HW1 3899   3.298   0.495   0.999
 1296SOL    HW2 3900   3.401   0.606   1.058
 1297SOL     OW 3901   3.719   0.833   0.377
 1297SOL    HW1 3902   3.761   0.769   0.441
 1297SOL    HW2 3903   3.681   0.782   0.299
 1298SOL     OW 3904   2.350   1.385   0.174
 1298SOL    HW1 3905   2.263   1.370   0.221
 1298SOL    HW2 3906   2.333   1.411   0.079
 1299SOL     OW 3907   3.526   1.280   0.657
 1299SOL    HW1 3908   3.625   1.288   0.671
 1299SOL    HW2 3909   3.481   1.364   0.688
 1300SOL     OW 3910   3.252   0.575   0.078
 1300SOL    HW1 3911   3.198   0.554   0.159
 1300SOL    HW2 3912   3.343   0.534   0.087
 1301SOL     OW 3913   2.389   0.256   0.328
 1301SOL    HW1 3914   2.416   0.197   0.253
 1301SOL    HW2 3915   2.389   0.351   0.297
 1302SOL     OW 3916   3.616   1.223   1.588
 1302SOL    HW1 3917   3.707   1.184   1.575
 1302SOL    HW2 3918   3.624   1.319   1.612
 1303SOL     OW 3919   2.926   1.347   1.340
 1303SOL    HW1 3920   2.846   1.324   1.395
 1303SOL    HW2 3921   3.009   1.321   1.389
 1304SOL     OW 3922   3.454   1.629   1.625
 1304SOL    HW1 3923   3.481   1.663   1.535
 1304SOL    HW2 3924   3.533   1.591   1.671
 1305SOL     OW 3925   2.973   1.195   1.100
 1305SOL    HW1 3926   2.933   1.239   1.181
 1305SOL    HW2 3927   2.932   1.232   1.017
 1306SOL     OW 3928   3.500   1.099   1.079
 1306SOL    HW1 3929   3.505   1.180   1.138
 1306SOL    HW2 3930   3.414   1.101   1.028
 1307SOL     OW 3931   2.777   0.089   1.402
 1307SOL    HW1 3932   2.802   0.069   1.307
 1307SOL    HW2 3933   2.849   0.145   1.444
 1308SOL     OW 3934   2.842   1.116   1.719
 1308SOL    HW1 3935   2.743   1.122   1.729
 1308SOL    HW2 3936   2.865   1.036   1.663
 1309SOL     OW 3937   2.567   1.050   0.368
 1309SOL    HW1 3938   2.553   1.057   0.467
 1309SOL    HW2 3939   2.651   0.999   0.350
 1310SOL     OW 3940   2.272   0.813   1.251
 1310SOL    HW1 3941   2.358   0.825   1.301
 1310SOL    HW2 3942   2.230   0.726   1.278
 1311SOL     OW 3943   3.136   0.386   1.262
 1311SOL    HW1 3944   3.157   0.460   1.326
 1311SOL    HW2 3945   3.047   0.403   1.219
 1312SOL     OW 3946   1.926   1.564   1.331
 1312SOL    HW1 3947   1.880   1.646   1.297
 1312SOL    HW2 3948   2.024   1.583   1.340
 1313SOL     OW 3949   2.229   1.100   0.501
 1313SOL    HW1 3950   2.222   1.183   0.445
 1313SOL    HW2 3951   2.233   1.020   0.441
 1314SOL     OW 3952   2.428   0.537   0.865
 1314SOL    HW1 3953   2.440   0.603   0.791
 1314SOL    HW2 3954   2.474   0.571   0.948
 1315SOL     OW 3955   3.114   1.348   0.388
 1315SOL    HW1 3956   3.164   1.425   0.428
 1315SOL    HW2 3957   3.019   1.350   0.420
 1316SOL     OW 3958   3.134   1.445   1.142
 1316SOL    HW1 3959   3.181   1.458   1.229
 1316SOL    HW2 3960   3.068   1.371   1.151
 1317SOL     OW 3961   3.444   0.639   0.472
 1317SOL    HW1 3962   3.413   0.700   0.545
 1317SOL    HW2 3963   3.494   0.691   0.403
 1318SOL     OW 3964   2.216   1.510   1.329
 1318SOL    HW1 3965   2.195   1.466   1.242
 1318SOL    HW2 3966   2.313   1.536   1.332
 1319SOL     OW 3967   2.264   0.751   1.598
 1319SOL    HW1 3968   2.332   0.806   1.551
 1319SOL    HW2 3969   2.304   0.663   1.625
 1320SOL     OW 3970   3.449   0.779   1.670
 1320SOL    HW1 3971   3.357   0.817   1.665
 1320SOL    HW2 3972   3.509   0.826   1.605
 1321SOL     OW 3973   2.875   0.105   1.770
 1321SOL    HW1 3974   2.881   0.190   1.718
 1321SOL    HW2 3975   2.907   0.029   1.713
 1322SOL     OW 3976   2.366   0.050   1.740
 1322SOL    HW1 3977   2.324  -0.007   1.670
 1322SOL    HW2 3978   2.300   0.119   1.772
 1323SOL     OW 3979   2.435   0.870   1.029
 1323SOL    HW1 3980   2.479   0.959   1.020
 1323SOL    HW2 3981   2.372   0.870   1.106
 1324SOL     OW 3982   3.222   0.862   1.045
 1324SOL    HW1 3983   3.147   0.862   0.979
 1324SOL    HW2 3984   3.259   0.770   1.054
 1325SOL     OW 3985   3.071   0.525   0.275
 1325SOL    HW1 3986   3.084   0.441   0.329
 1325SOL    HW2 3987   3.042   0.599   0.335
 1326SOL     OW 3988   2.169   0.213   1.231
 1326SOL    HW1 3989   2.146   0.250   1.321
 1326SOL    HW2 3990   2.139   0.118   1.225
 1327SOL     OW 3991   1.899   1.310   1.282
 1327SOL    HW1 3992   1.952   1.261   1.350
 1327SOL    HW2 3993   1.921   1.408   1.287
 1328SOL     OW 3994   2.594   0.634   1.064
 1328SOL    HW1 3995   2.653   0.608   0.988
 1328SOL    HW2 3996   2.566   0.730   1.053
 1329SOL     OW 3997   3.590   0.935   1.854
 1329SOL    HW1 3998   3.544   0.928   1.765
 1329SOL    HW2 3999   3.528   0.979   1.920
 1330SOL     OW 4000   2.169   0.063   0.618
 1330SOL    HW1 4001   2.158   0.157   0.651
 1330SOL    HW2 4002   2.164   0.000   0.695
 1331SOL     OW 4003   3.484   0.367   0.374
 1331SOL    HW1 4004   3.486   0.291   0.438
 1331SOL    HW2 4005   3.436   0.444   0.414
 1332SOL     OW 4006   2.885   0.766   0.966
 1332SOL    HW1 4007   2.900   0.787   1.062
 1332SOL    HW2 4008   2.855   0.671   0.957
 1333SOL     OW 4009   2.842   1.573   1.700
 1333SOL    HW1 4010   2.822   1.617   1.612
 1333SOL    HW2 4011   2.881   1.482   1.684
 1334SOL     OW 4012   3.721   1.518   1.605
 1334SOL    HW1 4013   3.735   1.545   1.510
 1334SOL    HW2 4014   3.804   1.540   1.658
 1335SOL     OW 4015   2.212   0.898   1.804
 1335SOL    HW1 4016   2.288   0.942   1.852
 1335SOL    HW2 4017   2.247   0.851   1.722
 1336SOL     OW 4018   3.402   0.274   0.125
 1336SOL    HW1 4019   3.341   0.199   0.148
 1336SOL    HW2 4020   3.424   0.326   0.208
 1337SOL     OW 4021   3.165   0.838   0.042
 1337SOL    HW1 4022   3.199   0.745   0.057
 1337SOL    HW2 4023   3.183   0.865  -0.053
 1338SOL     OW 4024   2.930   1.333   0.849
 1338SOL    HW1 4025   2.937   1.249   0.794
 1338SOL    HW2 4026   2.992   1.402   0.813
 1339SOL     OW 4027   2.181   0.810   0.949
 1339SOL    HW1 4028   2.274   0.846   0.954
 1339SOL    HW2 4029   2.175   0.725   1.001
 1340SOL     OW 4030   2.201   0.509   1.006
 1340SOL    HW1 4031   2.149   0.426   0.989
 1340SOL    HW2 4032   2.278   0.514   0.942
 1341SOL     OW 4033   3.000   0.380   1.678
 1341SOL    HW1 4034   2.955   0.443   1.742
 1341SOL    HW2 4035   3.093   0.411   1.661
 1342SOL     OW 4036   3.022   0.207   1.477
 1342SOL    HW1 4037   3.022   0.271   1.554
 1342SOL    HW2 4038   3.050   0.255   1.394
 1343SOL     OW 4039   1.870   1.326   0.200
 1343SOL    HW1 4040   1.777   1.347   0.169
 1343SOL    HW2 4041   1.880   1.227   0.213
 1344SOL     OW 4042   1.950   1.801   0.927
 1344SOL    HW1 4043   1.908   1.715   0.900
 1344SOL    HW2 4044   2.044   1.804   0.893
 1345SOL     OW 4045   2.366   1.568   0.910
 1345SOL    HW1 4046   2.432   1.642   0.919
 1345SOL    HW2 4047   2.410   1.489   0.868
 1346SOL     OW 4048   2.864   0.796   1.238
 1346SOL    HW1 4049   2.905   0.764   1.324
 1346SOL    HW2 4050   2.768   0.769   1.235
 1347SOL     OW 4051   1.902   0.544   1.114
 1347SOL    HW1 4052   1.987   0.511   1.073
 1347SOL    HW2 4053   1.915   0.559   1.212
 1348SOL     OW 4054   2.051   0.520   1.722
 1348SOL    HW1 4055   2.110   0.480   1.652
 1348SOL    HW2 4056   1.993   0.591   1.681
 1349SOL     OW 4057   3.231   0.950   1.660
 1349SOL    HW1 4058   3.270   1.039   1.680
 1349SOL    HW2 4059   3.241   0.930   1.563
 1350SOL     OW 4060   2.677   0.572   0.325
 1350SOL    HW1 4061   2.684   0.483   0.279
 1350SOL    HW2 4062   2.583   0.606   0.317
 1351SOL     OW 4063   3.519   0.604   1.206
 1351SOL    HW1 4064   3.481   0.535   1.268
 1351SOL    HW2 4065   3.601   0.568   1.162
 1352SOL     OW 4066   2.114   1.564   1.744
 1352SOL    HW1 4067   2.084   1.621   1.820
 1352SOL    HW2 4068   2.107   1.467   1.770
 1353SOL     OW 4069   2.533   0.464   1.269
 1353SOL    HW1 4070   2.499   0.375   1.239
 1353SOL    HW2 4071   2.559   0.518   1.189
 1354SOL     OW 4072   2.792   1.678   1.465
 1354SOL    HW1 4073   2.768   1.660   1.370
 1354SOL    HW2 4074   2.822   1.772   1.475
 1355SOL     OW 4075   2.335   0.500   0.191
 1355SOL    HW1 4076   2.396   0.580   0.195
 1355SOL    HW2 4077   2.240   0.531   0.198
 1356SOL     OW 4078   2.021   1.137   1.466
 1356SOL    HW1 4079   2.043   1.076   1.542
 1356SOL    HW2 4080   2.031   1.088   1.380
 1357SOL     OW 4081   3.209   1.059   1.234
 1357SOL    HW1 4082   3.233   0.996   1.160
 1357SOL    HW2 4083   3.119   1.099   1.216
 1358SOL     OW 4084   3.164   0.855   0.309
 1358SOL    HW1 4085   3.078   0.824   0.351
 1358SOL    HW2 4086   3.160   0.841   0.210
 1359SOL     OW 4087   3.621   1.747   1.154
 1359SOL    HW1 4088   3.682   1.777   1.081
 1359SOL    HW2 4089   3.583   1.658   1.132
 1360SOL     OW 4090   3.114   1.731   1.128
 1360SOL    HW1 4091   3.198   1.736   1.074
 1360SOL    HW2 4092   3.091   1.635   1.146
 1361SOL     OW 4093   1.945   1.258   1.022
 1361SOL    HW1 4094   1.940   1.257   1.122
 1361SOL    HW2 4095   1.862   1.217   0.984
 1362SOL     OW 4096   2.550   1.662   1.716
 1362SOL    HW1 4097   2.494   1.743   1.725
 1362SOL    HW2 4098   2.602   1.666   1.630
 1363SOL     OW 4099   2.765   0.086   0.133
 1363SOL    HW1 4100   2.816   0.087   0.047
 1363SOL    HW2 4101   2.821   0.044   0.204
 1364SOL     OW 4102   3.588   0.135   0.523
 1364SOL    HW1 4103   3.661   0.118   0.456
 1364SOL    HW2 4104   3.557   0.048   0.561
 1365SOL     OW 4105   3.250   1.573   0.477
 1365SOL    HW1 4106   3.317   1.585   0.403
 1365SOL    HW2 4107   3.210   1.662   0.500
 1366SOL     OW 4108   1.992   1.794   1.851
 1366SOL    HW1 4109   1.951   1.720   1.904
 1366SOL    HW2 4110   2.056   1.845   1.909
 1367SOL     OW 4111   3.142   0.927   0.672
 1367SOL    HW1 4112   3.202   0.846   0.674
 1367SOL    HW2 4113   3.182   0.996   0.612
 1368SOL     OW 4114   2.692   1.273   1.422
 1368SOL    HW1 4115   2.687   1.306   1.517
 1368SOL    HW2 4116   2.606   1.292   1.376
 1369SOL     OW 4117   2.534   1.616   0.154
 1369SOL    HW1 4118   2.543   1.626   0.055
 1369SOL    HW2 4119   2.494   1.527   0.175
 1370SOL     OW 4120   3.512   1.720   1.394
 1370SOL    HW1 4121   3.565   1.730   1.310
 1370SOL    HW2 4122   3.485   1.810   1.428
 1371SOL     OW 4123   3.703   0.175   0.963
 1371SOL    HW1 4124   3.742   0.090   0.927
 1371SOL    HW2 4125   3.605   0.177   0.944
 1372SOL     OW 4126   2.125   0.326   0.720
 1372SOL    HW1 4127   2.046   0.377   0.686
 1372SOL    HW2 4128   2.116   0.311   0.818
 1373SOL     OW 4129   3.056   1.612   0.031
 1373SOL    HW1 4130   3.062   1.519   0.068
 1373SOL    HW2 4131   2.997   1.612  -0.049
 1374SOL     OW 4132   2.684   1.002   1.372
 1374SOL    HW1 4133   2.724   1.001   1.280
 1374SOL    HW2 4134   2.694   1.094   1.412
 1375SOL     OW 4135   2.778   0.910   0.291
 1375SOL    HW1 4136   2.841   0.948   0.223
 1375SOL    HW2 4137   2.818   0.827   0.330
 1376SOL     OW 4138   3.366   1.607   0.044
 1376SOL    HW1 4139   3.274   1.644   0.051
 1376SOL    HW2 4140   3.404   1.627  -0.046
 1377SOL     OW 4141   2.234   1.288   1.490
 1377SOL    HW1 4142   2.221   1.381   1.456
 1377SOL    HW2 4143   2.150   1.236   1.477
 1378SOL     OW 4144   3.476   1.292   1.289
 1378SOL    HW1 4145   3.536   1.295   1.369
 1378SOL    HW2 4146   3.401   1.356   1.302
 1379SOL     OW 4147   2.901   1.098   0.696
 1379SOL    HW1 4148   2.831   1.051   0.750
 1379SOL    HW2 4149   2.960   1.030   0.653
 1380SOL     OW 4150   2.876   0.236   0.971
 1380SOL    HW1 4151   2.868   0.200   0.878
 1380SOL    HW2 4152   2.874   0.160   1.036
 1381SOL     OW 4153   2.452   1.487   0.491
 1381SOL    HW1 4154   2.494   1.429   0.421
 1381SOL    HW2 4155   2.408   1.566   0.447
 1382SOL     OW 4156   3.571   0.385   1.381
 1382SOL    HW1 4157   3.644   0.454   1.385
 1382SOL    HW2 4158   3.599   0.310   1.322
 1383SOL     OW 4159   2.117   1.348   0.290
 1383SOL    HW1 4160   2.021   1.349   0.263
 1383SOL    HW2 4161   2.129   1.401   0.374
 1384SOL     OW 4162   1.967   1.013   1.726
 1384SOL    HW1 4163   1.890   0.980   1.780
 1384SOL    HW2 4164   2.052   0.983   1.768
 1385SOL     OW 4165   2.534   0.203   1.489
 1385SOL    HW1 4166   2.624   0.187   1.449
 1385SOL    HW2 4167   2.542   0.208   1.588
 1386SOL     OW 4168   1.937   0.345   0.033
 1386SOL    HW1 4169   1.845   0.317   0.004
 1386SOL    HW2 4170   1.968   0.422  -0.023
 1387SOL     OW 4171   3.302   0.856   1.398
 1387SOL    HW1 4172   3.245   0.908   1.335
 1387SOL    HW2 4173   3.398   0.868   1.374
 1388SOL     OW 4174   3.045   1.335   0.119
 1388SOL    HW1 4175   2.946   1.324   0.121
 1388SOL    HW2 4176   3.079   1.350   0.212
 1389SOL     OW 4177   2.475   0.842   1.431
 1389SOL    HW1 4178   2.531   0.923   1.414
 1389SOL    HW2 4179   2.534   0.762   1.434
 1390SOL     OW 4180   3.355   1.767   0.959
 1390SOL    HW1 4181   3.388   1.831   0.890
 1390SOL    HW2 4182   3.421   1.761   1.034
 1391SOL     OW 4183   2.578   0.565   1.708
 1391SOL    HW1 4184   2.597   0.630   1.782
 1391SOL    HW2 4185   2.638   0.485   1.717
 1392SOL     OW 4186   3.312   1.220   1.633
 1392SOL    HW1 4187   3.303   1.210   1.732
 1392SOL    HW2 4188   3.408   1.213   1.607
 1393SOL     OW 4189   2.252   1.741   1.560
 1393SOL    HW1 4190   2.161   1.782   1.558
 1393SOL    HW2 4191   2.245   1.647   1.592
 1394SOL     OW 4192   3.536   0.883   1.254
 1394SOL    HW1 4193   3.509   0.794   1.217
 1394SOL    HW2 4194   3.537   0.951   1.181
 1395SOL     OW 4195   3.087   0.325   0.449
 1395SOL    HW1 4196   3.152   0.251   0.438
 1395SOL    HW2 4197   3.107   0.375   0.533
 1396SOL     OW 4198   2.456   0.745   0.652
 1396SOL    HW1 4199   2.506   0.830   0.633
 1396SOL    HW2 4200   2.368   0.747   0.604
 1397SOL     OW 4201   3.639   0.342   1.642
 1397SOL    HW1 4202   3.622   0.373   1.548
 1397SOL    HW2 4203   3.555   0.305   1.680
 1398SOL     OW 4204   3.592   0.934   1.517
 1398SOL    HW1 4205   3.630   1.025   1.532
 1398SOL    HW2 4206   3.584   0.917   1.418
 1399SOL     OW 4207   2.721   1.374   0.016
 1399SOL    HW1 4208   2.675   1.389   0.104
 1399SOL    HW2 4209   2.765   1.459  -0.014
 1400SOL     OW 4210   2.523   1.790   0.953
 1400SOL    HW1 4211   2.477   1.878   0.940
 1400SOL    HW2 4212   2.622   1.802   0.946
 1401SOL     OW 4213   2.721   0.956   0.861
 1401SOL    HW1 4214   2.775   0.887   0.909
 1401SOL    HW2 4215   2.689   1.025   0.927
 1402SOL     OW 4216   2.945   0.984   0.087
 1402SOL    HW1 4217   2.922   1.037   0.005
 1402SOL    HW2 4218   3.026   0.928   0.068
 1403SOL     OW 4219   3.723   1.569   0.851
 1403SOL    HW1 4220   3.652   1.557   0.781
 1403SOL    HW2 4221   3.724   1.490   0.911
 1404SOL     OW 4222   2.083   1.314   1.844
 1404SOL    HW1 4223   2.018   1.241   1.823
 1404SOL    HW2 4224   2.087   1.328   1.942
 1405SOL     OW 4225   1.941   1.240   0.653
 1405SOL    HW1 4226   1.940   1.193   0.741
 1405SOL    HW2 4227   2.023   1.212   0.602
 1406SOL     OW 4228   2.534   1.391   1.624
 1406SOL    HW1 4229   2.456   1.341   1.662
 1406SOL    HW2 4230   2.531   1.486   1.655
 1407SOL     OW 4231   3.686   0.192   1.227
 1407SOL    HW1 4232   3.682   0.102   1.271
 1407SOL    HW2 4233   3.689   0.181   1.128
 1408SOL     OW 4234   2.290   0.424   0.520
 1408SOL    HW1 4235   2.320   0.352   0.458
 1408SOL    HW2 4236   2.251   0.384   0.603
 1409SOL     OW 4237   3.567   1.487   1.104
 1409SOL    HW1 4238   3.474   1.462   1.077
 1409SOL    HW2 4239   3.593   1.437   1.186
 1410SOL     OW 4240   2.179   0.547   1.280
 1410SOL    HW1 4241   2.217   0.488   1.352
 1410SOL    HW2 4242   2.219   0.521   1.192
 1411SOL     OW 4243   2.674   1.586   0.687
 1411SOL    HW1 4244   2.706   1.596   0.593
 1411SOL    HW2 4245   2.595   1.524   0.689
 1412SOL     OW 4246   3.286   0.214   1.112
 1412SOL    HW1 4247   3.338   0.149   1.167
 1412SOL    HW2 4248   3.237   0.277   1.173
 1413SOL     OW 4249   2.863   0.034   1.154
 1413SOL    HW1 4250   2.800  -0.038   1.123
 1413SOL    HW2 4251   2.956  -0.002   1.154
 1414SOL     OW 4252   2.632   1.330   0.301
 1414SOL    HW1 4253   2.586   1.243   0.318
 1414SOL    HW2 4254   2.723   1.327   0.342
 1415SOL     OW 4255   2.480   1.567   1.284
 1415SOL    HW1 4256   2.475   1.649   1.341
 1415SOL    HW2 4257   2.569   1.564   1.239
 1416SOL     OW 4258   3.214   0.052   0.168
 1416SOL    HW1 4259   3.249   0.011   0.084
 1416SOL    HW2 4260   3.124   0.014   0.188
 1417SOL     OW 4261   3.162   0.453   0.691
 1417SOL    HW1 4262   3.103   0.533   0.695
 1417SOL    HW2 4263   3.177   0.418   0.784
 1418SOL     OW 4264   3.455   0.221   0.882
 1418SOL    HW1 4265   3.371   0.220   0.936
 1418SOL    HW2 4266   3.457   0.304   0.826
 1419SOL     OW 4267   1.901   1.077   0.300
 1419SOL    HW1 4268   2.000   1.066   0.291
 1419SOL    HW2 4269   1.861   0.991   0.332
 1420SOL     OW 4270   2.737   1.646   0.337
 1420SOL    HW1 4271   2.660   1.611   0.283
 1420SOL    HW2 4272   2.705   1.717   0.399
 1421SOL     OW 4273   2.092   0.628   1.975
 1421SOL    HW1 4274   1.999   0.626   2.012
 1421SOL    HW2 4275   2.093   0.589   1.883
 1422SOL     OW 4276   2.087   0.275   2.858
 1422SOL    HW1 4277   2.122   0.258   2.950
 1422SOL    HW2 4278   1.999   0.230   2.846
 1423SOL     OW 4279   1.881   0.368   2.509
 1423SOL    HW1 4280   1.799   0.411   2.548
 1423SOL    HW2 4281   1.853   0.295   2.446
 1424SOL     OW 4282   2.431   1.275   3.027
 1424SOL    HW1 4283   2.338   1.268   2.990
 1424SOL    HW2 4284   2.442   1.364   3.071
 1425SOL     OW 4285   3.417   1.511   2.565
 1425SOL    HW1 4286   3.360   1.495   2.646
 1425SOL    HW2 4287   3.358   1.521   2.485
 1426SOL     OW 4288   2.997   0.703   2.579
 1426SOL    HW1 4289   3.054   0.781   2.554
 1426SOL    HW2 4290   2.937   0.729   2.655
 1427SOL     OW 4291   3.617   0.607   2.093
 1427SOL    HW1 4292   3.605   0.594   1.994
 1427SOL    HW2 4293   3.587   0.526   2.142
 1428SOL     OW 4294   2.630   1.144   2.885
 1428SOL    HW1 4295   2.552   1.161   2.945
 1428SOL    HW2 4296   2.664   1.231   2.849
 1429SOL     OW 4297   2.712   0.798   3.685
 1429SOL    HW1 4298   2.708   0.874   3.750
 1429SOL    HW2 4299   2.734   0.834   3.594
 1430SOL     OW 4300   2.547   1.012   2.527
 1430SOL    HW1 4301   2.616   0.996   2.597
 1430SOL    HW2 4302   2.474   1.069   2.565
 1431SOL     OW 4303   2.548   1.161   3.665
 1431SOL    HW1 4304   2.608   1.240   3.679
 1431SOL    HW2 4305   2.462   1.192   3.624
 1432SOL     OW 4306   2.197   1.435   2.923
 1432SOL    HW1 4307   2.119   1.404   2.870
 1432SOL    HW2 4308   2.255   1.493   2.866
 1433SOL     OW 4309   3.322   1.505   3.201
 1433SOL    HW1 4310   3.346   1.599   3.227
 1433SOL    HW2 4311   3.306   1.451   3.283
 1434SOL     OW 4312   2.300   0.392   3.361
 1434SOL    HW1 4313   2.382   0.336   3.370
 1434SOL    HW2 4314   2.219   0.334   3.365
 1435SOL     OW 4315   3.465   0.447   2.599
 1435SOL    HW1 4316   3.391   0.493   2.549
 1435SOL    HW2 4317   3.516   0.515   2.652
 1436SOL     OW 4318   2.093   1.713   2.345
 1436SOL    HW1 4319   2.127   1.790   2.399
 1436SOL    HW2 4320   2.137   1.713   2.255
 1437SOL     OW 4321   2.989   1.341   3.552
 1437SOL    HW1 4322   3.036   1.341   3.640
 1437SOL    HW2 4323   2.941   1.254   3.541
 1438SOL     OW 4324   2.092   1.434   2.400
 1438SOL    HW1 4325   2.066   1.530   2.400
 1438SOL    HW2 4326   2.021   1.380   2.445
 1439SOL     OW 4327   2.102   1.091   2.748
 1439SOL    HW1 4328   2.116   1.007   2.800
 1439SOL    HW2 4329   2.047   1.155   2.803
 1440SOL     OW 4330   2.482   1.786   3.301
 1440SOL    HW1 4331   2.390   1.769   3.336
 1440SOL    HW2 4332   2.510   1.878   3.327
 1441SOL     OW 4333   2.468   0.964   1.985
 1441SOL    HW1 4334   2.475   1.048   1.931
 1441SOL    HW2 4335   2.514   0.977   2.073
 1442SOL     OW 4336   3.456   0.114   3.342
 1442SOL    HW1 4337   3.438   0.181   3.270
 1442SOL    HW2 4338   3.453   0.160   3.431
 1443SOL     OW 4339   1.984   0.643   2.425
 1443SOL    HW1 4340   1.939   0.555   2.442
 1443SOL    HW2 4341   1.983   0.697   2.509
 1444SOL     OW 4342   3.704   1.767   2.221
 1444SOL    HW1 4343   3.758   1.738   2.301
 1444SOL    HW2 4344   3.734   1.857   2.192
 1445SOL     OW 4345   1.889   1.596   1.979
 1445SOL    HW1 4346   1.870   1.500   2.000
 1445SOL    HW2 4347   1.856   1.654   2.054
 1446SOL     OW 4348   3.551   0.922   2.474
 1446SOL    HW1 4349   3.646   0.893   2.482
 1446SOL    HW2 4350   3.543   0.987   2.399
 1447SOL     OW 4351   3.503   1.108   2.294
 1447SOL    HW1 4352   3.589   1.110   2.242
 1447SOL    HW2 4353   3.517   1.155   2.382
 1448SOL     OW 4354   1.975   0.737   3.459
 1448SOL    HW1 4355   2.063   0.724   3.504
 1448SOL    HW2 4356   1.962   0.834   3.437
 1449SOL     OW 4357   2.475   1.365   2.588
 1449SOL    HW1 4358   2.426   1.278   2.597
 1449SOL    HW2 4359   2.452   1.408   2.501
 1450SOL     OW 4360   3.155   1.228   3.285
 1450SOL    HW1 4361   3.192   1.155   3.227
 1450SOL    HW2 4362   3.207   1.233   3.370
 1451SOL     OW 4363   2.671   0.004   2.364
 1451SOL    HW1 4364   2.711   0.095   2.355
 1451SOL    HW2 4365   2.571   0.012   2.370
 1452SOL     OW 4366   2.059   0.976   3.126
 1452SOL    HW1 4367   2.148   0.931   3.112
 1452SOL    HW2 4368   1.986   0.911   3.107
 1453SOL     OW 4369   3.387   0.999   2.052
 1453SOL    HW1 4370   3.324   0.923   2.065
 1453SOL    HW2 4371   3.435   1.017   2.138
 1454SOL     OW 4372   3.049   1.792   3.478
 1454SOL    HW1 4373   3.073   1.852   3.402
 1454SOL    HW2 4374   3.056   1.697   3.448
 1455SOL     OW 4375   2.179   0.251   3.663
 1455SOL    HW1 4376   2.250   0.322   3.669
 1455SOL    HW2 4377   2.091   0.290   3.691
 1456SOL     OW 4378   3.328   1.417   2.815
 1456SOL    HW1 4379   3.269   1.423   2.895
 1456SOL    HW2 4380   3.313   1.329   2.769
 1457SOL     OW 4381   3.529   1.714   2.434
 1457SOL    HW1 4382   3.488   1.691   2.346
 1457SOL    HW2 4383   3.511   1.640   2.499
 1458SOL     OW 4384   2.460   0.729   2.132
 1458SOL    HW1 4385   2.484   0.798   2.064
 1458SOL    HW2 4386   2.382   0.762   2.186
 1459SOL     OW 4387   3.143   0.345   2.806
 1459SOL    HW1 4388   3.057   0.295   2.793
 1459SOL    HW2 4389   3.205   0.291   2.862
 1460SOL     OW 4390   3.438   1.662   2.169
 1460SOL    HW1 4391   3.527   1.708   2.172
 1460SOL    HW2 4392   3.417   1.638   2.074
 1461SOL     OW 4393   2.669   0.605   3.327
 1461SOL    HW1 4394   2.622   0.602   3.416
 1461SOL    HW2 4395   2.618   0.550   3.261
 1462SOL     OW 4396   3.256   0.469   3.536
 1462SOL    HW1 4397   3.236   0.512   3.624
 1462SOL    HW2 4398   3.334   0.407   3.545
 1463SOL     OW 4399   2.835   0.890   3.434
 1463SOL    HW1 4400   2.881   0.806   3.405
 1463SOL    HW2 4401   2.779   0.924   3.359
 1464SOL     OW 4402   2.853   0.410   3.104
 1464SOL    HW1 4403   2.776   0.444   3.158
 1464SOL    HW2 4404   2.819   0.359   3.025
 1465SOL     OW 4405   2.903   0.701   2.291
 1465SOL    HW1 4406   2.929   0.697   2.387
 1465SOL    HW2 4407   2.818   0.650   2.277
 1466SOL     OW 4408   1.938   0.811   2.651
 1466SOL    HW1 4409   2.037   0.799   2.660
 1466SOL    HW2 4410   1.914   0.906   2.672
 1467SOL     OW 4411   1.992   1.821   3.433
 1467SOL    HW1 4412   1.982   1.806   3.532
 1467SOL    HW2 4413   1.906   1.857   3.397
 1468SOL     OW 4414   2.727   0.348   2.057
 1468SOL    HW1 4415   2.786   0.411   2.008
 1468SOL    HW2 4416   2.746   0.254   2.028
 1469SOL     OW 4417   3.581   0.585   3.693
 1469SOL    HW1 4418   3.555   0.674   3.657
 1469SOL    HW2 4419   3.579   0.517   3.620
 1470SOL     OW 4420   3.224   1.144   2.407
 1470SOL    HW1 4421   3.307   1.115   2.359
 1470SOL    HW2 4422   3.175   1.211   2.351
 1471SOL     OW 4423   2.412   0.196   2.747
 1471SOL    HW1 4424   2.407   0.191   2.847
 1471SOL    HW2 4425   2.414   0.292   2.718
 1472SOL     OW 4426   2.870   1.456   2.339
 1472SOL    HW1 4427   2.824   1.528   2.287
 1472SOL    HW2 4428   2.866   1.476   2.437
 1473SOL     OW 4429   2.213   1.801   2.715
 1473SOL    HW1 4430   2.263   1.715   2.721
 1473SOL    HW2 4431   2.278   1.878   2.712
 1474SOL     OW 4432   3.657   1.066   2.735
 1474SOL    HW1 4433   3.595   1.051   2.659
 1474SOL    HW2 4434   3.605   1.077   2.820
 1475SOL     OW 4435   3.089   1.550   3.368
 1475SOL    HW1 4436   3.095   1.473   3.432
 1475SOL    HW2 4437   3.037   1.524   3.288
 1476SOL     OW 4438   2.183   0.943   2.104
 1476SOL    HW1 4439   2.265   0.982   2.062
 1476SOL    HW2 4440   2.156   0.861   2.055
 1477SOL     OW 4441   3.320   0.735   2.590
 1477SOL    HW1 4442   3.315   0.670   2.665
 1477SOL    HW2 4443   3.400   0.794   2.603
 1478SOL     OW 4444   2.323   1.266   3.589
 1478SOL    HW1 4445   2.273   1.267   3.503
 1478SOL    HW2 4446   2.260   1.248   3.665
 1479SOL     OW 4447   2.973   1.776   2.099
 1479SOL    HW1 4448   2.913   1.714   2.149
 1479SOL    HW2 4449   3.004   1.732   2.014
 1480SOL     OW 4450   2.064   0.285   3.360
 1480SOL    HW1 4451   1.984   0.345   3.347
 1480SOL    HW2 4452   2.054   0.236   3.446
 1481SOL     OW 4453   3.494   1.377   1.943
 1481SOL    HW1 4454   3.462   1.471   1.933
 1481SOL    HW2 4455   3.418   1.314   1.931
 1482SOL     OW 4456   2.326   1.743   2.185
 1482SOL    HW1 4457   2.359   1.782   2.271
 1482SOL    HW2 4458   2.402   1.736   2.120
 1483SOL     OW 4459   3.262   0.107   2.288
 1483SOL    HW1 4460   3.238   0.070   2.198
 1483SOL    HW2 4461   3.361   0.123   2.292
 1484SOL     OW 4462   2.111   1.785   3.103
 1484SOL    HW1 4463   2.168   1.720   3.153
 1484SOL    HW2 4464   2.095   1.752   3.010
 1485SOL     OW 4465   2.802   1.698   2.766
 1485SOL    HW1 4466   2.882   1.641   2.787
 1485SOL    HW2 4467   2.753   1.658   2.689
 1486SOL     OW 4468   2.244   0.700   2.342
 1486SOL    HW1 4469   2.289   0.610   2.339
 1486SOL    HW2 4470   2.150   0.689   2.375
 1487SOL     OW 4471   3.409   0.222   3.591
 1487SOL    HW1 4472   3.404   0.259   3.683
 1487SOL    HW2 4473   3.337   0.153   3.579
 1488SOL     OW 4474   2.476   0.122   1.979
 1488SOL    HW1 4475   2.574   0.100   1.986
 1488SOL    HW2 4476   2.445   0.105   1.886
 1489SOL     OW 4477   2.643   0.264   3.611
 1489SOL    HW1 4478   2.710   0.203   3.654
 1489SOL    HW2 4479   2.570   0.283   3.676
 1490SOL     OW 4480   2.750   1.514   3.057
 1490SOL    HW1 4481   2.727   1.489   2.963
 1490SOL    HW2 4482   2.811   1.445   3.096
 1491SOL     OW 4483   3.213   0.590   3.295
 1491SOL    HW1 4484   3.241   0.547   3.380
 1491SOL    HW2 4485   3.238   0.686   3.296
 1492SOL     OW 4486   2.665   1.402   2.786
 1492SOL    HW1 4487   2.755   1.416   2.744
 1492SOL    HW2 4488   2.594   1.404   2.715
 1493SOL     OW 4489   2.784   0.503   2.761
 1493SOL    HW1 4490   2.759   0.494   2.665
 1493SOL    HW2 4491   2.832   0.421   2.792
 1494SOL     OW 4492   2.401   0.064   2.374
 1494SOL    HW1 4493   2.320   0.065   2.432
 1494SOL    HW2 4494   2.404   0.147   2.319
 1495SOL     OW 4495   3.296   1.188   1.903
 1495SOL    HW1 4496   3.328   1.112   1.960
 1495SOL    HW2 4497   3.204   1.215   1.933
 1496SOL     OW 4498   2.159   0.035   2.033
 1496SOL    HW1 4499   2.208   0.119   2.012
 1496SOL    HW2 4500   2.221  -0.030   2.078
 1497SOL     OW 4501   2.797   0.236   2.342
 1497SOL    HW1 4502   2.749   0.277   2.264
 1497SOL    HW2 4503   2.896   0.234   2.323
 1498SOL     OW 4504   2.938   0.683   3.326
 1498SOL    HW1 4505   2.858   0.622   3.329
 1498SOL    HW2 4506   3.019   0.630   3.302
 1499SOL     OW 4507   3.089   1.570   2.655
 1499SOL    HW1 4508   3.110   1.644   2.590
 1499SOL    HW2 4509   3.157   1.570   2.728
 1500SOL     OW 4510   2.321   1.152   2.603
 1500SOL    HW1 4511   2.250   1.125   2.668
 1500SOL    HW2 4512   2.295   1.124   2.510
 1501SOL     OW 4513   3.133   1.797   2.453
 1501SOL    HW1 4514   3.177   1.861   2.389
 1501SOL    HW2 4515   3.083   1.849   2.523
 1502SOL     OW 4516   2.894   0.549   1.878
 1502SOL    HW1 4517   2.853   0.631   1.839
 1502SOL    HW2 4518   2.958   0.575   1.951
 1503SOL     OW 4519   1.940   0.556   3.248
 1503SOL    HW1 4520   2.032   0.555   3.207
 1503SOL    HW2 4521   1.934   0.630   3.315
 1504SOL     OW 4522   2.423   0.222   3.009
 1504SOL    HW1 4523   2.461   0.138   3.046
 1504SOL    HW2 4524   2.335   0.241   3.053
 1505SOL     OW 4525   2.728   0.454   2.504
 1505SOL    HW1 4526   2.696   0.526   2.442
 1505SOL    HW2 4527   2.752   0.373   2.451
 1506SOL     OW 4528   2.879   0.039   2.615
 1506SOL    HW1 4529   2.807   0.044   2.546
 1506SOL    HW2 4530   2.855  -0.030   2.684
 1507SOL     OW 4531   3.291   1.173   2.729
 1507SOL    HW1 4532   3.236   1.089   2.722
 1507SOL    HW2 4533   3.317   1.202   2.637
 1508SOL     OW 4534   3.328   0.590   2.854
 1508SOL    HW1 4535   3.298   0.495   2.861
 1508SOL    HW2 4536   3.401   0.606   2.920
 1509SOL     OW 4537   3.719   0.833   2.239
 1509SOL    HW1 4538   3.761   0.769   2.303
 1509SOL    HW2 4539   3.681   0.782   2.161
 1510SOL     OW 4540   2.350   1.385   2.036
 1510SOL    HW1 4541   2.263   1.370   2.083
 1510SOL    HW2 4542   2.333   1.411   1.941
 1511SOL     OW 4543   3.526   1.280   2.519
 1511SOL    HW1 4544   3.625   1.288   2.533
 1511SOL    HW2 4545   3.481   1.364   2.550
 1512SOL     OW 4546   3.252   0.575   1.940
 1512SOL    HW1 4547   3.198   0.554   2.021
 1512SOL    HW2 4548   3.343   0.534   1.949
 1513SOL     OW 4549   2.389   0.256   2.190
 1513SOL    HW1 4550   2.416   0.197   2.115
 1513SOL    HW2 4551   2.389   0.351   2.159
 1514SOL     OW 4552   3.616   1.223   3.450
 1514SOL    HW1 4553   3.707   1.184   3.437
 1514SOL    HW2 4554   3.624   1.319   3.474
 1515SOL     OW 4555   2.926   1.347   3.202
 1515SOL    HW1 4556   2.846   1.324   3.257
 1515SOL    HW2 4557   3.009   1.321   3.251
 1516SOL     OW 4558   3.454   1.629   3.487
 1516SOL    HW1 4559   3.481   1.663   3.397
 1516SOL    HW2 4560   3.533   1.591   3.533
 1517SOL     OW 4561   2.973   1.195   2.962
 1517SOL    HW1 4562   2.933   1.239   3.043
 1517SOL    HW2 4563   2.932   1.232   2.879
 1518SOL     OW 4564   3.500   1.099   2.941
 1518SOL    HW1 4565   3.505   1.180   3.000
 1518SOL    HW2 4566   3.414   1.101   2.890
 1519SOL     OW 4567   2.777   0.089   3.264
 1519SOL    HW1 4568   2.802   0.069   3.169
 1519SOL    HW2 4569   2.849   0.145   3.306
 1520SOL     OW 4570   2.842   1.116   3.581
 1520SOL    HW1 4571   2.743   1.122   3.591
 1520SOL    HW2 4572   2.865   1.036   3.525
 1521SOL     OW 4573   2.567   1.050   2.230
 1521SOL    HW1 4574   2.553   1.057   2.329
 1521SOL    HW2 4575   2.651   0.999   2.212
 1522SOL     OW 4576   2.272   0.813   3.113
 1522SOL    HW1 4577   2.358   0.825   3.163
 1522SOL    HW2 4578   2.230   0.726   3.140
 1523SOL     OW 4579   3.136   0.386   3.124
 1523SOL    HW1 4580   3.157   0.460   3.188
 1523SOL    HW2 4581   3.047   0.403   3.081
 1524SOL     OW 4582   1.926   1.564   3.193
 1524SOL    HW1 4583   1.880   1.646   3.159
 1524SOL    HW2 4584   2.024   1.583   3.202
 1525SOL     OW 4585   2.229   1.100   2.363
 1525SOL    HW1 4586   2.222   1.183   2.307
 1525SOL    HW2 4587   2.233   1.020   2.303
 1526SOL     OW 4588   2.428   0.537   2.727
 1526SOL    HW1 4589   2.440   0.603   2.653
 1526SOL    HW2 4590   2.474   0.571   2.810
 1527SOL     OW 4591   3.114   1.348   2.250
 1527SOL    HW1 4592   3.164   1.425   2.290
 1527SOL    HW2 4593   3.019   1.350   2.282
 1528SOL     OW 4594   3.134   1.445   3.004
 1528SOL    HW1 4595   3.181   1.458   3.091
 1528SOL    HW2 4596   3.068   1.371   3.013
 1529SOL     OW 4597   3.444   0.639   2.334
 1529SOL    HW1 4598   3.413   0.700   2.407
 1529SOL    HW2 4599   3.494   0.691   2.265
 1530SOL     OW 4600   2.216   1.510   3.191
 1530SOL    HW1 4601   2.195   1.466   3.104
 1530SOL    HW2 4602   2.313   1.536   3.194
 1531SOL     OW 4603   2.264   0.751   3.460
 1531SOL    HW1 4604   2.332   0.806   3.413
 1531SOL    HW2 4605   2.304   0.663   3.487
 1532SOL     OW 4606   3.449   0.779   3.532
 1532SOL    HW1 4607   3.357   0.817   3.527
 1532SOL    HW2 4608   3.509   0.826   3.467
 1533SOL     OW 4609   2.875   0.105   3.632
 1533SOL    HW1 4610   2.881   0.190   3.580
 1533SOL    HW2 4611   2.907   0.029   3.575
 1534SOL     OW 4612   2.366   0.050   3.602
 1534SOL    HW1 4613   2.324  -0.007   3.532
 1534SOL    HW2 4614   2.300   0.119   3.634
 1535SOL     OW 4615   2.435   0.870   2.891
 1535SOL    HW1 4616   2.479   0.959   2.882
 1535SOL    HW2 4617   2.372   0.870   2.968
 1536SOL     OW 4618   3.222   0.862   2.907
 1536SOL    HW1 4619   3.147   0.862   2.841
 1536SOL    HW2 4620   3.259   0.770   2.916
 1537SOL     OW 4621   3.071   0.525   2.137
 1537SOL    HW1 4622   3.084   0.441   2.191
 1537SOL    HW2 4623   3.042   0.599   2.197
 1538SOL     OW 4624   2.169   0.213   3.093
 1538SOL    HW1 4625   2.146   0.250   3.183
 1538SOL    HW2 4626   2.139   0.118   3.087
 1539SOL     OW 4627   1.899   1.310   3.144
 1539SOL    HW1 4628   1.952   1.261   3.212
 1539SOL    HW2 4629   1.921   1.408   3.149
 1540SOL     OW 4630   2.594   0.634   2.926
 1540SOL    HW1 4631   2.653   0.608   2.850
 1540SOL    HW2 4632   2.566   0.730   2.915
 1541SOL     OW 4633   3.590   0.935   3.716
 1541SOL    HW1 4634   3.544   0.928   3.627
 1541SOL    HW2 4635   3.528   0.979   3.782
 1542SOL     OW 4636   2.169   0.063   2.480
 1542SOL    HW1 4637   2.158   0.157   2.513
 1542SOL    HW2 4638   2.164   0.000   2.557
 1543SOL     OW 4639   3.484   0.367   2.236
 1543SOL    HW1 4640   3.486   0.291   2.300
 1543SOL    HW2 4641   3.436   0.444   2.276
 1544SOL     OW 4642   2.885   0.766   2.828
 1544SOL    HW1 4643   2.900   0.787   2.924
 1544SOL    HW2 4644   2.855   0.671   2.819
 1545SOL     OW 4645   2.842   1.573   3.562
 1545SOL    HW1 4646   2.822   1.617   3.474
 1545SOL    HW2 4647   2.881   1.482   3.546
 1546SOL     OW 4648   3.721   1.518   3.467
 1546SOL    HW1 4649   3.735   1.545   3.372
 1546SOL    HW2 4650   3.804   1.540   3.520
 1547SOL     OW 4651   2.212   0.898   3.666
 1547SOL    HW1 4652   2.288   0.942   3.714
 1547SOL    HW2 4653   2.247   0.851   3.584
 1548SOL     OW 4654   3.402   0.274   1.987
 1548SOL    HW1 4655   3.341   0.199   2.010
 1548SOL    HW2 4656   3.424   0.326   2.070
 1549SOL     OW 4657   3.165   0.838   1.904
 1549SOL    HW1 4658   3.199   0.745   1.919
 1549SOL    HW2 4659   3.183   0.865   1.809
 1550SOL     OW 4660   2.930   1.333   2.711
 1550SOL    HW1 4661   2.937   1.249   2.656
 1550SOL    HW2 4662   2.992   1.402   2.675
 1551SOL     OW 4663   2.181   0.810   2.811
 1551SOL    HW1 4664   2.274   0.846   2.816
 1551SOL    HW2 4665   2.175   0.725   2.863
 1552SOL     OW 4666   2.201   0.509   2.868
 1552SOL    HW1 4667   2.149   0.426   2.851
 1552SOL    HW2 4668   2.278   0.514   2.804
 1553SOL     OW 4669   3.000   0.380   3.540
 1553SOL    HW1 4670   2.955   0.443   3.604
 1553SOL    HW2 4671   3.093   0.411   3.523
 1554SOL     OW 4672   3.022   0.207   3.339
 1554SOL    HW1 4673   3.022   0.271   3.416
 1554SOL    HW2 4674   3.050   0.255   3.256
 1555SOL     OW 4675   1.870   1.326   2.062
 1555SOL    HW1 4676   1.777   1.347   2.031
 1555SOL    HW2 4677   1.880   1.227   2.075
 1556SOL     OW 4678   1.950   1.801   2.789
 1556SOL    HW1 4679   1.908   1.715   2.762
 1556SOL    HW2 4680   2.044   1.804   2.755
 1557SOL     OW 4681   2.366   1.568   2.772
 1557SOL    HW1 4682   2.432   1.642   2.781
 1557SOL    HW2 4683   2.410   1.489   2.730
 1558SOL     OW 4684   2.864   0.796   3.100
 1558SOL    HW1 4685   2.905   0.764   3.186
 1558SOL    HW2 4686   2.768   0.769   3.097
 1559SOL     OW 4687   1.902   0.544   2.976
 1559SOL    HW1 4688   1.987   0.511   2.935
 1559SOL    HW2 4689   1.915   0.559   3.074
 1560SOL     OW 4690   2.051   0.520   3.584
 1560SOL    HW1 4691   2.110   0.480   3.514
 1560SOL    HW2 4692   1.993   0.591   3.543
 1561SOL     OW 4693   3.231   0.950   3.522
 1561SOL    HW1 4694   3.270   1.039   3.542
 1561SOL    HW2 4695   3.241   0.930   3.425
 1562SOL     OW 4696   2.677   0.572   2.187
 1562SOL    HW1 4697   2.684   0.483   2.141
 1562SOL    HW2 4698   2.583   0.606   2.179
 1563SOL     OW 4699   3.519   0.604   3.068
 1563SOL    HW1 4700   3.481   0.535   3.130
 1563SOL    HW2 4701   3.601   0.568   3.024
 1564SOL     OW 4702   2.114   1.564   3.606
 1564SOL    HW1 4703   2.084   1.621   3.682
 1564SOL    HW2 4704   2.107   1.467   3.632
 1565SOL     OW 4705   2.533   0.464   3.131
 1565SOL    HW1 4706   2.499   0.375   3.101
 1565SOL    HW2 4707   2.559   0.518   3.051
 1566SOL     OW 4708   2.792   1.678   3.327
 1566SOL    HW1 4709   2.768   1.660   3.232
 1566SOL    HW2 4710   2.822   1.772   3.337
 1567SOL     OW 4711   2.335   0.500   2.053
 1567SOL    HW1 4712   2.396   0.580   2.057
 1567SOL    HW2 4713   2.240   0.531   2.060
 1568SOL     OW 4714   2.021   1.137   3.328
 1568SOL    HW1 4715   2.043   1.076   3.404
 1568SOL    HW2 4716   2.031   1.088   3.242
 1569SOL     OW 4717   3.209   1.059   3.096
 1569SOL    HW1 4718   3.233   0.996   3.022
 1569SOL    HW2 4719   3.119   1.099   3.078
 1570SOL     OW 4720   3.164   0.855   2.171
 1570SOL    HW1 4721   3.078   0.824   2.213
 1570SOL    HW2 4722   3.160   0.841   2.072
 1571SOL     OW 4723   3.621   1.747   3.016
 1571SOL    HW1 4724   3.682   1.777   2.943
 1571SOL    HW2 4725   3.583   1.658   2.994
 1572SOL     OW 4726   3.114   1.731   2.990
 1572SOL    HW1 4727   3.198   1.736   2.936
 1572SOL    HW2 4728   3.091   1.635   3.008
 1573SOL     OW 4729   1.945   1.258   2.884
 1573SOL    HW1 4730   1.940   1.257   2.984
 1573SOL    HW2 4731   1.862   1.217   2.846
 1574SOL     OW 4732   2.550   1.662   3.578
 1574SOL    HW1 4733   2.494   1.743   3.587
 1574SOL    HW2 4734   2.602   1.666   3.492
 1575SOL     OW 4735   3.588   0.135   2.385
 1575SOL    HW1 4736   3.661   0.118   2.318
 1575SOL    HW2 4737   3.557   0.048   2.423
 1576SOL     OW 4738   3.250   1.573   2.339
 1576SOL    HW1 4739   3.317   1.585   2.265
 1576SOL    HW2 4740   3.210   1.662   2.362
 1577SOL     OW 4741   1.992   1.794   3.713
 1577SOL    HW1 4742   1.951   1.720   3.766
 1577SOL    HW2 4743   2.056   1.845   3.771
 1578SOL     OW 4744   3.142   0.927   2.534
 1578SOL    HW1 4745   3.202   0.846   2.536
 1578SOL    HW2 4746   3.182   0.996   2.474
 1579SOL     OW 4747   2.692   1.273   3.284
 1579SOL    HW1 4748   2.687   1.306   3.379
 1579SOL    HW2 4749   2.606   1.292   3.238
 1580SOL     OW 4750   2.534   1.616   2.016
 1580SOL    HW1 4751   2.543   1.626   1.917
 1580SOL    HW2 4752   2.494   1.527   2.037
 1581SOL     OW 4753   3.512   1.720   3.256
 1581SOL    HW1 4754   3.565   1.730   3.172
 1581SOL    HW2 4755   3.485   1.810   3.290
 1582SOL     OW 4756   3.703   0.175   2.825
 1582SOL    HW1 4757   3.742   0.090   2.789
 1582SOL    HW2 4758   3.605   0.177   2.806
 1583SOL     OW 4759   2.125   0.326   2.582
 1583SOL    HW1 4760   2.046   0.377   2.548
 1583SOL    HW2 4761   2.116   0.311   2.680
 1584SOL     OW 4762   3.056   1.612   1.893
 1584SOL    HW1 4763   3.062   1.519   1.930
 1584SOL    HW2 4764   2.997   1.612   1.813
 1585SOL     OW 4765   2.684   1.002   3.234
 1585SOL    HW1 4766   2.724   1.001   3.142
 1585SOL    HW2 4767   2.694   1.094   3.274
 1586SOL     OW 4768   2.778   0.910   2.153
 1586SOL    HW1 4769   2.841   0.948   2.085
 1586SOL    HW2 4770   2.818   0.827   2.192
 1587SOL     OW 4771   3.366   1.607   1.906
 1587SOL    HW1 4772   3.274   1.644   1.913
 1587SOL    HW2 4773   3.404   1.627   1.816
 1588SOL     OW 4774   2.234   1.288   3.352
 1588SOL    HW1 4775   2.221   1.381   3.318
 1588SOL    HW2 4776   2.150   1.236   3.339
 1589SOL     OW 4777   3.476   1.292   3.151
 1589SOL    HW1 4778   3.536   1.295   3.231
 1589SOL    HW2 4779   3.401   1.356   3.164
 1590SOL     OW 4780   2.901   1.098   2.558
 1590SOL    HW1 4781   2.831   1.051   2.612
 1590SOL    HW2 4782   2.960   1.030   2.515
 1591SOL     OW 4783   2.876   0.236   2.833
 1591SOL    HW1 4784   2.868   0.200   2.740
 1591SOL    HW2 4785   2.874   0.160   2.898
 1592SOL     OW 4786   2.452   1.487   2.353
 1592SOL    HW1 4787   2.494   1.429   2.283
 1592SOL    HW2 4788   2.408   1.566   2.309
 1593SOL     OW 4789   3.571   0.385   3.243
 1593SOL    HW1 4790   3.644   0.454   3.247
 1593SOL    HW2 4791   3.599   0.310   3.184
 1594SOL     OW 4792   2.117   1.348   2.152
 1594SOL    HW1 4793   2.021   1.349   2.125
 1594SOL    HW2 4794   2.129   1.401   2.236
 1595SOL     OW 4795   1.967   1.013   3.588
 1595SOL    HW1 4796   1.890   0.980   3.642
 1595SOL    HW2 4797   2.052   0.983   3.630
 1596SOL     OW 4798   2.534   0.203   3.351
 1596SOL    HW1 4799   2.624   0.187   3.311
 1596SOL    HW2 4800   2.542   0.208   3.450
 1597SOL     OW 4801   1.937   0.345   1.895
 1597SOL    HW1 4802   1.845   0.317   1.866
 1597SOL    HW2 4803   1.968   0.422   1.839
 1598SOL     OW 4804   3.302   0.856   3.260
 1598SOL    HW1 4805   3.245   0.908   3.197
 1598SOL    HW2 4806   3.398   0.868   3.236
 1599SOL     OW 4807   1.934   0.166   2.180
 1599SOL    HW1 4808   1.917   0.249   2.126
 1599SOL    HW2 4809   2.024   0.129   2.158
 1600SOL     OW 4810   3.045   1.335   1.981
 1600SOL    HW1 4811   2.946   1.324   1.983
 1600SOL    HW2 4812   3.079   1.350   2.074
 1601SOL     OW 4813   2.475   0.842   3.293
 1601SOL    HW1 4814   2.531   0.923   3.276
 1601SOL    HW2 4815   2.534   0.762   3.296
 1602SOL     OW 4816   3.355   1.767   2.821
 1602SOL    HW1 4817   3.388   1.831   2.752
 1602SOL    HW2 4818   3.421   1.761   2.896
 1603SOL     OW 4819   2.578   0.565   3.570
 1603SOL    HW1 4820   2.597   0.630   3.644
 1603SOL    HW2 4821   2.638   0.485   3.579
 1604SOL     OW 4822   3.312   1.220   3.495
 1604SOL    HW1 4823   3.303   1.210   3.594
 1604SOL    HW2 4824   3.408   1.213   3.469
 1605SOL     OW 4825   2.252   1.741   3.422
 1605SOL    HW1 4826   2.161   1.782   3.420
 1605SOL    HW2 4827   2.245   1.647   3.454
 1606SOL     OW 4828   3.536   0.883   3.116
 1606SOL    HW1 4829   3.509   0.794   3.079
 1606SOL    HW2 4830   3.537   0.951   3.043
 1607SOL     OW 4831   3.087   0.325   2.311
 1607SOL    HW1 4832   3.152   0.251   2.300
 1607SOL    HW2 4833   3.107   0.375   2.395
 1608SOL     OW 4834   2.456   0.745   2.514
 1608SOL    HW1 4835   2.506   0.830   2.495
 1608SOL    HW2 4836   2.368   0.747   2.466
 1609SOL     OW 4837   3.639   0.342   3.504
 1609SOL    HW1 4838   3.622   0.373   3.410
 1609SOL    HW2 4839   3.555   0.305   3.542
 1610SOL     OW 4840   3.592   0.934   3.379
 1610SOL    HW1 4841   3.630   1.025   3.394
 1610SOL    HW2 4842   3.584   0.917   3.280
 1611SOL     OW 4843   2.721   1.374   1.878
 1611SOL    HW1 4844   2.675   1.389   1.966
 1611SOL    HW2 4845   2.765   1.459   1.848
 1612SOL     OW 4846   2.523   1.790   2.815
 1612SOL    HW1 4847   2.477   1.878   2.802
 1612SOL    HW2 4848   2.622   1.802   2.808
 1613SOL     OW 4849   2.721   0.956   2.723
 1613SOL    HW1 4850   2.775   0.887   2.771
 1613SOL    HW2 4851   2.689   1.025   2.789
 1614SOL     OW 4852   2.945   0.984   1.949
 1614SOL    HW1 4853   2.922   1.037   1.867
 1614SOL    HW2 4854   3.026   0.928   1.930
 1615SOL     OW 4855   3.723   1.569   2.713
 1615SOL    HW1 4856   3.652   1.557   2.643
 1615SOL    HW2 4857   3.724   1.490   2.773
 1616SOL     OW 4858   2.083   1.314   3.706
 1616SOL    HW1 4859   2.018   1.241   3.685
 1616SOL    HW2 4860   2.087   1.328   3.804
 1617SOL     OW 4861   1.941   1.240   2.515
 1617SOL    HW1 4862   1.940   1.193   2.603
 1617SOL    HW2 4863   2.023   1.212   2.464
 1618SOL     OW 4864   2.534   1.391   3.486
 1618SOL    HW1 4865   2.456   1.341   3.524
 1618SOL    HW2 4866   2.531   1.486   3.517
 1619SOL     OW 4867   3.686   0.192   3.089
 1619SOL    HW1 4868   3.682   0.102   3.133
 1619SOL    HW2 4869   3.689   0.181   2.990
 1620SOL     OW 4870   2.290   0.424   2.382
 1620SOL    HW1 4871   2.320   0.352   2.320
 1620SOL    HW2 4872   2.251   0.384   2.465
 1621SOL     OW 4873   3.567   1.487   2.966
 1621SOL    HW1 4874   3.474   1.462   2.939
 1621SOL    HW2 4875   3.593   1.437   3.048
 1622SOL     OW 4876   2.179   0.547   3.142
 1622SOL    HW1 4877   2.217   0.488   3.214
 1622SOL    HW2 4878   2.219   0.521   3.054
 1623SOL     OW 4879   2.674   1.586   2.549
 1623SOL    HW1 4880   2.706   1.596   2.455
 1623SOL    HW2 4881   2.595   1.524   2.551
 1624SOL     OW 4882   3.286   0.214   2.974
 1624SOL    HW1 4883   3.338   0.149   3.029
 1624SOL    HW2 4884   3.237   0.277   3.035
 1625SOL     OW 4885   2.863   0.034   3.016
 1625SOL    HW1 4886   2.800  -0.038   2.985
 1625SOL    HW2 4887   2.956  -0.002   3.016
 1626SOL     OW 4888   2.632   1.330   2.163
 1626SOL    HW1 4889   2.586   1.243   2.180
 1626SOL    HW2 4890   2.723   1.327   2.204
 1627SOL     OW 4891   2.480   1.567   3.146
 1627SOL    HW1 4892   2.475   1.649   3.203
 1627SOL    HW2 4893   2.569   1.564   3.101
 1628SOL     OW 4894   3.214   0.052   2.030
 1628SOL    HW1 4895   3.249   0.011   1.946
 1628SOL    HW2 4896   3.124   0.014   2.050
 1629SOL     OW 4897   3.162   0.453   2.553
 1629SOL    HW1 4898   3.103   0.533   2.557
 1629SOL    HW2 4899   3.177   0.418   2.646
 1630SOL     OW 4900   3.455   0.221   2.744
 1630SOL    HW1 4901   3.371   0.220   2.798
 1630SOL    HW2 4902   3.457   0.304   2.688
 1631SOL     OW 4903   1.901   1.077   2.162
 1631SOL    HW1 4904   2.000   1.066   2.153
 1631SOL    HW2 4905   1.861   0.991   2.194
 1632SOL     OW 4906   2.737   1.646   2.199
 1632SOL    HW1 4907   2.660   1.611   2.145
 1632SOL    HW2 4908   2.705   1.717   2.261
 1633SOL     OW 4909   2.092   0.628   3.837
 1633SOL    HW1 4910   1.999   0.626   3.874
 1633SOL    HW2 4911   2.093   0.589   3.745
 1634SOL     OW 4912   3.617   0.607   3.955
 1634SOL    HW1 4913   3.605   0.594   3.856
 1634SOL    HW2 4914   3.587   0.526   4.004
 1635SOL     OW 4915   2.093   1.713   4.207
 1635SOL    HW1 4916   2.127   1.790   4.261
 1635SOL    HW2 4917   2.137   1.713   4.117
 1636SOL     OW 4918   2.092   1.434   4.262
 1636SOL    HW1 4919   2.066   1.530   4.262
 1636SOL    HW2 4920   2.021   1.380   4.307
 1637SOL     OW 4921   2.468   0.964   3.847
 1637SOL    HW1 4922   2.475   1.048   3.793
 1637SOL    HW2 4923   2.514   0.977   3.935
 1638SOL     OW 4924   1.984   0.643   4.287
 1638SOL    HW1 4925   1.939   0.555   4.304
 1638SOL    HW2 4926   1.983   0.697   4.371
 1639SOL     OW 4927   3.704   1.767   4.083
 1639SOL    HW1 4928   3.758   1.738   4.163
 1639SOL    HW2 4929   3.734   1.857   4.054
 1640SOL     OW 4930   1.889   1.596   3.841
 1640SOL    HW1 4931   1.870   1.500   3.862
 1640SOL    HW2 4932   1.856   1.654   3.916
 1641SOL     OW 4933   3.551   0.922   4.336
 1641SOL    HW1 4934   3.646   0.893   4.344
 1641SOL    HW2 4935   3.543   0.987   4.261
 1642SOL     OW 4936   3.503   1.108   4.156
 1642SOL    HW1 4937   3.589   1.110   4.104
 1642SOL    HW2 4938   3.517   1.155   4.244
 1643SOL     OW 4939   2.475   1.365   4.450
 1643SOL    HW1 4940   2.426   1.278   4.459
 1643SOL    HW2 4941   2.452   1.408   4.363
 1644SOL     OW 4942   2.671   0.004   4.226
 1644SOL    HW1 4943   2.711   0.095   4.217
 1644SOL    HW2 4944   2.571   0.012   4.232
 1645SOL     OW 4945   3.387   0.999   3.914
 1645SOL    HW1 4946   3.324   0.923   3.927
 1645SOL    HW2 4947   3.435   1.017   4.000
 1646SOL     OW 4948   3.328   1.417   4.677
 1646SOL    HW1 4949   3.269   1.423   4.757
 1646SOL    HW2 4950   3.313   1.329   4.631
 1647SOL     OW 4951   2.460   0.729   3.994
 1647SOL    HW1 4952   2.484   0.798   3.926
 1647SOL    HW2 4953   2.382   0.762   4.048
 1648SOL     OW 4954   3.143   0.345   4.668
 1648SOL    HW1 4955   3.057   0.295   4.655
 1648SOL    HW2 4956   3.205   0.291   4.724
 1649SOL     OW 4957   3.438   1.662   4.031
 1649SOL    HW1 4958   3.527   1.708   4.034
 1649SOL    HW2 4959   3.417   1.638   3.936
 1650SOL     OW 4960   2.903   0.701   4.153
 1650SOL    HW1 4961   2.929   0.697   4.249
 1650SOL    HW2 4962   2.818   0.650   4.139
 1651SOL     OW 4963   1.938   0.811   4.513
 1651SOL    HW1 4964   2.037   0.799   4.522
 1651SOL    HW2 4965   1.914   0.906   4.534
 1652SOL     OW 4966   2.727   0.348   3.919
 1652SOL    HW1 4967   2.786   0.411   3.870
 1652SOL    HW2 4968   2.746   0.254   3.890
 1653SOL     OW 4969   3.224   1.144   4.269
 1653SOL    HW1 4970   3.307   1.115   4.221
 1653SOL    HW2 4971   3.175   1.211   4.213
 1654SOL     OW 4972   2.870   1.456   4.201
 1654SOL    HW1 4973   2.824   1.528   4.149
 1654SOL    HW2 4974   2.866   1.476   4.299
 1655SOL     OW 4975   2.213   1.801   4.577
 1655SOL    HW1 4976   2.263   1.715   4.583
 1655SOL    HW2 4977   2.278   1.878   4.574
 1656SOL     OW 4978   3.657   1.066   4.597
 1656SOL    HW1 4979   3.595   1.051   4.521
 1656SOL    HW2 4980   3.605   1.077   4.682
 1657SOL     OW 4981   2.183   0.943   3.966
 1657SOL    HW1 4982   2.265   0.982   3.924
 1657SOL    HW2 4983   2.156   0.861   3.917
 1658SOL     OW 4984   2.973   1.776   3.961
 1658SOL    HW1 4985   2.913   1.714   4.011
 1658SOL    HW2 4986   3.004   1.732   3.876
 1659SOL     OW 4987   3.494   1.377   3.805
 1659SOL    HW1 4988   3.462   1.471   3.795
 1659SOL    HW2 4989   3.418   1.314   3.793
 1660SOL     OW 4990   2.326   1.743   4.047
 1660SOL    HW1 4991   2.359   1.782   4.133
 1660SOL    HW2 4992   2.402   1.736   3.982
 1661SOL     OW 4993   3.262   0.107   4.150
 1661SOL    HW1 4994   3.238   0.070   4.060
 1661SOL    HW2 4995   3.361   0.123   4.154
 1662SOL     OW 4996   2.244   0.700   4.204
 1662SOL    HW1 4997   2.289   0.610   4.201
 1662SOL    HW2 4998   2.150   0.689   4.237
 1663SOL     OW 4999   2.476   0.122   3.841
 1663SOL    HW1 5000   2.574   0.100   3.848
 1663SOL    HW2 5001   2.445   0.105   3.748
 1664SOL     OW 5002   2.401   0.064   4.236
 1664SOL    HW1 5003   2.320   0.065   4.294
 1664SOL    HW2 5004   2.404   0.147   4.181
 1665SOL     OW 5005   3.296   1.188   3.765
 1665SOL    HW1 5006   3.328   1.112   3.822
 1665SOL    HW2 5007   3.204   1.215   3.795
 1666SOL     OW 5008   2.159   0.035   3.895
 1666SOL    HW1 5009   2.208   0.119   3.874
 1666SOL    HW2 5010   2.221  -0.030   3.940
 1667SOL     OW 5011   2.797   0.236   4.204
 1667SOL    HW1 5012   2.749   0.277   4.126
 1667SOL    HW2 5013   2.896   0.234   4.185
 1668SOL     OW 5014   2.321   1.152   4.465
 1668SOL    HW1 5015   2.250   1.125   4.530
 1668SOL    HW2 5016   2.295   1.124   4.372
 1669SOL     OW 5017   3.133   1.797   4.315
 1669SOL    HW1 5018   3.177   1.861   4.251
 1669SOL    HW2 5019   3.083   1.849   4.385
 1670SOL     OW 5020   2.894   0.549   3.740
 1670SOL    HW1 5021   2.853   0.631   3.701
 1670SOL    HW2 5022   2.958   0.575   3.813
 1671SOL     OW 5023   2.728   0.454   4.366
 1671SOL    HW1 5024   2.696   0.526   4.304
 1671SOL    HW2 5025   2.752   0.373   4.313
 1672SOL     OW 5026   3.719   0.833   4.101
 1672SOL    HW1 5027   3.761   0.769   4.165
 1672SOL    HW2 5028   3.681   0.782   4.023
 1673SOL     OW 5029   2.350   1.385   3.898
 1673SOL    HW1 5030   2.263   1.370   3.945
 1673SOL    HW2 5031   2.333   1.411   3.803
 1674SOL     OW 5032   3.252   0.575   3.802
 1674SOL    HW1 5033   3.198   0.554   3.883
 1674SOL    HW2 5034   3.343   0.534   3.811
 1675SOL     OW 5035   2.389   0.256   4.052
 1675SOL    HW1 5036   2.416   0.197   3.977
 1675SOL    HW2 5037   2.389   0.351   4.021
 1676SOL     OW 5038   2.567   1.050   4.092
 1676SOL    HW1 5039   2.553   1.057   4.191
 1676SOL    HW2 5040   2.651   0.999   4.074
 1677SOL     OW 5041   2.229   1.100   4.225
 1677SOL    HW1 5042   2.222   1.183   4.169
 1677SOL    HW2 5043   2.233   1.020   4.165
 1678SOL     OW 5044   3.114   1.348   4.112
 1678SOL    HW1 5045   3.164   1.425   4.152
 1678SOL    HW2 5046   3.019   1.350   4.144
 1679SOL     OW 5047   3.444   0.639   4.196
 1679SOL    HW1 5048   3.413   0.700   4.269
 1679SOL    HW2 5049   3.494   0.691   4.127
 1680SOL     OW 5050   3.071   0.525   3.999
 1680SOL    HW1 5051   3.084   0.441   4.053
 1680SOL    HW2 5052   3.042   0.599   4.059
 1681SOL     OW 5053   2.169   0.063   4.342
 1681SOL    HW1 5054   2.158   0.157   4.375
 1681SOL    HW2 5055   2.164   0.000   4.419
 1682SOL     OW 5056   3.484   0.367   4.098
 1682SOL    HW1 5057   3.486   0.291   4.162
 1682SOL    HW2 5058   3.436   0.444   4.138
 1683SOL     OW 5059   3.402   0.274   3.849
 1683SOL    HW1 5060   3.341   0.199   3.872
 1683SOL    HW2 5061   3.424   0.326   3.932
 1684SOL     OW 5062   3.165   0.838   3.766
 1684SOL    HW1 5063   3.199   0.745   3.781
 1684SOL    HW2 5064   3.183   0.865   3.671
 1685SOL     OW 5065   1.870   1.326   3.924
 1685SOL    HW1 5066   1.777   1.347   3.893
 1685SOL    HW2 5067   1.880   1.227   3.937
 1686SOL     OW 5068   2.677   0.572   4.049
 1686SOL    HW1 5069   2.684   0.483   4.003
 1686SOL    HW2 5070   2.583   0.606   4.041
 1687SOL     OW 5071   2.335   0.500   3.915
 1687SOL    HW1 5072   2.396   0.580   3.919
 1687SOL    HW2 5073   2.240   0.531   3.922
 1688SOL     OW 5074   3.164   0.855   4.033
 1688SOL    HW1 5075   3.078   0.824   4.075
 1688SOL    HW2 5076   3.160   0.841   3.934
 1689SOL     OW 5077   3.588   0.135   4.247
 1689SOL    HW1 5078   3.661   0.118   4.180
 1689SOL    HW2 5079   3.557   0.048   4.285
 1690SOL     OW 5080   3.250   1.573   4.201
 1690SOL    HW1 5081   3.317   1.585   4.127
 1690SOL    HW2 5082   3.210   1.662   4.224
 1691SOL     OW 5083   2.534   1.616   3.878
 1691SOL    HW1 5084   2.543   1.626   3.779
 1691SOL    HW2 5085   2.494   1.527   3.899
 1692SOL     OW 5086   3.703   0.175   4.687
 1692SOL    HW1 5087   3.742   0.090   4.651
 1692SOL    HW2 5088   3.605   0.177   4.668
 1693SOL     OW 5089   3.056   1.612   3.755
 1693SOL    HW1 5090   3.062   1.519   3.792
 1693SOL    HW2 5091   2.997   1.612   3.675
 1694SOL     OW 5092   2.778   0.910   4.015
 1694SOL    HW1 5093   2.841   0.948   3.947
 1694SOL    HW2 5094   2.818   0.827   4.054
 1695SOL     OW 5095   3.366   1.607   3.768
 1695SOL    HW1 5096   3.274   1.644   3.775
 1695SOL    HW2 5097   3.404   1.627   3.678
 1696SOL     OW 5098   2.452   1.487   4.215
 1696SOL    HW1 5099   2.494   1.429   4.145
 1696SOL    HW2 5100   2.408   1.566   4.171
 1697SOL     OW 5101   2.117   1.348   4.014
 1697SOL    HW1 5102   2.021   1.349   3.987
 1697SOL    HW2 5103   2.129   1.401   4.098
 1698SOL     OW 5104   1.937   0.345   3.757
 1698SOL    HW1 5105   1.845   0.317   3.728
 1698SOL    HW2 5106   1.968   0.422   3.701
 1699SOL     OW 5107   1.934   0.166   4.042
 1699SOL    HW1 5108   1.917   0.249   3.988
 1699SOL    HW2 5109   2.024   0.129   4.020
 1700SOL     OW 5110   3.045   1.335   3.843
 1700SOL    HW1 5111   2.946   1.324   3.845
 1700SOL    HW2 5112   3.079   1.350   3.936
 1701SOL     OW 5113   3.087   0.325   4.173
 1701SOL    HW1 5114   3.152   0.251   4.162
 1701SOL    HW2 5115   3.107   0.375   4.257
 1702SOL     OW 5116   2.456   0.745   4.376
 1702SOL    HW1 5117   2.506   0.830   4.357
 1702SOL    HW2 5118   2.368   0.747   4.328
 1703SOL     OW 5119   2.721   1.374   3.740
 1703SOL    HW1 5120   2.675   1.389   3.828
 1703SOL    HW2 5121   2.765   1.459   3.710
 1704SOL     OW 5122   2.945   0.984   3.811
 1704SOL    HW1 5123   2.922   1.037   3.729
 1704SOL    HW2 5124   3.026   0.928   3.792
 1705SOL     OW 5125   1.941   1.240   4.377
 1705SOL    HW1 5126   1.940   1.193   4.465
 1705SOL    HW2 5127   2.023   1.212   4.326
 1706SOL     OW 5128   2.290   0.424   4.244
 1706SOL    HW1 5129   2.320   0.352   4.182
 1706SOL    HW2 5130   2.251   0.384   4.327
 1707SOL     OW 5131   2.674   1.586   4.411
 1707SOL    HW1 5132   2.706   1.596   4.317
 1707SOL    HW2 5133   2.595   1.524   4.413
 1708SOL     OW 5134   2.632   1.330   4.025
 1708SOL    HW1 5135   2.586   1.243   4.042
 1708SOL    HW2 5136   2.723   1.327   4.066
 1709SOL     OW 5137   3.214   0.052   3.892
 1709SOL    HW1 5138   3.249   0.011   3.808
 1709SOL    HW2 5139   3.124   0.014   3.912
 1710SOL     OW 5140   3.162   0.453   4.415
 1710SOL    HW1 5141   3.103   0.533   4.419
 1710SOL    HW2 5142   3.177   0.418   4.508
 1711SOL     OW 5143   1.901   1.077   4.024
 1711SOL    HW1 5144   2.000   1.066   4.015
 1711SOL    HW2 5145   1.861   0.991   4.056
 1712SOL     OW 5146   2.737   1.646   4.061
 1712SOL    HW1 5147   2.660   1.611   4.007
 1712SOL    HW2 5148   2.705   1.717   4.123
 1713SOL     OW 5149   2.092   2.490   0.113
 1713SOL    HW1 5150   1.999   2.488   0.150
 1713SOL    HW2 5151   2.093   2.451   0.021
 1714SOL     OW 5152   2.087   2.137   0.996
 1714SOL    HW1 5153   2.122   2.120   1.088
 1714SOL    HW2 5154   1.999   2.092   0.984
 1715SOL     OW 5155   1.881   2.230   0.647
 1715SOL    HW1 5156   1.799   2.273   0.686
 1715SOL    HW2 5157   1.853   2.157   0.584
 1716SOL     OW 5158   2.431   3.137   1.165
 1716SOL    HW1 5159   2.338   3.130   1.128
 1716SOL    HW2 5160   2.442   3.226   1.209
 1717SOL     OW 5161   3.417   3.373   0.703
 1717SOL    HW1 5162   3.360   3.357   0.784
 1717SOL    HW2 5163   3.358   3.383   0.623
 1718SOL     OW 5164   2.997   2.565   0.717
 1718SOL    HW1 5165   3.054   2.643   0.692
 1718SOL    HW2 5166   2.937   2.591   0.793
 1719SOL     OW 5167   3.617   2.469   0.231
 1719SOL    HW1 5168   3.605   2.456   0.132
 1719SOL    HW2 5169   3.587   2.388   0.280
 1720SOL     OW 5170   2.630   3.006   1.023
 1720SOL    HW1 5171   2.552   3.023   1.083
 1720SOL    HW2 5172   2.664   3.093   0.987
 1721SOL     OW 5173   2.712   2.660   1.823
 1721SOL    HW1 5174   2.708   2.736   1.888
 1721SOL    HW2 5175   2.734   2.696   1.732
 1722SOL     OW 5176   2.547   2.874   0.665
 1722SOL    HW1 5177   2.616   2.858   0.735
 1722SOL    HW2 5178   2.474   2.931   0.703
 1723SOL     OW 5179   2.548   3.023   1.803
 1723SOL    HW1 5180   2.608   3.102   1.817
 1723SOL    HW2 5181   2.462   3.054   1.762
 1724SOL     OW 5182   2.197   3.297   1.061
 1724SOL    HW1 5183   2.119   3.266   1.008
 1724SOL    HW2 5184   2.255   3.355   1.004
 1725SOL     OW 5185   3.322   3.367   1.339
 1725SOL    HW1 5186   3.346   3.461   1.365
 1725SOL    HW2 5187   3.306   3.313   1.421
 1726SOL     OW 5188   2.300   2.254   1.499
 1726SOL    HW1 5189   2.382   2.198   1.508
 1726SOL    HW2 5190   2.219   2.196   1.503
 1727SOL     OW 5191   3.465   2.309   0.737
 1727SOL    HW1 5192   3.391   2.355   0.687
 1727SOL    HW2 5193   3.516   2.377   0.790
 1728SOL     OW 5194   2.093   3.575   0.483
 1728SOL    HW1 5195   2.127   3.652   0.537
 1728SOL    HW2 5196   2.137   3.575   0.393
 1729SOL     OW 5197   2.989   3.203   1.690
 1729SOL    HW1 5198   3.036   3.203   1.778
 1729SOL    HW2 5199   2.941   3.116   1.679
 1730SOL     OW 5200   2.092   3.296   0.538
 1730SOL    HW1 5201   2.066   3.392   0.538
 1730SOL    HW2 5202   2.021   3.242   0.583
 1731SOL     OW 5203   2.102   2.953   0.886
 1731SOL    HW1 5204   2.116   2.869   0.938
 1731SOL    HW2 5205   2.047   3.017   0.941
 1732SOL     OW 5206   2.482   3.648   1.439
 1732SOL    HW1 5207   2.390   3.631   1.474
 1732SOL    HW2 5208   2.510   3.740   1.465
 1733SOL     OW 5209   2.468   2.826   0.123
 1733SOL    HW1 5210   2.475   2.910   0.069
 1733SOL    HW2 5211   2.514   2.839   0.211
 1734SOL     OW 5212   3.456   1.976   1.480
 1734SOL    HW1 5213   3.438   2.043   1.408
 1734SOL    HW2 5214   3.453   2.022   1.569
 1735SOL     OW 5215   1.984   2.505   0.563
 1735SOL    HW1 5216   1.939   2.417   0.580
 1735SOL    HW2 5217   1.983   2.559   0.647
 1736SOL     OW 5218   3.704   3.629   0.359
 1736SOL    HW1 5219   3.758   3.600   0.439
 1736SOL    HW2 5220   3.734   3.719   0.330
 1737SOL     OW 5221   1.889   3.458   0.117
 1737SOL    HW1 5222   1.870   3.362   0.138
 1737SOL    HW2 5223   1.856   3.516   0.192
 1738SOL     OW 5224   3.551   2.784   0.612
 1738SOL    HW1 5225   3.646   2.755   0.620
 1738SOL    HW2 5226   3.543   2.849   0.537
 1739SOL     OW 5227   3.503   2.970   0.432
 1739SOL    HW1 5228   3.589   2.972   0.380
 1739SOL    HW2 5229   3.517   3.017   0.520
 1740SOL     OW 5230   1.975   2.599   1.597
 1740SOL    HW1 5231   2.063   2.586   1.642
 1740SOL    HW2 5232   1.962   2.696   1.575
 1741SOL     OW 5233   2.475   3.227   0.726
 1741SOL    HW1 5234   2.426   3.140   0.735
 1741SOL    HW2 5235   2.452   3.270   0.639
 1742SOL     OW 5236   3.155   3.090   1.423
 1742SOL    HW1 5237   3.192   3.017   1.365
 1742SOL    HW2 5238   3.207   3.095   1.508
 1743SOL     OW 5239   2.671   1.866   0.502
 1743SOL    HW1 5240   2.711   1.957   0.493
 1743SOL    HW2 5241   2.571   1.874   0.508
 1744SOL     OW 5242   2.059   2.838   1.264
 1744SOL    HW1 5243   2.148   2.793   1.250
 1744SOL    HW2 5244   1.986   2.773   1.245
 1745SOL     OW 5245   3.387   2.861   0.190
 1745SOL    HW1 5246   3.324   2.785   0.203
 1745SOL    HW2 5247   3.435   2.879   0.276
 1746SOL     OW 5248   3.049   3.654   1.616
 1746SOL    HW1 5249   3.073   3.714   1.540
 1746SOL    HW2 5250   3.056   3.559   1.586
 1747SOL     OW 5251   2.179   2.113   1.801
 1747SOL    HW1 5252   2.250   2.184   1.807
 1747SOL    HW2 5253   2.091   2.152   1.829
 1748SOL     OW 5254   3.328   3.279   0.953
 1748SOL    HW1 5255   3.269   3.285   1.033
 1748SOL    HW2 5256   3.313   3.191   0.907
 1749SOL     OW 5257   3.529   3.576   0.572
 1749SOL    HW1 5258   3.488   3.553   0.484
 1749SOL    HW2 5259   3.511   3.502   0.637
 1750SOL     OW 5260   2.460   2.591   0.270
 1750SOL    HW1 5261   2.484   2.660   0.202
 1750SOL    HW2 5262   2.382   2.624   0.324
 1751SOL     OW 5263   3.143   2.207   0.944
 1751SOL    HW1 5264   3.057   2.157   0.931
 1751SOL    HW2 5265   3.205   2.153   1.000
 1752SOL     OW 5266   3.438   3.524   0.307
 1752SOL    HW1 5267   3.527   3.570   0.310
 1752SOL    HW2 5268   3.417   3.500   0.212
 1753SOL     OW 5269   2.669   2.467   1.465
 1753SOL    HW1 5270   2.622   2.464   1.554
 1753SOL    HW2 5271   2.618   2.412   1.399
 1754SOL     OW 5272   3.256   2.331   1.674
 1754SOL    HW1 5273   3.236   2.374   1.762
 1754SOL    HW2 5274   3.334   2.269   1.683
 1755SOL     OW 5275   2.835   2.752   1.572
 1755SOL    HW1 5276   2.881   2.668   1.543
 1755SOL    HW2 5277   2.779   2.786   1.497
 1756SOL     OW 5278   2.853   2.272   1.242
 1756SOL    HW1 5279   2.776   2.306   1.296
 1756SOL    HW2 5280   2.819   2.221   1.163
 1757SOL     OW 5281   2.903   2.563   0.429
 1757SOL    HW1 5282   2.929   2.559   0.525
 1757SOL    HW2 5283   2.818   2.512   0.415
 1758SOL     OW 5284   1.938   2.673   0.789
 1758SOL    HW1 5285   2.037   2.661   0.798
 1758SOL    HW2 5286   1.914   2.768   0.810
 1759SOL     OW 5287   1.992   3.683   1.571
 1759SOL    HW1 5288   1.982   3.668   1.670
 1759SOL    HW2 5289   1.906   3.719   1.535
 1760SOL     OW 5290   2.727   2.210   0.195
 1760SOL    HW1 5291   2.786   2.273   0.146
 1760SOL    HW2 5292   2.746   2.116   0.166
 1761SOL     OW 5293   3.581   2.447   1.831
 1761SOL    HW1 5294   3.555   2.536   1.795
 1761SOL    HW2 5295   3.579   2.379   1.758
 1762SOL     OW 5296   3.224   3.006   0.545
 1762SOL    HW1 5297   3.307   2.977   0.497
 1762SOL    HW2 5298   3.175   3.073   0.489
 1763SOL     OW 5299   2.412   2.058   0.885
 1763SOL    HW1 5300   2.407   2.053   0.985
 1763SOL    HW2 5301   2.414   2.154   0.856
 1764SOL     OW 5302   2.870   3.318   0.477
 1764SOL    HW1 5303   2.824   3.390   0.425
 1764SOL    HW2 5304   2.866   3.338   0.575
 1765SOL     OW 5305   2.213   3.663   0.853
 1765SOL    HW1 5306   2.263   3.577   0.859
 1765SOL    HW2 5307   2.278   3.740   0.850
 1766SOL     OW 5308   3.657   2.928   0.873
 1766SOL    HW1 5309   3.595   2.913   0.797
 1766SOL    HW2 5310   3.605   2.939   0.958
 1767SOL     OW 5311   3.089   3.412   1.506
 1767SOL    HW1 5312   3.095   3.335   1.570
 1767SOL    HW2 5313   3.037   3.386   1.426
 1768SOL     OW 5314   2.183   2.805   0.242
 1768SOL    HW1 5315   2.265   2.844   0.200
 1768SOL    HW2 5316   2.156   2.723   0.193
 1769SOL     OW 5317   3.320   2.597   0.728
 1769SOL    HW1 5318   3.315   2.532   0.803
 1769SOL    HW2 5319   3.400   2.656   0.741
 1770SOL     OW 5320   2.323   3.128   1.727
 1770SOL    HW1 5321   2.273   3.129   1.641
 1770SOL    HW2 5322   2.260   3.110   1.803
 1771SOL     OW 5323   2.973   3.638   0.237
 1771SOL    HW1 5324   2.913   3.576   0.287
 1771SOL    HW2 5325   3.004   3.594   0.152
 1772SOL     OW 5326   2.064   2.147   1.498
 1772SOL    HW1 5327   1.984   2.207   1.485
 1772SOL    HW2 5328   2.054   2.098   1.584
 1773SOL     OW 5329   3.494   3.239   0.081
 1773SOL    HW1 5330   3.462   3.333   0.071
 1773SOL    HW2 5331   3.418   3.176   0.069
 1774SOL     OW 5332   2.326   3.605   0.323
 1774SOL    HW1 5333   2.359   3.644   0.409
 1774SOL    HW2 5334   2.402   3.598   0.258
 1775SOL     OW 5335   3.262   1.969   0.426
 1775SOL    HW1 5336   3.238   1.932   0.336
 1775SOL    HW2 5337   3.361   1.985   0.430
 1776SOL     OW 5338   2.111   3.647   1.241
 1776SOL    HW1 5339   2.168   3.582   1.291
 1776SOL    HW2 5340   2.095   3.614   1.148
 1777SOL     OW 5341   2.802   3.560   0.904
 1777SOL    HW1 5342   2.882   3.503   0.925
 1777SOL    HW2 5343   2.753   3.520   0.827
 1778SOL     OW 5344   2.244   2.562   0.480
 1778SOL    HW1 5345   2.289   2.472   0.477
 1778SOL    HW2 5346   2.150   2.551   0.513
 1779SOL     OW 5347   3.409   2.084   1.729
 1779SOL    HW1 5348   3.404   2.121   1.821
 1779SOL    HW2 5349   3.337   2.015   1.717
 1780SOL     OW 5350   2.476   1.984   0.117
 1780SOL    HW1 5351   2.574   1.962   0.124
 1780SOL    HW2 5352   2.445   1.967   0.024
 1781SOL     OW 5353   2.643   2.126   1.749
 1781SOL    HW1 5354   2.710   2.065   1.792
 1781SOL    HW2 5355   2.570   2.145   1.814
 1782SOL     OW 5356   2.750   3.376   1.195
 1782SOL    HW1 5357   2.727   3.351   1.101
 1782SOL    HW2 5358   2.811   3.307   1.234
 1783SOL     OW 5359   3.213   2.452   1.433
 1783SOL    HW1 5360   3.241   2.409   1.518
 1783SOL    HW2 5361   3.238   2.548   1.434
 1784SOL     OW 5362   2.665   3.264   0.924
 1784SOL    HW1 5363   2.755   3.278   0.882
 1784SOL    HW2 5364   2.594   3.266   0.853
 1785SOL     OW 5365   2.784   2.365   0.899
 1785SOL    HW1 5366   2.759   2.356   0.803
 1785SOL    HW2 5367   2.832   2.283   0.930
 1786SOL     OW 5368   2.401   1.926   0.512
 1786SOL    HW1 5369   2.320   1.927   0.570
 1786SOL    HW2 5370   2.404   2.009   0.457
 1787SOL     OW 5371   3.296   3.050   0.041
 1787SOL    HW1 5372   3.328   2.974   0.098
 1787SOL    HW2 5373   3.204   3.077   0.071
 1788SOL     OW 5374   2.797   2.098   0.480
 1788SOL    HW1 5375   2.749   2.139   0.402
 1788SOL    HW2 5376   2.896   2.096   0.461
 1789SOL     OW 5377   2.938   2.545   1.464
 1789SOL    HW1 5378   2.858   2.484   1.467
 1789SOL    HW2 5379   3.019   2.492   1.440
 1790SOL     OW 5380   3.089   3.432   0.793
 1790SOL    HW1 5381   3.110   3.506   0.728
 1790SOL    HW2 5382   3.157   3.432   0.866
 1791SOL     OW 5383   2.321   3.014   0.741
 1791SOL    HW1 5384   2.250   2.987   0.806
 1791SOL    HW2 5385   2.295   2.986   0.648
 1792SOL     OW 5386   3.133   3.659   0.591
 1792SOL    HW1 5387   3.177   3.723   0.527
 1792SOL    HW2 5388   3.083   3.711   0.661
 1793SOL     OW 5389   2.894   2.411   0.016
 1793SOL    HW1 5390   2.853   2.493  -0.023
 1793SOL    HW2 5391   2.958   2.437   0.089
 1794SOL     OW 5392   1.940   2.418   1.386
 1794SOL    HW1 5393   2.032   2.417   1.345
 1794SOL    HW2 5394   1.934   2.492   1.453
 1795SOL     OW 5395   2.423   2.084   1.147
 1795SOL    HW1 5396   2.461   2.000   1.184
 1795SOL    HW2 5397   2.335   2.103   1.191
 1796SOL     OW 5398   2.728   2.316   0.642
 1796SOL    HW1 5399   2.696   2.388   0.580
 1796SOL    HW2 5400   2.752   2.235   0.589
 1797SOL     OW 5401   2.879   1.901   0.753
 1797SOL    HW1 5402   2.807   1.906   0.684
 1797SOL    HW2 5403   2.855   1.832   0.822
 1798SOL     OW 5404   3.291   3.035   0.867
 1798SOL    HW1 5405   3.236   2.951   0.860
 1798SOL    HW2 5406   3.317   3.064   0.775
 1799SOL     OW 5407   3.328   2.452   0.992
 1799SOL    HW1 5408   3.298   2.357   0.999
 1799SOL    HW2 5409   3.401   2.468   1.058
 1800SOL     OW 5410   3.719   2.695   0.377
 1800SOL    HW1 5411   3.761   2.631   0.441
 1800SOL    HW2 5412   3.681   2.644   0.299
 1801SOL     OW 5413   2.350   3.247   0.174
 1801SOL    HW1 5414   2.263   3.232   0.221
 1801SOL    HW2 5415   2.333   3.273   0.079
 1802SOL     OW 5416   3.526   3.142   0.657
 1802SOL    HW1 5417   3.625   3.150   0.671
 1802SOL    HW2 5418   3.481   3.226   0.688
 1803SOL     OW 5419   3.252   2.437   0.078
 1803SOL    HW1 5420   3.198   2.416   0.159
 1803SOL    HW2 5421   3.343   2.396   0.087
 1804SOL     OW 5422   2.389   2.118   0.328
 1804SOL    HW1 5423   2.416   2.059   0.253
 1804SOL    HW2 5424   2.389   2.213   0.297
 1805SOL     OW 5425   3.616   3.085   1.588
 1805SOL    HW1 5426   3.707   3.046   1.575
 1805SOL    HW2 5427   3.624   3.181   1.612
 1806SOL     OW 5428   2.926   3.209   1.340
 1806SOL    HW1 5429   2.846   3.186   1.395
 1806SOL    HW2 5430   3.009   3.183   1.389
 1807SOL     OW 5431   3.454   3.491   1.625
 1807SOL    HW1 5432   3.481   3.525   1.535
 1807SOL    HW2 5433   3.533   3.453   1.671
 1808SOL     OW 5434   2.973   3.057   1.100
 1808SOL    HW1 5435   2.933   3.101   1.181
 1808SOL    HW2 5436   2.932   3.094   1.017
 1809SOL     OW 5437   3.500   2.961   1.079
 1809SOL    HW1 5438   3.505   3.042   1.138
 1809SOL    HW2 5439   3.414   2.963   1.028
 1810SOL     OW 5440   2.777   1.951   1.402
 1810SOL    HW1 5441   2.802   1.931   1.307
 1810SOL    HW2 5442   2.849   2.007   1.444
 1811SOL     OW 5443   2.842   2.978   1.719
 1811SOL    HW1 5444   2.743   2.984   1.729
 1811SOL    HW2 5445   2.865   2.898   1.663
 1812SOL     OW 5446   2.567   2.912   0.368
 1812SOL    HW1 5447   2.553   2.919   0.467
 1812SOL    HW2 5448   2.651   2.861   0.350
 1813SOL     OW 5449   2.272   2.675   1.251
 1813SOL    HW1 5450   2.358   2.687   1.301
 1813SOL    HW2 5451   2.230   2.588   1.278
 1814SOL     OW 5452   3.136   2.248   1.262
 1814SOL    HW1 5453   3.157   2.322   1.326
 1814SOL    HW2 5454   3.047   2.265   1.219
 1815SOL     OW 5455   1.926   3.426   1.331
 1815SOL    HW1 5456   1.880   3.508   1.297
 1815SOL    HW2 5457   2.024   3.445   1.340
 1816SOL     OW 5458   2.229   2.962   0.501
 1816SOL    HW1 5459   2.222   3.045   0.445
 1816SOL    HW2 5460   2.233   2.882   0.441
 1817SOL     OW 5461   2.428   2.399   0.865
 1817SOL    HW1 5462   2.440   2.465   0.791
 1817SOL    HW2 5463   2.474   2.433   0.948
 1818SOL     OW 5464   3.114   3.210   0.388
 1818SOL    HW1 5465   3.164   3.287   0.428
 1818SOL    HW2 5466   3.019   3.212   0.420
 1819SOL     OW 5467   3.134   3.307   1.142
 1819SOL    HW1 5468   3.181   3.320   1.229
 1819SOL    HW2 5469   3.068   3.233   1.151
 1820SOL     OW 5470   3.444   2.501   0.472
 1820SOL    HW1 5471   3.413   2.562   0.545
 1820SOL    HW2 5472   3.494   2.553   0.403
 1821SOL     OW 5473   2.216   3.372   1.329
 1821SOL    HW1 5474   2.195   3.328   1.242
 1821SOL    HW2 5475   2.313   3.398   1.332
 1822SOL     OW 5476   2.264   2.613   1.598
 1822SOL    HW1 5477   2.332   2.668   1.551
 1822SOL    HW2 5478   2.304   2.525   1.625
 1823SOL     OW 5479   3.449   2.641   1.670
 1823SOL    HW1 5480   3.357   2.679   1.665
 1823SOL    HW2 5481   3.509   2.688   1.605
 1824SOL     OW 5482   2.875   1.967   1.770
 1824SOL    HW1 5483   2.881   2.052   1.718
 1824SOL    HW2 5484   2.907   1.891   1.713
 1825SOL     OW 5485   2.366   1.912   1.740
 1825SOL    HW1 5486   2.324   1.855   1.670
 1825SOL    HW2 5487   2.300   1.981   1.772
 1826SOL     OW 5488   2.435   2.732   1.029
 1826SOL    HW1 5489   2.479   2.821   1.020
 1826SOL    HW2 5490   2.372   2.732   1.106
 1827SOL     OW 5491   3.222   2.724   1.045
 1827SOL    HW1 5492   3.147   2.724   0.979
 1827SOL    HW2 5493   3.259   2.632   1.054
 1828SOL     OW 5494   3.071   2.387   0.275
 1828SOL    HW1 5495   3.084   2.303   0.329
 1828SOL    HW2 5496   3.042   2.461   0.335
 1829SOL     OW 5497   2.169   2.075   1.231
 1829SOL    HW1 5498   2.146   2.112   1.321
 1829SOL    HW2 5499   2.139   1.980   1.225
 1830SOL     OW 5500   1.899   3.172   1.282
 1830SOL    HW1 5501   1.952   3.123   1.350
 1830SOL    HW2 5502   1.921   3.270   1.287
 1831SOL     OW 5503   2.594   2.496   1.064
 1831SOL    HW1 5504   2.653   2.470   0.988
 1831SOL    HW2 5505   2.566   2.592   1.053
 1832SOL     OW 5506   3.590   2.797   1.854
 1832SOL    HW1 5507   3.544   2.790   1.765
 1832SOL    HW2 5508   3.528   2.841   1.920
 1833SOL     OW 5509   2.169   1.925   0.618
 1833SOL    HW1 5510   2.158   2.019   0.651
 1833SOL    HW2 5511   2.164   1.862   0.695
 1834SOL     OW 5512   3.484   2.229   0.374
 1834SOL    HW1 5513   3.486   2.153   0.438
 1834SOL    HW2 5514   3.436   2.306   0.414
 1835SOL     OW 5515   2.885   2.628   0.966
 1835SOL    HW1 5516   2.900   2.649   1.062
 1835SOL    HW2 5517   2.855   2.533   0.957
 1836SOL     OW 5518   2.842   3.435   1.700
 1836SOL    HW1 5519   2.822   3.479   1.612
 1836SOL    HW2 5520   2.881   3.344   1.684
 1837SOL     OW 5521   3.721   3.380   1.605
 1837SOL    HW1 5522   3.735   3.407   1.510
 1837SOL    HW2 5523   3.804   3.402   1.658
 1838SOL     OW 5524   2.212   2.760   1.804
 1838SOL    HW1 5525   2.288   2.804   1.852
 1838SOL    HW2 5526   2.247   2.713   1.722
 1839SOL     OW 5527   3.402   2.136   0.125
 1839SOL    HW1 5528   3.341   2.061   0.148
 1839SOL    HW2 5529   3.424   2.188   0.208
 1840SOL     OW 5530   3.165   2.700   0.042
 1840SOL    HW1 5531   3.199   2.607   0.057
 1840SOL    HW2 5532   3.183   2.727  -0.053
 1841SOL     OW 5533   2.930   3.195   0.849
 1841SOL    HW1 5534   2.937   3.111   0.794
 1841SOL    HW2 5535   2.992   3.264   0.813
 1842SOL     OW 5536   2.181   2.672   0.949
 1842SOL    HW1 5537   2.274   2.708   0.954
 1842SOL    HW2 5538   2.175   2.587   1.001
 1843SOL     OW 5539   2.201   2.371   1.006
 1843SOL    HW1 5540   2.149   2.288   0.989
 1843SOL    HW2 5541   2.278   2.376   0.942
 1844SOL     OW 5542   3.000   2.242   1.678
 1844SOL    HW1 5543   2.955   2.305   1.742
 1844SOL    HW2 5544   3.093   2.273   1.661
 1845SOL     OW 5545   3.022   2.069   1.477
 1845SOL    HW1 5546   3.022   2.133   1.554
 1845SOL    HW2 5547   3.050   2.117   1.394
 1846SOL     OW 5548   1.870   3.188   0.200
 1846SOL    HW1 5549   1.777   3.209   0.169
 1846SOL    HW2 5550   1.880   3.089   0.213
 1847SOL     OW 5551   1.950   3.663   0.927
 1847SOL    HW1 5552   1.908   3.577   0.900
 1847SOL    HW2 5553   2.044   3.666   0.893
 1848SOL     OW 5554   2.366   3.430   0.910
 1848SOL    HW1 5555   2.432   3.504   0.919
 1848SOL    HW2 5556   2.410   3.351   0.868
 1849SOL     OW 5557   2.864   2.658   1.238
 1849SOL    HW1 5558   2.905   2.626   1.324
 1849SOL    HW2 5559   2.768   2.631   1.235
 1850SOL     OW 5560   1.902   2.406   1.114
 1850SOL    HW1 5561   1.987   2.373   1.073
 1850SOL    HW2 5562   1.915   2.421   1.212
 1851SOL     OW 5563   2.051   2.382   1.722
 1851SOL    HW1 5564   2.110   2.342   1.652
 1851SOL    HW2 5565   1.993   2.453   1.681
 1852SOL     OW 5566   3.231   2.812   1.660
 1852SOL    HW1 5567   3.270   2.901   1.680
 1852SOL    HW2 5568   3.241   2.792   1.563
 1853SOL     OW 5569   2.677   2.434   0.325
 1853SOL    HW1 5570   2.684   2.345   0.279
 1853SOL    HW2 5571   2.583   2.468   0.317
 1854SOL     OW 5572   3.519   2.466   1.206
 1854SOL    HW1 5573   3.481   2.397   1.268
 1854SOL    HW2 5574   3.601   2.430   1.162
 1855SOL     OW 5575   2.114   3.426   1.744
 1855SOL    HW1 5576   2.084   3.483   1.820
 1855SOL    HW2 5577   2.107   3.329   1.770
 1856SOL     OW 5578   2.533   2.326   1.269
 1856SOL    HW1 5579   2.499   2.237   1.239
 1856SOL    HW2 5580   2.559   2.380   1.189
 1857SOL     OW 5581   2.792   3.540   1.465
 1857SOL    HW1 5582   2.768   3.522   1.370
 1857SOL    HW2 5583   2.822   3.634   1.475
 1858SOL     OW 5584   2.335   2.362   0.191
 1858SOL    HW1 5585   2.396   2.442   0.195
 1858SOL    HW2 5586   2.240   2.393   0.198
 1859SOL     OW 5587   2.021   2.999   1.466
 1859SOL    HW1 5588   2.043   2.938   1.542
 1859SOL    HW2 5589   2.031   2.950   1.380
 1860SOL     OW 5590   3.209   2.921   1.234
 1860SOL    HW1 5591   3.233   2.858   1.160
 1860SOL    HW2 5592   3.119   2.961   1.216
 1861SOL     OW 5593   3.164   2.717   0.309
 1861SOL    HW1 5594   3.078   2.686   0.351
 1861SOL    HW2 5595   3.160   2.703   0.210
 1862SOL     OW 5596   3.621   3.609   1.154
 1862SOL    HW1 5597   3.682   3.639   1.081
 1862SOL    HW2 5598   3.583   3.520   1.132
 1863SOL     OW 5599   3.114   3.593   1.128
 1863SOL    HW1 5600   3.198   3.598   1.074
 1863SOL    HW2 5601   3.091   3.497   1.146
 1864SOL     OW 5602   1.945   3.120   1.022
 1864SOL    HW1 5603   1.940   3.119   1.122
 1864SOL    HW2 5604   1.862   3.079   0.984
 1865SOL     OW 5605   2.550   3.524   1.716
 1865SOL    HW1 5606   2.494   3.605   1.725
 1865SOL    HW2 5607   2.602   3.528   1.630
 1866SOL     OW 5608   2.765   1.948   0.133
 1866SOL    HW1 5609   2.816   1.949   0.047
 1866SOL    HW2 5610   2.821   1.906   0.204
 1867SOL     OW 5611   3.588   1.997   0.523
 1867SOL    HW1 5612   3.661   1.980   0.456
 1867SOL    HW2 5613   3.557   1.910   0.561
 1868SOL     OW 5614   3.250   3.435   0.477
 1868SOL    HW1 5615   3.317   3.447   0.403
 1868SOL    HW2 5616   3.210   3.524   0.500
 1869SOL     OW 5617   1.992   3.656   1.851
 1869SOL    HW1 5618   1.951   3.582   1.904
 1869SOL    HW2 5619   2.056   3.707   1.909
 1870SOL     OW 5620   3.142   2.789   0.672
 1870SOL    HW1 5621   3.202   2.708   0.674
 1870SOL    HW2 5622   3.182   2.858   0.612
 1871SOL     OW 5623   2.692   3.135   1.422
 1871SOL    HW1 5624   2.687   3.168   1.517
 1871SOL    HW2 5625   2.606   3.154   1.376
 1872SOL     OW 5626   2.534   3.478   0.154
 1872SOL    HW1 5627   2.543   3.488   0.055
 1872SOL    HW2 5628   2.494   3.389   0.175
 1873SOL     OW 5629   3.512   3.582   1.394
 1873SOL    HW1 5630   3.565   3.592   1.310
 1873SOL    HW2 5631   3.485   3.672   1.428
 1874SOL     OW 5632   3.703   2.037   0.963
 1874SOL    HW1 5633   3.742   1.952   0.927
 1874SOL    HW2 5634   3.605   2.039   0.944
 1875SOL     OW 5635   2.125   2.188   0.720
 1875SOL    HW1 5636   2.046   2.239   0.686
 1875SOL    HW2 5637   2.116   2.173   0.818
 1876SOL     OW 5638   3.056   3.474   0.031
 1876SOL    HW1 5639   3.062   3.381   0.068
 1876SOL    HW2 5640   2.997   3.474  -0.049
 1877SOL     OW 5641   2.684   2.864   1.372
 1877SOL    HW1 5642   2.724   2.863   1.280
 1877SOL    HW2 5643   2.694   2.956   1.412
 1878SOL     OW 5644   2.778   2.772   0.291
 1878SOL    HW1 5645   2.841   2.810   0.223
 1878SOL    HW2 5646   2.818   2.689   0.330
 1879SOL     OW 5647   3.366   3.469   0.044
 1879SOL    HW1 5648   3.274   3.506   0.051
 1879SOL    HW2 5649   3.404   3.489  -0.046
 1880SOL     OW 5650   2.234   3.150   1.490
 1880SOL    HW1 5651   2.221   3.243   1.456
 1880SOL    HW2 5652   2.150   3.098   1.477
 1881SOL     OW 5653   3.476   3.154   1.289
 1881SOL    HW1 5654   3.536   3.157   1.369
 1881SOL    HW2 5655   3.401   3.218   1.302
 1882SOL     OW 5656   2.901   2.960   0.696
 1882SOL    HW1 5657   2.831   2.913   0.750
 1882SOL    HW2 5658   2.960   2.892   0.653
 1883SOL     OW 5659   2.876   2.098   0.971
 1883SOL    HW1 5660   2.868   2.062   0.878
 1883SOL    HW2 5661   2.874   2.022   1.036
 1884SOL     OW 5662   2.452   3.349   0.491
 1884SOL    HW1 5663   2.494   3.291   0.421
 1884SOL    HW2 5664   2.408   3.428   0.447
 1885SOL     OW 5665   3.571   2.247   1.381
 1885SOL    HW1 5666   3.644   2.316   1.385
 1885SOL    HW2 5667   3.599   2.172   1.322
 1886SOL     OW 5668   2.117   3.210   0.290
 1886SOL    HW1 5669   2.021   3.211   0.263
 1886SOL    HW2 5670   2.129   3.263   0.374
 1887SOL     OW 5671   1.967   2.875   1.726
 1887SOL    HW1 5672   1.890   2.842   1.780
 1887SOL    HW2 5673   2.052   2.845   1.768
 1888SOL     OW 5674   2.534   2.065   1.489
 1888SOL    HW1 5675   2.624   2.049   1.449
 1888SOL    HW2 5676   2.542   2.070   1.588
 1889SOL     OW 5677   1.937   2.207   0.033
 1889SOL    HW1 5678   1.845   2.179   0.004
 1889SOL    HW2 5679   1.968   2.284  -0.023
 1890SOL     OW 5680   3.302   2.718   1.398
 1890SOL    HW1 5681   3.245   2.770   1.335
 1890SOL    HW2 5682   3.398   2.730   1.374
 1891SOL     OW 5683   3.045   3.197   0.119
 1891SOL    HW1 5684   2.946   3.186   0.121
 1891SOL    HW2 5685   3.079   3.212   0.212
 1892SOL     OW 5686   2.475   2.704   1.431
 1892SOL    HW1 5687   2.531   2.785   1.414
 1892SOL    HW2 5688   2.534   2.624   1.434
 1893SOL     OW 5689   3.355   3.629   0.959
 1893SOL    HW1 5690   3.388   3.693   0.890
 1893SOL    HW2 5691   3.421   3.623   1.034
 1894SOL     OW 5692   2.578   2.427   1.708
 1894SOL    HW1 5693   2.597   2.492   1.782
 1894SOL    HW2 5694   2.638   2.347   1.717
 1895SOL     OW 5695   3.312   3.082   1.633
 1895SOL    HW1 5696   3.303   3.072   1.732
 1895SOL    HW2 5697   3.408   3.075   1.607
 1896SOL     OW 5698   2.252   3.603   1.560
 1896SOL    HW1 5699   2.161   3.644   1.558
 1896SOL    HW2 5700   2.245   3.509   1.592
 1897SOL     OW 5701   3.536   2.745   1.254
 1897SOL    HW1 5702   3.509   2.656   1.217
 1897SOL    HW2 5703   3.537   2.813   1.181
 1898SOL     OW 5704   3.087   2.187   0.449
 1898SOL    HW1 5705   3.152   2.113   0.438
 1898SOL    HW2 5706   3.107   2.237   0.533
 1899SOL     OW 5707   2.456   2.607   0.652
 1899SOL    HW1 5708   2.506   2.692   0.633
 1899SOL    HW2 5709   2.368   2.609   0.604
 1900SOL     OW 5710   3.639   2.204   1.642
 1900SOL    HW1 5711   3.622   2.235   1.548
 1900SOL    HW2 5712   3.555   2.167   1.680
 1901SOL     OW 5713   3.592   2.796   1.517
 1901SOL    HW1 5714   3.630   2.887   1.532
 1901SOL    HW2 5715   3.584   2.779   1.418
 1902SOL     OW 5716   2.721   3.236   0.016
 1902SOL    HW1 5717   2.675   3.251   0.104
 1902SOL    HW2 5718   2.765   3.321  -0.014
 1903SOL     OW 5719   2.523   3.652   0.953
 1903SOL    HW1 5720   2.477   3.740   0.940
 1903SOL    HW2 5721   2.622   3.664   0.946
 1904SOL     OW 5722   2.721   2.818   0.861
 1904SOL    HW1 5723   2.775   2.749   0.909
 1904SOL    HW2 5724   2.689   2.887   0.927
 1905SOL     OW 5725   2.945   2.846   0.087
 1905SOL    HW1 5726   2.922   2.899   0.005
 1905SOL    HW2 5727   3.026   2.790   0.068
 1906SOL     OW 5728   3.723   3.431   0.851
 1906SOL    HW1 5729   3.652   3.419   0.781
 1906SOL    HW2 5730   3.724   3.352   0.911
 1907SOL     OW 5731   2.083   3.176   1.844
 1907SOL    HW1 5732   2.018   3.103   1.823
 1907SOL    HW2 5733   2.087   3.190   1.942
 1908SOL     OW 5734   1.941   3.102   0.653
 1908SOL    HW1 5735   1.940   3.055   0.741
 1908SOL    HW2 5736   2.023   3.074   0.602
 1909SOL     OW 5737   2.534   3.253   1.624
 1909SOL    HW1 5738   2.456   3.203   1.662
 1909SOL    HW2 5739   2.531   3.348   1.655
 1910SOL     OW 5740   3.686   2.054   1.227
 1910SOL    HW1 5741   3.682   1.964   1.271
 1910SOL    HW2 5742   3.689   2.043   1.128
 1911SOL     OW 5743   2.290   2.286   0.520
 1911SOL    HW1 5744   2.320   2.214   0.458
 1911SOL    HW2 5745   2.251   2.246   0.603
 1912SOL     OW 5746   3.567   3.349   1.104
 1912SOL    HW1 5747   3.474   3.324   1.077
 1912SOL    HW2 5748   3.593   3.299   1.186
 1913SOL     OW 5749   2.179   2.409   1.280
 1913SOL    HW1 5750   2.217   2.350   1.352
 1913SOL    HW2 5751   2.219   2.383   1.192
 1914SOL     OW 5752   2.674   3.448   0.687
 1914SOL    HW1 5753   2.706   3.458   0.593
 1914SOL    HW2 5754   2.595   3.386   0.689
 1915SOL     OW 5755   3.286   2.076   1.112
 1915SOL    HW1 5756   3.338   2.011   1.167
 1915SOL    HW2 5757   3.237   2.139   1.173
 1916SOL     OW 5758   2.863   1.896   1.154
 1916SOL    HW1 5759   2.800   1.824   1.123
 1916SOL    HW2 5760   2.956   1.860   1.154
 1917SOL     OW 5761   2.632   3.192   0.301
 1917SOL    HW1 5762   2.586   3.105   0.318
 1917SOL    HW2 5763   2.723   3.189   0.342
 1918SOL     OW 5764   2.480   3.429   1.284
 1918SOL    HW1 5765   2.475   3.511   1.341
 1918SOL    HW2 5766   2.569   3.426   1.239
 1919SOL     OW 5767   3.214   1.914   0.168
 1919SOL    HW1 5768   3.249   1.873   0.084
 1919SOL    HW2 5769   3.124   1.876   0.188
 1920SOL     OW 5770   3.162   2.315   0.691
 1920SOL    HW1 5771   3.103   2.395   0.695
 1920SOL    HW2 5772   3.177   2.280   0.784
 1921SOL     OW 5773   3.455   2.083   0.882
 1921SOL    HW1 5774   3.371   2.082   0.936
 1921SOL    HW2 5775   3.457   2.166   0.826
 1922SOL     OW 5776   1.901   2.939   0.300
 1922SOL    HW1 5777   2.000   2.928   0.291
 1922SOL    HW2 5778   1.861   2.853   0.332
 1923SOL     OW 5779   2.737   3.508   0.337
 1923SOL    HW1 5780   2.660   3.473   0.283
 1923SOL    HW2 5781   2.705   3.579   0.399
 1924SOL     OW 5782   2.092   2.490   1.975
 1924SOL    HW1 5783   1.999   2.488   2.012
 1924SOL    HW2 5784   2.093   2.451   1.883
 1925SOL     OW 5785   2.087   2.137   2.858
 1925SOL    HW1 5786   2.122   2.120   2.950
 1925SOL    HW2 5787   1.999   2.092   2.846
 1926SOL     OW 5788   1.881   2.230   2.509
 1926SOL    HW1 5789   1.799   2.273   2.548
 1926SOL    HW2 5790   1.853   2.157   2.446
 1927SOL     OW 5791   2.431   3.137   3.027
 1927SOL    HW1 5792   2.338   3.130   2.990
 1927SOL    HW2 5793   2.442   3.226   3.071
 1928SOL     OW 5794   3.417   3.373   2.565
 1928SOL    HW1 5795   3.360   3.357   2.646
 1928SOL    HW2 5796   3.358   3.383   2.485
 1929SOL     OW 5797   2.997   2.565   2.579
 1929SOL    HW1 5798   3.054   2.643   2.554
 1929SOL    HW2 5799   2.937   2.591   2.655
 1930SOL     OW 5800   3.617   2.469   2.093
 1930SOL    HW1 5801   3.605   2.456   1.994
 1930SOL    HW2 5802   3.587   2.388   2.142
 1931SOL     OW 5803   2.630   3.006   2.885
 1931SOL    HW1 5804   2.552   3.023   2.945
 1931SOL    HW2 5805   2.664   3.093   2.849
 1932SOL     OW 5806   2.712   2.660   3.685
 1932SOL    HW1 5807   2.708   2.736   3.750
 1932SOL    HW2 5808   2.734   2.696   3.594
 1933SOL     OW 5809   2.547   2.874   2.527
 1933SOL    HW1 5810   2.616   2.858   2.597
 1933SOL    HW2 5811   2.474   2.931   2.565
 1934SOL     OW 5812   2.548   3.023   3.665
 1934SOL    HW1 5813   2.608   3.102   3.679
 1934SOL    HW2 5814   2.462   3.054   3.624
 1935SOL     OW 5815   2.197   3.297   2.923
 1935SOL    HW1 5816   2.119   3.266   2.870
 1935SOL    HW2 5817   2.255   3.355   2.866
 1936SOL     OW 5818   3.322   3.367   3.201
 1936SOL    HW1 5819   3.346   3.461   3.227
 1936SOL    HW2 5820   3.306   3.313   3.283
 1937SOL     OW 5821   2.300   2.254   3.361
 1937SOL    HW1 5822   2.382   2.198   3.370
 1937SOL    HW2 5823   2.219   2.196   3.365
 1938SOL     OW 5824   3.465   2.309   2.599
 1938SOL    HW1 5825   3.391   2.355   2.549
 1938SOL    HW2 5826   3.516   2.377   2.652
 1939SOL     OW 5827   2.093   3.575   2.345
 1939SOL    HW1 5828   2.127   3.652   2.399
 1939SOL    HW2 5829   2.137   3.575   2.255
 1940SOL     OW 5830   2.989   3.203   3.552
 1940SOL    HW1 5831   3.036   3.203   3.640
 1940SOL    HW2 5832   2.941   3.116   3.541
 1941SOL     OW 5833   2.092   3.296   2.400
 1941SOL    HW1 5834   2.066   3.392   2.400
 1941SOL    HW2 5835   2.021   3.242   2.445
 1942SOL     OW 5836   2.102   2.953   2.748
 1942SOL    HW1 5837   2.116   2.869   2.800
 1942SOL    HW2 5838   2.047   3.017   2.803
 1943SOL     OW 5839   2.482   3.648   3.301
 1943SOL    HW1 5840   2.390   3.631   3.336
 1943SOL    HW2 5841   2.510   3.740   3.327
 1944SOL     OW 5842   2.468   2.826   1.985
 1944SOL    HW1 5843   2.475   2.910   1.931
 1944SOL    HW2 5844   2.514   2.839   2.073
 1945SOL     OW 5845   3.456   1.976   3.342
 1945SOL    HW1 5846   3.438   2.043   3.270
 1945SOL    HW2 5847   3.453   2.022   3.431
 1946SOL     OW 5848   1.984   2.505   2.425
 1946SOL    HW1 5849   1.939   2.417   2.442
 1946SOL    HW2 5850   1.983   2.559   2.509
 1947SOL     OW 5851   3.704   3.629   2.221
 1947SOL    HW1 5852   3.758   3.600   2.301
 1947SOL    HW2 5853   3.734   3.719   2.192
 1948SOL     OW 5854   1.889   3.458   1.979
 1948SOL    HW1 5855   1.870   3.362   2.000
 1948SOL    HW2 5856   1.856   3.516   2.054
 1949SOL     OW 5857   3.551   2.784   2.474
 1949SOL    HW1 5858   3.646   2.755   2.482
 1949SOL    HW2 5859   3.543   2.849   2.399
 1950SOL     OW 5860   3.503   2.970   2.294
 1950SOL    HW1 5861   3.589   2.972   2.242
 1950SOL    HW2 5862   3.517   3.017   2.382
 1951SOL     OW 5863   1.975   2.599   3.459
 1951SOL    HW1 5864   2.063   2.586   3.504
 1951SOL    HW2 5865   1.962   2.696   3.437
 1952SOL     OW 5866   2.475   3.227   2.588
 1952SOL    HW1 5867   2.426   3.140   2.597
 1952SOL    HW2 5868   2.452   3.270   2.501
 1953SOL     OW 5869   3.155   3.090   3.285
 1953SOL    HW1 5870   3.192   3.017   3.227
 1953SOL    HW2 5871   3.207   3.095   3.370
 1954SOL     OW 5872   2.671   1.866   2.364
 1954SOL    HW1 5873   2.711   1.957   2.355
 1954SOL    HW2 5874   2.571   1.874   2.370
 1955SOL     OW 5875   2.059   2.838   3.126
 1955SOL    HW1 5876   2.148   2.793   3.112
 1955SOL    HW2 5877   1.986   2.773   3.107
 1956SOL     OW 5878   3.387   2.861   2.052
 1956SOL    HW1 5879   3.324   2.785   2.065
 1956SOL    HW2 5880   3.435   2.879   2.138
 1957SOL     OW 5881   3.049   3.654   3.478
 1957SOL    HW1 5882   3.073   3.714   3.402
 1957SOL    HW2 5883   3.056   3.559   3.448
 1958SOL     OW 5884   2.179   2.113   3.663
 1958SOL    HW1 5885   2.250   2.184   3.669
 1958SOL    HW2 5886   2.091   2.152   3.691
 1959SOL     OW 5887   3.328   3.279   2.815
 1959SOL    HW1 5888   3.269   3.285   2.895
 1959SOL    HW2 5889   3.313   3.191   2.769
 1960SOL     OW 5890   3.529   3.576   2.434
 1960SOL    HW1 5891   3.488   3.553   2.346
 1960SOL    HW2 5892   3.511   3.502   2.499
 1961SOL     OW 5893   2.460   2.591   2.132
 1961SOL    HW1 5894   2.484   2.660   2.064
 1961SOL    HW2 5895   2.382   2.624   2.186
 1962SOL     OW 5896   3.143   2.207   2.806
 1962SOL    HW1 5897   3.057   2.157   2.793
 1962SOL    HW2 5898   3.205   2.153   2.862
 1963SOL     OW 5899   3.438   3.524   2.169
 1963SOL    HW1 5900   3.527   3.570   2.172
 1963SOL    HW2 5901   3.417   3.500   2.074
 1964SOL     OW 5902   2.669   2.467   3.327
 1964SOL    HW1 5903   2.622   2.464   3.416
 1964SOL    HW2 5904   2.618   2.412   3.261
 1965SOL     OW 5905   3.256   2.331   3.536
 1965SOL    HW1 5906   3.236   2.374   3.624
 1965SOL    HW2 5907   3.334   2.269   3.545
 1966SOL     OW 5908   2.835   2.752   3.434
 1966SOL    HW1 5909   2.881   2.668   3.405
 1966SOL    HW2 5910   2.779   2.786   3.359
 1967SOL     OW 5911   2.853   2.272   3.104
 1967SOL    HW1 5912   2.776   2.306   3.158
 1967SOL    HW2 5913   2.819   2.221   3.025
 1968SOL     OW 5914   2.903   2.563   2.291
 1968SOL    HW1 5915   2.929   2.559   2.387
 1968SOL    HW2 5916   2.818   2.512   2.277
 1969SOL     OW 5917   1.938   2.673   2.651
 1969SOL    HW1 5918   2.037   2.661   2.660
 1969SOL    HW2 5919   1.914   2.768   2.672
 1970SOL     OW 5920   1.992   3.683   3.433
 1970SOL    HW1 5921   1.982   3.668   3.532
 1970SOL    HW2 5922   1.906   3.719   3.397
 1971SOL     OW 5923   2.727   2.210   2.057
 1971SOL    HW1 5924   2.786   2.273   2.008
 1971SOL    HW2 5925   2.746   2.116   2.028
 1972SOL     OW 5926   3.581   2.447   3.693
 1972SOL    HW1 5927   3.555   2.536   3.657
 1972SOL    HW2 5928   3.579   2.379   3.620
 1973SOL     OW 5929   3.224   3.006   2.407
 1973SOL    HW1 5930   3.307   2.977   2.359
 1973SOL    HW2 5931   3.175   3.073   2.351
 1974SOL     OW 5932   2.412   2.058   2.747
 1974SOL    HW1 5933   2.407   2.053   2.847
 1974SOL    HW2 5934   2.414   2.154   2.718
 1975SOL     OW 5935   2.870   3.318   2.339
 1975SOL    HW1 5936   2.824   3.390   2.287
 1975SOL    HW2 5937   2.866   3.338   2.437
 1976SOL     OW 5938   2.213   3.663   2.715
 1976SOL    HW1 5939   2.263   3.577   2.721
 1976SOL    HW2 5940   2.278   3.740   2.712
 1977SOL     OW 5941   3.657   2.928   2.735
 1977SOL    HW1 5942   3.595   2.913   2.659
 1977SOL    HW2 5943   3.605   2.939   2.820
 1978SOL     OW 5944   3.089   3.412   3.368
 1978SOL    HW1 5945   3.095   3.335   3.432
 1978SOL    HW2 5946   3.037   3.386   3.288
 1979SOL     OW 5947   2.183   2.805   2.104
 1979SOL    HW1 5948   2.265   2.844   2.062
 1979SOL    HW2 5949   2.156   2.723   2.055
 1980SOL     OW 5950   3.320   2.597   2.590
 1980SOL    HW1 5951   3.315   2.532   2.665
 1980SOL    HW2 5952   3.400   2.656   2.603
 1981SOL     OW 5953   2.323   3.128   3.589
 1981SOL    HW1 5954   2.273   3.129   3.503
 1981SOL    HW2 5955   2.260   3.110   3.665
 1982SOL     OW 5956   2.973   3.638   2.099
 1982SOL    HW1 5957   2.913   3.576   2.149
 1982SOL    HW2 5958   3.004   3.594   2.014
 1983SOL     OW 5959   2.064   2.147   3.360
 1983SOL    HW1 5960   1.984   2.207   3.347
 1983SOL    HW2 5961   2.054   2.098   3.446
 1984SOL     OW 5962   3.494   3.239   1.943
 1984SOL    HW1 5963   3.462   3.333   1.933
 1984SOL    HW2 5964   3.418   3.176   1.931
 1985SOL     OW 5965   2.326   3.605   2.185
 1985SOL    HW1 5966   2.359   3.644   2.271
 1985SOL    HW2 5967   2.402   3.598   2.120
 1986SOL     OW 5968   3.262   1.969   2.288
 1986SOL    HW1 5969   3.238   1.932   2.198
 1986SOL    HW2 5970   3.361   1.985   2.292
 1987SOL     OW 5971   2.111   3.647   3.103
 1987SOL    HW1 5972   2.168   3.582   3.153
 1987SOL    HW2 5973   2.095   3.614   3.010
 1988SOL     OW 5974   2.802   3.560   2.766
 1988SOL    HW1 5975   2.882   3.503   2.787
 1988SOL    HW2 5976   2.753   3.520   2.689
 1989SOL     OW 5977   2.244   2.562   2.342
 1989SOL    HW1 5978   2.289   2.472   2.339
 1989SOL    HW2 5979   2.150   2.551   2.375
 1990SOL     OW 5980   3.409   2.084   3.591
 1990SOL    HW1 5981   3.404   2.121   3.683
 1990SOL    HW2 5982   3.337   2.015   3.579
 1991SOL     OW 5983   2.476   1.984   1.979
 1991SOL    HW1 5984   2.574   1.962   1.986
 1991SOL    HW2 5985   2.445   1.967   1.886
 1992SOL     OW 5986   2.643   2.126   3.611
 1992SOL    HW1 5987   2.710   2.065   3.654
 1992SOL    HW2 5988   2.570   2.145   3.676
 1993SOL     OW 5989   2.750   3.376   3.057
 1993SOL    HW1 5990   2.727   3.351   2.963
 1993SOL    HW2 5991   2.811   3.307   3.096
 1994SOL     OW 5992   3.213   2.452   3.295
 1994SOL    HW1 5993   3.241   2.409   3.380
 1994SOL    HW2 5994   3.238   2.548   3.296
 1995SOL     OW 5995   2.665   3.264   2.786
 1995SOL    HW1 5996   2.755   3.278   2.744
 1995SOL    HW2 5997   2.594   3.266   2.715
 1996SOL     OW 5998   2.784   2.365   2.761
 1996SOL    HW1 5999   2.759   2.356   2.665
 1996SOL    HW2 6000   2.832   2.283   2.792
 1997SOL     OW 6001   3.296   3.050   1.903
 1997SOL    HW1 6002   3.328   2.974   1.960
 1997SOL    HW2 6003   3.204   3.077   1.933
 1998SOL     OW 6004   2.159   1.897   2.033
 1998SOL    HW1 6005   2.208   1.981   2.012
 1998SOL    HW2 6006   2.221   1.832   2.078
 1999SOL     OW 6007   2.797   2.098   2.342
 1999SOL    HW1 6008   2.749   2.139   2.264
 1999SOL    HW2 6009   2.896   2.096   2.323
 2000SOL     OW 6010   2.938   2.545   3.326
 2000SOL    HW1 6011   2.858   2.484   3.329
 2000SOL    HW2 6012   3.019   2.492   3.302
 2001SOL     OW 6013   3.089   3.432   2.655
 2001SOL    HW1 6014   3.110   3.506   2.590
 2001SOL    HW2 6015   3.157   3.432   2.728
 2002SOL     OW 6016   2.321   3.014   2.603
 2002SOL    HW1 6017   2.250   2.987   2.668
 2002SOL    HW2 6018   2.295   2.986   2.510
 2003SOL     OW 6019   3.133   3.659   2.453
 2003SOL    HW1 6020   3.177   3.723   2.389
 2003SOL    HW2 6021   3.083   3.711   2.523
 2004SOL     OW 6022   2.894   2.411   1.878
 2004SOL    HW1 6023   2.853   2.493   1.839
 2004SOL    HW2 6024   2.958   2.437   1.951
 2005SOL     OW 6025   1.940   2.418   3.248
 2005SOL    HW1 6026   2.032   2.417   3.207
 2005SOL    HW2 6027   1.934   2.492   3.315
 2006SOL     OW 6028   2.423   2.084   3.009
 2006SOL    HW1 6029   2.461   2.000   3.046
 2006SOL    HW2 6030   2.335   2.103   3.053
 2007SOL     OW 6031   2.728   2.316   2.504
 2007SOL    HW1 6032   2.696   2.388   2.442
 2007SOL    HW2 6033   2.752   2.235   2.451
 2008SOL     OW 6034   2.879   1.901   2.615
 2008SOL    HW1 6035   2.807   1.906   2.546
 2008SOL    HW2 6036   2.855   1.832   2.684
 2009SOL     OW 6037   3.291   3.035   2.729
 2009SOL    HW1 6038   3.236   2.951   2.722
 2009SOL    HW2 6039   3.317   3.064   2.637
 2010SOL     OW 6040   3.328   2.452   2.854
 2010SOL    HW1 6041   3.298   2.357   2.861
 2010SOL    HW2 6042   3.401   2.468   2.920
 2011SOL     OW 6043   3.719   2.695   2.239
 2011SOL    HW1 6044   3.761   2.631   2.303
 2011SOL    HW2 6045   3.681   2.644   2.161
 2012SOL     OW 6046   2.350   3.247   2.036
 2012SOL    HW1 6047   2.263   3.232   2.083
 2012SOL    HW2 6048   2.333   3.273   1.941
 2013SOL     OW 6049   3.526   3.142   2.519
 2013SOL    HW1 6050   3.625   3.150   2.533
 2013SOL    HW2 6051   3.481   3.226   2.550
 2014SOL     OW 6052   3.252   2.437   1.940
 2014SOL    HW1 6053   3.198   2.416   2.021
 2014SOL    HW2 6054   3.343   2.396   1.949
 2015SOL     OW 6055   3.616   3.085   3.450
 2015SOL    HW1 6056   3.707   3.046   3.437
 2015SOL    HW2 6057   3.624   3.181   3.474
 2016SOL     OW 6058   2.926   3.209   3.202
 2016SOL    HW1 6059   2.846   3.186   3.257
 2016SOL    HW2 6060   3.009   3.183   3.251
 2017SOL     OW 6061   3.454   3.491   3.487
 2017SOL    HW1 6062   3.481   3.525   3.397
 2017SOL    HW2 6063   3.533   3.453   3.533
 2018SOL     OW 6064   2.973   3.057   2.962
 2018SOL    HW1 6065   2.933   3.101   3.043
 2018SOL    HW2 6066   2.932   3.094   2.879
 2019SOL     OW 6067   3.500   2.961   2.941
 2019SOL    HW1 6068   3.505   3.042   3.000
 2019SOL    HW2 6069   3.414   2.963   2.890
 2020SOL     OW 6070   2.777   1.951   3.264
 2020SOL    HW1 6071   2.802   1.931   3.169
 2020SOL    HW2 6072   2.849   2.007   3.306
 2021SOL     OW 6073   2.842   2.978   3.581
 2021SOL    HW1 6074   2.743   2.984   3.591
 2021SOL    HW2 6075   2.865   2.898   3.525
 2022SOL     OW 6076   2.567   2.912   2.230
 2022SOL    HW1 6077   2.553   2.919   2.329
 2022SOL    HW2 6078   2.651   2.861   2.212
 2023SOL     OW 6079   2.272   2.675   3.113
 2023SOL    HW1 6080   2.358   2.687   3.163
 2023SOL    HW2 6081   2.230   2.588   3.140
 2024SOL     OW 6082   3.136   2.248   3.124
 2024SOL    HW1 6083   3.157   2.322   3.188
 2024SOL    HW2 6084   3.047   2.265   3.081
 2025SOL     OW 6085   1.926   3.426   3.193
 2025SOL    HW1 6086   1.880   3.508   3.159
 2025SOL    HW2 6087   2.024   3.445   3.202
 2026SOL     OW 6088   2.229   2.962   2.363
 2026SOL    HW1 6089   2.222   3.045   2.307
 2026SOL    HW2 6090   2.233   2.882   2.303
 2027SOL     OW 6091   2.428   2.399   2.727
 2027SOL    HW1 6092   2.440   2.465   2.653
 2027SOL    HW2 6093   2.474   2.433   2.810
 2028SOL     OW 6094   3.114   3.210   2.250
 2028SOL    HW1 6095   3.164   3.287   2.290
 2028SOL    HW2 6096   3.019   3.212   2.282
 2029SOL     OW 6097   3.134   3.307   3.004
 2029SOL    HW1 6098   3.181   3.320   3.091
 2029SOL    HW2 6099   3.068   3.233   3.013
 2030SOL     OW 6100   3.444   2.501   2.334
 2030SOL    HW1 6101   3.413   2.562   2.407
 2030SOL    HW2 6102   3.494   2.553   2.265
 2031SOL     OW 6103   2.216   3.372   3.191
 2031SOL    HW1 6104   2.195   3.328   3.104
 2031SOL    HW2 6105   2.313   3.398   3.194
 2032SOL     OW 6106   2.264   2.613   3.460
 2032SOL    HW1 6107   2.332   2.668   3.413
 2032SOL    HW2 6108   2.304   2.525   3.487
 2033SOL     OW 6109   3.449   2.641   3.532
 2033SOL    HW1 6110   3.357   2.679   3.527
 2033SOL    HW2 6111   3.509   2.688   3.467
 2034SOL     OW 6112   2.875   1.967   3.632
 2034SOL    HW1 6113   2.881   2.052   3.580
 2034SOL    HW2 6114   2.907   1.891   3.575
 2035SOL     OW 6115   2.366   1.912   3.602
 2035SOL    HW1 6116   2.324   1.855   3.532
 2035SOL    HW2 6117   2.300   1.981   3.634
 2036SOL     OW 6118   2.435   2.732   2.891
 2036SOL    HW1 6119   2.479   2.821   2.882
 2036SOL    HW2 6120   2.372   2.732   2.968
 2037SOL     OW 6121   3.222   2.724   2.907
 2037SOL    HW1 6122   3.147   2.724   2.841
 2037SOL    HW2 6123   3.259   2.632   2.916
 2038SOL     OW 6124   3.071   2.387   2.137
 2038SOL    HW1 6125   3.084   2.303   2.191
 2038SOL    HW2 6126   3.042   2.461   2.197
 2039SOL     OW 6127   2.169   2.075   3.093
 2039SOL    HW1 6128   2.146   2.112   3.183
 2039SOL    HW2 6129   2.139   1.980   3.087
 2040SOL     OW 6130   1.899   3.172   3.144
 2040SOL    HW1 6131   1.952   3.123   3.212
 2040SOL    HW2 6132   1.921   3.270   3.149
 2041SOL     OW 6133   2.594   2.496   2.926
 2041SOL    HW1 6134   2.653   2.470   2.850
 2041SOL    HW2 6135   2.566   2.592   2.915
 2042SOL     OW 6136   3.590   2.797   3.716
 2042SOL    HW1 6137   3.544   2.790   3.627
 2042SOL    HW2 6138   3.528   2.841   3.782
 2043SOL     OW 6139   2.169   1.925   2.480
 2043SOL    HW1 6140   2.158   2.019   2.513
 2043SOL    HW2 6141   2.164   1.862   2.557
 2044SOL     OW 6142   3.484   2.229   2.236
 2044SOL    HW1 6143   3.486   2.153   2.300
 2044SOL    HW2 6144   3.436   2.306   2.276
 2045SOL     OW 6145   2.885   2.628   2.828
 2045SOL    HW1 6146   2.900   2.649   2.924
 2045SOL    HW2 6147   2.855   2.533   2.819
 2046SOL     OW 6148   2.842   3.435   3.562
 2046SOL    HW1 6149   2.822   3.479   3.474
 2046SOL    HW2 6150   2.881   3.344   3.546
 2047SOL     OW 6151   3.721   3.380   3.467
 2047SOL    HW1 6152   3.735   3.407   3.372
 2047SOL    HW2 6153   3.804   3.402   3.520
 2048SOL     OW 6154   2.212   2.760   3.666
 2048SOL    HW1 6155   2.288   2.804   3.714
 2048SOL    HW2 6156   2.247   2.713   3.584
 2049SOL     OW 6157   3.402   2.136   1.987
 2049SOL    HW1 6158   3.341   2.061   2.010
 2049SOL    HW2 6159   3.424   2.188   2.070
 2050SOL     OW 6160   3.165   2.700   1.904
 2050SOL    HW1 6161   3.199   2.607   1.919
 2050SOL    HW2 6162   3.183   2.727   1.809
 2051SOL     OW 6163   2.930   3.195   2.711
 2051SOL    HW1 6164   2.937   3.111   2.656
 2051SOL    HW2 6165   2.992   3.264   2.675
 2052SOL     OW 6166   2.181   2.672   2.811
 2052SOL    HW1 6167   2.274   2.708   2.816
 2052SOL    HW2 6168   2.175   2.587   2.863
 2053SOL     OW 6169   2.201   2.371   2.868
 2053SOL    HW1 6170   2.149   2.288   2.851
 2053SOL    HW2 6171   2.278   2.376   2.804
 2054SOL     OW 6172   3.000   2.242   3.540
 2054SOL    HW1 6173   2.955   2.305   3.604
 2054SOL    HW2 6174   3.093   2.273   3.523
 2055SOL     OW 6175   3.022   2.069   3.339
 2055SOL    HW1 6176   3.022   2.133   3.416
 2055SOL    HW2 6177   3.050   2.117   3.256
 2056SOL     OW 6178   1.870   3.188   2.062
 2056SOL    HW1 6179   1.777   3.209   2.031
 2056SOL    HW2 6180   1.880   3.089   2.075
 2057SOL     OW 6181   1.950   3.663   2.789
 2057SOL    HW1 6182   1.908   3.577   2.762
 2057SOL    HW2 6183   2.044   3.666   2.755
 2058SOL     OW 6184   2.366   3.430   2.772
 2058SOL    HW1 6185   2.432   3.504   2.781
 2058SOL    HW2 6186   2.410   3.351   2.730
 2059SOL     OW 6187   2.864   2.658   3.100
 2059SOL    HW1 6188   2.905   2.626   3.186
 2059SOL    HW2 6189   2.768   2.631   3.097
 2060SOL     OW 6190   1.902   2.406   2.976
 2060SOL    HW1 6191   1.987   2.373   2.935
 2060SOL    HW2 6192   1.915   2.421   3.074
 2061SOL     OW 6193   2.051   2.382   3.584
 2061SOL    HW1 6194   2.110   2.342   3.514
 2061SOL    HW2 6195   1.993   2.453   3.543
 2062SOL     OW 6196   3.231   2.812   3.522
 2062SOL    HW1 6197   3.270   2.901   3.542
 2062SOL    HW2 6198   3.241   2.792   3.425
 2063SOL     OW 6199   2.677   2.434   2.187
 2063SOL    HW1 6200   2.684   2.345   2.141
 2063SOL    HW2 6201   2.583   2.468   2.179
 2064SOL     OW 6202   3.519   2.466   3.068
 2064SOL    HW1 6203   3.481   2.397   3.130
 2064SOL    HW2 6204   3.601   2.430   3.024
 2065SOL     OW 6205   2.114   3.426   3.606
 2065SOL    HW1 6206   2.084   3.483   3.682
 2065SOL    HW2 6207   2.107   3.329   3.632
 2066SOL     OW 6208   2.533   2.326   3.131
 2066SOL    HW1 6209   2.499   2.237   3.101
 2066SOL    HW2 6210   2.559   2.380   3.051
 2067SOL     OW 6211   2.792   3.540   3.327
 2067SOL    HW1 6212   2.768   3.522   3.232
 2067SOL    HW2 6213   2.822   3.634   3.337
 2068SOL     OW 6214   2.021   2.999   3.328
 2068SOL    HW1 6215   2.043   2.938   3.404
 2068SOL    HW2 6216   2.031   2.950   3.242
 2069SOL     OW 6217   3.209   2.921   3.096
 2069SOL    HW1 6218   3.233   2.858   3.022
 2069SOL    HW2 6219   3.119   2.961   3.078
 2070SOL     OW 6220   3.164   2.717   2.171
 2070SOL    HW1 6221   3.078   2.686   2.213
 2070SOL    HW2 6222   3.160   2.703   2.072
 2071SOL     OW 6223   3.621   3.609   3.016
 2071SOL    HW1 6224   3.682   3.639   2.943
 2071SOL    HW2 6225   3.583   3.520   2.994
 2072SOL     OW 6226   3.114   3.593   2.990
 2072SOL    HW1 6227   3.198   3.598   2.936
 2072SOL    HW2 6228   3.091   3.497   3.008
 2073SOL     OW 6229   1.945   3.120   2.884
 2073SOL    HW1 6230   1.940   3.119   2.984
 2073SOL    HW2 6231   1.862   3.079   2.846
 2074SOL     OW 6232   2.550   3.524   3.578
 2074SOL    HW1 6233   2.494   3.605   3.587
 2074SOL    HW2 6234   2.602   3.528   3.492
 2075SOL     OW 6235   3.588   1.997   2.385
 2075SOL    HW1 6236   3.661   1.980   2.318
 2075SOL    HW2 6237   3.557   1.910   2.423
 2076SOL     OW 6238   3.250   3.435   2.339
 2076SOL    HW1 6239   3.317   3.447   2.265
 2076SOL    HW2 6240   3.210   3.524   2.362
 2077SOL     OW 6241   1.992   3.656   3.713
 2077SOL    HW1 6242   1.951   3.582   3.766
 2077SOL    HW2 6243   2.056   3.707   3.771
 2078SOL     OW 6244   3.142   2.789   2.534
 2078SOL    HW1 6245   3.202   2.708   2.536
 2078SOL    HW2 6246   3.182   2.858   2.474
 2079SOL     OW 6247   2.692   3.135   3.284
 2079SOL    HW1 6248   2.687   3.168   3.379
 2079SOL    HW2 6249   2.606   3.154   3.238
 2080SOL     OW 6250   2.534   3.478   2.016
 2080SOL    HW1 6251   2.543   3.488   1.917
 2080SOL    HW2 6252   2.494   3.389   2.037
 2081SOL     OW 6253   3.512   3.582   3.256
 2081SOL    HW1 6254   3.565   3.592   3.172
 2081SOL    HW2 6255   3.485   3.672   3.290
 2082SOL     OW 6256   3.703   2.037   2.825
 2082SOL    HW1 6257   3.742   1.952   2.789
 2082SOL    HW2 6258   3.605   2.039   2.806
 2083SOL     OW 6259   2.125   2.188   2.582
 2083SOL    HW1 6260   2.046   2.239   2.548
 2083SOL    HW2 6261   2.116   2.173   2.680
 2084SOL     OW 6262   3.056   3.474   1.893
 2084SOL    HW1 6263   3.062   3.381   1.930
 2084SOL    HW2 6264   2.997   3.474   1.813
 2085SOL     OW 6265   2.684   2.864   3.234
 2085SOL    HW1 6266   2.724   2.863   3.142
 2085SOL    HW2 6267   2.694   2.956   3.274
 2086SOL     OW 6268   2.778   2.772   2.153
 2086SOL    HW1 6269   2.841   2.810   2.085
 2086SOL    HW2 6270   2.818   2.689   2.192
 2087SOL     OW 6271   3.366   3.469   1.906
 2087SOL    HW1 6272   3.274   3.506   1.913
 2087SOL    HW2 6273   3.404   3.489   1.816
 2088SOL     OW 6274   2.234   3.150   3.352
 2088SOL    HW1 6275   2.221   3.243   3.318
 2088SOL    HW2 6276   2.150   3.098   3.339
 2089SOL     OW 6277   3.476   3.154   3.151
 2089SOL    HW1 6278   3.536   3.157   3.231
 2089SOL    HW2 6279   3.401   3.218   3.164
 2090SOL     OW 6280   2.901   2.960   2.558
 2090SOL    HW1 6281   2.831   2.913   2.612
 2090SOL    HW2 6282   2.960   2.892   2.515
 2091SOL     OW 6283   2.876   2.098   2.833
 2091SOL    HW1 6284   2.868   2.062   2.740
 2091SOL    HW2 6285   2.874   2.022   2.898
 2092SOL     OW 6286   2.452   3.349   2.353
 2092SOL    HW1 6287   2.494   3.291   2.283
 2092SOL    HW2 6288   2.408   3.428   2.309
 2093SOL     OW 6289   3.571   2.247   3.243
 2093SOL    HW1 6290   3.644   2.316   3.247
 2093SOL    HW2 6291   3.599   2.172   3.184
 2094SOL     OW 6292   2.117   3.210   2.152
 2094SOL    HW1 6293   2.021   3.211   2.125
 2094SOL    HW2 6294   2.129   3.263   2.236
 2095SOL     OW 6295   1.967   2.875   3.588
 2095SOL    HW1 6296   1.890   2.842   3.642
 2095SOL    HW2 6297   2.052   2.845   3.630
 2096SOL     OW 6298   2.534   2.065   3.351
 2096SOL    HW1 6299   2.624   2.049   3.311
 2096SOL    HW2 6300   2.542   2.070   3.450
 2097SOL     OW 6301   1.937   2.207   1.895
 2097SOL    HW1 6302   1.845   2.179   1.866
 2097SOL    HW2 6303   1.968   2.284   1.839
 2098SOL     OW 6304   3.302   2.718   3.260
 2098SOL    HW1 6305   3.245   2.770   3.197
 2098SOL    HW2 6306   3.398   2.730   3.236
 2099SOL     OW 6307   3.045   3.197   1.981
 2099SOL    HW1 6308   2.946   3.186   1.983
 2099SOL    HW2 6309   3.079   3.212   2.074
 2100SOL     OW 6310   2.475   2.704   3.293
 2100SOL    HW1 6311   2.531   2.785   3.276
 2100SOL    HW2 6312   2.534   2.624   3.296
 2101SOL     OW 6313   3.355   3.629   2.821
 2101SOL    HW1 6314   3.388   3.693   2.752
 2101SOL    HW2 6315   3.421   3.623   2.896
 2102SOL     OW 6316   2.578   2.427   3.570
 2102SOL    HW1 6317   2.597   2.492   3.644
 2102SOL    HW2 6318   2.638   2.347   3.579
 2103SOL     OW 6319   3.312   3.082   3.495
 2103SOL    HW1 6320   3.303   3.072   3.594
 2103SOL    HW2 6321   3.408   3.075   3.469
 2104SOL     OW 6322   2.252   3.603   3.422
 2104SOL    HW1 6323   2.161   3.644   3.420
 2104SOL    HW2 6324   2.245   3.509   3.454
 2105SOL     OW 6325   3.536   2.745   3.116
 2105SOL    HW1 6326   3.509   2.656   3.079
 2105SOL    HW2 6327   3.537   2.813   3.043
 2106SOL     OW 6328   3.087   2.187   2.311
 2106SOL    HW1 6329   3.152   2.113   2.300
 2106SOL    HW2 6330   3.107   2.237   2.395
 2107SOL     OW 6331   2.456   2.607   2.514
 2107SOL    HW1 6332   2.506   2.692   2.495
 2107SOL    HW2 6333   2.368   2.609   2.466
 2108SOL     OW 6334   3.639   2.204   3.504
 2108SOL    HW1 6335   3.622   2.235   3.410
 2108SOL    HW2 6336   3.555   2.167   3.542
 2109SOL     OW 6337   3.592   2.796   3.379
 2109SOL    HW1 6338   3.630   2.887   3.394
 2109SOL    HW2 6339   3.584   2.779   3.280
 2110SOL     OW 6340   2.721   3.236   1.878
 2110SOL    HW1 6341   2.675   3.251   1.966
 2110SOL    HW2 6342   2.765   3.321   1.848
 2111SOL     OW 6343   2.523   3.652   2.815
 2111SOL    HW1 6344   2.477   3.740   2.802
 2111SOL    HW2 6345   2.622   3.664   2.808
 2112SOL     OW 6346   2.721   2.818   2.723
 2112SOL    HW1 6347   2.775   2.749   2.771
 2112SOL    HW2 6348   2.689   2.887   2.789
 2113SOL     OW 6349   2.945   2.846   1.949
 2113SOL    HW1 6350   2.922   2.899   1.867
 2113SOL    HW2 6351   3.026   2.790   1.930
 2114SOL     OW 6352   3.723   3.431   2.713
 2114SOL    HW1 6353   3.652   3.419   2.643
 2114SOL    HW2 6354   3.724   3.352   2.773
 2115SOL     OW 6355   2.083   3.176   3.706
 2115SOL    HW1 6356   2.018   3.103   3.685
 2115SOL    HW2 6357   2.087   3.190   3.804
 2116SOL     OW 6358   1.941   3.102   2.515
 2116SOL    HW1 6359   1.940   3.055   2.603
 2116SOL    HW2 6360   2.023   3.074   2.464
 2117SOL     OW 6361   2.534   3.253   3.486
 2117SOL    HW1 6362   2.456   3.203   3.524
 2117SOL    HW2 6363   2.531   3.348   3.517
 2118SOL     OW 6364   3.686   2.054   3.089
 2118SOL    HW1 6365   3.682   1.964   3.133
 2118SOL    HW2 6366   3.689   2.043   2.990
 2119SOL     OW 6367   3.567   3.349   2.966
 2119SOL    HW1 6368   3.474   3.324   2.939
 2119SOL    HW2 6369   3.593   3.299   3.048
 2120SOL     OW 6370   2.179   2.409   3.142
 2120SOL    HW1 6371   2.217   2.350   3.214
 2120SOL    HW2 6372   2.219   2.383   3.054
 2121SOL     OW 6373   2.674   3.448   2.549
 2121SOL    HW1 6374   2.706   3.458   2.455
 2121SOL    HW2 6375   2.595   3.386   2.551
 2122SOL     OW 6376   3.286   2.076   2.974
 2122SOL    HW1 6377   3.338   2.011   3.029
 2122SOL    HW2 6378   3.237   2.139   3.035
 2123SOL     OW 6379   2.863   1.896   3.016
 2123SOL    HW1 6380   2.800   1.824   2.985
 2123SOL    HW2 6381   2.956   1.860   3.016
 2124SOL     OW 6382   2.632   3.192   2.163
 2124SOL    HW1 6383   2.586   3.105   2.180
 2124SOL    HW2 6384   2.723   3.189   2.204
 2125SOL     OW 6385   2.480   3.429   3.146
 2125SOL    HW1 6386   2.475   3.511   3.203
 2125SOL    HW2 6387   2.569   3.426   3.101
 2126SOL     OW 6388   3.214   1.914   2.030
 2126SOL    HW1 6389   3.249   1.873   1.946
 2126SOL    HW2 6390   3.124   1.876   2.050
 2127SOL     OW 6391   3.162   2.315   2.553
 2127SOL    HW1 6392   3.103   2.395   2.557
 2127SOL    HW2 6393   3.177   2.280   2.646
 2128SOL     OW 6394   3.455   2.083   2.744
 2128SOL    HW1 6395   3.371   2.082   2.798
 2128SOL    HW2 6396   3.457   2.166   2.688
 2129SOL     OW 6397   1.901   2.939   2.162
 2129SOL    HW1 6398   2.000   2.928   2.153
 2129SOL    HW2 6399   1.861   2.853   2.194
 2130SOL     OW 6400   2.737   3.508   2.199
 2130SOL    HW1 6401   2.660   3.473   2.145
 2130SOL    HW2 6402   2.705   3.579   2.261
 2131SOL     OW 6403   2.092   2.490   3.837
 2131SOL    HW1 6404   1.999   2.488   3.874
 2131SOL    HW2 6405   2.093   2.451   3.745
 2132SOL     OW 6406   3.617   2.469   3.955
 2132SOL    HW1 6407   3.605   2.456   3.856
 2132SOL    HW2 6408   3.587   2.388   4.004
 2133SOL     OW 6409   2.093   3.575   4.207
 2133SOL    HW1 6410   2.127   3.652   4.261
 2133SOL    HW2 6411   2.137   3.575   4.117
 2134SOL     OW 6412   2.092   3.296   4.262
 2134SOL    HW1 6413   2.066   3.392   4.262
 2134SOL    HW2 6414   2.021   3.242   4.307
 2135SOL     OW 6415   2.468   2.826   3.847
 2135SOL    HW1 6416   2.475   2.910   3.793
 2135SOL    HW2 6417   2.514   2.839   3.935
 2136SOL     OW 6418   1.984   2.505   4.287
 2136SOL    HW1 6419   1.939   2.417   4.304
 2136SOL    HW2 6420   1.983   2.559   4.371
 2137SOL     OW 6421   3.704   3.629   4.083
 2137SOL    HW1 6422   3.758   3.600   4.163
 2137SOL    HW2 6423   3.734   3.719   4.054
 2138SOL     OW 6424   1.889   3.458   3.841
 2138SOL    HW1 6425   1.870   3.362   3.862
 2138SOL    HW2 6426   1.856   3.516   3.916
 2139SOL     OW 6427   3.551   2.784   4.336
 2139SOL    HW1 6428   3.646   2.755   4.344
 2139SOL    HW2 6429   3.543   2.849   4.261
 2140SOL     OW 6430   3.503   2.970   4.156
 2140SOL    HW1 6431   3.589   2.972   4.104
 2140SOL    HW2 6432   3.517   3.017   4.244
 2141SOL     OW 6433   2.475   3.227   4.450
 2141SOL    HW1 6434   2.426   3.140   4.459
 2141SOL    HW2 6435   2.452   3.270   4.363
 2142SOL     OW 6436   2.671   1.866   4.226
 2142SOL    HW1 6437   2.711   1.957   4.217
 2142SOL    HW2 6438   2.571   1.874   4.232
 2143SOL     OW 6439   3.387   2.861   3.914
 2143SOL    HW1 6440   3.324   2.785   3.927
 2143SOL    HW2 6441   3.435   2.879   4.000
 2144SOL     OW 6442   3.328   3.279   4.677
 2144SOL    HW1 6443   3.269   3.285   4.757
 2144SOL    HW2 6444   3.313   3.191   4.631
 2145SOL     OW 6445   2.460   2.591   3.994
 2145SOL    HW1 6446   2.484   2.660   3.926
 2145SOL    HW2 6447   2.382   2.624   4.048
 2146SOL     OW 6448   3.143   2.207   4.668
 2146SOL    HW1 6449   3.057   2.157   4.655
 2146SOL    HW2 6450   3.205   2.153   4.724
 2147SOL     OW 6451   3.438   3.524   4.031
 2147SOL    HW1 6452   3.527   3.570   4.034
 2147SOL    HW2 6453   3.417   3.500   3.936
 2148SOL     OW 6454   2.903   2.563   4.153
 2148SOL    HW1 6455   2.929   2.559   4.249
 2148SOL    HW2 6456   2.818   2.512   4.139
 2149SOL     OW 6457   1.938   2.673   4.513
 2149SOL    HW1 6458   2.037   2.661   4.522
 2149SOL    HW2 6459   1.914   2.768   4.534
 2150SOL     OW 6460   2.727   2.210   3.919
 2150SOL    HW1 6461   2.786   2.273   3.870
 2150SOL    HW2 6462   2.746   2.116   3.890
 2151SOL     OW 6463   3.224   3.006   4.269
 2151SOL    HW1 6464   3.307   2.977   4.221
 2151SOL    HW2 6465   3.175   3.073   4.213
 2152SOL     OW 6466   2.870   3.318   4.201
 2152SOL    HW1 6467   2.824   3.390   4.149
 2152SOL    HW2 6468   2.866   3.338   4.299
 2153SOL     OW 6469   2.213   3.663   4.577
 2153SOL    HW1 6470   2.263   3.577   4.583
 2153SOL    HW2 6471   2.278   3.740   4.574
 2154SOL     OW 6472   3.657   2.928   4.597
 2154SOL    HW1 6473   3.595   2.913   4.521
 2154SOL    HW2 6474   3.605   2.939   4.682
 2155SOL     OW 6475   2.183   2.805   3.966
 2155SOL    HW1 6476   2.265   2.844   3.924
 2155SOL    HW2 6477   2.156   2.723   3.917
 2156SOL     OW 6478   2.973   3.638   3.961
 2156SOL    HW1 6479   2.913   3.576   4.011
 2156SOL    HW2 6480   3.004   3.594   3.876
 2157SOL     OW 6481   3.494   3.239   3.805
 2157SOL    HW1 6482   3.462   3.333   3.795
 2157SOL    HW2 6483   3.418   3.176   3.793
 2158SOL     OW 6484   2.326   3.605   4.047
 2158SOL    HW1 6485   2.359   3.644   4.133
 2158SOL    HW2 6486   2.402   3.598   3.982
 2159SOL     OW 6487   3.262   1.969   4.150
 2159SOL    HW1 6488   3.238   1.932   4.060
 2159SOL    HW2 6489   3.361   1.985   4.154
 2160SOL     OW 6490   2.244   2.562   4.204
 2160SOL    HW1 6491   2.289   2.472   4.201
 2160SOL    HW2 6492   2.150   2.551   4.237
 2161SOL     OW 6493   2.476   1.984   3.841
 2161SOL    HW1 6494   2.574   1.962   3.848
 2161SOL    HW2 6495   2.445   1.967   3.748
 2162SOL     OW 6496   2.401   1.926   4.236
 2162SOL    HW1 6497   2.320   1.927   4.294
 2162SOL    HW2 6498   2.404   2.009   4.181
 2163SOL     OW 6499   3.296   3.050   3.765
 2163SOL    HW1 6500   3.328   2.974   3.822
 2163SOL    HW2 6501   3.204   3.077   3.795
 2164SOL     OW 6502   2.159   1.897   3.895
 2164SOL    HW1 6503   2.208   1.981   3.874
 2164SOL    HW2 6504   2.221   1.832   3.940
 2165SOL     OW 6505   2.797   2.098   4.204
 2165SOL    HW1 6506   2.749   2.139   4.126
 2165SOL    HW2 6507   2.896   2.096   4.185
 2166SOL     OW 6508   2.321   3.014   4.465
 2166SOL    HW1 6509   2.250   2.987   4.530
 2166SOL    HW2 6510   2.295   2.986   4.372
 2167SOL     OW 6511   3.133   3.659   4.315
 2167SOL    HW1 6512   3.177   3.723   4.251
 2167SOL    HW2 6513   3.083   3.711   4.385
 2168SOL     OW 6514   2.894   2.411   3.740
 2168SOL    HW1 6515   2.853   2.493   3.701
 2168SOL    HW2 6516   2.958   2.437   3.813
 2169SOL     OW 6517   2.728   2.316   4.366
 2169SOL    HW1 6518   2.696   2.388   4.304
 2169SOL    HW2 6519   2.752   2.235   4.313
 2170SOL     OW 6520   3.719   2.695   4.101
 2170SOL    HW1 6521   3.761   2.631   4.165
 2170SOL    HW2 6522   3.681   2.644   4.023
 2171SOL     OW 6523   2.350   3.247   3.898
 2171SOL    HW1 6524   2.263   3.232   3.945
 2171SOL    HW2 6525   2.333   3.273   3.803
 2172SOL     OW 6526   3.252   2.437   3.802
 2172SOL    HW1 6527   3.198   2.416   3.883
 2172SOL    HW2 6528   3.343   2.396   3.811
 2173SOL     OW 6529   2.389   2.118   4.052
 2173SOL    HW1 6530   2.416   2.059   3.977
 2173SOL    HW2 6531   2.389   2.213   4.021
 2174SOL     OW 6532   2.567   2.912   4.092
 2174SOL    HW1 6533   2.553   2.919   4.191
 2174SOL    HW2 6534   2.651   2.861   4.074
 2175SOL     OW 6535   2.229   2.962   4.225
 2175SOL    HW1 6536   2.222   3.045   4.169
 2175SOL    HW2 6537   2.233   2.882   4.165
 2176SOL     OW 6538   3.114   3.210   4.112
 2176SOL    HW1 6539   3.164   3.287   4.152
 2176SOL    HW2 6540   3.019   3.212   4.144
 2177SOL     OW 6541   3.444   2.501   4.196
 2177SOL    HW1 6542   3.413   2.562   4.269
 2177SOL    HW2 6543   3.494   2.553   4.127
 2178SOL     OW 6544   3.071   2.387   3.999
 2178SOL    HW1 6545   3.084   2.303   4.053
 2178SOL    HW2 6546   3.042   2.461   4.059
 2179SOL     OW 6547   2.169   1.925   4.342
 2179SOL    HW1 6548   2.158   2.019   4.375
 2179SOL    HW2 6549   2.164   1.862   4.419
 2180SOL     OW 6550   3.484   2.229   4.098
 2180SOL    HW1 6551   3.486   2.153   4.162
 2180SOL    HW2 6552   3.436   2.306   4.138
 2181SOL     OW 6553   3.402   2.136   3.849
 2181SOL    HW1 6554   3.341   2.061   3.872
 2181SOL    HW2 6555   3.424   2.188   3.932
 2182SOL     OW 6556   3.165   2.700   3.766
 2182SOL    HW1 6557   3.199   2.607   3.781
 2182SOL    HW2 6558   3.183   2.727   3.671
 2183SOL     OW 6559   1.870   3.188   3.924
 2183SOL    HW1 6560   1.777   3.209   3.893
 2183SOL    HW2 6561   1.880   3.089   3.937
 2184SOL     OW 6562   2.677   2.434   4.049
 2184SOL    HW1 6563   2.684   2.345   4.003
 2184SOL    HW2 6564   2.583   2.468   4.041
 2185SOL     OW 6565   2.335   2.362   3.915
 2185SOL    HW1 6566   2.396   2.442   3.919
 2185SOL    HW2 6567   2.240   2.393   3.922
 2186SOL     OW 6568   3.164   2.717   4.033
 2186SOL    HW1 6569   3.078   2.686   4.075
 2186SOL    HW2 6570   3.160   2.703   3.934
 2187SOL     OW 6571   3.588   1.997   4.247
 2187SOL    HW1 6572   3.661   1.980   4.180
 2187SOL    HW2 6573   3.557   1.910   4.285
 2188SOL     OW 6574   3.250   3.435   4.201
 2188SOL    HW1 6575   3.317   3.447   4.127
 2188SOL    HW2 6576   3.210   3.524   4.224
 2189SOL     OW 6577   2.534   3.478   3.878
 2189SOL    HW1 6578   2.543   3.488   3.779
 2189SOL    HW2 6579   2.494   3.389   3.899
 2190SOL     OW 6580   3.703   2.037   4.687
 2190SOL    HW1 6581   3.742   1.952   4.651
 2190SOL    HW2 6582   3.605   2.039   4.668
 2191SOL     OW 6583   3.056   3.474   3.755
 2191SOL    HW1 6584   3.062   3.381   3.792
 2191SOL    HW2 6585   2.997   3.474   3.675
 2192SOL     OW 6586   2.778   2.772   4.015
 2192SOL    HW1 6587   2.841   2.810   3.947
 2192SOL    HW2 6588   2.818   2.689   4.054
 2193SOL     OW 6589   3.366   3.469   3.768
 2193SOL    HW1 6590   3.274   3.506   3.775
 2193SOL    HW2 6591   3.404   3.489   3.678
 2194SOL     OW 6592   2.452   3.349   4.215
 2194SOL    HW1 6593   2.494   3.291   4.145
 2194SOL    HW2 6594   2.408   3.428   4.171
 2195SOL     OW 6595   2.117   3.210   4.014
 2195SOL    HW1 6596   2.021   3.211   3.987
 2195SOL    HW2 6597   2.129   3.263   4.098
 2196SOL     OW 6598   1.937   2.207   3.757
 2196SOL    HW1 6599   1.845   2.179   3.728
 2196SOL    HW2 6600   1.968   2.284   3.701
 2197SOL     OW 6601   1.934   2.028   4.042
 2197SOL    HW1 6602   1.917   2.111   3.988
 2197SOL    HW2 6603   2.024   1.991   4.020
 2198SOL     OW 6604   3.045   3.197   3.843
 2198SOL    HW1 6605   2.946   3.186   3.845
 2198SOL    HW2 6606   3.079   3.212   3.936
 2199SOL     OW 6607   3.087   2.187   4.173
 2199SOL    HW1 6608   3.152   2.113   4.162
 2199SOL    HW2 6609   3.107   2.237   4.257
 2200SOL     OW 6610   2.456   2.607   4.376
 2200SOL    HW1 6611   2.506   2.692   4.357
 2200SOL    HW2 6612   2.368   2.609   4.328
 2201SOL     OW 6613   2.721   3.236   3.740
 2201SOL    HW1 6614   2.675   3.251   3.828
 2201SOL    HW2 6615   2.765   3.321   3.710
 2202SOL     OW 6616   2.945   2.846   3.811
 2202SOL    HW1 6617   2.922   2.899   3.729
 2202SOL    HW2 6618   3.026   2.790   3.792
 2203SOL     OW 6619   1.941   3.102   4.377
 2203SOL    HW1 6620   1.940   3.055   4.465
 2203SOL    HW2 6621   2.023   3.074   4.326
 2204SOL     OW 6622   2.290   2.286   4.244
 2204SOL    HW1 6623   2.320   2.214   4.182
 2204SOL    HW2 6624   2.251   2.246   4.327
 2205SOL     OW 6625   2.674   3.448   4.411
 2205SOL    HW1 6626   2.706   3.458   4.317
 2205SOL    HW2 6627   2.595   3.386   4.413
 2206SOL     OW 6628   2.632   3.192   4.025
 2206SOL    HW1 6629   2.586   3.105   4.042
 2206SOL    HW2 6630   2.723   3.189   4.066
 2207SOL     OW 6631   3.214   1.914   3.892
 2207SOL    HW1 6632   3.249   1.873   3.808
 2207SOL    HW2 6633   3.124   1.876   3.912
 2208SOL     OW 6634   3.162   2.315   4.415
 2208SOL    HW1 6635   3.103   2.395   4.419
 2208SOL    HW2 6636   3.177   2.280   4.508
 2209SOL     OW 6637   1.901   2.939   4.024
 2209SOL    HW1 6638   2.000   2.928   4.015
 2209SOL    HW2 6639   1.861   2.853   4.056
 2210SOL     OW 6640   2.737   3.508   4.061
 2210SOL    HW1 6641   2.660   3.473   4.007
 2210SOL    HW2 6642   2.705   3.579   4.123
 2211SOL     OW 6643   2.087   3.999   0.996
 2211SOL    HW1 6644   2.122   3.982   1.088
 2211SOL    HW2 6645   1.999   3.954   0.984
 2212SOL     OW 6646   1.881   4.092   0.647
 2212SOL    HW1 6647   1.799   4.135   0.686
 2212SOL    HW2 6648   1.853   4.019   0.584
 2213SOL     OW 6649   3.617   4.331   0.231
 2213SOL    HW1 6650   3.605   4.318   0.132
 2213SOL    HW2 6651   3.587   4.250   0.280
 2214SOL     OW 6652   2.300   4.116   1.499
 2214SOL    HW1 6653   2.382   4.060   1.508
 2214SOL    HW2 6654   2.219   4.058   1.503
 2215SOL     OW 6655   3.465   4.171   0.737
 2215SOL    HW1 6656   3.391   4.217   0.687
 2215SOL    HW2 6657   3.516   4.239   0.790
 2216SOL     OW 6658   3.456   3.838   1.480
 2216SOL    HW1 6659   3.438   3.905   1.408
 2216SOL    HW2 6660   3.453   3.884   1.569
 2217SOL     OW 6661   1.984   4.367   0.563
 2217SOL    HW1 6662   1.939   4.279   0.580
 2217SOL    HW2 6663   1.983   4.421   0.647
 2218SOL     OW 6664   1.975   4.461   1.597
 2218SOL    HW1 6665   2.063   4.448   1.642
 2218SOL    HW2 6666   1.962   4.558   1.575
 2219SOL     OW 6667   2.671   3.728   0.502
 2219SOL    HW1 6668   2.711   3.819   0.493
 2219SOL    HW2 6669   2.571   3.736   0.508
 2220SOL     OW 6670   2.179   3.975   1.801
 2220SOL    HW1 6671   2.250   4.046   1.807
 2220SOL    HW2 6672   2.091   4.014   1.829
 2221SOL     OW 6673   3.143   4.069   0.944
 2221SOL    HW1 6674   3.057   4.019   0.931
 2221SOL    HW2 6675   3.205   4.015   1.000
 2222SOL     OW 6676   2.669   4.329   1.465
 2222SOL    HW1 6677   2.622   4.326   1.554
 2222SOL    HW2 6678   2.618   4.274   1.399
 2223SOL     OW 6679   3.256   4.193   1.674
 2223SOL    HW1 6680   3.236   4.236   1.762
 2223SOL    HW2 6681   3.334   4.131   1.683
 2224SOL     OW 6682   2.853   4.134   1.242
 2224SOL    HW1 6683   2.776   4.168   1.296
 2224SOL    HW2 6684   2.819   4.083   1.163
 2225SOL     OW 6685   2.903   4.425   0.429
 2225SOL    HW1 6686   2.929   4.421   0.525
 2225SOL    HW2 6687   2.818   4.374   0.415
 2226SOL     OW 6688   2.727   4.072   0.195
 2226SOL    HW1 6689   2.786   4.135   0.146
 2226SOL    HW2 6690   2.746   3.978   0.166
 2227SOL     OW 6691   3.581   4.309   1.831
 2227SOL    HW1 6692   3.555   4.398   1.795
 2227SOL    HW2 6693   3.579   4.241   1.758
 2228SOL     OW 6694   2.412   3.920   0.885
 2228SOL    HW1 6695   2.407   3.915   0.985
 2228SOL    HW2 6696   2.414   4.016   0.856
 2229SOL     OW 6697   3.320   4.459   0.728
 2229SOL    HW1 6698   3.315   4.394   0.803
 2229SOL    HW2 6699   3.400   4.518   0.741
 2230SOL     OW 6700   2.064   4.009   1.498
 2230SOL    HW1 6701   1.984   4.069   1.485
 2230SOL    HW2 6702   2.054   3.960   1.584
 2231SOL     OW 6703   3.262   3.831   0.426
 2231SOL    HW1 6704   3.238   3.794   0.336
 2231SOL    HW2 6705   3.361   3.847   0.430
 2232SOL     OW 6706   3.409   3.946   1.729
 2232SOL    HW1 6707   3.404   3.983   1.821
 2232SOL    HW2 6708   3.337   3.877   1.717
 2233SOL     OW 6709   2.476   3.846   0.117
 2233SOL    HW1 6710   2.574   3.824   0.124
 2233SOL    HW2 6711   2.445   3.829   0.024
 2234SOL     OW 6712   2.643   3.988   1.749
 2234SOL    HW1 6713   2.710   3.927   1.792
 2234SOL    HW2 6714   2.570   4.007   1.814
 2235SOL     OW 6715   3.213   4.314   1.433
 2235SOL    HW1 6716   3.241   4.271   1.518
 2235SOL    HW2 6717   3.238   4.410   1.434
 2236SOL     OW 6718   2.784   4.227   0.899
 2236SOL    HW1 6719   2.759   4.218   0.803
 2236SOL    HW2 6720   2.832   4.145   0.930
 2237SOL     OW 6721   2.401   3.788   0.512
 2237SOL    HW1 6722   2.320   3.789   0.570
 2237SOL    HW2 6723   2.404   3.871   0.457
 2238SOL     OW 6724   2.797   3.960   0.480
 2238SOL    HW1 6725   2.749   4.001   0.402
 2238SOL    HW2 6726   2.896   3.958   0.461
 2239SOL     OW 6727   2.938   4.407   1.464
 2239SOL    HW1 6728   2.858   4.346   1.467
 2239SOL    HW2 6729   3.019   4.354   1.440
 2240SOL     OW 6730   2.894   4.273   0.016
 2240SOL    HW1 6731   2.853   4.355  -0.023
 2240SOL    HW2 6732   2.958   4.299   0.089
 2241SOL     OW 6733   1.940   4.280   1.386
 2241SOL    HW1 6734   2.032   4.279   1.345
 2241SOL    HW2 6735   1.934   4.354   1.453
 2242SOL     OW 6736   2.423   3.946   1.147
 2242SOL    HW1 6737   2.461   3.862   1.184
 2242SOL    HW2 6738   2.335   3.965   1.191
 2243SOL     OW 6739   2.728   4.178   0.642
 2243SOL    HW1 6740   2.696   4.250   0.580
 2243SOL    HW2 6741   2.752   4.097   0.589
 2244SOL     OW 6742   2.879   3.763   0.753
 2244SOL    HW1 6743   2.807   3.768   0.684
 2244SOL    HW2 6744   2.855   3.694   0.822
 2245SOL     OW 6745   3.328   4.314   0.992
 2245SOL    HW1 6746   3.298   4.219   0.999
 2245SOL    HW2 6747   3.401   4.330   1.058
 2246SOL     OW 6748   3.252   4.299   0.078
 2246SOL    HW1 6749   3.198   4.278   0.159
 2246SOL    HW2 6750   3.343   4.258   0.087
 2247SOL     OW 6751   2.389   3.980   0.328
 2247SOL    HW1 6752   2.416   3.921   0.253
 2247SOL    HW2 6753   2.389   4.075   0.297
 2248SOL     OW 6754   2.777   3.813   1.402
 2248SOL    HW1 6755   2.802   3.793   1.307
 2248SOL    HW2 6756   2.849   3.869   1.444
 2249SOL     OW 6757   3.136   4.110   1.262
 2249SOL    HW1 6758   3.157   4.184   1.326
 2249SOL    HW2 6759   3.047   4.127   1.219
 2250SOL     OW 6760   2.428   4.261   0.865
 2250SOL    HW1 6761   2.440   4.327   0.791
 2250SOL    HW2 6762   2.474   4.295   0.948
 2251SOL     OW 6763   3.444   4.363   0.472
 2251SOL    HW1 6764   3.413   4.424   0.545
 2251SOL    HW2 6765   3.494   4.415   0.403
 2252SOL     OW 6766   2.875   3.829   1.770
 2252SOL    HW1 6767   2.881   3.914   1.718
 2252SOL    HW2 6768   2.907   3.753   1.713
 2253SOL     OW 6769   2.366   3.774   1.740
 2253SOL    HW1 6770   2.324   3.717   1.670
 2253SOL    HW2 6771   2.300   3.843   1.772
 2254SOL     OW 6772   3.071   4.249   0.275
 2254SOL    HW1 6773   3.084   4.165   0.329
 2254SOL    HW2 6774   3.042   4.323   0.335
 2255SOL     OW 6775   2.169   3.937   1.231
 2255SOL    HW1 6776   2.146   3.974   1.321
 2255SOL    HW2 6777   2.139   3.842   1.225
 2256SOL     OW 6778   2.594   4.358   1.064
 2256SOL    HW1 6779   2.653   4.332   0.988
 2256SOL    HW2 6780   2.566   4.454   1.053
 2257SOL     OW 6781   2.169   3.787   0.618
 2257SOL    HW1 6782   2.158   3.881   0.651
 2257SOL    HW2 6783   2.164   3.724   0.695
 2258SOL     OW 6784   3.484   4.091   0.374
 2258SOL    HW1 6785   3.486   4.015   0.438
 2258SOL    HW2 6786   3.436   4.168   0.414
 2259SOL     OW 6787   3.402   3.998   0.125
 2259SOL    HW1 6788   3.341   3.923   0.148
 2259SOL    HW2 6789   3.424   4.050   0.208
 2260SOL     OW 6790   2.181   4.534   0.949
 2260SOL    HW1 6791   2.274   4.570   0.954
 2260SOL    HW2 6792   2.175   4.449   1.001
 2261SOL     OW 6793   2.201   4.233   1.006
 2261SOL    HW1 6794   2.149   4.150   0.989
 2261SOL    HW2 6795   2.278   4.238   0.942
 2262SOL     OW 6796   3.000   4.104   1.678
 2262SOL    HW1 6797   2.955   4.167   1.742
 2262SOL    HW2 6798   3.093   4.135   1.661
 2263SOL     OW 6799   3.022   3.931   1.477
 2263SOL    HW1 6800   3.022   3.995   1.554
 2263SOL    HW2 6801   3.050   3.979   1.394
 2264SOL     OW 6802   1.902   4.268   1.114
 2264SOL    HW1 6803   1.987   4.235   1.073
 2264SOL    HW2 6804   1.915   4.283   1.212
 2265SOL     OW 6805   2.051   4.244   1.722
 2265SOL    HW1 6806   2.110   4.204   1.652
 2265SOL    HW2 6807   1.993   4.315   1.681
 2266SOL     OW 6808   2.677   4.296   0.325
 2266SOL    HW1 6809   2.684   4.207   0.279
 2266SOL    HW2 6810   2.583   4.330   0.317
 2267SOL     OW 6811   3.519   4.328   1.206
 2267SOL    HW1 6812   3.481   4.259   1.268
 2267SOL    HW2 6813   3.601   4.292   1.162
 2268SOL     OW 6814   2.533   4.188   1.269
 2268SOL    HW1 6815   2.499   4.099   1.239
 2268SOL    HW2 6816   2.559   4.242   1.189
 2269SOL     OW 6817   2.335   4.224   0.191
 2269SOL    HW1 6818   2.396   4.304   0.195
 2269SOL    HW2 6819   2.240   4.255   0.198
 2270SOL     OW 6820   2.765   3.810   0.133
 2270SOL    HW1 6821   2.816   3.811   0.047
 2270SOL    HW2 6822   2.821   3.768   0.204
 2271SOL     OW 6823   3.588   3.859   0.523
 2271SOL    HW1 6824   3.661   3.842   0.456
 2271SOL    HW2 6825   3.557   3.772   0.561
 2272SOL     OW 6826   3.142   4.651   0.672
 2272SOL    HW1 6827   3.202   4.570   0.674
 2272SOL    HW2 6828   3.182   4.720   0.612
 2273SOL     OW 6829   3.703   3.899   0.963
 2273SOL    HW1 6830   3.742   3.814   0.927
 2273SOL    HW2 6831   3.605   3.901   0.944
 2274SOL     OW 6832   2.125   4.050   0.720
 2274SOL    HW1 6833   2.046   4.101   0.686
 2274SOL    HW2 6834   2.116   4.035   0.818
 2275SOL     OW 6835   2.876   3.960   0.971
 2275SOL    HW1 6836   2.868   3.924   0.878
 2275SOL    HW2 6837   2.874   3.884   1.036
 2276SOL     OW 6838   3.571   4.109   1.381
 2276SOL    HW1 6839   3.644   4.178   1.385
 2276SOL    HW2 6840   3.599   4.034   1.322
 2277SOL     OW 6841   2.534   3.927   1.489
 2277SOL    HW1 6842   2.624   3.911   1.449
 2277SOL    HW2 6843   2.542   3.932   1.588
 2278SOL     OW 6844   1.937   4.069   0.033
 2278SOL    HW1 6845   1.845   4.041   0.004
 2278SOL    HW2 6846   1.968   4.146  -0.023
 2279SOL     OW 6847   2.578   4.289   1.708
 2279SOL    HW1 6848   2.597   4.354   1.782
 2279SOL    HW2 6849   2.638   4.209   1.717
 2280SOL     OW 6850   3.087   4.049   0.449
 2280SOL    HW1 6851   3.152   3.975   0.438
 2280SOL    HW2 6852   3.107   4.099   0.533
 2281SOL     OW 6853   3.639   4.066   1.642
 2281SOL    HW1 6854   3.622   4.097   1.548
 2281SOL    HW2 6855   3.555   4.029   1.680
 2282SOL     OW 6856   2.945   4.708   0.087
 2282SOL    HW1 6857   2.922   4.761   0.005
 2282SOL    HW2 6858   3.026   4.652   0.068
 2283SOL     OW 6859   3.686   3.916   1.227
 2283SOL    HW1 6860   3.682   3.826   1.271
 2283SOL    HW2 6861   3.689   3.905   1.128
 2284SOL     OW 6862   2.290   4.148   0.520
 2284SOL    HW1 6863   2.320   4.076   0.458
 2284SOL    HW2 6864   2.251   4.108   0.603
 2285SOL     OW 6865   2.179   4.271   1.280
 2285SOL    HW1 6866   2.217   4.212   1.352
 2285SOL    HW2 6867   2.219   4.245   1.192
 2286SOL     OW 6868   3.286   3.938   1.112
 2286SOL    HW1 6869   3.338   3.873   1.167
 2286SOL    HW2 6870   3.237   4.001   1.173
 2287SOL     OW 6871   2.863   3.758   1.154
 2287SOL    HW1 6872   2.800   3.686   1.123
 2287SOL    HW2 6873   2.956   3.722   1.154
 2288SOL     OW 6874   3.214   3.776   0.168
 2288SOL    HW1 6875   3.249   3.735   0.084
 2288SOL    HW2 6876   3.124   3.738   0.188
 2289SOL     OW 6877   3.162   4.177   0.691
 2289SOL    HW1 6878   3.103   4.257   0.695
 2289SOL    HW2 6879   3.177   4.142   0.784
 2290SOL     OW 6880   3.455   3.945   0.882
 2290SOL    HW1 6881   3.371   3.944   0.936
 2290SOL    HW2 6882   3.457   4.028   0.826
 2291SOL     OW 6883   2.087   3.999   2.858
 2291SOL    HW1 6884   2.122   3.982   2.950
 2291SOL    HW2 6885   1.999   3.954   2.846
 2292SOL     OW 6886   1.881   4.092   2.509
 2292SOL    HW1 6887   1.799   4.135   2.548
 2292SOL    HW2 6888   1.853   4.019   2.446
 2293SOL     OW 6889   3.617   4.331   2.093
 2293SOL    HW1 6890   3.605   4.318   1.994
 2293SOL    HW2 6891   3.587   4.250   2.142
 2294SOL     OW 6892   2.300   4.116   3.361
 2294SOL    HW1 6893   2.382   4.060   3.370
 2294SOL    HW2 6894   2.219   4.058   3.365
 2295SOL     OW 6895   3.465   4.171   2.599
 2295SOL    HW1 6896   3.391   4.217   2.549
 2295SOL    HW2 6897   3.516   4.239   2.652
 2296SOL     OW 6898   3.456   3.838   3.342
 2296SOL    HW1 6899   3.438   3.905   3.270
 2296SOL    HW2 6900   3.453   3.884   3.431
 2297SOL     OW 6901   1.984   4.367   2.425
 2297SOL    HW1 6902   1.939   4.279   2.442
 2297SOL    HW2 6903   1.983   4.421   2.509
 2298SOL     OW 6904   1.975   4.461   3.459
 2298SOL    HW1 6905   2.063   4.448   3.504
 2298SOL    HW2 6906   1.962   4.558   3.437
 2299SOL     OW 6907   2.671   3.728   2.364
 2299SOL    HW1 6908   2.711   3.819   2.355
 2299SOL    HW2 6909   2.571   3.736   2.370
 2300SOL     OW 6910   2.179   3.975   3.663
 2300SOL    HW1 6911   2.250   4.046   3.669
 2300SOL    HW2 6912   2.091   4.014   3.691
 2301SOL     OW 6913   3.143   4.069   2.806
 2301SOL    HW1 6914   3.057   4.019   2.793
 2301SOL    HW2 6915   3.205   4.015   2.862
 2302SOL     OW 6916   2.669   4.329   3.327
 2302SOL    HW1 6917   2.622   4.326   3.416
 2302SOL    HW2 6918   2.618   4.274   3.261
 2303SOL     OW 6919   3.256   4.193   3.536
 2303SOL    HW1 6920   3.236   4.236   3.624
 2303SOL    HW2 6921   3.334   4.131   3.545
 2304SOL     OW 6922   2.853   4.134   3.104
 2304SOL    HW1 6923   2.776   4.168   3.158
 2304SOL    HW2 6924   2.819   4.083   3.025
 2305SOL     OW 6925   2.903   4.425   2.291
 2305SOL    HW1 6926   2.929   4.421   2.387
 2305SOL    HW2 6927   2.818   4.374   2.277
 2306SOL     OW 6928   2.727   4.072   2.057
 2306SOL    HW1 6929   2.786   4.135   2.008
 2306SOL    HW2 6930   2.746   3.978   2.028
 2307SOL     OW 6931   3.581   4.309   3.693
 2307SOL    HW1 6932   3.555   4.398   3.657
 2307SOL    HW2 6933   3.579   4.241   3.620
 2308SOL     OW 6934   2.412   3.920   2.747
 2308SOL    HW1 6935   2.407   3.915   2.847
 2308SOL    HW2 6936   2.414   4.016   2.718
 2309SOL     OW 6937   3.320   4.459   2.590
 2309SOL    HW1 6938   3.315   4.394   2.665
 2309SOL    HW2 6939   3.400   4.518   2.603
 2310SOL     OW 6940   2.064   4.009   3.360
 2310SOL    HW1 6941   1.984   4.069   3.347
 2310SOL    HW2 6942   2.054   3.960   3.446
 2311SOL     OW 6943   3.262   3.831   2.288
 2311SOL    HW1 6944   3.238   3.794   2.198
 2311SOL    HW2 6945   3.361   3.847   2.292
 2312SOL     OW 6946   3.409   3.946   3.591
 2312SOL    HW1 6947   3.404   3.983   3.683
 2312SOL    HW2 6948   3.337   3.877   3.579
 2313SOL     OW 6949   2.476   3.846   1.979
 2313SOL    HW1 6950   2.574   3.824   1.986
 2313SOL    HW2 6951   2.445   3.829   1.886
 2314SOL     OW 6952   2.643   3.988   3.611
 2314SOL    HW1 6953   2.710   3.927   3.654
 2314SOL    HW2 6954   2.570   4.007   3.676
 2315SOL     OW 6955   3.213   4.314   3.295
 2315SOL    HW1 6956   3.241   4.271   3.380
 2315SOL    HW2 6957   3.238   4.410   3.296
 2316SOL     OW 6958   2.784   4.227   2.761
 2316SOL    HW1 6959   2.759   4.218   2.665
 2316SOL    HW2 6960   2.832   4.145   2.792
 2317SOL     OW 6961   2.401   3.788   2.374
 2317SOL    HW1 6962   2.320   3.789   2.432
 2317SOL    HW2 6963   2.404   3.871   2.319
 2318SOL     OW 6964   2.159   3.759   2.033
 2318SOL    HW1 6965   2.208   3.843   2.012
 2318SOL    HW2 6966   2.221   3.694   2.078
 2319SOL     OW 6967   2.797   3.960   2.342
 2319SOL    HW1 6968   2.749   4.001   2.264
 2319SOL    HW2 6969   2.896   3.958   2.323
 2320SOL     OW 6970   2.938   4.407   3.326
 2320SOL    HW1 6971   2.858   4.346   3.329
 2320SOL    HW2 6972   3.019   4.354   3.302
 2321SOL     OW 6973   2.894   4.273   1.878
 2321SOL    HW1 6974   2.853   4.355   1.839
 2321SOL    HW2 6975   2.958   4.299   1.951
 2322SOL     OW 6976   1.940   4.280   3.248
 2322SOL    HW1 6977   2.032   4.279   3.207
 2322SOL    HW2 6978   1.934   4.354   3.315
 2323SOL     OW 6979   2.423   3.946   3.009
 2323SOL    HW1 6980   2.461   3.862   3.046
 2323SOL    HW2 6981   2.335   3.965   3.053
 2324SOL     OW 6982   2.728   4.178   2.504
 2324SOL    HW1 6983   2.696   4.250   2.442
 2324SOL    HW2 6984   2.752   4.097   2.451
 2325SOL     OW 6985   2.879   3.763   2.615
 2325SOL    HW1 6986   2.807   3.768   2.546
 2325SOL    HW2 6987   2.855   3.694   2.684
 2326SOL     OW 6988   3.328   4.314   2.854
 2326SOL    HW1 6989   3.298   4.219   2.861
 2326SOL    HW2 6990   3.401   4.330   2.920
 2327SOL     OW 6991   3.252   4.299   1.940
 2327SOL    HW1 6992   3.198   4.278   2.021
 2327SOL    HW2 6993   3.343   4.258   1.949
 2328SOL     OW 6994   2.389   3.980   2.190
 2328SOL    HW1 6995   2.416   3.921   2.115
 2328SOL    HW2 6996   2.389   4.075   2.159
 2329SOL     OW 6997   2.777   3.813   3.264
 2329SOL    HW1 6998   2.802   3.793   3.169
 2329SOL    HW2 6999   2.849   3.869   3.306
 2330SOL     OW 7000   3.136   4.110   3.124
 2330SOL    HW1 7001   3.157   4.184   3.188
 2330SOL    HW2 7002   3.047   4.127   3.081
 2331SOL     OW 7003   2.428   4.261   2.727
 2331SOL    HW1 7004   2.440   4.327   2.653
 2331SOL    HW2 7005   2.474   4.295   2.810
 2332SOL     OW 7006   3.444   4.363   2.334
 2332SOL    HW1 7007   3.413   4.424   2.407
 2332SOL    HW2 7008   3.494   4.415   2.265
 2333SOL     OW 7009   2.875   3.829   3.632
 2333SOL    HW1 7010   2.881   3.914   3.580
 2333SOL    HW2 7011   2.907   3.753   3.575
 2334SOL     OW 7012   2.366   3.774   3.602
 2334SOL    HW1 7013   2.324   3.717   3.532
 2334SOL    HW2 7014   2.300   3.843   3.634
 2335SOL     OW 7015   3.071   4.249   2.137
 2335SOL    HW1 7016   3.084   4.165   2.191
 2335SOL    HW2 7017   3.042   4.323   2.197
 2336SOL     OW 7018   2.169   3.937   3.093
 2336SOL    HW1 7019   2.146   3.974   3.183
 2336SOL    HW2 7020   2.139   3.842   3.087
 2337SOL     OW 7021   2.594   4.358   2.926
 2337SOL    HW1 7022   2.653   4.332   2.850
 2337SOL    HW2 7023   2.566   4.454   2.915
 2338SOL     OW 7024   2.169   3.787   2.480
 2338SOL    HW1 7025   2.158   3.881   2.513
 2338SOL    HW2 7026   2.164   3.724   2.557
 2339SOL     OW 7027   3.484   4.091   2.236
 2339SOL    HW1 7028   3.486   4.015   2.300
 2339SOL    HW2 7029   3.436   4.168   2.276
 2340SOL     OW 7030   3.402   3.998   1.987
 2340SOL    HW1 7031   3.341   3.923   2.010
 2340SOL    HW2 7032   3.424   4.050   2.070
 2341SOL     OW 7033   2.181   4.534   2.811
 2341SOL    HW1 7034   2.274   4.570   2.816
 2341SOL    HW2 7035   2.175   4.449   2.863
 2342SOL     OW 7036   2.201   4.233   2.868
 2342SOL    HW1 7037   2.149   4.150   2.851
 2342SOL    HW2 7038   2.278   4.238   2.804
 2343SOL     OW 7039   3.000   4.104   3.540
 2343SOL    HW1 7040   2.955   4.167   3.604
 2343SOL    HW2 7041   3.093   4.135   3.523
 2344SOL     OW 7042   3.022   3.931   3.339
 2344SOL    HW1 7043   3.022   3.995   3.416
 2344SOL    HW2 7044   3.050   3.979   3.256
 2345SOL     OW 7045   1.902   4.268   2.976
 2345SOL    HW1 7046   1.987   4.235   2.935
 2345SOL    HW2 7047   1.915   4.283   3.074
 2346SOL     OW 7048   2.051   4.244   3.584
 2346SOL    HW1 7049   2.110   4.204   3.514
 2346SOL    HW2 7050   1.993   4.315   3.543
 2347SOL     OW 7051   2.677   4.296   2.187
 2347SOL    HW1 7052   2.684   4.207   2.141
 2347SOL    HW2 7053   2.583   4.330   2.179
 2348SOL     OW 7054   3.519   4.328   3.068
 2348SOL    HW1 7055   3.481   4.259   3.130
 2348SOL    HW2 7056   3.601   4.292   3.024
 2349SOL     OW 7057   2.533   4.188   3.131
 2349SOL    HW1 7058   2.499   4.099   3.101
 2349SOL    HW2 7059   2.559   4.242   3.051
 2350SOL     OW 7060   2.335   4.224   2.053
 2350SOL    HW1 7061   2.396   4.304   2.057
 2350SOL    HW2 7062   2.240   4.255   2.060
 2351SOL     OW 7063   3.588   3.859   2.385
 2351SOL    HW1 7064   3.661   3.842   2.318
 2351SOL    HW2 7065   3.557   3.772   2.423
 2352SOL     OW 7066   3.142   4.651   2.534
 2352SOL    HW1 7067   3.202   4.570   2.536
 2352SOL    HW2 7068   3.182   4.720   2.474
 2353SOL     OW 7069   3.703   3.899   2.825
 2353SOL    HW1 7070   3.742   3.814   2.789
 2353SOL    HW2 7071   3.605   3.901   2.806
 2354SOL     OW 7072   2.125   4.050   2.582
 2354SOL    HW1 7073   2.046   4.101   2.548
 2354SOL    HW2 7074   2.116   4.035   2.680
 2355SOL     OW 7075   2.876   3.960   2.833
 2355SOL    HW1 7076   2.868   3.924   2.740
 2355SOL    HW2 7077   2.874   3.884   2.898
 2356SOL     OW 7078   3.571   4.109   3.243
 2356SOL    HW1 7079   3.644   4.178   3.247
 2356SOL    HW2 7080   3.599   4.034   3.184
 2357SOL     OW 7081   2.534   3.927   3.351
 2357SOL    HW1 7082   2.624   3.911   3.311
 2357SOL    HW2 7083   2.542   3.932   3.450
 2358SOL     OW 7084   1.937   4.069   1.895
 2358SOL    HW1 7085   1.845   4.041   1.866
 2358SOL    HW2 7086   1.968   4.146   1.839
 2359SOL     OW 7087   1.934   3.890   2.180
 2359SOL    HW1 7088   1.917   3.973   2.126
 2359SOL    HW2 7089   2.024   3.853   2.158
 2360SOL     OW 7090   2.578   4.289   3.570
 2360SOL    HW1 7091   2.597   4.354   3.644
 2360SOL    HW2 7092   2.638   4.209   3.579
 2361SOL     OW 7093   3.087   4.049   2.311
 2361SOL    HW1 7094   3.152   3.975   2.300
 2361SOL    HW2 7095   3.107   4.099   2.395
 2362SOL     OW 7096   3.639   4.066   3.504
 2362SOL    HW1 7097   3.622   4.097   3.410
 2362SOL    HW2 7098   3.555   4.029   3.542
 2363SOL     OW 7099   2.945   4.708   1.949
 2363SOL    HW1 7100   2.922   4.761   1.867
 2363SOL    HW2 7101   3.026   4.652   1.930
 2364SOL     OW 7102   3.686   3.916   3.089
 2364SOL    HW1 7103   3.682   3.826   3.133
 2364SOL    HW2 7104   3.689   3.905   2.990
 2365SOL     OW 7105   2.290   4.148   2.382
 2365SOL    HW1 7106   2.320   4.076   2.320
 2365SOL    HW2 7107   2.251   4.108   2.465
 2366SOL     OW 7108   2.179   4.271   3.142
 2366SOL    HW1 7109   2.217   4.212   3.214
 2366SOL    HW2 7110   2.219   4.245   3.054
 2367SOL     OW 7111   3.286   3.938   2.974
 2367SOL    HW1 7112   3.338   3.873   3.029
 2367SOL    HW2 7113   3.237   4.001   3.035
 2368SOL     OW 7114   2.863   3.758   3.016
 2368SOL    HW1 7115   2.800   3.686   2.985
 2368SOL    HW2 7116   2.956   3.722   3.016
 2369SOL     OW 7117   3.214   3.776   2.030
 2369SOL    HW1 7118   3.249   3.735   1.946
 2369SOL    HW2 7119   3.124   3.738   2.050
 2370SOL     OW 7120   3.162   4.177   2.553
 2370SOL    HW1 7121   3.103   4.257   2.557
 2370SOL    HW2 7122   3.177   4.142   2.646
 2371SOL     OW 7123   3.455   3.945   2.744
 2371SOL    HW1 7124   3.371   3.944   2.798
 2371SOL    HW2 7125   3.457   4.028   2.688
 2372SOL     OW 7126   2.997   4.427   4.441
 2372SOL    HW1 7127   3.054   4.505   4.416
 2372SOL    HW2 7128   2.937   4.453   4.517
 2373SOL     OW 7129   3.617   4.331   3.955
 2373SOL    HW1 7130   3.605   4.318   3.856
 2373SOL    HW2 7131   3.587   4.250   4.004
 2374SOL     OW 7132   1.984   4.367   4.287
 2374SOL    HW1 7133   1.939   4.279   4.304
 2374SOL    HW2 7134   1.983   4.421   4.371
 2375SOL     OW 7135   2.671   3.728   4.226
 2375SOL    HW1 7136   2.711   3.819   4.217
 2375SOL    HW2 7137   2.571   3.736   4.232
 2376SOL     OW 7138   3.143   4.069   4.668
 2376SOL    HW1 7139   3.057   4.019   4.655
 2376SOL    HW2 7140   3.205   4.015   4.724
 2377SOL     OW 7141   2.903   4.425   4.153
 2377SOL    HW1 7142   2.929   4.421   4.249
 2377SOL    HW2 7143   2.818   4.374   4.139
 2378SOL     OW 7144   2.727   4.072   3.919
 2378SOL    HW1 7145   2.786   4.135   3.870
 2378SOL    HW2 7146   2.746   3.978   3.890
 2379SOL     OW 7147   3.262   3.831   4.150
 2379SOL    HW1 7148   3.238   3.794   4.060
 2379SOL    HW2 7149   3.361   3.847   4.154
 2380SOL     OW 7150   2.476   3.846   3.841
 2380SOL    HW1 7151   2.574   3.824   3.848
 2380SOL    HW2 7152   2.445   3.829   3.748
 2381SOL     OW 7153   2.401   3.788   4.236
 2381SOL    HW1 7154   2.320   3.789   4.294
 2381SOL    HW2 7155   2.404   3.871   4.181
 2382SOL     OW 7156   2.159   3.759   3.895
 2382SOL    HW1 7157   2.208   3.843   3.874
 2382SOL    HW2 7158   2.221   3.694   3.940
 2383SOL     OW 7159   2.797   3.960   4.204
 2383SOL    HW1 7160   2.749   4.001   4.126
 2383SOL    HW2 7161   2.896   3.958   4.185
 2384SOL     OW 7162   2.894   4.273   3.740
 2384SOL    HW1 7163   2.853   4.355   3.701
 2384SOL    HW2 7164   2.958   4.299   3.813
 2385SOL     OW 7165   2.728   4.178   4.366
 2385SOL    HW1 7166   2.696   4.250   4.304
 2385SOL    HW2 7167   2.752   4.097   4.313
 2386SOL     OW 7168   3.252   4.299   3.802
 2386SOL    HW1 7169   3.198   4.278   3.883
 2386SOL    HW2 7170   3.343   4.258   3.811
 2387SOL     OW 7171   2.389   3.980   4.052
 2387SOL    HW1 7172   2.416   3.921   3.977
 2387SOL    HW2 7173   2.389   4.075   4.021
 2388SOL     OW 7174   3.444   4.363   4.196
 2388SOL    HW1 7175   3.413   4.424   4.269
 2388SOL    HW2 7176   3.494   4.415   4.127
 2389SOL     OW 7177   3.071   4.249   3.999
 2389SOL    HW1 7178   3.084   4.165   4.053
 2389SOL    HW2 7179   3.042   4.323   4.059
 2390SOL     OW 7180   2.169   3.787   4.342
 2390SOL    HW1 7181   2.158   3.881   4.375
 2390SOL    HW2 7182   2.164   3.724   4.419
 2391SOL     OW 7183   3.484   4.091   4.098
 2391SOL    HW1 7184   3.486   4.015   4.162
 2391SOL    HW2 7185   3.436   4.168   4.138
 2392SOL     OW 7186   3.402   3.998   3.849
 2392SOL    HW1 7187   3.341   3.923   3.872
 2392SOL    HW2 7188   3.424   4.050   3.932
 2393SOL     OW 7189   2.677   4.296   4.049
 2393SOL    HW1 7190   2.684   4.207   4.003
 2393SOL    HW2 7191   2.583   4.330   4.041
 2394SOL     OW 7192   2.335   4.224   3.915
 2394SOL    HW1 7193   2.396   4.304   3.919
 2394SOL    HW2 7194   2.240   4.255   3.922
 2395SOL     OW 7195   3.588   3.859   4.247
 2395SOL    HW1 7196   3.661   3.842   4.180
 2395SOL    HW2 7197   3.557   3.772   4.285
 2396SOL     OW 7198   3.142   4.651   4.396
 2396SOL    HW1 7199   3.202   4.570   4.398
 2396SOL    HW2 7200   3.182   4.720   4.336
 2397SOL     OW 7201   3.703   3.899   4.687
 2397SOL    HW1 7202   3.742   3.814   4.651
 2397SOL    HW2 7203   3.605   3.901   4.668
 2398SOL     OW 7204   1.937   4.069   3.757
 2398SOL    HW1 7205   1.845   4.041   3.728
 2398SOL    HW2 7206   1.968   4.146   3.701
 2399SOL     OW 7207   1.934   3.890   4.042
 2399SOL    HW1 7208   1.917   3.973   3.988
 2399SOL    HW2 7209   2.024   3.853   4.020
 2400SOL     OW 7210   3.087   4.049   4.173
 2400SOL    HW1 7211   3.152   3.975   4.162
 2400SOL    HW2 7212   3.107   4.099   4.257
 2401SOL     OW 7213   2.945   4.708   3.811
 2401SOL    HW1 7214   2.922   4.761   3.729
 2401SOL    HW2 7215   3.026   4.652   3.792
 2402SOL     OW 7216   2.290   4.148   4.244
 2402SOL    HW1 7217   2.320   4.076   4.182
 2402SOL    HW2 7218   2.251   4.108   4.327
 2403SOL     OW 7219   3.214   3.776   3.892
 2403SOL    HW1 7220   3.249   3.735   3.808
 2403SOL    HW2 7221   3.124   3.738   3.912
 2404SOL     OW 7222   3.162   4.177   4.415
 2404SOL    HW1 7223   3.103   4.257   4.419
 2404SOL    HW2 7224   3.177   4.142   4.508
 2405SOL     OW 7225   3.954   0.628   0.113
 2405SOL    HW1 7226   3.861   0.626   0.150
 2405SOL    HW2 7227   3.955   0.589   0.021
 2406SOL     OW 7228   3.949   0.275   0.996
 2406SOL    HW1 7229   3.984   0.258   1.088
 2406SOL    HW2 7230   3.861   0.230   0.984
 2407SOL     OW 7231   3.743   0.368   0.647
 2407SOL    HW1 7232   3.661   0.411   0.686
 2407SOL    HW2 7233   3.715   0.295   0.584
 2408SOL     OW 7234   4.293   1.275   1.165
 2408SOL    HW1 7235   4.200   1.268   1.128
 2408SOL    HW2 7236   4.304   1.364   1.209
 2409SOL     OW 7237   4.574   0.798   1.823
 2409SOL    HW1 7238   4.570   0.874   1.888
 2409SOL    HW2 7239   4.596   0.834   1.732
 2410SOL     OW 7240   4.059   1.435   1.061
 2410SOL    HW1 7241   3.981   1.404   1.008
 2410SOL    HW2 7242   4.117   1.493   1.004
 2411SOL     OW 7243   4.162   0.392   1.499
 2411SOL    HW1 7244   4.244   0.336   1.508
 2411SOL    HW2 7245   4.081   0.334   1.503
 2412SOL     OW 7246   3.955   1.713   0.483
 2412SOL    HW1 7247   3.989   1.790   0.537
 2412SOL    HW2 7248   3.999   1.713   0.393
 2413SOL     OW 7249   3.954   1.434   0.538
 2413SOL    HW1 7250   3.928   1.530   0.538
 2413SOL    HW2 7251   3.883   1.380   0.583
 2414SOL     OW 7252   3.964   1.091   0.886
 2414SOL    HW1 7253   3.978   1.007   0.938
 2414SOL    HW2 7254   3.909   1.155   0.941
 2415SOL     OW 7255   4.344   1.786   1.439
 2415SOL    HW1 7256   4.252   1.769   1.474
 2415SOL    HW2 7257   4.372   1.878   1.465
 2416SOL     OW 7258   4.330   0.964   0.123
 2416SOL    HW1 7259   4.337   1.048   0.069
 2416SOL    HW2 7260   4.376   0.977   0.211
 2417SOL     OW 7261   3.846   0.643   0.563
 2417SOL    HW1 7262   3.801   0.555   0.580
 2417SOL    HW2 7263   3.845   0.697   0.647
 2418SOL     OW 7264   3.751   1.596   0.117
 2418SOL    HW1 7265   3.732   1.500   0.138
 2418SOL    HW2 7266   3.718   1.654   0.192
 2419SOL     OW 7267   3.837   0.737   1.597
 2419SOL    HW1 7268   3.925   0.724   1.642
 2419SOL    HW2 7269   3.824   0.834   1.575
 2420SOL     OW 7270   4.337   1.365   0.726
 2420SOL    HW1 7271   4.288   1.278   0.735
 2420SOL    HW2 7272   4.314   1.408   0.639
 2421SOL     OW 7273   3.921   0.976   1.264
 2421SOL    HW1 7274   4.010   0.931   1.250
 2421SOL    HW2 7275   3.848   0.911   1.245
 2422SOL     OW 7276   4.041   0.251   1.801
 2422SOL    HW1 7277   4.112   0.322   1.807
 2422SOL    HW2 7278   3.953   0.290   1.829
 2423SOL     OW 7279   4.322   0.729   0.270
 2423SOL    HW1 7280   4.346   0.798   0.202
 2423SOL    HW2 7281   4.244   0.762   0.324
 2424SOL     OW 7282   3.800   0.811   0.789
 2424SOL    HW1 7283   3.899   0.799   0.798
 2424SOL    HW2 7284   3.776   0.906   0.810
 2425SOL     OW 7285   3.854   1.821   1.571
 2425SOL    HW1 7286   3.844   1.806   1.670
 2425SOL    HW2 7287   3.768   1.857   1.535
 2426SOL     OW 7288   4.274   0.196   0.885
 2426SOL    HW1 7289   4.269   0.191   0.985
 2426SOL    HW2 7290   4.276   0.292   0.856
 2427SOL     OW 7291   4.075   1.801   0.853
 2427SOL    HW1 7292   4.125   1.715   0.859
 2427SOL    HW2 7293   4.140   1.878   0.850
 2428SOL     OW 7294   4.045   0.943   0.242
 2428SOL    HW1 7295   4.127   0.982   0.200
 2428SOL    HW2 7296   4.018   0.861   0.193
 2429SOL     OW 7297   4.185   1.266   1.727
 2429SOL    HW1 7298   4.135   1.267   1.641
 2429SOL    HW2 7299   4.122   1.248   1.803
 2430SOL     OW 7300   3.926   0.285   1.498
 2430SOL    HW1 7301   3.846   0.345   1.485
 2430SOL    HW2 7302   3.916   0.236   1.584
 2431SOL     OW 7303   4.188   1.743   0.323
 2431SOL    HW1 7304   4.221   1.782   0.409
 2431SOL    HW2 7305   4.264   1.736   0.258
 2432SOL     OW 7306   3.973   1.785   1.241
 2432SOL    HW1 7307   4.030   1.720   1.291
 2432SOL    HW2 7308   3.957   1.752   1.148
 2433SOL     OW 7309   4.106   0.700   0.480
 2433SOL    HW1 7310   4.151   0.610   0.477
 2433SOL    HW2 7311   4.012   0.689   0.513
 2434SOL     OW 7312   4.527   1.402   0.924
 2434SOL    HW1 7313   4.617   1.416   0.882
 2434SOL    HW2 7314   4.456   1.404   0.853
 2435SOL     OW 7315   4.263   0.064   0.512
 2435SOL    HW1 7316   4.182   0.065   0.570
 2435SOL    HW2 7317   4.266   0.147   0.457
 2436SOL     OW 7318   4.021   0.035   0.171
 2436SOL    HW1 7319   4.070   0.119   0.150
 2436SOL    HW2 7320   4.083  -0.030   0.216
 2437SOL     OW 7321   4.659   0.236   0.480
 2437SOL    HW1 7322   4.611   0.277   0.402
 2437SOL    HW2 7323   4.758   0.234   0.461
 2438SOL     OW 7324   4.183   1.152   0.741
 2438SOL    HW1 7325   4.112   1.125   0.806
 2438SOL    HW2 7326   4.157   1.124   0.648
 2439SOL     OW 7327   3.802   0.556   1.386
 2439SOL    HW1 7328   3.894   0.555   1.345
 2439SOL    HW2 7329   3.796   0.630   1.453
 2440SOL     OW 7330   4.285   0.222   1.147
 2440SOL    HW1 7331   4.323   0.138   1.184
 2440SOL    HW2 7332   4.197   0.241   1.191
 2441SOL     OW 7333   4.251   0.256   0.328
 2441SOL    HW1 7334   4.278   0.197   0.253
 2441SOL    HW2 7335   4.251   0.351   0.297
 2442SOL     OW 7336   4.134   0.813   1.251
 2442SOL    HW1 7337   4.220   0.825   1.301
 2442SOL    HW2 7338   4.092   0.726   1.278
 2443SOL     OW 7339   3.788   1.564   1.331
 2443SOL    HW1 7340   3.742   1.646   1.297
 2443SOL    HW2 7341   3.886   1.583   1.340
 2444SOL     OW 7342   4.091   1.100   0.501
 2444SOL    HW1 7343   4.084   1.183   0.445
 2444SOL    HW2 7344   4.095   1.020   0.441
 2445SOL     OW 7345   4.290   0.537   0.865
 2445SOL    HW1 7346   4.302   0.603   0.791
 2445SOL    HW2 7347   4.336   0.571   0.948
 2446SOL     OW 7348   4.078   1.510   1.329
 2446SOL    HW1 7349   4.057   1.466   1.242
 2446SOL    HW2 7350   4.175   1.536   1.332
 2447SOL     OW 7351   4.126   0.751   1.598
 2447SOL    HW1 7352   4.194   0.806   1.551
 2447SOL    HW2 7353   4.166   0.663   1.625
 2448SOL     OW 7354   4.228   0.050   1.740
 2448SOL    HW1 7355   4.186  -0.007   1.670
 2448SOL    HW2 7356   4.162   0.119   1.772
 2449SOL     OW 7357   4.297   0.870   1.029
 2449SOL    HW1 7358   4.341   0.959   1.020
 2449SOL    HW2 7359   4.234   0.870   1.106
 2450SOL     OW 7360   4.031   0.213   1.231
 2450SOL    HW1 7361   4.008   0.250   1.321
 2450SOL    HW2 7362   4.001   0.118   1.225
 2451SOL     OW 7363   3.761   1.310   1.282
 2451SOL    HW1 7364   3.814   1.261   1.350
 2451SOL    HW2 7365   3.783   1.408   1.287
 2452SOL     OW 7366   4.031   0.063   0.618
 2452SOL    HW1 7367   4.020   0.157   0.651
 2452SOL    HW2 7368   4.026   0.000   0.695
 2453SOL     OW 7369   4.074   0.898   1.804
 2453SOL    HW1 7370   4.150   0.942   1.852
 2453SOL    HW2 7371   4.109   0.851   1.722
 2454SOL     OW 7372   4.043   0.810   0.949
 2454SOL    HW1 7373   4.136   0.846   0.954
 2454SOL    HW2 7374   4.037   0.725   1.001
 2455SOL     OW 7375   4.063   0.509   1.006
 2455SOL    HW1 7376   4.011   0.426   0.989
 2455SOL    HW2 7377   4.140   0.514   0.942
 2456SOL     OW 7378   3.732   1.326   0.200
 2456SOL    HW1 7379   3.639   1.347   0.169
 2456SOL    HW2 7380   3.742   1.227   0.213
 2457SOL     OW 7381   3.812   1.801   0.927
 2457SOL    HW1 7382   3.770   1.715   0.900
 2457SOL    HW2 7383   3.906   1.804   0.893
 2458SOL     OW 7384   4.228   1.568   0.910
 2458SOL    HW1 7385   4.294   1.642   0.919
 2458SOL    HW2 7386   4.272   1.489   0.868
 2459SOL     OW 7387   3.764   0.544   1.114
 2459SOL    HW1 7388   3.849   0.511   1.073
 2459SOL    HW2 7389   3.777   0.559   1.212
 2460SOL     OW 7390   3.913   0.520   1.722
 2460SOL    HW1 7391   3.972   0.480   1.652
 2460SOL    HW2 7392   3.855   0.591   1.681
 2461SOL     OW 7393   4.539   0.572   0.325
 2461SOL    HW1 7394   4.546   0.483   0.279
 2461SOL    HW2 7395   4.445   0.606   0.317
 2462SOL     OW 7396   3.976   1.564   1.744
 2462SOL    HW1 7397   3.946   1.621   1.820
 2462SOL    HW2 7398   3.969   1.467   1.770
 2463SOL     OW 7399   4.197   0.500   0.191
 2463SOL    HW1 7400   4.258   0.580   0.195
 2463SOL    HW2 7401   4.102   0.531   0.198
 2464SOL     OW 7402   3.883   1.137   1.466
 2464SOL    HW1 7403   3.905   1.076   1.542
 2464SOL    HW2 7404   3.893   1.088   1.380
 2465SOL     OW 7405   3.807   1.258   1.022
 2465SOL    HW1 7406   3.802   1.257   1.122
 2465SOL    HW2 7407   3.724   1.217   0.984
 2466SOL     OW 7408   4.412   1.662   1.716
 2466SOL    HW1 7409   4.356   1.743   1.725
 2466SOL    HW2 7410   4.464   1.666   1.630
 2467SOL     OW 7411   3.854   1.794   1.851
 2467SOL    HW1 7412   3.813   1.720   1.904
 2467SOL    HW2 7413   3.918   1.845   1.909
 2468SOL     OW 7414   3.987   0.326   0.720
 2468SOL    HW1 7415   3.908   0.377   0.686
 2468SOL    HW2 7416   3.978   0.311   0.818
 2469SOL     OW 7417   4.096   1.288   1.490
 2469SOL    HW1 7418   4.083   1.381   1.456
 2469SOL    HW2 7419   4.012   1.236   1.477
 2470SOL     OW 7420   4.314   1.487   0.491
 2470SOL    HW1 7421   4.356   1.429   0.421
 2470SOL    HW2 7422   4.270   1.566   0.447
 2471SOL     OW 7423   3.979   1.348   0.290
 2471SOL    HW1 7424   3.883   1.349   0.263
 2471SOL    HW2 7425   3.991   1.401   0.374
 2472SOL     OW 7426   3.829   1.013   1.726
 2472SOL    HW1 7427   3.752   0.980   1.780
 2472SOL    HW2 7428   3.914   0.983   1.768
 2473SOL     OW 7429   4.396   0.203   1.489
 2473SOL    HW1 7430   4.486   0.187   1.449
 2473SOL    HW2 7431   4.404   0.208   1.588
 2474SOL     OW 7432   3.799   0.345   0.033
 2474SOL    HW1 7433   3.707   0.317   0.004
 2474SOL    HW2 7434   3.830   0.422  -0.023
 2475SOL     OW 7435   4.337   0.842   1.431
 2475SOL    HW1 7436   4.393   0.923   1.414
 2475SOL    HW2 7437   4.396   0.762   1.434
 2476SOL     OW 7438   4.114   1.741   1.560
 2476SOL    HW1 7439   4.023   1.782   1.558
 2476SOL    HW2 7440   4.107   1.647   1.592
 2477SOL     OW 7441   4.318   0.745   0.652
 2477SOL    HW1 7442   4.368   0.830   0.633
 2477SOL    HW2 7443   4.230   0.747   0.604
 2478SOL     OW 7444   3.945   1.314   1.844
 2478SOL    HW1 7445   3.880   1.241   1.823
 2478SOL    HW2 7446   3.949   1.328   1.942
 2479SOL     OW 7447   3.803   1.240   0.653
 2479SOL    HW1 7448   3.802   1.193   0.741
 2479SOL    HW2 7449   3.885   1.212   0.602
 2480SOL     OW 7450   4.396   1.391   1.624
 2480SOL    HW1 7451   4.318   1.341   1.662
 2480SOL    HW2 7452   4.393   1.486   1.655
 2481SOL     OW 7453   4.152   0.424   0.520
 2481SOL    HW1 7454   4.182   0.352   0.458
 2481SOL    HW2 7455   4.113   0.384   0.603
 2482SOL     OW 7456   4.041   0.547   1.280
 2482SOL    HW1 7457   4.079   0.488   1.352
 2482SOL    HW2 7458   4.081   0.521   1.192
 2483SOL     OW 7459   3.763   1.077   0.300
 2483SOL    HW1 7460   3.862   1.066   0.291
 2483SOL    HW2 7461   3.723   0.991   0.332
 2484SOL     OW 7462   3.954   0.628   1.975
 2484SOL    HW1 7463   3.861   0.626   2.012
 2484SOL    HW2 7464   3.955   0.589   1.883
 2485SOL     OW 7465   3.949   0.275   2.858
 2485SOL    HW1 7466   3.984   0.258   2.950
 2485SOL    HW2 7467   3.861   0.230   2.846
 2486SOL     OW 7468   3.743   0.368   2.509
 2486SOL    HW1 7469   3.661   0.411   2.548
 2486SOL    HW2 7470   3.715   0.295   2.446
 2487SOL     OW 7471   4.293   1.275   3.027
 2487SOL    HW1 7472   4.200   1.268   2.990
 2487SOL    HW2 7473   4.304   1.364   3.071
 2488SOL     OW 7474   4.574   0.798   3.685
 2488SOL    HW1 7475   4.570   0.874   3.750
 2488SOL    HW2 7476   4.596   0.834   3.594
 2489SOL     OW 7477   4.059   1.435   2.923
 2489SOL    HW1 7478   3.981   1.404   2.870
 2489SOL    HW2 7479   4.117   1.493   2.866
 2490SOL     OW 7480   4.162   0.392   3.361
 2490SOL    HW1 7481   4.244   0.336   3.370
 2490SOL    HW2 7482   4.081   0.334   3.365
 2491SOL     OW 7483   3.955   1.713   2.345
 2491SOL    HW1 7484   3.989   1.790   2.399
 2491SOL    HW2 7485   3.999   1.713   2.255
 2492SOL     OW 7486   3.954   1.434   2.400
 2492SOL    HW1 7487   3.928   1.530   2.400
 2492SOL    HW2 7488   3.883   1.380   2.445
 2493SOL     OW 7489   3.964   1.091   2.748
 2493SOL    HW1 7490   3.978   1.007   2.800
 2493SOL    HW2 7491   3.909   1.155   2.803
 2494SOL     OW 7492   4.344   1.786   3.301
 2494SOL    HW1 7493   4.252   1.769   3.336
 2494SOL    HW2 7494   4.372   1.878   3.327
 2495SOL     OW 7495   4.330   0.964   1.985
 2495SOL    HW1 7496   4.337   1.048   1.931
 2495SOL    HW2 7497   4.376   0.977   2.073
 2496SOL     OW 7498   3.846   0.643   2.425
 2496SOL    HW1 7499   3.801   0.555   2.442
 2496SOL    HW2 7500   3.845   0.697   2.509
 2497SOL     OW 7501   3.751   1.596   1.979
 2497SOL    HW1 7502   3.732   1.500   2.000
 2497SOL    HW2 7503   3.718   1.654   2.054
 2498SOL     OW 7504   3.837   0.737   3.459
 2498SOL    HW1 7505   3.925   0.724   3.504
 2498SOL    HW2 7506   3.824   0.834   3.437
 2499SOL     OW 7507   4.337   1.365   2.588
 2499SOL    HW1 7508   4.288   1.278   2.597
 2499SOL    HW2 7509   4.314   1.408   2.501
 2500SOL     OW 7510   3.921   0.976   3.126
 2500SOL    HW1 7511   4.010   0.931   3.112
 2500SOL    HW2 7512   3.848   0.911   3.107
 2501SOL     OW 7513   4.041   0.251   3.663
 2501SOL    HW1 7514   4.112   0.322   3.669
 2501SOL    HW2 7515   3.953   0.290   3.691
 2502SOL     OW 7516   4.322   0.729   2.132
 2502SOL    HW1 7517   4.346   0.798   2.064
 2502SOL    HW2 7518   4.244   0.762   2.186
 2503SOL     OW 7519   3.800   0.811   2.651
 2503SOL    HW1 7520   3.899   0.799   2.660
 2503SOL    HW2 7521   3.776   0.906   2.672
 2504SOL     OW 7522   3.854   1.821   3.433
 2504SOL    HW1 7523   3.844   1.806   3.532
 2504SOL    HW2 7524   3.768   1.857   3.397
 2505SOL     OW 7525   4.274   0.196   2.747
 2505SOL    HW1 7526   4.269   0.191   2.847
 2505SOL    HW2 7527   4.276   0.292   2.718
 2506SOL     OW 7528   4.075   1.801   2.715
 2506SOL    HW1 7529   4.125   1.715   2.721
 2506SOL    HW2 7530   4.140   1.878   2.712
 2507SOL     OW 7531   4.045   0.943   2.104
 2507SOL    HW1 7532   4.127   0.982   2.062
 2507SOL    HW2 7533   4.018   0.861   2.055
 2508SOL     OW 7534   4.185   1.266   3.589
 2508SOL    HW1 7535   4.135   1.267   3.503
 2508SOL    HW2 7536   4.122   1.248   3.665
 2509SOL     OW 7537   3.926   0.285   3.360
 2509SOL    HW1 7538   3.846   0.345   3.347
 2509SOL    HW2 7539   3.916   0.236   3.446
 2510SOL     OW 7540   4.188   1.743   2.185
 2510SOL    HW1 7541   4.221   1.782   2.271
 2510SOL    HW2 7542   4.264   1.736   2.120
 2511SOL     OW 7543   3.973   1.785   3.103
 2511SOL    HW1 7544   4.030   1.720   3.153
 2511SOL    HW2 7545   3.957   1.752   3.010
 2512SOL     OW 7546   4.106   0.700   2.342
 2512SOL    HW1 7547   4.151   0.610   2.339
 2512SOL    HW2 7548   4.012   0.689   2.375
 2513SOL     OW 7549   4.338   0.122   1.979
 2513SOL    HW1 7550   4.436   0.100   1.986
 2513SOL    HW2 7551   4.307   0.105   1.886
 2514SOL     OW 7552   4.527   1.402   2.786
 2514SOL    HW1 7553   4.617   1.416   2.744
 2514SOL    HW2 7554   4.456   1.404   2.715
 2515SOL     OW 7555   4.263   0.064   2.374
 2515SOL    HW1 7556   4.182   0.065   2.432
 2515SOL    HW2 7557   4.266   0.147   2.319
 2516SOL     OW 7558   4.021   0.035   2.033
 2516SOL    HW1 7559   4.070   0.119   2.012
 2516SOL    HW2 7560   4.083  -0.030   2.078
 2517SOL     OW 7561   4.659   0.236   2.342
 2517SOL    HW1 7562   4.611   0.277   2.264
 2517SOL    HW2 7563   4.758   0.234   2.323
 2518SOL     OW 7564   4.183   1.152   2.603
 2518SOL    HW1 7565   4.112   1.125   2.668
 2518SOL    HW2 7566   4.157   1.124   2.510
 2519SOL     OW 7567   3.802   0.556   3.248
 2519SOL    HW1 7568   3.894   0.555   3.207
 2519SOL    HW2 7569   3.796   0.630   3.315
 2520SOL     OW 7570   4.285   0.222   3.009
 2520SOL    HW1 7571   4.323   0.138   3.046
 2520SOL    HW2 7572   4.197   0.241   3.053
 2521SOL     OW 7573   4.251   0.256   2.190
 2521SOL    HW1 7574   4.278   0.197   2.115
 2521SOL    HW2 7575   4.251   0.351   2.159
 2522SOL     OW 7576   4.134   0.813   3.113
 2522SOL    HW1 7577   4.220   0.825   3.163
 2522SOL    HW2 7578   4.092   0.726   3.140
 2523SOL     OW 7579   3.788   1.564   3.193
 2523SOL    HW1 7580   3.742   1.646   3.159
 2523SOL    HW2 7581   3.886   1.583   3.202
 2524SOL     OW 7582   4.091   1.100   2.363
 2524SOL    HW1 7583   4.084   1.183   2.307
 2524SOL    HW2 7584   4.095   1.020   2.303
 2525SOL     OW 7585   4.290   0.537   2.727
 2525SOL    HW1 7586   4.302   0.603   2.653
 2525SOL    HW2 7587   4.336   0.571   2.810
 2526SOL     OW 7588   4.078   1.510   3.191
 2526SOL    HW1 7589   4.057   1.466   3.104
 2526SOL    HW2 7590   4.175   1.536   3.194
 2527SOL     OW 7591   4.126   0.751   3.460
 2527SOL    HW1 7592   4.194   0.806   3.413
 2527SOL    HW2 7593   4.166   0.663   3.487
 2528SOL     OW 7594   4.228   0.050   3.602
 2528SOL    HW1 7595   4.186  -0.007   3.532
 2528SOL    HW2 7596   4.162   0.119   3.634
 2529SOL     OW 7597   4.297   0.870   2.891
 2529SOL    HW1 7598   4.341   0.959   2.882
 2529SOL    HW2 7599   4.234   0.870   2.968
 2530SOL     OW 7600   4.031   0.213   3.093
 2530SOL    HW1 7601   4.008   0.250   3.183
 2530SOL    HW2 7602   4.001   0.118   3.087
 2531SOL     OW 7603   3.761   1.310   3.144
 2531SOL    HW1 7604   3.814   1.261   3.212
 2531SOL    HW2 7605   3.783   1.408   3.149
 2532SOL     OW 7606   4.031   0.063   2.480
 2532SOL    HW1 7607   4.020   0.157   2.513
 2532SOL    HW2 7608   4.026   0.000   2.557
 2533SOL     OW 7609   4.074   0.898   3.666
 2533SOL    HW1 7610   4.150   0.942   3.714
 2533SOL    HW2 7611   4.109   0.851   3.584
 2534SOL     OW 7612   4.043   0.810   2.811
 2534SOL    HW1 7613   4.136   0.846   2.816
 2534SOL    HW2 7614   4.037   0.725   2.863
 2535SOL     OW 7615   4.063   0.509   2.868
 2535SOL    HW1 7616   4.011   0.426   2.851
 2535SOL    HW2 7617   4.140   0.514   2.804
 2536SOL     OW 7618   3.732   1.326   2.062
 2536SOL    HW1 7619   3.639   1.347   2.031
 2536SOL    HW2 7620   3.742   1.227   2.075
 2537SOL     OW 7621   3.812   1.801   2.789
 2537SOL    HW1 7622   3.770   1.715   2.762
 2537SOL    HW2 7623   3.906   1.804   2.755
 2538SOL     OW 7624   4.228   1.568   2.772
 2538SOL    HW1 7625   4.294   1.642   2.781
 2538SOL    HW2 7626   4.272   1.489   2.730
 2539SOL     OW 7627   3.764   0.544   2.976
 2539SOL    HW1 7628   3.849   0.511   2.935
 2539SOL    HW2 7629   3.777   0.559   3.074
 2540SOL     OW 7630   3.913   0.520   3.584
 2540SOL    HW1 7631   3.972   0.480   3.514
 2540SOL    HW2 7632   3.855   0.591   3.543
 2541SOL     OW 7633   4.539   0.572   2.187
 2541SOL    HW1 7634   4.546   0.483   2.141
 2541SOL    HW2 7635   4.445   0.606   2.179
 2542SOL     OW 7636   3.976   1.564   3.606
 2542SOL    HW1 7637   3.946   1.621   3.682
 2542SOL    HW2 7638   3.969   1.467   3.632
 2543SOL     OW 7639   4.197   0.500   2.053
 2543SOL    HW1 7640   4.258   0.580   2.057
 2543SOL    HW2 7641   4.102   0.531   2.060
 2544SOL     OW 7642   3.883   1.137   3.328
 2544SOL    HW1 7643   3.905   1.076   3.404
 2544SOL    HW2 7644   3.893   1.088   3.242
 2545SOL     OW 7645   3.807   1.258   2.884
 2545SOL    HW1 7646   3.802   1.257   2.984
 2545SOL    HW2 7647   3.724   1.217   2.846
 2546SOL     OW 7648   4.412   1.662   3.578
 2546SOL    HW1 7649   4.356   1.743   3.587
 2546SOL    HW2 7650   4.464   1.666   3.492
 2547SOL     OW 7651   3.854   1.794   3.713
 2547SOL    HW1 7652   3.813   1.720   3.766
 2547SOL    HW2 7653   3.918   1.845   3.771
 2548SOL     OW 7654   3.987   0.326   2.582
 2548SOL    HW1 7655   3.908   0.377   2.548
 2548SOL    HW2 7656   3.978   0.311   2.680
 2549SOL     OW 7657   4.096   1.288   3.352
 2549SOL    HW1 7658   4.083   1.381   3.318
 2549SOL    HW2 7659   4.012   1.236   3.339
 2550SOL     OW 7660   4.314   1.487   2.353
 2550SOL    HW1 7661   4.356   1.429   2.283
 2550SOL    HW2 7662   4.270   1.566   2.309
 2551SOL     OW 7663   3.979   1.348   2.152
 2551SOL    HW1 7664   3.883   1.349   2.125
 2551SOL    HW2 7665   3.991   1.401   2.236
 2552SOL     OW 7666   3.829   1.013   3.588
 2552SOL    HW1 7667   3.752   0.980   3.642
 2552SOL    HW2 7668   3.914   0.983   3.630
 2553SOL     OW 7669   4.396   0.203   3.351
 2553SOL    HW1 7670   4.486   0.187   3.311
 2553SOL    HW2 7671   4.404   0.208   3.450
 2554SOL     OW 7672   3.799   0.345   1.895
 2554SOL    HW1 7673   3.707   0.317   1.866
 2554SOL    HW2 7674   3.830   0.422   1.839
 2555SOL     OW 7675   3.796   0.166   2.180
 2555SOL    HW1 7676   3.779   0.249   2.126
 2555SOL    HW2 7677   3.886   0.129   2.158
 2556SOL     OW 7678   4.337   0.842   3.293
 2556SOL    HW1 7679   4.393   0.923   3.276
 2556SOL    HW2 7680   4.396   0.762   3.296
 2557SOL     OW 7681   4.114   1.741   3.422
 2557SOL    HW1 7682   4.023   1.782   3.420
 2557SOL    HW2 7683   4.107   1.647   3.454
 2558SOL     OW 7684   4.318   0.745   2.514
 2558SOL    HW1 7685   4.368   0.830   2.495
 2558SOL    HW2 7686   4.230   0.747   2.466
 2559SOL     OW 7687   3.945   1.314   3.706
 2559SOL    HW1 7688   3.880   1.241   3.685
 2559SOL    HW2 7689   3.949   1.328   3.804
 2560SOL     OW 7690   3.803   1.240   2.515
 2560SOL    HW1 7691   3.802   1.193   2.603
 2560SOL    HW2 7692   3.885   1.212   2.464
 2561SOL     OW 7693   4.396   1.391   3.486
 2561SOL    HW1 7694   4.318   1.341   3.524
 2561SOL    HW2 7695   4.393   1.486   3.517
 2562SOL     OW 7696   4.152   0.424   2.382
 2562SOL    HW1 7697   4.182   0.352   2.320
 2562SOL    HW2 7698   4.113   0.384   2.465
 2563SOL     OW 7699   4.041   0.547   3.142
 2563SOL    HW1 7700   4.079   0.488   3.214
 2563SOL    HW2 7701   4.081   0.521   3.054
 2564SOL     OW 7702   3.763   1.077   2.162
 2564SOL    HW1 7703   3.862   1.066   2.153
 2564SOL    HW2 7704   3.723   0.991   2.194
 2565SOL     OW 7705   3.954   0.628   3.837
 2565SOL    HW1 7706   3.861   0.626   3.874
 2565SOL    HW2 7707   3.955   0.589   3.745
 2566SOL     OW 7708   3.955   1.713   4.207
 2566SOL    HW1 7709   3.989   1.790   4.261
 2566SOL    HW2 7710   3.999   1.713   4.117
 2567SOL     OW 7711   3.954   1.434   4.262
 2567SOL    HW1 7712   3.928   1.530   4.262
 2567SOL    HW2 7713   3.883   1.380   4.307
 2568SOL     OW 7714   4.330   0.964   3.847
 2568SOL    HW1 7715   4.337   1.048   3.793
 2568SOL    HW2 7716   4.376   0.977   3.935
 2569SOL     OW 7717   3.846   0.643   4.287
 2569SOL    HW1 7718   3.801   0.555   4.304
 2569SOL    HW2 7719   3.845   0.697   4.371
 2570SOL     OW 7720   3.751   1.596   3.841
 2570SOL    HW1 7721   3.732   1.500   3.862
 2570SOL    HW2 7722   3.718   1.654   3.916
 2571SOL     OW 7723   4.337   1.365   4.450
 2571SOL    HW1 7724   4.288   1.278   4.459
 2571SOL    HW2 7725   4.314   1.408   4.363
 2572SOL     OW 7726   4.322   0.729   3.994
 2572SOL    HW1 7727   4.346   0.798   3.926
 2572SOL    HW2 7728   4.244   0.762   4.048
 2573SOL     OW 7729   3.800   0.811   4.513
 2573SOL    HW1 7730   3.899   0.799   4.522
 2573SOL    HW2 7731   3.776   0.906   4.534
 2574SOL     OW 7732   4.075   1.801   4.577
 2574SOL    HW1 7733   4.125   1.715   4.583
 2574SOL    HW2 7734   4.140   1.878   4.574
 2575SOL     OW 7735   4.045   0.943   3.966
 2575SOL    HW1 7736   4.127   0.982   3.924
 2575SOL    HW2 7737   4.018   0.861   3.917
 2576SOL     OW 7738   4.188   1.743   4.047
 2576SOL    HW1 7739   4.221   1.782   4.133
 2576SOL    HW2 7740   4.264   1.736   3.982
 2577SOL     OW 7741   4.664   1.698   4.628
 2577SOL    HW1 7742   4.744   1.641   4.649
 2577SOL    HW2 7743   4.615   1.658   4.551
 2578SOL     OW 7744   4.106   0.700   4.204
 2578SOL    HW1 7745   4.151   0.610   4.201
 2578SOL    HW2 7746   4.012   0.689   4.237
 2579SOL     OW 7747   4.338   0.122   3.841
 2579SOL    HW1 7748   4.436   0.100   3.848
 2579SOL    HW2 7749   4.307   0.105   3.748
 2580SOL     OW 7750   4.263   0.064   4.236
 2580SOL    HW1 7751   4.182   0.065   4.294
 2580SOL    HW2 7752   4.266   0.147   4.181
 2581SOL     OW 7753   4.021   0.035   3.895
 2581SOL    HW1 7754   4.070   0.119   3.874
 2581SOL    HW2 7755   4.083  -0.030   3.940
 2582SOL     OW 7756   4.659   0.236   4.204
 2582SOL    HW1 7757   4.611   0.277   4.126
 2582SOL    HW2 7758   4.758   0.234   4.185
 2583SOL     OW 7759   4.183   1.152   4.465
 2583SOL    HW1 7760   4.112   1.125   4.530
 2583SOL    HW2 7761   4.157   1.124   4.372
 2584SOL     OW 7762   4.251   0.256   4.052
 2584SOL    HW1 7763   4.278   0.197   3.977
 2584SOL    HW2 7764   4.251   0.351   4.021
 2585SOL     OW 7765   4.091   1.100   4.225
 2585SOL    HW1 7766   4.084   1.183   4.169
 2585SOL    HW2 7767   4.095   1.020   4.165
 2586SOL     OW 7768   4.031   0.063   4.342
 2586SOL    HW1 7769   4.020   0.157   4.375
 2586SOL    HW2 7770   4.026   0.000   4.419
 2587SOL     OW 7771   3.732   1.326   3.924
 2587SOL    HW1 7772   3.639   1.347   3.893
 2587SOL    HW2 7773   3.742   1.227   3.937
 2588SOL     OW 7774   4.539   0.572   4.049
 2588SOL    HW1 7775   4.546   0.483   4.003
 2588SOL    HW2 7776   4.445   0.606   4.041
 2589SOL     OW 7777   4.197   0.500   3.915
 2589SOL    HW1 7778   4.258   0.580   3.919
 2589SOL    HW2 7779   4.102   0.531   3.922
 2590SOL     OW 7780   4.314   1.487   4.215
 2590SOL    HW1 7781   4.356   1.429   4.145
 2590SOL    HW2 7782   4.270   1.566   4.171
 2591SOL     OW 7783   3.979   1.348   4.014
 2591SOL    HW1 7784   3.883   1.349   3.987
 2591SOL    HW2 7785   3.991   1.401   4.098
 2592SOL     OW 7786   3.799   0.345   3.757
 2592SOL    HW1 7787   3.707   0.317   3.728
 2592SOL    HW2 7788   3.830   0.422   3.701
 2593SOL     OW 7789   3.796   0.166   4.042
 2593SOL    HW1 7790   3.779   0.249   3.988
 2593SOL    HW2 7791   3.886   0.129   4.020
 2594SOL     OW 7792   4.318   0.745   4.376
 2594SOL    HW1 7793   4.368   0.830   4.357
 2594SOL    HW2 7794   4.230   0.747   4.328
 2595SOL     OW 7795   3.803   1.240   4.377
 2595SOL    HW1 7796   3.802   1.193   4.465
 2595SOL    HW2 7797   3.885   1.212   4.326
 2596SOL     OW 7798   4.152   0.424   4.244
 2596SOL    HW1 7799   4.182   0.352   4.182
 2596SOL    HW2 7800   4.113   0.384   4.327
 2597SOL     OW 7801   3.763   1.077   4.024
 2597SOL    HW1 7802   3.862   1.066   4.015
 2597SOL    HW2 7803   3.723   0.991   4.056
 2598SOL     OW 7804   3.954   2.490   0.113
 2598SOL    HW1 7805   3.861   2.488   0.150
 2598SOL    HW2 7806   3.955   2.451   0.021
 2599SOL     OW 7807   3.949   2.137   0.996
 2599SOL    HW1 7808   3.984   2.120   1.088
 2599SOL    HW2 7809   3.861   2.092   0.984
 2600SOL     OW 7810   3.743   2.230   0.647
 2600SOL    HW1 7811   3.661   2.273   0.686
 2600SOL    HW2 7812   3.715   2.157   0.584
 2601SOL     OW 7813   4.293   3.137   1.165
 2601SOL    HW1 7814   4.200   3.130   1.128
 2601SOL    HW2 7815   4.304   3.226   1.209
 2602SOL     OW 7816   4.574   2.660   1.823
 2602SOL    HW1 7817   4.570   2.736   1.888
 2602SOL    HW2 7818   4.596   2.696   1.732
 2603SOL     OW 7819   4.059   3.297   1.061
 2603SOL    HW1 7820   3.981   3.266   1.008
 2603SOL    HW2 7821   4.117   3.355   1.004
 2604SOL     OW 7822   4.162   2.254   1.499
 2604SOL    HW1 7823   4.244   2.198   1.508
 2604SOL    HW2 7824   4.081   2.196   1.503
 2605SOL     OW 7825   3.955   3.575   0.483
 2605SOL    HW1 7826   3.989   3.652   0.537
 2605SOL    HW2 7827   3.999   3.575   0.393
 2606SOL     OW 7828   3.954   3.296   0.538
 2606SOL    HW1 7829   3.928   3.392   0.538
 2606SOL    HW2 7830   3.883   3.242   0.583
 2607SOL     OW 7831   3.964   2.953   0.886
 2607SOL    HW1 7832   3.978   2.869   0.938
 2607SOL    HW2 7833   3.909   3.017   0.941
 2608SOL     OW 7834   4.344   3.648   1.439
 2608SOL    HW1 7835   4.252   3.631   1.474
 2608SOL    HW2 7836   4.372   3.740   1.465
 2609SOL     OW 7837   4.330   2.826   0.123
 2609SOL    HW1 7838   4.337   2.910   0.069
 2609SOL    HW2 7839   4.376   2.839   0.211
 2610SOL     OW 7840   3.846   2.505   0.563
 2610SOL    HW1 7841   3.801   2.417   0.580
 2610SOL    HW2 7842   3.845   2.559   0.647
 2611SOL     OW 7843   3.751   3.458   0.117
 2611SOL    HW1 7844   3.732   3.362   0.138
 2611SOL    HW2 7845   3.718   3.516   0.192
 2612SOL     OW 7846   3.837   2.599   1.597
 2612SOL    HW1 7847   3.925   2.586   1.642
 2612SOL    HW2 7848   3.824   2.696   1.575
 2613SOL     OW 7849   4.337   3.227   0.726
 2613SOL    HW1 7850   4.288   3.140   0.735
 2613SOL    HW2 7851   4.314   3.270   0.639
 2614SOL     OW 7852   4.533   1.866   0.502
 2614SOL    HW1 7853   4.573   1.957   0.493
 2614SOL    HW2 7854   4.433   1.874   0.508
 2615SOL     OW 7855   3.921   2.838   1.264
 2615SOL    HW1 7856   4.010   2.793   1.250
 2615SOL    HW2 7857   3.848   2.773   1.245
 2616SOL     OW 7858   4.041   2.113   1.801
 2616SOL    HW1 7859   4.112   2.184   1.807
 2616SOL    HW2 7860   3.953   2.152   1.829
 2617SOL     OW 7861   4.322   2.591   0.270
 2617SOL    HW1 7862   4.346   2.660   0.202
 2617SOL    HW2 7863   4.244   2.624   0.324
 2618SOL     OW 7864   3.800   2.673   0.789
 2618SOL    HW1 7865   3.899   2.661   0.798
 2618SOL    HW2 7866   3.776   2.768   0.810
 2619SOL     OW 7867   3.854   3.683   1.571
 2619SOL    HW1 7868   3.844   3.668   1.670
 2619SOL    HW2 7869   3.768   3.719   1.535
 2620SOL     OW 7870   4.274   2.058   0.885
 2620SOL    HW1 7871   4.269   2.053   0.985
 2620SOL    HW2 7872   4.276   2.154   0.856
 2621SOL     OW 7873   4.075   3.663   0.853
 2621SOL    HW1 7874   4.125   3.577   0.859
 2621SOL    HW2 7875   4.140   3.740   0.850
 2622SOL     OW 7876   4.045   2.805   0.242
 2622SOL    HW1 7877   4.127   2.844   0.200
 2622SOL    HW2 7878   4.018   2.723   0.193
 2623SOL     OW 7879   4.185   3.128   1.727
 2623SOL    HW1 7880   4.135   3.129   1.641
 2623SOL    HW2 7881   4.122   3.110   1.803
 2624SOL     OW 7882   3.926   2.147   1.498
 2624SOL    HW1 7883   3.846   2.207   1.485
 2624SOL    HW2 7884   3.916   2.098   1.584
 2625SOL     OW 7885   4.188   3.605   0.323
 2625SOL    HW1 7886   4.221   3.644   0.409
 2625SOL    HW2 7887   4.264   3.598   0.258
 2626SOL     OW 7888   3.973   3.647   1.241
 2626SOL    HW1 7889   4.030   3.582   1.291
 2626SOL    HW2 7890   3.957   3.614   1.148
 2627SOL     OW 7891   4.106   2.562   0.480
 2627SOL    HW1 7892   4.151   2.472   0.477
 2627SOL    HW2 7893   4.012   2.551   0.513
 2628SOL     OW 7894   4.338   1.984   0.117
 2628SOL    HW1 7895   4.436   1.962   0.124
 2628SOL    HW2 7896   4.307   1.967   0.024
 2629SOL     OW 7897   4.527   3.264   0.924
 2629SOL    HW1 7898   4.617   3.278   0.882
 2629SOL    HW2 7899   4.456   3.266   0.853
 2630SOL     OW 7900   4.263   1.926   0.512
 2630SOL    HW1 7901   4.182   1.927   0.570
 2630SOL    HW2 7902   4.266   2.009   0.457
 2631SOL     OW 7903   4.659   2.098   0.480
 2631SOL    HW1 7904   4.611   2.139   0.402
 2631SOL    HW2 7905   4.758   2.096   0.461
 2632SOL     OW 7906   4.183   3.014   0.741
 2632SOL    HW1 7907   4.112   2.987   0.806
 2632SOL    HW2 7908   4.157   2.986   0.648
 2633SOL     OW 7909   3.802   2.418   1.386
 2633SOL    HW1 7910   3.894   2.417   1.345
 2633SOL    HW2 7911   3.796   2.492   1.453
 2634SOL     OW 7912   4.285   2.084   1.147
 2634SOL    HW1 7913   4.323   2.000   1.184
 2634SOL    HW2 7914   4.197   2.103   1.191
 2635SOL     OW 7915   4.251   2.118   0.328
 2635SOL    HW1 7916   4.278   2.059   0.253
 2635SOL    HW2 7917   4.251   2.213   0.297
 2636SOL     OW 7918   4.134   2.675   1.251
 2636SOL    HW1 7919   4.220   2.687   1.301
 2636SOL    HW2 7920   4.092   2.588   1.278
 2637SOL     OW 7921   3.788   3.426   1.331
 2637SOL    HW1 7922   3.742   3.508   1.297
 2637SOL    HW2 7923   3.886   3.445   1.340
 2638SOL     OW 7924   4.091   2.962   0.501
 2638SOL    HW1 7925   4.084   3.045   0.445
 2638SOL    HW2 7926   4.095   2.882   0.441
 2639SOL     OW 7927   4.290   2.399   0.865
 2639SOL    HW1 7928   4.302   2.465   0.791
 2639SOL    HW2 7929   4.336   2.433   0.948
 2640SOL     OW 7930   4.078   3.372   1.329
 2640SOL    HW1 7931   4.057   3.328   1.242
 2640SOL    HW2 7932   4.175   3.398   1.332
 2641SOL     OW 7933   4.126   2.613   1.598
 2641SOL    HW1 7934   4.194   2.668   1.551
 2641SOL    HW2 7935   4.166   2.525   1.625
 2642SOL     OW 7936   4.228   1.912   1.740
 2642SOL    HW1 7937   4.186   1.855   1.670
 2642SOL    HW2 7938   4.162   1.981   1.772
 2643SOL     OW 7939   4.297   2.732   1.029
 2643SOL    HW1 7940   4.341   2.821   1.020
 2643SOL    HW2 7941   4.234   2.732   1.106
 2644SOL     OW 7942   4.031   2.075   1.231
 2644SOL    HW1 7943   4.008   2.112   1.321
 2644SOL    HW2 7944   4.001   1.980   1.225
 2645SOL     OW 7945   3.761   3.172   1.282
 2645SOL    HW1 7946   3.814   3.123   1.350
 2645SOL    HW2 7947   3.783   3.270   1.287
 2646SOL     OW 7948   4.031   1.925   0.618
 2646SOL    HW1 7949   4.020   2.019   0.651
 2646SOL    HW2 7950   4.026   1.862   0.695
 2647SOL     OW 7951   4.074   2.760   1.804
 2647SOL    HW1 7952   4.150   2.804   1.852
 2647SOL    HW2 7953   4.109   2.713   1.722
 2648SOL     OW 7954   4.043   2.672   0.949
 2648SOL    HW1 7955   4.136   2.708   0.954
 2648SOL    HW2 7956   4.037   2.587   1.001
 2649SOL     OW 7957   4.063   2.371   1.006
 2649SOL    HW1 7958   4.011   2.288   0.989
 2649SOL    HW2 7959   4.140   2.376   0.942
 2650SOL     OW 7960   3.732   3.188   0.200
 2650SOL    HW1 7961   3.639   3.209   0.169
 2650SOL    HW2 7962   3.742   3.089   0.213
 2651SOL     OW 7963   3.812   3.663   0.927
 2651SOL    HW1 7964   3.770   3.577   0.900
 2651SOL    HW2 7965   3.906   3.666   0.893
 2652SOL     OW 7966   4.228   3.430   0.910
 2652SOL    HW1 7967   4.294   3.504   0.919
 2652SOL    HW2 7968   4.272   3.351   0.868
 2653SOL     OW 7969   3.764   2.406   1.114
 2653SOL    HW1 7970   3.849   2.373   1.073
 2653SOL    HW2 7971   3.777   2.421   1.212
 2654SOL     OW 7972   3.913   2.382   1.722
 2654SOL    HW1 7973   3.972   2.342   1.652
 2654SOL    HW2 7974   3.855   2.453   1.681
 2655SOL     OW 7975   4.539   2.434   0.325
 2655SOL    HW1 7976   4.546   2.345   0.279
 2655SOL    HW2 7977   4.445   2.468   0.317
 2656SOL     OW 7978   3.976   3.426   1.744
 2656SOL    HW1 7979   3.946   3.483   1.820
 2656SOL    HW2 7980   3.969   3.329   1.770
 2657SOL     OW 7981   4.197   2.362   0.191
 2657SOL    HW1 7982   4.258   2.442   0.195
 2657SOL    HW2 7983   4.102   2.393   0.198
 2658SOL     OW 7984   3.883   2.999   1.466
 2658SOL    HW1 7985   3.905   2.938   1.542
 2658SOL    HW2 7986   3.893   2.950   1.380
 2659SOL     OW 7987   3.807   3.120   1.022
 2659SOL    HW1 7988   3.802   3.119   1.122
 2659SOL    HW2 7989   3.724   3.079   0.984
 2660SOL     OW 7990   4.412   3.524   1.716
 2660SOL    HW1 7991   4.356   3.605   1.725
 2660SOL    HW2 7992   4.464   3.528   1.630
 2661SOL     OW 7993   3.854   3.656   1.851
 2661SOL    HW1 7994   3.813   3.582   1.904
 2661SOL    HW2 7995   3.918   3.707   1.909
 2662SOL     OW 7996   3.987   2.188   0.720
 2662SOL    HW1 7997   3.908   2.239   0.686
 2662SOL    HW2 7998   3.978   2.173   0.818
 2663SOL     OW 7999   4.096   3.150   1.490
 2663SOL    HW1 8000   4.083   3.243   1.456
 2663SOL    HW2 8001   4.012   3.098   1.477
 2664SOL     OW 8002   4.314   3.349   0.491
 2664SOL    HW1 8003   4.356   3.291   0.421
 2664SOL    HW2 8004   4.270   3.428   0.447
 2665SOL     OW 8005   3.979   3.210   0.290
 2665SOL    HW1 8006   3.883   3.211   0.263
 2665SOL    HW2 8007   3.991   3.263   0.374
 2666SOL     OW 8008   3.829   2.875   1.726
 2666SOL    HW1 8009   3.752   2.842   1.780
 2666SOL    HW2 8010   3.914   2.845   1.768
 2667SOL     OW 8011   4.396   2.065   1.489
 2667SOL    HW1 8012   4.486   2.049   1.449
 2667SOL    HW2 8013   4.404   2.070   1.588
 2668SOL     OW 8014   3.799   2.207   0.033
 2668SOL    HW1 8015   3.707   2.179   0.004
 2668SOL    HW2 8016   3.830   2.284  -0.023
 2669SOL     OW 8017   4.337   2.704   1.431
 2669SOL    HW1 8018   4.393   2.785   1.414
 2669SOL    HW2 8019   4.396   2.624   1.434
 2670SOL     OW 8020   4.114   3.603   1.560
 2670SOL    HW1 8021   4.023   3.644   1.558
 2670SOL    HW2 8022   4.107   3.509   1.592
 2671SOL     OW 8023   4.318   2.607   0.652
 2671SOL    HW1 8024   4.368   2.692   0.633
 2671SOL    HW2 8025   4.230   2.609   0.604
 2672SOL     OW 8026   3.945   3.176   1.844
 2672SOL    HW1 8027   3.880   3.103   1.823
 2672SOL    HW2 8028   3.949   3.190   1.942
 2673SOL     OW 8029   3.803   3.102   0.653
 2673SOL    HW1 8030   3.802   3.055   0.741
 2673SOL    HW2 8031   3.885   3.074   0.602
 2674SOL     OW 8032   4.396   3.253   1.624
 2674SOL    HW1 8033   4.318   3.203   1.662
 2674SOL    HW2 8034   4.393   3.348   1.655
 2675SOL     OW 8035   4.152   2.286   0.520
 2675SOL    HW1 8036   4.182   2.214   0.458
 2675SOL    HW2 8037   4.113   2.246   0.603
 2676SOL     OW 8038   4.041   2.409   1.280
 2676SOL    HW1 8039   4.079   2.350   1.352
 2676SOL    HW2 8040   4.081   2.383   1.192
 2677SOL     OW 8041   3.763   2.939   0.300
 2677SOL    HW1 8042   3.862   2.928   0.291
 2677SOL    HW2 8043   3.723   2.853   0.332
 2678SOL     OW 8044   3.954   2.490   1.975
 2678SOL    HW1 8045   3.861   2.488   2.012
 2678SOL    HW2 8046   3.955   2.451   1.883
 2679SOL     OW 8047   3.949   2.137   2.858
 2679SOL    HW1 8048   3.984   2.120   2.950
 2679SOL    HW2 8049   3.861   2.092   2.846
 2680SOL     OW 8050   3.743   2.230   2.509
 2680SOL    HW1 8051   3.661   2.273   2.548
 2680SOL    HW2 8052   3.715   2.157   2.446
 2681SOL     OW 8053   4.293   3.137   3.027
 2681SOL    HW1 8054   4.200   3.130   2.990
 2681SOL    HW2 8055   4.304   3.226   3.071
 2682SOL     OW 8056   4.574   2.660   3.685
 2682SOL    HW1 8057   4.570   2.736   3.750
 2682SOL    HW2 8058   4.596   2.696   3.594
 2683SOL     OW 8059   4.059   3.297   2.923
 2683SOL    HW1 8060   3.981   3.266   2.870
 2683SOL    HW2 8061   4.117   3.355   2.866
 2684SOL     OW 8062   4.162   2.254   3.361
 2684SOL    HW1 8063   4.244   2.198   3.370
 2684SOL    HW2 8064   4.081   2.196   3.365
 2685SOL     OW 8065   3.955   3.575   2.345
 2685SOL    HW1 8066   3.989   3.652   2.399
 2685SOL    HW2 8067   3.999   3.575   2.255
 2686SOL     OW 8068   3.954   3.296   2.400
 2686SOL    HW1 8069   3.928   3.392   2.400
 2686SOL    HW2 8070   3.883   3.242   2.445
 2687SOL     OW 8071   3.964   2.953   2.748
 2687SOL    HW1 8072   3.978   2.869   2.800
 2687SOL    HW2 8073   3.909   3.017   2.803
 2688SOL     OW 8074   4.344   3.648   3.301
 2688SOL    HW1 8075   4.252   3.631   3.336
 2688SOL    HW2 8076   4.372   3.740   3.327
 2689SOL     OW 8077   4.330   2.826   1.985
 2689SOL    HW1 8078   4.337   2.910   1.931
 2689SOL    HW2 8079   4.376   2.839   2.073
 2690SOL     OW 8080   3.846   2.505   2.425
 2690SOL    HW1 8081   3.801   2.417   2.442
 2690SOL    HW2 8082   3.845   2.559   2.509
 2691SOL     OW 8083   3.751   3.458   1.979
 2691SOL    HW1 8084   3.732   3.362   2.000
 2691SOL    HW2 8085   3.718   3.516   2.054
 2692SOL     OW 8086   3.837   2.599   3.459
 2692SOL    HW1 8087   3.925   2.586   3.504
 2692SOL    HW2 8088   3.824   2.696   3.437
 2693SOL     OW 8089   4.337   3.227   2.588
 2693SOL    HW1 8090   4.288   3.140   2.597
 2693SOL    HW2 8091   4.314   3.270   2.501
 2694SOL     OW 8092   4.533   1.866   2.364
 2694SOL    HW1 8093   4.573   1.957   2.355
 2694SOL    HW2 8094   4.433   1.874   2.370
 2695SOL     OW 8095   3.921   2.838   3.126
 2695SOL    HW1 8096   4.010   2.793   3.112
 2695SOL    HW2 8097   3.848   2.773   3.107
 2696SOL     OW 8098   4.041   2.113   3.663
 2696SOL    HW1 8099   4.112   2.184   3.669
 2696SOL    HW2 8100   3.953   2.152   3.691
 2697SOL     OW 8101   4.322   2.591   2.132
 2697SOL    HW1 8102   4.346   2.660   2.064
 2697SOL    HW2 8103   4.244   2.624   2.186
 2698SOL     OW 8104   3.800   2.673   2.651
 2698SOL    HW1 8105   3.899   2.661   2.660
 2698SOL    HW2 8106   3.776   2.768   2.672
 2699SOL     OW 8107   3.854   3.683   3.433
 2699SOL    HW1 8108   3.844   3.668   3.532
 2699SOL    HW2 8109   3.768   3.719   3.397
 2700SOL     OW 8110   4.274   2.058   2.747
 2700SOL    HW1 8111   4.269   2.053   2.847
 2700SOL    HW2 8112   4.276   2.154   2.718
 2701SOL     OW 8113   4.075   3.663   2.715
 2701SOL    HW1 8114   4.125   3.577   2.721
 2701SOL    HW2 8115   4.140   3.740   2.712
 2702SOL     OW 8116   4.045   2.805   2.104
 2702SOL    HW1 8117   4.127   2.844   2.062
 2702SOL    HW2 8118   4.018   2.723   2.055
 2703SOL     OW 8119   4.185   3.128   3.589
 2703SOL    HW1 8120   4.135   3.129   3.503
 2703SOL    HW2 8121   4.122   3.110   3.665
 2704SOL     OW 8122   3.926   2.147   3.360
 2704SOL    HW1 8123   3.846   2.207   3.347
 2704SOL    HW2 8124   3.916   2.098   3.446
 2705SOL     OW 8125   4.188   3.605   2.185
 2705SOL    HW1 8126   4.221   3.644   2.271
 2705SOL    HW2 8127   4.264   3.598   2.120
 2706SOL     OW 8128   3.973   3.647   3.103
 2706SOL    HW1 8129   4.030   3.582   3.153
 2706SOL    HW2 8130   3.957   3.614   3.010
 2707SOL     OW 8131   4.106   2.562   2.342
 2707SOL    HW1 8132   4.151   2.472   2.339
 2707SOL    HW2 8133   4.012   2.551   2.375
 2708SOL     OW 8134   4.338   1.984   1.979
 2708SOL    HW1 8135   4.436   1.962   1.986
 2708SOL    HW2 8136   4.307   1.967   1.886
 2709SOL     OW 8137   4.527   3.264   2.786
 2709SOL    HW1 8138   4.617   3.278   2.744
 2709SOL    HW2 8139   4.456   3.266   2.715
 2710SOL     OW 8140   4.263   1.926   2.374
 2710SOL    HW1 8141   4.182   1.927   2.432
 2710SOL    HW2 8142   4.266   2.009   2.319
 2711SOL     OW 8143   4.021   1.897   2.033
 2711SOL    HW1 8144   4.070   1.981   2.012
 2711SOL    HW2 8145   4.083   1.832   2.078
 2712SOL     OW 8146   4.659   2.098   2.342
 2712SOL    HW1 8147   4.611   2.139   2.264
 2712SOL    HW2 8148   4.758   2.096   2.323
 2713SOL     OW 8149   4.183   3.014   2.603
 2713SOL    HW1 8150   4.112   2.987   2.668
 2713SOL    HW2 8151   4.157   2.986   2.510
 2714SOL     OW 8152   3.802   2.418   3.248
 2714SOL    HW1 8153   3.894   2.417   3.207
 2714SOL    HW2 8154   3.796   2.492   3.315
 2715SOL     OW 8155   4.285   2.084   3.009
 2715SOL    HW1 8156   4.323   2.000   3.046
 2715SOL    HW2 8157   4.197   2.103   3.053
 2716SOL     OW 8158   4.251   2.118   2.190
 2716SOL    HW1 8159   4.278   2.059   2.115
 2716SOL    HW2 8160   4.251   2.213   2.159
 2717SOL     OW 8161   4.134   2.675   3.113
 2717SOL    HW1 8162   4.220   2.687   3.163
 2717SOL    HW2 8163   4.092   2.588   3.140
 2718SOL     OW 8164   3.788   3.426   3.193
 2718SOL    HW1 8165   3.742   3.508   3.159
 2718SOL    HW2 8166   3.886   3.445   3.202
 2719SOL     OW 8167   4.091   2.962   2.363
 2719SOL    HW1 8168   4.084   3.045   2.307
 2719SOL    HW2 8169   4.095   2.882   2.303
 2720SOL     OW 8170   4.290   2.399   2.727
 2720SOL    HW1 8171   4.302   2.465   2.653
 2720SOL    HW2 8172   4.336   2.433   2.810
 2721SOL     OW 8173   4.078   3.372   3.191
 2721SOL    HW1 8174   4.057   3.328   3.104
 2721SOL    HW2 8175   4.175   3.398   3.194
 2722SOL     OW 8176   4.126   2.613   3.460
 2722SOL    HW1 8177   4.194   2.668   3.413
 2722SOL    HW2 8178   4.166   2.525   3.487
 2723SOL     OW 8179   4.228   1.912   3.602
 2723SOL    HW1 8180   4.186   1.855   3.532
 2723SOL    HW2 8181   4.162   1.981   3.634
 2724SOL     OW 8182   4.297   2.732   2.891
 2724SOL    HW1 8183   4.341   2.821   2.882
 2724SOL    HW2 8184   4.234   2.732   2.968
 2725SOL     OW 8185   4.031   2.075   3.093
 2725SOL    HW1 8186   4.008   2.112   3.183
 2725SOL    HW2 8187   4.001   1.980   3.087
 2726SOL     OW 8188   3.761   3.172   3.144
 2726SOL    HW1 8189   3.814   3.123   3.212
 2726SOL    HW2 8190   3.783   3.270   3.149
 2727SOL     OW 8191   4.031   1.925   2.480
 2727SOL    HW1 8192   4.020   2.019   2.513
 2727SOL    HW2 8193   4.026   1.862   2.557
 2728SOL     OW 8194   4.074   2.760   3.666
 2728SOL    HW1 8195   4.150   2.804   3.714
 2728SOL    HW2 8196   4.109   2.713   3.584
 2729SOL     OW 8197   4.043   2.672   2.811
 2729SOL    HW1 8198   4.136   2.708   2.816
 2729SOL    HW2 8199   4.037   2.587   2.863
 2730SOL     OW 8200   4.063   2.371   2.868
 2730SOL    HW1 8201   4.011   2.288   2.851
 2730SOL    HW2 8202   4.140   2.376   2.804
 2731SOL     OW 8203   3.732   3.188   2.062
 2731SOL    HW1 8204   3.639   3.209   2.031
 2731SOL    HW2 8205   3.742   3.089   2.075
 2732SOL     OW 8206   3.812   3.663   2.789
 2732SOL    HW1 8207   3.770   3.577   2.762
 2732SOL    HW2 8208   3.906   3.666   2.755
 2733SOL     OW 8209   4.228   3.430   2.772
 2733SOL    HW1 8210   4.294   3.504   2.781
 2733SOL    HW2 8211   4.272   3.351   2.730
 2734SOL     OW 8212   3.764   2.406   2.976
 2734SOL    HW1 8213   3.849   2.373   2.935
 2734SOL    HW2 8214   3.777   2.421   3.074
 2735SOL     OW 8215   3.913   2.382   3.584
 2735SOL    HW1 8216   3.972   2.342   3.514
 2735SOL    HW2 8217   3.855   2.453   3.543
 2736SOL     OW 8218   4.539   2.434   2.187
 2736SOL    HW1 8219   4.546   2.345   2.141
 2736SOL    HW2 8220   4.445   2.468   2.179
 2737SOL     OW 8221   3.976   3.426   3.606
 2737SOL    HW1 8222   3.946   3.483   3.682
 2737SOL    HW2 8223   3.969   3.329   3.632
 2738SOL     OW 8224   4.197   2.362   2.053
 2738SOL    HW1 8225   4.258   2.442   2.057
 2738SOL    HW2 8226   4.102   2.393   2.060
 2739SOL     OW 8227   3.883   2.999   3.328
 2739SOL    HW1 8228   3.905   2.938   3.404
 2739SOL    HW2 8229   3.893   2.950   3.242
 2740SOL     OW 8230   3.807   3.120   2.884
 2740SOL    HW1 8231   3.802   3.119   2.984
 2740SOL    HW2 8232   3.724   3.079   2.846
 2741SOL     OW 8233   4.412   3.524   3.578
 2741SOL    HW1 8234   4.356   3.605   3.587
 2741SOL    HW2 8235   4.464   3.528   3.492
 2742SOL     OW 8236   3.854   3.656   3.713
 2742SOL    HW1 8237   3.813   3.582   3.766
 2742SOL    HW2 8238   3.918   3.707   3.771
 2743SOL     OW 8239   3.987   2.188   2.582
 2743SOL    HW1 8240   3.908   2.239   2.548
 2743SOL    HW2 8241   3.978   2.173   2.680
 2744SOL     OW 8242   4.096   3.150   3.352
 2744SOL    HW1 8243   4.083   3.243   3.318
 2744SOL    HW2 8244   4.012   3.098   3.339
 2745SOL     OW 8245   4.314   3.349   2.353
 2745SOL    HW1 8246   4.356   3.291   2.283
 2745SOL    HW2 8247   4.270   3.428   2.309
 2746SOL     OW 8248   3.979   3.210   2.152
 2746SOL    HW1 8249   3.883   3.211   2.125
 2746SOL    HW2 8250   3.991   3.263   2.236
 2747SOL     OW 8251   3.829   2.875   3.588
 2747SOL    HW1 8252   3.752   2.842   3.642
 2747SOL    HW2 8253   3.914   2.845   3.630
 2748SOL     OW 8254   4.396   2.065   3.351
 2748SOL    HW1 8255   4.486   2.049   3.311
 2748SOL    HW2 8256   4.404   2.070   3.450
 2749SOL     OW 8257   3.799   2.207   1.895
 2749SOL    HW1 8258   3.707   2.179   1.866
 2749SOL    HW2 8259   3.830   2.284   1.839
 2750SOL     OW 8260   3.796   2.028   2.180
 2750SOL    HW1 8261   3.779   2.111   2.126
 2750SOL    HW2 8262   3.886   1.991   2.158
 2751SOL     OW 8263   4.337   2.704   3.293
 2751SOL    HW1 8264   4.393   2.785   3.276
 2751SOL    HW2 8265   4.396   2.624   3.296
 2752SOL     OW 8266   4.114   3.603   3.422
 2752SOL    HW1 8267   4.023   3.644   3.420
 2752SOL    HW2 8268   4.107   3.509   3.454
 2753SOL     OW 8269   4.318   2.607   2.514
 2753SOL    HW1 8270   4.368   2.692   2.495
 2753SOL    HW2 8271   4.230   2.609   2.466
 2754SOL     OW 8272   3.945   3.176   3.706
 2754SOL    HW1 8273   3.880   3.103   3.685
 2754SOL    HW2 8274   3.949   3.190   3.804
 2755SOL     OW 8275   3.803   3.102   2.515
 2755SOL    HW1 8276   3.802   3.055   2.603
 2755SOL    HW2 8277   3.885   3.074   2.464
 2756SOL     OW 8278   4.396   3.253   3.486
 2756SOL    HW1 8279   4.318   3.203   3.524
 2756SOL    HW2 8280   4.393   3.348   3.517
 2757SOL     OW 8281   4.152   2.286   2.382
 2757SOL    HW1 8282   4.182   2.214   2.320
 2757SOL    HW2 8283   4.113   2.246   2.465
 2758SOL     OW 8284   4.041   2.409   3.142
 2758SOL    HW1 8285   4.079   2.350   3.214
 2758SOL    HW2 8286   4.081   2.383   3.054
 2759SOL     OW 8287   3.763   2.939   2.162
 2759SOL    HW1 8288   3.862   2.928   2.153
 2759SOL    HW2 8289   3.723   2.853   2.194
 2760SOL     OW 8290   3.954   2.490   3.837
 2760SOL    HW1 8291   3.861   2.488   3.874
 2760SOL    HW2 8292   3.955   2.451   3.745
 2761SOL     OW 8293   3.955   3.575   4.207
 2761SOL    HW1 8294   3.989   3.652   4.261
 2761SOL    HW2 8295   3.999   3.575   4.117
 2762SOL     OW 8296   3.954   3.296   4.262
 2762SOL    HW1 8297   3.928   3.392   4.262
 2762SOL    HW2 8298   3.883   3.242   4.307
 2763SOL     OW 8299   4.330   2.826   3.847
 2763SOL    HW1 8300   4.337   2.910   3.793
 2763SOL    HW2 8301   4.376   2.839   3.935
 2764SOL     OW 8302   3.846   2.505   4.287
 2764SOL    HW1 8303   3.801   2.417   4.304
 2764SOL    HW2 8304   3.845   2.559   4.371
 2765SOL     OW 8305   3.751   3.458   3.841
 2765SOL    HW1 8306   3.732   3.362   3.862
 2765SOL    HW2 8307   3.718   3.516   3.916
 2766SOL     OW 8308   4.337   3.227   4.450
 2766SOL    HW1 8309   4.288   3.140   4.459
 2766SOL    HW2 8310   4.314   3.270   4.363
 2767SOL     OW 8311   4.533   1.866   4.226
 2767SOL    HW1 8312   4.573   1.957   4.217
 2767SOL    HW2 8313   4.433   1.874   4.232
 2768SOL     OW 8314   4.322   2.591   3.994
 2768SOL    HW1 8315   4.346   2.660   3.926
 2768SOL    HW2 8316   4.244   2.624   4.048
 2769SOL     OW 8317   3.800   2.673   4.513
 2769SOL    HW1 8318   3.899   2.661   4.522
 2769SOL    HW2 8319   3.776   2.768   4.534
 2770SOL     OW 8320   4.075   3.663   4.577
 2770SOL    HW1 8321   4.125   3.577   4.583
 2770SOL    HW2 8322   4.140   3.740   4.574
 2771SOL     OW 8323   4.045   2.805   3.966
 2771SOL    HW1 8324   4.127   2.844   3.924
 2771SOL    HW2 8325   4.018   2.723   3.917
 2772SOL     OW 8326   4.188   3.605   4.047
 2772SOL    HW1 8327   4.221   3.644   4.133
 2772SOL    HW2 8328   4.264   3.598   3.982
 2773SOL     OW 8329   4.664   3.560   4.628
 2773SOL    HW1 8330   4.744   3.503   4.649
 2773SOL    HW2 8331   4.615   3.520   4.551
 2774SOL     OW 8332   4.106   2.562   4.204
 2774SOL    HW1 8333   4.151   2.472   4.201
 2774SOL    HW2 8334   4.012   2.551   4.237
 2775SOL     OW 8335   4.338   1.984   3.841
 2775SOL    HW1 8336   4.436   1.962   3.848
 2775SOL    HW2 8337   4.307   1.967   3.748
 2776SOL     OW 8338   4.263   1.926   4.236
 2776SOL    HW1 8339   4.182   1.927   4.294
 2776SOL    HW2 8340   4.266   2.009   4.181
 2777SOL     OW 8341   4.021   1.897   3.895
 2777SOL    HW1 8342   4.070   1.981   3.874
 2777SOL    HW2 8343   4.083   1.832   3.940
 2778SOL     OW 8344   4.659   2.098   4.204
 2778SOL    HW1 8345   4.611   2.139   4.126
 2778SOL    HW2 8346   4.758   2.096   4.185
 2779SOL     OW 8347   4.183   3.014   4.465
 2779SOL    HW1 8348   4.112   2.987   4.530
 2779SOL    HW2 8349   4.157   2.986   4.372
 2780SOL     OW 8350   4.251   2.118   4.052
 2780SOL    HW1 8351   4.278   2.059   3.977
 2780SOL    HW2 8352   4.251   2.213   4.021
 2781SOL     OW 8353   4.091   2.962   4.225
 2781SOL    HW1 8354   4.084   3.045   4.169
 2781SOL    HW2 8355   4.095   2.882   4.165
 2782SOL     OW 8356   4.031   1.925   4.342
 2782SOL    HW1 8357   4.020   2.019   4.375
 2782SOL    HW2 8358   4.026   1.862   4.419
 2783SOL     OW 8359   3.732   3.188   3.924
 2783SOL    HW1 8360   3.639   3.209   3.893
 2783SOL    HW2 8361   3.742   3.089   3.937
 2784SOL     OW 8362   4.539   2.434   4.049
 2784SOL    HW1 8363   4.546   2.345   4.003
 2784SOL    HW2 8364   4.445   2.468   4.041
 2785SOL     OW 8365   4.197   2.362   3.915
 2785SOL    HW1 8366   4.258   2.442   3.919
 2785SOL    HW2 8367   4.102   2.393   3.922
 2786SOL     OW 8368   4.314   3.349   4.215
 2786SOL    HW1 8369   4.356   3.291   4.145
 2786SOL    HW2 8370   4.270   3.428   4.171
 2787SOL     OW 8371   3.979   3.210   4.014
 2787SOL    HW1 8372   3.883   3.211   3.987
 2787SOL    HW2 8373   3.991   3.263   4.098
 2788SOL     OW 8374   3.799   2.207   3.757
 2788SOL    HW1 8375   3.707   2.179   3.728
 2788SOL    HW2 8376   3.830   2.284   3.701
 2789SOL     OW 8377   3.796   2.028   4.042
 2789SOL    HW1 8378   3.779   2.111   3.988
 2789SOL    HW2 8379   3.886   1.991   4.020
 2790SOL     OW 8380   4.318   2.607   4.376
 2790SOL    HW1 8381   4.368   2.692   4.357
 2790SOL    HW2 8382   4.230   2.609   4.328
 2791SOL     OW 8383   3.803   3.102   4.377
 2791SOL    HW1 8384   3.802   3.055   4.465
 2791SOL    HW2 8385   3.885   3.074   4.326
 2792SOL     OW 8386   4.152   2.286   4.244
 2792SOL    HW1 8387   4.182   2.214   4.182
 2792SOL    HW2 8388   4.113   2.246   4.327
 2793SOL     OW 8389   3.763   2.939   4.024
 2793SOL    HW1 8390   3.862   2.928   4.015
 2793SOL    HW2 8391   3.723   2.853   4.056
 2794SOL     OW 8392   3.949   3.999   0.996
 2794SOL    HW1 8393   3.984   3.982   1.088
 2794SOL    HW2 8394   3.861   3.954   0.984
 2795SOL     OW 8395   3.743   4.092   0.647
 2795SOL    HW1 8396   3.661   4.135   0.686
 2795SOL    HW2 8397   3.715   4.019   0.584
 2796SOL     OW 8398   4.574   4.522   1.823
 2796SOL    HW1 8399   4.570   4.598   1.888
 2796SOL    HW2 8400   4.596   4.558   1.732
 2797SOL     OW 8401   4.162   4.116   1.499
 2797SOL    HW1 8402   4.244   4.060   1.508
 2797SOL    HW2 8403   4.081   4.058   1.503
 2798SOL     OW 8404   3.846   4.367   0.563
 2798SOL    HW1 8405   3.801   4.279   0.580
 2798SOL    HW2 8406   3.845   4.421   0.647
 2799SOL     OW 8407   3.837   4.461   1.597
 2799SOL    HW1 8408   3.925   4.448   1.642
 2799SOL    HW2 8409   3.824   4.558   1.575
 2800SOL     OW 8410   4.533   3.728   0.502
 2800SOL    HW1 8411   4.573   3.819   0.493
 2800SOL    HW2 8412   4.433   3.736   0.508
 2801SOL     OW 8413   4.041   3.975   1.801
 2801SOL    HW1 8414   4.112   4.046   1.807
 2801SOL    HW2 8415   3.953   4.014   1.829
 2802SOL     OW 8416   4.322   4.453   0.270
 2802SOL    HW1 8417   4.346   4.522   0.202
 2802SOL    HW2 8418   4.244   4.486   0.324
 2803SOL     OW 8419   4.274   3.920   0.885
 2803SOL    HW1 8420   4.269   3.915   0.985
 2803SOL    HW2 8421   4.276   4.016   0.856
 2804SOL     OW 8422   3.926   4.009   1.498
 2804SOL    HW1 8423   3.846   4.069   1.485
 2804SOL    HW2 8424   3.916   3.960   1.584
 2805SOL     OW 8425   4.338   3.846   0.117
 2805SOL    HW1 8426   4.436   3.824   0.124
 2805SOL    HW2 8427   4.307   3.829   0.024
 2806SOL     OW 8428   4.263   3.788   0.512
 2806SOL    HW1 8429   4.182   3.789   0.570
 2806SOL    HW2 8430   4.266   3.871   0.457
 2807SOL     OW 8431   4.659   3.960   0.480
 2807SOL    HW1 8432   4.611   4.001   0.402
 2807SOL    HW2 8433   4.758   3.958   0.461
 2808SOL     OW 8434   3.802   4.280   1.386
 2808SOL    HW1 8435   3.894   4.279   1.345
 2808SOL    HW2 8436   3.796   4.354   1.453
 2809SOL     OW 8437   4.285   3.946   1.147
 2809SOL    HW1 8438   4.323   3.862   1.184
 2809SOL    HW2 8439   4.197   3.965   1.191
 2810SOL     OW 8440   4.251   3.980   0.328
 2810SOL    HW1 8441   4.278   3.921   0.253
 2810SOL    HW2 8442   4.251   4.075   0.297
 2811SOL     OW 8443   4.290   4.261   0.865
 2811SOL    HW1 8444   4.302   4.327   0.791
 2811SOL    HW2 8445   4.336   4.295   0.948
 2812SOL     OW 8446   4.228   3.774   1.740
 2812SOL    HW1 8447   4.186   3.717   1.670
 2812SOL    HW2 8448   4.162   3.843   1.772
 2813SOL     OW 8449   4.031   3.937   1.231
 2813SOL    HW1 8450   4.008   3.974   1.321
 2813SOL    HW2 8451   4.001   3.842   1.225
 2814SOL     OW 8452   4.031   3.787   0.618
 2814SOL    HW1 8453   4.020   3.881   0.651
 2814SOL    HW2 8454   4.026   3.724   0.695
 2815SOL     OW 8455   4.043   4.534   0.949
 2815SOL    HW1 8456   4.136   4.570   0.954
 2815SOL    HW2 8457   4.037   4.449   1.001
 2816SOL     OW 8458   4.063   4.233   1.006
 2816SOL    HW1 8459   4.011   4.150   0.989
 2816SOL    HW2 8460   4.140   4.238   0.942
 2817SOL     OW 8461   3.764   4.268   1.114
 2817SOL    HW1 8462   3.849   4.235   1.073
 2817SOL    HW2 8463   3.777   4.283   1.212
 2818SOL     OW 8464   3.913   4.244   1.722
 2818SOL    HW1 8465   3.972   4.204   1.652
 2818SOL    HW2 8466   3.855   4.315   1.681
 2819SOL     OW 8467   4.539   4.296   0.325
 2819SOL    HW1 8468   4.546   4.207   0.279
 2819SOL    HW2 8469   4.445   4.330   0.317
 2820SOL     OW 8470   4.197   4.224   0.191
 2820SOL    HW1 8471   4.258   4.304   0.195
 2820SOL    HW2 8472   4.102   4.255   0.198
 2821SOL     OW 8473   3.987   4.050   0.720
 2821SOL    HW1 8474   3.908   4.101   0.686
 2821SOL    HW2 8475   3.978   4.035   0.818
 2822SOL     OW 8476   4.396   3.927   1.489
 2822SOL    HW1 8477   4.486   3.911   1.449
 2822SOL    HW2 8478   4.404   3.932   1.588
 2823SOL     OW 8479   3.799   4.069   0.033
 2823SOL    HW1 8480   3.707   4.041   0.004
 2823SOL    HW2 8481   3.830   4.146  -0.023
 2824SOL     OW 8482   4.152   4.148   0.520
 2824SOL    HW1 8483   4.182   4.076   0.458
 2824SOL    HW2 8484   4.113   4.108   0.603
 2825SOL     OW 8485   4.041   4.271   1.280
 2825SOL    HW1 8486   4.079   4.212   1.352
 2825SOL    HW2 8487   4.081   4.245   1.192
 2826SOL     OW 8488   3.949   3.999   2.858
 2826SOL    HW1 8489   3.984   3.982   2.950
 2826SOL    HW2 8490   3.861   3.954   2.846
 2827SOL     OW 8491   3.743   4.092   2.509
 2827SOL    HW1 8492   3.661   4.135   2.548
 2827SOL    HW2 8493   3.715   4.019   2.446
 2828SOL     OW 8494   4.574   4.522   3.685
 2828SOL    HW1 8495   4.570   4.598   3.750
 2828SOL    HW2 8496   4.596   4.558   3.594
 2829SOL     OW 8497   4.162   4.116   3.361
 2829SOL    HW1 8498   4.244   4.060   3.370
 2829SOL    HW2 8499   4.081   4.058   3.365
 2830SOL     OW 8500   3.846   4.367   2.425
 2830SOL    HW1 8501   3.801   4.279   2.442
 2830SOL    HW2 8502   3.845   4.421   2.509
 2831SOL     OW 8503   3.837   4.461   3.459
 2831SOL    HW1 8504   3.925   4.448   3.504
 2831SOL    HW2 8505   3.824   4.558   3.437
 2832SOL     OW 8506   4.533   3.728   2.364
 2832SOL    HW1 8507   4.573   3.819   2.355
 2832SOL    HW2 8508   4.433   3.736   2.370
 2833SOL     OW 8509   4.041   3.975   3.663
 2833SOL    HW1 8510   4.112   4.046   3.669
 2833SOL    HW2 8511   3.953   4.014   3.691
 2834SOL     OW 8512   4.274   3.920   2.747
 2834SOL    HW1 8513   4.269   3.915   2.847
 2834SOL    HW2 8514   4.276   4.016   2.718
 2835SOL     OW 8515   3.926   4.009   3.360
 2835SOL    HW1 8516   3.846   4.069   3.347
 2835SOL    HW2 8517   3.916   3.960   3.446
 2836SOL     OW 8518   4.338   3.846   1.979
 2836SOL    HW1 8519   4.436   3.824   1.986
 2836SOL    HW2 8520   4.307   3.829   1.886
 2837SOL     OW 8521   4.263   3.788   2.374
 2837SOL    HW1 8522   4.182   3.789   2.432
 2837SOL    HW2 8523   4.266   3.871   2.319
 2838SOL     OW 8524   4.021   3.759   2.033
 2838SOL    HW1 8525   4.070   3.843   2.012
 2838SOL    HW2 8526   4.083   3.694   2.078
 2839SOL     OW 8527   4.659   3.960   2.342
 2839SOL    HW1 8528   4.611   4.001   2.264
 2839SOL    HW2 8529   4.758   3.958   2.323
 2840SOL     OW 8530   3.802   4.280   3.248
 2840SOL    HW1 8531   3.894   4.279   3.207
 2840SOL    HW2 8532   3.796   4.354   3.315
 2841SOL     OW 8533   4.285   3.946   3.009
 2841SOL    HW1 8534   4.323   3.862   3.046
 2841SOL    HW2 8535   4.197   3.965   3.053
 2842SOL     OW 8536   4.251   3.980   2.190
 2842SOL    HW1 8537   4.278   3.921   2.115
 2842SOL    HW2 8538   4.251   4.075   2.159
 2843SOL     OW 8539   4.290   4.261   2.727
 2843SOL    HW1 8540   4.302   4.327   2.653
 2843SOL    HW2 8541   4.336   4.295   2.810
 2844SOL     OW 8542   4.228   3.774   3.602
 2844SOL    HW1 8543   4.186   3.717   3.532
 2844SOL    HW2 8544   4.162   3.843   3.634
 2845SOL     OW 8545   4.031   3.937   3.093
 2845SOL    HW1 8546   4.008   3.974   3.183
 2845SOL    HW2 8547   4.001   3.842   3.087
 2846SOL     OW 8548   4.031   3.787   2.480
 2846SOL    HW1 8549   4.020   3.881   2.513
 2846SOL    HW2 8550   4.026   3.724   2.557
 2847SOL     OW 8551   4.043   4.534   2.811
 2847SOL    HW1 8552   4.136   4.570   2.816
 2847SOL    HW2 8553   4.037   4.449   2.863
 2848SOL     OW 8554   4.063   4.233   2.868
 2848SOL    HW1 8555   4.011   4.150   2.851
 2848SOL    HW2 8556   4.140   4.238   2.804
 2849SOL     OW 8557   3.764   4.268   2.976
 2849SOL    HW1 8558   3.849   4.235   2.935
 2849SOL    HW2 8559   3.777   4.283   3.074
 2850SOL     OW 8560   3.913   4.244   3.584
 2850SOL    HW1 8561   3.972   4.204   3.514
 2850SOL    HW2 8562   3.855   4.315   3.543
 2851SOL     OW 8563   4.539   4.296   2.187
 2851SOL    HW1 8564   4.546   4.207   2.141
 2851SOL    HW2 8565   4.445   4.330   2.179
 2852SOL     OW 8566   4.197   4.224   2.053
 2852SOL    HW1 8567   4.258   4.304   2.057
 2852SOL    HW2 8568   4.102   4.255   2.060
 2853SOL     OW 8569   3.987   4.050   2.582
 2853SOL    HW1 8570   3.908   4.101   2.548
 2853SOL    HW2 8571   3.978   4.035   2.680
 2854SOL     OW 8572   4.396   3.927   3.351
 2854SOL    HW1 8573   4.486   3.911   3.311
 2854SOL    HW2 8574   4.404   3.932   3.450
 2855SOL     OW 8575   3.799   4.069   1.895
 2855SOL    HW1 8576   3.707   4.041   1.866
 2855SOL    HW2 8577   3.830   4.146   1.839
 2856SOL     OW 8578   3.796   3.890   2.180
 2856SOL    HW1 8579   3.779   3.973   2.126
 2856SOL    HW2 8580   3.886   3.853   2.158
 2857SOL     OW 8581   4.152   4.148   2.382
 2857SOL    HW1 8582   4.182   4.076   2.320
 2857SOL    HW2 8583   4.113   4.108   2.465
 2858SOL     OW 8584   4.041   4.271   3.142
 2858SOL    HW1 8585   4.079   4.212   3.214
 2858SOL    HW2 8586   4.081   4.245   3.054
 2859SOL     OW 8587   3.846   4.367   4.287
 2859SOL    HW1 8588   3.801   4.279   4.304
 2859SOL    HW2 8589   3.845   4.421   4.371
 2860SOL     OW 8590   4.533   3.728   4.226
 2860SOL    HW1 8591   4.573   3.819   4.217
 2860SOL    HW2 8592   4.433   3.736   4.232
 2861SOL     OW 8593   4.338   3.846   3.841
 2861SOL    HW1 8594   4.436   3.824   3.848
 2861SOL    HW2 8595   4.307   3.829   3.748
 2862SOL     OW 8596   4.263   3.788   4.236
 2862SOL    HW1 8597   4.182   3.789   4.294
 2862SOL    HW2 8598   4.266   3.871   4.181
 2863SOL     OW 8599   4.021   3.759   3.895
 2863SOL    HW1 8600   4.070   3.843   3.874
 2863SOL    HW2 8601   4.083   3.694   3.940
 2864SOL     OW 8602   4.659   3.960   4.204
 2864SOL    HW1 8603   4.611   4.001   4.126
 2864SOL    HW2 8604   4.758   3.958   4.185
 2865SOL     OW 8605   4.251   3.980   4.052
 2865SOL    HW1 8606   4.278   3.921   3.977
 2865SOL    HW2 8607   4.251   4.075   4.021
 2866SOL     OW 8608   4.031   3.787   4.342
 2866SOL    HW1 8609   4.020   3.881   4.375
 2866SOL    HW2 8610   4.026   3.724   4.419
 2867SOL     OW 8611   4.539   4.296   4.049
 2867SOL    HW1 8612   4.546   4.207   4.003
 2867SOL    HW2 8613   4.445   4.330   4.041
 2868SOL     OW 8614   4.197   4.224   3.915
 2868SOL    HW1 8615   4.258   4.304   3.919
 2868SOL    HW2 8616   4.102   4.255   3.922
 2869SOL     OW 8617   3.799   4.069   3.757
 2869SOL    HW1 8618   3.707   4.041   3.728
 2869SOL    HW2 8619   3.830   4.146   3.701
 2870SOL     OW 8620   3.796   3.890   4.042
 2870SOL    HW1 8621   3.779   3.973   3.988
 2870SOL    HW2 8622   3.886   3.853   4.020
 2871SOL     OW 8623   4.152   4.148   4.244
 2871SOL    HW1 8624   4.182   4.076   4.182
 2871SOL    HW2 8625   4.113   4.108   4.327
   4.44630   4.44630   4.44630
