mobley_3323117_GMX.gro created by acpype (v: 2023.10.27) on Thu May 21 00:04:10 2026
   15
    1MOL     C1    1   2.247   2.310   2.131
    1MOL     C2    2   2.132   2.314   2.231
    1MOL     C3    3   2.357   2.227   2.195
    1MOL     C4    4   2.109   2.170   2.275
    1MOL     O1    5   2.316   2.098   2.421
    1MOL     O2    6   2.273   1.977   2.202
    1MOL     S1    7   2.272   2.097   2.283
    1MOL     H1    8   2.213   2.262   2.038
    1MOL     H2    9   2.282   2.411   2.105
    1MOL     H3   10   2.161   2.375   2.318
    1MOL     H4   11   2.041   2.358   2.188
    1MOL     H5   12   2.425   2.184   2.122
    1MOL     H6   13   2.413   2.286   2.268
    1MOL     H7   14   2.060   2.163   2.372
    1MOL     H8   15   2.052   2.115   2.200
   4.44630   4.44630   4.44630
