mobley_6081058_GMX.gro created by acpype (v: 2023.10.27) on Wed May 20 23:45:01 2026
   23
    1MOL     C1    1   2.724   2.719   2.697
    1MOL     C2    2   2.693   2.592   2.668
    1MOL     C3    3   2.865   2.755   2.723
    1MOL     C4    4   2.233   2.349   2.299
    1MOL     C5    5   2.553   2.546   2.641
    1MOL     C6    6   2.375   2.392   2.329
    1MOL     C7    7   2.533   2.490   2.500
    1MOL     C8    8   2.388   2.450   2.470
    1MOL     O1    9   2.898   2.870   2.750
    1MOL     H1   10   2.649   2.798   2.702
    1MOL     H2   11   2.771   2.517   2.665
    1MOL     H3   12   2.938   2.673   2.717
    1MOL     H4   13   2.200   2.271   2.369
    1MOL     H5   14   2.226   2.308   2.198
    1MOL     H6   15   2.164   2.433   2.307
    1MOL     H7   16   2.527   2.469   2.715
    1MOL     H8   17   2.482   2.628   2.656
    1MOL     H9   18   2.406   2.467   2.255
    1MOL    H10   19   2.442   2.306   2.317
    1MOL    H11   20   2.600   2.404   2.484
    1MOL    H12   21   2.564   2.568   2.428
    1MOL    H13   22   2.323   2.537   2.480
    1MOL    H14   23   2.355   2.374   2.542
   5.03544   5.03544   5.03544
