mobley_352111_GMX.gro created by acpype (v: 2023.10.27) on Wed May 20 23:52:54 2026
 20
    1  MOL   C1    1  -0.071   0.132  -0.155
    1  MOL   C2    2  -0.475  -0.212  -0.247
    1  MOL   C3    3  -0.013   0.111  -0.018
    1  MOL   C4    4  -0.432  -0.353  -0.220
    1  MOL   C5    5  -0.259   0.081  -0.289
    1  MOL   C6    6  -0.391   0.006  -0.282
    1  MOL   O1    7  -0.017   0.197  -0.243
    1  MOL   O2    8  -0.591  -0.177  -0.260
    1  MOL   O3    9  -0.192   0.069  -0.163
    1  MOL   O4   10  -0.365  -0.131  -0.256
    1  MOL   H1   11   0.003   0.004  -0.001
    1  MOL   H2   12  -0.080   0.153   0.057
    1  MOL   H3   13   0.083   0.162  -0.012
    1  MOL   H4   14  -0.379  -0.358  -0.124
    1  MOL   H5   15  -0.369  -0.389  -0.301
    1  MOL   H6   16  -0.521  -0.417  -0.213
    1  MOL   H7   17  -0.275   0.187  -0.309
    1  MOL   H8   18  -0.195   0.038  -0.366
    1  MOL   H9   19  -0.445   0.013  -0.377
    1  MOL  H10   20  -0.453   0.045  -0.201
   13.48800    12.27200     8.68600
