; mobley_352111_GMX.itp created by acpype (v: 2023.10.27) on Wed May 20 23:52:54 2026

[ atomtypes ]
;name   bond_type     mass     charge   ptype   sigma         epsilon       Amb
 c        c           0.00000  0.00000   A     3.31521e-01   4.13379e-01 ; 1.86  0.0988
 c3       c3          0.00000  0.00000   A     3.39771e-01   4.51035e-01 ; 1.91  0.1078
 o        o           0.00000  0.00000   A     3.04812e-01   6.12119e-01 ; 1.71  0.1463
 os       os          0.00000  0.00000   A     3.15610e-01   3.03758e-01 ; 1.77  0.0726
 hc       hc          0.00000  0.00000   A     2.60018e-01   8.70272e-02 ; 1.46  0.0208
 h1       h1          0.00000  0.00000   A     2.42200e-01   8.70272e-02 ; 1.36  0.0208

[ moleculetype ]
;name            nrexcl
 mobley_352111    3

[ atoms ]
;   nr  type  resi  res  atom  cgnr     charge      mass       ; qtot   bond_type
     1    c     1   MOL    C1    1     0.635101     12.01000 ; qtot 0.635
     2    c     1   MOL    C2    2     0.635101     12.01000 ; qtot 1.270
     3   c3     1   MOL    C3    3    -0.150100     12.01000 ; qtot 1.120
     4   c3     1   MOL    C4    4    -0.150100     12.01000 ; qtot 0.970
     5   c3     1   MOL    C5    5     0.133400     12.01000 ; qtot 1.103
     6   c3     1   MOL    C6    6     0.133400     12.01000 ; qtot 1.237
     7    o     1   MOL    O1    7    -0.544000     16.00000 ; qtot 0.693
     8    o     1   MOL    O2    8    -0.544000     16.00000 ; qtot 0.149
     9   os     1   MOL    O3    9    -0.443900     16.00000 ; qtot -0.295
    10   os     1   MOL    O4   10    -0.443900     16.00000 ; qtot -0.739
    11   hc     1   MOL    H1   11     0.077033      1.00800 ; qtot -0.662
    12   hc     1   MOL    H2   12     0.077033      1.00800 ; qtot -0.585
    13   hc     1   MOL    H3   13     0.077033      1.00800 ; qtot -0.508
    14   hc     1   MOL    H4   14     0.077033      1.00800 ; qtot -0.431
    15   hc     1   MOL    H5   15     0.077033      1.00800 ; qtot -0.354
    16   hc     1   MOL    H6   16     0.077033      1.00800 ; qtot -0.277
    17   h1     1   MOL    H7   17     0.069200      1.00800 ; qtot -0.208
    18   h1     1   MOL    H8   18     0.069200      1.00800 ; qtot -0.138
    19   h1     1   MOL    H9   19     0.069200      1.00800 ; qtot -0.069
    20   h1     1   MOL   H10   20     0.069200      1.00800 ; qtot -0.000

[ bonds ]
;   ai     aj funct   r             k
     1      3   1    1.5270e-01    1.9652e+05 ;     C1 - C3    
     1      7   1    1.2190e-01    4.9421e+05 ;     C1 - O1    
     1      9   1    1.3621e-01    2.9398e+05 ;     C1 - O3    
     2      4   1    1.5270e-01    1.9652e+05 ;     C2 - C4    
     2      8   1    1.2190e-01    4.9421e+05 ;     C2 - O2    
     2     10   1    1.3621e-01    2.9398e+05 ;     C2 - O4    
     3     11   1    1.0962e-01    2.8891e+05 ;     C3 - H1    
     3     12   1    1.0962e-01    2.8891e+05 ;     C3 - H2    
     3     13   1    1.0962e-01    2.8891e+05 ;     C3 - H3    
     4     14   1    1.0962e-01    2.8891e+05 ;     C4 - H4    
     4     15   1    1.0962e-01    2.8891e+05 ;     C4 - H5    
     4     16   1    1.0962e-01    2.8891e+05 ;     C4 - H6    
     5      6   1    1.5354e-01    1.9154e+05 ;     C5 - C6    
     5      9   1    1.4273e-01    2.3620e+05 ;     C5 - O3    
     5     17   1    1.0969e-01    2.8804e+05 ;     C5 - H7    
     5     18   1    1.0969e-01    2.8804e+05 ;     C5 - H8    
     6     10   1    1.4273e-01    2.3620e+05 ;     C6 - O4    
     6     19   1    1.0969e-01    2.8804e+05 ;     C6 - H9    
     6     20   1    1.0969e-01    2.8804e+05 ;     C6 - H10   

[ pairs ]
;   ai     aj    funct
     1      6      1 ;     C1 - C6    
     1     17      1 ;     C1 - H7    
     1     18      1 ;     C1 - H8    
     2      5      1 ;     C2 - C5    
     2     19      1 ;     C2 - H9    
     2     20      1 ;     C2 - H10   
     3      5      1 ;     C3 - C5    
     4      6      1 ;     C4 - C6    
     6      8      1 ;     C6 - O2    
     7      5      1 ;     O1 - C5    
     7     11      1 ;     O1 - H1    
     7     12      1 ;     O1 - H2    
     7     13      1 ;     O1 - H3    
     8     14      1 ;     O2 - H4    
     8     15      1 ;     O2 - H5    
     8     16      1 ;     O2 - H6    
     9     10      1 ;     O3 - O4    
     9     11      1 ;     O3 - H1    
     9     12      1 ;     O3 - H2    
     9     13      1 ;     O3 - H3    
     9     19      1 ;     O3 - H9    
     9     20      1 ;     O3 - H10   
    10     14      1 ;     O4 - H4    
    10     15      1 ;     O4 - H5    
    10     16      1 ;     O4 - H6    
    10     17      1 ;     O4 - H7    
    10     18      1 ;     O4 - H8    
    17     19      1 ;     H7 - H9    
    17     20      1 ;     H7 - H10   
    18     19      1 ;     H8 - H9    
    18     20      1 ;     H8 - H10   

[ angles ]
;   ai     aj     ak    funct   theta         cth
     1      3     11      1    1.0895e+02    3.6510e+02 ;     C1 - C3     - H1    
     1      3     12      1    1.0895e+02    3.6510e+02 ;     C1 - C3     - H2    
     1      3     13      1    1.0895e+02    3.6510e+02 ;     C1 - C3     - H3    
     1      9      5      1    1.1582e+02    7.4835e+02 ;     C1 - O3     - C5    
     2      4     14      1    1.0895e+02    3.6510e+02 ;     C2 - C4     - H4    
     2      4     15      1    1.0895e+02    3.6510e+02 ;     C2 - C4     - H5    
     2      4     16      1    1.0895e+02    3.6510e+02 ;     C2 - C4     - H6    
     2     10      6      1    1.1582e+02    7.4835e+02 ;     C2 - O4     - C6    
     3      1      7      1    1.2290e+02    6.3973e+02 ;     C3 - C1     - O1    
     3      1      9      1    1.1080e+02    6.5245e+02 ;     C3 - C1     - O3    
     4      2      8      1    1.2290e+02    6.3973e+02 ;     C4 - C2     - O2    
     4      2     10      1    1.1080e+02    6.5245e+02 ;     C4 - C2     - O4    
     5      6     10      1    1.0762e+02    6.4802e+02 ;     C5 - C6     - O4    
     5      6     19      1    1.0959e+02    3.6217e+02 ;     C5 - C6     - H9    
     5      6     20      1    1.0959e+02    3.6217e+02 ;     C5 - C6     - H10   
     6      5      9      1    1.0762e+02    6.4802e+02 ;     C6 - C5     - O3    
     6      5     17      1    1.0959e+02    3.6217e+02 ;     C6 - C5     - H7    
     6      5     18      1    1.0959e+02    3.6217e+02 ;     C6 - C5     - H8    
     7      1      9      1    1.2320e+02    8.4734e+02 ;     O1 - C1     - O3    
     8      2     10      1    1.2320e+02    8.4734e+02 ;     O2 - C2     - O4    
     9      5     17      1    1.1034e+02    4.7028e+02 ;     O3 - C5     - H7    
     9      5     18      1    1.1034e+02    4.7028e+02 ;     O3 - C5     - H8    
    10      6     19      1    1.1034e+02    4.7028e+02 ;     O4 - C6     - H9    
    10      6     20      1    1.1034e+02    4.7028e+02 ;     O4 - C6     - H10   
    11      3     12      1    1.0773e+02    2.9957e+02 ;     H1 - C3     - H2    
    11      3     13      1    1.0773e+02    2.9957e+02 ;     H1 - C3     - H3    
    12      3     13      1    1.0773e+02    2.9957e+02 ;     H2 - C3     - H3    
    14      4     15      1    1.0773e+02    2.9957e+02 ;     H4 - C4     - H5    
    14      4     16      1    1.0773e+02    2.9957e+02 ;     H4 - C4     - H6    
    15      4     16      1    1.0773e+02    2.9957e+02 ;     H5 - C4     - H6    
    17      5     18      1    1.0855e+02    2.9824e+02 ;     H7 - C5     - H8    
    19      6     20      1    1.0855e+02    2.9824e+02 ;     H9 - C6     - H10   

[ dihedrals ] ; propers
; for gromacs 4.5 or higher, using funct 9
;    i      j      k      l   func   phase     kd      pn
     1      9      5      6      9     0.00   1.60247   3 ;     C1-    O3-    C5-    C6
     1      9      5      6      9   180.00   3.34720   1 ;     C1-    O3-    C5-    C6
     1      9      5     17      9     0.00   1.60387   3 ;     C1-    O3-    C5-    H7
     1      9      5     18      9     0.00   1.60387   3 ;     C1-    O3-    C5-    H8
     2     10      6      5      9     0.00   1.60247   3 ;     C2-    O4-    C6-    C5
     2     10      6      5      9   180.00   3.34720   1 ;     C2-    O4-    C6-    C5
     2     10      6     19      9     0.00   1.60387   3 ;     C2-    O4-    C6-    H9
     2     10      6     20      9     0.00   1.60387   3 ;     C2-    O4-    C6-   H10
     3      1      9      5      9     0.00   3.13800   3 ;     C3-    C1-    O3-    C5
     3      1      9      5      9   180.00   7.90776   1 ;     C3-    C1-    O3-    C5
     3      1      9      5      9   180.00  13.76536   2 ;     C3-    C1-    O3-    C5
     4      2     10      6      9     0.00   3.13800   3 ;     C4-    C2-    O4-    C6
     4      2     10      6      9   180.00   7.90776   1 ;     C4-    C2-    O4-    C6
     4      2     10      6      9   180.00  13.76536   2 ;     C4-    C2-    O4-    C6
     6     10      2      8      9   180.00   5.85760   1 ;     C6-    O4-    C2-    O2
     6     10      2      8      9   180.00  11.29680   2 ;     C6-    O4-    C2-    O2
     7      1      3     11      9     0.00  16.86152   1 ;     O1-    C1-    C3-    H1
     7      1      3     11      9   180.00  15.31344   2 ;     O1-    C1-    C3-    H1
     7      1      3     12      9     0.00  16.86152   1 ;     O1-    C1-    C3-    H2
     7      1      3     12      9   180.00  15.31344   2 ;     O1-    C1-    C3-    H2
     7      1      3     13      9     0.00  16.86152   1 ;     O1-    C1-    C3-    H3
     7      1      3     13      9   180.00  15.31344   2 ;     O1-    C1-    C3-    H3
     7      1      9      5      9   180.00   5.85760   1 ;     O1-    C1-    O3-    C5
     7      1      9      5      9   180.00  11.29680   2 ;     O1-    C1-    O3-    C5
     8      2      4     14      9     0.00  16.86152   1 ;     O2-    C2-    C4-    H4
     8      2      4     14      9   180.00  15.31344   2 ;     O2-    C2-    C4-    H4
     8      2      4     15      9     0.00  16.86152   1 ;     O2-    C2-    C4-    H5
     8      2      4     15      9   180.00  15.31344   2 ;     O2-    C2-    C4-    H5
     8      2      4     16      9     0.00  16.86152   1 ;     O2-    C2-    C4-    H6
     8      2      4     16      9   180.00  15.31344   2 ;     O2-    C2-    C4-    H6
     9      1      3     11      9   180.00   0.00000   2 ;     O3-    C1-    C3-    H1
     9      1      3     12      9   180.00   0.00000   2 ;     O3-    C1-    C3-    H2
     9      1      3     13      9   180.00   0.00000   2 ;     O3-    C1-    C3-    H3
     9      5      6     10      9     0.00   0.75312   1 ;     O3-    C5-    C6-    O4
     9      5      6     10      9     0.00   2.09200   3 ;     O3-    C5-    C6-    O4
     9      5      6     10      9     0.00   3.76560   2 ;     O3-    C5-    C6-    O4
     9      5      6     19      9     0.00   0.00000   0 ;     O3-    C5-    C6-    H9
     9      5      6     19      9     0.00   1.04600   1 ;     O3-    C5-    C6-    H9
     9      5      6     20      9     0.00   0.00000   0 ;     O3-    C5-    C6-   H10
     9      5      6     20      9     0.00   1.04600   1 ;     O3-    C5-    C6-   H10
    10      2      4     14      9   180.00   0.00000   2 ;     O4-    C2-    C4-    H4
    10      2      4     15      9   180.00   0.00000   2 ;     O4-    C2-    C4-    H5
    10      2      4     16      9   180.00   0.00000   2 ;     O4-    C2-    C4-    H6
    10      6      5     17      9     0.00   0.00000   0 ;     O4-    C6-    C5-    H7
    10      6      5     17      9     0.00   1.04600   1 ;     O4-    C6-    C5-    H7
    10      6      5     18      9     0.00   0.00000   0 ;     O4-    C6-    C5-    H8
    10      6      5     18      9     0.00   1.04600   1 ;     O4-    C6-    C5-    H8
    17      5      6     19      9     0.00   0.65084   3 ;     H7-    C5-    C6-    H9
    17      5      6     20      9     0.00   0.65084   3 ;     H7-    C5-    C6-   H10
    18      5      6     19      9     0.00   0.65084   3 ;     H8-    C5-    C6-    H9
    18      5      6     20      9     0.00   0.65084   3 ;     H8-    C5-    C6-   H10

[ dihedrals ] ; impropers
; treated as propers in GROMACS to use correct AMBER analytical function
;    i      j      k      l   func   phase     kd      pn
     4      8      2     10      4   180.00   4.60240   2 ;     C4-    O2-    C2-    O4
     9      1      7      3      4   180.00   4.60240   2 ;     O3-    C1-    O1-    C3
