%VERSION  VERSION_STAMP = V0001.000  DATE = 05/20/26  23:53:04                  
%FLAG TITLE                                                                     
%FORMAT(20a4)                                                                   
12_diacetoxyethane                                                              
%FLAG POINTERS                                                                  
%FORMAT(10I8)                                                                   
      20       6      10       9      22      10      34      19       0       0
      85       1       9      10      19       7      10      18       6       0
       0       0       0       0       0       0       0       0      20       0
       0
%FLAG ATOM_NAME                                                                 
%FORMAT(20a4)                                                                   
C1  C2  C3  C4  C5  C6  O1  O2  O3  O4  H1  H2  H3  H4  H5  H6  H7  H8  H9  H10 
%FLAG CHARGE                                                                    
%FORMAT(5E16.8)                                                                 
  1.15729827E+01  1.15729827E+01 -2.73516723E+00 -2.73516723E+00  2.43085482E+00
  2.43085482E+00 -9.91293120E+00 -9.91293120E+00 -8.08887897E+00 -8.08887897E+00
  1.40371844E+00  1.40371844E+00  1.40371844E+00  1.40371844E+00  1.40371844E+00
  1.40371844E+00  1.26098316E+00  1.26098316E+00  1.26098316E+00  1.26098316E+00
%FLAG ATOMIC_NUMBER                                                             
%FORMAT(10I8)                                                                   
       6       6       6       6       6       6       8       8       8       8
       1       1       1       1       1       1       1       1       1       1
%FLAG MASS                                                                      
%FORMAT(5E16.8)                                                                 
  1.20100000E+01  1.20100000E+01  1.20100000E+01  1.20100000E+01  1.20100000E+01
  1.20100000E+01  1.60000000E+01  1.60000000E+01  1.60000000E+01  1.60000000E+01
  1.00800000E+00  1.00800000E+00  1.00800000E+00  1.00800000E+00  1.00800000E+00
  1.00800000E+00  1.00800000E+00  1.00800000E+00  1.00800000E+00  1.00800000E+00
%FLAG ATOM_TYPE_INDEX                                                           
%FORMAT(10I8)                                                                   
       1       1       2       2       2       2       3       3       4       4
       5       5       5       5       5       5       6       6       6       6
%FLAG NUMBER_EXCLUDED_ATOMS                                                     
%FORMAT(10I8)                                                                   
      10      10       6       6       8       7       4       4       8       7
       2       1       1       2       1       1       3       2       1       1
%FLAG NONBONDED_PARM_INDEX                                                      
%FORMAT(10I8)                                                                   
       1       2       4       7      11      16       2       3       5       8
      12      17       4       5       6       9      13      18       7       8
       9      10      14      19      11      12      13      14      15      20
      16      17      18      19      20      21
%FLAG RESIDUE_LABEL                                                             
%FORMAT(20a4)                                                                   
MOL 
%FLAG RESIDUE_POINTER                                                           
%FORMAT(10I8)                                                                   
       1
%FLAG BOND_FORCE_CONSTANT                                                       
%FORMAT(5E16.8)                                                                 
  2.34850000E+02  5.90600000E+02  3.51310000E+02  3.45250000E+02  2.28890000E+02
  2.82270000E+02  3.44220000E+02
%FLAG BOND_EQUIL_VALUE                                                          
%FORMAT(5E16.8)                                                                 
  1.52700000E+00  1.21900000E+00  1.36210000E+00  1.09620000E+00  1.53540000E+00
  1.42730000E+00  1.09690000E+00
%FLAG ANGLE_FORCE_CONSTANT                                                      
%FORMAT(5E16.8)                                                                 
  4.36300000E+01  8.94300000E+01  7.64500000E+01  7.79700000E+01  7.74400000E+01
  4.32800000E+01  1.01260000E+02  5.62000000E+01  3.58000000E+01  3.56400000E+01
%FLAG ANGLE_EQUIL_VALUE                                                         
%FORMAT(5E16.8)                                                                 
  1.90153704E+00  2.02144121E+00  2.14501057E+00  1.93382564E+00  1.87832415E+00
  1.91270715E+00  2.15024656E+00  1.92579712E+00  1.88024401E+00  1.89455572E+00
%FLAG DIHEDRAL_FORCE_CONSTANT                                                   
%FORMAT(5E16.8)                                                                 
  8.00000000E-01  3.83000000E-01  3.83333333E-01  1.89000000E+00  3.29000000E+00
  7.50000000E-01  1.40000000E+00  2.70000000E+00  4.03000000E+00  3.66000000E+00
  0.00000000E+00  1.80000000E-01  9.00000000E-01  5.00000000E-01  2.50000000E-01
  0.00000000E+00  1.55555556E-01  1.10000000E+00
%FLAG DIHEDRAL_PERIODICITY                                                      
%FORMAT(5E16.8)                                                                 
  1.00000000E+00  3.00000000E+00  3.00000000E+00  1.00000000E+00  2.00000000E+00
  3.00000000E+00  1.00000000E+00  2.00000000E+00  1.00000000E+00  2.00000000E+00
  2.00000000E+00  1.00000000E+00  2.00000000E+00  3.00000000E+00  1.00000000E+00
  3.00000000E+00  3.00000000E+00  2.00000000E+00
%FLAG DIHEDRAL_PHASE                                                            
%FORMAT(5E16.8)                                                                 
  3.14159400E+00  0.00000000E+00  0.00000000E+00  3.14159400E+00  3.14159400E+00
  0.00000000E+00  3.14159400E+00  3.14159400E+00  0.00000000E+00  3.14159400E+00
  3.14159400E+00  0.00000000E+00  0.00000000E+00  0.00000000E+00  0.00000000E+00
  0.00000000E+00  0.00000000E+00  3.14159400E+00
%FLAG SCEE_SCALE_FACTOR                                                         
%FORMAT(5E16.8)                                                                 
  1.20000000E+00  1.20000000E+00  1.20000000E+00  1.20000000E+00  1.20000000E+00
  1.20000000E+00  1.20000000E+00  1.20000000E+00  1.20000000E+00  1.20000000E+00
  1.20000000E+00  1.20000000E+00  1.20000000E+00  1.20000000E+00  1.20000000E+00
  1.20000000E+00  1.20000000E+00  0.00000000E+00
%FLAG SCNB_SCALE_FACTOR                                                         
%FORMAT(5E16.8)                                                                 
  2.00000000E+00  2.00000000E+00  2.00000000E+00  2.00000000E+00  2.00000000E+00
  2.00000000E+00  2.00000000E+00  2.00000000E+00  2.00000000E+00  2.00000000E+00
  2.00000000E+00  2.00000000E+00  2.00000000E+00  2.00000000E+00  2.00000000E+00
  2.00000000E+00  2.00000000E+00  0.00000000E+00
%FLAG SOLTY                                                                     
%FORMAT(5E16.8)                                                                 
  0.00000000E+00  0.00000000E+00  0.00000000E+00  0.00000000E+00  0.00000000E+00
  0.00000000E+00
%FLAG LENNARD_JONES_ACOEF                                                       
%FORMAT(5E16.8)                                                                 
  6.96551276E+05  8.43969952E+05  1.02073671E+06  5.17507491E+05  6.30925504E+05
  3.76435470E+05  4.46121722E+05  5.42502534E+05  3.27367585E+05  2.83662575E+05
  8.12662403E+04  1.00235148E+05  5.68021765E+04  5.02224902E+04  7.94617769E+03
  5.63013422E+04  6.97998263E+04  3.86646725E+04  3.44374471E+04  5.22955465E+03
  3.39005767E+03
%FLAG LENNARD_JONES_BCOEF                                                       
%FORMAT(5E16.8)                                                                 
  5.24668528E+02  5.90251928E+02  6.63431737E+02  4.98871431E+02  5.62969425E+02
  4.69350655E+02  3.88758656E+02  4.38146883E+02  3.67361018E+02  2.87011518E+02
  1.21392023E+02  1.37787728E+02  1.11953944E+02  8.83545880E+01  2.57122925E+01
  1.01040256E+02  1.14981426E+02  9.23664132E+01  7.31636661E+01  2.08590256E+01
  1.67944276E+01
%FLAG BONDS_INC_HYDROGEN                                                        
%FORMAT(10I8)                                                                   
       6      30       4       6      33       4       6      36       4       9
      39       4       9      42       4       9      45       4      12      48
       7      12      51       7      15      54       7      15      57       7
%FLAG BONDS_WITHOUT_HYDROGEN                                                    
%FORMAT(10I8)                                                                   
       0       6       1       0      18       2       0      24       3       3
       9       1       3      21       2       3      27       3      12      15
       5      12      24       6      15      27       6
%FLAG ANGLES_INC_HYDROGEN                                                       
%FORMAT(10I8)                                                                   
       0       6      30       1       0       6      33       1       0       6
      36       1       3       9      39       1       3       9      42       1
       3       9      45       1      12      15      54       6      12      15
      57       6      15      12      48       6      15      12      51       6
      24      12      48       8      24      12      51       8      27      15
      54       8      27      15      57       8      30       6      33       9
      30       6      36       9      33       6      36       9      39       9
      42       9      39       9      45       9      42       9      45       9
      48      12      51      10      54      15      57      10
%FLAG ANGLES_WITHOUT_HYDROGEN                                                   
%FORMAT(10I8)                                                                   
       0      24      12       2       3      27      15       2       6       0
      18       3       6       0      24       4       9       3      21       3
       9       3      27       4      12      15      27       5      15      12
      24       5      18       0      24       7      21       3      27       7
%FLAG DIHEDRALS_INC_HYDROGEN                                                    
%FORMAT(10I8)                                                                   
       0      24      12      48       3       0      24      12      51       3
       3      27      15      54       3       3      27      15      57       3
      18       0       6      30       9      18       0      -6      30      10
      18       0       6      33       9      18       0      -6      33      10
      18       0       6      36       9      18       0      -6      36      10
      21       3       9      39       9      21       3      -9      39      10
      21       3       9      42       9      21       3      -9      42      10
      21       3       9      45       9      21       3      -9      45      10
      24       0       6      30      11      24       0       6      33      11
      24       0       6      36      11      24      12      15      54      15
      24      12     -15      54      16      24      12      15      57      15
      24      12     -15      57      16      27       3       9      39      11
      27       3       9      42      11      27       3       9      45      11
      27      15      12      48      15      27      15     -12      48      16
      27      15      12      51      15      27      15     -12      51      16
      48      12      15      54      17      48      12      15      57      17
      51      12      15      54      17      51      12      15      57      17
%FLAG DIHEDRALS_WITHOUT_HYDROGEN                                                
%FORMAT(10I8)                                                                   
       0      24      12      15       1       0      24     -12      15       2
       3      27      15      12       1       3      27     -15      12       2
       6       0      24      12       4       6       0     -24      12       5
       6       0     -24      12       6       9       3      27      15       4
       9       3     -27      15       5       9       3     -27      15       6
      18       0      24      12       7      18       0     -24      12       8
      15      27       3      21       7      15      27      -3      21       8
      24      12      15      27      12      24      12     -15      27      13
      24      12     -15      27      14      24       0     -18      -6      18
       9      21      -3     -27      18
%FLAG EXCLUDED_ATOMS_LIST                                                       
%FORMAT(10I8)                                                                   
       3       5       6       7       9      11      12      13      17      18
       4       5       6       8      10      14      15      16      19      20
       5       7       9      11      12      13       6       8      10      14
      15      16       6       7       9      10      17      18      19      20
       8       9      10      17      18      19      20       9      11      12
      13      10      14      15      16      10      11      12      13      17
      18      19      20      14      15      16      17      18      19      20
      12      13      13       0      15      16      16       0      18      19
      20      19      20      20       0
%FLAG HBOND_ACOEF                                                               
%FORMAT(5E16.8)                                                                 

%FLAG HBOND_BCOEF                                                               
%FORMAT(5E16.8)                                                                 

%FLAG HBCUT                                                                     
%FORMAT(5E16.8)                                                                 

%FLAG AMBER_ATOM_TYPE                                                           
%FORMAT(20a4)                                                                   
c   c   c3  c3  c3  c3  o   o   os  os  hc  hc  hc  hc  hc  hc  h1  h1  h1  h1  
%FLAG TREE_CHAIN_CLASSIFICATION                                                 
%FORMAT(20a4)                                                                   
BLA BLA BLA BLA BLA BLA BLA BLA BLA BLA BLA BLA BLA BLA BLA BLA BLA BLA BLA BLA 
%FLAG JOIN_ARRAY                                                                
%FORMAT(10I8)                                                                   
       0       0       0       0       0       0       0       0       0       0
       0       0       0       0       0       0       0       0       0       0
%FLAG IROTAT                                                                    
%FORMAT(10I8)                                                                   
       0       0       0       0       0       0       0       0       0       0
       0       0       0       0       0       0       0       0       0       0
%FLAG RADIUS_SET                                                                
%FORMAT(1a80)                                                                   
modified Bondi radii (mbondi)                                                   
%FLAG RADII                                                                     
%FORMAT(5E16.8)                                                                 
  1.70000000E+00  1.70000000E+00  1.70000000E+00  1.70000000E+00  1.70000000E+00
  1.70000000E+00  1.50000000E+00  1.50000000E+00  1.50000000E+00  1.50000000E+00
  1.30000000E+00  1.30000000E+00  1.30000000E+00  1.30000000E+00  1.30000000E+00
  1.30000000E+00  1.30000000E+00  1.30000000E+00  1.30000000E+00  1.30000000E+00
%FLAG SCREEN                                                                    
%FORMAT(5E16.8)                                                                 
  7.20000000E-01  7.20000000E-01  7.20000000E-01  7.20000000E-01  7.20000000E-01
  7.20000000E-01  8.50000000E-01  8.50000000E-01  8.50000000E-01  8.50000000E-01
  8.50000000E-01  8.50000000E-01  8.50000000E-01  8.50000000E-01  8.50000000E-01
  8.50000000E-01  8.50000000E-01  8.50000000E-01  8.50000000E-01  8.50000000E-01
%FLAG IPOL                                                                      
%FORMAT(1I8)                                                                    
       0
