12_diacetoxyethane
    20
  -0.7130000   1.3210000  -1.5480000  -4.7450000  -2.1210000  -2.4720000
  -0.1310000   1.1110000  -0.1830000  -4.3200000  -3.5310000  -2.1960000
  -2.5900000   0.8100000  -2.8900000  -3.9060000   0.0610000  -2.8220000
  -0.1670000   1.9650000  -2.4340000  -5.9100000  -1.7680000  -2.5950000
  -1.9190000   0.6900000  -1.6320000  -3.6450000  -1.3130000  -2.5610000
   0.0290000   0.0440000  -0.0080000  -0.7990000   1.5300000   0.5730000
   0.8340000   1.6230000  -0.1180000  -3.7870000  -3.5780000  -1.2430000
  -3.6870000  -3.8930000  -3.0100000  -5.2050000  -4.1710000  -2.1330000
  -2.7510000   1.8740000  -3.0900000  -1.9460000   0.3830000  -3.6640000
  -4.4490000   0.1300000  -3.7700000  -4.5280000   0.4510000  -2.0110000
