; mobley_352111_GMX_OPLS.top created by acpype (v: 2023.10.27) on Wed May 20 23:52:54 2026

; Include forcefield parameters
#include "ffoplsaa.itp"

; Include mobley_352111_GMX.itp topology
#include "mobley_352111_GMX.itp"

; Ligand position restraints
#ifdef POSRES_LIG
#include "posre_mobley_352111.itp"
#endif

[ system ]
 mobley_352111

[ molecules ]
; Compound        nmols
 mobley_352111    1     
