mobley_5056289_GMX.gro created by acpype (v: 2023.10.27) on Wed May 20 23:45:59 2026
 8935
    1MOL     C1    1   2.173   2.343   2.176
    1MOL     C2    2   2.149   2.254   2.296
    1MOL     C3    3   2.252   2.252   2.085
    1MOL     C4    4   2.277   2.172   2.303
    1MOL     C5    5   2.382   2.235   2.394
    1MOL     O1    6   2.331   2.167   2.170
    1MOL     H1    7   2.081   2.380   2.130
    1MOL     H2    8   2.234   2.429   2.206
    1MOL     H3    9   2.126   2.309   2.387
    1MOL     H4   10   2.064   2.187   2.274
    1MOL     H5   11   2.186   2.188   2.026
    1MOL     H6   12   2.318   2.307   2.017
    1MOL     H7   13   2.257   2.070   2.337
    1MOL     H8   14   2.365   2.343   2.403
    1MOL     H9   15   2.377   2.191   2.494
    1MOL    H10   16   2.482   2.219   2.354
    2SOL     OW   17   0.230   0.628   0.113
    2SOL    HW1   18   0.137   0.626   0.150
    2SOL    HW2   19   0.231   0.589   0.021
    3SOL     OW   20   0.225   0.275   0.996
    3SOL    HW1   21   0.260   0.258   1.088
    3SOL    HW2   22   0.137   0.230   0.984
    4SOL     OW   23   0.019   0.368   0.647
    4SOL    HW1   24  -0.063   0.411   0.686
    4SOL    HW2   25  -0.009   0.295   0.584
    5SOL     OW   26   0.569   1.275   1.165
    5SOL    HW1   27   0.476   1.268   1.128
    5SOL    HW2   28   0.580   1.364   1.209
    6SOL     OW   29   1.555   1.511   0.703
    6SOL    HW1   30   1.498   1.495   0.784
    6SOL    HW2   31   1.496   1.521   0.623
    7SOL     OW   32   1.135   0.703   0.717
    7SOL    HW1   33   1.192   0.781   0.692
    7SOL    HW2   34   1.075   0.729   0.793
    8SOL     OW   35   1.755   0.607   0.231
    8SOL    HW1   36   1.743   0.594   0.132
    8SOL    HW2   37   1.725   0.526   0.280
    9SOL     OW   38   0.768   1.144   1.023
    9SOL    HW1   39   0.690   1.161   1.083
    9SOL    HW2   40   0.802   1.231   0.987
   10SOL     OW   41   0.850   0.798   1.823
   10SOL    HW1   42   0.846   0.874   1.888
   10SOL    HW2   43   0.872   0.834   1.732
   11SOL     OW   44   0.685   1.012   0.665
   11SOL    HW1   45   0.754   0.996   0.735
   11SOL    HW2   46   0.612   1.069   0.703
   12SOL     OW   47   0.686   1.161   1.803
   12SOL    HW1   48   0.746   1.240   1.817
   12SOL    HW2   49   0.600   1.192   1.762
   13SOL     OW   50   0.335   1.435   1.061
   13SOL    HW1   51   0.257   1.404   1.008
   13SOL    HW2   52   0.393   1.493   1.004
   14SOL     OW   53   1.460   1.505   1.339
   14SOL    HW1   54   1.484   1.599   1.365
   14SOL    HW2   55   1.444   1.451   1.421
   15SOL     OW   56   0.438   0.392   1.499
   15SOL    HW1   57   0.520   0.336   1.508
   15SOL    HW2   58   0.357   0.334   1.503
   16SOL     OW   59   1.603   0.447   0.737
   16SOL    HW1   60   1.529   0.493   0.687
   16SOL    HW2   61   1.654   0.515   0.790
   17SOL     OW   62   0.231   1.713   0.483
   17SOL    HW1   63   0.265   1.790   0.537
   17SOL    HW2   64   0.275   1.713   0.393
   18SOL     OW   65   1.127   1.341   1.690
   18SOL    HW1   66   1.174   1.341   1.778
   18SOL    HW2   67   1.079   1.254   1.679
   19SOL     OW   68   0.230   1.434   0.538
   19SOL    HW1   69   0.204   1.530   0.538
   19SOL    HW2   70   0.159   1.380   0.583
   20SOL     OW   71   0.240   1.091   0.886
   20SOL    HW1   72   0.254   1.007   0.938
   20SOL    HW2   73   0.185   1.155   0.941
   21SOL     OW   74   0.620   1.786   1.439
   21SOL    HW1   75   0.528   1.769   1.474
   21SOL    HW2   76   0.648   1.878   1.465
   22SOL     OW   77   0.606   0.964   0.123
   22SOL    HW1   78   0.613   1.048   0.069
   22SOL    HW2   79   0.652   0.977   0.211
   23SOL     OW   80   1.594   0.114   1.480
   23SOL    HW1   81   1.576   0.181   1.408
   23SOL    HW2   82   1.591   0.160   1.569
   24SOL     OW   83   0.122   0.643   0.563
   24SOL    HW1   84   0.077   0.555   0.580
   24SOL    HW2   85   0.121   0.697   0.647
   25SOL     OW   86   1.842   1.767   0.359
   25SOL    HW1   87   1.896   1.738   0.439
   25SOL    HW2   88   1.872   1.857   0.330
   26SOL     OW   89   0.027   1.596   0.117
   26SOL    HW1   90   0.008   1.500   0.138
   26SOL    HW2   91  -0.006   1.654   0.192
   27SOL     OW   92   1.689   0.922   0.612
   27SOL    HW1   93   1.784   0.893   0.620
   27SOL    HW2   94   1.681   0.987   0.537
   28SOL     OW   95   1.641   1.108   0.432
   28SOL    HW1   96   1.727   1.110   0.380
   28SOL    HW2   97   1.655   1.155   0.520
   29SOL     OW   98   0.113   0.737   1.597
   29SOL    HW1   99   0.201   0.724   1.642
   29SOL    HW2  100   0.100   0.834   1.575
   30SOL     OW  101   0.613   1.365   0.726
   30SOL    HW1  102   0.564   1.278   0.735
   30SOL    HW2  103   0.590   1.408   0.639
   31SOL     OW  104   1.293   1.228   1.423
   31SOL    HW1  105   1.330   1.155   1.365
   31SOL    HW2  106   1.345   1.233   1.508
   32SOL     OW  107   0.809   0.004   0.502
   32SOL    HW1  108   0.849   0.095   0.493
   32SOL    HW2  109   0.709   0.012   0.508
   33SOL     OW  110   0.197   0.976   1.264
   33SOL    HW1  111   0.286   0.931   1.250
   33SOL    HW2  112   0.124   0.911   1.245
   34SOL     OW  113   1.525   0.999   0.190
   34SOL    HW1  114   1.462   0.923   0.203
   34SOL    HW2  115   1.573   1.017   0.276
   35SOL     OW  116   1.187   1.792   1.616
   35SOL    HW1  117   1.211   1.852   1.540
   35SOL    HW2  118   1.194   1.697   1.586
   36SOL     OW  119   0.317   0.251   1.801
   36SOL    HW1  120   0.388   0.322   1.807
   36SOL    HW2  121   0.229   0.290   1.829
   37SOL     OW  122   1.466   1.417   0.953
   37SOL    HW1  123   1.407   1.423   1.033
   37SOL    HW2  124   1.451   1.329   0.907
   38SOL     OW  125   1.667   1.714   0.572
   38SOL    HW1  126   1.626   1.691   0.484
   38SOL    HW2  127   1.649   1.640   0.637
   39SOL     OW  128   0.598   0.729   0.270
   39SOL    HW1  129   0.622   0.798   0.202
   39SOL    HW2  130   0.520   0.762   0.324
   40SOL     OW  131   1.281   0.345   0.944
   40SOL    HW1  132   1.195   0.295   0.931
   40SOL    HW2  133   1.343   0.291   1.000
   41SOL     OW  134   1.576   1.662   0.307
   41SOL    HW1  135   1.665   1.708   0.310
   41SOL    HW2  136   1.555   1.638   0.212
   42SOL     OW  137   0.807   0.605   1.465
   42SOL    HW1  138   0.760   0.602   1.554
   42SOL    HW2  139   0.756   0.550   1.399
   43SOL     OW  140   1.394   0.469   1.674
   43SOL    HW1  141   1.374   0.512   1.762
   43SOL    HW2  142   1.472   0.407   1.683
   44SOL     OW  143   0.973   0.890   1.572
   44SOL    HW1  144   1.019   0.806   1.543
   44SOL    HW2  145   0.917   0.924   1.497
   45SOL     OW  146   0.991   0.410   1.242
   45SOL    HW1  147   0.914   0.444   1.296
   45SOL    HW2  148   0.957   0.359   1.163
   46SOL     OW  149   1.041   0.701   0.429
   46SOL    HW1  150   1.067   0.697   0.525
   46SOL    HW2  151   0.956   0.650   0.415
   47SOL     OW  152   0.076   0.811   0.789
   47SOL    HW1  153   0.175   0.799   0.798
   47SOL    HW2  154   0.052   0.906   0.810
   48SOL     OW  155   0.130   1.821   1.571
   48SOL    HW1  156   0.120   1.806   1.670
   48SOL    HW2  157   0.044   1.857   1.535
   49SOL     OW  158   0.865   0.348   0.195
   49SOL    HW1  159   0.924   0.411   0.146
   49SOL    HW2  160   0.884   0.254   0.166
   50SOL     OW  161   1.719   0.585   1.831
   50SOL    HW1  162   1.693   0.674   1.795
   50SOL    HW2  163   1.717   0.517   1.758
   51SOL     OW  164   1.362   1.144   0.545
   51SOL    HW1  165   1.445   1.115   0.497
   51SOL    HW2  166   1.313   1.211   0.489
   52SOL     OW  167   0.550   0.196   0.885
   52SOL    HW1  168   0.545   0.191   0.985
   52SOL    HW2  169   0.552   0.292   0.856
   53SOL     OW  170   1.008   1.456   0.477
   53SOL    HW1  171   0.962   1.528   0.425
   53SOL    HW2  172   1.004   1.476   0.575
   54SOL     OW  173   0.351   1.801   0.853
   54SOL    HW1  174   0.401   1.715   0.859
   54SOL    HW2  175   0.416   1.878   0.850
   55SOL     OW  176   1.795   1.066   0.873
   55SOL    HW1  177   1.733   1.051   0.797
   55SOL    HW2  178   1.743   1.077   0.958
   56SOL     OW  179   1.227   1.550   1.506
   56SOL    HW1  180   1.233   1.473   1.570
   56SOL    HW2  181   1.175   1.524   1.426
   57SOL     OW  182   0.321   0.943   0.242
   57SOL    HW1  183   0.403   0.982   0.200
   57SOL    HW2  184   0.294   0.861   0.193
   58SOL     OW  185   1.458   0.735   0.728
   58SOL    HW1  186   1.453   0.670   0.803
   58SOL    HW2  187   1.538   0.794   0.741
   59SOL     OW  188   0.461   1.266   1.727
   59SOL    HW1  189   0.411   1.267   1.641
   59SOL    HW2  190   0.398   1.248   1.803
   60SOL     OW  191   1.111   1.776   0.237
   60SOL    HW1  192   1.051   1.714   0.287
   60SOL    HW2  193   1.142   1.732   0.152
   61SOL     OW  194   0.202   0.285   1.498
   61SOL    HW1  195   0.122   0.345   1.485
   61SOL    HW2  196   0.192   0.236   1.584
   62SOL     OW  197   1.632   1.377   0.081
   62SOL    HW1  198   1.600   1.471   0.071
   62SOL    HW2  199   1.556   1.314   0.069
   63SOL     OW  200   0.464   1.743   0.323
   63SOL    HW1  201   0.497   1.782   0.409
   63SOL    HW2  202   0.540   1.736   0.258
   64SOL     OW  203   1.400   0.107   0.426
   64SOL    HW1  204   1.376   0.070   0.336
   64SOL    HW2  205   1.499   0.123   0.430
   65SOL     OW  206   0.249   1.785   1.241
   65SOL    HW1  207   0.306   1.720   1.291
   65SOL    HW2  208   0.233   1.752   1.148
   66SOL     OW  209   0.940   1.698   0.904
   66SOL    HW1  210   1.020   1.641   0.925
   66SOL    HW2  211   0.891   1.658   0.827
   67SOL     OW  212   0.382   0.700   0.480
   67SOL    HW1  213   0.427   0.610   0.477
   67SOL    HW2  214   0.288   0.689   0.513
   68SOL     OW  215   1.547   0.222   1.729
   68SOL    HW1  216   1.542   0.259   1.821
   68SOL    HW2  217   1.475   0.153   1.717
   69SOL     OW  218   0.614   0.122   0.117
   69SOL    HW1  219   0.712   0.100   0.124
   69SOL    HW2  220   0.583   0.105   0.024
   70SOL     OW  221   0.781   0.264   1.749
   70SOL    HW1  222   0.848   0.203   1.792
   70SOL    HW2  223   0.708   0.283   1.814
   71SOL     OW  224   0.888   1.514   1.195
   71SOL    HW1  225   0.865   1.489   1.101
   71SOL    HW2  226   0.949   1.445   1.234
   72SOL     OW  227   1.351   0.590   1.433
   72SOL    HW1  228   1.379   0.547   1.518
   72SOL    HW2  229   1.376   0.686   1.434
   73SOL     OW  230   0.803   1.402   0.924
   73SOL    HW1  231   0.893   1.416   0.882
   73SOL    HW2  232   0.732   1.404   0.853
   74SOL     OW  233   0.922   0.503   0.899
   74SOL    HW1  234   0.897   0.494   0.803
   74SOL    HW2  235   0.970   0.421   0.930
   75SOL     OW  236   0.539   0.064   0.512
   75SOL    HW1  237   0.458   0.065   0.570
   75SOL    HW2  238   0.542   0.147   0.457
   76SOL     OW  239   1.434   1.188   0.041
   76SOL    HW1  240   1.466   1.112   0.098
   76SOL    HW2  241   1.342   1.215   0.071
   77SOL     OW  242   0.297   0.035   0.171
   77SOL    HW1  243   0.346   0.119   0.150
   77SOL    HW2  244   0.359  -0.030   0.216
   78SOL     OW  245   0.935   0.236   0.480
   78SOL    HW1  246   0.887   0.277   0.402
   78SOL    HW2  247   1.034   0.234   0.461
   79SOL     OW  248   1.076   0.683   1.464
   79SOL    HW1  249   0.996   0.622   1.467
   79SOL    HW2  250   1.157   0.630   1.440
   80SOL     OW  251   1.227   1.570   0.793
   80SOL    HW1  252   1.248   1.644   0.728
   80SOL    HW2  253   1.295   1.570   0.866
   81SOL     OW  254   0.459   1.152   0.741
   81SOL    HW1  255   0.388   1.125   0.806
   81SOL    HW2  256   0.433   1.124   0.648
   82SOL     OW  257   1.271   1.797   0.591
   82SOL    HW1  258   1.315   1.861   0.527
   82SOL    HW2  259   1.221   1.849   0.661
   83SOL     OW  260   1.032   0.549   0.016
   83SOL    HW1  261   0.991   0.631  -0.023
   83SOL    HW2  262   1.096   0.575   0.089
   84SOL     OW  263   0.078   0.556   1.386
   84SOL    HW1  264   0.170   0.555   1.345
   84SOL    HW2  265   0.072   0.630   1.453
   85SOL     OW  266   0.561   0.222   1.147
   85SOL    HW1  267   0.599   0.138   1.184
   85SOL    HW2  268   0.473   0.241   1.191
   86SOL     OW  269   0.866   0.454   0.642
   86SOL    HW1  270   0.834   0.526   0.580
   86SOL    HW2  271   0.890   0.373   0.589
   87SOL     OW  272   1.017   0.039   0.753
   87SOL    HW1  273   0.945   0.044   0.684
   87SOL    HW2  274   0.993  -0.030   0.822
   88SOL     OW  275   1.429   1.173   0.867
   88SOL    HW1  276   1.374   1.089   0.860
   88SOL    HW2  277   1.455   1.202   0.775
   89SOL     OW  278   1.466   0.590   0.992
   89SOL    HW1  279   1.436   0.495   0.999
   89SOL    HW2  280   1.539   0.606   1.058
   90SOL     OW  281   1.857   0.833   0.377
   90SOL    HW1  282   1.899   0.769   0.441
   90SOL    HW2  283   1.819   0.782   0.299
   91SOL     OW  284   0.488   1.385   0.174
   91SOL    HW1  285   0.401   1.370   0.221
   91SOL    HW2  286   0.471   1.411   0.079
   92SOL     OW  287   1.664   1.280   0.657
   92SOL    HW1  288   1.763   1.288   0.671
   92SOL    HW2  289   1.619   1.364   0.688
   93SOL     OW  290   1.390   0.575   0.078
   93SOL    HW1  291   1.336   0.554   0.159
   93SOL    HW2  292   1.481   0.534   0.087
   94SOL     OW  293   0.527   0.256   0.328
   94SOL    HW1  294   0.554   0.197   0.253
   94SOL    HW2  295   0.527   0.351   0.297
   95SOL     OW  296   1.754   1.223   1.588
   95SOL    HW1  297   1.845   1.184   1.575
   95SOL    HW2  298   1.762   1.319   1.612
   96SOL     OW  299   1.064   1.347   1.340
   96SOL    HW1  300   0.984   1.324   1.395
   96SOL    HW2  301   1.147   1.321   1.389
   97SOL     OW  302   1.592   1.629   1.625
   97SOL    HW1  303   1.619   1.663   1.535
   97SOL    HW2  304   1.671   1.591   1.671
   98SOL     OW  305   1.111   1.195   1.100
   98SOL    HW1  306   1.071   1.239   1.181
   98SOL    HW2  307   1.070   1.232   1.017
   99SOL     OW  308   1.638   1.099   1.079
   99SOL    HW1  309   1.643   1.180   1.138
   99SOL    HW2  310   1.552   1.101   1.028
  100SOL     OW  311   0.915   0.089   1.402
  100SOL    HW1  312   0.940   0.069   1.307
  100SOL    HW2  313   0.987   0.145   1.444
  101SOL     OW  314   0.980   1.116   1.719
  101SOL    HW1  315   0.881   1.122   1.729
  101SOL    HW2  316   1.003   1.036   1.663
  102SOL     OW  317   0.705   1.050   0.368
  102SOL    HW1  318   0.691   1.057   0.467
  102SOL    HW2  319   0.789   0.999   0.350
  103SOL     OW  320   0.410   0.813   1.251
  103SOL    HW1  321   0.496   0.825   1.301
  103SOL    HW2  322   0.368   0.726   1.278
  104SOL     OW  323   1.274   0.386   1.262
  104SOL    HW1  324   1.295   0.460   1.326
  104SOL    HW2  325   1.185   0.403   1.219
  105SOL     OW  326   0.064   1.564   1.331
  105SOL    HW1  327   0.018   1.646   1.297
  105SOL    HW2  328   0.162   1.583   1.340
  106SOL     OW  329   0.367   1.100   0.501
  106SOL    HW1  330   0.360   1.183   0.445
  106SOL    HW2  331   0.371   1.020   0.441
  107SOL     OW  332   0.566   0.537   0.865
  107SOL    HW1  333   0.578   0.603   0.791
  107SOL    HW2  334   0.612   0.571   0.948
  108SOL     OW  335   1.252   1.348   0.388
  108SOL    HW1  336   1.302   1.425   0.428
  108SOL    HW2  337   1.157   1.350   0.420
  109SOL     OW  338   1.272   1.445   1.142
  109SOL    HW1  339   1.319   1.458   1.229
  109SOL    HW2  340   1.206   1.371   1.151
  110SOL     OW  341   1.582   0.639   0.472
  110SOL    HW1  342   1.551   0.700   0.545
  110SOL    HW2  343   1.632   0.691   0.403
  111SOL     OW  344   0.354   1.510   1.329
  111SOL    HW1  345   0.333   1.466   1.242
  111SOL    HW2  346   0.451   1.536   1.332
  112SOL     OW  347   0.402   0.751   1.598
  112SOL    HW1  348   0.470   0.806   1.551
  112SOL    HW2  349   0.442   0.663   1.625
  113SOL     OW  350   1.587   0.779   1.670
  113SOL    HW1  351   1.495   0.817   1.665
  113SOL    HW2  352   1.647   0.826   1.605
  114SOL     OW  353   1.013   0.105   1.770
  114SOL    HW1  354   1.019   0.190   1.718
  114SOL    HW2  355   1.045   0.029   1.713
  115SOL     OW  356   0.504   0.050   1.740
  115SOL    HW1  357   0.462  -0.007   1.670
  115SOL    HW2  358   0.438   0.119   1.772
  116SOL     OW  359   0.573   0.870   1.029
  116SOL    HW1  360   0.617   0.959   1.020
  116SOL    HW2  361   0.510   0.870   1.106
  117SOL     OW  362   1.360   0.862   1.045
  117SOL    HW1  363   1.285   0.862   0.979
  117SOL    HW2  364   1.397   0.770   1.054
  118SOL     OW  365   1.209   0.525   0.275
  118SOL    HW1  366   1.222   0.441   0.329
  118SOL    HW2  367   1.180   0.599   0.335
  119SOL     OW  368   0.307   0.213   1.231
  119SOL    HW1  369   0.284   0.250   1.321
  119SOL    HW2  370   0.277   0.118   1.225
  120SOL     OW  371   0.037   1.310   1.282
  120SOL    HW1  372   0.090   1.261   1.350
  120SOL    HW2  373   0.059   1.408   1.287
  121SOL     OW  374   0.732   0.634   1.064
  121SOL    HW1  375   0.791   0.608   0.988
  121SOL    HW2  376   0.704   0.730   1.053
  122SOL     OW  377   1.728   0.935   1.854
  122SOL    HW1  378   1.682   0.928   1.765
  122SOL    HW2  379   1.666   0.979   1.920
  123SOL     OW  380   0.307   0.063   0.618
  123SOL    HW1  381   0.296   0.157   0.651
  123SOL    HW2  382   0.302   0.000   0.695
  124SOL     OW  383   1.622   0.367   0.374
  124SOL    HW1  384   1.624   0.291   0.438
  124SOL    HW2  385   1.574   0.444   0.414
  125SOL     OW  386   1.023   0.766   0.966
  125SOL    HW1  387   1.038   0.787   1.062
  125SOL    HW2  388   0.993   0.671   0.957
  126SOL     OW  389   0.980   1.573   1.700
  126SOL    HW1  390   0.960   1.617   1.612
  126SOL    HW2  391   1.019   1.482   1.684
  127SOL     OW  392   1.859   1.518   1.605
  127SOL    HW1  393   1.873   1.545   1.510
  127SOL    HW2  394   1.942   1.540   1.658
  128SOL     OW  395   0.350   0.898   1.804
  128SOL    HW1  396   0.426   0.942   1.852
  128SOL    HW2  397   0.385   0.851   1.722
  129SOL     OW  398   1.540   0.274   0.125
  129SOL    HW1  399   1.479   0.199   0.148
  129SOL    HW2  400   1.562   0.326   0.208
  130SOL     OW  401   1.303   0.838   0.042
  130SOL    HW1  402   1.337   0.745   0.057
  130SOL    HW2  403   1.321   0.865  -0.053
  131SOL     OW  404   1.068   1.333   0.849
  131SOL    HW1  405   1.075   1.249   0.794
  131SOL    HW2  406   1.130   1.402   0.813
  132SOL     OW  407   0.319   0.810   0.949
  132SOL    HW1  408   0.412   0.846   0.954
  132SOL    HW2  409   0.313   0.725   1.001
  133SOL     OW  410   0.339   0.509   1.006
  133SOL    HW1  411   0.287   0.426   0.989
  133SOL    HW2  412   0.416   0.514   0.942
  134SOL     OW  413   1.138   0.380   1.678
  134SOL    HW1  414   1.093   0.443   1.742
  134SOL    HW2  415   1.231   0.411   1.661
  135SOL     OW  416   1.160   0.207   1.477
  135SOL    HW1  417   1.160   0.271   1.554
  135SOL    HW2  418   1.188   0.255   1.394
  136SOL     OW  419   0.008   1.326   0.200
  136SOL    HW1  420  -0.085   1.347   0.169
  136SOL    HW2  421   0.018   1.227   0.213
  137SOL     OW  422   0.088   1.801   0.927
  137SOL    HW1  423   0.046   1.715   0.900
  137SOL    HW2  424   0.182   1.804   0.893
  138SOL     OW  425   0.504   1.568   0.910
  138SOL    HW1  426   0.570   1.642   0.919
  138SOL    HW2  427   0.548   1.489   0.868
  139SOL     OW  428   1.002   0.796   1.238
  139SOL    HW1  429   1.043   0.764   1.324
  139SOL    HW2  430   0.906   0.769   1.235
  140SOL     OW  431   0.040   0.544   1.114
  140SOL    HW1  432   0.125   0.511   1.073
  140SOL    HW2  433   0.053   0.559   1.212
  141SOL     OW  434   0.189   0.520   1.722
  141SOL    HW1  435   0.248   0.480   1.652
  141SOL    HW2  436   0.131   0.591   1.681
  142SOL     OW  437   1.369   0.950   1.660
  142SOL    HW1  438   1.408   1.039   1.680
  142SOL    HW2  439   1.379   0.930   1.563
  143SOL     OW  440   0.815   0.572   0.325
  143SOL    HW1  441   0.822   0.483   0.279
  143SOL    HW2  442   0.721   0.606   0.317
  144SOL     OW  443   1.657   0.604   1.206
  144SOL    HW1  444   1.619   0.535   1.268
  144SOL    HW2  445   1.739   0.568   1.162
  145SOL     OW  446   0.252   1.564   1.744
  145SOL    HW1  447   0.222   1.621   1.820
  145SOL    HW2  448   0.245   1.467   1.770
  146SOL     OW  449   0.671   0.464   1.269
  146SOL    HW1  450   0.637   0.375   1.239
  146SOL    HW2  451   0.697   0.518   1.189
  147SOL     OW  452   0.930   1.678   1.465
  147SOL    HW1  453   0.906   1.660   1.370
  147SOL    HW2  454   0.960   1.772   1.475
  148SOL     OW  455   0.473   0.500   0.191
  148SOL    HW1  456   0.534   0.580   0.195
  148SOL    HW2  457   0.378   0.531   0.198
  149SOL     OW  458   0.159   1.137   1.466
  149SOL    HW1  459   0.181   1.076   1.542
  149SOL    HW2  460   0.169   1.088   1.380
  150SOL     OW  461   1.347   1.059   1.234
  150SOL    HW1  462   1.371   0.996   1.160
  150SOL    HW2  463   1.257   1.099   1.216
  151SOL     OW  464   1.302   0.855   0.309
  151SOL    HW1  465   1.216   0.824   0.351
  151SOL    HW2  466   1.298   0.841   0.210
  152SOL     OW  467   1.759   1.747   1.154
  152SOL    HW1  468   1.820   1.777   1.081
  152SOL    HW2  469   1.721   1.658   1.132
  153SOL     OW  470   1.252   1.731   1.128
  153SOL    HW1  471   1.336   1.736   1.074
  153SOL    HW2  472   1.229   1.635   1.146
  154SOL     OW  473   0.083   1.258   1.022
  154SOL    HW1  474   0.078   1.257   1.122
  154SOL    HW2  475   0.000   1.217   0.984
  155SOL     OW  476   0.688   1.662   1.716
  155SOL    HW1  477   0.632   1.743   1.725
  155SOL    HW2  478   0.740   1.666   1.630
  156SOL     OW  479   0.903   0.086   0.133
  156SOL    HW1  480   0.954   0.087   0.047
  156SOL    HW2  481   0.959   0.044   0.204
  157SOL     OW  482   1.726   0.135   0.523
  157SOL    HW1  483   1.799   0.118   0.456
  157SOL    HW2  484   1.695   0.048   0.561
  158SOL     OW  485   1.388   1.573   0.477
  158SOL    HW1  486   1.455   1.585   0.403
  158SOL    HW2  487   1.348   1.662   0.500
  159SOL     OW  488   0.130   1.794   1.851
  159SOL    HW1  489   0.089   1.720   1.904
  159SOL    HW2  490   0.194   1.845   1.909
  160SOL     OW  491   1.280   0.927   0.672
  160SOL    HW1  492   1.340   0.846   0.674
  160SOL    HW2  493   1.320   0.996   0.612
  161SOL     OW  494   0.830   1.273   1.422
  161SOL    HW1  495   0.825   1.306   1.517
  161SOL    HW2  496   0.744   1.292   1.376
  162SOL     OW  497   0.672   1.616   0.154
  162SOL    HW1  498   0.681   1.626   0.055
  162SOL    HW2  499   0.632   1.527   0.175
  163SOL     OW  500   1.650   1.720   1.394
  163SOL    HW1  501   1.703   1.730   1.310
  163SOL    HW2  502   1.623   1.810   1.428
  164SOL     OW  503   1.841   0.175   0.963
  164SOL    HW1  504   1.880   0.090   0.927
  164SOL    HW2  505   1.743   0.177   0.944
  165SOL     OW  506   0.263   0.326   0.720
  165SOL    HW1  507   0.184   0.377   0.686
  165SOL    HW2  508   0.254   0.311   0.818
  166SOL     OW  509   1.194   1.612   0.031
  166SOL    HW1  510   1.200   1.519   0.068
  166SOL    HW2  511   1.135   1.612  -0.049
  167SOL     OW  512   0.822   1.002   1.372
  167SOL    HW1  513   0.862   1.001   1.280
  167SOL    HW2  514   0.832   1.094   1.412
  168SOL     OW  515   0.916   0.910   0.291
  168SOL    HW1  516   0.979   0.948   0.223
  168SOL    HW2  517   0.956   0.827   0.330
  169SOL     OW  518   1.504   1.607   0.044
  169SOL    HW1  519   1.412   1.644   0.051
  169SOL    HW2  520   1.542   1.627  -0.046
  170SOL     OW  521   0.372   1.288   1.490
  170SOL    HW1  522   0.359   1.381   1.456
  170SOL    HW2  523   0.288   1.236   1.477
  171SOL     OW  524   1.614   1.292   1.289
  171SOL    HW1  525   1.674   1.295   1.369
  171SOL    HW2  526   1.539   1.356   1.302
  172SOL     OW  527   1.039   1.098   0.696
  172SOL    HW1  528   0.969   1.051   0.750
  172SOL    HW2  529   1.098   1.030   0.653
  173SOL     OW  530   1.014   0.236   0.971
  173SOL    HW1  531   1.006   0.200   0.878
  173SOL    HW2  532   1.012   0.160   1.036
  174SOL     OW  533   0.590   1.487   0.491
  174SOL    HW1  534   0.632   1.429   0.421
  174SOL    HW2  535   0.546   1.566   0.447
  175SOL     OW  536   1.709   0.385   1.381
  175SOL    HW1  537   1.782   0.454   1.385
  175SOL    HW2  538   1.737   0.310   1.322
  176SOL     OW  539   0.255   1.348   0.290
  176SOL    HW1  540   0.159   1.349   0.263
  176SOL    HW2  541   0.267   1.401   0.374
  177SOL     OW  542   0.105   1.013   1.726
  177SOL    HW1  543   0.028   0.980   1.780
  177SOL    HW2  544   0.190   0.983   1.768
  178SOL     OW  545   0.672   0.203   1.489
  178SOL    HW1  546   0.762   0.187   1.449
  178SOL    HW2  547   0.680   0.208   1.588
  179SOL     OW  548   0.075   0.345   0.033
  179SOL    HW1  549  -0.017   0.317   0.004
  179SOL    HW2  550   0.106   0.422  -0.023
  180SOL     OW  551   1.440   0.856   1.398
  180SOL    HW1  552   1.383   0.908   1.335
  180SOL    HW2  553   1.536   0.868   1.374
  181SOL     OW  554   0.072   0.166   0.318
  181SOL    HW1  555   0.055   0.249   0.264
  181SOL    HW2  556   0.162   0.129   0.296
  182SOL     OW  557   1.183   1.335   0.119
  182SOL    HW1  558   1.084   1.324   0.121
  182SOL    HW2  559   1.217   1.350   0.212
  183SOL     OW  560   0.613   0.842   1.431
  183SOL    HW1  561   0.669   0.923   1.414
  183SOL    HW2  562   0.672   0.762   1.434
  184SOL     OW  563   1.493   1.767   0.959
  184SOL    HW1  564   1.526   1.831   0.890
  184SOL    HW2  565   1.559   1.761   1.034
  185SOL     OW  566   0.716   0.565   1.708
  185SOL    HW1  567   0.735   0.630   1.782
  185SOL    HW2  568   0.776   0.485   1.717
  186SOL     OW  569   1.450   1.220   1.633
  186SOL    HW1  570   1.441   1.210   1.732
  186SOL    HW2  571   1.546   1.213   1.607
  187SOL     OW  572   0.390   1.741   1.560
  187SOL    HW1  573   0.299   1.782   1.558
  187SOL    HW2  574   0.383   1.647   1.592
  188SOL     OW  575   1.674   0.883   1.254
  188SOL    HW1  576   1.647   0.794   1.217
  188SOL    HW2  577   1.675   0.951   1.181
  189SOL     OW  578   1.225   0.325   0.449
  189SOL    HW1  579   1.290   0.251   0.438
  189SOL    HW2  580   1.245   0.375   0.533
  190SOL     OW  581   0.594   0.745   0.652
  190SOL    HW1  582   0.644   0.830   0.633
  190SOL    HW2  583   0.506   0.747   0.604
  191SOL     OW  584   1.777   0.342   1.642
  191SOL    HW1  585   1.760   0.373   1.548
  191SOL    HW2  586   1.693   0.305   1.680
  192SOL     OW  587   1.730   0.934   1.517
  192SOL    HW1  588   1.768   1.025   1.532
  192SOL    HW2  589   1.722   0.917   1.418
  193SOL     OW  590   0.859   1.374   0.016
  193SOL    HW1  591   0.813   1.389   0.104
  193SOL    HW2  592   0.903   1.459  -0.014
  194SOL     OW  593   0.661   1.790   0.953
  194SOL    HW1  594   0.615   1.878   0.940
  194SOL    HW2  595   0.760   1.802   0.946
  195SOL     OW  596   0.859   0.956   0.861
  195SOL    HW1  597   0.913   0.887   0.909
  195SOL    HW2  598   0.827   1.025   0.927
  196SOL     OW  599   1.083   0.984   0.087
  196SOL    HW1  600   1.060   1.037   0.005
  196SOL    HW2  601   1.164   0.928   0.068
  197SOL     OW  602   1.861   1.569   0.851
  197SOL    HW1  603   1.790   1.557   0.781
  197SOL    HW2  604   1.862   1.490   0.911
  198SOL     OW  605   0.221   1.314   1.844
  198SOL    HW1  606   0.156   1.241   1.823
  198SOL    HW2  607   0.225   1.328   1.942
  199SOL     OW  608   0.079   1.240   0.653
  199SOL    HW1  609   0.078   1.193   0.741
  199SOL    HW2  610   0.161   1.212   0.602
  200SOL     OW  611   0.672   1.391   1.624
  200SOL    HW1  612   0.594   1.341   1.662
  200SOL    HW2  613   0.669   1.486   1.655
  201SOL     OW  614   1.824   0.192   1.227
  201SOL    HW1  615   1.820   0.102   1.271
  201SOL    HW2  616   1.827   0.181   1.128
  202SOL     OW  617   0.428   0.424   0.520
  202SOL    HW1  618   0.458   0.352   0.458
  202SOL    HW2  619   0.389   0.384   0.603
  203SOL     OW  620   1.705   1.487   1.104
  203SOL    HW1  621   1.612   1.462   1.077
  203SOL    HW2  622   1.731   1.437   1.186
  204SOL     OW  623   0.317   0.547   1.280
  204SOL    HW1  624   0.355   0.488   1.352
  204SOL    HW2  625   0.357   0.521   1.192
  205SOL     OW  626   0.812   1.586   0.687
  205SOL    HW1  627   0.844   1.596   0.593
  205SOL    HW2  628   0.733   1.524   0.689
  206SOL     OW  629   1.424   0.214   1.112
  206SOL    HW1  630   1.476   0.149   1.167
  206SOL    HW2  631   1.375   0.277   1.173
  207SOL     OW  632   1.001   0.034   1.154
  207SOL    HW1  633   0.938  -0.038   1.123
  207SOL    HW2  634   1.094  -0.002   1.154
  208SOL     OW  635   0.770   1.330   0.301
  208SOL    HW1  636   0.724   1.243   0.318
  208SOL    HW2  637   0.861   1.327   0.342
  209SOL     OW  638   0.618   1.567   1.284
  209SOL    HW1  639   0.613   1.649   1.341
  209SOL    HW2  640   0.707   1.564   1.239
  210SOL     OW  641   1.352   0.052   0.168
  210SOL    HW1  642   1.387   0.011   0.084
  210SOL    HW2  643   1.262   0.014   0.188
  211SOL     OW  644   1.300   0.453   0.691
  211SOL    HW1  645   1.241   0.533   0.695
  211SOL    HW2  646   1.315   0.418   0.784
  212SOL     OW  647   1.593   0.221   0.882
  212SOL    HW1  648   1.509   0.220   0.936
  212SOL    HW2  649   1.595   0.304   0.826
  213SOL     OW  650   0.039   1.077   0.300
  213SOL    HW1  651   0.138   1.066   0.291
  213SOL    HW2  652  -0.001   0.991   0.332
  214SOL     OW  653   0.875   1.646   0.337
  214SOL    HW1  654   0.798   1.611   0.283
  214SOL    HW2  655   0.843   1.717   0.399
  215SOL     OW  656   0.230   0.628   1.975
  215SOL    HW1  657   0.137   0.626   2.012
  215SOL    HW2  658   0.231   0.589   1.883
  216SOL     OW  659   0.225   0.275   2.858
  216SOL    HW1  660   0.260   0.258   2.950
  216SOL    HW2  661   0.137   0.230   2.846
  217SOL     OW  662   0.019   0.368   2.509
  217SOL    HW1  663  -0.063   0.411   2.548
  217SOL    HW2  664  -0.009   0.295   2.446
  218SOL     OW  665   0.569   1.275   3.027
  218SOL    HW1  666   0.476   1.268   2.990
  218SOL    HW2  667   0.580   1.364   3.071
  219SOL     OW  668   1.555   1.511   2.565
  219SOL    HW1  669   1.498   1.495   2.646
  219SOL    HW2  670   1.496   1.521   2.485
  220SOL     OW  671   1.135   0.703   2.579
  220SOL    HW1  672   1.192   0.781   2.554
  220SOL    HW2  673   1.075   0.729   2.655
  221SOL     OW  674   1.755   0.607   2.093
  221SOL    HW1  675   1.743   0.594   1.994
  221SOL    HW2  676   1.725   0.526   2.142
  222SOL     OW  677   0.768   1.144   2.885
  222SOL    HW1  678   0.690   1.161   2.945
  222SOL    HW2  679   0.802   1.231   2.849
  223SOL     OW  680   0.850   0.798   3.685
  223SOL    HW1  681   0.846   0.874   3.750
  223SOL    HW2  682   0.872   0.834   3.594
  224SOL     OW  683   0.685   1.012   2.527
  224SOL    HW1  684   0.754   0.996   2.597
  224SOL    HW2  685   0.612   1.069   2.565
  225SOL     OW  686   0.686   1.161   3.665
  225SOL    HW1  687   0.746   1.240   3.679
  225SOL    HW2  688   0.600   1.192   3.624
  226SOL     OW  689   0.335   1.435   2.923
  226SOL    HW1  690   0.257   1.404   2.870
  226SOL    HW2  691   0.393   1.493   2.866
  227SOL     OW  692   1.460   1.505   3.201
  227SOL    HW1  693   1.484   1.599   3.227
  227SOL    HW2  694   1.444   1.451   3.283
  228SOL     OW  695   0.438   0.392   3.361
  228SOL    HW1  696   0.520   0.336   3.370
  228SOL    HW2  697   0.357   0.334   3.365
  229SOL     OW  698   1.603   0.447   2.599
  229SOL    HW1  699   1.529   0.493   2.549
  229SOL    HW2  700   1.654   0.515   2.652
  230SOL     OW  701   0.231   1.713   2.345
  230SOL    HW1  702   0.265   1.790   2.399
  230SOL    HW2  703   0.275   1.713   2.255
  231SOL     OW  704   1.127   1.341   3.552
  231SOL    HW1  705   1.174   1.341   3.640
  231SOL    HW2  706   1.079   1.254   3.541
  232SOL     OW  707   0.230   1.434   2.400
  232SOL    HW1  708   0.204   1.530   2.400
  232SOL    HW2  709   0.159   1.380   2.445
  233SOL     OW  710   0.240   1.091   2.748
  233SOL    HW1  711   0.254   1.007   2.800
  233SOL    HW2  712   0.185   1.155   2.803
  234SOL     OW  713   0.620   1.786   3.301
  234SOL    HW1  714   0.528   1.769   3.336
  234SOL    HW2  715   0.648   1.878   3.327
  235SOL     OW  716   0.606   0.964   1.985
  235SOL    HW1  717   0.613   1.048   1.931
  235SOL    HW2  718   0.652   0.977   2.073
  236SOL     OW  719   1.594   0.114   3.342
  236SOL    HW1  720   1.576   0.181   3.270
  236SOL    HW2  721   1.591   0.160   3.431
  237SOL     OW  722   0.122   0.643   2.425
  237SOL    HW1  723   0.077   0.555   2.442
  237SOL    HW2  724   0.121   0.697   2.509
  238SOL     OW  725   1.842   1.767   2.221
  238SOL    HW1  726   1.896   1.738   2.301
  238SOL    HW2  727   1.872   1.857   2.192
  239SOL     OW  728   0.027   1.596   1.979
  239SOL    HW1  729   0.008   1.500   2.000
  239SOL    HW2  730  -0.006   1.654   2.054
  240SOL     OW  731   1.689   0.922   2.474
  240SOL    HW1  732   1.784   0.893   2.482
  240SOL    HW2  733   1.681   0.987   2.399
  241SOL     OW  734   1.641   1.108   2.294
  241SOL    HW1  735   1.727   1.110   2.242
  241SOL    HW2  736   1.655   1.155   2.382
  242SOL     OW  737   0.113   0.737   3.459
  242SOL    HW1  738   0.201   0.724   3.504
  242SOL    HW2  739   0.100   0.834   3.437
  243SOL     OW  740   0.613   1.365   2.588
  243SOL    HW1  741   0.564   1.278   2.597
  243SOL    HW2  742   0.590   1.408   2.501
  244SOL     OW  743   1.293   1.228   3.285
  244SOL    HW1  744   1.330   1.155   3.227
  244SOL    HW2  745   1.345   1.233   3.370
  245SOL     OW  746   0.809   0.004   2.364
  245SOL    HW1  747   0.849   0.095   2.355
  245SOL    HW2  748   0.709   0.012   2.370
  246SOL     OW  749   0.197   0.976   3.126
  246SOL    HW1  750   0.286   0.931   3.112
  246SOL    HW2  751   0.124   0.911   3.107
  247SOL     OW  752   1.525   0.999   2.052
  247SOL    HW1  753   1.462   0.923   2.065
  247SOL    HW2  754   1.573   1.017   2.138
  248SOL     OW  755   1.187   1.792   3.478
  248SOL    HW1  756   1.211   1.852   3.402
  248SOL    HW2  757   1.194   1.697   3.448
  249SOL     OW  758   0.317   0.251   3.663
  249SOL    HW1  759   0.388   0.322   3.669
  249SOL    HW2  760   0.229   0.290   3.691
  250SOL     OW  761   1.466   1.417   2.815
  250SOL    HW1  762   1.407   1.423   2.895
  250SOL    HW2  763   1.451   1.329   2.769
  251SOL     OW  764   1.667   1.714   2.434
  251SOL    HW1  765   1.626   1.691   2.346
  251SOL    HW2  766   1.649   1.640   2.499
  252SOL     OW  767   0.598   0.729   2.132
  252SOL    HW1  768   0.622   0.798   2.064
  252SOL    HW2  769   0.520   0.762   2.186
  253SOL     OW  770   1.281   0.345   2.806
  253SOL    HW1  771   1.195   0.295   2.793
  253SOL    HW2  772   1.343   0.291   2.862
  254SOL     OW  773   1.576   1.662   2.169
  254SOL    HW1  774   1.665   1.708   2.172
  254SOL    HW2  775   1.555   1.638   2.074
  255SOL     OW  776   0.807   0.605   3.327
  255SOL    HW1  777   0.760   0.602   3.416
  255SOL    HW2  778   0.756   0.550   3.261
  256SOL     OW  779   1.394   0.469   3.536
  256SOL    HW1  780   1.374   0.512   3.624
  256SOL    HW2  781   1.472   0.407   3.545
  257SOL     OW  782   0.973   0.890   3.434
  257SOL    HW1  783   1.019   0.806   3.405
  257SOL    HW2  784   0.917   0.924   3.359
  258SOL     OW  785   0.991   0.410   3.104
  258SOL    HW1  786   0.914   0.444   3.158
  258SOL    HW2  787   0.957   0.359   3.025
  259SOL     OW  788   1.041   0.701   2.291
  259SOL    HW1  789   1.067   0.697   2.387
  259SOL    HW2  790   0.956   0.650   2.277
  260SOL     OW  791   0.076   0.811   2.651
  260SOL    HW1  792   0.175   0.799   2.660
  260SOL    HW2  793   0.052   0.906   2.672
  261SOL     OW  794   0.130   1.821   3.433
  261SOL    HW1  795   0.120   1.806   3.532
  261SOL    HW2  796   0.044   1.857   3.397
  262SOL     OW  797   0.865   0.348   2.057
  262SOL    HW1  798   0.924   0.411   2.008
  262SOL    HW2  799   0.884   0.254   2.028
  263SOL     OW  800   1.719   0.585   3.693
  263SOL    HW1  801   1.693   0.674   3.657
  263SOL    HW2  802   1.717   0.517   3.620
  264SOL     OW  803   1.362   1.144   2.407
  264SOL    HW1  804   1.445   1.115   2.359
  264SOL    HW2  805   1.313   1.211   2.351
  265SOL     OW  806   0.550   0.196   2.747
  265SOL    HW1  807   0.545   0.191   2.847
  265SOL    HW2  808   0.552   0.292   2.718
  266SOL     OW  809   1.008   1.456   2.339
  266SOL    HW1  810   0.962   1.528   2.287
  266SOL    HW2  811   1.004   1.476   2.437
  267SOL     OW  812   0.351   1.801   2.715
  267SOL    HW1  813   0.401   1.715   2.721
  267SOL    HW2  814   0.416   1.878   2.712
  268SOL     OW  815   1.795   1.066   2.735
  268SOL    HW1  816   1.733   1.051   2.659
  268SOL    HW2  817   1.743   1.077   2.820
  269SOL     OW  818   1.227   1.550   3.368
  269SOL    HW1  819   1.233   1.473   3.432
  269SOL    HW2  820   1.175   1.524   3.288
  270SOL     OW  821   0.321   0.943   2.104
  270SOL    HW1  822   0.403   0.982   2.062
  270SOL    HW2  823   0.294   0.861   2.055
  271SOL     OW  824   1.458   0.735   2.590
  271SOL    HW1  825   1.453   0.670   2.665
  271SOL    HW2  826   1.538   0.794   2.603
  272SOL     OW  827   0.461   1.266   3.589
  272SOL    HW1  828   0.411   1.267   3.503
  272SOL    HW2  829   0.398   1.248   3.665
  273SOL     OW  830   1.111   1.776   2.099
  273SOL    HW1  831   1.051   1.714   2.149
  273SOL    HW2  832   1.142   1.732   2.014
  274SOL     OW  833   0.202   0.285   3.360
  274SOL    HW1  834   0.122   0.345   3.347
  274SOL    HW2  835   0.192   0.236   3.446
  275SOL     OW  836   1.632   1.377   1.943
  275SOL    HW1  837   1.600   1.471   1.933
  275SOL    HW2  838   1.556   1.314   1.931
  276SOL     OW  839   0.464   1.743   2.185
  276SOL    HW1  840   0.497   1.782   2.271
  276SOL    HW2  841   0.540   1.736   2.120
  277SOL     OW  842   1.400   0.107   2.288
  277SOL    HW1  843   1.376   0.070   2.198
  277SOL    HW2  844   1.499   0.123   2.292
  278SOL     OW  845   0.249   1.785   3.103
  278SOL    HW1  846   0.306   1.720   3.153
  278SOL    HW2  847   0.233   1.752   3.010
  279SOL     OW  848   0.940   1.698   2.766
  279SOL    HW1  849   1.020   1.641   2.787
  279SOL    HW2  850   0.891   1.658   2.689
  280SOL     OW  851   0.382   0.700   2.342
  280SOL    HW1  852   0.427   0.610   2.339
  280SOL    HW2  853   0.288   0.689   2.375
  281SOL     OW  854   1.547   0.222   3.591
  281SOL    HW1  855   1.542   0.259   3.683
  281SOL    HW2  856   1.475   0.153   3.579
  282SOL     OW  857   0.614   0.122   1.979
  282SOL    HW1  858   0.712   0.100   1.986
  282SOL    HW2  859   0.583   0.105   1.886
  283SOL     OW  860   0.781   0.264   3.611
  283SOL    HW1  861   0.848   0.203   3.654
  283SOL    HW2  862   0.708   0.283   3.676
  284SOL     OW  863   0.888   1.514   3.057
  284SOL    HW1  864   0.865   1.489   2.963
  284SOL    HW2  865   0.949   1.445   3.096
  285SOL     OW  866   1.351   0.590   3.295
  285SOL    HW1  867   1.379   0.547   3.380
  285SOL    HW2  868   1.376   0.686   3.296
  286SOL     OW  869   0.803   1.402   2.786
  286SOL    HW1  870   0.893   1.416   2.744
  286SOL    HW2  871   0.732   1.404   2.715
  287SOL     OW  872   0.922   0.503   2.761
  287SOL    HW1  873   0.897   0.494   2.665
  287SOL    HW2  874   0.970   0.421   2.792
  288SOL     OW  875   0.539   0.064   2.374
  288SOL    HW1  876   0.458   0.065   2.432
  288SOL    HW2  877   0.542   0.147   2.319
  289SOL     OW  878   1.434   1.188   1.903
  289SOL    HW1  879   1.466   1.112   1.960
  289SOL    HW2  880   1.342   1.215   1.933
  290SOL     OW  881   0.297   0.035   2.033
  290SOL    HW1  882   0.346   0.119   2.012
  290SOL    HW2  883   0.359  -0.030   2.078
  291SOL     OW  884   0.935   0.236   2.342
  291SOL    HW1  885   0.887   0.277   2.264
  291SOL    HW2  886   1.034   0.234   2.323
  292SOL     OW  887   1.076   0.683   3.326
  292SOL    HW1  888   0.996   0.622   3.329
  292SOL    HW2  889   1.157   0.630   3.302
  293SOL     OW  890   1.227   1.570   2.655
  293SOL    HW1  891   1.248   1.644   2.590
  293SOL    HW2  892   1.295   1.570   2.728
  294SOL     OW  893   0.459   1.152   2.603
  294SOL    HW1  894   0.388   1.125   2.668
  294SOL    HW2  895   0.433   1.124   2.510
  295SOL     OW  896   1.271   1.797   2.453
  295SOL    HW1  897   1.315   1.861   2.389
  295SOL    HW2  898   1.221   1.849   2.523
  296SOL     OW  899   1.032   0.549   1.878
  296SOL    HW1  900   0.991   0.631   1.839
  296SOL    HW2  901   1.096   0.575   1.951
  297SOL     OW  902   0.078   0.556   3.248
  297SOL    HW1  903   0.170   0.555   3.207
  297SOL    HW2  904   0.072   0.630   3.315
  298SOL     OW  905   0.561   0.222   3.009
  298SOL    HW1  906   0.599   0.138   3.046
  298SOL    HW2  907   0.473   0.241   3.053
  299SOL     OW  908   0.866   0.454   2.504
  299SOL    HW1  909   0.834   0.526   2.442
  299SOL    HW2  910   0.890   0.373   2.451
  300SOL     OW  911   1.017   0.039   2.615
  300SOL    HW1  912   0.945   0.044   2.546
  300SOL    HW2  913   0.993  -0.030   2.684
  301SOL     OW  914   1.429   1.173   2.729
  301SOL    HW1  915   1.374   1.089   2.722
  301SOL    HW2  916   1.455   1.202   2.637
  302SOL     OW  917   1.466   0.590   2.854
  302SOL    HW1  918   1.436   0.495   2.861
  302SOL    HW2  919   1.539   0.606   2.920
  303SOL     OW  920   1.857   0.833   2.239
  303SOL    HW1  921   1.899   0.769   2.303
  303SOL    HW2  922   1.819   0.782   2.161
  304SOL     OW  923   0.488   1.385   2.036
  304SOL    HW1  924   0.401   1.370   2.083
  304SOL    HW2  925   0.471   1.411   1.941
  305SOL     OW  926   1.664   1.280   2.519
  305SOL    HW1  927   1.763   1.288   2.533
  305SOL    HW2  928   1.619   1.364   2.550
  306SOL     OW  929   1.390   0.575   1.940
  306SOL    HW1  930   1.336   0.554   2.021
  306SOL    HW2  931   1.481   0.534   1.949
  307SOL     OW  932   0.527   0.256   2.190
  307SOL    HW1  933   0.554   0.197   2.115
  307SOL    HW2  934   0.527   0.351   2.159
  308SOL     OW  935   1.754   1.223   3.450
  308SOL    HW1  936   1.845   1.184   3.437
  308SOL    HW2  937   1.762   1.319   3.474
  309SOL     OW  938   1.064   1.347   3.202
  309SOL    HW1  939   0.984   1.324   3.257
  309SOL    HW2  940   1.147   1.321   3.251
  310SOL     OW  941   1.592   1.629   3.487
  310SOL    HW1  942   1.619   1.663   3.397
  310SOL    HW2  943   1.671   1.591   3.533
  311SOL     OW  944   1.111   1.195   2.962
  311SOL    HW1  945   1.071   1.239   3.043
  311SOL    HW2  946   1.070   1.232   2.879
  312SOL     OW  947   1.638   1.099   2.941
  312SOL    HW1  948   1.643   1.180   3.000
  312SOL    HW2  949   1.552   1.101   2.890
  313SOL     OW  950   0.915   0.089   3.264
  313SOL    HW1  951   0.940   0.069   3.169
  313SOL    HW2  952   0.987   0.145   3.306
  314SOL     OW  953   0.980   1.116   3.581
  314SOL    HW1  954   0.881   1.122   3.591
  314SOL    HW2  955   1.003   1.036   3.525
  315SOL     OW  956   0.705   1.050   2.230
  315SOL    HW1  957   0.691   1.057   2.329
  315SOL    HW2  958   0.789   0.999   2.212
  316SOL     OW  959   0.410   0.813   3.113
  316SOL    HW1  960   0.496   0.825   3.163
  316SOL    HW2  961   0.368   0.726   3.140
  317SOL     OW  962   1.274   0.386   3.124
  317SOL    HW1  963   1.295   0.460   3.188
  317SOL    HW2  964   1.185   0.403   3.081
  318SOL     OW  965   0.064   1.564   3.193
  318SOL    HW1  966   0.018   1.646   3.159
  318SOL    HW2  967   0.162   1.583   3.202
  319SOL     OW  968   0.367   1.100   2.363
  319SOL    HW1  969   0.360   1.183   2.307
  319SOL    HW2  970   0.371   1.020   2.303
  320SOL     OW  971   0.566   0.537   2.727
  320SOL    HW1  972   0.578   0.603   2.653
  320SOL    HW2  973   0.612   0.571   2.810
  321SOL     OW  974   1.252   1.348   2.250
  321SOL    HW1  975   1.302   1.425   2.290
  321SOL    HW2  976   1.157   1.350   2.282
  322SOL     OW  977   1.272   1.445   3.004
  322SOL    HW1  978   1.319   1.458   3.091
  322SOL    HW2  979   1.206   1.371   3.013
  323SOL     OW  980   1.582   0.639   2.334
  323SOL    HW1  981   1.551   0.700   2.407
  323SOL    HW2  982   1.632   0.691   2.265
  324SOL     OW  983   0.354   1.510   3.191
  324SOL    HW1  984   0.333   1.466   3.104
  324SOL    HW2  985   0.451   1.536   3.194
  325SOL     OW  986   0.402   0.751   3.460
  325SOL    HW1  987   0.470   0.806   3.413
  325SOL    HW2  988   0.442   0.663   3.487
  326SOL     OW  989   1.587   0.779   3.532
  326SOL    HW1  990   1.495   0.817   3.527
  326SOL    HW2  991   1.647   0.826   3.467
  327SOL     OW  992   1.013   0.105   3.632
  327SOL    HW1  993   1.019   0.190   3.580
  327SOL    HW2  994   1.045   0.029   3.575
  328SOL     OW  995   0.504   0.050   3.602
  328SOL    HW1  996   0.462  -0.007   3.532
  328SOL    HW2  997   0.438   0.119   3.634
  329SOL     OW  998   0.573   0.870   2.891
  329SOL    HW1  999   0.617   0.959   2.882
  329SOL    HW2 1000   0.510   0.870   2.968
  330SOL     OW 1001   1.360   0.862   2.907
  330SOL    HW1 1002   1.285   0.862   2.841
  330SOL    HW2 1003   1.397   0.770   2.916
  331SOL     OW 1004   1.209   0.525   2.137
  331SOL    HW1 1005   1.222   0.441   2.191
  331SOL    HW2 1006   1.180   0.599   2.197
  332SOL     OW 1007   0.307   0.213   3.093
  332SOL    HW1 1008   0.284   0.250   3.183
  332SOL    HW2 1009   0.277   0.118   3.087
  333SOL     OW 1010   0.037   1.310   3.144
  333SOL    HW1 1011   0.090   1.261   3.212
  333SOL    HW2 1012   0.059   1.408   3.149
  334SOL     OW 1013   0.732   0.634   2.926
  334SOL    HW1 1014   0.791   0.608   2.850
  334SOL    HW2 1015   0.704   0.730   2.915
  335SOL     OW 1016   1.728   0.935   3.716
  335SOL    HW1 1017   1.682   0.928   3.627
  335SOL    HW2 1018   1.666   0.979   3.782
  336SOL     OW 1019   0.307   0.063   2.480
  336SOL    HW1 1020   0.296   0.157   2.513
  336SOL    HW2 1021   0.302   0.000   2.557
  337SOL     OW 1022   1.622   0.367   2.236
  337SOL    HW1 1023   1.624   0.291   2.300
  337SOL    HW2 1024   1.574   0.444   2.276
  338SOL     OW 1025   1.023   0.766   2.828
  338SOL    HW1 1026   1.038   0.787   2.924
  338SOL    HW2 1027   0.993   0.671   2.819
  339SOL     OW 1028   0.980   1.573   3.562
  339SOL    HW1 1029   0.960   1.617   3.474
  339SOL    HW2 1030   1.019   1.482   3.546
  340SOL     OW 1031   1.859   1.518   3.467
  340SOL    HW1 1032   1.873   1.545   3.372
  340SOL    HW2 1033   1.942   1.540   3.520
  341SOL     OW 1034   0.350   0.898   3.666
  341SOL    HW1 1035   0.426   0.942   3.714
  341SOL    HW2 1036   0.385   0.851   3.584
  342SOL     OW 1037   1.540   0.274   1.987
  342SOL    HW1 1038   1.479   0.199   2.010
  342SOL    HW2 1039   1.562   0.326   2.070
  343SOL     OW 1040   1.303   0.838   1.904
  343SOL    HW1 1041   1.337   0.745   1.919
  343SOL    HW2 1042   1.321   0.865   1.809
  344SOL     OW 1043   1.068   1.333   2.711
  344SOL    HW1 1044   1.075   1.249   2.656
  344SOL    HW2 1045   1.130   1.402   2.675
  345SOL     OW 1046   0.319   0.810   2.811
  345SOL    HW1 1047   0.412   0.846   2.816
  345SOL    HW2 1048   0.313   0.725   2.863
  346SOL     OW 1049   0.339   0.509   2.868
  346SOL    HW1 1050   0.287   0.426   2.851
  346SOL    HW2 1051   0.416   0.514   2.804
  347SOL     OW 1052   1.138   0.380   3.540
  347SOL    HW1 1053   1.093   0.443   3.604
  347SOL    HW2 1054   1.231   0.411   3.523
  348SOL     OW 1055   1.160   0.207   3.339
  348SOL    HW1 1056   1.160   0.271   3.416
  348SOL    HW2 1057   1.188   0.255   3.256
  349SOL     OW 1058   0.008   1.326   2.062
  349SOL    HW1 1059  -0.085   1.347   2.031
  349SOL    HW2 1060   0.018   1.227   2.075
  350SOL     OW 1061   0.088   1.801   2.789
  350SOL    HW1 1062   0.046   1.715   2.762
  350SOL    HW2 1063   0.182   1.804   2.755
  351SOL     OW 1064   0.504   1.568   2.772
  351SOL    HW1 1065   0.570   1.642   2.781
  351SOL    HW2 1066   0.548   1.489   2.730
  352SOL     OW 1067   1.002   0.796   3.100
  352SOL    HW1 1068   1.043   0.764   3.186
  352SOL    HW2 1069   0.906   0.769   3.097
  353SOL     OW 1070   0.040   0.544   2.976
  353SOL    HW1 1071   0.125   0.511   2.935
  353SOL    HW2 1072   0.053   0.559   3.074
  354SOL     OW 1073   0.189   0.520   3.584
  354SOL    HW1 1074   0.248   0.480   3.514
  354SOL    HW2 1075   0.131   0.591   3.543
  355SOL     OW 1076   1.369   0.950   3.522
  355SOL    HW1 1077   1.408   1.039   3.542
  355SOL    HW2 1078   1.379   0.930   3.425
  356SOL     OW 1079   0.815   0.572   2.187
  356SOL    HW1 1080   0.822   0.483   2.141
  356SOL    HW2 1081   0.721   0.606   2.179
  357SOL     OW 1082   1.657   0.604   3.068
  357SOL    HW1 1083   1.619   0.535   3.130
  357SOL    HW2 1084   1.739   0.568   3.024
  358SOL     OW 1085   0.252   1.564   3.606
  358SOL    HW1 1086   0.222   1.621   3.682
  358SOL    HW2 1087   0.245   1.467   3.632
  359SOL     OW 1088   0.671   0.464   3.131
  359SOL    HW1 1089   0.637   0.375   3.101
  359SOL    HW2 1090   0.697   0.518   3.051
  360SOL     OW 1091   0.930   1.678   3.327
  360SOL    HW1 1092   0.906   1.660   3.232
  360SOL    HW2 1093   0.960   1.772   3.337
  361SOL     OW 1094   0.473   0.500   2.053
  361SOL    HW1 1095   0.534   0.580   2.057
  361SOL    HW2 1096   0.378   0.531   2.060
  362SOL     OW 1097   0.159   1.137   3.328
  362SOL    HW1 1098   0.181   1.076   3.404
  362SOL    HW2 1099   0.169   1.088   3.242
  363SOL     OW 1100   1.347   1.059   3.096
  363SOL    HW1 1101   1.371   0.996   3.022
  363SOL    HW2 1102   1.257   1.099   3.078
  364SOL     OW 1103   1.302   0.855   2.171
  364SOL    HW1 1104   1.216   0.824   2.213
  364SOL    HW2 1105   1.298   0.841   2.072
  365SOL     OW 1106   1.759   1.747   3.016
  365SOL    HW1 1107   1.820   1.777   2.943
  365SOL    HW2 1108   1.721   1.658   2.994
  366SOL     OW 1109   1.252   1.731   2.990
  366SOL    HW1 1110   1.336   1.736   2.936
  366SOL    HW2 1111   1.229   1.635   3.008
  367SOL     OW 1112   0.083   1.258   2.884
  367SOL    HW1 1113   0.078   1.257   2.984
  367SOL    HW2 1114   0.000   1.217   2.846
  368SOL     OW 1115   0.688   1.662   3.578
  368SOL    HW1 1116   0.632   1.743   3.587
  368SOL    HW2 1117   0.740   1.666   3.492
  369SOL     OW 1118   1.726   0.135   2.385
  369SOL    HW1 1119   1.799   0.118   2.318
  369SOL    HW2 1120   1.695   0.048   2.423
  370SOL     OW 1121   1.388   1.573   2.339
  370SOL    HW1 1122   1.455   1.585   2.265
  370SOL    HW2 1123   1.348   1.662   2.362
  371SOL     OW 1124   0.130   1.794   3.713
  371SOL    HW1 1125   0.089   1.720   3.766
  371SOL    HW2 1126   0.194   1.845   3.771
  372SOL     OW 1127   1.280   0.927   2.534
  372SOL    HW1 1128   1.340   0.846   2.536
  372SOL    HW2 1129   1.320   0.996   2.474
  373SOL     OW 1130   0.830   1.273   3.284
  373SOL    HW1 1131   0.825   1.306   3.379
  373SOL    HW2 1132   0.744   1.292   3.238
  374SOL     OW 1133   0.672   1.616   2.016
  374SOL    HW1 1134   0.681   1.626   1.917
  374SOL    HW2 1135   0.632   1.527   2.037
  375SOL     OW 1136   1.650   1.720   3.256
  375SOL    HW1 1137   1.703   1.730   3.172
  375SOL    HW2 1138   1.623   1.810   3.290
  376SOL     OW 1139   1.841   0.175   2.825
  376SOL    HW1 1140   1.880   0.090   2.789
  376SOL    HW2 1141   1.743   0.177   2.806
  377SOL     OW 1142   0.263   0.326   2.582
  377SOL    HW1 1143   0.184   0.377   2.548
  377SOL    HW2 1144   0.254   0.311   2.680
  378SOL     OW 1145   1.194   1.612   1.893
  378SOL    HW1 1146   1.200   1.519   1.930
  378SOL    HW2 1147   1.135   1.612   1.813
  379SOL     OW 1148   0.822   1.002   3.234
  379SOL    HW1 1149   0.862   1.001   3.142
  379SOL    HW2 1150   0.832   1.094   3.274
  380SOL     OW 1151   0.916   0.910   2.153
  380SOL    HW1 1152   0.979   0.948   2.085
  380SOL    HW2 1153   0.956   0.827   2.192
  381SOL     OW 1154   1.504   1.607   1.906
  381SOL    HW1 1155   1.412   1.644   1.913
  381SOL    HW2 1156   1.542   1.627   1.816
  382SOL     OW 1157   0.372   1.288   3.352
  382SOL    HW1 1158   0.359   1.381   3.318
  382SOL    HW2 1159   0.288   1.236   3.339
  383SOL     OW 1160   1.614   1.292   3.151
  383SOL    HW1 1161   1.674   1.295   3.231
  383SOL    HW2 1162   1.539   1.356   3.164
  384SOL     OW 1163   1.039   1.098   2.558
  384SOL    HW1 1164   0.969   1.051   2.612
  384SOL    HW2 1165   1.098   1.030   2.515
  385SOL     OW 1166   1.014   0.236   2.833
  385SOL    HW1 1167   1.006   0.200   2.740
  385SOL    HW2 1168   1.012   0.160   2.898
  386SOL     OW 1169   0.590   1.487   2.353
  386SOL    HW1 1170   0.632   1.429   2.283
  386SOL    HW2 1171   0.546   1.566   2.309
  387SOL     OW 1172   1.709   0.385   3.243
  387SOL    HW1 1173   1.782   0.454   3.247
  387SOL    HW2 1174   1.737   0.310   3.184
  388SOL     OW 1175   0.255   1.348   2.152
  388SOL    HW1 1176   0.159   1.349   2.125
  388SOL    HW2 1177   0.267   1.401   2.236
  389SOL     OW 1178   0.105   1.013   3.588
  389SOL    HW1 1179   0.028   0.980   3.642
  389SOL    HW2 1180   0.190   0.983   3.630
  390SOL     OW 1181   0.672   0.203   3.351
  390SOL    HW1 1182   0.762   0.187   3.311
  390SOL    HW2 1183   0.680   0.208   3.450
  391SOL     OW 1184   0.075   0.345   1.895
  391SOL    HW1 1185  -0.017   0.317   1.866
  391SOL    HW2 1186   0.106   0.422   1.839
  392SOL     OW 1187   1.440   0.856   3.260
  392SOL    HW1 1188   1.383   0.908   3.197
  392SOL    HW2 1189   1.536   0.868   3.236
  393SOL     OW 1190   0.072   0.166   2.180
  393SOL    HW1 1191   0.055   0.249   2.126
  393SOL    HW2 1192   0.162   0.129   2.158
  394SOL     OW 1193   1.183   1.335   1.981
  394SOL    HW1 1194   1.084   1.324   1.983
  394SOL    HW2 1195   1.217   1.350   2.074
  395SOL     OW 1196   0.613   0.842   3.293
  395SOL    HW1 1197   0.669   0.923   3.276
  395SOL    HW2 1198   0.672   0.762   3.296
  396SOL     OW 1199   1.493   1.767   2.821
  396SOL    HW1 1200   1.526   1.831   2.752
  396SOL    HW2 1201   1.559   1.761   2.896
  397SOL     OW 1202   0.716   0.565   3.570
  397SOL    HW1 1203   0.735   0.630   3.644
  397SOL    HW2 1204   0.776   0.485   3.579
  398SOL     OW 1205   1.450   1.220   3.495
  398SOL    HW1 1206   1.441   1.210   3.594
  398SOL    HW2 1207   1.546   1.213   3.469
  399SOL     OW 1208   0.390   1.741   3.422
  399SOL    HW1 1209   0.299   1.782   3.420
  399SOL    HW2 1210   0.383   1.647   3.454
  400SOL     OW 1211   1.674   0.883   3.116
  400SOL    HW1 1212   1.647   0.794   3.079
  400SOL    HW2 1213   1.675   0.951   3.043
  401SOL     OW 1214   1.225   0.325   2.311
  401SOL    HW1 1215   1.290   0.251   2.300
  401SOL    HW2 1216   1.245   0.375   2.395
  402SOL     OW 1217   0.594   0.745   2.514
  402SOL    HW1 1218   0.644   0.830   2.495
  402SOL    HW2 1219   0.506   0.747   2.466
  403SOL     OW 1220   1.777   0.342   3.504
  403SOL    HW1 1221   1.760   0.373   3.410
  403SOL    HW2 1222   1.693   0.305   3.542
  404SOL     OW 1223   1.730   0.934   3.379
  404SOL    HW1 1224   1.768   1.025   3.394
  404SOL    HW2 1225   1.722   0.917   3.280
  405SOL     OW 1226   0.859   1.374   1.878
  405SOL    HW1 1227   0.813   1.389   1.966
  405SOL    HW2 1228   0.903   1.459   1.848
  406SOL     OW 1229   0.661   1.790   2.815
  406SOL    HW1 1230   0.615   1.878   2.802
  406SOL    HW2 1231   0.760   1.802   2.808
  407SOL     OW 1232   0.859   0.956   2.723
  407SOL    HW1 1233   0.913   0.887   2.771
  407SOL    HW2 1234   0.827   1.025   2.789
  408SOL     OW 1235   1.083   0.984   1.949
  408SOL    HW1 1236   1.060   1.037   1.867
  408SOL    HW2 1237   1.164   0.928   1.930
  409SOL     OW 1238   1.861   1.569   2.713
  409SOL    HW1 1239   1.790   1.557   2.643
  409SOL    HW2 1240   1.862   1.490   2.773
  410SOL     OW 1241   0.221   1.314   3.706
  410SOL    HW1 1242   0.156   1.241   3.685
  410SOL    HW2 1243   0.225   1.328   3.804
  411SOL     OW 1244   0.079   1.240   2.515
  411SOL    HW1 1245   0.078   1.193   2.603
  411SOL    HW2 1246   0.161   1.212   2.464
  412SOL     OW 1247   0.672   1.391   3.486
  412SOL    HW1 1248   0.594   1.341   3.524
  412SOL    HW2 1249   0.669   1.486   3.517
  413SOL     OW 1250   1.824   0.192   3.089
  413SOL    HW1 1251   1.820   0.102   3.133
  413SOL    HW2 1252   1.827   0.181   2.990
  414SOL     OW 1253   0.428   0.424   2.382
  414SOL    HW1 1254   0.458   0.352   2.320
  414SOL    HW2 1255   0.389   0.384   2.465
  415SOL     OW 1256   1.705   1.487   2.966
  415SOL    HW1 1257   1.612   1.462   2.939
  415SOL    HW2 1258   1.731   1.437   3.048
  416SOL     OW 1259   0.317   0.547   3.142
  416SOL    HW1 1260   0.355   0.488   3.214
  416SOL    HW2 1261   0.357   0.521   3.054
  417SOL     OW 1262   0.812   1.586   2.549
  417SOL    HW1 1263   0.844   1.596   2.455
  417SOL    HW2 1264   0.733   1.524   2.551
  418SOL     OW 1265   1.424   0.214   2.974
  418SOL    HW1 1266   1.476   0.149   3.029
  418SOL    HW2 1267   1.375   0.277   3.035
  419SOL     OW 1268   1.001   0.034   3.016
  419SOL    HW1 1269   0.938  -0.038   2.985
  419SOL    HW2 1270   1.094  -0.002   3.016
  420SOL     OW 1271   0.770   1.330   2.163
  420SOL    HW1 1272   0.724   1.243   2.180
  420SOL    HW2 1273   0.861   1.327   2.204
  421SOL     OW 1274   0.618   1.567   3.146
  421SOL    HW1 1275   0.613   1.649   3.203
  421SOL    HW2 1276   0.707   1.564   3.101
  422SOL     OW 1277   1.352   0.052   2.030
  422SOL    HW1 1278   1.387   0.011   1.946
  422SOL    HW2 1279   1.262   0.014   2.050
  423SOL     OW 1280   1.300   0.453   2.553
  423SOL    HW1 1281   1.241   0.533   2.557
  423SOL    HW2 1282   1.315   0.418   2.646
  424SOL     OW 1283   1.593   0.221   2.744
  424SOL    HW1 1284   1.509   0.220   2.798
  424SOL    HW2 1285   1.595   0.304   2.688
  425SOL     OW 1286   0.039   1.077   2.162
  425SOL    HW1 1287   0.138   1.066   2.153
  425SOL    HW2 1288  -0.001   0.991   2.194
  426SOL     OW 1289   0.875   1.646   2.199
  426SOL    HW1 1290   0.798   1.611   2.145
  426SOL    HW2 1291   0.843   1.717   2.261
  427SOL     OW 1292   0.230   0.628   3.837
  427SOL    HW1 1293   0.137   0.626   3.874
  427SOL    HW2 1294   0.231   0.589   3.745
  428SOL     OW 1295   1.755   0.607   3.955
  428SOL    HW1 1296   1.743   0.594   3.856
  428SOL    HW2 1297   1.725   0.526   4.004
  429SOL     OW 1298   0.685   1.012   4.389
  429SOL    HW1 1299   0.754   0.996   4.459
  429SOL    HW2 1300   0.612   1.069   4.427
  430SOL     OW 1301   1.603   0.447   4.461
  430SOL    HW1 1302   1.529   0.493   4.411
  430SOL    HW2 1303   1.654   0.515   4.514
  431SOL     OW 1304   0.231   1.713   4.207
  431SOL    HW1 1305   0.265   1.790   4.261
  431SOL    HW2 1306   0.275   1.713   4.117
  432SOL     OW 1307   0.230   1.434   4.262
  432SOL    HW1 1308   0.204   1.530   4.262
  432SOL    HW2 1309   0.159   1.380   4.307
  433SOL     OW 1310   0.606   0.964   3.847
  433SOL    HW1 1311   0.613   1.048   3.793
  433SOL    HW2 1312   0.652   0.977   3.935
  434SOL     OW 1313   0.122   0.643   4.287
  434SOL    HW1 1314   0.077   0.555   4.304
  434SOL    HW2 1315   0.121   0.697   4.371
  435SOL     OW 1316   1.842   1.767   4.083
  435SOL    HW1 1317   1.896   1.738   4.163
  435SOL    HW2 1318   1.872   1.857   4.054
  436SOL     OW 1319   0.027   1.596   3.841
  436SOL    HW1 1320   0.008   1.500   3.862
  436SOL    HW2 1321  -0.006   1.654   3.916
  437SOL     OW 1322   1.689   0.922   4.336
  437SOL    HW1 1323   1.784   0.893   4.344
  437SOL    HW2 1324   1.681   0.987   4.261
  438SOL     OW 1325   1.641   1.108   4.156
  438SOL    HW1 1326   1.727   1.110   4.104
  438SOL    HW2 1327   1.655   1.155   4.244
  439SOL     OW 1328   0.613   1.365   4.450
  439SOL    HW1 1329   0.564   1.278   4.459
  439SOL    HW2 1330   0.590   1.408   4.363
  440SOL     OW 1331   0.809   0.004   4.226
  440SOL    HW1 1332   0.849   0.095   4.217
  440SOL    HW2 1333   0.709   0.012   4.232
  441SOL     OW 1334   1.525   0.999   3.914
  441SOL    HW1 1335   1.462   0.923   3.927
  441SOL    HW2 1336   1.573   1.017   4.000
  442SOL     OW 1337   1.667   1.714   4.296
  442SOL    HW1 1338   1.626   1.691   4.208
  442SOL    HW2 1339   1.649   1.640   4.361
  443SOL     OW 1340   0.598   0.729   3.994
  443SOL    HW1 1341   0.622   0.798   3.926
  443SOL    HW2 1342   0.520   0.762   4.048
  444SOL     OW 1343   1.281   0.345   4.668
  444SOL    HW1 1344   1.195   0.295   4.655
  444SOL    HW2 1345   1.343   0.291   4.724
  445SOL     OW 1346   1.576   1.662   4.031
  445SOL    HW1 1347   1.665   1.708   4.034
  445SOL    HW2 1348   1.555   1.638   3.936
  446SOL     OW 1349   1.041   0.701   4.153
  446SOL    HW1 1350   1.067   0.697   4.249
  446SOL    HW2 1351   0.956   0.650   4.139
  447SOL     OW 1352   0.076   0.811   4.513
  447SOL    HW1 1353   0.175   0.799   4.522
  447SOL    HW2 1354   0.052   0.906   4.534
  448SOL     OW 1355   0.865   0.348   3.919
  448SOL    HW1 1356   0.924   0.411   3.870
  448SOL    HW2 1357   0.884   0.254   3.890
  449SOL     OW 1358   1.362   1.144   4.269
  449SOL    HW1 1359   1.445   1.115   4.221
  449SOL    HW2 1360   1.313   1.211   4.213
  450SOL     OW 1361   1.008   1.456   4.201
  450SOL    HW1 1362   0.962   1.528   4.149
  450SOL    HW2 1363   1.004   1.476   4.299
  451SOL     OW 1364   0.351   1.801   4.577
  451SOL    HW1 1365   0.401   1.715   4.583
  451SOL    HW2 1366   0.416   1.878   4.574
  452SOL     OW 1367   1.795   1.066   4.597
  452SOL    HW1 1368   1.733   1.051   4.521
  452SOL    HW2 1369   1.743   1.077   4.682
  453SOL     OW 1370   0.321   0.943   3.966
  453SOL    HW1 1371   0.403   0.982   3.924
  453SOL    HW2 1372   0.294   0.861   3.917
  454SOL     OW 1373   1.111   1.776   3.961
  454SOL    HW1 1374   1.051   1.714   4.011
  454SOL    HW2 1375   1.142   1.732   3.876
  455SOL     OW 1376   1.632   1.377   3.805
  455SOL    HW1 1377   1.600   1.471   3.795
  455SOL    HW2 1378   1.556   1.314   3.793
  456SOL     OW 1379   0.464   1.743   4.047
  456SOL    HW1 1380   0.497   1.782   4.133
  456SOL    HW2 1381   0.540   1.736   3.982
  457SOL     OW 1382   1.400   0.107   4.150
  457SOL    HW1 1383   1.376   0.070   4.060
  457SOL    HW2 1384   1.499   0.123   4.154
  458SOL     OW 1385   0.940   1.698   4.628
  458SOL    HW1 1386   1.020   1.641   4.649
  458SOL    HW2 1387   0.891   1.658   4.551
  459SOL     OW 1388   0.382   0.700   4.204
  459SOL    HW1 1389   0.427   0.610   4.201
  459SOL    HW2 1390   0.288   0.689   4.237
  460SOL     OW 1391   0.614   0.122   3.841
  460SOL    HW1 1392   0.712   0.100   3.848
  460SOL    HW2 1393   0.583   0.105   3.748
  461SOL     OW 1394   0.539   0.064   4.236
  461SOL    HW1 1395   0.458   0.065   4.294
  461SOL    HW2 1396   0.542   0.147   4.181
  462SOL     OW 1397   1.434   1.188   3.765
  462SOL    HW1 1398   1.466   1.112   3.822
  462SOL    HW2 1399   1.342   1.215   3.795
  463SOL     OW 1400   0.297   0.035   3.895
  463SOL    HW1 1401   0.346   0.119   3.874
  463SOL    HW2 1402   0.359  -0.030   3.940
  464SOL     OW 1403   0.935   0.236   4.204
  464SOL    HW1 1404   0.887   0.277   4.126
  464SOL    HW2 1405   1.034   0.234   4.185
  465SOL     OW 1406   0.459   1.152   4.465
  465SOL    HW1 1407   0.388   1.125   4.530
  465SOL    HW2 1408   0.433   1.124   4.372
  466SOL     OW 1409   1.271   1.797   4.315
  466SOL    HW1 1410   1.315   1.861   4.251
  466SOL    HW2 1411   1.221   1.849   4.385
  467SOL     OW 1412   1.032   0.549   3.740
  467SOL    HW1 1413   0.991   0.631   3.701
  467SOL    HW2 1414   1.096   0.575   3.813
  468SOL     OW 1415   0.866   0.454   4.366
  468SOL    HW1 1416   0.834   0.526   4.304
  468SOL    HW2 1417   0.890   0.373   4.313
  469SOL     OW 1418   1.857   0.833   4.101
  469SOL    HW1 1419   1.899   0.769   4.165
  469SOL    HW2 1420   1.819   0.782   4.023
  470SOL     OW 1421   0.488   1.385   3.898
  470SOL    HW1 1422   0.401   1.370   3.945
  470SOL    HW2 1423   0.471   1.411   3.803
  471SOL     OW 1424   1.664   1.280   4.381
  471SOL    HW1 1425   1.763   1.288   4.395
  471SOL    HW2 1426   1.619   1.364   4.412
  472SOL     OW 1427   1.390   0.575   3.802
  472SOL    HW1 1428   1.336   0.554   3.883
  472SOL    HW2 1429   1.481   0.534   3.811
  473SOL     OW 1430   0.527   0.256   4.052
  473SOL    HW1 1431   0.554   0.197   3.977
  473SOL    HW2 1432   0.527   0.351   4.021
  474SOL     OW 1433   1.111   1.195   4.824
  474SOL    HW1 1434   1.071   1.239   4.905
  474SOL    HW2 1435   1.070   1.232   4.741
  475SOL     OW 1436   0.705   1.050   4.092
  475SOL    HW1 1437   0.691   1.057   4.191
  475SOL    HW2 1438   0.789   0.999   4.074
  476SOL     OW 1439   0.367   1.100   4.225
  476SOL    HW1 1440   0.360   1.183   4.169
  476SOL    HW2 1441   0.371   1.020   4.165
  477SOL     OW 1442   1.252   1.348   4.112
  477SOL    HW1 1443   1.302   1.425   4.152
  477SOL    HW2 1444   1.157   1.350   4.144
  478SOL     OW 1445   1.582   0.639   4.196
  478SOL    HW1 1446   1.551   0.700   4.269
  478SOL    HW2 1447   1.632   0.691   4.127
  479SOL     OW 1448   1.209   0.525   3.999
  479SOL    HW1 1449   1.222   0.441   4.053
  479SOL    HW2 1450   1.180   0.599   4.059
  480SOL     OW 1451   0.307   0.063   4.342
  480SOL    HW1 1452   0.296   0.157   4.375
  480SOL    HW2 1453   0.302   0.000   4.419
  481SOL     OW 1454   1.622   0.367   4.098
  481SOL    HW1 1455   1.624   0.291   4.162
  481SOL    HW2 1456   1.574   0.444   4.138
  482SOL     OW 1457   1.540   0.274   3.849
  482SOL    HW1 1458   1.479   0.199   3.872
  482SOL    HW2 1459   1.562   0.326   3.932
  483SOL     OW 1460   1.303   0.838   3.766
  483SOL    HW1 1461   1.337   0.745   3.781
  483SOL    HW2 1462   1.321   0.865   3.671
  484SOL     OW 1463   0.008   1.326   3.924
  484SOL    HW1 1464  -0.085   1.347   3.893
  484SOL    HW2 1465   0.018   1.227   3.937
  485SOL     OW 1466   0.815   0.572   4.049
  485SOL    HW1 1467   0.822   0.483   4.003
  485SOL    HW2 1468   0.721   0.606   4.041
  486SOL     OW 1469   0.473   0.500   3.915
  486SOL    HW1 1470   0.534   0.580   3.919
  486SOL    HW2 1471   0.378   0.531   3.922
  487SOL     OW 1472   1.302   0.855   4.033
  487SOL    HW1 1473   1.216   0.824   4.075
  487SOL    HW2 1474   1.298   0.841   3.934
  488SOL     OW 1475   1.726   0.135   4.247
  488SOL    HW1 1476   1.799   0.118   4.180
  488SOL    HW2 1477   1.695   0.048   4.285
  489SOL     OW 1478   1.388   1.573   4.201
  489SOL    HW1 1479   1.455   1.585   4.127
  489SOL    HW2 1480   1.348   1.662   4.224
  490SOL     OW 1481   0.672   1.616   3.878
  490SOL    HW1 1482   0.681   1.626   3.779
  490SOL    HW2 1483   0.632   1.527   3.899
  491SOL     OW 1484   1.841   0.175   4.687
  491SOL    HW1 1485   1.880   0.090   4.651
  491SOL    HW2 1486   1.743   0.177   4.668
  492SOL     OW 1487   1.194   1.612   3.755
  492SOL    HW1 1488   1.200   1.519   3.792
  492SOL    HW2 1489   1.135   1.612   3.675
  493SOL     OW 1490   0.916   0.910   4.015
  493SOL    HW1 1491   0.979   0.948   3.947
  493SOL    HW2 1492   0.956   0.827   4.054
  494SOL     OW 1493   1.504   1.607   3.768
  494SOL    HW1 1494   1.412   1.644   3.775
  494SOL    HW2 1495   1.542   1.627   3.678
  495SOL     OW 1496   0.590   1.487   4.215
  495SOL    HW1 1497   0.632   1.429   4.145
  495SOL    HW2 1498   0.546   1.566   4.171
  496SOL     OW 1499   0.255   1.348   4.014
  496SOL    HW1 1500   0.159   1.349   3.987
  496SOL    HW2 1501   0.267   1.401   4.098
  497SOL     OW 1502   0.075   0.345   3.757
  497SOL    HW1 1503  -0.017   0.317   3.728
  497SOL    HW2 1504   0.106   0.422   3.701
  498SOL     OW 1505   0.072   0.166   4.042
  498SOL    HW1 1506   0.055   0.249   3.988
  498SOL    HW2 1507   0.162   0.129   4.020
  499SOL     OW 1508   1.183   1.335   3.843
  499SOL    HW1 1509   1.084   1.324   3.845
  499SOL    HW2 1510   1.217   1.350   3.936
  500SOL     OW 1511   1.225   0.325   4.173
  500SOL    HW1 1512   1.290   0.251   4.162
  500SOL    HW2 1513   1.245   0.375   4.257
  501SOL     OW 1514   0.594   0.745   4.376
  501SOL    HW1 1515   0.644   0.830   4.357
  501SOL    HW2 1516   0.506   0.747   4.328
  502SOL     OW 1517   0.859   1.374   3.740
  502SOL    HW1 1518   0.813   1.389   3.828
  502SOL    HW2 1519   0.903   1.459   3.710
  503SOL     OW 1520   0.661   1.790   4.677
  503SOL    HW1 1521   0.615   1.878   4.664
  503SOL    HW2 1522   0.760   1.802   4.670
  504SOL     OW 1523   1.083   0.984   3.811
  504SOL    HW1 1524   1.060   1.037   3.729
  504SOL    HW2 1525   1.164   0.928   3.792
  505SOL     OW 1526   0.079   1.240   4.377
  505SOL    HW1 1527   0.078   1.193   4.465
  505SOL    HW2 1528   0.161   1.212   4.326
  506SOL     OW 1529   0.428   0.424   4.244
  506SOL    HW1 1530   0.458   0.352   4.182
  506SOL    HW2 1531   0.389   0.384   4.327
  507SOL     OW 1532   0.812   1.586   4.411
  507SOL    HW1 1533   0.844   1.596   4.317
  507SOL    HW2 1534   0.733   1.524   4.413
  508SOL     OW 1535   0.770   1.330   4.025
  508SOL    HW1 1536   0.724   1.243   4.042
  508SOL    HW2 1537   0.861   1.327   4.066
  509SOL     OW 1538   1.352   0.052   3.892
  509SOL    HW1 1539   1.387   0.011   3.808
  509SOL    HW2 1540   1.262   0.014   3.912
  510SOL     OW 1541   1.300   0.453   4.415
  510SOL    HW1 1542   1.241   0.533   4.419
  510SOL    HW2 1543   1.315   0.418   4.508
  511SOL     OW 1544   0.039   1.077   4.024
  511SOL    HW1 1545   0.138   1.066   4.015
  511SOL    HW2 1546  -0.001   0.991   4.056
  512SOL     OW 1547   0.875   1.646   4.061
  512SOL    HW1 1548   0.798   1.611   4.007
  512SOL    HW2 1549   0.843   1.717   4.123
  513SOL     OW 1550   0.230   2.490   0.113
  513SOL    HW1 1551   0.137   2.488   0.150
  513SOL    HW2 1552   0.231   2.451   0.021
  514SOL     OW 1553   0.225   2.137   0.996
  514SOL    HW1 1554   0.260   2.120   1.088
  514SOL    HW2 1555   0.137   2.092   0.984
  515SOL     OW 1556   0.019   2.230   0.647
  515SOL    HW1 1557  -0.063   2.273   0.686
  515SOL    HW2 1558  -0.009   2.157   0.584
  516SOL     OW 1559   0.569   3.137   1.165
  516SOL    HW1 1560   0.476   3.130   1.128
  516SOL    HW2 1561   0.580   3.226   1.209
  517SOL     OW 1562   1.555   3.373   0.703
  517SOL    HW1 1563   1.498   3.357   0.784
  517SOL    HW2 1564   1.496   3.383   0.623
  518SOL     OW 1565   1.135   2.565   0.717
  518SOL    HW1 1566   1.192   2.643   0.692
  518SOL    HW2 1567   1.075   2.591   0.793
  519SOL     OW 1568   1.755   2.469   0.231
  519SOL    HW1 1569   1.743   2.456   0.132
  519SOL    HW2 1570   1.725   2.388   0.280
  520SOL     OW 1571   0.768   3.006   1.023
  520SOL    HW1 1572   0.690   3.023   1.083
  520SOL    HW2 1573   0.802   3.093   0.987
  521SOL     OW 1574   0.850   2.660   1.823
  521SOL    HW1 1575   0.846   2.736   1.888
  521SOL    HW2 1576   0.872   2.696   1.732
  522SOL     OW 1577   0.685   2.874   0.665
  522SOL    HW1 1578   0.754   2.858   0.735
  522SOL    HW2 1579   0.612   2.931   0.703
  523SOL     OW 1580   0.686   3.023   1.803
  523SOL    HW1 1581   0.746   3.102   1.817
  523SOL    HW2 1582   0.600   3.054   1.762
  524SOL     OW 1583   0.335   3.297   1.061
  524SOL    HW1 1584   0.257   3.266   1.008
  524SOL    HW2 1585   0.393   3.355   1.004
  525SOL     OW 1586   1.460   3.367   1.339
  525SOL    HW1 1587   1.484   3.461   1.365
  525SOL    HW2 1588   1.444   3.313   1.421
  526SOL     OW 1589   0.438   2.254   1.499
  526SOL    HW1 1590   0.520   2.198   1.508
  526SOL    HW2 1591   0.357   2.196   1.503
  527SOL     OW 1592   1.603   2.309   0.737
  527SOL    HW1 1593   1.529   2.355   0.687
  527SOL    HW2 1594   1.654   2.377   0.790
  528SOL     OW 1595   0.231   3.575   0.483
  528SOL    HW1 1596   0.265   3.652   0.537
  528SOL    HW2 1597   0.275   3.575   0.393
  529SOL     OW 1598   1.127   3.203   1.690
  529SOL    HW1 1599   1.174   3.203   1.778
  529SOL    HW2 1600   1.079   3.116   1.679
  530SOL     OW 1601   0.230   3.296   0.538
  530SOL    HW1 1602   0.204   3.392   0.538
  530SOL    HW2 1603   0.159   3.242   0.583
  531SOL     OW 1604   0.240   2.953   0.886
  531SOL    HW1 1605   0.254   2.869   0.938
  531SOL    HW2 1606   0.185   3.017   0.941
  532SOL     OW 1607   0.620   3.648   1.439
  532SOL    HW1 1608   0.528   3.631   1.474
  532SOL    HW2 1609   0.648   3.740   1.465
  533SOL     OW 1610   0.606   2.826   0.123
  533SOL    HW1 1611   0.613   2.910   0.069
  533SOL    HW2 1612   0.652   2.839   0.211
  534SOL     OW 1613   1.594   1.976   1.480
  534SOL    HW1 1614   1.576   2.043   1.408
  534SOL    HW2 1615   1.591   2.022   1.569
  535SOL     OW 1616   0.122   2.505   0.563
  535SOL    HW1 1617   0.077   2.417   0.580
  535SOL    HW2 1618   0.121   2.559   0.647
  536SOL     OW 1619   1.842   3.629   0.359
  536SOL    HW1 1620   1.896   3.600   0.439
  536SOL    HW2 1621   1.872   3.719   0.330
  537SOL     OW 1622   0.027   3.458   0.117
  537SOL    HW1 1623   0.008   3.362   0.138
  537SOL    HW2 1624  -0.006   3.516   0.192
  538SOL     OW 1625   1.689   2.784   0.612
  538SOL    HW1 1626   1.784   2.755   0.620
  538SOL    HW2 1627   1.681   2.849   0.537
  539SOL     OW 1628   1.641   2.970   0.432
  539SOL    HW1 1629   1.727   2.972   0.380
  539SOL    HW2 1630   1.655   3.017   0.520
  540SOL     OW 1631   0.113   2.599   1.597
  540SOL    HW1 1632   0.201   2.586   1.642
  540SOL    HW2 1633   0.100   2.696   1.575
  541SOL     OW 1634   0.613   3.227   0.726
  541SOL    HW1 1635   0.564   3.140   0.735
  541SOL    HW2 1636   0.590   3.270   0.639
  542SOL     OW 1637   1.293   3.090   1.423
  542SOL    HW1 1638   1.330   3.017   1.365
  542SOL    HW2 1639   1.345   3.095   1.508
  543SOL     OW 1640   0.809   1.866   0.502
  543SOL    HW1 1641   0.849   1.957   0.493
  543SOL    HW2 1642   0.709   1.874   0.508
  544SOL     OW 1643   0.197   2.838   1.264
  544SOL    HW1 1644   0.286   2.793   1.250
  544SOL    HW2 1645   0.124   2.773   1.245
  545SOL     OW 1646   1.525   2.861   0.190
  545SOL    HW1 1647   1.462   2.785   0.203
  545SOL    HW2 1648   1.573   2.879   0.276
  546SOL     OW 1649   1.187   3.654   1.616
  546SOL    HW1 1650   1.211   3.714   1.540
  546SOL    HW2 1651   1.194   3.559   1.586
  547SOL     OW 1652   0.317   2.113   1.801
  547SOL    HW1 1653   0.388   2.184   1.807
  547SOL    HW2 1654   0.229   2.152   1.829
  548SOL     OW 1655   1.466   3.279   0.953
  548SOL    HW1 1656   1.407   3.285   1.033
  548SOL    HW2 1657   1.451   3.191   0.907
  549SOL     OW 1658   1.667   3.576   0.572
  549SOL    HW1 1659   1.626   3.553   0.484
  549SOL    HW2 1660   1.649   3.502   0.637
  550SOL     OW 1661   0.598   2.591   0.270
  550SOL    HW1 1662   0.622   2.660   0.202
  550SOL    HW2 1663   0.520   2.624   0.324
  551SOL     OW 1664   1.281   2.207   0.944
  551SOL    HW1 1665   1.195   2.157   0.931
  551SOL    HW2 1666   1.343   2.153   1.000
  552SOL     OW 1667   1.576   3.524   0.307
  552SOL    HW1 1668   1.665   3.570   0.310
  552SOL    HW2 1669   1.555   3.500   0.212
  553SOL     OW 1670   0.807   2.467   1.465
  553SOL    HW1 1671   0.760   2.464   1.554
  553SOL    HW2 1672   0.756   2.412   1.399
  554SOL     OW 1673   1.394   2.331   1.674
  554SOL    HW1 1674   1.374   2.374   1.762
  554SOL    HW2 1675   1.472   2.269   1.683
  555SOL     OW 1676   0.973   2.752   1.572
  555SOL    HW1 1677   1.019   2.668   1.543
  555SOL    HW2 1678   0.917   2.786   1.497
  556SOL     OW 1679   0.991   2.272   1.242
  556SOL    HW1 1680   0.914   2.306   1.296
  556SOL    HW2 1681   0.957   2.221   1.163
  557SOL     OW 1682   1.041   2.563   0.429
  557SOL    HW1 1683   1.067   2.559   0.525
  557SOL    HW2 1684   0.956   2.512   0.415
  558SOL     OW 1685   0.076   2.673   0.789
  558SOL    HW1 1686   0.175   2.661   0.798
  558SOL    HW2 1687   0.052   2.768   0.810
  559SOL     OW 1688   0.130   3.683   1.571
  559SOL    HW1 1689   0.120   3.668   1.670
  559SOL    HW2 1690   0.044   3.719   1.535
  560SOL     OW 1691   0.865   2.210   0.195
  560SOL    HW1 1692   0.924   2.273   0.146
  560SOL    HW2 1693   0.884   2.116   0.166
  561SOL     OW 1694   1.719   2.447   1.831
  561SOL    HW1 1695   1.693   2.536   1.795
  561SOL    HW2 1696   1.717   2.379   1.758
  562SOL     OW 1697   1.362   3.006   0.545
  562SOL    HW1 1698   1.445   2.977   0.497
  562SOL    HW2 1699   1.313   3.073   0.489
  563SOL     OW 1700   0.550   2.058   0.885
  563SOL    HW1 1701   0.545   2.053   0.985
  563SOL    HW2 1702   0.552   2.154   0.856
  564SOL     OW 1703   1.008   3.318   0.477
  564SOL    HW1 1704   0.962   3.390   0.425
  564SOL    HW2 1705   1.004   3.338   0.575
  565SOL     OW 1706   0.351   3.663   0.853
  565SOL    HW1 1707   0.401   3.577   0.859
  565SOL    HW2 1708   0.416   3.740   0.850
  566SOL     OW 1709   1.795   2.928   0.873
  566SOL    HW1 1710   1.733   2.913   0.797
  566SOL    HW2 1711   1.743   2.939   0.958
  567SOL     OW 1712   1.227   3.412   1.506
  567SOL    HW1 1713   1.233   3.335   1.570
  567SOL    HW2 1714   1.175   3.386   1.426
  568SOL     OW 1715   0.321   2.805   0.242
  568SOL    HW1 1716   0.403   2.844   0.200
  568SOL    HW2 1717   0.294   2.723   0.193
  569SOL     OW 1718   1.458   2.597   0.728
  569SOL    HW1 1719   1.453   2.532   0.803
  569SOL    HW2 1720   1.538   2.656   0.741
  570SOL     OW 1721   0.461   3.128   1.727
  570SOL    HW1 1722   0.411   3.129   1.641
  570SOL    HW2 1723   0.398   3.110   1.803
  571SOL     OW 1724   1.111   3.638   0.237
  571SOL    HW1 1725   1.051   3.576   0.287
  571SOL    HW2 1726   1.142   3.594   0.152
  572SOL     OW 1727   0.202   2.147   1.498
  572SOL    HW1 1728   0.122   2.207   1.485
  572SOL    HW2 1729   0.192   2.098   1.584
  573SOL     OW 1730   1.632   3.239   0.081
  573SOL    HW1 1731   1.600   3.333   0.071
  573SOL    HW2 1732   1.556   3.176   0.069
  574SOL     OW 1733   0.464   3.605   0.323
  574SOL    HW1 1734   0.497   3.644   0.409
  574SOL    HW2 1735   0.540   3.598   0.258
  575SOL     OW 1736   1.400   1.969   0.426
  575SOL    HW1 1737   1.376   1.932   0.336
  575SOL    HW2 1738   1.499   1.985   0.430
  576SOL     OW 1739   0.249   3.647   1.241
  576SOL    HW1 1740   0.306   3.582   1.291
  576SOL    HW2 1741   0.233   3.614   1.148
  577SOL     OW 1742   0.940   3.560   0.904
  577SOL    HW1 1743   1.020   3.503   0.925
  577SOL    HW2 1744   0.891   3.520   0.827
  578SOL     OW 1745   0.382   2.562   0.480
  578SOL    HW1 1746   0.427   2.472   0.477
  578SOL    HW2 1747   0.288   2.551   0.513
  579SOL     OW 1748   1.547   2.084   1.729
  579SOL    HW1 1749   1.542   2.121   1.821
  579SOL    HW2 1750   1.475   2.015   1.717
  580SOL     OW 1751   0.781   2.126   1.749
  580SOL    HW1 1752   0.848   2.065   1.792
  580SOL    HW2 1753   0.708   2.145   1.814
  581SOL     OW 1754   0.888   3.376   1.195
  581SOL    HW1 1755   0.865   3.351   1.101
  581SOL    HW2 1756   0.949   3.307   1.234
  582SOL     OW 1757   1.351   2.452   1.433
  582SOL    HW1 1758   1.379   2.409   1.518
  582SOL    HW2 1759   1.376   2.548   1.434
  583SOL     OW 1760   0.803   3.264   0.924
  583SOL    HW1 1761   0.893   3.278   0.882
  583SOL    HW2 1762   0.732   3.266   0.853
  584SOL     OW 1763   0.922   2.365   0.899
  584SOL    HW1 1764   0.897   2.356   0.803
  584SOL    HW2 1765   0.970   2.283   0.930
  585SOL     OW 1766   0.539   1.926   0.512
  585SOL    HW1 1767   0.458   1.927   0.570
  585SOL    HW2 1768   0.542   2.009   0.457
  586SOL     OW 1769   1.434   3.050   0.041
  586SOL    HW1 1770   1.466   2.974   0.098
  586SOL    HW2 1771   1.342   3.077   0.071
  587SOL     OW 1772   0.935   2.098   0.480
  587SOL    HW1 1773   0.887   2.139   0.402
  587SOL    HW2 1774   1.034   2.096   0.461
  588SOL     OW 1775   1.076   2.545   1.464
  588SOL    HW1 1776   0.996   2.484   1.467
  588SOL    HW2 1777   1.157   2.492   1.440
  589SOL     OW 1778   1.227   3.432   0.793
  589SOL    HW1 1779   1.248   3.506   0.728
  589SOL    HW2 1780   1.295   3.432   0.866
  590SOL     OW 1781   0.459   3.014   0.741
  590SOL    HW1 1782   0.388   2.987   0.806
  590SOL    HW2 1783   0.433   2.986   0.648
  591SOL     OW 1784   1.271   3.659   0.591
  591SOL    HW1 1785   1.315   3.723   0.527
  591SOL    HW2 1786   1.221   3.711   0.661
  592SOL     OW 1787   1.032   2.411   0.016
  592SOL    HW1 1788   0.991   2.493  -0.023
  592SOL    HW2 1789   1.096   2.437   0.089
  593SOL     OW 1790   0.078   2.418   1.386
  593SOL    HW1 1791   0.170   2.417   1.345
  593SOL    HW2 1792   0.072   2.492   1.453
  594SOL     OW 1793   0.561   2.084   1.147
  594SOL    HW1 1794   0.599   2.000   1.184
  594SOL    HW2 1795   0.473   2.103   1.191
  595SOL     OW 1796   0.866   2.316   0.642
  595SOL    HW1 1797   0.834   2.388   0.580
  595SOL    HW2 1798   0.890   2.235   0.589
  596SOL     OW 1799   1.017   1.901   0.753
  596SOL    HW1 1800   0.945   1.906   0.684
  596SOL    HW2 1801   0.993   1.832   0.822
  597SOL     OW 1802   1.429   3.035   0.867
  597SOL    HW1 1803   1.374   2.951   0.860
  597SOL    HW2 1804   1.455   3.064   0.775
  598SOL     OW 1805   1.466   2.452   0.992
  598SOL    HW1 1806   1.436   2.357   0.999
  598SOL    HW2 1807   1.539   2.468   1.058
  599SOL     OW 1808   1.857   2.695   0.377
  599SOL    HW1 1809   1.899   2.631   0.441
  599SOL    HW2 1810   1.819   2.644   0.299
  600SOL     OW 1811   0.488   3.247   0.174
  600SOL    HW1 1812   0.401   3.232   0.221
  600SOL    HW2 1813   0.471   3.273   0.079
  601SOL     OW 1814   1.664   3.142   0.657
  601SOL    HW1 1815   1.763   3.150   0.671
  601SOL    HW2 1816   1.619   3.226   0.688
  602SOL     OW 1817   1.390   2.437   0.078
  602SOL    HW1 1818   1.336   2.416   0.159
  602SOL    HW2 1819   1.481   2.396   0.087
  603SOL     OW 1820   0.527   2.118   0.328
  603SOL    HW1 1821   0.554   2.059   0.253
  603SOL    HW2 1822   0.527   2.213   0.297
  604SOL     OW 1823   1.754   3.085   1.588
  604SOL    HW1 1824   1.845   3.046   1.575
  604SOL    HW2 1825   1.762   3.181   1.612
  605SOL     OW 1826   1.064   3.209   1.340
  605SOL    HW1 1827   0.984   3.186   1.395
  605SOL    HW2 1828   1.147   3.183   1.389
  606SOL     OW 1829   1.592   3.491   1.625
  606SOL    HW1 1830   1.619   3.525   1.535
  606SOL    HW2 1831   1.671   3.453   1.671
  607SOL     OW 1832   1.111   3.057   1.100
  607SOL    HW1 1833   1.071   3.101   1.181
  607SOL    HW2 1834   1.070   3.094   1.017
  608SOL     OW 1835   1.638   2.961   1.079
  608SOL    HW1 1836   1.643   3.042   1.138
  608SOL    HW2 1837   1.552   2.963   1.028
  609SOL     OW 1838   0.915   1.951   1.402
  609SOL    HW1 1839   0.940   1.931   1.307
  609SOL    HW2 1840   0.987   2.007   1.444
  610SOL     OW 1841   0.980   2.978   1.719
  610SOL    HW1 1842   0.881   2.984   1.729
  610SOL    HW2 1843   1.003   2.898   1.663
  611SOL     OW 1844   0.705   2.912   0.368
  611SOL    HW1 1845   0.691   2.919   0.467
  611SOL    HW2 1846   0.789   2.861   0.350
  612SOL     OW 1847   0.410   2.675   1.251
  612SOL    HW1 1848   0.496   2.687   1.301
  612SOL    HW2 1849   0.368   2.588   1.278
  613SOL     OW 1850   1.274   2.248   1.262
  613SOL    HW1 1851   1.295   2.322   1.326
  613SOL    HW2 1852   1.185   2.265   1.219
  614SOL     OW 1853   0.064   3.426   1.331
  614SOL    HW1 1854   0.018   3.508   1.297
  614SOL    HW2 1855   0.162   3.445   1.340
  615SOL     OW 1856   0.367   2.962   0.501
  615SOL    HW1 1857   0.360   3.045   0.445
  615SOL    HW2 1858   0.371   2.882   0.441
  616SOL     OW 1859   0.566   2.399   0.865
  616SOL    HW1 1860   0.578   2.465   0.791
  616SOL    HW2 1861   0.612   2.433   0.948
  617SOL     OW 1862   1.252   3.210   0.388
  617SOL    HW1 1863   1.302   3.287   0.428
  617SOL    HW2 1864   1.157   3.212   0.420
  618SOL     OW 1865   1.272   3.307   1.142
  618SOL    HW1 1866   1.319   3.320   1.229
  618SOL    HW2 1867   1.206   3.233   1.151
  619SOL     OW 1868   1.582   2.501   0.472
  619SOL    HW1 1869   1.551   2.562   0.545
  619SOL    HW2 1870   1.632   2.553   0.403
  620SOL     OW 1871   0.354   3.372   1.329
  620SOL    HW1 1872   0.333   3.328   1.242
  620SOL    HW2 1873   0.451   3.398   1.332
  621SOL     OW 1874   0.402   2.613   1.598
  621SOL    HW1 1875   0.470   2.668   1.551
  621SOL    HW2 1876   0.442   2.525   1.625
  622SOL     OW 1877   1.587   2.641   1.670
  622SOL    HW1 1878   1.495   2.679   1.665
  622SOL    HW2 1879   1.647   2.688   1.605
  623SOL     OW 1880   1.013   1.967   1.770
  623SOL    HW1 1881   1.019   2.052   1.718
  623SOL    HW2 1882   1.045   1.891   1.713
  624SOL     OW 1883   0.504   1.912   1.740
  624SOL    HW1 1884   0.462   1.855   1.670
  624SOL    HW2 1885   0.438   1.981   1.772
  625SOL     OW 1886   0.573   2.732   1.029
  625SOL    HW1 1887   0.617   2.821   1.020
  625SOL    HW2 1888   0.510   2.732   1.106
  626SOL     OW 1889   1.360   2.724   1.045
  626SOL    HW1 1890   1.285   2.724   0.979
  626SOL    HW2 1891   1.397   2.632   1.054
  627SOL     OW 1892   1.209   2.387   0.275
  627SOL    HW1 1893   1.222   2.303   0.329
  627SOL    HW2 1894   1.180   2.461   0.335
  628SOL     OW 1895   0.307   2.075   1.231
  628SOL    HW1 1896   0.284   2.112   1.321
  628SOL    HW2 1897   0.277   1.980   1.225
  629SOL     OW 1898   0.037   3.172   1.282
  629SOL    HW1 1899   0.090   3.123   1.350
  629SOL    HW2 1900   0.059   3.270   1.287
  630SOL     OW 1901   0.732   2.496   1.064
  630SOL    HW1 1902   0.791   2.470   0.988
  630SOL    HW2 1903   0.704   2.592   1.053
  631SOL     OW 1904   1.728   2.797   1.854
  631SOL    HW1 1905   1.682   2.790   1.765
  631SOL    HW2 1906   1.666   2.841   1.920
  632SOL     OW 1907   0.307   1.925   0.618
  632SOL    HW1 1908   0.296   2.019   0.651
  632SOL    HW2 1909   0.302   1.862   0.695
  633SOL     OW 1910   1.622   2.229   0.374
  633SOL    HW1 1911   1.624   2.153   0.438
  633SOL    HW2 1912   1.574   2.306   0.414
  634SOL     OW 1913   1.023   2.628   0.966
  634SOL    HW1 1914   1.038   2.649   1.062
  634SOL    HW2 1915   0.993   2.533   0.957
  635SOL     OW 1916   0.980   3.435   1.700
  635SOL    HW1 1917   0.960   3.479   1.612
  635SOL    HW2 1918   1.019   3.344   1.684
  636SOL     OW 1919   1.859   3.380   1.605
  636SOL    HW1 1920   1.873   3.407   1.510
  636SOL    HW2 1921   1.942   3.402   1.658
  637SOL     OW 1922   0.350   2.760   1.804
  637SOL    HW1 1923   0.426   2.804   1.852
  637SOL    HW2 1924   0.385   2.713   1.722
  638SOL     OW 1925   1.540   2.136   0.125
  638SOL    HW1 1926   1.479   2.061   0.148
  638SOL    HW2 1927   1.562   2.188   0.208
  639SOL     OW 1928   1.303   2.700   0.042
  639SOL    HW1 1929   1.337   2.607   0.057
  639SOL    HW2 1930   1.321   2.727  -0.053
  640SOL     OW 1931   1.068   3.195   0.849
  640SOL    HW1 1932   1.075   3.111   0.794
  640SOL    HW2 1933   1.130   3.264   0.813
  641SOL     OW 1934   0.319   2.672   0.949
  641SOL    HW1 1935   0.412   2.708   0.954
  641SOL    HW2 1936   0.313   2.587   1.001
  642SOL     OW 1937   0.339   2.371   1.006
  642SOL    HW1 1938   0.287   2.288   0.989
  642SOL    HW2 1939   0.416   2.376   0.942
  643SOL     OW 1940   1.138   2.242   1.678
  643SOL    HW1 1941   1.093   2.305   1.742
  643SOL    HW2 1942   1.231   2.273   1.661
  644SOL     OW 1943   1.160   2.069   1.477
  644SOL    HW1 1944   1.160   2.133   1.554
  644SOL    HW2 1945   1.188   2.117   1.394
  645SOL     OW 1946   0.008   3.188   0.200
  645SOL    HW1 1947  -0.085   3.209   0.169
  645SOL    HW2 1948   0.018   3.089   0.213
  646SOL     OW 1949   0.088   3.663   0.927
  646SOL    HW1 1950   0.046   3.577   0.900
  646SOL    HW2 1951   0.182   3.666   0.893
  647SOL     OW 1952   0.504   3.430   0.910
  647SOL    HW1 1953   0.570   3.504   0.919
  647SOL    HW2 1954   0.548   3.351   0.868
  648SOL     OW 1955   1.002   2.658   1.238
  648SOL    HW1 1956   1.043   2.626   1.324
  648SOL    HW2 1957   0.906   2.631   1.235
  649SOL     OW 1958   0.040   2.406   1.114
  649SOL    HW1 1959   0.125   2.373   1.073
  649SOL    HW2 1960   0.053   2.421   1.212
  650SOL     OW 1961   0.189   2.382   1.722
  650SOL    HW1 1962   0.248   2.342   1.652
  650SOL    HW2 1963   0.131   2.453   1.681
  651SOL     OW 1964   1.369   2.812   1.660
  651SOL    HW1 1965   1.408   2.901   1.680
  651SOL    HW2 1966   1.379   2.792   1.563
  652SOL     OW 1967   0.815   2.434   0.325
  652SOL    HW1 1968   0.822   2.345   0.279
  652SOL    HW2 1969   0.721   2.468   0.317
  653SOL     OW 1970   1.657   2.466   1.206
  653SOL    HW1 1971   1.619   2.397   1.268
  653SOL    HW2 1972   1.739   2.430   1.162
  654SOL     OW 1973   0.252   3.426   1.744
  654SOL    HW1 1974   0.222   3.483   1.820
  654SOL    HW2 1975   0.245   3.329   1.770
  655SOL     OW 1976   0.671   2.326   1.269
  655SOL    HW1 1977   0.637   2.237   1.239
  655SOL    HW2 1978   0.697   2.380   1.189
  656SOL     OW 1979   0.930   3.540   1.465
  656SOL    HW1 1980   0.906   3.522   1.370
  656SOL    HW2 1981   0.960   3.634   1.475
  657SOL     OW 1982   0.473   2.362   0.191
  657SOL    HW1 1983   0.534   2.442   0.195
  657SOL    HW2 1984   0.378   2.393   0.198
  658SOL     OW 1985   0.159   2.999   1.466
  658SOL    HW1 1986   0.181   2.938   1.542
  658SOL    HW2 1987   0.169   2.950   1.380
  659SOL     OW 1988   1.347   2.921   1.234
  659SOL    HW1 1989   1.371   2.858   1.160
  659SOL    HW2 1990   1.257   2.961   1.216
  660SOL     OW 1991   1.302   2.717   0.309
  660SOL    HW1 1992   1.216   2.686   0.351
  660SOL    HW2 1993   1.298   2.703   0.210
  661SOL     OW 1994   1.759   3.609   1.154
  661SOL    HW1 1995   1.820   3.639   1.081
  661SOL    HW2 1996   1.721   3.520   1.132
  662SOL     OW 1997   1.252   3.593   1.128
  662SOL    HW1 1998   1.336   3.598   1.074
  662SOL    HW2 1999   1.229   3.497   1.146
  663SOL     OW 2000   0.083   3.120   1.022
  663SOL    HW1 2001   0.078   3.119   1.122
  663SOL    HW2 2002   0.000   3.079   0.984
  664SOL     OW 2003   0.688   3.524   1.716
  664SOL    HW1 2004   0.632   3.605   1.725
  664SOL    HW2 2005   0.740   3.528   1.630
  665SOL     OW 2006   0.903   1.948   0.133
  665SOL    HW1 2007   0.954   1.949   0.047
  665SOL    HW2 2008   0.959   1.906   0.204
  666SOL     OW 2009   1.726   1.997   0.523
  666SOL    HW1 2010   1.799   1.980   0.456
  666SOL    HW2 2011   1.695   1.910   0.561
  667SOL     OW 2012   1.388   3.435   0.477
  667SOL    HW1 2013   1.455   3.447   0.403
  667SOL    HW2 2014   1.348   3.524   0.500
  668SOL     OW 2015   0.130   3.656   1.851
  668SOL    HW1 2016   0.089   3.582   1.904
  668SOL    HW2 2017   0.194   3.707   1.909
  669SOL     OW 2018   1.280   2.789   0.672
  669SOL    HW1 2019   1.340   2.708   0.674
  669SOL    HW2 2020   1.320   2.858   0.612
  670SOL     OW 2021   0.830   3.135   1.422
  670SOL    HW1 2022   0.825   3.168   1.517
  670SOL    HW2 2023   0.744   3.154   1.376
  671SOL     OW 2024   0.672   3.478   0.154
  671SOL    HW1 2025   0.681   3.488   0.055
  671SOL    HW2 2026   0.632   3.389   0.175
  672SOL     OW 2027   1.650   3.582   1.394
  672SOL    HW1 2028   1.703   3.592   1.310
  672SOL    HW2 2029   1.623   3.672   1.428
  673SOL     OW 2030   1.841   2.037   0.963
  673SOL    HW1 2031   1.880   1.952   0.927
  673SOL    HW2 2032   1.743   2.039   0.944
  674SOL     OW 2033   0.263   2.188   0.720
  674SOL    HW1 2034   0.184   2.239   0.686
  674SOL    HW2 2035   0.254   2.173   0.818
  675SOL     OW 2036   1.194   3.474   0.031
  675SOL    HW1 2037   1.200   3.381   0.068
  675SOL    HW2 2038   1.135   3.474  -0.049
  676SOL     OW 2039   0.822   2.864   1.372
  676SOL    HW1 2040   0.862   2.863   1.280
  676SOL    HW2 2041   0.832   2.956   1.412
  677SOL     OW 2042   0.916   2.772   0.291
  677SOL    HW1 2043   0.979   2.810   0.223
  677SOL    HW2 2044   0.956   2.689   0.330
  678SOL     OW 2045   1.504   3.469   0.044
  678SOL    HW1 2046   1.412   3.506   0.051
  678SOL    HW2 2047   1.542   3.489  -0.046
  679SOL     OW 2048   0.372   3.150   1.490
  679SOL    HW1 2049   0.359   3.243   1.456
  679SOL    HW2 2050   0.288   3.098   1.477
  680SOL     OW 2051   1.614   3.154   1.289
  680SOL    HW1 2052   1.674   3.157   1.369
  680SOL    HW2 2053   1.539   3.218   1.302
  681SOL     OW 2054   1.039   2.960   0.696
  681SOL    HW1 2055   0.969   2.913   0.750
  681SOL    HW2 2056   1.098   2.892   0.653
  682SOL     OW 2057   1.014   2.098   0.971
  682SOL    HW1 2058   1.006   2.062   0.878
  682SOL    HW2 2059   1.012   2.022   1.036
  683SOL     OW 2060   0.590   3.349   0.491
  683SOL    HW1 2061   0.632   3.291   0.421
  683SOL    HW2 2062   0.546   3.428   0.447
  684SOL     OW 2063   1.709   2.247   1.381
  684SOL    HW1 2064   1.782   2.316   1.385
  684SOL    HW2 2065   1.737   2.172   1.322
  685SOL     OW 2066   0.255   3.210   0.290
  685SOL    HW1 2067   0.159   3.211   0.263
  685SOL    HW2 2068   0.267   3.263   0.374
  686SOL     OW 2069   0.105   2.875   1.726
  686SOL    HW1 2070   0.028   2.842   1.780
  686SOL    HW2 2071   0.190   2.845   1.768
  687SOL     OW 2072   0.672   2.065   1.489
  687SOL    HW1 2073   0.762   2.049   1.449
  687SOL    HW2 2074   0.680   2.070   1.588
  688SOL     OW 2075   0.075   2.207   0.033
  688SOL    HW1 2076  -0.017   2.179   0.004
  688SOL    HW2 2077   0.106   2.284  -0.023
  689SOL     OW 2078   1.440   2.718   1.398
  689SOL    HW1 2079   1.383   2.770   1.335
  689SOL    HW2 2080   1.536   2.730   1.374
  690SOL     OW 2081   0.072   2.028   0.318
  690SOL    HW1 2082   0.055   2.111   0.264
  690SOL    HW2 2083   0.162   1.991   0.296
  691SOL     OW 2084   1.183   3.197   0.119
  691SOL    HW1 2085   1.084   3.186   0.121
  691SOL    HW2 2086   1.217   3.212   0.212
  692SOL     OW 2087   0.613   2.704   1.431
  692SOL    HW1 2088   0.669   2.785   1.414
  692SOL    HW2 2089   0.672   2.624   1.434
  693SOL     OW 2090   1.493   3.629   0.959
  693SOL    HW1 2091   1.526   3.693   0.890
  693SOL    HW2 2092   1.559   3.623   1.034
  694SOL     OW 2093   0.716   2.427   1.708
  694SOL    HW1 2094   0.735   2.492   1.782
  694SOL    HW2 2095   0.776   2.347   1.717
  695SOL     OW 2096   1.450   3.082   1.633
  695SOL    HW1 2097   1.441   3.072   1.732
  695SOL    HW2 2098   1.546   3.075   1.607
  696SOL     OW 2099   0.390   3.603   1.560
  696SOL    HW1 2100   0.299   3.644   1.558
  696SOL    HW2 2101   0.383   3.509   1.592
  697SOL     OW 2102   1.674   2.745   1.254
  697SOL    HW1 2103   1.647   2.656   1.217
  697SOL    HW2 2104   1.675   2.813   1.181
  698SOL     OW 2105   1.225   2.187   0.449
  698SOL    HW1 2106   1.290   2.113   0.438
  698SOL    HW2 2107   1.245   2.237   0.533
  699SOL     OW 2108   0.594   2.607   0.652
  699SOL    HW1 2109   0.644   2.692   0.633
  699SOL    HW2 2110   0.506   2.609   0.604
  700SOL     OW 2111   1.777   2.204   1.642
  700SOL    HW1 2112   1.760   2.235   1.548
  700SOL    HW2 2113   1.693   2.167   1.680
  701SOL     OW 2114   1.730   2.796   1.517
  701SOL    HW1 2115   1.768   2.887   1.532
  701SOL    HW2 2116   1.722   2.779   1.418
  702SOL     OW 2117   0.859   3.236   0.016
  702SOL    HW1 2118   0.813   3.251   0.104
  702SOL    HW2 2119   0.903   3.321  -0.014
  703SOL     OW 2120   0.661   3.652   0.953
  703SOL    HW1 2121   0.615   3.740   0.940
  703SOL    HW2 2122   0.760   3.664   0.946
  704SOL     OW 2123   0.859   2.818   0.861
  704SOL    HW1 2124   0.913   2.749   0.909
  704SOL    HW2 2125   0.827   2.887   0.927
  705SOL     OW 2126   1.083   2.846   0.087
  705SOL    HW1 2127   1.060   2.899   0.005
  705SOL    HW2 2128   1.164   2.790   0.068
  706SOL     OW 2129   1.861   3.431   0.851
  706SOL    HW1 2130   1.790   3.419   0.781
  706SOL    HW2 2131   1.862   3.352   0.911
  707SOL     OW 2132   0.221   3.176   1.844
  707SOL    HW1 2133   0.156   3.103   1.823
  707SOL    HW2 2134   0.225   3.190   1.942
  708SOL     OW 2135   0.079   3.102   0.653
  708SOL    HW1 2136   0.078   3.055   0.741
  708SOL    HW2 2137   0.161   3.074   0.602
  709SOL     OW 2138   0.672   3.253   1.624
  709SOL    HW1 2139   0.594   3.203   1.662
  709SOL    HW2 2140   0.669   3.348   1.655
  710SOL     OW 2141   1.824   2.054   1.227
  710SOL    HW1 2142   1.820   1.964   1.271
  710SOL    HW2 2143   1.827   2.043   1.128
  711SOL     OW 2144   0.428   2.286   0.520
  711SOL    HW1 2145   0.458   2.214   0.458
  711SOL    HW2 2146   0.389   2.246   0.603
  712SOL     OW 2147   1.705   3.349   1.104
  712SOL    HW1 2148   1.612   3.324   1.077
  712SOL    HW2 2149   1.731   3.299   1.186
  713SOL     OW 2150   0.317   2.409   1.280
  713SOL    HW1 2151   0.355   2.350   1.352
  713SOL    HW2 2152   0.357   2.383   1.192
  714SOL     OW 2153   0.812   3.448   0.687
  714SOL    HW1 2154   0.844   3.458   0.593
  714SOL    HW2 2155   0.733   3.386   0.689
  715SOL     OW 2156   1.424   2.076   1.112
  715SOL    HW1 2157   1.476   2.011   1.167
  715SOL    HW2 2158   1.375   2.139   1.173
  716SOL     OW 2159   1.001   1.896   1.154
  716SOL    HW1 2160   0.938   1.824   1.123
  716SOL    HW2 2161   1.094   1.860   1.154
  717SOL     OW 2162   0.770   3.192   0.301
  717SOL    HW1 2163   0.724   3.105   0.318
  717SOL    HW2 2164   0.861   3.189   0.342
  718SOL     OW 2165   0.618   3.429   1.284
  718SOL    HW1 2166   0.613   3.511   1.341
  718SOL    HW2 2167   0.707   3.426   1.239
  719SOL     OW 2168   1.352   1.914   0.168
  719SOL    HW1 2169   1.387   1.873   0.084
  719SOL    HW2 2170   1.262   1.876   0.188
  720SOL     OW 2171   1.300   2.315   0.691
  720SOL    HW1 2172   1.241   2.395   0.695
  720SOL    HW2 2173   1.315   2.280   0.784
  721SOL     OW 2174   1.593   2.083   0.882
  721SOL    HW1 2175   1.509   2.082   0.936
  721SOL    HW2 2176   1.595   2.166   0.826
  722SOL     OW 2177   0.039   2.939   0.300
  722SOL    HW1 2178   0.138   2.928   0.291
  722SOL    HW2 2179  -0.001   2.853   0.332
  723SOL     OW 2180   0.875   3.508   0.337
  723SOL    HW1 2181   0.798   3.473   0.283
  723SOL    HW2 2182   0.843   3.579   0.399
  724SOL     OW 2183   0.230   2.490   1.975
  724SOL    HW1 2184   0.137   2.488   2.012
  724SOL    HW2 2185   0.231   2.451   1.883
  725SOL     OW 2186   0.225   2.137   2.858
  725SOL    HW1 2187   0.260   2.120   2.950
  725SOL    HW2 2188   0.137   2.092   2.846
  726SOL     OW 2189   0.019   2.230   2.509
  726SOL    HW1 2190  -0.063   2.273   2.548
  726SOL    HW2 2191  -0.009   2.157   2.446
  727SOL     OW 2192   0.569   3.137   3.027
  727SOL    HW1 2193   0.476   3.130   2.990
  727SOL    HW2 2194   0.580   3.226   3.071
  728SOL     OW 2195   1.555   3.373   2.565
  728SOL    HW1 2196   1.498   3.357   2.646
  728SOL    HW2 2197   1.496   3.383   2.485
  729SOL     OW 2198   1.135   2.565   2.579
  729SOL    HW1 2199   1.192   2.643   2.554
  729SOL    HW2 2200   1.075   2.591   2.655
  730SOL     OW 2201   1.755   2.469   2.093
  730SOL    HW1 2202   1.743   2.456   1.994
  730SOL    HW2 2203   1.725   2.388   2.142
  731SOL     OW 2204   0.768   3.006   2.885
  731SOL    HW1 2205   0.690   3.023   2.945
  731SOL    HW2 2206   0.802   3.093   2.849
  732SOL     OW 2207   0.850   2.660   3.685
  732SOL    HW1 2208   0.846   2.736   3.750
  732SOL    HW2 2209   0.872   2.696   3.594
  733SOL     OW 2210   0.685   2.874   2.527
  733SOL    HW1 2211   0.754   2.858   2.597
  733SOL    HW2 2212   0.612   2.931   2.565
  734SOL     OW 2213   0.686   3.023   3.665
  734SOL    HW1 2214   0.746   3.102   3.679
  734SOL    HW2 2215   0.600   3.054   3.624
  735SOL     OW 2216   0.335   3.297   2.923
  735SOL    HW1 2217   0.257   3.266   2.870
  735SOL    HW2 2218   0.393   3.355   2.866
  736SOL     OW 2219   1.460   3.367   3.201
  736SOL    HW1 2220   1.484   3.461   3.227
  736SOL    HW2 2221   1.444   3.313   3.283
  737SOL     OW 2222   0.438   2.254   3.361
  737SOL    HW1 2223   0.520   2.198   3.370
  737SOL    HW2 2224   0.357   2.196   3.365
  738SOL     OW 2225   1.603   2.309   2.599
  738SOL    HW1 2226   1.529   2.355   2.549
  738SOL    HW2 2227   1.654   2.377   2.652
  739SOL     OW 2228   0.231   3.575   2.345
  739SOL    HW1 2229   0.265   3.652   2.399
  739SOL    HW2 2230   0.275   3.575   2.255
  740SOL     OW 2231   1.127   3.203   3.552
  740SOL    HW1 2232   1.174   3.203   3.640
  740SOL    HW2 2233   1.079   3.116   3.541
  741SOL     OW 2234   0.230   3.296   2.400
  741SOL    HW1 2235   0.204   3.392   2.400
  741SOL    HW2 2236   0.159   3.242   2.445
  742SOL     OW 2237   0.240   2.953   2.748
  742SOL    HW1 2238   0.254   2.869   2.800
  742SOL    HW2 2239   0.185   3.017   2.803
  743SOL     OW 2240   0.620   3.648   3.301
  743SOL    HW1 2241   0.528   3.631   3.336
  743SOL    HW2 2242   0.648   3.740   3.327
  744SOL     OW 2243   0.606   2.826   1.985
  744SOL    HW1 2244   0.613   2.910   1.931
  744SOL    HW2 2245   0.652   2.839   2.073
  745SOL     OW 2246   1.594   1.976   3.342
  745SOL    HW1 2247   1.576   2.043   3.270
  745SOL    HW2 2248   1.591   2.022   3.431
  746SOL     OW 2249   0.122   2.505   2.425
  746SOL    HW1 2250   0.077   2.417   2.442
  746SOL    HW2 2251   0.121   2.559   2.509
  747SOL     OW 2252   1.842   3.629   2.221
  747SOL    HW1 2253   1.896   3.600   2.301
  747SOL    HW2 2254   1.872   3.719   2.192
  748SOL     OW 2255   0.027   3.458   1.979
  748SOL    HW1 2256   0.008   3.362   2.000
  748SOL    HW2 2257  -0.006   3.516   2.054
  749SOL     OW 2258   1.689   2.784   2.474
  749SOL    HW1 2259   1.784   2.755   2.482
  749SOL    HW2 2260   1.681   2.849   2.399
  750SOL     OW 2261   1.641   2.970   2.294
  750SOL    HW1 2262   1.727   2.972   2.242
  750SOL    HW2 2263   1.655   3.017   2.382
  751SOL     OW 2264   0.113   2.599   3.459
  751SOL    HW1 2265   0.201   2.586   3.504
  751SOL    HW2 2266   0.100   2.696   3.437
  752SOL     OW 2267   0.613   3.227   2.588
  752SOL    HW1 2268   0.564   3.140   2.597
  752SOL    HW2 2269   0.590   3.270   2.501
  753SOL     OW 2270   1.293   3.090   3.285
  753SOL    HW1 2271   1.330   3.017   3.227
  753SOL    HW2 2272   1.345   3.095   3.370
  754SOL     OW 2273   0.809   1.866   2.364
  754SOL    HW1 2274   0.849   1.957   2.355
  754SOL    HW2 2275   0.709   1.874   2.370
  755SOL     OW 2276   0.197   2.838   3.126
  755SOL    HW1 2277   0.286   2.793   3.112
  755SOL    HW2 2278   0.124   2.773   3.107
  756SOL     OW 2279   1.525   2.861   2.052
  756SOL    HW1 2280   1.462   2.785   2.065
  756SOL    HW2 2281   1.573   2.879   2.138
  757SOL     OW 2282   1.187   3.654   3.478
  757SOL    HW1 2283   1.211   3.714   3.402
  757SOL    HW2 2284   1.194   3.559   3.448
  758SOL     OW 2285   0.317   2.113   3.663
  758SOL    HW1 2286   0.388   2.184   3.669
  758SOL    HW2 2287   0.229   2.152   3.691
  759SOL     OW 2288   1.466   3.279   2.815
  759SOL    HW1 2289   1.407   3.285   2.895
  759SOL    HW2 2290   1.451   3.191   2.769
  760SOL     OW 2291   1.667   3.576   2.434
  760SOL    HW1 2292   1.626   3.553   2.346
  760SOL    HW2 2293   1.649   3.502   2.499
  761SOL     OW 2294   0.598   2.591   2.132
  761SOL    HW1 2295   0.622   2.660   2.064
  761SOL    HW2 2296   0.520   2.624   2.186
  762SOL     OW 2297   1.281   2.207   2.806
  762SOL    HW1 2298   1.195   2.157   2.793
  762SOL    HW2 2299   1.343   2.153   2.862
  763SOL     OW 2300   1.576   3.524   2.169
  763SOL    HW1 2301   1.665   3.570   2.172
  763SOL    HW2 2302   1.555   3.500   2.074
  764SOL     OW 2303   0.807   2.467   3.327
  764SOL    HW1 2304   0.760   2.464   3.416
  764SOL    HW2 2305   0.756   2.412   3.261
  765SOL     OW 2306   1.394   2.331   3.536
  765SOL    HW1 2307   1.374   2.374   3.624
  765SOL    HW2 2308   1.472   2.269   3.545
  766SOL     OW 2309   0.973   2.752   3.434
  766SOL    HW1 2310   1.019   2.668   3.405
  766SOL    HW2 2311   0.917   2.786   3.359
  767SOL     OW 2312   0.991   2.272   3.104
  767SOL    HW1 2313   0.914   2.306   3.158
  767SOL    HW2 2314   0.957   2.221   3.025
  768SOL     OW 2315   1.041   2.563   2.291
  768SOL    HW1 2316   1.067   2.559   2.387
  768SOL    HW2 2317   0.956   2.512   2.277
  769SOL     OW 2318   0.076   2.673   2.651
  769SOL    HW1 2319   0.175   2.661   2.660
  769SOL    HW2 2320   0.052   2.768   2.672
  770SOL     OW 2321   0.130   3.683   3.433
  770SOL    HW1 2322   0.120   3.668   3.532
  770SOL    HW2 2323   0.044   3.719   3.397
  771SOL     OW 2324   0.865   2.210   2.057
  771SOL    HW1 2325   0.924   2.273   2.008
  771SOL    HW2 2326   0.884   2.116   2.028
  772SOL     OW 2327   1.719   2.447   3.693
  772SOL    HW1 2328   1.693   2.536   3.657
  772SOL    HW2 2329   1.717   2.379   3.620
  773SOL     OW 2330   1.362   3.006   2.407
  773SOL    HW1 2331   1.445   2.977   2.359
  773SOL    HW2 2332   1.313   3.073   2.351
  774SOL     OW 2333   0.550   2.058   2.747
  774SOL    HW1 2334   0.545   2.053   2.847
  774SOL    HW2 2335   0.552   2.154   2.718
  775SOL     OW 2336   1.008   3.318   2.339
  775SOL    HW1 2337   0.962   3.390   2.287
  775SOL    HW2 2338   1.004   3.338   2.437
  776SOL     OW 2339   0.351   3.663   2.715
  776SOL    HW1 2340   0.401   3.577   2.721
  776SOL    HW2 2341   0.416   3.740   2.712
  777SOL     OW 2342   1.795   2.928   2.735
  777SOL    HW1 2343   1.733   2.913   2.659
  777SOL    HW2 2344   1.743   2.939   2.820
  778SOL     OW 2345   1.227   3.412   3.368
  778SOL    HW1 2346   1.233   3.335   3.432
  778SOL    HW2 2347   1.175   3.386   3.288
  779SOL     OW 2348   0.321   2.805   2.104
  779SOL    HW1 2349   0.403   2.844   2.062
  779SOL    HW2 2350   0.294   2.723   2.055
  780SOL     OW 2351   1.458   2.597   2.590
  780SOL    HW1 2352   1.453   2.532   2.665
  780SOL    HW2 2353   1.538   2.656   2.603
  781SOL     OW 2354   0.461   3.128   3.589
  781SOL    HW1 2355   0.411   3.129   3.503
  781SOL    HW2 2356   0.398   3.110   3.665
  782SOL     OW 2357   1.111   3.638   2.099
  782SOL    HW1 2358   1.051   3.576   2.149
  782SOL    HW2 2359   1.142   3.594   2.014
  783SOL     OW 2360   0.202   2.147   3.360
  783SOL    HW1 2361   0.122   2.207   3.347
  783SOL    HW2 2362   0.192   2.098   3.446
  784SOL     OW 2363   1.632   3.239   1.943
  784SOL    HW1 2364   1.600   3.333   1.933
  784SOL    HW2 2365   1.556   3.176   1.931
  785SOL     OW 2366   0.464   3.605   2.185
  785SOL    HW1 2367   0.497   3.644   2.271
  785SOL    HW2 2368   0.540   3.598   2.120
  786SOL     OW 2369   1.400   1.969   2.288
  786SOL    HW1 2370   1.376   1.932   2.198
  786SOL    HW2 2371   1.499   1.985   2.292
  787SOL     OW 2372   0.249   3.647   3.103
  787SOL    HW1 2373   0.306   3.582   3.153
  787SOL    HW2 2374   0.233   3.614   3.010
  788SOL     OW 2375   0.940   3.560   2.766
  788SOL    HW1 2376   1.020   3.503   2.787
  788SOL    HW2 2377   0.891   3.520   2.689
  789SOL     OW 2378   0.382   2.562   2.342
  789SOL    HW1 2379   0.427   2.472   2.339
  789SOL    HW2 2380   0.288   2.551   2.375
  790SOL     OW 2381   1.547   2.084   3.591
  790SOL    HW1 2382   1.542   2.121   3.683
  790SOL    HW2 2383   1.475   2.015   3.579
  791SOL     OW 2384   0.614   1.984   1.979
  791SOL    HW1 2385   0.712   1.962   1.986
  791SOL    HW2 2386   0.583   1.967   1.886
  792SOL     OW 2387   0.781   2.126   3.611
  792SOL    HW1 2388   0.848   2.065   3.654
  792SOL    HW2 2389   0.708   2.145   3.676
  793SOL     OW 2390   0.888   3.376   3.057
  793SOL    HW1 2391   0.865   3.351   2.963
  793SOL    HW2 2392   0.949   3.307   3.096
  794SOL     OW 2393   1.351   2.452   3.295
  794SOL    HW1 2394   1.379   2.409   3.380
  794SOL    HW2 2395   1.376   2.548   3.296
  795SOL     OW 2396   0.803   3.264   2.786
  795SOL    HW1 2397   0.893   3.278   2.744
  795SOL    HW2 2398   0.732   3.266   2.715
  796SOL     OW 2399   0.922   2.365   2.761
  796SOL    HW1 2400   0.897   2.356   2.665
  796SOL    HW2 2401   0.970   2.283   2.792
  797SOL     OW 2402   0.539   1.926   2.374
  797SOL    HW1 2403   0.458   1.927   2.432
  797SOL    HW2 2404   0.542   2.009   2.319
  798SOL     OW 2405   1.434   3.050   1.903
  798SOL    HW1 2406   1.466   2.974   1.960
  798SOL    HW2 2407   1.342   3.077   1.933
  799SOL     OW 2408   0.297   1.897   2.033
  799SOL    HW1 2409   0.346   1.981   2.012
  799SOL    HW2 2410   0.359   1.832   2.078
  800SOL     OW 2411   0.935   2.098   2.342
  800SOL    HW1 2412   0.887   2.139   2.264
  800SOL    HW2 2413   1.034   2.096   2.323
  801SOL     OW 2414   1.076   2.545   3.326
  801SOL    HW1 2415   0.996   2.484   3.329
  801SOL    HW2 2416   1.157   2.492   3.302
  802SOL     OW 2417   1.227   3.432   2.655
  802SOL    HW1 2418   1.248   3.506   2.590
  802SOL    HW2 2419   1.295   3.432   2.728
  803SOL     OW 2420   0.459   3.014   2.603
  803SOL    HW1 2421   0.388   2.987   2.668
  803SOL    HW2 2422   0.433   2.986   2.510
  804SOL     OW 2423   1.271   3.659   2.453
  804SOL    HW1 2424   1.315   3.723   2.389
  804SOL    HW2 2425   1.221   3.711   2.523
  805SOL     OW 2426   1.032   2.411   1.878
  805SOL    HW1 2427   0.991   2.493   1.839
  805SOL    HW2 2428   1.096   2.437   1.951
  806SOL     OW 2429   0.078   2.418   3.248
  806SOL    HW1 2430   0.170   2.417   3.207
  806SOL    HW2 2431   0.072   2.492   3.315
  807SOL     OW 2432   0.561   2.084   3.009
  807SOL    HW1 2433   0.599   2.000   3.046
  807SOL    HW2 2434   0.473   2.103   3.053
  808SOL     OW 2435   0.866   2.316   2.504
  808SOL    HW1 2436   0.834   2.388   2.442
  808SOL    HW2 2437   0.890   2.235   2.451
  809SOL     OW 2438   1.017   1.901   2.615
  809SOL    HW1 2439   0.945   1.906   2.546
  809SOL    HW2 2440   0.993   1.832   2.684
  810SOL     OW 2441   1.429   3.035   2.729
  810SOL    HW1 2442   1.374   2.951   2.722
  810SOL    HW2 2443   1.455   3.064   2.637
  811SOL     OW 2444   1.466   2.452   2.854
  811SOL    HW1 2445   1.436   2.357   2.861
  811SOL    HW2 2446   1.539   2.468   2.920
  812SOL     OW 2447   1.857   2.695   2.239
  812SOL    HW1 2448   1.899   2.631   2.303
  812SOL    HW2 2449   1.819   2.644   2.161
  813SOL     OW 2450   0.488   3.247   2.036
  813SOL    HW1 2451   0.401   3.232   2.083
  813SOL    HW2 2452   0.471   3.273   1.941
  814SOL     OW 2453   1.664   3.142   2.519
  814SOL    HW1 2454   1.763   3.150   2.533
  814SOL    HW2 2455   1.619   3.226   2.550
  815SOL     OW 2456   1.390   2.437   1.940
  815SOL    HW1 2457   1.336   2.416   2.021
  815SOL    HW2 2458   1.481   2.396   1.949
  816SOL     OW 2459   0.527   2.118   2.190
  816SOL    HW1 2460   0.554   2.059   2.115
  816SOL    HW2 2461   0.527   2.213   2.159
  817SOL     OW 2462   1.754   3.085   3.450
  817SOL    HW1 2463   1.845   3.046   3.437
  817SOL    HW2 2464   1.762   3.181   3.474
  818SOL     OW 2465   1.064   3.209   3.202
  818SOL    HW1 2466   0.984   3.186   3.257
  818SOL    HW2 2467   1.147   3.183   3.251
  819SOL     OW 2468   1.592   3.491   3.487
  819SOL    HW1 2469   1.619   3.525   3.397
  819SOL    HW2 2470   1.671   3.453   3.533
  820SOL     OW 2471   1.111   3.057   2.962
  820SOL    HW1 2472   1.071   3.101   3.043
  820SOL    HW2 2473   1.070   3.094   2.879
  821SOL     OW 2474   1.638   2.961   2.941
  821SOL    HW1 2475   1.643   3.042   3.000
  821SOL    HW2 2476   1.552   2.963   2.890
  822SOL     OW 2477   0.915   1.951   3.264
  822SOL    HW1 2478   0.940   1.931   3.169
  822SOL    HW2 2479   0.987   2.007   3.306
  823SOL     OW 2480   0.980   2.978   3.581
  823SOL    HW1 2481   0.881   2.984   3.591
  823SOL    HW2 2482   1.003   2.898   3.525
  824SOL     OW 2483   0.705   2.912   2.230
  824SOL    HW1 2484   0.691   2.919   2.329
  824SOL    HW2 2485   0.789   2.861   2.212
  825SOL     OW 2486   0.410   2.675   3.113
  825SOL    HW1 2487   0.496   2.687   3.163
  825SOL    HW2 2488   0.368   2.588   3.140
  826SOL     OW 2489   1.274   2.248   3.124
  826SOL    HW1 2490   1.295   2.322   3.188
  826SOL    HW2 2491   1.185   2.265   3.081
  827SOL     OW 2492   0.064   3.426   3.193
  827SOL    HW1 2493   0.018   3.508   3.159
  827SOL    HW2 2494   0.162   3.445   3.202
  828SOL     OW 2495   0.367   2.962   2.363
  828SOL    HW1 2496   0.360   3.045   2.307
  828SOL    HW2 2497   0.371   2.882   2.303
  829SOL     OW 2498   0.566   2.399   2.727
  829SOL    HW1 2499   0.578   2.465   2.653
  829SOL    HW2 2500   0.612   2.433   2.810
  830SOL     OW 2501   1.252   3.210   2.250
  830SOL    HW1 2502   1.302   3.287   2.290
  830SOL    HW2 2503   1.157   3.212   2.282
  831SOL     OW 2504   1.272   3.307   3.004
  831SOL    HW1 2505   1.319   3.320   3.091
  831SOL    HW2 2506   1.206   3.233   3.013
  832SOL     OW 2507   1.582   2.501   2.334
  832SOL    HW1 2508   1.551   2.562   2.407
  832SOL    HW2 2509   1.632   2.553   2.265
  833SOL     OW 2510   0.354   3.372   3.191
  833SOL    HW1 2511   0.333   3.328   3.104
  833SOL    HW2 2512   0.451   3.398   3.194
  834SOL     OW 2513   0.402   2.613   3.460
  834SOL    HW1 2514   0.470   2.668   3.413
  834SOL    HW2 2515   0.442   2.525   3.487
  835SOL     OW 2516   1.587   2.641   3.532
  835SOL    HW1 2517   1.495   2.679   3.527
  835SOL    HW2 2518   1.647   2.688   3.467
  836SOL     OW 2519   1.013   1.967   3.632
  836SOL    HW1 2520   1.019   2.052   3.580
  836SOL    HW2 2521   1.045   1.891   3.575
  837SOL     OW 2522   0.504   1.912   3.602
  837SOL    HW1 2523   0.462   1.855   3.532
  837SOL    HW2 2524   0.438   1.981   3.634
  838SOL     OW 2525   0.573   2.732   2.891
  838SOL    HW1 2526   0.617   2.821   2.882
  838SOL    HW2 2527   0.510   2.732   2.968
  839SOL     OW 2528   1.360   2.724   2.907
  839SOL    HW1 2529   1.285   2.724   2.841
  839SOL    HW2 2530   1.397   2.632   2.916
  840SOL     OW 2531   1.209   2.387   2.137
  840SOL    HW1 2532   1.222   2.303   2.191
  840SOL    HW2 2533   1.180   2.461   2.197
  841SOL     OW 2534   0.307   2.075   3.093
  841SOL    HW1 2535   0.284   2.112   3.183
  841SOL    HW2 2536   0.277   1.980   3.087
  842SOL     OW 2537   0.037   3.172   3.144
  842SOL    HW1 2538   0.090   3.123   3.212
  842SOL    HW2 2539   0.059   3.270   3.149
  843SOL     OW 2540   0.732   2.496   2.926
  843SOL    HW1 2541   0.791   2.470   2.850
  843SOL    HW2 2542   0.704   2.592   2.915
  844SOL     OW 2543   1.728   2.797   3.716
  844SOL    HW1 2544   1.682   2.790   3.627
  844SOL    HW2 2545   1.666   2.841   3.782
  845SOL     OW 2546   0.307   1.925   2.480
  845SOL    HW1 2547   0.296   2.019   2.513
  845SOL    HW2 2548   0.302   1.862   2.557
  846SOL     OW 2549   1.622   2.229   2.236
  846SOL    HW1 2550   1.624   2.153   2.300
  846SOL    HW2 2551   1.574   2.306   2.276
  847SOL     OW 2552   1.023   2.628   2.828
  847SOL    HW1 2553   1.038   2.649   2.924
  847SOL    HW2 2554   0.993   2.533   2.819
  848SOL     OW 2555   0.980   3.435   3.562
  848SOL    HW1 2556   0.960   3.479   3.474
  848SOL    HW2 2557   1.019   3.344   3.546
  849SOL     OW 2558   1.859   3.380   3.467
  849SOL    HW1 2559   1.873   3.407   3.372
  849SOL    HW2 2560   1.942   3.402   3.520
  850SOL     OW 2561   0.350   2.760   3.666
  850SOL    HW1 2562   0.426   2.804   3.714
  850SOL    HW2 2563   0.385   2.713   3.584
  851SOL     OW 2564   1.540   2.136   1.987
  851SOL    HW1 2565   1.479   2.061   2.010
  851SOL    HW2 2566   1.562   2.188   2.070
  852SOL     OW 2567   1.303   2.700   1.904
  852SOL    HW1 2568   1.337   2.607   1.919
  852SOL    HW2 2569   1.321   2.727   1.809
  853SOL     OW 2570   1.068   3.195   2.711
  853SOL    HW1 2571   1.075   3.111   2.656
  853SOL    HW2 2572   1.130   3.264   2.675
  854SOL     OW 2573   0.319   2.672   2.811
  854SOL    HW1 2574   0.412   2.708   2.816
  854SOL    HW2 2575   0.313   2.587   2.863
  855SOL     OW 2576   0.339   2.371   2.868
  855SOL    HW1 2577   0.287   2.288   2.851
  855SOL    HW2 2578   0.416   2.376   2.804
  856SOL     OW 2579   1.138   2.242   3.540
  856SOL    HW1 2580   1.093   2.305   3.604
  856SOL    HW2 2581   1.231   2.273   3.523
  857SOL     OW 2582   1.160   2.069   3.339
  857SOL    HW1 2583   1.160   2.133   3.416
  857SOL    HW2 2584   1.188   2.117   3.256
  858SOL     OW 2585   0.008   3.188   2.062
  858SOL    HW1 2586  -0.085   3.209   2.031
  858SOL    HW2 2587   0.018   3.089   2.075
  859SOL     OW 2588   0.088   3.663   2.789
  859SOL    HW1 2589   0.046   3.577   2.762
  859SOL    HW2 2590   0.182   3.666   2.755
  860SOL     OW 2591   0.504   3.430   2.772
  860SOL    HW1 2592   0.570   3.504   2.781
  860SOL    HW2 2593   0.548   3.351   2.730
  861SOL     OW 2594   1.002   2.658   3.100
  861SOL    HW1 2595   1.043   2.626   3.186
  861SOL    HW2 2596   0.906   2.631   3.097
  862SOL     OW 2597   0.040   2.406   2.976
  862SOL    HW1 2598   0.125   2.373   2.935
  862SOL    HW2 2599   0.053   2.421   3.074
  863SOL     OW 2600   0.189   2.382   3.584
  863SOL    HW1 2601   0.248   2.342   3.514
  863SOL    HW2 2602   0.131   2.453   3.543
  864SOL     OW 2603   1.369   2.812   3.522
  864SOL    HW1 2604   1.408   2.901   3.542
  864SOL    HW2 2605   1.379   2.792   3.425
  865SOL     OW 2606   0.815   2.434   2.187
  865SOL    HW1 2607   0.822   2.345   2.141
  865SOL    HW2 2608   0.721   2.468   2.179
  866SOL     OW 2609   1.657   2.466   3.068
  866SOL    HW1 2610   1.619   2.397   3.130
  866SOL    HW2 2611   1.739   2.430   3.024
  867SOL     OW 2612   0.252   3.426   3.606
  867SOL    HW1 2613   0.222   3.483   3.682
  867SOL    HW2 2614   0.245   3.329   3.632
  868SOL     OW 2615   0.671   2.326   3.131
  868SOL    HW1 2616   0.637   2.237   3.101
  868SOL    HW2 2617   0.697   2.380   3.051
  869SOL     OW 2618   0.930   3.540   3.327
  869SOL    HW1 2619   0.906   3.522   3.232
  869SOL    HW2 2620   0.960   3.634   3.337
  870SOL     OW 2621   0.473   2.362   2.053
  870SOL    HW1 2622   0.534   2.442   2.057
  870SOL    HW2 2623   0.378   2.393   2.060
  871SOL     OW 2624   0.159   2.999   3.328
  871SOL    HW1 2625   0.181   2.938   3.404
  871SOL    HW2 2626   0.169   2.950   3.242
  872SOL     OW 2627   1.347   2.921   3.096
  872SOL    HW1 2628   1.371   2.858   3.022
  872SOL    HW2 2629   1.257   2.961   3.078
  873SOL     OW 2630   1.302   2.717   2.171
  873SOL    HW1 2631   1.216   2.686   2.213
  873SOL    HW2 2632   1.298   2.703   2.072
  874SOL     OW 2633   1.759   3.609   3.016
  874SOL    HW1 2634   1.820   3.639   2.943
  874SOL    HW2 2635   1.721   3.520   2.994
  875SOL     OW 2636   1.252   3.593   2.990
  875SOL    HW1 2637   1.336   3.598   2.936
  875SOL    HW2 2638   1.229   3.497   3.008
  876SOL     OW 2639   0.083   3.120   2.884
  876SOL    HW1 2640   0.078   3.119   2.984
  876SOL    HW2 2641   0.000   3.079   2.846
  877SOL     OW 2642   0.688   3.524   3.578
  877SOL    HW1 2643   0.632   3.605   3.587
  877SOL    HW2 2644   0.740   3.528   3.492
  878SOL     OW 2645   1.726   1.997   2.385
  878SOL    HW1 2646   1.799   1.980   2.318
  878SOL    HW2 2647   1.695   1.910   2.423
  879SOL     OW 2648   1.388   3.435   2.339
  879SOL    HW1 2649   1.455   3.447   2.265
  879SOL    HW2 2650   1.348   3.524   2.362
  880SOL     OW 2651   0.130   3.656   3.713
  880SOL    HW1 2652   0.089   3.582   3.766
  880SOL    HW2 2653   0.194   3.707   3.771
  881SOL     OW 2654   1.280   2.789   2.534
  881SOL    HW1 2655   1.340   2.708   2.536
  881SOL    HW2 2656   1.320   2.858   2.474
  882SOL     OW 2657   0.830   3.135   3.284
  882SOL    HW1 2658   0.825   3.168   3.379
  882SOL    HW2 2659   0.744   3.154   3.238
  883SOL     OW 2660   0.672   3.478   2.016
  883SOL    HW1 2661   0.681   3.488   1.917
  883SOL    HW2 2662   0.632   3.389   2.037
  884SOL     OW 2663   1.650   3.582   3.256
  884SOL    HW1 2664   1.703   3.592   3.172
  884SOL    HW2 2665   1.623   3.672   3.290
  885SOL     OW 2666   1.841   2.037   2.825
  885SOL    HW1 2667   1.880   1.952   2.789
  885SOL    HW2 2668   1.743   2.039   2.806
  886SOL     OW 2669   0.263   2.188   2.582
  886SOL    HW1 2670   0.184   2.239   2.548
  886SOL    HW2 2671   0.254   2.173   2.680
  887SOL     OW 2672   1.194   3.474   1.893
  887SOL    HW1 2673   1.200   3.381   1.930
  887SOL    HW2 2674   1.135   3.474   1.813
  888SOL     OW 2675   0.822   2.864   3.234
  888SOL    HW1 2676   0.862   2.863   3.142
  888SOL    HW2 2677   0.832   2.956   3.274
  889SOL     OW 2678   0.916   2.772   2.153
  889SOL    HW1 2679   0.979   2.810   2.085
  889SOL    HW2 2680   0.956   2.689   2.192
  890SOL     OW 2681   1.504   3.469   1.906
  890SOL    HW1 2682   1.412   3.506   1.913
  890SOL    HW2 2683   1.542   3.489   1.816
  891SOL     OW 2684   0.372   3.150   3.352
  891SOL    HW1 2685   0.359   3.243   3.318
  891SOL    HW2 2686   0.288   3.098   3.339
  892SOL     OW 2687   1.614   3.154   3.151
  892SOL    HW1 2688   1.674   3.157   3.231
  892SOL    HW2 2689   1.539   3.218   3.164
  893SOL     OW 2690   1.039   2.960   2.558
  893SOL    HW1 2691   0.969   2.913   2.612
  893SOL    HW2 2692   1.098   2.892   2.515
  894SOL     OW 2693   1.014   2.098   2.833
  894SOL    HW1 2694   1.006   2.062   2.740
  894SOL    HW2 2695   1.012   2.022   2.898
  895SOL     OW 2696   0.590   3.349   2.353
  895SOL    HW1 2697   0.632   3.291   2.283
  895SOL    HW2 2698   0.546   3.428   2.309
  896SOL     OW 2699   1.709   2.247   3.243
  896SOL    HW1 2700   1.782   2.316   3.247
  896SOL    HW2 2701   1.737   2.172   3.184
  897SOL     OW 2702   0.255   3.210   2.152
  897SOL    HW1 2703   0.159   3.211   2.125
  897SOL    HW2 2704   0.267   3.263   2.236
  898SOL     OW 2705   0.105   2.875   3.588
  898SOL    HW1 2706   0.028   2.842   3.642
  898SOL    HW2 2707   0.190   2.845   3.630
  899SOL     OW 2708   0.672   2.065   3.351
  899SOL    HW1 2709   0.762   2.049   3.311
  899SOL    HW2 2710   0.680   2.070   3.450
  900SOL     OW 2711   0.075   2.207   1.895
  900SOL    HW1 2712  -0.017   2.179   1.866
  900SOL    HW2 2713   0.106   2.284   1.839
  901SOL     OW 2714   1.440   2.718   3.260
  901SOL    HW1 2715   1.383   2.770   3.197
  901SOL    HW2 2716   1.536   2.730   3.236
  902SOL     OW 2717   0.072   2.028   2.180
  902SOL    HW1 2718   0.055   2.111   2.126
  902SOL    HW2 2719   0.162   1.991   2.158
  903SOL     OW 2720   1.183   3.197   1.981
  903SOL    HW1 2721   1.084   3.186   1.983
  903SOL    HW2 2722   1.217   3.212   2.074
  904SOL     OW 2723   0.613   2.704   3.293
  904SOL    HW1 2724   0.669   2.785   3.276
  904SOL    HW2 2725   0.672   2.624   3.296
  905SOL     OW 2726   1.493   3.629   2.821
  905SOL    HW1 2727   1.526   3.693   2.752
  905SOL    HW2 2728   1.559   3.623   2.896
  906SOL     OW 2729   0.716   2.427   3.570
  906SOL    HW1 2730   0.735   2.492   3.644
  906SOL    HW2 2731   0.776   2.347   3.579
  907SOL     OW 2732   1.450   3.082   3.495
  907SOL    HW1 2733   1.441   3.072   3.594
  907SOL    HW2 2734   1.546   3.075   3.469
  908SOL     OW 2735   0.390   3.603   3.422
  908SOL    HW1 2736   0.299   3.644   3.420
  908SOL    HW2 2737   0.383   3.509   3.454
  909SOL     OW 2738   1.674   2.745   3.116
  909SOL    HW1 2739   1.647   2.656   3.079
  909SOL    HW2 2740   1.675   2.813   3.043
  910SOL     OW 2741   1.225   2.187   2.311
  910SOL    HW1 2742   1.290   2.113   2.300
  910SOL    HW2 2743   1.245   2.237   2.395
  911SOL     OW 2744   0.594   2.607   2.514
  911SOL    HW1 2745   0.644   2.692   2.495
  911SOL    HW2 2746   0.506   2.609   2.466
  912SOL     OW 2747   1.777   2.204   3.504
  912SOL    HW1 2748   1.760   2.235   3.410
  912SOL    HW2 2749   1.693   2.167   3.542
  913SOL     OW 2750   1.730   2.796   3.379
  913SOL    HW1 2751   1.768   2.887   3.394
  913SOL    HW2 2752   1.722   2.779   3.280
  914SOL     OW 2753   0.859   3.236   1.878
  914SOL    HW1 2754   0.813   3.251   1.966
  914SOL    HW2 2755   0.903   3.321   1.848
  915SOL     OW 2756   0.661   3.652   2.815
  915SOL    HW1 2757   0.615   3.740   2.802
  915SOL    HW2 2758   0.760   3.664   2.808
  916SOL     OW 2759   0.859   2.818   2.723
  916SOL    HW1 2760   0.913   2.749   2.771
  916SOL    HW2 2761   0.827   2.887   2.789
  917SOL     OW 2762   1.083   2.846   1.949
  917SOL    HW1 2763   1.060   2.899   1.867
  917SOL    HW2 2764   1.164   2.790   1.930
  918SOL     OW 2765   1.861   3.431   2.713
  918SOL    HW1 2766   1.790   3.419   2.643
  918SOL    HW2 2767   1.862   3.352   2.773
  919SOL     OW 2768   0.221   3.176   3.706
  919SOL    HW1 2769   0.156   3.103   3.685
  919SOL    HW2 2770   0.225   3.190   3.804
  920SOL     OW 2771   0.079   3.102   2.515
  920SOL    HW1 2772   0.078   3.055   2.603
  920SOL    HW2 2773   0.161   3.074   2.464
  921SOL     OW 2774   0.672   3.253   3.486
  921SOL    HW1 2775   0.594   3.203   3.524
  921SOL    HW2 2776   0.669   3.348   3.517
  922SOL     OW 2777   1.824   2.054   3.089
  922SOL    HW1 2778   1.820   1.964   3.133
  922SOL    HW2 2779   1.827   2.043   2.990
  923SOL     OW 2780   0.428   2.286   2.382
  923SOL    HW1 2781   0.458   2.214   2.320
  923SOL    HW2 2782   0.389   2.246   2.465
  924SOL     OW 2783   1.705   3.349   2.966
  924SOL    HW1 2784   1.612   3.324   2.939
  924SOL    HW2 2785   1.731   3.299   3.048
  925SOL     OW 2786   0.317   2.409   3.142
  925SOL    HW1 2787   0.355   2.350   3.214
  925SOL    HW2 2788   0.357   2.383   3.054
  926SOL     OW 2789   0.812   3.448   2.549
  926SOL    HW1 2790   0.844   3.458   2.455
  926SOL    HW2 2791   0.733   3.386   2.551
  927SOL     OW 2792   1.424   2.076   2.974
  927SOL    HW1 2793   1.476   2.011   3.029
  927SOL    HW2 2794   1.375   2.139   3.035
  928SOL     OW 2795   1.001   1.896   3.016
  928SOL    HW1 2796   0.938   1.824   2.985
  928SOL    HW2 2797   1.094   1.860   3.016
  929SOL     OW 2798   0.770   3.192   2.163
  929SOL    HW1 2799   0.724   3.105   2.180
  929SOL    HW2 2800   0.861   3.189   2.204
  930SOL     OW 2801   0.618   3.429   3.146
  930SOL    HW1 2802   0.613   3.511   3.203
  930SOL    HW2 2803   0.707   3.426   3.101
  931SOL     OW 2804   1.352   1.914   2.030
  931SOL    HW1 2805   1.387   1.873   1.946
  931SOL    HW2 2806   1.262   1.876   2.050
  932SOL     OW 2807   1.300   2.315   2.553
  932SOL    HW1 2808   1.241   2.395   2.557
  932SOL    HW2 2809   1.315   2.280   2.646
  933SOL     OW 2810   1.593   2.083   2.744
  933SOL    HW1 2811   1.509   2.082   2.798
  933SOL    HW2 2812   1.595   2.166   2.688
  934SOL     OW 2813   0.039   2.939   2.162
  934SOL    HW1 2814   0.138   2.928   2.153
  934SOL    HW2 2815  -0.001   2.853   2.194
  935SOL     OW 2816   0.875   3.508   2.199
  935SOL    HW1 2817   0.798   3.473   2.145
  935SOL    HW2 2818   0.843   3.579   2.261
  936SOL     OW 2819   0.230   2.490   3.837
  936SOL    HW1 2820   0.137   2.488   3.874
  936SOL    HW2 2821   0.231   2.451   3.745
  937SOL     OW 2822   1.755   2.469   3.955
  937SOL    HW1 2823   1.743   2.456   3.856
  937SOL    HW2 2824   1.725   2.388   4.004
  938SOL     OW 2825   0.685   2.874   4.389
  938SOL    HW1 2826   0.754   2.858   4.459
  938SOL    HW2 2827   0.612   2.931   4.427
  939SOL     OW 2828   1.603   2.309   4.461
  939SOL    HW1 2829   1.529   2.355   4.411
  939SOL    HW2 2830   1.654   2.377   4.514
  940SOL     OW 2831   0.231   3.575   4.207
  940SOL    HW1 2832   0.265   3.652   4.261
  940SOL    HW2 2833   0.275   3.575   4.117
  941SOL     OW 2834   0.230   3.296   4.262
  941SOL    HW1 2835   0.204   3.392   4.262
  941SOL    HW2 2836   0.159   3.242   4.307
  942SOL     OW 2837   0.606   2.826   3.847
  942SOL    HW1 2838   0.613   2.910   3.793
  942SOL    HW2 2839   0.652   2.839   3.935
  943SOL     OW 2840   0.122   2.505   4.287
  943SOL    HW1 2841   0.077   2.417   4.304
  943SOL    HW2 2842   0.121   2.559   4.371
  944SOL     OW 2843   1.842   3.629   4.083
  944SOL    HW1 2844   1.896   3.600   4.163
  944SOL    HW2 2845   1.872   3.719   4.054
  945SOL     OW 2846   0.027   3.458   3.841
  945SOL    HW1 2847   0.008   3.362   3.862
  945SOL    HW2 2848  -0.006   3.516   3.916
  946SOL     OW 2849   1.689   2.784   4.336
  946SOL    HW1 2850   1.784   2.755   4.344
  946SOL    HW2 2851   1.681   2.849   4.261
  947SOL     OW 2852   1.641   2.970   4.156
  947SOL    HW1 2853   1.727   2.972   4.104
  947SOL    HW2 2854   1.655   3.017   4.244
  948SOL     OW 2855   0.613   3.227   4.450
  948SOL    HW1 2856   0.564   3.140   4.459
  948SOL    HW2 2857   0.590   3.270   4.363
  949SOL     OW 2858   0.809   1.866   4.226
  949SOL    HW1 2859   0.849   1.957   4.217
  949SOL    HW2 2860   0.709   1.874   4.232
  950SOL     OW 2861   1.525   2.861   3.914
  950SOL    HW1 2862   1.462   2.785   3.927
  950SOL    HW2 2863   1.573   2.879   4.000
  951SOL     OW 2864   1.667   3.576   4.296
  951SOL    HW1 2865   1.626   3.553   4.208
  951SOL    HW2 2866   1.649   3.502   4.361
  952SOL     OW 2867   0.598   2.591   3.994
  952SOL    HW1 2868   0.622   2.660   3.926
  952SOL    HW2 2869   0.520   2.624   4.048
  953SOL     OW 2870   1.281   2.207   4.668
  953SOL    HW1 2871   1.195   2.157   4.655
  953SOL    HW2 2872   1.343   2.153   4.724
  954SOL     OW 2873   1.576   3.524   4.031
  954SOL    HW1 2874   1.665   3.570   4.034
  954SOL    HW2 2875   1.555   3.500   3.936
  955SOL     OW 2876   1.041   2.563   4.153
  955SOL    HW1 2877   1.067   2.559   4.249
  955SOL    HW2 2878   0.956   2.512   4.139
  956SOL     OW 2879   0.076   2.673   4.513
  956SOL    HW1 2880   0.175   2.661   4.522
  956SOL    HW2 2881   0.052   2.768   4.534
  957SOL     OW 2882   0.865   2.210   3.919
  957SOL    HW1 2883   0.924   2.273   3.870
  957SOL    HW2 2884   0.884   2.116   3.890
  958SOL     OW 2885   1.362   3.006   4.269
  958SOL    HW1 2886   1.445   2.977   4.221
  958SOL    HW2 2887   1.313   3.073   4.213
  959SOL     OW 2888   1.008   3.318   4.201
  959SOL    HW1 2889   0.962   3.390   4.149
  959SOL    HW2 2890   1.004   3.338   4.299
  960SOL     OW 2891   0.351   3.663   4.577
  960SOL    HW1 2892   0.401   3.577   4.583
  960SOL    HW2 2893   0.416   3.740   4.574
  961SOL     OW 2894   1.795   2.928   4.597
  961SOL    HW1 2895   1.733   2.913   4.521
  961SOL    HW2 2896   1.743   2.939   4.682
  962SOL     OW 2897   0.321   2.805   3.966
  962SOL    HW1 2898   0.403   2.844   3.924
  962SOL    HW2 2899   0.294   2.723   3.917
  963SOL     OW 2900   1.111   3.638   3.961
  963SOL    HW1 2901   1.051   3.576   4.011
  963SOL    HW2 2902   1.142   3.594   3.876
  964SOL     OW 2903   1.632   3.239   3.805
  964SOL    HW1 2904   1.600   3.333   3.795
  964SOL    HW2 2905   1.556   3.176   3.793
  965SOL     OW 2906   0.464   3.605   4.047
  965SOL    HW1 2907   0.497   3.644   4.133
  965SOL    HW2 2908   0.540   3.598   3.982
  966SOL     OW 2909   1.400   1.969   4.150
  966SOL    HW1 2910   1.376   1.932   4.060
  966SOL    HW2 2911   1.499   1.985   4.154
  967SOL     OW 2912   0.940   3.560   4.628
  967SOL    HW1 2913   1.020   3.503   4.649
  967SOL    HW2 2914   0.891   3.520   4.551
  968SOL     OW 2915   0.382   2.562   4.204
  968SOL    HW1 2916   0.427   2.472   4.201
  968SOL    HW2 2917   0.288   2.551   4.237
  969SOL     OW 2918   0.614   1.984   3.841
  969SOL    HW1 2919   0.712   1.962   3.848
  969SOL    HW2 2920   0.583   1.967   3.748
  970SOL     OW 2921   0.539   1.926   4.236
  970SOL    HW1 2922   0.458   1.927   4.294
  970SOL    HW2 2923   0.542   2.009   4.181
  971SOL     OW 2924   1.434   3.050   3.765
  971SOL    HW1 2925   1.466   2.974   3.822
  971SOL    HW2 2926   1.342   3.077   3.795
  972SOL     OW 2927   0.297   1.897   3.895
  972SOL    HW1 2928   0.346   1.981   3.874
  972SOL    HW2 2929   0.359   1.832   3.940
  973SOL     OW 2930   0.935   2.098   4.204
  973SOL    HW1 2931   0.887   2.139   4.126
  973SOL    HW2 2932   1.034   2.096   4.185
  974SOL     OW 2933   0.459   3.014   4.465
  974SOL    HW1 2934   0.388   2.987   4.530
  974SOL    HW2 2935   0.433   2.986   4.372
  975SOL     OW 2936   1.271   3.659   4.315
  975SOL    HW1 2937   1.315   3.723   4.251
  975SOL    HW2 2938   1.221   3.711   4.385
  976SOL     OW 2939   1.032   2.411   3.740
  976SOL    HW1 2940   0.991   2.493   3.701
  976SOL    HW2 2941   1.096   2.437   3.813
  977SOL     OW 2942   0.866   2.316   4.366
  977SOL    HW1 2943   0.834   2.388   4.304
  977SOL    HW2 2944   0.890   2.235   4.313
  978SOL     OW 2945   1.857   2.695   4.101
  978SOL    HW1 2946   1.899   2.631   4.165
  978SOL    HW2 2947   1.819   2.644   4.023
  979SOL     OW 2948   0.488   3.247   3.898
  979SOL    HW1 2949   0.401   3.232   3.945
  979SOL    HW2 2950   0.471   3.273   3.803
  980SOL     OW 2951   1.664   3.142   4.381
  980SOL    HW1 2952   1.763   3.150   4.395
  980SOL    HW2 2953   1.619   3.226   4.412
  981SOL     OW 2954   1.390   2.437   3.802
  981SOL    HW1 2955   1.336   2.416   3.883
  981SOL    HW2 2956   1.481   2.396   3.811
  982SOL     OW 2957   0.527   2.118   4.052
  982SOL    HW1 2958   0.554   2.059   3.977
  982SOL    HW2 2959   0.527   2.213   4.021
  983SOL     OW 2960   1.111   3.057   4.824
  983SOL    HW1 2961   1.071   3.101   4.905
  983SOL    HW2 2962   1.070   3.094   4.741
  984SOL     OW 2963   0.705   2.912   4.092
  984SOL    HW1 2964   0.691   2.919   4.191
  984SOL    HW2 2965   0.789   2.861   4.074
  985SOL     OW 2966   0.367   2.962   4.225
  985SOL    HW1 2967   0.360   3.045   4.169
  985SOL    HW2 2968   0.371   2.882   4.165
  986SOL     OW 2969   1.252   3.210   4.112
  986SOL    HW1 2970   1.302   3.287   4.152
  986SOL    HW2 2971   1.157   3.212   4.144
  987SOL     OW 2972   1.582   2.501   4.196
  987SOL    HW1 2973   1.551   2.562   4.269
  987SOL    HW2 2974   1.632   2.553   4.127
  988SOL     OW 2975   1.209   2.387   3.999
  988SOL    HW1 2976   1.222   2.303   4.053
  988SOL    HW2 2977   1.180   2.461   4.059
  989SOL     OW 2978   0.307   1.925   4.342
  989SOL    HW1 2979   0.296   2.019   4.375
  989SOL    HW2 2980   0.302   1.862   4.419
  990SOL     OW 2981   1.622   2.229   4.098
  990SOL    HW1 2982   1.624   2.153   4.162
  990SOL    HW2 2983   1.574   2.306   4.138
  991SOL     OW 2984   1.540   2.136   3.849
  991SOL    HW1 2985   1.479   2.061   3.872
  991SOL    HW2 2986   1.562   2.188   3.932
  992SOL     OW 2987   1.303   2.700   3.766
  992SOL    HW1 2988   1.337   2.607   3.781
  992SOL    HW2 2989   1.321   2.727   3.671
  993SOL     OW 2990   0.008   3.188   3.924
  993SOL    HW1 2991  -0.085   3.209   3.893
  993SOL    HW2 2992   0.018   3.089   3.937
  994SOL     OW 2993   0.815   2.434   4.049
  994SOL    HW1 2994   0.822   2.345   4.003
  994SOL    HW2 2995   0.721   2.468   4.041
  995SOL     OW 2996   0.473   2.362   3.915
  995SOL    HW1 2997   0.534   2.442   3.919
  995SOL    HW2 2998   0.378   2.393   3.922
  996SOL     OW 2999   1.302   2.717   4.033
  996SOL    HW1 3000   1.216   2.686   4.075
  996SOL    HW2 3001   1.298   2.703   3.934
  997SOL     OW 3002   1.726   1.997   4.247
  997SOL    HW1 3003   1.799   1.980   4.180
  997SOL    HW2 3004   1.695   1.910   4.285
  998SOL     OW 3005   1.388   3.435   4.201
  998SOL    HW1 3006   1.455   3.447   4.127
  998SOL    HW2 3007   1.348   3.524   4.224
  999SOL     OW 3008   0.672   3.478   3.878
  999SOL    HW1 3009   0.681   3.488   3.779
  999SOL    HW2 3010   0.632   3.389   3.899
 1000SOL     OW 3011   1.841   2.037   4.687
 1000SOL    HW1 3012   1.880   1.952   4.651
 1000SOL    HW2 3013   1.743   2.039   4.668
 1001SOL     OW 3014   1.194   3.474   3.755
 1001SOL    HW1 3015   1.200   3.381   3.792
 1001SOL    HW2 3016   1.135   3.474   3.675
 1002SOL     OW 3017   0.916   2.772   4.015
 1002SOL    HW1 3018   0.979   2.810   3.947
 1002SOL    HW2 3019   0.956   2.689   4.054
 1003SOL     OW 3020   1.504   3.469   3.768
 1003SOL    HW1 3021   1.412   3.506   3.775
 1003SOL    HW2 3022   1.542   3.489   3.678
 1004SOL     OW 3023   0.590   3.349   4.215
 1004SOL    HW1 3024   0.632   3.291   4.145
 1004SOL    HW2 3025   0.546   3.428   4.171
 1005SOL     OW 3026   0.255   3.210   4.014
 1005SOL    HW1 3027   0.159   3.211   3.987
 1005SOL    HW2 3028   0.267   3.263   4.098
 1006SOL     OW 3029   0.075   2.207   3.757
 1006SOL    HW1 3030  -0.017   2.179   3.728
 1006SOL    HW2 3031   0.106   2.284   3.701
 1007SOL     OW 3032   0.072   2.028   4.042
 1007SOL    HW1 3033   0.055   2.111   3.988
 1007SOL    HW2 3034   0.162   1.991   4.020
 1008SOL     OW 3035   1.183   3.197   3.843
 1008SOL    HW1 3036   1.084   3.186   3.845
 1008SOL    HW2 3037   1.217   3.212   3.936
 1009SOL     OW 3038   1.225   2.187   4.173
 1009SOL    HW1 3039   1.290   2.113   4.162
 1009SOL    HW2 3040   1.245   2.237   4.257
 1010SOL     OW 3041   0.594   2.607   4.376
 1010SOL    HW1 3042   0.644   2.692   4.357
 1010SOL    HW2 3043   0.506   2.609   4.328
 1011SOL     OW 3044   0.859   3.236   3.740
 1011SOL    HW1 3045   0.813   3.251   3.828
 1011SOL    HW2 3046   0.903   3.321   3.710
 1012SOL     OW 3047   0.661   3.652   4.677
 1012SOL    HW1 3048   0.615   3.740   4.664
 1012SOL    HW2 3049   0.760   3.664   4.670
 1013SOL     OW 3050   1.083   2.846   3.811
 1013SOL    HW1 3051   1.060   2.899   3.729
 1013SOL    HW2 3052   1.164   2.790   3.792
 1014SOL     OW 3053   0.079   3.102   4.377
 1014SOL    HW1 3054   0.078   3.055   4.465
 1014SOL    HW2 3055   0.161   3.074   4.326
 1015SOL     OW 3056   0.428   2.286   4.244
 1015SOL    HW1 3057   0.458   2.214   4.182
 1015SOL    HW2 3058   0.389   2.246   4.327
 1016SOL     OW 3059   0.812   3.448   4.411
 1016SOL    HW1 3060   0.844   3.458   4.317
 1016SOL    HW2 3061   0.733   3.386   4.413
 1017SOL     OW 3062   0.770   3.192   4.025
 1017SOL    HW1 3063   0.724   3.105   4.042
 1017SOL    HW2 3064   0.861   3.189   4.066
 1018SOL     OW 3065   1.352   1.914   3.892
 1018SOL    HW1 3066   1.387   1.873   3.808
 1018SOL    HW2 3067   1.262   1.876   3.912
 1019SOL     OW 3068   1.300   2.315   4.415
 1019SOL    HW1 3069   1.241   2.395   4.419
 1019SOL    HW2 3070   1.315   2.280   4.508
 1020SOL     OW 3071   0.039   2.939   4.024
 1020SOL    HW1 3072   0.138   2.928   4.015
 1020SOL    HW2 3073  -0.001   2.853   4.056
 1021SOL     OW 3074   0.875   3.508   4.061
 1021SOL    HW1 3075   0.798   3.473   4.007
 1021SOL    HW2 3076   0.843   3.579   4.123
 1022SOL     OW 3077   0.230   4.352   0.113
 1022SOL    HW1 3078   0.137   4.350   0.150
 1022SOL    HW2 3079   0.231   4.313   0.021
 1023SOL     OW 3080   0.225   3.999   0.996
 1023SOL    HW1 3081   0.260   3.982   1.088
 1023SOL    HW2 3082   0.137   3.954   0.984
 1024SOL     OW 3083   0.019   4.092   0.647
 1024SOL    HW1 3084  -0.063   4.135   0.686
 1024SOL    HW2 3085  -0.009   4.019   0.584
 1025SOL     OW 3086   1.755   4.331   0.231
 1025SOL    HW1 3087   1.743   4.318   0.132
 1025SOL    HW2 3088   1.725   4.250   0.280
 1026SOL     OW 3089   0.850   4.522   1.823
 1026SOL    HW1 3090   0.846   4.598   1.888
 1026SOL    HW2 3091   0.872   4.558   1.732
 1027SOL     OW 3092   0.685   4.736   0.665
 1027SOL    HW1 3093   0.754   4.720   0.735
 1027SOL    HW2 3094   0.612   4.793   0.703
 1028SOL     OW 3095   0.438   4.116   1.499
 1028SOL    HW1 3096   0.520   4.060   1.508
 1028SOL    HW2 3097   0.357   4.058   1.503
 1029SOL     OW 3098   1.603   4.171   0.737
 1029SOL    HW1 3099   1.529   4.217   0.687
 1029SOL    HW2 3100   1.654   4.239   0.790
 1030SOL     OW 3101   1.594   3.838   1.480
 1030SOL    HW1 3102   1.576   3.905   1.408
 1030SOL    HW2 3103   1.591   3.884   1.569
 1031SOL     OW 3104   0.122   4.367   0.563
 1031SOL    HW1 3105   0.077   4.279   0.580
 1031SOL    HW2 3106   0.121   4.421   0.647
 1032SOL     OW 3107   0.113   4.461   1.597
 1032SOL    HW1 3108   0.201   4.448   1.642
 1032SOL    HW2 3109   0.100   4.558   1.575
 1033SOL     OW 3110   0.809   3.728   0.502
 1033SOL    HW1 3111   0.849   3.819   0.493
 1033SOL    HW2 3112   0.709   3.736   0.508
 1034SOL     OW 3113   0.317   3.975   1.801
 1034SOL    HW1 3114   0.388   4.046   1.807
 1034SOL    HW2 3115   0.229   4.014   1.829
 1035SOL     OW 3116   1.281   4.069   0.944
 1035SOL    HW1 3117   1.195   4.019   0.931
 1035SOL    HW2 3118   1.343   4.015   1.000
 1036SOL     OW 3119   0.807   4.329   1.465
 1036SOL    HW1 3120   0.760   4.326   1.554
 1036SOL    HW2 3121   0.756   4.274   1.399
 1037SOL     OW 3122   1.394   4.193   1.674
 1037SOL    HW1 3123   1.374   4.236   1.762
 1037SOL    HW2 3124   1.472   4.131   1.683
 1038SOL     OW 3125   0.991   4.134   1.242
 1038SOL    HW1 3126   0.914   4.168   1.296
 1038SOL    HW2 3127   0.957   4.083   1.163
 1039SOL     OW 3128   1.041   4.425   0.429
 1039SOL    HW1 3129   1.067   4.421   0.525
 1039SOL    HW2 3130   0.956   4.374   0.415
 1040SOL     OW 3131   0.076   4.535   0.789
 1040SOL    HW1 3132   0.175   4.523   0.798
 1040SOL    HW2 3133   0.052   4.630   0.810
 1041SOL     OW 3134   0.865   4.072   0.195
 1041SOL    HW1 3135   0.924   4.135   0.146
 1041SOL    HW2 3136   0.884   3.978   0.166
 1042SOL     OW 3137   1.719   4.309   1.831
 1042SOL    HW1 3138   1.693   4.398   1.795
 1042SOL    HW2 3139   1.717   4.241   1.758
 1043SOL     OW 3140   0.550   3.920   0.885
 1043SOL    HW1 3141   0.545   3.915   0.985
 1043SOL    HW2 3142   0.552   4.016   0.856
 1044SOL     OW 3143   1.458   4.459   0.728
 1044SOL    HW1 3144   1.453   4.394   0.803
 1044SOL    HW2 3145   1.538   4.518   0.741
 1045SOL     OW 3146   0.202   4.009   1.498
 1045SOL    HW1 3147   0.122   4.069   1.485
 1045SOL    HW2 3148   0.192   3.960   1.584
 1046SOL     OW 3149   1.400   3.831   0.426
 1046SOL    HW1 3150   1.376   3.794   0.336
 1046SOL    HW2 3151   1.499   3.847   0.430
 1047SOL     OW 3152   0.382   4.424   0.480
 1047SOL    HW1 3153   0.427   4.334   0.477
 1047SOL    HW2 3154   0.288   4.413   0.513
 1048SOL     OW 3155   1.547   3.946   1.729
 1048SOL    HW1 3156   1.542   3.983   1.821
 1048SOL    HW2 3157   1.475   3.877   1.717
 1049SOL     OW 3158   0.781   3.988   1.749
 1049SOL    HW1 3159   0.848   3.927   1.792
 1049SOL    HW2 3160   0.708   4.007   1.814
 1050SOL     OW 3161   1.351   4.314   1.433
 1050SOL    HW1 3162   1.379   4.271   1.518
 1050SOL    HW2 3163   1.376   4.410   1.434
 1051SOL     OW 3164   0.922   4.227   0.899
 1051SOL    HW1 3165   0.897   4.218   0.803
 1051SOL    HW2 3166   0.970   4.145   0.930
 1052SOL     OW 3167   0.539   3.788   0.512
 1052SOL    HW1 3168   0.458   3.789   0.570
 1052SOL    HW2 3169   0.542   3.871   0.457
 1053SOL     OW 3170   0.935   3.960   0.480
 1053SOL    HW1 3171   0.887   4.001   0.402
 1053SOL    HW2 3172   1.034   3.958   0.461
 1054SOL     OW 3173   1.076   4.407   1.464
 1054SOL    HW1 3174   0.996   4.346   1.467
 1054SOL    HW2 3175   1.157   4.354   1.440
 1055SOL     OW 3176   1.032   4.273   0.016
 1055SOL    HW1 3177   0.991   4.355  -0.023
 1055SOL    HW2 3178   1.096   4.299   0.089
 1056SOL     OW 3179   0.078   4.280   1.386
 1056SOL    HW1 3180   0.170   4.279   1.345
 1056SOL    HW2 3181   0.072   4.354   1.453
 1057SOL     OW 3182   0.561   3.946   1.147
 1057SOL    HW1 3183   0.599   3.862   1.184
 1057SOL    HW2 3184   0.473   3.965   1.191
 1058SOL     OW 3185   0.866   4.178   0.642
 1058SOL    HW1 3186   0.834   4.250   0.580
 1058SOL    HW2 3187   0.890   4.097   0.589
 1059SOL     OW 3188   1.017   3.763   0.753
 1059SOL    HW1 3189   0.945   3.768   0.684
 1059SOL    HW2 3190   0.993   3.694   0.822
 1060SOL     OW 3191   1.466   4.314   0.992
 1060SOL    HW1 3192   1.436   4.219   0.999
 1060SOL    HW2 3193   1.539   4.330   1.058
 1061SOL     OW 3194   1.390   4.299   0.078
 1061SOL    HW1 3195   1.336   4.278   0.159
 1061SOL    HW2 3196   1.481   4.258   0.087
 1062SOL     OW 3197   0.527   3.980   0.328
 1062SOL    HW1 3198   0.554   3.921   0.253
 1062SOL    HW2 3199   0.527   4.075   0.297
 1063SOL     OW 3200   0.915   3.813   1.402
 1063SOL    HW1 3201   0.940   3.793   1.307
 1063SOL    HW2 3202   0.987   3.869   1.444
 1064SOL     OW 3203   0.410   4.537   1.251
 1064SOL    HW1 3204   0.496   4.549   1.301
 1064SOL    HW2 3205   0.368   4.450   1.278
 1065SOL     OW 3206   1.274   4.110   1.262
 1065SOL    HW1 3207   1.295   4.184   1.326
 1065SOL    HW2 3208   1.185   4.127   1.219
 1066SOL     OW 3209   0.566   4.261   0.865
 1066SOL    HW1 3210   0.578   4.327   0.791
 1066SOL    HW2 3211   0.612   4.295   0.948
 1067SOL     OW 3212   1.582   4.363   0.472
 1067SOL    HW1 3213   1.551   4.424   0.545
 1067SOL    HW2 3214   1.632   4.415   0.403
 1068SOL     OW 3215   1.013   3.829   1.770
 1068SOL    HW1 3216   1.019   3.914   1.718
 1068SOL    HW2 3217   1.045   3.753   1.713
 1069SOL     OW 3218   0.504   3.774   1.740
 1069SOL    HW1 3219   0.462   3.717   1.670
 1069SOL    HW2 3220   0.438   3.843   1.772
 1070SOL     OW 3221   1.209   4.249   0.275
 1070SOL    HW1 3222   1.222   4.165   0.329
 1070SOL    HW2 3223   1.180   4.323   0.335
 1071SOL     OW 3224   0.307   3.937   1.231
 1071SOL    HW1 3225   0.284   3.974   1.321
 1071SOL    HW2 3226   0.277   3.842   1.225
 1072SOL     OW 3227   0.732   4.358   1.064
 1072SOL    HW1 3228   0.791   4.332   0.988
 1072SOL    HW2 3229   0.704   4.454   1.053
 1073SOL     OW 3230   1.728   4.659   1.854
 1073SOL    HW1 3231   1.682   4.652   1.765
 1073SOL    HW2 3232   1.666   4.703   1.920
 1074SOL     OW 3233   0.307   3.787   0.618
 1074SOL    HW1 3234   0.296   3.881   0.651
 1074SOL    HW2 3235   0.302   3.724   0.695
 1075SOL     OW 3236   1.622   4.091   0.374
 1075SOL    HW1 3237   1.624   4.015   0.438
 1075SOL    HW2 3238   1.574   4.168   0.414
 1076SOL     OW 3239   1.540   3.998   0.125
 1076SOL    HW1 3240   1.479   3.923   0.148
 1076SOL    HW2 3241   1.562   4.050   0.208
 1077SOL     OW 3242   0.319   4.534   0.949
 1077SOL    HW1 3243   0.412   4.570   0.954
 1077SOL    HW2 3244   0.313   4.449   1.001
 1078SOL     OW 3245   0.339   4.233   1.006
 1078SOL    HW1 3246   0.287   4.150   0.989
 1078SOL    HW2 3247   0.416   4.238   0.942
 1079SOL     OW 3248   1.138   4.104   1.678
 1079SOL    HW1 3249   1.093   4.167   1.742
 1079SOL    HW2 3250   1.231   4.135   1.661
 1080SOL     OW 3251   1.160   3.931   1.477
 1080SOL    HW1 3252   1.160   3.995   1.554
 1080SOL    HW2 3253   1.188   3.979   1.394
 1081SOL     OW 3254   0.040   4.268   1.114
 1081SOL    HW1 3255   0.125   4.235   1.073
 1081SOL    HW2 3256   0.053   4.283   1.212
 1082SOL     OW 3257   0.189   4.244   1.722
 1082SOL    HW1 3258   0.248   4.204   1.652
 1082SOL    HW2 3259   0.131   4.315   1.681
 1083SOL     OW 3260   0.815   4.296   0.325
 1083SOL    HW1 3261   0.822   4.207   0.279
 1083SOL    HW2 3262   0.721   4.330   0.317
 1084SOL     OW 3263   1.657   4.328   1.206
 1084SOL    HW1 3264   1.619   4.259   1.268
 1084SOL    HW2 3265   1.739   4.292   1.162
 1085SOL     OW 3266   0.671   4.188   1.269
 1085SOL    HW1 3267   0.637   4.099   1.239
 1085SOL    HW2 3268   0.697   4.242   1.189
 1086SOL     OW 3269   0.473   4.224   0.191
 1086SOL    HW1 3270   0.534   4.304   0.195
 1086SOL    HW2 3271   0.378   4.255   0.198
 1087SOL     OW 3272   0.903   3.810   0.133
 1087SOL    HW1 3273   0.954   3.811   0.047
 1087SOL    HW2 3274   0.959   3.768   0.204
 1088SOL     OW 3275   1.726   3.859   0.523
 1088SOL    HW1 3276   1.799   3.842   0.456
 1088SOL    HW2 3277   1.695   3.772   0.561
 1089SOL     OW 3278   1.280   4.651   0.672
 1089SOL    HW1 3279   1.340   4.570   0.674
 1089SOL    HW2 3280   1.320   4.720   0.612
 1090SOL     OW 3281   1.841   3.899   0.963
 1090SOL    HW1 3282   1.880   3.814   0.927
 1090SOL    HW2 3283   1.743   3.901   0.944
 1091SOL     OW 3284   0.263   4.050   0.720
 1091SOL    HW1 3285   0.184   4.101   0.686
 1091SOL    HW2 3286   0.254   4.035   0.818
 1092SOL     OW 3287   1.039   4.822   0.696
 1092SOL    HW1 3288   0.969   4.775   0.750
 1092SOL    HW2 3289   1.098   4.754   0.653
 1093SOL     OW 3290   1.014   3.960   0.971
 1093SOL    HW1 3291   1.006   3.924   0.878
 1093SOL    HW2 3292   1.012   3.884   1.036
 1094SOL     OW 3293   1.709   4.109   1.381
 1094SOL    HW1 3294   1.782   4.178   1.385
 1094SOL    HW2 3295   1.737   4.034   1.322
 1095SOL     OW 3296   0.672   3.927   1.489
 1095SOL    HW1 3297   0.762   3.911   1.449
 1095SOL    HW2 3298   0.680   3.932   1.588
 1096SOL     OW 3299   0.075   4.069   0.033
 1096SOL    HW1 3300  -0.017   4.041   0.004
 1096SOL    HW2 3301   0.106   4.146  -0.023
 1097SOL     OW 3302   0.072   3.890   0.318
 1097SOL    HW1 3303   0.055   3.973   0.264
 1097SOL    HW2 3304   0.162   3.853   0.296
 1098SOL     OW 3305   0.716   4.289   1.708
 1098SOL    HW1 3306   0.735   4.354   1.782
 1098SOL    HW2 3307   0.776   4.209   1.717
 1099SOL     OW 3308   1.225   4.049   0.449
 1099SOL    HW1 3309   1.290   3.975   0.438
 1099SOL    HW2 3310   1.245   4.099   0.533
 1100SOL     OW 3311   1.777   4.066   1.642
 1100SOL    HW1 3312   1.760   4.097   1.548
 1100SOL    HW2 3313   1.693   4.029   1.680
 1101SOL     OW 3314   1.083   4.708   0.087
 1101SOL    HW1 3315   1.060   4.761   0.005
 1101SOL    HW2 3316   1.164   4.652   0.068
 1102SOL     OW 3317   1.824   3.916   1.227
 1102SOL    HW1 3318   1.820   3.826   1.271
 1102SOL    HW2 3319   1.827   3.905   1.128
 1103SOL     OW 3320   0.428   4.148   0.520
 1103SOL    HW1 3321   0.458   4.076   0.458
 1103SOL    HW2 3322   0.389   4.108   0.603
 1104SOL     OW 3323   0.317   4.271   1.280
 1104SOL    HW1 3324   0.355   4.212   1.352
 1104SOL    HW2 3325   0.357   4.245   1.192
 1105SOL     OW 3326   1.424   3.938   1.112
 1105SOL    HW1 3327   1.476   3.873   1.167
 1105SOL    HW2 3328   1.375   4.001   1.173
 1106SOL     OW 3329   1.001   3.758   1.154
 1106SOL    HW1 3330   0.938   3.686   1.123
 1106SOL    HW2 3331   1.094   3.722   1.154
 1107SOL     OW 3332   1.352   3.776   0.168
 1107SOL    HW1 3333   1.387   3.735   0.084
 1107SOL    HW2 3334   1.262   3.738   0.188
 1108SOL     OW 3335   1.300   4.177   0.691
 1108SOL    HW1 3336   1.241   4.257   0.695
 1108SOL    HW2 3337   1.315   4.142   0.784
 1109SOL     OW 3338   1.593   3.945   0.882
 1109SOL    HW1 3339   1.509   3.944   0.936
 1109SOL    HW2 3340   1.595   4.028   0.826
 1110SOL     OW 3341   0.230   4.352   1.975
 1110SOL    HW1 3342   0.137   4.350   2.012
 1110SOL    HW2 3343   0.231   4.313   1.883
 1111SOL     OW 3344   0.225   3.999   2.858
 1111SOL    HW1 3345   0.260   3.982   2.950
 1111SOL    HW2 3346   0.137   3.954   2.846
 1112SOL     OW 3347   0.019   4.092   2.509
 1112SOL    HW1 3348  -0.063   4.135   2.548
 1112SOL    HW2 3349  -0.009   4.019   2.446
 1113SOL     OW 3350   1.755   4.331   2.093
 1113SOL    HW1 3351   1.743   4.318   1.994
 1113SOL    HW2 3352   1.725   4.250   2.142
 1114SOL     OW 3353   0.850   4.522   3.685
 1114SOL    HW1 3354   0.846   4.598   3.750
 1114SOL    HW2 3355   0.872   4.558   3.594
 1115SOL     OW 3356   0.685   4.736   2.527
 1115SOL    HW1 3357   0.754   4.720   2.597
 1115SOL    HW2 3358   0.612   4.793   2.565
 1116SOL     OW 3359   0.438   4.116   3.361
 1116SOL    HW1 3360   0.520   4.060   3.370
 1116SOL    HW2 3361   0.357   4.058   3.365
 1117SOL     OW 3362   1.603   4.171   2.599
 1117SOL    HW1 3363   1.529   4.217   2.549
 1117SOL    HW2 3364   1.654   4.239   2.652
 1118SOL     OW 3365   1.594   3.838   3.342
 1118SOL    HW1 3366   1.576   3.905   3.270
 1118SOL    HW2 3367   1.591   3.884   3.431
 1119SOL     OW 3368   0.122   4.367   2.425
 1119SOL    HW1 3369   0.077   4.279   2.442
 1119SOL    HW2 3370   0.121   4.421   2.509
 1120SOL     OW 3371   0.113   4.461   3.459
 1120SOL    HW1 3372   0.201   4.448   3.504
 1120SOL    HW2 3373   0.100   4.558   3.437
 1121SOL     OW 3374   0.809   3.728   2.364
 1121SOL    HW1 3375   0.849   3.819   2.355
 1121SOL    HW2 3376   0.709   3.736   2.370
 1122SOL     OW 3377   0.317   3.975   3.663
 1122SOL    HW1 3378   0.388   4.046   3.669
 1122SOL    HW2 3379   0.229   4.014   3.691
 1123SOL     OW 3380   1.281   4.069   2.806
 1123SOL    HW1 3381   1.195   4.019   2.793
 1123SOL    HW2 3382   1.343   4.015   2.862
 1124SOL     OW 3383   0.807   4.329   3.327
 1124SOL    HW1 3384   0.760   4.326   3.416
 1124SOL    HW2 3385   0.756   4.274   3.261
 1125SOL     OW 3386   1.394   4.193   3.536
 1125SOL    HW1 3387   1.374   4.236   3.624
 1125SOL    HW2 3388   1.472   4.131   3.545
 1126SOL     OW 3389   0.991   4.134   3.104
 1126SOL    HW1 3390   0.914   4.168   3.158
 1126SOL    HW2 3391   0.957   4.083   3.025
 1127SOL     OW 3392   1.041   4.425   2.291
 1127SOL    HW1 3393   1.067   4.421   2.387
 1127SOL    HW2 3394   0.956   4.374   2.277
 1128SOL     OW 3395   0.076   4.535   2.651
 1128SOL    HW1 3396   0.175   4.523   2.660
 1128SOL    HW2 3397   0.052   4.630   2.672
 1129SOL     OW 3398   0.865   4.072   2.057
 1129SOL    HW1 3399   0.924   4.135   2.008
 1129SOL    HW2 3400   0.884   3.978   2.028
 1130SOL     OW 3401   1.719   4.309   3.693
 1130SOL    HW1 3402   1.693   4.398   3.657
 1130SOL    HW2 3403   1.717   4.241   3.620
 1131SOL     OW 3404   0.550   3.920   2.747
 1131SOL    HW1 3405   0.545   3.915   2.847
 1131SOL    HW2 3406   0.552   4.016   2.718
 1132SOL     OW 3407   1.458   4.459   2.590
 1132SOL    HW1 3408   1.453   4.394   2.665
 1132SOL    HW2 3409   1.538   4.518   2.603
 1133SOL     OW 3410   0.202   4.009   3.360
 1133SOL    HW1 3411   0.122   4.069   3.347
 1133SOL    HW2 3412   0.192   3.960   3.446
 1134SOL     OW 3413   1.400   3.831   2.288
 1134SOL    HW1 3414   1.376   3.794   2.198
 1134SOL    HW2 3415   1.499   3.847   2.292
 1135SOL     OW 3416   0.382   4.424   2.342
 1135SOL    HW1 3417   0.427   4.334   2.339
 1135SOL    HW2 3418   0.288   4.413   2.375
 1136SOL     OW 3419   1.547   3.946   3.591
 1136SOL    HW1 3420   1.542   3.983   3.683
 1136SOL    HW2 3421   1.475   3.877   3.579
 1137SOL     OW 3422   0.614   3.846   1.979
 1137SOL    HW1 3423   0.712   3.824   1.986
 1137SOL    HW2 3424   0.583   3.829   1.886
 1138SOL     OW 3425   0.781   3.988   3.611
 1138SOL    HW1 3426   0.848   3.927   3.654
 1138SOL    HW2 3427   0.708   4.007   3.676
 1139SOL     OW 3428   1.351   4.314   3.295
 1139SOL    HW1 3429   1.379   4.271   3.380
 1139SOL    HW2 3430   1.376   4.410   3.296
 1140SOL     OW 3431   0.922   4.227   2.761
 1140SOL    HW1 3432   0.897   4.218   2.665
 1140SOL    HW2 3433   0.970   4.145   2.792
 1141SOL     OW 3434   0.539   3.788   2.374
 1141SOL    HW1 3435   0.458   3.789   2.432
 1141SOL    HW2 3436   0.542   3.871   2.319
 1142SOL     OW 3437   0.297   3.759   2.033
 1142SOL    HW1 3438   0.346   3.843   2.012
 1142SOL    HW2 3439   0.359   3.694   2.078
 1143SOL     OW 3440   0.935   3.960   2.342
 1143SOL    HW1 3441   0.887   4.001   2.264
 1143SOL    HW2 3442   1.034   3.958   2.323
 1144SOL     OW 3443   1.076   4.407   3.326
 1144SOL    HW1 3444   0.996   4.346   3.329
 1144SOL    HW2 3445   1.157   4.354   3.302
 1145SOL     OW 3446   1.032   4.273   1.878
 1145SOL    HW1 3447   0.991   4.355   1.839
 1145SOL    HW2 3448   1.096   4.299   1.951
 1146SOL     OW 3449   0.078   4.280   3.248
 1146SOL    HW1 3450   0.170   4.279   3.207
 1146SOL    HW2 3451   0.072   4.354   3.315
 1147SOL     OW 3452   0.561   3.946   3.009
 1147SOL    HW1 3453   0.599   3.862   3.046
 1147SOL    HW2 3454   0.473   3.965   3.053
 1148SOL     OW 3455   0.866   4.178   2.504
 1148SOL    HW1 3456   0.834   4.250   2.442
 1148SOL    HW2 3457   0.890   4.097   2.451
 1149SOL     OW 3458   1.017   3.763   2.615
 1149SOL    HW1 3459   0.945   3.768   2.546
 1149SOL    HW2 3460   0.993   3.694   2.684
 1150SOL     OW 3461   1.466   4.314   2.854
 1150SOL    HW1 3462   1.436   4.219   2.861
 1150SOL    HW2 3463   1.539   4.330   2.920
 1151SOL     OW 3464   1.390   4.299   1.940
 1151SOL    HW1 3465   1.336   4.278   2.021
 1151SOL    HW2 3466   1.481   4.258   1.949
 1152SOL     OW 3467   0.527   3.980   2.190
 1152SOL    HW1 3468   0.554   3.921   2.115
 1152SOL    HW2 3469   0.527   4.075   2.159
 1153SOL     OW 3470   0.915   3.813   3.264
 1153SOL    HW1 3471   0.940   3.793   3.169
 1153SOL    HW2 3472   0.987   3.869   3.306
 1154SOL     OW 3473   0.410   4.537   3.113
 1154SOL    HW1 3474   0.496   4.549   3.163
 1154SOL    HW2 3475   0.368   4.450   3.140
 1155SOL     OW 3476   1.274   4.110   3.124
 1155SOL    HW1 3477   1.295   4.184   3.188
 1155SOL    HW2 3478   1.185   4.127   3.081
 1156SOL     OW 3479   0.566   4.261   2.727
 1156SOL    HW1 3480   0.578   4.327   2.653
 1156SOL    HW2 3481   0.612   4.295   2.810
 1157SOL     OW 3482   1.582   4.363   2.334
 1157SOL    HW1 3483   1.551   4.424   2.407
 1157SOL    HW2 3484   1.632   4.415   2.265
 1158SOL     OW 3485   1.013   3.829   3.632
 1158SOL    HW1 3486   1.019   3.914   3.580
 1158SOL    HW2 3487   1.045   3.753   3.575
 1159SOL     OW 3488   0.504   3.774   3.602
 1159SOL    HW1 3489   0.462   3.717   3.532
 1159SOL    HW2 3490   0.438   3.843   3.634
 1160SOL     OW 3491   1.209   4.249   2.137
 1160SOL    HW1 3492   1.222   4.165   2.191
 1160SOL    HW2 3493   1.180   4.323   2.197
 1161SOL     OW 3494   0.307   3.937   3.093
 1161SOL    HW1 3495   0.284   3.974   3.183
 1161SOL    HW2 3496   0.277   3.842   3.087
 1162SOL     OW 3497   0.732   4.358   2.926
 1162SOL    HW1 3498   0.791   4.332   2.850
 1162SOL    HW2 3499   0.704   4.454   2.915
 1163SOL     OW 3500   1.728   4.659   3.716
 1163SOL    HW1 3501   1.682   4.652   3.627
 1163SOL    HW2 3502   1.666   4.703   3.782
 1164SOL     OW 3503   0.307   3.787   2.480
 1164SOL    HW1 3504   0.296   3.881   2.513
 1164SOL    HW2 3505   0.302   3.724   2.557
 1165SOL     OW 3506   1.622   4.091   2.236
 1165SOL    HW1 3507   1.624   4.015   2.300
 1165SOL    HW2 3508   1.574   4.168   2.276
 1166SOL     OW 3509   1.540   3.998   1.987
 1166SOL    HW1 3510   1.479   3.923   2.010
 1166SOL    HW2 3511   1.562   4.050   2.070
 1167SOL     OW 3512   0.319   4.534   2.811
 1167SOL    HW1 3513   0.412   4.570   2.816
 1167SOL    HW2 3514   0.313   4.449   2.863
 1168SOL     OW 3515   0.339   4.233   2.868
 1168SOL    HW1 3516   0.287   4.150   2.851
 1168SOL    HW2 3517   0.416   4.238   2.804
 1169SOL     OW 3518   1.138   4.104   3.540
 1169SOL    HW1 3519   1.093   4.167   3.604
 1169SOL    HW2 3520   1.231   4.135   3.523
 1170SOL     OW 3521   1.160   3.931   3.339
 1170SOL    HW1 3522   1.160   3.995   3.416
 1170SOL    HW2 3523   1.188   3.979   3.256
 1171SOL     OW 3524   0.040   4.268   2.976
 1171SOL    HW1 3525   0.125   4.235   2.935
 1171SOL    HW2 3526   0.053   4.283   3.074
 1172SOL     OW 3527   0.189   4.244   3.584
 1172SOL    HW1 3528   0.248   4.204   3.514
 1172SOL    HW2 3529   0.131   4.315   3.543
 1173SOL     OW 3530   0.815   4.296   2.187
 1173SOL    HW1 3531   0.822   4.207   2.141
 1173SOL    HW2 3532   0.721   4.330   2.179
 1174SOL     OW 3533   1.657   4.328   3.068
 1174SOL    HW1 3534   1.619   4.259   3.130
 1174SOL    HW2 3535   1.739   4.292   3.024
 1175SOL     OW 3536   0.671   4.188   3.131
 1175SOL    HW1 3537   0.637   4.099   3.101
 1175SOL    HW2 3538   0.697   4.242   3.051
 1176SOL     OW 3539   0.473   4.224   2.053
 1176SOL    HW1 3540   0.534   4.304   2.057
 1176SOL    HW2 3541   0.378   4.255   2.060
 1177SOL     OW 3542   1.726   3.859   2.385
 1177SOL    HW1 3543   1.799   3.842   2.318
 1177SOL    HW2 3544   1.695   3.772   2.423
 1178SOL     OW 3545   1.280   4.651   2.534
 1178SOL    HW1 3546   1.340   4.570   2.536
 1178SOL    HW2 3547   1.320   4.720   2.474
 1179SOL     OW 3548   1.841   3.899   2.825
 1179SOL    HW1 3549   1.880   3.814   2.789
 1179SOL    HW2 3550   1.743   3.901   2.806
 1180SOL     OW 3551   0.263   4.050   2.582
 1180SOL    HW1 3552   0.184   4.101   2.548
 1180SOL    HW2 3553   0.254   4.035   2.680
 1181SOL     OW 3554   0.916   4.634   2.153
 1181SOL    HW1 3555   0.979   4.672   2.085
 1181SOL    HW2 3556   0.956   4.551   2.192
 1182SOL     OW 3557   1.039   4.822   2.558
 1182SOL    HW1 3558   0.969   4.775   2.612
 1182SOL    HW2 3559   1.098   4.754   2.515
 1183SOL     OW 3560   1.014   3.960   2.833
 1183SOL    HW1 3561   1.006   3.924   2.740
 1183SOL    HW2 3562   1.012   3.884   2.898
 1184SOL     OW 3563   1.709   4.109   3.243
 1184SOL    HW1 3564   1.782   4.178   3.247
 1184SOL    HW2 3565   1.737   4.034   3.184
 1185SOL     OW 3566   0.672   3.927   3.351
 1185SOL    HW1 3567   0.762   3.911   3.311
 1185SOL    HW2 3568   0.680   3.932   3.450
 1186SOL     OW 3569   0.075   4.069   1.895
 1186SOL    HW1 3570  -0.017   4.041   1.866
 1186SOL    HW2 3571   0.106   4.146   1.839
 1187SOL     OW 3572   0.072   3.890   2.180
 1187SOL    HW1 3573   0.055   3.973   2.126
 1187SOL    HW2 3574   0.162   3.853   2.158
 1188SOL     OW 3575   0.716   4.289   3.570
 1188SOL    HW1 3576   0.735   4.354   3.644
 1188SOL    HW2 3577   0.776   4.209   3.579
 1189SOL     OW 3578   1.225   4.049   2.311
 1189SOL    HW1 3579   1.290   3.975   2.300
 1189SOL    HW2 3580   1.245   4.099   2.395
 1190SOL     OW 3581   1.777   4.066   3.504
 1190SOL    HW1 3582   1.760   4.097   3.410
 1190SOL    HW2 3583   1.693   4.029   3.542
 1191SOL     OW 3584   1.083   4.708   1.949
 1191SOL    HW1 3585   1.060   4.761   1.867
 1191SOL    HW2 3586   1.164   4.652   1.930
 1192SOL     OW 3587   1.824   3.916   3.089
 1192SOL    HW1 3588   1.820   3.826   3.133
 1192SOL    HW2 3589   1.827   3.905   2.990
 1193SOL     OW 3590   0.428   4.148   2.382
 1193SOL    HW1 3591   0.458   4.076   2.320
 1193SOL    HW2 3592   0.389   4.108   2.465
 1194SOL     OW 3593   0.317   4.271   3.142
 1194SOL    HW1 3594   0.355   4.212   3.214
 1194SOL    HW2 3595   0.357   4.245   3.054
 1195SOL     OW 3596   1.424   3.938   2.974
 1195SOL    HW1 3597   1.476   3.873   3.029
 1195SOL    HW2 3598   1.375   4.001   3.035
 1196SOL     OW 3599   1.001   3.758   3.016
 1196SOL    HW1 3600   0.938   3.686   2.985
 1196SOL    HW2 3601   1.094   3.722   3.016
 1197SOL     OW 3602   1.352   3.776   2.030
 1197SOL    HW1 3603   1.387   3.735   1.946
 1197SOL    HW2 3604   1.262   3.738   2.050
 1198SOL     OW 3605   1.300   4.177   2.553
 1198SOL    HW1 3606   1.241   4.257   2.557
 1198SOL    HW2 3607   1.315   4.142   2.646
 1199SOL     OW 3608   1.593   3.945   2.744
 1199SOL    HW1 3609   1.509   3.944   2.798
 1199SOL    HW2 3610   1.595   4.028   2.688
 1200SOL     OW 3611   0.230   4.352   3.837
 1200SOL    HW1 3612   0.137   4.350   3.874
 1200SOL    HW2 3613   0.231   4.313   3.745
 1201SOL     OW 3614   1.755   4.331   3.955
 1201SOL    HW1 3615   1.743   4.318   3.856
 1201SOL    HW2 3616   1.725   4.250   4.004
 1202SOL     OW 3617   0.685   4.736   4.389
 1202SOL    HW1 3618   0.754   4.720   4.459
 1202SOL    HW2 3619   0.612   4.793   4.427
 1203SOL     OW 3620   1.603   4.171   4.461
 1203SOL    HW1 3621   1.529   4.217   4.411
 1203SOL    HW2 3622   1.654   4.239   4.514
 1204SOL     OW 3623   0.240   4.815   4.610
 1204SOL    HW1 3624   0.254   4.731   4.662
 1204SOL    HW2 3625   0.185   4.879   4.665
 1205SOL     OW 3626   0.122   4.367   4.287
 1205SOL    HW1 3627   0.077   4.279   4.304
 1205SOL    HW2 3628   0.121   4.421   4.371
 1206SOL     OW 3629   0.809   3.728   4.226
 1206SOL    HW1 3630   0.849   3.819   4.217
 1206SOL    HW2 3631   0.709   3.736   4.232
 1207SOL     OW 3632   1.281   4.069   4.668
 1207SOL    HW1 3633   1.195   4.019   4.655
 1207SOL    HW2 3634   1.343   4.015   4.724
 1208SOL     OW 3635   1.041   4.425   4.153
 1208SOL    HW1 3636   1.067   4.421   4.249
 1208SOL    HW2 3637   0.956   4.374   4.139
 1209SOL     OW 3638   0.076   4.535   4.513
 1209SOL    HW1 3639   0.175   4.523   4.522
 1209SOL    HW2 3640   0.052   4.630   4.534
 1210SOL     OW 3641   0.865   4.072   3.919
 1210SOL    HW1 3642   0.924   4.135   3.870
 1210SOL    HW2 3643   0.884   3.978   3.890
 1211SOL     OW 3644   1.400   3.831   4.150
 1211SOL    HW1 3645   1.376   3.794   4.060
 1211SOL    HW2 3646   1.499   3.847   4.154
 1212SOL     OW 3647   0.382   4.424   4.204
 1212SOL    HW1 3648   0.427   4.334   4.201
 1212SOL    HW2 3649   0.288   4.413   4.237
 1213SOL     OW 3650   0.614   3.846   3.841
 1213SOL    HW1 3651   0.712   3.824   3.848
 1213SOL    HW2 3652   0.583   3.829   3.748
 1214SOL     OW 3653   0.539   3.788   4.236
 1214SOL    HW1 3654   0.458   3.789   4.294
 1214SOL    HW2 3655   0.542   3.871   4.181
 1215SOL     OW 3656   0.297   3.759   3.895
 1215SOL    HW1 3657   0.346   3.843   3.874
 1215SOL    HW2 3658   0.359   3.694   3.940
 1216SOL     OW 3659   0.935   3.960   4.204
 1216SOL    HW1 3660   0.887   4.001   4.126
 1216SOL    HW2 3661   1.034   3.958   4.185
 1217SOL     OW 3662   1.032   4.273   3.740
 1217SOL    HW1 3663   0.991   4.355   3.701
 1217SOL    HW2 3664   1.096   4.299   3.813
 1218SOL     OW 3665   0.866   4.178   4.366
 1218SOL    HW1 3666   0.834   4.250   4.304
 1218SOL    HW2 3667   0.890   4.097   4.313
 1219SOL     OW 3668   1.390   4.299   3.802
 1219SOL    HW1 3669   1.336   4.278   3.883
 1219SOL    HW2 3670   1.481   4.258   3.811
 1220SOL     OW 3671   0.527   3.980   4.052
 1220SOL    HW1 3672   0.554   3.921   3.977
 1220SOL    HW2 3673   0.527   4.075   4.021
 1221SOL     OW 3674   1.582   4.363   4.196
 1221SOL    HW1 3675   1.551   4.424   4.269
 1221SOL    HW2 3676   1.632   4.415   4.127
 1222SOL     OW 3677   1.209   4.249   3.999
 1222SOL    HW1 3678   1.222   4.165   4.053
 1222SOL    HW2 3679   1.180   4.323   4.059
 1223SOL     OW 3680   0.307   3.787   4.342
 1223SOL    HW1 3681   0.296   3.881   4.375
 1223SOL    HW2 3682   0.302   3.724   4.419
 1224SOL     OW 3683   1.622   4.091   4.098
 1224SOL    HW1 3684   1.624   4.015   4.162
 1224SOL    HW2 3685   1.574   4.168   4.138
 1225SOL     OW 3686   1.540   3.998   3.849
 1225SOL    HW1 3687   1.479   3.923   3.872
 1225SOL    HW2 3688   1.562   4.050   3.932
 1226SOL     OW 3689   0.815   4.296   4.049
 1226SOL    HW1 3690   0.822   4.207   4.003
 1226SOL    HW2 3691   0.721   4.330   4.041
 1227SOL     OW 3692   0.473   4.224   3.915
 1227SOL    HW1 3693   0.534   4.304   3.919
 1227SOL    HW2 3694   0.378   4.255   3.922
 1228SOL     OW 3695   1.726   3.859   4.247
 1228SOL    HW1 3696   1.799   3.842   4.180
 1228SOL    HW2 3697   1.695   3.772   4.285
 1229SOL     OW 3698   1.280   4.651   4.396
 1229SOL    HW1 3699   1.340   4.570   4.398
 1229SOL    HW2 3700   1.320   4.720   4.336
 1230SOL     OW 3701   1.841   3.899   4.687
 1230SOL    HW1 3702   1.880   3.814   4.651
 1230SOL    HW2 3703   1.743   3.901   4.668
 1231SOL     OW 3704   0.916   4.634   4.015
 1231SOL    HW1 3705   0.979   4.672   3.947
 1231SOL    HW2 3706   0.956   4.551   4.054
 1232SOL     OW 3707   0.075   4.069   3.757
 1232SOL    HW1 3708  -0.017   4.041   3.728
 1232SOL    HW2 3709   0.106   4.146   3.701
 1233SOL     OW 3710   0.072   3.890   4.042
 1233SOL    HW1 3711   0.055   3.973   3.988
 1233SOL    HW2 3712   0.162   3.853   4.020
 1234SOL     OW 3713   1.225   4.049   4.173
 1234SOL    HW1 3714   1.290   3.975   4.162
 1234SOL    HW2 3715   1.245   4.099   4.257
 1235SOL     OW 3716   1.083   4.708   3.811
 1235SOL    HW1 3717   1.060   4.761   3.729
 1235SOL    HW2 3718   1.164   4.652   3.792
 1236SOL     OW 3719   0.428   4.148   4.244
 1236SOL    HW1 3720   0.458   4.076   4.182
 1236SOL    HW2 3721   0.389   4.108   4.327
 1237SOL     OW 3722   1.352   3.776   3.892
 1237SOL    HW1 3723   1.387   3.735   3.808
 1237SOL    HW2 3724   1.262   3.738   3.912
 1238SOL     OW 3725   1.300   4.177   4.415
 1238SOL    HW1 3726   1.241   4.257   4.419
 1238SOL    HW2 3727   1.315   4.142   4.508
 1239SOL     OW 3728   2.092   0.628   0.113
 1239SOL    HW1 3729   1.999   0.626   0.150
 1239SOL    HW2 3730   2.093   0.589   0.021
 1240SOL     OW 3731   2.087   0.275   0.996
 1240SOL    HW1 3732   2.122   0.258   1.088
 1240SOL    HW2 3733   1.999   0.230   0.984
 1241SOL     OW 3734   1.881   0.368   0.647
 1241SOL    HW1 3735   1.799   0.411   0.686
 1241SOL    HW2 3736   1.853   0.295   0.584
 1242SOL     OW 3737   2.431   1.275   1.165
 1242SOL    HW1 3738   2.338   1.268   1.128
 1242SOL    HW2 3739   2.442   1.364   1.209
 1243SOL     OW 3740   3.417   1.511   0.703
 1243SOL    HW1 3741   3.360   1.495   0.784
 1243SOL    HW2 3742   3.358   1.521   0.623
 1244SOL     OW 3743   2.997   0.703   0.717
 1244SOL    HW1 3744   3.054   0.781   0.692
 1244SOL    HW2 3745   2.937   0.729   0.793
 1245SOL     OW 3746   3.617   0.607   0.231
 1245SOL    HW1 3747   3.605   0.594   0.132
 1245SOL    HW2 3748   3.587   0.526   0.280
 1246SOL     OW 3749   2.630   1.144   1.023
 1246SOL    HW1 3750   2.552   1.161   1.083
 1246SOL    HW2 3751   2.664   1.231   0.987
 1247SOL     OW 3752   2.712   0.798   1.823
 1247SOL    HW1 3753   2.708   0.874   1.888
 1247SOL    HW2 3754   2.734   0.834   1.732
 1248SOL     OW 3755   2.547   1.012   0.665
 1248SOL    HW1 3756   2.616   0.996   0.735
 1248SOL    HW2 3757   2.474   1.069   0.703
 1249SOL     OW 3758   2.548   1.161   1.803
 1249SOL    HW1 3759   2.608   1.240   1.817
 1249SOL    HW2 3760   2.462   1.192   1.762
 1250SOL     OW 3761   2.197   1.435   1.061
 1250SOL    HW1 3762   2.119   1.404   1.008
 1250SOL    HW2 3763   2.255   1.493   1.004
 1251SOL     OW 3764   3.322   1.505   1.339
 1251SOL    HW1 3765   3.346   1.599   1.365
 1251SOL    HW2 3766   3.306   1.451   1.421
 1252SOL     OW 3767   2.300   0.392   1.499
 1252SOL    HW1 3768   2.382   0.336   1.508
 1252SOL    HW2 3769   2.219   0.334   1.503
 1253SOL     OW 3770   3.465   0.447   0.737
 1253SOL    HW1 3771   3.391   0.493   0.687
 1253SOL    HW2 3772   3.516   0.515   0.790
 1254SOL     OW 3773   2.093   1.713   0.483
 1254SOL    HW1 3774   2.127   1.790   0.537
 1254SOL    HW2 3775   2.137   1.713   0.393
 1255SOL     OW 3776   2.989   1.341   1.690
 1255SOL    HW1 3777   3.036   1.341   1.778
 1255SOL    HW2 3778   2.941   1.254   1.679
 1256SOL     OW 3779   2.092   1.434   0.538
 1256SOL    HW1 3780   2.066   1.530   0.538
 1256SOL    HW2 3781   2.021   1.380   0.583
 1257SOL     OW 3782   2.102   1.091   0.886
 1257SOL    HW1 3783   2.116   1.007   0.938
 1257SOL    HW2 3784   2.047   1.155   0.941
 1258SOL     OW 3785   2.482   1.786   1.439
 1258SOL    HW1 3786   2.390   1.769   1.474
 1258SOL    HW2 3787   2.510   1.878   1.465
 1259SOL     OW 3788   2.468   0.964   0.123
 1259SOL    HW1 3789   2.475   1.048   0.069
 1259SOL    HW2 3790   2.514   0.977   0.211
 1260SOL     OW 3791   3.456   0.114   1.480
 1260SOL    HW1 3792   3.438   0.181   1.408
 1260SOL    HW2 3793   3.453   0.160   1.569
 1261SOL     OW 3794   1.984   0.643   0.563
 1261SOL    HW1 3795   1.939   0.555   0.580
 1261SOL    HW2 3796   1.983   0.697   0.647
 1262SOL     OW 3797   3.704   1.767   0.359
 1262SOL    HW1 3798   3.758   1.738   0.439
 1262SOL    HW2 3799   3.734   1.857   0.330
 1263SOL     OW 3800   1.889   1.596   0.117
 1263SOL    HW1 3801   1.870   1.500   0.138
 1263SOL    HW2 3802   1.856   1.654   0.192
 1264SOL     OW 3803   3.551   0.922   0.612
 1264SOL    HW1 3804   3.646   0.893   0.620
 1264SOL    HW2 3805   3.543   0.987   0.537
 1265SOL     OW 3806   3.503   1.108   0.432
 1265SOL    HW1 3807   3.589   1.110   0.380
 1265SOL    HW2 3808   3.517   1.155   0.520
 1266SOL     OW 3809   1.975   0.737   1.597
 1266SOL    HW1 3810   2.063   0.724   1.642
 1266SOL    HW2 3811   1.962   0.834   1.575
 1267SOL     OW 3812   2.475   1.365   0.726
 1267SOL    HW1 3813   2.426   1.278   0.735
 1267SOL    HW2 3814   2.452   1.408   0.639
 1268SOL     OW 3815   3.155   1.228   1.423
 1268SOL    HW1 3816   3.192   1.155   1.365
 1268SOL    HW2 3817   3.207   1.233   1.508
 1269SOL     OW 3818   2.671   0.004   0.502
 1269SOL    HW1 3819   2.711   0.095   0.493
 1269SOL    HW2 3820   2.571   0.012   0.508
 1270SOL     OW 3821   2.059   0.976   1.264
 1270SOL    HW1 3822   2.148   0.931   1.250
 1270SOL    HW2 3823   1.986   0.911   1.245
 1271SOL     OW 3824   3.387   0.999   0.190
 1271SOL    HW1 3825   3.324   0.923   0.203
 1271SOL    HW2 3826   3.435   1.017   0.276
 1272SOL     OW 3827   3.049   1.792   1.616
 1272SOL    HW1 3828   3.073   1.852   1.540
 1272SOL    HW2 3829   3.056   1.697   1.586
 1273SOL     OW 3830   2.179   0.251   1.801
 1273SOL    HW1 3831   2.250   0.322   1.807
 1273SOL    HW2 3832   2.091   0.290   1.829
 1274SOL     OW 3833   3.328   1.417   0.953
 1274SOL    HW1 3834   3.269   1.423   1.033
 1274SOL    HW2 3835   3.313   1.329   0.907
 1275SOL     OW 3836   3.529   1.714   0.572
 1275SOL    HW1 3837   3.488   1.691   0.484
 1275SOL    HW2 3838   3.511   1.640   0.637
 1276SOL     OW 3839   2.460   0.729   0.270
 1276SOL    HW1 3840   2.484   0.798   0.202
 1276SOL    HW2 3841   2.382   0.762   0.324
 1277SOL     OW 3842   3.143   0.345   0.944
 1277SOL    HW1 3843   3.057   0.295   0.931
 1277SOL    HW2 3844   3.205   0.291   1.000
 1278SOL     OW 3845   3.438   1.662   0.307
 1278SOL    HW1 3846   3.527   1.708   0.310
 1278SOL    HW2 3847   3.417   1.638   0.212
 1279SOL     OW 3848   2.669   0.605   1.465
 1279SOL    HW1 3849   2.622   0.602   1.554
 1279SOL    HW2 3850   2.618   0.550   1.399
 1280SOL     OW 3851   3.256   0.469   1.674
 1280SOL    HW1 3852   3.236   0.512   1.762
 1280SOL    HW2 3853   3.334   0.407   1.683
 1281SOL     OW 3854   2.835   0.890   1.572
 1281SOL    HW1 3855   2.881   0.806   1.543
 1281SOL    HW2 3856   2.779   0.924   1.497
 1282SOL     OW 3857   2.853   0.410   1.242
 1282SOL    HW1 3858   2.776   0.444   1.296
 1282SOL    HW2 3859   2.819   0.359   1.163
 1283SOL     OW 3860   2.903   0.701   0.429
 1283SOL    HW1 3861   2.929   0.697   0.525
 1283SOL    HW2 3862   2.818   0.650   0.415
 1284SOL     OW 3863   1.938   0.811   0.789
 1284SOL    HW1 3864   2.037   0.799   0.798
 1284SOL    HW2 3865   1.914   0.906   0.810
 1285SOL     OW 3866   1.992   1.821   1.571
 1285SOL    HW1 3867   1.982   1.806   1.670
 1285SOL    HW2 3868   1.906   1.857   1.535
 1286SOL     OW 3869   2.727   0.348   0.195
 1286SOL    HW1 3870   2.786   0.411   0.146
 1286SOL    HW2 3871   2.746   0.254   0.166
 1287SOL     OW 3872   3.581   0.585   1.831
 1287SOL    HW1 3873   3.555   0.674   1.795
 1287SOL    HW2 3874   3.579   0.517   1.758
 1288SOL     OW 3875   3.224   1.144   0.545
 1288SOL    HW1 3876   3.307   1.115   0.497
 1288SOL    HW2 3877   3.175   1.211   0.489
 1289SOL     OW 3878   2.412   0.196   0.885
 1289SOL    HW1 3879   2.407   0.191   0.985
 1289SOL    HW2 3880   2.414   0.292   0.856
 1290SOL     OW 3881   2.870   1.456   0.477
 1290SOL    HW1 3882   2.824   1.528   0.425
 1290SOL    HW2 3883   2.866   1.476   0.575
 1291SOL     OW 3884   2.213   1.801   0.853
 1291SOL    HW1 3885   2.263   1.715   0.859
 1291SOL    HW2 3886   2.278   1.878   0.850
 1292SOL     OW 3887   3.657   1.066   0.873
 1292SOL    HW1 3888   3.595   1.051   0.797
 1292SOL    HW2 3889   3.605   1.077   0.958
 1293SOL     OW 3890   3.089   1.550   1.506
 1293SOL    HW1 3891   3.095   1.473   1.570
 1293SOL    HW2 3892   3.037   1.524   1.426
 1294SOL     OW 3893   2.183   0.943   0.242
 1294SOL    HW1 3894   2.265   0.982   0.200
 1294SOL    HW2 3895   2.156   0.861   0.193
 1295SOL     OW 3896   3.320   0.735   0.728
 1295SOL    HW1 3897   3.315   0.670   0.803
 1295SOL    HW2 3898   3.400   0.794   0.741
 1296SOL     OW 3899   2.323   1.266   1.727
 1296SOL    HW1 3900   2.273   1.267   1.641
 1296SOL    HW2 3901   2.260   1.248   1.803
 1297SOL     OW 3902   2.973   1.776   0.237
 1297SOL    HW1 3903   2.913   1.714   0.287
 1297SOL    HW2 3904   3.004   1.732   0.152
 1298SOL     OW 3905   2.064   0.285   1.498
 1298SOL    HW1 3906   1.984   0.345   1.485
 1298SOL    HW2 3907   2.054   0.236   1.584
 1299SOL     OW 3908   3.494   1.377   0.081
 1299SOL    HW1 3909   3.462   1.471   0.071
 1299SOL    HW2 3910   3.418   1.314   0.069
 1300SOL     OW 3911   2.326   1.743   0.323
 1300SOL    HW1 3912   2.359   1.782   0.409
 1300SOL    HW2 3913   2.402   1.736   0.258
 1301SOL     OW 3914   3.262   0.107   0.426
 1301SOL    HW1 3915   3.238   0.070   0.336
 1301SOL    HW2 3916   3.361   0.123   0.430
 1302SOL     OW 3917   2.111   1.785   1.241
 1302SOL    HW1 3918   2.168   1.720   1.291
 1302SOL    HW2 3919   2.095   1.752   1.148
 1303SOL     OW 3920   2.802   1.698   0.904
 1303SOL    HW1 3921   2.882   1.641   0.925
 1303SOL    HW2 3922   2.753   1.658   0.827
 1304SOL     OW 3923   2.244   0.700   0.480
 1304SOL    HW1 3924   2.289   0.610   0.477
 1304SOL    HW2 3925   2.150   0.689   0.513
 1305SOL     OW 3926   3.409   0.222   1.729
 1305SOL    HW1 3927   3.404   0.259   1.821
 1305SOL    HW2 3928   3.337   0.153   1.717
 1306SOL     OW 3929   2.476   0.122   0.117
 1306SOL    HW1 3930   2.574   0.100   0.124
 1306SOL    HW2 3931   2.445   0.105   0.024
 1307SOL     OW 3932   2.643   0.264   1.749
 1307SOL    HW1 3933   2.710   0.203   1.792
 1307SOL    HW2 3934   2.570   0.283   1.814
 1308SOL     OW 3935   2.750   1.514   1.195
 1308SOL    HW1 3936   2.727   1.489   1.101
 1308SOL    HW2 3937   2.811   1.445   1.234
 1309SOL     OW 3938   3.213   0.590   1.433
 1309SOL    HW1 3939   3.241   0.547   1.518
 1309SOL    HW2 3940   3.238   0.686   1.434
 1310SOL     OW 3941   2.665   1.402   0.924
 1310SOL    HW1 3942   2.755   1.416   0.882
 1310SOL    HW2 3943   2.594   1.404   0.853
 1311SOL     OW 3944   2.784   0.503   0.899
 1311SOL    HW1 3945   2.759   0.494   0.803
 1311SOL    HW2 3946   2.832   0.421   0.930
 1312SOL     OW 3947   2.401   0.064   0.512
 1312SOL    HW1 3948   2.320   0.065   0.570
 1312SOL    HW2 3949   2.404   0.147   0.457
 1313SOL     OW 3950   3.296   1.188   0.041
 1313SOL    HW1 3951   3.328   1.112   0.098
 1313SOL    HW2 3952   3.204   1.215   0.071
 1314SOL     OW 3953   2.159   0.035   0.171
 1314SOL    HW1 3954   2.208   0.119   0.150
 1314SOL    HW2 3955   2.221  -0.030   0.216
 1315SOL     OW 3956   2.797   0.236   0.480
 1315SOL    HW1 3957   2.749   0.277   0.402
 1315SOL    HW2 3958   2.896   0.234   0.461
 1316SOL     OW 3959   2.938   0.683   1.464
 1316SOL    HW1 3960   2.858   0.622   1.467
 1316SOL    HW2 3961   3.019   0.630   1.440
 1317SOL     OW 3962   3.089   1.570   0.793
 1317SOL    HW1 3963   3.110   1.644   0.728
 1317SOL    HW2 3964   3.157   1.570   0.866
 1318SOL     OW 3965   2.321   1.152   0.741
 1318SOL    HW1 3966   2.250   1.125   0.806
 1318SOL    HW2 3967   2.295   1.124   0.648
 1319SOL     OW 3968   3.133   1.797   0.591
 1319SOL    HW1 3969   3.177   1.861   0.527
 1319SOL    HW2 3970   3.083   1.849   0.661
 1320SOL     OW 3971   2.894   0.549   0.016
 1320SOL    HW1 3972   2.853   0.631  -0.023
 1320SOL    HW2 3973   2.958   0.575   0.089
 1321SOL     OW 3974   1.940   0.556   1.386
 1321SOL    HW1 3975   2.032   0.555   1.345
 1321SOL    HW2 3976   1.934   0.630   1.453
 1322SOL     OW 3977   2.423   0.222   1.147
 1322SOL    HW1 3978   2.461   0.138   1.184
 1322SOL    HW2 3979   2.335   0.241   1.191
 1323SOL     OW 3980   2.728   0.454   0.642
 1323SOL    HW1 3981   2.696   0.526   0.580
 1323SOL    HW2 3982   2.752   0.373   0.589
 1324SOL     OW 3983   2.879   0.039   0.753
 1324SOL    HW1 3984   2.807   0.044   0.684
 1324SOL    HW2 3985   2.855  -0.030   0.822
 1325SOL     OW 3986   3.291   1.173   0.867
 1325SOL    HW1 3987   3.236   1.089   0.860
 1325SOL    HW2 3988   3.317   1.202   0.775
 1326SOL     OW 3989   3.328   0.590   0.992
 1326SOL    HW1 3990   3.298   0.495   0.999
 1326SOL    HW2 3991   3.401   0.606   1.058
 1327SOL     OW 3992   3.719   0.833   0.377
 1327SOL    HW1 3993   3.761   0.769   0.441
 1327SOL    HW2 3994   3.681   0.782   0.299
 1328SOL     OW 3995   2.350   1.385   0.174
 1328SOL    HW1 3996   2.263   1.370   0.221
 1328SOL    HW2 3997   2.333   1.411   0.079
 1329SOL     OW 3998   3.526   1.280   0.657
 1329SOL    HW1 3999   3.625   1.288   0.671
 1329SOL    HW2 4000   3.481   1.364   0.688
 1330SOL     OW 4001   3.252   0.575   0.078
 1330SOL    HW1 4002   3.198   0.554   0.159
 1330SOL    HW2 4003   3.343   0.534   0.087
 1331SOL     OW 4004   2.389   0.256   0.328
 1331SOL    HW1 4005   2.416   0.197   0.253
 1331SOL    HW2 4006   2.389   0.351   0.297
 1332SOL     OW 4007   3.616   1.223   1.588
 1332SOL    HW1 4008   3.707   1.184   1.575
 1332SOL    HW2 4009   3.624   1.319   1.612
 1333SOL     OW 4010   2.926   1.347   1.340
 1333SOL    HW1 4011   2.846   1.324   1.395
 1333SOL    HW2 4012   3.009   1.321   1.389
 1334SOL     OW 4013   3.454   1.629   1.625
 1334SOL    HW1 4014   3.481   1.663   1.535
 1334SOL    HW2 4015   3.533   1.591   1.671
 1335SOL     OW 4016   2.973   1.195   1.100
 1335SOL    HW1 4017   2.933   1.239   1.181
 1335SOL    HW2 4018   2.932   1.232   1.017
 1336SOL     OW 4019   3.500   1.099   1.079
 1336SOL    HW1 4020   3.505   1.180   1.138
 1336SOL    HW2 4021   3.414   1.101   1.028
 1337SOL     OW 4022   2.777   0.089   1.402
 1337SOL    HW1 4023   2.802   0.069   1.307
 1337SOL    HW2 4024   2.849   0.145   1.444
 1338SOL     OW 4025   2.842   1.116   1.719
 1338SOL    HW1 4026   2.743   1.122   1.729
 1338SOL    HW2 4027   2.865   1.036   1.663
 1339SOL     OW 4028   2.567   1.050   0.368
 1339SOL    HW1 4029   2.553   1.057   0.467
 1339SOL    HW2 4030   2.651   0.999   0.350
 1340SOL     OW 4031   2.272   0.813   1.251
 1340SOL    HW1 4032   2.358   0.825   1.301
 1340SOL    HW2 4033   2.230   0.726   1.278
 1341SOL     OW 4034   3.136   0.386   1.262
 1341SOL    HW1 4035   3.157   0.460   1.326
 1341SOL    HW2 4036   3.047   0.403   1.219
 1342SOL     OW 4037   1.926   1.564   1.331
 1342SOL    HW1 4038   1.880   1.646   1.297
 1342SOL    HW2 4039   2.024   1.583   1.340
 1343SOL     OW 4040   2.229   1.100   0.501
 1343SOL    HW1 4041   2.222   1.183   0.445
 1343SOL    HW2 4042   2.233   1.020   0.441
 1344SOL     OW 4043   2.428   0.537   0.865
 1344SOL    HW1 4044   2.440   0.603   0.791
 1344SOL    HW2 4045   2.474   0.571   0.948
 1345SOL     OW 4046   3.114   1.348   0.388
 1345SOL    HW1 4047   3.164   1.425   0.428
 1345SOL    HW2 4048   3.019   1.350   0.420
 1346SOL     OW 4049   3.134   1.445   1.142
 1346SOL    HW1 4050   3.181   1.458   1.229
 1346SOL    HW2 4051   3.068   1.371   1.151
 1347SOL     OW 4052   3.444   0.639   0.472
 1347SOL    HW1 4053   3.413   0.700   0.545
 1347SOL    HW2 4054   3.494   0.691   0.403
 1348SOL     OW 4055   2.216   1.510   1.329
 1348SOL    HW1 4056   2.195   1.466   1.242
 1348SOL    HW2 4057   2.313   1.536   1.332
 1349SOL     OW 4058   2.264   0.751   1.598
 1349SOL    HW1 4059   2.332   0.806   1.551
 1349SOL    HW2 4060   2.304   0.663   1.625
 1350SOL     OW 4061   3.449   0.779   1.670
 1350SOL    HW1 4062   3.357   0.817   1.665
 1350SOL    HW2 4063   3.509   0.826   1.605
 1351SOL     OW 4064   2.875   0.105   1.770
 1351SOL    HW1 4065   2.881   0.190   1.718
 1351SOL    HW2 4066   2.907   0.029   1.713
 1352SOL     OW 4067   2.366   0.050   1.740
 1352SOL    HW1 4068   2.324  -0.007   1.670
 1352SOL    HW2 4069   2.300   0.119   1.772
 1353SOL     OW 4070   2.435   0.870   1.029
 1353SOL    HW1 4071   2.479   0.959   1.020
 1353SOL    HW2 4072   2.372   0.870   1.106
 1354SOL     OW 4073   3.222   0.862   1.045
 1354SOL    HW1 4074   3.147   0.862   0.979
 1354SOL    HW2 4075   3.259   0.770   1.054
 1355SOL     OW 4076   3.071   0.525   0.275
 1355SOL    HW1 4077   3.084   0.441   0.329
 1355SOL    HW2 4078   3.042   0.599   0.335
 1356SOL     OW 4079   2.169   0.213   1.231
 1356SOL    HW1 4080   2.146   0.250   1.321
 1356SOL    HW2 4081   2.139   0.118   1.225
 1357SOL     OW 4082   1.899   1.310   1.282
 1357SOL    HW1 4083   1.952   1.261   1.350
 1357SOL    HW2 4084   1.921   1.408   1.287
 1358SOL     OW 4085   2.594   0.634   1.064
 1358SOL    HW1 4086   2.653   0.608   0.988
 1358SOL    HW2 4087   2.566   0.730   1.053
 1359SOL     OW 4088   3.590   0.935   1.854
 1359SOL    HW1 4089   3.544   0.928   1.765
 1359SOL    HW2 4090   3.528   0.979   1.920
 1360SOL     OW 4091   2.169   0.063   0.618
 1360SOL    HW1 4092   2.158   0.157   0.651
 1360SOL    HW2 4093   2.164   0.000   0.695
 1361SOL     OW 4094   3.484   0.367   0.374
 1361SOL    HW1 4095   3.486   0.291   0.438
 1361SOL    HW2 4096   3.436   0.444   0.414
 1362SOL     OW 4097   2.885   0.766   0.966
 1362SOL    HW1 4098   2.900   0.787   1.062
 1362SOL    HW2 4099   2.855   0.671   0.957
 1363SOL     OW 4100   2.842   1.573   1.700
 1363SOL    HW1 4101   2.822   1.617   1.612
 1363SOL    HW2 4102   2.881   1.482   1.684
 1364SOL     OW 4103   3.721   1.518   1.605
 1364SOL    HW1 4104   3.735   1.545   1.510
 1364SOL    HW2 4105   3.804   1.540   1.658
 1365SOL     OW 4106   2.212   0.898   1.804
 1365SOL    HW1 4107   2.288   0.942   1.852
 1365SOL    HW2 4108   2.247   0.851   1.722
 1366SOL     OW 4109   3.402   0.274   0.125
 1366SOL    HW1 4110   3.341   0.199   0.148
 1366SOL    HW2 4111   3.424   0.326   0.208
 1367SOL     OW 4112   3.165   0.838   0.042
 1367SOL    HW1 4113   3.199   0.745   0.057
 1367SOL    HW2 4114   3.183   0.865  -0.053
 1368SOL     OW 4115   2.930   1.333   0.849
 1368SOL    HW1 4116   2.937   1.249   0.794
 1368SOL    HW2 4117   2.992   1.402   0.813
 1369SOL     OW 4118   2.181   0.810   0.949
 1369SOL    HW1 4119   2.274   0.846   0.954
 1369SOL    HW2 4120   2.175   0.725   1.001
 1370SOL     OW 4121   2.201   0.509   1.006
 1370SOL    HW1 4122   2.149   0.426   0.989
 1370SOL    HW2 4123   2.278   0.514   0.942
 1371SOL     OW 4124   3.000   0.380   1.678
 1371SOL    HW1 4125   2.955   0.443   1.742
 1371SOL    HW2 4126   3.093   0.411   1.661
 1372SOL     OW 4127   3.022   0.207   1.477
 1372SOL    HW1 4128   3.022   0.271   1.554
 1372SOL    HW2 4129   3.050   0.255   1.394
 1373SOL     OW 4130   1.870   1.326   0.200
 1373SOL    HW1 4131   1.777   1.347   0.169
 1373SOL    HW2 4132   1.880   1.227   0.213
 1374SOL     OW 4133   1.950   1.801   0.927
 1374SOL    HW1 4134   1.908   1.715   0.900
 1374SOL    HW2 4135   2.044   1.804   0.893
 1375SOL     OW 4136   2.366   1.568   0.910
 1375SOL    HW1 4137   2.432   1.642   0.919
 1375SOL    HW2 4138   2.410   1.489   0.868
 1376SOL     OW 4139   2.864   0.796   1.238
 1376SOL    HW1 4140   2.905   0.764   1.324
 1376SOL    HW2 4141   2.768   0.769   1.235
 1377SOL     OW 4142   1.902   0.544   1.114
 1377SOL    HW1 4143   1.987   0.511   1.073
 1377SOL    HW2 4144   1.915   0.559   1.212
 1378SOL     OW 4145   2.051   0.520   1.722
 1378SOL    HW1 4146   2.110   0.480   1.652
 1378SOL    HW2 4147   1.993   0.591   1.681
 1379SOL     OW 4148   3.231   0.950   1.660
 1379SOL    HW1 4149   3.270   1.039   1.680
 1379SOL    HW2 4150   3.241   0.930   1.563
 1380SOL     OW 4151   2.677   0.572   0.325
 1380SOL    HW1 4152   2.684   0.483   0.279
 1380SOL    HW2 4153   2.583   0.606   0.317
 1381SOL     OW 4154   3.519   0.604   1.206
 1381SOL    HW1 4155   3.481   0.535   1.268
 1381SOL    HW2 4156   3.601   0.568   1.162
 1382SOL     OW 4157   2.114   1.564   1.744
 1382SOL    HW1 4158   2.084   1.621   1.820
 1382SOL    HW2 4159   2.107   1.467   1.770
 1383SOL     OW 4160   2.533   0.464   1.269
 1383SOL    HW1 4161   2.499   0.375   1.239
 1383SOL    HW2 4162   2.559   0.518   1.189
 1384SOL     OW 4163   2.792   1.678   1.465
 1384SOL    HW1 4164   2.768   1.660   1.370
 1384SOL    HW2 4165   2.822   1.772   1.475
 1385SOL     OW 4166   2.335   0.500   0.191
 1385SOL    HW1 4167   2.396   0.580   0.195
 1385SOL    HW2 4168   2.240   0.531   0.198
 1386SOL     OW 4169   2.021   1.137   1.466
 1386SOL    HW1 4170   2.043   1.076   1.542
 1386SOL    HW2 4171   2.031   1.088   1.380
 1387SOL     OW 4172   3.209   1.059   1.234
 1387SOL    HW1 4173   3.233   0.996   1.160
 1387SOL    HW2 4174   3.119   1.099   1.216
 1388SOL     OW 4175   3.164   0.855   0.309
 1388SOL    HW1 4176   3.078   0.824   0.351
 1388SOL    HW2 4177   3.160   0.841   0.210
 1389SOL     OW 4178   3.621   1.747   1.154
 1389SOL    HW1 4179   3.682   1.777   1.081
 1389SOL    HW2 4180   3.583   1.658   1.132
 1390SOL     OW 4181   3.114   1.731   1.128
 1390SOL    HW1 4182   3.198   1.736   1.074
 1390SOL    HW2 4183   3.091   1.635   1.146
 1391SOL     OW 4184   1.945   1.258   1.022
 1391SOL    HW1 4185   1.940   1.257   1.122
 1391SOL    HW2 4186   1.862   1.217   0.984
 1392SOL     OW 4187   2.550   1.662   1.716
 1392SOL    HW1 4188   2.494   1.743   1.725
 1392SOL    HW2 4189   2.602   1.666   1.630
 1393SOL     OW 4190   2.765   0.086   0.133
 1393SOL    HW1 4191   2.816   0.087   0.047
 1393SOL    HW2 4192   2.821   0.044   0.204
 1394SOL     OW 4193   3.588   0.135   0.523
 1394SOL    HW1 4194   3.661   0.118   0.456
 1394SOL    HW2 4195   3.557   0.048   0.561
 1395SOL     OW 4196   3.250   1.573   0.477
 1395SOL    HW1 4197   3.317   1.585   0.403
 1395SOL    HW2 4198   3.210   1.662   0.500
 1396SOL     OW 4199   1.992   1.794   1.851
 1396SOL    HW1 4200   1.951   1.720   1.904
 1396SOL    HW2 4201   2.056   1.845   1.909
 1397SOL     OW 4202   3.142   0.927   0.672
 1397SOL    HW1 4203   3.202   0.846   0.674
 1397SOL    HW2 4204   3.182   0.996   0.612
 1398SOL     OW 4205   2.692   1.273   1.422
 1398SOL    HW1 4206   2.687   1.306   1.517
 1398SOL    HW2 4207   2.606   1.292   1.376
 1399SOL     OW 4208   2.534   1.616   0.154
 1399SOL    HW1 4209   2.543   1.626   0.055
 1399SOL    HW2 4210   2.494   1.527   0.175
 1400SOL     OW 4211   3.512   1.720   1.394
 1400SOL    HW1 4212   3.565   1.730   1.310
 1400SOL    HW2 4213   3.485   1.810   1.428
 1401SOL     OW 4214   3.703   0.175   0.963
 1401SOL    HW1 4215   3.742   0.090   0.927
 1401SOL    HW2 4216   3.605   0.177   0.944
 1402SOL     OW 4217   2.125   0.326   0.720
 1402SOL    HW1 4218   2.046   0.377   0.686
 1402SOL    HW2 4219   2.116   0.311   0.818
 1403SOL     OW 4220   3.056   1.612   0.031
 1403SOL    HW1 4221   3.062   1.519   0.068
 1403SOL    HW2 4222   2.997   1.612  -0.049
 1404SOL     OW 4223   2.684   1.002   1.372
 1404SOL    HW1 4224   2.724   1.001   1.280
 1404SOL    HW2 4225   2.694   1.094   1.412
 1405SOL     OW 4226   2.778   0.910   0.291
 1405SOL    HW1 4227   2.841   0.948   0.223
 1405SOL    HW2 4228   2.818   0.827   0.330
 1406SOL     OW 4229   3.366   1.607   0.044
 1406SOL    HW1 4230   3.274   1.644   0.051
 1406SOL    HW2 4231   3.404   1.627  -0.046
 1407SOL     OW 4232   2.234   1.288   1.490
 1407SOL    HW1 4233   2.221   1.381   1.456
 1407SOL    HW2 4234   2.150   1.236   1.477
 1408SOL     OW 4235   3.476   1.292   1.289
 1408SOL    HW1 4236   3.536   1.295   1.369
 1408SOL    HW2 4237   3.401   1.356   1.302
 1409SOL     OW 4238   2.901   1.098   0.696
 1409SOL    HW1 4239   2.831   1.051   0.750
 1409SOL    HW2 4240   2.960   1.030   0.653
 1410SOL     OW 4241   2.876   0.236   0.971
 1410SOL    HW1 4242   2.868   0.200   0.878
 1410SOL    HW2 4243   2.874   0.160   1.036
 1411SOL     OW 4244   2.452   1.487   0.491
 1411SOL    HW1 4245   2.494   1.429   0.421
 1411SOL    HW2 4246   2.408   1.566   0.447
 1412SOL     OW 4247   3.571   0.385   1.381
 1412SOL    HW1 4248   3.644   0.454   1.385
 1412SOL    HW2 4249   3.599   0.310   1.322
 1413SOL     OW 4250   2.117   1.348   0.290
 1413SOL    HW1 4251   2.021   1.349   0.263
 1413SOL    HW2 4252   2.129   1.401   0.374
 1414SOL     OW 4253   1.967   1.013   1.726
 1414SOL    HW1 4254   1.890   0.980   1.780
 1414SOL    HW2 4255   2.052   0.983   1.768
 1415SOL     OW 4256   2.534   0.203   1.489
 1415SOL    HW1 4257   2.624   0.187   1.449
 1415SOL    HW2 4258   2.542   0.208   1.588
 1416SOL     OW 4259   1.937   0.345   0.033
 1416SOL    HW1 4260   1.845   0.317   0.004
 1416SOL    HW2 4261   1.968   0.422  -0.023
 1417SOL     OW 4262   3.302   0.856   1.398
 1417SOL    HW1 4263   3.245   0.908   1.335
 1417SOL    HW2 4264   3.398   0.868   1.374
 1418SOL     OW 4265   3.045   1.335   0.119
 1418SOL    HW1 4266   2.946   1.324   0.121
 1418SOL    HW2 4267   3.079   1.350   0.212
 1419SOL     OW 4268   2.475   0.842   1.431
 1419SOL    HW1 4269   2.531   0.923   1.414
 1419SOL    HW2 4270   2.534   0.762   1.434
 1420SOL     OW 4271   3.355   1.767   0.959
 1420SOL    HW1 4272   3.388   1.831   0.890
 1420SOL    HW2 4273   3.421   1.761   1.034
 1421SOL     OW 4274   2.578   0.565   1.708
 1421SOL    HW1 4275   2.597   0.630   1.782
 1421SOL    HW2 4276   2.638   0.485   1.717
 1422SOL     OW 4277   3.312   1.220   1.633
 1422SOL    HW1 4278   3.303   1.210   1.732
 1422SOL    HW2 4279   3.408   1.213   1.607
 1423SOL     OW 4280   2.252   1.741   1.560
 1423SOL    HW1 4281   2.161   1.782   1.558
 1423SOL    HW2 4282   2.245   1.647   1.592
 1424SOL     OW 4283   3.536   0.883   1.254
 1424SOL    HW1 4284   3.509   0.794   1.217
 1424SOL    HW2 4285   3.537   0.951   1.181
 1425SOL     OW 4286   3.087   0.325   0.449
 1425SOL    HW1 4287   3.152   0.251   0.438
 1425SOL    HW2 4288   3.107   0.375   0.533
 1426SOL     OW 4289   2.456   0.745   0.652
 1426SOL    HW1 4290   2.506   0.830   0.633
 1426SOL    HW2 4291   2.368   0.747   0.604
 1427SOL     OW 4292   3.639   0.342   1.642
 1427SOL    HW1 4293   3.622   0.373   1.548
 1427SOL    HW2 4294   3.555   0.305   1.680
 1428SOL     OW 4295   3.592   0.934   1.517
 1428SOL    HW1 4296   3.630   1.025   1.532
 1428SOL    HW2 4297   3.584   0.917   1.418
 1429SOL     OW 4298   2.721   1.374   0.016
 1429SOL    HW1 4299   2.675   1.389   0.104
 1429SOL    HW2 4300   2.765   1.459  -0.014
 1430SOL     OW 4301   2.523   1.790   0.953
 1430SOL    HW1 4302   2.477   1.878   0.940
 1430SOL    HW2 4303   2.622   1.802   0.946
 1431SOL     OW 4304   2.721   0.956   0.861
 1431SOL    HW1 4305   2.775   0.887   0.909
 1431SOL    HW2 4306   2.689   1.025   0.927
 1432SOL     OW 4307   2.945   0.984   0.087
 1432SOL    HW1 4308   2.922   1.037   0.005
 1432SOL    HW2 4309   3.026   0.928   0.068
 1433SOL     OW 4310   3.723   1.569   0.851
 1433SOL    HW1 4311   3.652   1.557   0.781
 1433SOL    HW2 4312   3.724   1.490   0.911
 1434SOL     OW 4313   2.083   1.314   1.844
 1434SOL    HW1 4314   2.018   1.241   1.823
 1434SOL    HW2 4315   2.087   1.328   1.942
 1435SOL     OW 4316   1.941   1.240   0.653
 1435SOL    HW1 4317   1.940   1.193   0.741
 1435SOL    HW2 4318   2.023   1.212   0.602
 1436SOL     OW 4319   2.534   1.391   1.624
 1436SOL    HW1 4320   2.456   1.341   1.662
 1436SOL    HW2 4321   2.531   1.486   1.655
 1437SOL     OW 4322   3.686   0.192   1.227
 1437SOL    HW1 4323   3.682   0.102   1.271
 1437SOL    HW2 4324   3.689   0.181   1.128
 1438SOL     OW 4325   2.290   0.424   0.520
 1438SOL    HW1 4326   2.320   0.352   0.458
 1438SOL    HW2 4327   2.251   0.384   0.603
 1439SOL     OW 4328   3.567   1.487   1.104
 1439SOL    HW1 4329   3.474   1.462   1.077
 1439SOL    HW2 4330   3.593   1.437   1.186
 1440SOL     OW 4331   2.179   0.547   1.280
 1440SOL    HW1 4332   2.217   0.488   1.352
 1440SOL    HW2 4333   2.219   0.521   1.192
 1441SOL     OW 4334   2.674   1.586   0.687
 1441SOL    HW1 4335   2.706   1.596   0.593
 1441SOL    HW2 4336   2.595   1.524   0.689
 1442SOL     OW 4337   3.286   0.214   1.112
 1442SOL    HW1 4338   3.338   0.149   1.167
 1442SOL    HW2 4339   3.237   0.277   1.173
 1443SOL     OW 4340   2.863   0.034   1.154
 1443SOL    HW1 4341   2.800  -0.038   1.123
 1443SOL    HW2 4342   2.956  -0.002   1.154
 1444SOL     OW 4343   2.632   1.330   0.301
 1444SOL    HW1 4344   2.586   1.243   0.318
 1444SOL    HW2 4345   2.723   1.327   0.342
 1445SOL     OW 4346   2.480   1.567   1.284
 1445SOL    HW1 4347   2.475   1.649   1.341
 1445SOL    HW2 4348   2.569   1.564   1.239
 1446SOL     OW 4349   3.214   0.052   0.168
 1446SOL    HW1 4350   3.249   0.011   0.084
 1446SOL    HW2 4351   3.124   0.014   0.188
 1447SOL     OW 4352   3.162   0.453   0.691
 1447SOL    HW1 4353   3.103   0.533   0.695
 1447SOL    HW2 4354   3.177   0.418   0.784
 1448SOL     OW 4355   3.455   0.221   0.882
 1448SOL    HW1 4356   3.371   0.220   0.936
 1448SOL    HW2 4357   3.457   0.304   0.826
 1449SOL     OW 4358   1.901   1.077   0.300
 1449SOL    HW1 4359   2.000   1.066   0.291
 1449SOL    HW2 4360   1.861   0.991   0.332
 1450SOL     OW 4361   2.737   1.646   0.337
 1450SOL    HW1 4362   2.660   1.611   0.283
 1450SOL    HW2 4363   2.705   1.717   0.399
 1451SOL     OW 4364   2.092   0.628   1.975
 1451SOL    HW1 4365   1.999   0.626   2.012
 1451SOL    HW2 4366   2.093   0.589   1.883
 1452SOL     OW 4367   2.087   0.275   2.858
 1452SOL    HW1 4368   2.122   0.258   2.950
 1452SOL    HW2 4369   1.999   0.230   2.846
 1453SOL     OW 4370   1.881   0.368   2.509
 1453SOL    HW1 4371   1.799   0.411   2.548
 1453SOL    HW2 4372   1.853   0.295   2.446
 1454SOL     OW 4373   2.431   1.275   3.027
 1454SOL    HW1 4374   2.338   1.268   2.990
 1454SOL    HW2 4375   2.442   1.364   3.071
 1455SOL     OW 4376   3.417   1.511   2.565
 1455SOL    HW1 4377   3.360   1.495   2.646
 1455SOL    HW2 4378   3.358   1.521   2.485
 1456SOL     OW 4379   2.997   0.703   2.579
 1456SOL    HW1 4380   3.054   0.781   2.554
 1456SOL    HW2 4381   2.937   0.729   2.655
 1457SOL     OW 4382   3.617   0.607   2.093
 1457SOL    HW1 4383   3.605   0.594   1.994
 1457SOL    HW2 4384   3.587   0.526   2.142
 1458SOL     OW 4385   2.630   1.144   2.885
 1458SOL    HW1 4386   2.552   1.161   2.945
 1458SOL    HW2 4387   2.664   1.231   2.849
 1459SOL     OW 4388   2.712   0.798   3.685
 1459SOL    HW1 4389   2.708   0.874   3.750
 1459SOL    HW2 4390   2.734   0.834   3.594
 1460SOL     OW 4391   2.547   1.012   2.527
 1460SOL    HW1 4392   2.616   0.996   2.597
 1460SOL    HW2 4393   2.474   1.069   2.565
 1461SOL     OW 4394   2.548   1.161   3.665
 1461SOL    HW1 4395   2.608   1.240   3.679
 1461SOL    HW2 4396   2.462   1.192   3.624
 1462SOL     OW 4397   2.197   1.435   2.923
 1462SOL    HW1 4398   2.119   1.404   2.870
 1462SOL    HW2 4399   2.255   1.493   2.866
 1463SOL     OW 4400   3.322   1.505   3.201
 1463SOL    HW1 4401   3.346   1.599   3.227
 1463SOL    HW2 4402   3.306   1.451   3.283
 1464SOL     OW 4403   2.300   0.392   3.361
 1464SOL    HW1 4404   2.382   0.336   3.370
 1464SOL    HW2 4405   2.219   0.334   3.365
 1465SOL     OW 4406   3.465   0.447   2.599
 1465SOL    HW1 4407   3.391   0.493   2.549
 1465SOL    HW2 4408   3.516   0.515   2.652
 1466SOL     OW 4409   2.093   1.713   2.345
 1466SOL    HW1 4410   2.127   1.790   2.399
 1466SOL    HW2 4411   2.137   1.713   2.255
 1467SOL     OW 4412   2.989   1.341   3.552
 1467SOL    HW1 4413   3.036   1.341   3.640
 1467SOL    HW2 4414   2.941   1.254   3.541
 1468SOL     OW 4415   2.092   1.434   2.400
 1468SOL    HW1 4416   2.066   1.530   2.400
 1468SOL    HW2 4417   2.021   1.380   2.445
 1469SOL     OW 4418   2.102   1.091   2.748
 1469SOL    HW1 4419   2.116   1.007   2.800
 1469SOL    HW2 4420   2.047   1.155   2.803
 1470SOL     OW 4421   2.482   1.786   3.301
 1470SOL    HW1 4422   2.390   1.769   3.336
 1470SOL    HW2 4423   2.510   1.878   3.327
 1471SOL     OW 4424   2.468   0.964   1.985
 1471SOL    HW1 4425   2.475   1.048   1.931
 1471SOL    HW2 4426   2.514   0.977   2.073
 1472SOL     OW 4427   3.456   0.114   3.342
 1472SOL    HW1 4428   3.438   0.181   3.270
 1472SOL    HW2 4429   3.453   0.160   3.431
 1473SOL     OW 4430   1.984   0.643   2.425
 1473SOL    HW1 4431   1.939   0.555   2.442
 1473SOL    HW2 4432   1.983   0.697   2.509
 1474SOL     OW 4433   3.704   1.767   2.221
 1474SOL    HW1 4434   3.758   1.738   2.301
 1474SOL    HW2 4435   3.734   1.857   2.192
 1475SOL     OW 4436   1.889   1.596   1.979
 1475SOL    HW1 4437   1.870   1.500   2.000
 1475SOL    HW2 4438   1.856   1.654   2.054
 1476SOL     OW 4439   3.551   0.922   2.474
 1476SOL    HW1 4440   3.646   0.893   2.482
 1476SOL    HW2 4441   3.543   0.987   2.399
 1477SOL     OW 4442   3.503   1.108   2.294
 1477SOL    HW1 4443   3.589   1.110   2.242
 1477SOL    HW2 4444   3.517   1.155   2.382
 1478SOL     OW 4445   1.975   0.737   3.459
 1478SOL    HW1 4446   2.063   0.724   3.504
 1478SOL    HW2 4447   1.962   0.834   3.437
 1479SOL     OW 4448   2.475   1.365   2.588
 1479SOL    HW1 4449   2.426   1.278   2.597
 1479SOL    HW2 4450   2.452   1.408   2.501
 1480SOL     OW 4451   3.155   1.228   3.285
 1480SOL    HW1 4452   3.192   1.155   3.227
 1480SOL    HW2 4453   3.207   1.233   3.370
 1481SOL     OW 4454   2.671   0.004   2.364
 1481SOL    HW1 4455   2.711   0.095   2.355
 1481SOL    HW2 4456   2.571   0.012   2.370
 1482SOL     OW 4457   2.059   0.976   3.126
 1482SOL    HW1 4458   2.148   0.931   3.112
 1482SOL    HW2 4459   1.986   0.911   3.107
 1483SOL     OW 4460   3.387   0.999   2.052
 1483SOL    HW1 4461   3.324   0.923   2.065
 1483SOL    HW2 4462   3.435   1.017   2.138
 1484SOL     OW 4463   3.049   1.792   3.478
 1484SOL    HW1 4464   3.073   1.852   3.402
 1484SOL    HW2 4465   3.056   1.697   3.448
 1485SOL     OW 4466   2.179   0.251   3.663
 1485SOL    HW1 4467   2.250   0.322   3.669
 1485SOL    HW2 4468   2.091   0.290   3.691
 1486SOL     OW 4469   3.328   1.417   2.815
 1486SOL    HW1 4470   3.269   1.423   2.895
 1486SOL    HW2 4471   3.313   1.329   2.769
 1487SOL     OW 4472   3.529   1.714   2.434
 1487SOL    HW1 4473   3.488   1.691   2.346
 1487SOL    HW2 4474   3.511   1.640   2.499
 1488SOL     OW 4475   2.460   0.729   2.132
 1488SOL    HW1 4476   2.484   0.798   2.064
 1488SOL    HW2 4477   2.382   0.762   2.186
 1489SOL     OW 4478   3.143   0.345   2.806
 1489SOL    HW1 4479   3.057   0.295   2.793
 1489SOL    HW2 4480   3.205   0.291   2.862
 1490SOL     OW 4481   3.438   1.662   2.169
 1490SOL    HW1 4482   3.527   1.708   2.172
 1490SOL    HW2 4483   3.417   1.638   2.074
 1491SOL     OW 4484   2.669   0.605   3.327
 1491SOL    HW1 4485   2.622   0.602   3.416
 1491SOL    HW2 4486   2.618   0.550   3.261
 1492SOL     OW 4487   3.256   0.469   3.536
 1492SOL    HW1 4488   3.236   0.512   3.624
 1492SOL    HW2 4489   3.334   0.407   3.545
 1493SOL     OW 4490   2.835   0.890   3.434
 1493SOL    HW1 4491   2.881   0.806   3.405
 1493SOL    HW2 4492   2.779   0.924   3.359
 1494SOL     OW 4493   2.853   0.410   3.104
 1494SOL    HW1 4494   2.776   0.444   3.158
 1494SOL    HW2 4495   2.819   0.359   3.025
 1495SOL     OW 4496   2.903   0.701   2.291
 1495SOL    HW1 4497   2.929   0.697   2.387
 1495SOL    HW2 4498   2.818   0.650   2.277
 1496SOL     OW 4499   1.938   0.811   2.651
 1496SOL    HW1 4500   2.037   0.799   2.660
 1496SOL    HW2 4501   1.914   0.906   2.672
 1497SOL     OW 4502   1.992   1.821   3.433
 1497SOL    HW1 4503   1.982   1.806   3.532
 1497SOL    HW2 4504   1.906   1.857   3.397
 1498SOL     OW 4505   2.727   0.348   2.057
 1498SOL    HW1 4506   2.786   0.411   2.008
 1498SOL    HW2 4507   2.746   0.254   2.028
 1499SOL     OW 4508   3.581   0.585   3.693
 1499SOL    HW1 4509   3.555   0.674   3.657
 1499SOL    HW2 4510   3.579   0.517   3.620
 1500SOL     OW 4511   3.224   1.144   2.407
 1500SOL    HW1 4512   3.307   1.115   2.359
 1500SOL    HW2 4513   3.175   1.211   2.351
 1501SOL     OW 4514   2.412   0.196   2.747
 1501SOL    HW1 4515   2.407   0.191   2.847
 1501SOL    HW2 4516   2.414   0.292   2.718
 1502SOL     OW 4517   2.870   1.456   2.339
 1502SOL    HW1 4518   2.824   1.528   2.287
 1502SOL    HW2 4519   2.866   1.476   2.437
 1503SOL     OW 4520   2.213   1.801   2.715
 1503SOL    HW1 4521   2.263   1.715   2.721
 1503SOL    HW2 4522   2.278   1.878   2.712
 1504SOL     OW 4523   3.657   1.066   2.735
 1504SOL    HW1 4524   3.595   1.051   2.659
 1504SOL    HW2 4525   3.605   1.077   2.820
 1505SOL     OW 4526   3.089   1.550   3.368
 1505SOL    HW1 4527   3.095   1.473   3.432
 1505SOL    HW2 4528   3.037   1.524   3.288
 1506SOL     OW 4529   2.183   0.943   2.104
 1506SOL    HW1 4530   2.265   0.982   2.062
 1506SOL    HW2 4531   2.156   0.861   2.055
 1507SOL     OW 4532   3.320   0.735   2.590
 1507SOL    HW1 4533   3.315   0.670   2.665
 1507SOL    HW2 4534   3.400   0.794   2.603
 1508SOL     OW 4535   2.323   1.266   3.589
 1508SOL    HW1 4536   2.273   1.267   3.503
 1508SOL    HW2 4537   2.260   1.248   3.665
 1509SOL     OW 4538   2.973   1.776   2.099
 1509SOL    HW1 4539   2.913   1.714   2.149
 1509SOL    HW2 4540   3.004   1.732   2.014
 1510SOL     OW 4541   2.064   0.285   3.360
 1510SOL    HW1 4542   1.984   0.345   3.347
 1510SOL    HW2 4543   2.054   0.236   3.446
 1511SOL     OW 4544   3.494   1.377   1.943
 1511SOL    HW1 4545   3.462   1.471   1.933
 1511SOL    HW2 4546   3.418   1.314   1.931
 1512SOL     OW 4547   2.326   1.743   2.185
 1512SOL    HW1 4548   2.359   1.782   2.271
 1512SOL    HW2 4549   2.402   1.736   2.120
 1513SOL     OW 4550   3.262   0.107   2.288
 1513SOL    HW1 4551   3.238   0.070   2.198
 1513SOL    HW2 4552   3.361   0.123   2.292
 1514SOL     OW 4553   2.111   1.785   3.103
 1514SOL    HW1 4554   2.168   1.720   3.153
 1514SOL    HW2 4555   2.095   1.752   3.010
 1515SOL     OW 4556   2.802   1.698   2.766
 1515SOL    HW1 4557   2.882   1.641   2.787
 1515SOL    HW2 4558   2.753   1.658   2.689
 1516SOL     OW 4559   2.244   0.700   2.342
 1516SOL    HW1 4560   2.289   0.610   2.339
 1516SOL    HW2 4561   2.150   0.689   2.375
 1517SOL     OW 4562   3.409   0.222   3.591
 1517SOL    HW1 4563   3.404   0.259   3.683
 1517SOL    HW2 4564   3.337   0.153   3.579
 1518SOL     OW 4565   2.476   0.122   1.979
 1518SOL    HW1 4566   2.574   0.100   1.986
 1518SOL    HW2 4567   2.445   0.105   1.886
 1519SOL     OW 4568   2.643   0.264   3.611
 1519SOL    HW1 4569   2.710   0.203   3.654
 1519SOL    HW2 4570   2.570   0.283   3.676
 1520SOL     OW 4571   2.750   1.514   3.057
 1520SOL    HW1 4572   2.727   1.489   2.963
 1520SOL    HW2 4573   2.811   1.445   3.096
 1521SOL     OW 4574   3.213   0.590   3.295
 1521SOL    HW1 4575   3.241   0.547   3.380
 1521SOL    HW2 4576   3.238   0.686   3.296
 1522SOL     OW 4577   2.665   1.402   2.786
 1522SOL    HW1 4578   2.755   1.416   2.744
 1522SOL    HW2 4579   2.594   1.404   2.715
 1523SOL     OW 4580   2.784   0.503   2.761
 1523SOL    HW1 4581   2.759   0.494   2.665
 1523SOL    HW2 4582   2.832   0.421   2.792
 1524SOL     OW 4583   2.401   0.064   2.374
 1524SOL    HW1 4584   2.320   0.065   2.432
 1524SOL    HW2 4585   2.404   0.147   2.319
 1525SOL     OW 4586   3.296   1.188   1.903
 1525SOL    HW1 4587   3.328   1.112   1.960
 1525SOL    HW2 4588   3.204   1.215   1.933
 1526SOL     OW 4589   2.159   0.035   2.033
 1526SOL    HW1 4590   2.208   0.119   2.012
 1526SOL    HW2 4591   2.221  -0.030   2.078
 1527SOL     OW 4592   2.797   0.236   2.342
 1527SOL    HW1 4593   2.749   0.277   2.264
 1527SOL    HW2 4594   2.896   0.234   2.323
 1528SOL     OW 4595   2.938   0.683   3.326
 1528SOL    HW1 4596   2.858   0.622   3.329
 1528SOL    HW2 4597   3.019   0.630   3.302
 1529SOL     OW 4598   3.089   1.570   2.655
 1529SOL    HW1 4599   3.110   1.644   2.590
 1529SOL    HW2 4600   3.157   1.570   2.728
 1530SOL     OW 4601   2.321   1.152   2.603
 1530SOL    HW1 4602   2.250   1.125   2.668
 1530SOL    HW2 4603   2.295   1.124   2.510
 1531SOL     OW 4604   3.133   1.797   2.453
 1531SOL    HW1 4605   3.177   1.861   2.389
 1531SOL    HW2 4606   3.083   1.849   2.523
 1532SOL     OW 4607   2.894   0.549   1.878
 1532SOL    HW1 4608   2.853   0.631   1.839
 1532SOL    HW2 4609   2.958   0.575   1.951
 1533SOL     OW 4610   1.940   0.556   3.248
 1533SOL    HW1 4611   2.032   0.555   3.207
 1533SOL    HW2 4612   1.934   0.630   3.315
 1534SOL     OW 4613   2.423   0.222   3.009
 1534SOL    HW1 4614   2.461   0.138   3.046
 1534SOL    HW2 4615   2.335   0.241   3.053
 1535SOL     OW 4616   2.728   0.454   2.504
 1535SOL    HW1 4617   2.696   0.526   2.442
 1535SOL    HW2 4618   2.752   0.373   2.451
 1536SOL     OW 4619   2.879   0.039   2.615
 1536SOL    HW1 4620   2.807   0.044   2.546
 1536SOL    HW2 4621   2.855  -0.030   2.684
 1537SOL     OW 4622   3.291   1.173   2.729
 1537SOL    HW1 4623   3.236   1.089   2.722
 1537SOL    HW2 4624   3.317   1.202   2.637
 1538SOL     OW 4625   3.328   0.590   2.854
 1538SOL    HW1 4626   3.298   0.495   2.861
 1538SOL    HW2 4627   3.401   0.606   2.920
 1539SOL     OW 4628   3.719   0.833   2.239
 1539SOL    HW1 4629   3.761   0.769   2.303
 1539SOL    HW2 4630   3.681   0.782   2.161
 1540SOL     OW 4631   2.350   1.385   2.036
 1540SOL    HW1 4632   2.263   1.370   2.083
 1540SOL    HW2 4633   2.333   1.411   1.941
 1541SOL     OW 4634   3.526   1.280   2.519
 1541SOL    HW1 4635   3.625   1.288   2.533
 1541SOL    HW2 4636   3.481   1.364   2.550
 1542SOL     OW 4637   3.252   0.575   1.940
 1542SOL    HW1 4638   3.198   0.554   2.021
 1542SOL    HW2 4639   3.343   0.534   1.949
 1543SOL     OW 4640   2.389   0.256   2.190
 1543SOL    HW1 4641   2.416   0.197   2.115
 1543SOL    HW2 4642   2.389   0.351   2.159
 1544SOL     OW 4643   3.616   1.223   3.450
 1544SOL    HW1 4644   3.707   1.184   3.437
 1544SOL    HW2 4645   3.624   1.319   3.474
 1545SOL     OW 4646   2.926   1.347   3.202
 1545SOL    HW1 4647   2.846   1.324   3.257
 1545SOL    HW2 4648   3.009   1.321   3.251
 1546SOL     OW 4649   3.454   1.629   3.487
 1546SOL    HW1 4650   3.481   1.663   3.397
 1546SOL    HW2 4651   3.533   1.591   3.533
 1547SOL     OW 4652   2.973   1.195   2.962
 1547SOL    HW1 4653   2.933   1.239   3.043
 1547SOL    HW2 4654   2.932   1.232   2.879
 1548SOL     OW 4655   3.500   1.099   2.941
 1548SOL    HW1 4656   3.505   1.180   3.000
 1548SOL    HW2 4657   3.414   1.101   2.890
 1549SOL     OW 4658   2.777   0.089   3.264
 1549SOL    HW1 4659   2.802   0.069   3.169
 1549SOL    HW2 4660   2.849   0.145   3.306
 1550SOL     OW 4661   2.842   1.116   3.581
 1550SOL    HW1 4662   2.743   1.122   3.591
 1550SOL    HW2 4663   2.865   1.036   3.525
 1551SOL     OW 4664   2.567   1.050   2.230
 1551SOL    HW1 4665   2.553   1.057   2.329
 1551SOL    HW2 4666   2.651   0.999   2.212
 1552SOL     OW 4667   2.272   0.813   3.113
 1552SOL    HW1 4668   2.358   0.825   3.163
 1552SOL    HW2 4669   2.230   0.726   3.140
 1553SOL     OW 4670   3.136   0.386   3.124
 1553SOL    HW1 4671   3.157   0.460   3.188
 1553SOL    HW2 4672   3.047   0.403   3.081
 1554SOL     OW 4673   1.926   1.564   3.193
 1554SOL    HW1 4674   1.880   1.646   3.159
 1554SOL    HW2 4675   2.024   1.583   3.202
 1555SOL     OW 4676   2.229   1.100   2.363
 1555SOL    HW1 4677   2.222   1.183   2.307
 1555SOL    HW2 4678   2.233   1.020   2.303
 1556SOL     OW 4679   2.428   0.537   2.727
 1556SOL    HW1 4680   2.440   0.603   2.653
 1556SOL    HW2 4681   2.474   0.571   2.810
 1557SOL     OW 4682   3.114   1.348   2.250
 1557SOL    HW1 4683   3.164   1.425   2.290
 1557SOL    HW2 4684   3.019   1.350   2.282
 1558SOL     OW 4685   3.134   1.445   3.004
 1558SOL    HW1 4686   3.181   1.458   3.091
 1558SOL    HW2 4687   3.068   1.371   3.013
 1559SOL     OW 4688   3.444   0.639   2.334
 1559SOL    HW1 4689   3.413   0.700   2.407
 1559SOL    HW2 4690   3.494   0.691   2.265
 1560SOL     OW 4691   2.216   1.510   3.191
 1560SOL    HW1 4692   2.195   1.466   3.104
 1560SOL    HW2 4693   2.313   1.536   3.194
 1561SOL     OW 4694   2.264   0.751   3.460
 1561SOL    HW1 4695   2.332   0.806   3.413
 1561SOL    HW2 4696   2.304   0.663   3.487
 1562SOL     OW 4697   3.449   0.779   3.532
 1562SOL    HW1 4698   3.357   0.817   3.527
 1562SOL    HW2 4699   3.509   0.826   3.467
 1563SOL     OW 4700   2.875   0.105   3.632
 1563SOL    HW1 4701   2.881   0.190   3.580
 1563SOL    HW2 4702   2.907   0.029   3.575
 1564SOL     OW 4703   2.366   0.050   3.602
 1564SOL    HW1 4704   2.324  -0.007   3.532
 1564SOL    HW2 4705   2.300   0.119   3.634
 1565SOL     OW 4706   2.435   0.870   2.891
 1565SOL    HW1 4707   2.479   0.959   2.882
 1565SOL    HW2 4708   2.372   0.870   2.968
 1566SOL     OW 4709   3.222   0.862   2.907
 1566SOL    HW1 4710   3.147   0.862   2.841
 1566SOL    HW2 4711   3.259   0.770   2.916
 1567SOL     OW 4712   3.071   0.525   2.137
 1567SOL    HW1 4713   3.084   0.441   2.191
 1567SOL    HW2 4714   3.042   0.599   2.197
 1568SOL     OW 4715   2.169   0.213   3.093
 1568SOL    HW1 4716   2.146   0.250   3.183
 1568SOL    HW2 4717   2.139   0.118   3.087
 1569SOL     OW 4718   1.899   1.310   3.144
 1569SOL    HW1 4719   1.952   1.261   3.212
 1569SOL    HW2 4720   1.921   1.408   3.149
 1570SOL     OW 4721   2.594   0.634   2.926
 1570SOL    HW1 4722   2.653   0.608   2.850
 1570SOL    HW2 4723   2.566   0.730   2.915
 1571SOL     OW 4724   3.590   0.935   3.716
 1571SOL    HW1 4725   3.544   0.928   3.627
 1571SOL    HW2 4726   3.528   0.979   3.782
 1572SOL     OW 4727   2.169   0.063   2.480
 1572SOL    HW1 4728   2.158   0.157   2.513
 1572SOL    HW2 4729   2.164   0.000   2.557
 1573SOL     OW 4730   3.484   0.367   2.236
 1573SOL    HW1 4731   3.486   0.291   2.300
 1573SOL    HW2 4732   3.436   0.444   2.276
 1574SOL     OW 4733   2.885   0.766   2.828
 1574SOL    HW1 4734   2.900   0.787   2.924
 1574SOL    HW2 4735   2.855   0.671   2.819
 1575SOL     OW 4736   2.842   1.573   3.562
 1575SOL    HW1 4737   2.822   1.617   3.474
 1575SOL    HW2 4738   2.881   1.482   3.546
 1576SOL     OW 4739   3.721   1.518   3.467
 1576SOL    HW1 4740   3.735   1.545   3.372
 1576SOL    HW2 4741   3.804   1.540   3.520
 1577SOL     OW 4742   2.212   0.898   3.666
 1577SOL    HW1 4743   2.288   0.942   3.714
 1577SOL    HW2 4744   2.247   0.851   3.584
 1578SOL     OW 4745   3.402   0.274   1.987
 1578SOL    HW1 4746   3.341   0.199   2.010
 1578SOL    HW2 4747   3.424   0.326   2.070
 1579SOL     OW 4748   3.165   0.838   1.904
 1579SOL    HW1 4749   3.199   0.745   1.919
 1579SOL    HW2 4750   3.183   0.865   1.809
 1580SOL     OW 4751   2.930   1.333   2.711
 1580SOL    HW1 4752   2.937   1.249   2.656
 1580SOL    HW2 4753   2.992   1.402   2.675
 1581SOL     OW 4754   2.181   0.810   2.811
 1581SOL    HW1 4755   2.274   0.846   2.816
 1581SOL    HW2 4756   2.175   0.725   2.863
 1582SOL     OW 4757   2.201   0.509   2.868
 1582SOL    HW1 4758   2.149   0.426   2.851
 1582SOL    HW2 4759   2.278   0.514   2.804
 1583SOL     OW 4760   3.000   0.380   3.540
 1583SOL    HW1 4761   2.955   0.443   3.604
 1583SOL    HW2 4762   3.093   0.411   3.523
 1584SOL     OW 4763   3.022   0.207   3.339
 1584SOL    HW1 4764   3.022   0.271   3.416
 1584SOL    HW2 4765   3.050   0.255   3.256
 1585SOL     OW 4766   1.870   1.326   2.062
 1585SOL    HW1 4767   1.777   1.347   2.031
 1585SOL    HW2 4768   1.880   1.227   2.075
 1586SOL     OW 4769   1.950   1.801   2.789
 1586SOL    HW1 4770   1.908   1.715   2.762
 1586SOL    HW2 4771   2.044   1.804   2.755
 1587SOL     OW 4772   2.366   1.568   2.772
 1587SOL    HW1 4773   2.432   1.642   2.781
 1587SOL    HW2 4774   2.410   1.489   2.730
 1588SOL     OW 4775   2.864   0.796   3.100
 1588SOL    HW1 4776   2.905   0.764   3.186
 1588SOL    HW2 4777   2.768   0.769   3.097
 1589SOL     OW 4778   1.902   0.544   2.976
 1589SOL    HW1 4779   1.987   0.511   2.935
 1589SOL    HW2 4780   1.915   0.559   3.074
 1590SOL     OW 4781   2.051   0.520   3.584
 1590SOL    HW1 4782   2.110   0.480   3.514
 1590SOL    HW2 4783   1.993   0.591   3.543
 1591SOL     OW 4784   3.231   0.950   3.522
 1591SOL    HW1 4785   3.270   1.039   3.542
 1591SOL    HW2 4786   3.241   0.930   3.425
 1592SOL     OW 4787   2.677   0.572   2.187
 1592SOL    HW1 4788   2.684   0.483   2.141
 1592SOL    HW2 4789   2.583   0.606   2.179
 1593SOL     OW 4790   3.519   0.604   3.068
 1593SOL    HW1 4791   3.481   0.535   3.130
 1593SOL    HW2 4792   3.601   0.568   3.024
 1594SOL     OW 4793   2.114   1.564   3.606
 1594SOL    HW1 4794   2.084   1.621   3.682
 1594SOL    HW2 4795   2.107   1.467   3.632
 1595SOL     OW 4796   2.533   0.464   3.131
 1595SOL    HW1 4797   2.499   0.375   3.101
 1595SOL    HW2 4798   2.559   0.518   3.051
 1596SOL     OW 4799   2.792   1.678   3.327
 1596SOL    HW1 4800   2.768   1.660   3.232
 1596SOL    HW2 4801   2.822   1.772   3.337
 1597SOL     OW 4802   2.335   0.500   2.053
 1597SOL    HW1 4803   2.396   0.580   2.057
 1597SOL    HW2 4804   2.240   0.531   2.060
 1598SOL     OW 4805   2.021   1.137   3.328
 1598SOL    HW1 4806   2.043   1.076   3.404
 1598SOL    HW2 4807   2.031   1.088   3.242
 1599SOL     OW 4808   3.209   1.059   3.096
 1599SOL    HW1 4809   3.233   0.996   3.022
 1599SOL    HW2 4810   3.119   1.099   3.078
 1600SOL     OW 4811   3.164   0.855   2.171
 1600SOL    HW1 4812   3.078   0.824   2.213
 1600SOL    HW2 4813   3.160   0.841   2.072
 1601SOL     OW 4814   3.621   1.747   3.016
 1601SOL    HW1 4815   3.682   1.777   2.943
 1601SOL    HW2 4816   3.583   1.658   2.994
 1602SOL     OW 4817   3.114   1.731   2.990
 1602SOL    HW1 4818   3.198   1.736   2.936
 1602SOL    HW2 4819   3.091   1.635   3.008
 1603SOL     OW 4820   1.945   1.258   2.884
 1603SOL    HW1 4821   1.940   1.257   2.984
 1603SOL    HW2 4822   1.862   1.217   2.846
 1604SOL     OW 4823   2.550   1.662   3.578
 1604SOL    HW1 4824   2.494   1.743   3.587
 1604SOL    HW2 4825   2.602   1.666   3.492
 1605SOL     OW 4826   3.588   0.135   2.385
 1605SOL    HW1 4827   3.661   0.118   2.318
 1605SOL    HW2 4828   3.557   0.048   2.423
 1606SOL     OW 4829   3.250   1.573   2.339
 1606SOL    HW1 4830   3.317   1.585   2.265
 1606SOL    HW2 4831   3.210   1.662   2.362
 1607SOL     OW 4832   1.992   1.794   3.713
 1607SOL    HW1 4833   1.951   1.720   3.766
 1607SOL    HW2 4834   2.056   1.845   3.771
 1608SOL     OW 4835   3.142   0.927   2.534
 1608SOL    HW1 4836   3.202   0.846   2.536
 1608SOL    HW2 4837   3.182   0.996   2.474
 1609SOL     OW 4838   2.692   1.273   3.284
 1609SOL    HW1 4839   2.687   1.306   3.379
 1609SOL    HW2 4840   2.606   1.292   3.238
 1610SOL     OW 4841   2.534   1.616   2.016
 1610SOL    HW1 4842   2.543   1.626   1.917
 1610SOL    HW2 4843   2.494   1.527   2.037
 1611SOL     OW 4844   3.512   1.720   3.256
 1611SOL    HW1 4845   3.565   1.730   3.172
 1611SOL    HW2 4846   3.485   1.810   3.290
 1612SOL     OW 4847   3.703   0.175   2.825
 1612SOL    HW1 4848   3.742   0.090   2.789
 1612SOL    HW2 4849   3.605   0.177   2.806
 1613SOL     OW 4850   2.125   0.326   2.582
 1613SOL    HW1 4851   2.046   0.377   2.548
 1613SOL    HW2 4852   2.116   0.311   2.680
 1614SOL     OW 4853   3.056   1.612   1.893
 1614SOL    HW1 4854   3.062   1.519   1.930
 1614SOL    HW2 4855   2.997   1.612   1.813
 1615SOL     OW 4856   2.684   1.002   3.234
 1615SOL    HW1 4857   2.724   1.001   3.142
 1615SOL    HW2 4858   2.694   1.094   3.274
 1616SOL     OW 4859   2.778   0.910   2.153
 1616SOL    HW1 4860   2.841   0.948   2.085
 1616SOL    HW2 4861   2.818   0.827   2.192
 1617SOL     OW 4862   3.366   1.607   1.906
 1617SOL    HW1 4863   3.274   1.644   1.913
 1617SOL    HW2 4864   3.404   1.627   1.816
 1618SOL     OW 4865   2.234   1.288   3.352
 1618SOL    HW1 4866   2.221   1.381   3.318
 1618SOL    HW2 4867   2.150   1.236   3.339
 1619SOL     OW 4868   3.476   1.292   3.151
 1619SOL    HW1 4869   3.536   1.295   3.231
 1619SOL    HW2 4870   3.401   1.356   3.164
 1620SOL     OW 4871   2.901   1.098   2.558
 1620SOL    HW1 4872   2.831   1.051   2.612
 1620SOL    HW2 4873   2.960   1.030   2.515
 1621SOL     OW 4874   2.876   0.236   2.833
 1621SOL    HW1 4875   2.868   0.200   2.740
 1621SOL    HW2 4876   2.874   0.160   2.898
 1622SOL     OW 4877   2.452   1.487   2.353
 1622SOL    HW1 4878   2.494   1.429   2.283
 1622SOL    HW2 4879   2.408   1.566   2.309
 1623SOL     OW 4880   3.571   0.385   3.243
 1623SOL    HW1 4881   3.644   0.454   3.247
 1623SOL    HW2 4882   3.599   0.310   3.184
 1624SOL     OW 4883   2.117   1.348   2.152
 1624SOL    HW1 4884   2.021   1.349   2.125
 1624SOL    HW2 4885   2.129   1.401   2.236
 1625SOL     OW 4886   1.967   1.013   3.588
 1625SOL    HW1 4887   1.890   0.980   3.642
 1625SOL    HW2 4888   2.052   0.983   3.630
 1626SOL     OW 4889   2.534   0.203   3.351
 1626SOL    HW1 4890   2.624   0.187   3.311
 1626SOL    HW2 4891   2.542   0.208   3.450
 1627SOL     OW 4892   1.937   0.345   1.895
 1627SOL    HW1 4893   1.845   0.317   1.866
 1627SOL    HW2 4894   1.968   0.422   1.839
 1628SOL     OW 4895   3.302   0.856   3.260
 1628SOL    HW1 4896   3.245   0.908   3.197
 1628SOL    HW2 4897   3.398   0.868   3.236
 1629SOL     OW 4898   1.934   0.166   2.180
 1629SOL    HW1 4899   1.917   0.249   2.126
 1629SOL    HW2 4900   2.024   0.129   2.158
 1630SOL     OW 4901   3.045   1.335   1.981
 1630SOL    HW1 4902   2.946   1.324   1.983
 1630SOL    HW2 4903   3.079   1.350   2.074
 1631SOL     OW 4904   2.475   0.842   3.293
 1631SOL    HW1 4905   2.531   0.923   3.276
 1631SOL    HW2 4906   2.534   0.762   3.296
 1632SOL     OW 4907   3.355   1.767   2.821
 1632SOL    HW1 4908   3.388   1.831   2.752
 1632SOL    HW2 4909   3.421   1.761   2.896
 1633SOL     OW 4910   2.578   0.565   3.570
 1633SOL    HW1 4911   2.597   0.630   3.644
 1633SOL    HW2 4912   2.638   0.485   3.579
 1634SOL     OW 4913   3.312   1.220   3.495
 1634SOL    HW1 4914   3.303   1.210   3.594
 1634SOL    HW2 4915   3.408   1.213   3.469
 1635SOL     OW 4916   2.252   1.741   3.422
 1635SOL    HW1 4917   2.161   1.782   3.420
 1635SOL    HW2 4918   2.245   1.647   3.454
 1636SOL     OW 4919   3.536   0.883   3.116
 1636SOL    HW1 4920   3.509   0.794   3.079
 1636SOL    HW2 4921   3.537   0.951   3.043
 1637SOL     OW 4922   3.087   0.325   2.311
 1637SOL    HW1 4923   3.152   0.251   2.300
 1637SOL    HW2 4924   3.107   0.375   2.395
 1638SOL     OW 4925   2.456   0.745   2.514
 1638SOL    HW1 4926   2.506   0.830   2.495
 1638SOL    HW2 4927   2.368   0.747   2.466
 1639SOL     OW 4928   3.639   0.342   3.504
 1639SOL    HW1 4929   3.622   0.373   3.410
 1639SOL    HW2 4930   3.555   0.305   3.542
 1640SOL     OW 4931   3.592   0.934   3.379
 1640SOL    HW1 4932   3.630   1.025   3.394
 1640SOL    HW2 4933   3.584   0.917   3.280
 1641SOL     OW 4934   2.721   1.374   1.878
 1641SOL    HW1 4935   2.675   1.389   1.966
 1641SOL    HW2 4936   2.765   1.459   1.848
 1642SOL     OW 4937   2.523   1.790   2.815
 1642SOL    HW1 4938   2.477   1.878   2.802
 1642SOL    HW2 4939   2.622   1.802   2.808
 1643SOL     OW 4940   2.721   0.956   2.723
 1643SOL    HW1 4941   2.775   0.887   2.771
 1643SOL    HW2 4942   2.689   1.025   2.789
 1644SOL     OW 4943   2.945   0.984   1.949
 1644SOL    HW1 4944   2.922   1.037   1.867
 1644SOL    HW2 4945   3.026   0.928   1.930
 1645SOL     OW 4946   3.723   1.569   2.713
 1645SOL    HW1 4947   3.652   1.557   2.643
 1645SOL    HW2 4948   3.724   1.490   2.773
 1646SOL     OW 4949   2.083   1.314   3.706
 1646SOL    HW1 4950   2.018   1.241   3.685
 1646SOL    HW2 4951   2.087   1.328   3.804
 1647SOL     OW 4952   1.941   1.240   2.515
 1647SOL    HW1 4953   1.940   1.193   2.603
 1647SOL    HW2 4954   2.023   1.212   2.464
 1648SOL     OW 4955   2.534   1.391   3.486
 1648SOL    HW1 4956   2.456   1.341   3.524
 1648SOL    HW2 4957   2.531   1.486   3.517
 1649SOL     OW 4958   3.686   0.192   3.089
 1649SOL    HW1 4959   3.682   0.102   3.133
 1649SOL    HW2 4960   3.689   0.181   2.990
 1650SOL     OW 4961   2.290   0.424   2.382
 1650SOL    HW1 4962   2.320   0.352   2.320
 1650SOL    HW2 4963   2.251   0.384   2.465
 1651SOL     OW 4964   3.567   1.487   2.966
 1651SOL    HW1 4965   3.474   1.462   2.939
 1651SOL    HW2 4966   3.593   1.437   3.048
 1652SOL     OW 4967   2.179   0.547   3.142
 1652SOL    HW1 4968   2.217   0.488   3.214
 1652SOL    HW2 4969   2.219   0.521   3.054
 1653SOL     OW 4970   2.674   1.586   2.549
 1653SOL    HW1 4971   2.706   1.596   2.455
 1653SOL    HW2 4972   2.595   1.524   2.551
 1654SOL     OW 4973   3.286   0.214   2.974
 1654SOL    HW1 4974   3.338   0.149   3.029
 1654SOL    HW2 4975   3.237   0.277   3.035
 1655SOL     OW 4976   2.863   0.034   3.016
 1655SOL    HW1 4977   2.800  -0.038   2.985
 1655SOL    HW2 4978   2.956  -0.002   3.016
 1656SOL     OW 4979   2.632   1.330   2.163
 1656SOL    HW1 4980   2.586   1.243   2.180
 1656SOL    HW2 4981   2.723   1.327   2.204
 1657SOL     OW 4982   2.480   1.567   3.146
 1657SOL    HW1 4983   2.475   1.649   3.203
 1657SOL    HW2 4984   2.569   1.564   3.101
 1658SOL     OW 4985   3.214   0.052   2.030
 1658SOL    HW1 4986   3.249   0.011   1.946
 1658SOL    HW2 4987   3.124   0.014   2.050
 1659SOL     OW 4988   3.162   0.453   2.553
 1659SOL    HW1 4989   3.103   0.533   2.557
 1659SOL    HW2 4990   3.177   0.418   2.646
 1660SOL     OW 4991   3.455   0.221   2.744
 1660SOL    HW1 4992   3.371   0.220   2.798
 1660SOL    HW2 4993   3.457   0.304   2.688
 1661SOL     OW 4994   1.901   1.077   2.162
 1661SOL    HW1 4995   2.000   1.066   2.153
 1661SOL    HW2 4996   1.861   0.991   2.194
 1662SOL     OW 4997   2.737   1.646   2.199
 1662SOL    HW1 4998   2.660   1.611   2.145
 1662SOL    HW2 4999   2.705   1.717   2.261
 1663SOL     OW 5000   2.092   0.628   3.837
 1663SOL    HW1 5001   1.999   0.626   3.874
 1663SOL    HW2 5002   2.093   0.589   3.745
 1664SOL     OW 5003   2.087   0.275   4.720
 1664SOL    HW1 5004   2.122   0.258   4.812
 1664SOL    HW2 5005   1.999   0.230   4.708
 1665SOL     OW 5006   3.617   0.607   3.955
 1665SOL    HW1 5007   3.605   0.594   3.856
 1665SOL    HW2 5008   3.587   0.526   4.004
 1666SOL     OW 5009   2.547   1.012   4.389
 1666SOL    HW1 5010   2.616   0.996   4.459
 1666SOL    HW2 5011   2.474   1.069   4.427
 1667SOL     OW 5012   3.465   0.447   4.461
 1667SOL    HW1 5013   3.391   0.493   4.411
 1667SOL    HW2 5014   3.516   0.515   4.514
 1668SOL     OW 5015   2.093   1.713   4.207
 1668SOL    HW1 5016   2.127   1.790   4.261
 1668SOL    HW2 5017   2.137   1.713   4.117
 1669SOL     OW 5018   2.092   1.434   4.262
 1669SOL    HW1 5019   2.066   1.530   4.262
 1669SOL    HW2 5020   2.021   1.380   4.307
 1670SOL     OW 5021   2.468   0.964   3.847
 1670SOL    HW1 5022   2.475   1.048   3.793
 1670SOL    HW2 5023   2.514   0.977   3.935
 1671SOL     OW 5024   1.984   0.643   4.287
 1671SOL    HW1 5025   1.939   0.555   4.304
 1671SOL    HW2 5026   1.983   0.697   4.371
 1672SOL     OW 5027   3.704   1.767   4.083
 1672SOL    HW1 5028   3.758   1.738   4.163
 1672SOL    HW2 5029   3.734   1.857   4.054
 1673SOL     OW 5030   1.889   1.596   3.841
 1673SOL    HW1 5031   1.870   1.500   3.862
 1673SOL    HW2 5032   1.856   1.654   3.916
 1674SOL     OW 5033   3.551   0.922   4.336
 1674SOL    HW1 5034   3.646   0.893   4.344
 1674SOL    HW2 5035   3.543   0.987   4.261
 1675SOL     OW 5036   3.503   1.108   4.156
 1675SOL    HW1 5037   3.589   1.110   4.104
 1675SOL    HW2 5038   3.517   1.155   4.244
 1676SOL     OW 5039   2.475   1.365   4.450
 1676SOL    HW1 5040   2.426   1.278   4.459
 1676SOL    HW2 5041   2.452   1.408   4.363
 1677SOL     OW 5042   2.671   0.004   4.226
 1677SOL    HW1 5043   2.711   0.095   4.217
 1677SOL    HW2 5044   2.571   0.012   4.232
 1678SOL     OW 5045   3.387   0.999   3.914
 1678SOL    HW1 5046   3.324   0.923   3.927
 1678SOL    HW2 5047   3.435   1.017   4.000
 1679SOL     OW 5048   3.529   1.714   4.296
 1679SOL    HW1 5049   3.488   1.691   4.208
 1679SOL    HW2 5050   3.511   1.640   4.361
 1680SOL     OW 5051   2.460   0.729   3.994
 1680SOL    HW1 5052   2.484   0.798   3.926
 1680SOL    HW2 5053   2.382   0.762   4.048
 1681SOL     OW 5054   3.143   0.345   4.668
 1681SOL    HW1 5055   3.057   0.295   4.655
 1681SOL    HW2 5056   3.205   0.291   4.724
 1682SOL     OW 5057   3.438   1.662   4.031
 1682SOL    HW1 5058   3.527   1.708   4.034
 1682SOL    HW2 5059   3.417   1.638   3.936
 1683SOL     OW 5060   2.903   0.701   4.153
 1683SOL    HW1 5061   2.929   0.697   4.249
 1683SOL    HW2 5062   2.818   0.650   4.139
 1684SOL     OW 5063   1.938   0.811   4.513
 1684SOL    HW1 5064   2.037   0.799   4.522
 1684SOL    HW2 5065   1.914   0.906   4.534
 1685SOL     OW 5066   2.727   0.348   3.919
 1685SOL    HW1 5067   2.786   0.411   3.870
 1685SOL    HW2 5068   2.746   0.254   3.890
 1686SOL     OW 5069   3.224   1.144   4.269
 1686SOL    HW1 5070   3.307   1.115   4.221
 1686SOL    HW2 5071   3.175   1.211   4.213
 1687SOL     OW 5072   2.870   1.456   4.201
 1687SOL    HW1 5073   2.824   1.528   4.149
 1687SOL    HW2 5074   2.866   1.476   4.299
 1688SOL     OW 5075   2.213   1.801   4.577
 1688SOL    HW1 5076   2.263   1.715   4.583
 1688SOL    HW2 5077   2.278   1.878   4.574
 1689SOL     OW 5078   3.657   1.066   4.597
 1689SOL    HW1 5079   3.595   1.051   4.521
 1689SOL    HW2 5080   3.605   1.077   4.682
 1690SOL     OW 5081   2.183   0.943   3.966
 1690SOL    HW1 5082   2.265   0.982   3.924
 1690SOL    HW2 5083   2.156   0.861   3.917
 1691SOL     OW 5084   2.973   1.776   3.961
 1691SOL    HW1 5085   2.913   1.714   4.011
 1691SOL    HW2 5086   3.004   1.732   3.876
 1692SOL     OW 5087   3.494   1.377   3.805
 1692SOL    HW1 5088   3.462   1.471   3.795
 1692SOL    HW2 5089   3.418   1.314   3.793
 1693SOL     OW 5090   2.326   1.743   4.047
 1693SOL    HW1 5091   2.359   1.782   4.133
 1693SOL    HW2 5092   2.402   1.736   3.982
 1694SOL     OW 5093   3.262   0.107   4.150
 1694SOL    HW1 5094   3.238   0.070   4.060
 1694SOL    HW2 5095   3.361   0.123   4.154
 1695SOL     OW 5096   2.802   1.698   4.628
 1695SOL    HW1 5097   2.882   1.641   4.649
 1695SOL    HW2 5098   2.753   1.658   4.551
 1696SOL     OW 5099   2.244   0.700   4.204
 1696SOL    HW1 5100   2.289   0.610   4.201
 1696SOL    HW2 5101   2.150   0.689   4.237
 1697SOL     OW 5102   2.476   0.122   3.841
 1697SOL    HW1 5103   2.574   0.100   3.848
 1697SOL    HW2 5104   2.445   0.105   3.748
 1698SOL     OW 5105   2.401   0.064   4.236
 1698SOL    HW1 5106   2.320   0.065   4.294
 1698SOL    HW2 5107   2.404   0.147   4.181
 1699SOL     OW 5108   3.296   1.188   3.765
 1699SOL    HW1 5109   3.328   1.112   3.822
 1699SOL    HW2 5110   3.204   1.215   3.795
 1700SOL     OW 5111   2.159   0.035   3.895
 1700SOL    HW1 5112   2.208   0.119   3.874
 1700SOL    HW2 5113   2.221  -0.030   3.940
 1701SOL     OW 5114   2.797   0.236   4.204
 1701SOL    HW1 5115   2.749   0.277   4.126
 1701SOL    HW2 5116   2.896   0.234   4.185
 1702SOL     OW 5117   2.321   1.152   4.465
 1702SOL    HW1 5118   2.250   1.125   4.530
 1702SOL    HW2 5119   2.295   1.124   4.372
 1703SOL     OW 5120   3.133   1.797   4.315
 1703SOL    HW1 5121   3.177   1.861   4.251
 1703SOL    HW2 5122   3.083   1.849   4.385
 1704SOL     OW 5123   2.894   0.549   3.740
 1704SOL    HW1 5124   2.853   0.631   3.701
 1704SOL    HW2 5125   2.958   0.575   3.813
 1705SOL     OW 5126   2.728   0.454   4.366
 1705SOL    HW1 5127   2.696   0.526   4.304
 1705SOL    HW2 5128   2.752   0.373   4.313
 1706SOL     OW 5129   3.719   0.833   4.101
 1706SOL    HW1 5130   3.761   0.769   4.165
 1706SOL    HW2 5131   3.681   0.782   4.023
 1707SOL     OW 5132   2.350   1.385   3.898
 1707SOL    HW1 5133   2.263   1.370   3.945
 1707SOL    HW2 5134   2.333   1.411   3.803
 1708SOL     OW 5135   3.526   1.280   4.381
 1708SOL    HW1 5136   3.625   1.288   4.395
 1708SOL    HW2 5137   3.481   1.364   4.412
 1709SOL     OW 5138   3.252   0.575   3.802
 1709SOL    HW1 5139   3.198   0.554   3.883
 1709SOL    HW2 5140   3.343   0.534   3.811
 1710SOL     OW 5141   2.389   0.256   4.052
 1710SOL    HW1 5142   2.416   0.197   3.977
 1710SOL    HW2 5143   2.389   0.351   4.021
 1711SOL     OW 5144   2.973   1.195   4.824
 1711SOL    HW1 5145   2.933   1.239   4.905
 1711SOL    HW2 5146   2.932   1.232   4.741
 1712SOL     OW 5147   2.567   1.050   4.092
 1712SOL    HW1 5148   2.553   1.057   4.191
 1712SOL    HW2 5149   2.651   0.999   4.074
 1713SOL     OW 5150   2.229   1.100   4.225
 1713SOL    HW1 5151   2.222   1.183   4.169
 1713SOL    HW2 5152   2.233   1.020   4.165
 1714SOL     OW 5153   3.114   1.348   4.112
 1714SOL    HW1 5154   3.164   1.425   4.152
 1714SOL    HW2 5155   3.019   1.350   4.144
 1715SOL     OW 5156   3.444   0.639   4.196
 1715SOL    HW1 5157   3.413   0.700   4.269
 1715SOL    HW2 5158   3.494   0.691   4.127
 1716SOL     OW 5159   3.071   0.525   3.999
 1716SOL    HW1 5160   3.084   0.441   4.053
 1716SOL    HW2 5161   3.042   0.599   4.059
 1717SOL     OW 5162   2.169   0.063   4.342
 1717SOL    HW1 5163   2.158   0.157   4.375
 1717SOL    HW2 5164   2.164   0.000   4.419
 1718SOL     OW 5165   3.484   0.367   4.098
 1718SOL    HW1 5166   3.486   0.291   4.162
 1718SOL    HW2 5167   3.436   0.444   4.138
 1719SOL     OW 5168   3.402   0.274   3.849
 1719SOL    HW1 5169   3.341   0.199   3.872
 1719SOL    HW2 5170   3.424   0.326   3.932
 1720SOL     OW 5171   3.165   0.838   3.766
 1720SOL    HW1 5172   3.199   0.745   3.781
 1720SOL    HW2 5173   3.183   0.865   3.671
 1721SOL     OW 5174   1.870   1.326   3.924
 1721SOL    HW1 5175   1.777   1.347   3.893
 1721SOL    HW2 5176   1.880   1.227   3.937
 1722SOL     OW 5177   2.677   0.572   4.049
 1722SOL    HW1 5178   2.684   0.483   4.003
 1722SOL    HW2 5179   2.583   0.606   4.041
 1723SOL     OW 5180   2.335   0.500   3.915
 1723SOL    HW1 5181   2.396   0.580   3.919
 1723SOL    HW2 5182   2.240   0.531   3.922
 1724SOL     OW 5183   3.164   0.855   4.033
 1724SOL    HW1 5184   3.078   0.824   4.075
 1724SOL    HW2 5185   3.160   0.841   3.934
 1725SOL     OW 5186   3.588   0.135   4.247
 1725SOL    HW1 5187   3.661   0.118   4.180
 1725SOL    HW2 5188   3.557   0.048   4.285
 1726SOL     OW 5189   3.250   1.573   4.201
 1726SOL    HW1 5190   3.317   1.585   4.127
 1726SOL    HW2 5191   3.210   1.662   4.224
 1727SOL     OW 5192   2.534   1.616   3.878
 1727SOL    HW1 5193   2.543   1.626   3.779
 1727SOL    HW2 5194   2.494   1.527   3.899
 1728SOL     OW 5195   3.703   0.175   4.687
 1728SOL    HW1 5196   3.742   0.090   4.651
 1728SOL    HW2 5197   3.605   0.177   4.668
 1729SOL     OW 5198   3.056   1.612   3.755
 1729SOL    HW1 5199   3.062   1.519   3.792
 1729SOL    HW2 5200   2.997   1.612   3.675
 1730SOL     OW 5201   2.778   0.910   4.015
 1730SOL    HW1 5202   2.841   0.948   3.947
 1730SOL    HW2 5203   2.818   0.827   4.054
 1731SOL     OW 5204   3.366   1.607   3.768
 1731SOL    HW1 5205   3.274   1.644   3.775
 1731SOL    HW2 5206   3.404   1.627   3.678
 1732SOL     OW 5207   2.452   1.487   4.215
 1732SOL    HW1 5208   2.494   1.429   4.145
 1732SOL    HW2 5209   2.408   1.566   4.171
 1733SOL     OW 5210   2.117   1.348   4.014
 1733SOL    HW1 5211   2.021   1.349   3.987
 1733SOL    HW2 5212   2.129   1.401   4.098
 1734SOL     OW 5213   1.937   0.345   3.757
 1734SOL    HW1 5214   1.845   0.317   3.728
 1734SOL    HW2 5215   1.968   0.422   3.701
 1735SOL     OW 5216   1.934   0.166   4.042
 1735SOL    HW1 5217   1.917   0.249   3.988
 1735SOL    HW2 5218   2.024   0.129   4.020
 1736SOL     OW 5219   3.045   1.335   3.843
 1736SOL    HW1 5220   2.946   1.324   3.845
 1736SOL    HW2 5221   3.079   1.350   3.936
 1737SOL     OW 5222   3.087   0.325   4.173
 1737SOL    HW1 5223   3.152   0.251   4.162
 1737SOL    HW2 5224   3.107   0.375   4.257
 1738SOL     OW 5225   2.456   0.745   4.376
 1738SOL    HW1 5226   2.506   0.830   4.357
 1738SOL    HW2 5227   2.368   0.747   4.328
 1739SOL     OW 5228   2.721   1.374   3.740
 1739SOL    HW1 5229   2.675   1.389   3.828
 1739SOL    HW2 5230   2.765   1.459   3.710
 1740SOL     OW 5231   2.523   1.790   4.677
 1740SOL    HW1 5232   2.477   1.878   4.664
 1740SOL    HW2 5233   2.622   1.802   4.670
 1741SOL     OW 5234   2.945   0.984   3.811
 1741SOL    HW1 5235   2.922   1.037   3.729
 1741SOL    HW2 5236   3.026   0.928   3.792
 1742SOL     OW 5237   1.941   1.240   4.377
 1742SOL    HW1 5238   1.940   1.193   4.465
 1742SOL    HW2 5239   2.023   1.212   4.326
 1743SOL     OW 5240   2.290   0.424   4.244
 1743SOL    HW1 5241   2.320   0.352   4.182
 1743SOL    HW2 5242   2.251   0.384   4.327
 1744SOL     OW 5243   2.674   1.586   4.411
 1744SOL    HW1 5244   2.706   1.596   4.317
 1744SOL    HW2 5245   2.595   1.524   4.413
 1745SOL     OW 5246   2.632   1.330   4.025
 1745SOL    HW1 5247   2.586   1.243   4.042
 1745SOL    HW2 5248   2.723   1.327   4.066
 1746SOL     OW 5249   3.214   0.052   3.892
 1746SOL    HW1 5250   3.249   0.011   3.808
 1746SOL    HW2 5251   3.124   0.014   3.912
 1747SOL     OW 5252   3.162   0.453   4.415
 1747SOL    HW1 5253   3.103   0.533   4.419
 1747SOL    HW2 5254   3.177   0.418   4.508
 1748SOL     OW 5255   1.901   1.077   4.024
 1748SOL    HW1 5256   2.000   1.066   4.015
 1748SOL    HW2 5257   1.861   0.991   4.056
 1749SOL     OW 5258   2.737   1.646   4.061
 1749SOL    HW1 5259   2.660   1.611   4.007
 1749SOL    HW2 5260   2.705   1.717   4.123
 1750SOL     OW 5261   2.092   2.490   0.113
 1750SOL    HW1 5262   1.999   2.488   0.150
 1750SOL    HW2 5263   2.093   2.451   0.021
 1751SOL     OW 5264   2.087   2.137   0.996
 1751SOL    HW1 5265   2.122   2.120   1.088
 1751SOL    HW2 5266   1.999   2.092   0.984
 1752SOL     OW 5267   1.881   2.230   0.647
 1752SOL    HW1 5268   1.799   2.273   0.686
 1752SOL    HW2 5269   1.853   2.157   0.584
 1753SOL     OW 5270   2.431   3.137   1.165
 1753SOL    HW1 5271   2.338   3.130   1.128
 1753SOL    HW2 5272   2.442   3.226   1.209
 1754SOL     OW 5273   3.417   3.373   0.703
 1754SOL    HW1 5274   3.360   3.357   0.784
 1754SOL    HW2 5275   3.358   3.383   0.623
 1755SOL     OW 5276   2.997   2.565   0.717
 1755SOL    HW1 5277   3.054   2.643   0.692
 1755SOL    HW2 5278   2.937   2.591   0.793
 1756SOL     OW 5279   3.617   2.469   0.231
 1756SOL    HW1 5280   3.605   2.456   0.132
 1756SOL    HW2 5281   3.587   2.388   0.280
 1757SOL     OW 5282   2.630   3.006   1.023
 1757SOL    HW1 5283   2.552   3.023   1.083
 1757SOL    HW2 5284   2.664   3.093   0.987
 1758SOL     OW 5285   2.712   2.660   1.823
 1758SOL    HW1 5286   2.708   2.736   1.888
 1758SOL    HW2 5287   2.734   2.696   1.732
 1759SOL     OW 5288   2.547   2.874   0.665
 1759SOL    HW1 5289   2.616   2.858   0.735
 1759SOL    HW2 5290   2.474   2.931   0.703
 1760SOL     OW 5291   2.548   3.023   1.803
 1760SOL    HW1 5292   2.608   3.102   1.817
 1760SOL    HW2 5293   2.462   3.054   1.762
 1761SOL     OW 5294   2.197   3.297   1.061
 1761SOL    HW1 5295   2.119   3.266   1.008
 1761SOL    HW2 5296   2.255   3.355   1.004
 1762SOL     OW 5297   3.322   3.367   1.339
 1762SOL    HW1 5298   3.346   3.461   1.365
 1762SOL    HW2 5299   3.306   3.313   1.421
 1763SOL     OW 5300   2.300   2.254   1.499
 1763SOL    HW1 5301   2.382   2.198   1.508
 1763SOL    HW2 5302   2.219   2.196   1.503
 1764SOL     OW 5303   3.465   2.309   0.737
 1764SOL    HW1 5304   3.391   2.355   0.687
 1764SOL    HW2 5305   3.516   2.377   0.790
 1765SOL     OW 5306   2.093   3.575   0.483
 1765SOL    HW1 5307   2.127   3.652   0.537
 1765SOL    HW2 5308   2.137   3.575   0.393
 1766SOL     OW 5309   2.989   3.203   1.690
 1766SOL    HW1 5310   3.036   3.203   1.778
 1766SOL    HW2 5311   2.941   3.116   1.679
 1767SOL     OW 5312   2.092   3.296   0.538
 1767SOL    HW1 5313   2.066   3.392   0.538
 1767SOL    HW2 5314   2.021   3.242   0.583
 1768SOL     OW 5315   2.102   2.953   0.886
 1768SOL    HW1 5316   2.116   2.869   0.938
 1768SOL    HW2 5317   2.047   3.017   0.941
 1769SOL     OW 5318   2.482   3.648   1.439
 1769SOL    HW1 5319   2.390   3.631   1.474
 1769SOL    HW2 5320   2.510   3.740   1.465
 1770SOL     OW 5321   2.468   2.826   0.123
 1770SOL    HW1 5322   2.475   2.910   0.069
 1770SOL    HW2 5323   2.514   2.839   0.211
 1771SOL     OW 5324   3.456   1.976   1.480
 1771SOL    HW1 5325   3.438   2.043   1.408
 1771SOL    HW2 5326   3.453   2.022   1.569
 1772SOL     OW 5327   1.984   2.505   0.563
 1772SOL    HW1 5328   1.939   2.417   0.580
 1772SOL    HW2 5329   1.983   2.559   0.647
 1773SOL     OW 5330   3.704   3.629   0.359
 1773SOL    HW1 5331   3.758   3.600   0.439
 1773SOL    HW2 5332   3.734   3.719   0.330
 1774SOL     OW 5333   1.889   3.458   0.117
 1774SOL    HW1 5334   1.870   3.362   0.138
 1774SOL    HW2 5335   1.856   3.516   0.192
 1775SOL     OW 5336   3.551   2.784   0.612
 1775SOL    HW1 5337   3.646   2.755   0.620
 1775SOL    HW2 5338   3.543   2.849   0.537
 1776SOL     OW 5339   3.503   2.970   0.432
 1776SOL    HW1 5340   3.589   2.972   0.380
 1776SOL    HW2 5341   3.517   3.017   0.520
 1777SOL     OW 5342   1.975   2.599   1.597
 1777SOL    HW1 5343   2.063   2.586   1.642
 1777SOL    HW2 5344   1.962   2.696   1.575
 1778SOL     OW 5345   2.475   3.227   0.726
 1778SOL    HW1 5346   2.426   3.140   0.735
 1778SOL    HW2 5347   2.452   3.270   0.639
 1779SOL     OW 5348   3.155   3.090   1.423
 1779SOL    HW1 5349   3.192   3.017   1.365
 1779SOL    HW2 5350   3.207   3.095   1.508
 1780SOL     OW 5351   2.671   1.866   0.502
 1780SOL    HW1 5352   2.711   1.957   0.493
 1780SOL    HW2 5353   2.571   1.874   0.508
 1781SOL     OW 5354   2.059   2.838   1.264
 1781SOL    HW1 5355   2.148   2.793   1.250
 1781SOL    HW2 5356   1.986   2.773   1.245
 1782SOL     OW 5357   3.387   2.861   0.190
 1782SOL    HW1 5358   3.324   2.785   0.203
 1782SOL    HW2 5359   3.435   2.879   0.276
 1783SOL     OW 5360   3.049   3.654   1.616
 1783SOL    HW1 5361   3.073   3.714   1.540
 1783SOL    HW2 5362   3.056   3.559   1.586
 1784SOL     OW 5363   2.179   2.113   1.801
 1784SOL    HW1 5364   2.250   2.184   1.807
 1784SOL    HW2 5365   2.091   2.152   1.829
 1785SOL     OW 5366   3.328   3.279   0.953
 1785SOL    HW1 5367   3.269   3.285   1.033
 1785SOL    HW2 5368   3.313   3.191   0.907
 1786SOL     OW 5369   3.529   3.576   0.572
 1786SOL    HW1 5370   3.488   3.553   0.484
 1786SOL    HW2 5371   3.511   3.502   0.637
 1787SOL     OW 5372   2.460   2.591   0.270
 1787SOL    HW1 5373   2.484   2.660   0.202
 1787SOL    HW2 5374   2.382   2.624   0.324
 1788SOL     OW 5375   3.143   2.207   0.944
 1788SOL    HW1 5376   3.057   2.157   0.931
 1788SOL    HW2 5377   3.205   2.153   1.000
 1789SOL     OW 5378   3.438   3.524   0.307
 1789SOL    HW1 5379   3.527   3.570   0.310
 1789SOL    HW2 5380   3.417   3.500   0.212
 1790SOL     OW 5381   2.669   2.467   1.465
 1790SOL    HW1 5382   2.622   2.464   1.554
 1790SOL    HW2 5383   2.618   2.412   1.399
 1791SOL     OW 5384   3.256   2.331   1.674
 1791SOL    HW1 5385   3.236   2.374   1.762
 1791SOL    HW2 5386   3.334   2.269   1.683
 1792SOL     OW 5387   2.835   2.752   1.572
 1792SOL    HW1 5388   2.881   2.668   1.543
 1792SOL    HW2 5389   2.779   2.786   1.497
 1793SOL     OW 5390   2.853   2.272   1.242
 1793SOL    HW1 5391   2.776   2.306   1.296
 1793SOL    HW2 5392   2.819   2.221   1.163
 1794SOL     OW 5393   2.903   2.563   0.429
 1794SOL    HW1 5394   2.929   2.559   0.525
 1794SOL    HW2 5395   2.818   2.512   0.415
 1795SOL     OW 5396   1.938   2.673   0.789
 1795SOL    HW1 5397   2.037   2.661   0.798
 1795SOL    HW2 5398   1.914   2.768   0.810
 1796SOL     OW 5399   1.992   3.683   1.571
 1796SOL    HW1 5400   1.982   3.668   1.670
 1796SOL    HW2 5401   1.906   3.719   1.535
 1797SOL     OW 5402   2.727   2.210   0.195
 1797SOL    HW1 5403   2.786   2.273   0.146
 1797SOL    HW2 5404   2.746   2.116   0.166
 1798SOL     OW 5405   3.581   2.447   1.831
 1798SOL    HW1 5406   3.555   2.536   1.795
 1798SOL    HW2 5407   3.579   2.379   1.758
 1799SOL     OW 5408   3.224   3.006   0.545
 1799SOL    HW1 5409   3.307   2.977   0.497
 1799SOL    HW2 5410   3.175   3.073   0.489
 1800SOL     OW 5411   2.412   2.058   0.885
 1800SOL    HW1 5412   2.407   2.053   0.985
 1800SOL    HW2 5413   2.414   2.154   0.856
 1801SOL     OW 5414   2.870   3.318   0.477
 1801SOL    HW1 5415   2.824   3.390   0.425
 1801SOL    HW2 5416   2.866   3.338   0.575
 1802SOL     OW 5417   2.213   3.663   0.853
 1802SOL    HW1 5418   2.263   3.577   0.859
 1802SOL    HW2 5419   2.278   3.740   0.850
 1803SOL     OW 5420   3.657   2.928   0.873
 1803SOL    HW1 5421   3.595   2.913   0.797
 1803SOL    HW2 5422   3.605   2.939   0.958
 1804SOL     OW 5423   3.089   3.412   1.506
 1804SOL    HW1 5424   3.095   3.335   1.570
 1804SOL    HW2 5425   3.037   3.386   1.426
 1805SOL     OW 5426   2.183   2.805   0.242
 1805SOL    HW1 5427   2.265   2.844   0.200
 1805SOL    HW2 5428   2.156   2.723   0.193
 1806SOL     OW 5429   3.320   2.597   0.728
 1806SOL    HW1 5430   3.315   2.532   0.803
 1806SOL    HW2 5431   3.400   2.656   0.741
 1807SOL     OW 5432   2.323   3.128   1.727
 1807SOL    HW1 5433   2.273   3.129   1.641
 1807SOL    HW2 5434   2.260   3.110   1.803
 1808SOL     OW 5435   2.973   3.638   0.237
 1808SOL    HW1 5436   2.913   3.576   0.287
 1808SOL    HW2 5437   3.004   3.594   0.152
 1809SOL     OW 5438   2.064   2.147   1.498
 1809SOL    HW1 5439   1.984   2.207   1.485
 1809SOL    HW2 5440   2.054   2.098   1.584
 1810SOL     OW 5441   3.494   3.239   0.081
 1810SOL    HW1 5442   3.462   3.333   0.071
 1810SOL    HW2 5443   3.418   3.176   0.069
 1811SOL     OW 5444   2.326   3.605   0.323
 1811SOL    HW1 5445   2.359   3.644   0.409
 1811SOL    HW2 5446   2.402   3.598   0.258
 1812SOL     OW 5447   3.262   1.969   0.426
 1812SOL    HW1 5448   3.238   1.932   0.336
 1812SOL    HW2 5449   3.361   1.985   0.430
 1813SOL     OW 5450   2.111   3.647   1.241
 1813SOL    HW1 5451   2.168   3.582   1.291
 1813SOL    HW2 5452   2.095   3.614   1.148
 1814SOL     OW 5453   2.802   3.560   0.904
 1814SOL    HW1 5454   2.882   3.503   0.925
 1814SOL    HW2 5455   2.753   3.520   0.827
 1815SOL     OW 5456   2.244   2.562   0.480
 1815SOL    HW1 5457   2.289   2.472   0.477
 1815SOL    HW2 5458   2.150   2.551   0.513
 1816SOL     OW 5459   3.409   2.084   1.729
 1816SOL    HW1 5460   3.404   2.121   1.821
 1816SOL    HW2 5461   3.337   2.015   1.717
 1817SOL     OW 5462   2.643   2.126   1.749
 1817SOL    HW1 5463   2.710   2.065   1.792
 1817SOL    HW2 5464   2.570   2.145   1.814
 1818SOL     OW 5465   2.750   3.376   1.195
 1818SOL    HW1 5466   2.727   3.351   1.101
 1818SOL    HW2 5467   2.811   3.307   1.234
 1819SOL     OW 5468   3.213   2.452   1.433
 1819SOL    HW1 5469   3.241   2.409   1.518
 1819SOL    HW2 5470   3.238   2.548   1.434
 1820SOL     OW 5471   2.665   3.264   0.924
 1820SOL    HW1 5472   2.755   3.278   0.882
 1820SOL    HW2 5473   2.594   3.266   0.853
 1821SOL     OW 5474   2.784   2.365   0.899
 1821SOL    HW1 5475   2.759   2.356   0.803
 1821SOL    HW2 5476   2.832   2.283   0.930
 1822SOL     OW 5477   2.401   1.926   0.512
 1822SOL    HW1 5478   2.320   1.927   0.570
 1822SOL    HW2 5479   2.404   2.009   0.457
 1823SOL     OW 5480   3.296   3.050   0.041
 1823SOL    HW1 5481   3.328   2.974   0.098
 1823SOL    HW2 5482   3.204   3.077   0.071
 1824SOL     OW 5483   2.797   2.098   0.480
 1824SOL    HW1 5484   2.749   2.139   0.402
 1824SOL    HW2 5485   2.896   2.096   0.461
 1825SOL     OW 5486   2.938   2.545   1.464
 1825SOL    HW1 5487   2.858   2.484   1.467
 1825SOL    HW2 5488   3.019   2.492   1.440
 1826SOL     OW 5489   3.089   3.432   0.793
 1826SOL    HW1 5490   3.110   3.506   0.728
 1826SOL    HW2 5491   3.157   3.432   0.866
 1827SOL     OW 5492   2.321   3.014   0.741
 1827SOL    HW1 5493   2.250   2.987   0.806
 1827SOL    HW2 5494   2.295   2.986   0.648
 1828SOL     OW 5495   3.133   3.659   0.591
 1828SOL    HW1 5496   3.177   3.723   0.527
 1828SOL    HW2 5497   3.083   3.711   0.661
 1829SOL     OW 5498   2.894   2.411   0.016
 1829SOL    HW1 5499   2.853   2.493  -0.023
 1829SOL    HW2 5500   2.958   2.437   0.089
 1830SOL     OW 5501   1.940   2.418   1.386
 1830SOL    HW1 5502   2.032   2.417   1.345
 1830SOL    HW2 5503   1.934   2.492   1.453
 1831SOL     OW 5504   2.423   2.084   1.147
 1831SOL    HW1 5505   2.461   2.000   1.184
 1831SOL    HW2 5506   2.335   2.103   1.191
 1832SOL     OW 5507   2.728   2.316   0.642
 1832SOL    HW1 5508   2.696   2.388   0.580
 1832SOL    HW2 5509   2.752   2.235   0.589
 1833SOL     OW 5510   2.879   1.901   0.753
 1833SOL    HW1 5511   2.807   1.906   0.684
 1833SOL    HW2 5512   2.855   1.832   0.822
 1834SOL     OW 5513   3.291   3.035   0.867
 1834SOL    HW1 5514   3.236   2.951   0.860
 1834SOL    HW2 5515   3.317   3.064   0.775
 1835SOL     OW 5516   3.328   2.452   0.992
 1835SOL    HW1 5517   3.298   2.357   0.999
 1835SOL    HW2 5518   3.401   2.468   1.058
 1836SOL     OW 5519   3.719   2.695   0.377
 1836SOL    HW1 5520   3.761   2.631   0.441
 1836SOL    HW2 5521   3.681   2.644   0.299
 1837SOL     OW 5522   2.350   3.247   0.174
 1837SOL    HW1 5523   2.263   3.232   0.221
 1837SOL    HW2 5524   2.333   3.273   0.079
 1838SOL     OW 5525   3.526   3.142   0.657
 1838SOL    HW1 5526   3.625   3.150   0.671
 1838SOL    HW2 5527   3.481   3.226   0.688
 1839SOL     OW 5528   3.252   2.437   0.078
 1839SOL    HW1 5529   3.198   2.416   0.159
 1839SOL    HW2 5530   3.343   2.396   0.087
 1840SOL     OW 5531   2.389   2.118   0.328
 1840SOL    HW1 5532   2.416   2.059   0.253
 1840SOL    HW2 5533   2.389   2.213   0.297
 1841SOL     OW 5534   3.616   3.085   1.588
 1841SOL    HW1 5535   3.707   3.046   1.575
 1841SOL    HW2 5536   3.624   3.181   1.612
 1842SOL     OW 5537   2.926   3.209   1.340
 1842SOL    HW1 5538   2.846   3.186   1.395
 1842SOL    HW2 5539   3.009   3.183   1.389
 1843SOL     OW 5540   3.454   3.491   1.625
 1843SOL    HW1 5541   3.481   3.525   1.535
 1843SOL    HW2 5542   3.533   3.453   1.671
 1844SOL     OW 5543   2.973   3.057   1.100
 1844SOL    HW1 5544   2.933   3.101   1.181
 1844SOL    HW2 5545   2.932   3.094   1.017
 1845SOL     OW 5546   3.500   2.961   1.079
 1845SOL    HW1 5547   3.505   3.042   1.138
 1845SOL    HW2 5548   3.414   2.963   1.028
 1846SOL     OW 5549   2.777   1.951   1.402
 1846SOL    HW1 5550   2.802   1.931   1.307
 1846SOL    HW2 5551   2.849   2.007   1.444
 1847SOL     OW 5552   2.842   2.978   1.719
 1847SOL    HW1 5553   2.743   2.984   1.729
 1847SOL    HW2 5554   2.865   2.898   1.663
 1848SOL     OW 5555   2.567   2.912   0.368
 1848SOL    HW1 5556   2.553   2.919   0.467
 1848SOL    HW2 5557   2.651   2.861   0.350
 1849SOL     OW 5558   2.272   2.675   1.251
 1849SOL    HW1 5559   2.358   2.687   1.301
 1849SOL    HW2 5560   2.230   2.588   1.278
 1850SOL     OW 5561   3.136   2.248   1.262
 1850SOL    HW1 5562   3.157   2.322   1.326
 1850SOL    HW2 5563   3.047   2.265   1.219
 1851SOL     OW 5564   1.926   3.426   1.331
 1851SOL    HW1 5565   1.880   3.508   1.297
 1851SOL    HW2 5566   2.024   3.445   1.340
 1852SOL     OW 5567   2.229   2.962   0.501
 1852SOL    HW1 5568   2.222   3.045   0.445
 1852SOL    HW2 5569   2.233   2.882   0.441
 1853SOL     OW 5570   2.428   2.399   0.865
 1853SOL    HW1 5571   2.440   2.465   0.791
 1853SOL    HW2 5572   2.474   2.433   0.948
 1854SOL     OW 5573   3.114   3.210   0.388
 1854SOL    HW1 5574   3.164   3.287   0.428
 1854SOL    HW2 5575   3.019   3.212   0.420
 1855SOL     OW 5576   3.134   3.307   1.142
 1855SOL    HW1 5577   3.181   3.320   1.229
 1855SOL    HW2 5578   3.068   3.233   1.151
 1856SOL     OW 5579   3.444   2.501   0.472
 1856SOL    HW1 5580   3.413   2.562   0.545
 1856SOL    HW2 5581   3.494   2.553   0.403
 1857SOL     OW 5582   2.216   3.372   1.329
 1857SOL    HW1 5583   2.195   3.328   1.242
 1857SOL    HW2 5584   2.313   3.398   1.332
 1858SOL     OW 5585   2.264   2.613   1.598
 1858SOL    HW1 5586   2.332   2.668   1.551
 1858SOL    HW2 5587   2.304   2.525   1.625
 1859SOL     OW 5588   3.449   2.641   1.670
 1859SOL    HW1 5589   3.357   2.679   1.665
 1859SOL    HW2 5590   3.509   2.688   1.605
 1860SOL     OW 5591   2.875   1.967   1.770
 1860SOL    HW1 5592   2.881   2.052   1.718
 1860SOL    HW2 5593   2.907   1.891   1.713
 1861SOL     OW 5594   2.366   1.912   1.740
 1861SOL    HW1 5595   2.324   1.855   1.670
 1861SOL    HW2 5596   2.300   1.981   1.772
 1862SOL     OW 5597   2.435   2.732   1.029
 1862SOL    HW1 5598   2.479   2.821   1.020
 1862SOL    HW2 5599   2.372   2.732   1.106
 1863SOL     OW 5600   3.222   2.724   1.045
 1863SOL    HW1 5601   3.147   2.724   0.979
 1863SOL    HW2 5602   3.259   2.632   1.054
 1864SOL     OW 5603   3.071   2.387   0.275
 1864SOL    HW1 5604   3.084   2.303   0.329
 1864SOL    HW2 5605   3.042   2.461   0.335
 1865SOL     OW 5606   2.169   2.075   1.231
 1865SOL    HW1 5607   2.146   2.112   1.321
 1865SOL    HW2 5608   2.139   1.980   1.225
 1866SOL     OW 5609   1.899   3.172   1.282
 1866SOL    HW1 5610   1.952   3.123   1.350
 1866SOL    HW2 5611   1.921   3.270   1.287
 1867SOL     OW 5612   2.594   2.496   1.064
 1867SOL    HW1 5613   2.653   2.470   0.988
 1867SOL    HW2 5614   2.566   2.592   1.053
 1868SOL     OW 5615   3.590   2.797   1.854
 1868SOL    HW1 5616   3.544   2.790   1.765
 1868SOL    HW2 5617   3.528   2.841   1.920
 1869SOL     OW 5618   2.169   1.925   0.618
 1869SOL    HW1 5619   2.158   2.019   0.651
 1869SOL    HW2 5620   2.164   1.862   0.695
 1870SOL     OW 5621   3.484   2.229   0.374
 1870SOL    HW1 5622   3.486   2.153   0.438
 1870SOL    HW2 5623   3.436   2.306   0.414
 1871SOL     OW 5624   2.885   2.628   0.966
 1871SOL    HW1 5625   2.900   2.649   1.062
 1871SOL    HW2 5626   2.855   2.533   0.957
 1872SOL     OW 5627   2.842   3.435   1.700
 1872SOL    HW1 5628   2.822   3.479   1.612
 1872SOL    HW2 5629   2.881   3.344   1.684
 1873SOL     OW 5630   3.721   3.380   1.605
 1873SOL    HW1 5631   3.735   3.407   1.510
 1873SOL    HW2 5632   3.804   3.402   1.658
 1874SOL     OW 5633   2.212   2.760   1.804
 1874SOL    HW1 5634   2.288   2.804   1.852
 1874SOL    HW2 5635   2.247   2.713   1.722
 1875SOL     OW 5636   3.402   2.136   0.125
 1875SOL    HW1 5637   3.341   2.061   0.148
 1875SOL    HW2 5638   3.424   2.188   0.208
 1876SOL     OW 5639   3.165   2.700   0.042
 1876SOL    HW1 5640   3.199   2.607   0.057
 1876SOL    HW2 5641   3.183   2.727  -0.053
 1877SOL     OW 5642   2.930   3.195   0.849
 1877SOL    HW1 5643   2.937   3.111   0.794
 1877SOL    HW2 5644   2.992   3.264   0.813
 1878SOL     OW 5645   2.181   2.672   0.949
 1878SOL    HW1 5646   2.274   2.708   0.954
 1878SOL    HW2 5647   2.175   2.587   1.001
 1879SOL     OW 5648   2.201   2.371   1.006
 1879SOL    HW1 5649   2.149   2.288   0.989
 1879SOL    HW2 5650   2.278   2.376   0.942
 1880SOL     OW 5651   3.000   2.242   1.678
 1880SOL    HW1 5652   2.955   2.305   1.742
 1880SOL    HW2 5653   3.093   2.273   1.661
 1881SOL     OW 5654   3.022   2.069   1.477
 1881SOL    HW1 5655   3.022   2.133   1.554
 1881SOL    HW2 5656   3.050   2.117   1.394
 1882SOL     OW 5657   1.870   3.188   0.200
 1882SOL    HW1 5658   1.777   3.209   0.169
 1882SOL    HW2 5659   1.880   3.089   0.213
 1883SOL     OW 5660   1.950   3.663   0.927
 1883SOL    HW1 5661   1.908   3.577   0.900
 1883SOL    HW2 5662   2.044   3.666   0.893
 1884SOL     OW 5663   2.366   3.430   0.910
 1884SOL    HW1 5664   2.432   3.504   0.919
 1884SOL    HW2 5665   2.410   3.351   0.868
 1885SOL     OW 5666   2.864   2.658   1.238
 1885SOL    HW1 5667   2.905   2.626   1.324
 1885SOL    HW2 5668   2.768   2.631   1.235
 1886SOL     OW 5669   1.902   2.406   1.114
 1886SOL    HW1 5670   1.987   2.373   1.073
 1886SOL    HW2 5671   1.915   2.421   1.212
 1887SOL     OW 5672   2.051   2.382   1.722
 1887SOL    HW1 5673   2.110   2.342   1.652
 1887SOL    HW2 5674   1.993   2.453   1.681
 1888SOL     OW 5675   3.231   2.812   1.660
 1888SOL    HW1 5676   3.270   2.901   1.680
 1888SOL    HW2 5677   3.241   2.792   1.563
 1889SOL     OW 5678   2.677   2.434   0.325
 1889SOL    HW1 5679   2.684   2.345   0.279
 1889SOL    HW2 5680   2.583   2.468   0.317
 1890SOL     OW 5681   3.519   2.466   1.206
 1890SOL    HW1 5682   3.481   2.397   1.268
 1890SOL    HW2 5683   3.601   2.430   1.162
 1891SOL     OW 5684   2.114   3.426   1.744
 1891SOL    HW1 5685   2.084   3.483   1.820
 1891SOL    HW2 5686   2.107   3.329   1.770
 1892SOL     OW 5687   2.533   2.326   1.269
 1892SOL    HW1 5688   2.499   2.237   1.239
 1892SOL    HW2 5689   2.559   2.380   1.189
 1893SOL     OW 5690   2.792   3.540   1.465
 1893SOL    HW1 5691   2.768   3.522   1.370
 1893SOL    HW2 5692   2.822   3.634   1.475
 1894SOL     OW 5693   2.335   2.362   0.191
 1894SOL    HW1 5694   2.396   2.442   0.195
 1894SOL    HW2 5695   2.240   2.393   0.198
 1895SOL     OW 5696   2.021   2.999   1.466
 1895SOL    HW1 5697   2.043   2.938   1.542
 1895SOL    HW2 5698   2.031   2.950   1.380
 1896SOL     OW 5699   3.209   2.921   1.234
 1896SOL    HW1 5700   3.233   2.858   1.160
 1896SOL    HW2 5701   3.119   2.961   1.216
 1897SOL     OW 5702   3.164   2.717   0.309
 1897SOL    HW1 5703   3.078   2.686   0.351
 1897SOL    HW2 5704   3.160   2.703   0.210
 1898SOL     OW 5705   3.621   3.609   1.154
 1898SOL    HW1 5706   3.682   3.639   1.081
 1898SOL    HW2 5707   3.583   3.520   1.132
 1899SOL     OW 5708   3.114   3.593   1.128
 1899SOL    HW1 5709   3.198   3.598   1.074
 1899SOL    HW2 5710   3.091   3.497   1.146
 1900SOL     OW 5711   1.945   3.120   1.022
 1900SOL    HW1 5712   1.940   3.119   1.122
 1900SOL    HW2 5713   1.862   3.079   0.984
 1901SOL     OW 5714   2.550   3.524   1.716
 1901SOL    HW1 5715   2.494   3.605   1.725
 1901SOL    HW2 5716   2.602   3.528   1.630
 1902SOL     OW 5717   2.765   1.948   0.133
 1902SOL    HW1 5718   2.816   1.949   0.047
 1902SOL    HW2 5719   2.821   1.906   0.204
 1903SOL     OW 5720   3.588   1.997   0.523
 1903SOL    HW1 5721   3.661   1.980   0.456
 1903SOL    HW2 5722   3.557   1.910   0.561
 1904SOL     OW 5723   3.250   3.435   0.477
 1904SOL    HW1 5724   3.317   3.447   0.403
 1904SOL    HW2 5725   3.210   3.524   0.500
 1905SOL     OW 5726   1.992   3.656   1.851
 1905SOL    HW1 5727   1.951   3.582   1.904
 1905SOL    HW2 5728   2.056   3.707   1.909
 1906SOL     OW 5729   3.142   2.789   0.672
 1906SOL    HW1 5730   3.202   2.708   0.674
 1906SOL    HW2 5731   3.182   2.858   0.612
 1907SOL     OW 5732   2.692   3.135   1.422
 1907SOL    HW1 5733   2.687   3.168   1.517
 1907SOL    HW2 5734   2.606   3.154   1.376
 1908SOL     OW 5735   2.534   3.478   0.154
 1908SOL    HW1 5736   2.543   3.488   0.055
 1908SOL    HW2 5737   2.494   3.389   0.175
 1909SOL     OW 5738   3.512   3.582   1.394
 1909SOL    HW1 5739   3.565   3.592   1.310
 1909SOL    HW2 5740   3.485   3.672   1.428
 1910SOL     OW 5741   3.703   2.037   0.963
 1910SOL    HW1 5742   3.742   1.952   0.927
 1910SOL    HW2 5743   3.605   2.039   0.944
 1911SOL     OW 5744   2.125   2.188   0.720
 1911SOL    HW1 5745   2.046   2.239   0.686
 1911SOL    HW2 5746   2.116   2.173   0.818
 1912SOL     OW 5747   3.056   3.474   0.031
 1912SOL    HW1 5748   3.062   3.381   0.068
 1912SOL    HW2 5749   2.997   3.474  -0.049
 1913SOL     OW 5750   2.684   2.864   1.372
 1913SOL    HW1 5751   2.724   2.863   1.280
 1913SOL    HW2 5752   2.694   2.956   1.412
 1914SOL     OW 5753   2.778   2.772   0.291
 1914SOL    HW1 5754   2.841   2.810   0.223
 1914SOL    HW2 5755   2.818   2.689   0.330
 1915SOL     OW 5756   3.366   3.469   0.044
 1915SOL    HW1 5757   3.274   3.506   0.051
 1915SOL    HW2 5758   3.404   3.489  -0.046
 1916SOL     OW 5759   2.234   3.150   1.490
 1916SOL    HW1 5760   2.221   3.243   1.456
 1916SOL    HW2 5761   2.150   3.098   1.477
 1917SOL     OW 5762   3.476   3.154   1.289
 1917SOL    HW1 5763   3.536   3.157   1.369
 1917SOL    HW2 5764   3.401   3.218   1.302
 1918SOL     OW 5765   2.901   2.960   0.696
 1918SOL    HW1 5766   2.831   2.913   0.750
 1918SOL    HW2 5767   2.960   2.892   0.653
 1919SOL     OW 5768   2.876   2.098   0.971
 1919SOL    HW1 5769   2.868   2.062   0.878
 1919SOL    HW2 5770   2.874   2.022   1.036
 1920SOL     OW 5771   2.452   3.349   0.491
 1920SOL    HW1 5772   2.494   3.291   0.421
 1920SOL    HW2 5773   2.408   3.428   0.447
 1921SOL     OW 5774   3.571   2.247   1.381
 1921SOL    HW1 5775   3.644   2.316   1.385
 1921SOL    HW2 5776   3.599   2.172   1.322
 1922SOL     OW 5777   2.117   3.210   0.290
 1922SOL    HW1 5778   2.021   3.211   0.263
 1922SOL    HW2 5779   2.129   3.263   0.374
 1923SOL     OW 5780   1.967   2.875   1.726
 1923SOL    HW1 5781   1.890   2.842   1.780
 1923SOL    HW2 5782   2.052   2.845   1.768
 1924SOL     OW 5783   2.534   2.065   1.489
 1924SOL    HW1 5784   2.624   2.049   1.449
 1924SOL    HW2 5785   2.542   2.070   1.588
 1925SOL     OW 5786   1.937   2.207   0.033
 1925SOL    HW1 5787   1.845   2.179   0.004
 1925SOL    HW2 5788   1.968   2.284  -0.023
 1926SOL     OW 5789   3.302   2.718   1.398
 1926SOL    HW1 5790   3.245   2.770   1.335
 1926SOL    HW2 5791   3.398   2.730   1.374
 1927SOL     OW 5792   3.045   3.197   0.119
 1927SOL    HW1 5793   2.946   3.186   0.121
 1927SOL    HW2 5794   3.079   3.212   0.212
 1928SOL     OW 5795   2.475   2.704   1.431
 1928SOL    HW1 5796   2.531   2.785   1.414
 1928SOL    HW2 5797   2.534   2.624   1.434
 1929SOL     OW 5798   3.355   3.629   0.959
 1929SOL    HW1 5799   3.388   3.693   0.890
 1929SOL    HW2 5800   3.421   3.623   1.034
 1930SOL     OW 5801   2.578   2.427   1.708
 1930SOL    HW1 5802   2.597   2.492   1.782
 1930SOL    HW2 5803   2.638   2.347   1.717
 1931SOL     OW 5804   3.312   3.082   1.633
 1931SOL    HW1 5805   3.303   3.072   1.732
 1931SOL    HW2 5806   3.408   3.075   1.607
 1932SOL     OW 5807   2.252   3.603   1.560
 1932SOL    HW1 5808   2.161   3.644   1.558
 1932SOL    HW2 5809   2.245   3.509   1.592
 1933SOL     OW 5810   3.536   2.745   1.254
 1933SOL    HW1 5811   3.509   2.656   1.217
 1933SOL    HW2 5812   3.537   2.813   1.181
 1934SOL     OW 5813   3.087   2.187   0.449
 1934SOL    HW1 5814   3.152   2.113   0.438
 1934SOL    HW2 5815   3.107   2.237   0.533
 1935SOL     OW 5816   2.456   2.607   0.652
 1935SOL    HW1 5817   2.506   2.692   0.633
 1935SOL    HW2 5818   2.368   2.609   0.604
 1936SOL     OW 5819   3.639   2.204   1.642
 1936SOL    HW1 5820   3.622   2.235   1.548
 1936SOL    HW2 5821   3.555   2.167   1.680
 1937SOL     OW 5822   3.592   2.796   1.517
 1937SOL    HW1 5823   3.630   2.887   1.532
 1937SOL    HW2 5824   3.584   2.779   1.418
 1938SOL     OW 5825   2.721   3.236   0.016
 1938SOL    HW1 5826   2.675   3.251   0.104
 1938SOL    HW2 5827   2.765   3.321  -0.014
 1939SOL     OW 5828   2.523   3.652   0.953
 1939SOL    HW1 5829   2.477   3.740   0.940
 1939SOL    HW2 5830   2.622   3.664   0.946
 1940SOL     OW 5831   2.721   2.818   0.861
 1940SOL    HW1 5832   2.775   2.749   0.909
 1940SOL    HW2 5833   2.689   2.887   0.927
 1941SOL     OW 5834   2.945   2.846   0.087
 1941SOL    HW1 5835   2.922   2.899   0.005
 1941SOL    HW2 5836   3.026   2.790   0.068
 1942SOL     OW 5837   3.723   3.431   0.851
 1942SOL    HW1 5838   3.652   3.419   0.781
 1942SOL    HW2 5839   3.724   3.352   0.911
 1943SOL     OW 5840   2.083   3.176   1.844
 1943SOL    HW1 5841   2.018   3.103   1.823
 1943SOL    HW2 5842   2.087   3.190   1.942
 1944SOL     OW 5843   1.941   3.102   0.653
 1944SOL    HW1 5844   1.940   3.055   0.741
 1944SOL    HW2 5845   2.023   3.074   0.602
 1945SOL     OW 5846   2.534   3.253   1.624
 1945SOL    HW1 5847   2.456   3.203   1.662
 1945SOL    HW2 5848   2.531   3.348   1.655
 1946SOL     OW 5849   3.686   2.054   1.227
 1946SOL    HW1 5850   3.682   1.964   1.271
 1946SOL    HW2 5851   3.689   2.043   1.128
 1947SOL     OW 5852   2.290   2.286   0.520
 1947SOL    HW1 5853   2.320   2.214   0.458
 1947SOL    HW2 5854   2.251   2.246   0.603
 1948SOL     OW 5855   3.567   3.349   1.104
 1948SOL    HW1 5856   3.474   3.324   1.077
 1948SOL    HW2 5857   3.593   3.299   1.186
 1949SOL     OW 5858   2.179   2.409   1.280
 1949SOL    HW1 5859   2.217   2.350   1.352
 1949SOL    HW2 5860   2.219   2.383   1.192
 1950SOL     OW 5861   2.674   3.448   0.687
 1950SOL    HW1 5862   2.706   3.458   0.593
 1950SOL    HW2 5863   2.595   3.386   0.689
 1951SOL     OW 5864   3.286   2.076   1.112
 1951SOL    HW1 5865   3.338   2.011   1.167
 1951SOL    HW2 5866   3.237   2.139   1.173
 1952SOL     OW 5867   2.863   1.896   1.154
 1952SOL    HW1 5868   2.800   1.824   1.123
 1952SOL    HW2 5869   2.956   1.860   1.154
 1953SOL     OW 5870   2.632   3.192   0.301
 1953SOL    HW1 5871   2.586   3.105   0.318
 1953SOL    HW2 5872   2.723   3.189   0.342
 1954SOL     OW 5873   2.480   3.429   1.284
 1954SOL    HW1 5874   2.475   3.511   1.341
 1954SOL    HW2 5875   2.569   3.426   1.239
 1955SOL     OW 5876   3.214   1.914   0.168
 1955SOL    HW1 5877   3.249   1.873   0.084
 1955SOL    HW2 5878   3.124   1.876   0.188
 1956SOL     OW 5879   3.162   2.315   0.691
 1956SOL    HW1 5880   3.103   2.395   0.695
 1956SOL    HW2 5881   3.177   2.280   0.784
 1957SOL     OW 5882   3.455   2.083   0.882
 1957SOL    HW1 5883   3.371   2.082   0.936
 1957SOL    HW2 5884   3.457   2.166   0.826
 1958SOL     OW 5885   1.901   2.939   0.300
 1958SOL    HW1 5886   2.000   2.928   0.291
 1958SOL    HW2 5887   1.861   2.853   0.332
 1959SOL     OW 5888   2.737   3.508   0.337
 1959SOL    HW1 5889   2.660   3.473   0.283
 1959SOL    HW2 5890   2.705   3.579   0.399
 1960SOL     OW 5891   2.092   2.490   1.975
 1960SOL    HW1 5892   1.999   2.488   2.012
 1960SOL    HW2 5893   2.093   2.451   1.883
 1961SOL     OW 5894   2.087   2.137   2.858
 1961SOL    HW1 5895   2.122   2.120   2.950
 1961SOL    HW2 5896   1.999   2.092   2.846
 1962SOL     OW 5897   1.881   2.230   2.509
 1962SOL    HW1 5898   1.799   2.273   2.548
 1962SOL    HW2 5899   1.853   2.157   2.446
 1963SOL     OW 5900   2.431   3.137   3.027
 1963SOL    HW1 5901   2.338   3.130   2.990
 1963SOL    HW2 5902   2.442   3.226   3.071
 1964SOL     OW 5903   3.417   3.373   2.565
 1964SOL    HW1 5904   3.360   3.357   2.646
 1964SOL    HW2 5905   3.358   3.383   2.485
 1965SOL     OW 5906   2.997   2.565   2.579
 1965SOL    HW1 5907   3.054   2.643   2.554
 1965SOL    HW2 5908   2.937   2.591   2.655
 1966SOL     OW 5909   3.617   2.469   2.093
 1966SOL    HW1 5910   3.605   2.456   1.994
 1966SOL    HW2 5911   3.587   2.388   2.142
 1967SOL     OW 5912   2.630   3.006   2.885
 1967SOL    HW1 5913   2.552   3.023   2.945
 1967SOL    HW2 5914   2.664   3.093   2.849
 1968SOL     OW 5915   2.712   2.660   3.685
 1968SOL    HW1 5916   2.708   2.736   3.750
 1968SOL    HW2 5917   2.734   2.696   3.594
 1969SOL     OW 5918   2.547   2.874   2.527
 1969SOL    HW1 5919   2.616   2.858   2.597
 1969SOL    HW2 5920   2.474   2.931   2.565
 1970SOL     OW 5921   2.548   3.023   3.665
 1970SOL    HW1 5922   2.608   3.102   3.679
 1970SOL    HW2 5923   2.462   3.054   3.624
 1971SOL     OW 5924   2.197   3.297   2.923
 1971SOL    HW1 5925   2.119   3.266   2.870
 1971SOL    HW2 5926   2.255   3.355   2.866
 1972SOL     OW 5927   3.322   3.367   3.201
 1972SOL    HW1 5928   3.346   3.461   3.227
 1972SOL    HW2 5929   3.306   3.313   3.283
 1973SOL     OW 5930   2.300   2.254   3.361
 1973SOL    HW1 5931   2.382   2.198   3.370
 1973SOL    HW2 5932   2.219   2.196   3.365
 1974SOL     OW 5933   3.465   2.309   2.599
 1974SOL    HW1 5934   3.391   2.355   2.549
 1974SOL    HW2 5935   3.516   2.377   2.652
 1975SOL     OW 5936   2.093   3.575   2.345
 1975SOL    HW1 5937   2.127   3.652   2.399
 1975SOL    HW2 5938   2.137   3.575   2.255
 1976SOL     OW 5939   2.989   3.203   3.552
 1976SOL    HW1 5940   3.036   3.203   3.640
 1976SOL    HW2 5941   2.941   3.116   3.541
 1977SOL     OW 5942   2.092   3.296   2.400
 1977SOL    HW1 5943   2.066   3.392   2.400
 1977SOL    HW2 5944   2.021   3.242   2.445
 1978SOL     OW 5945   2.102   2.953   2.748
 1978SOL    HW1 5946   2.116   2.869   2.800
 1978SOL    HW2 5947   2.047   3.017   2.803
 1979SOL     OW 5948   2.482   3.648   3.301
 1979SOL    HW1 5949   2.390   3.631   3.336
 1979SOL    HW2 5950   2.510   3.740   3.327
 1980SOL     OW 5951   2.468   2.826   1.985
 1980SOL    HW1 5952   2.475   2.910   1.931
 1980SOL    HW2 5953   2.514   2.839   2.073
 1981SOL     OW 5954   3.456   1.976   3.342
 1981SOL    HW1 5955   3.438   2.043   3.270
 1981SOL    HW2 5956   3.453   2.022   3.431
 1982SOL     OW 5957   1.984   2.505   2.425
 1982SOL    HW1 5958   1.939   2.417   2.442
 1982SOL    HW2 5959   1.983   2.559   2.509
 1983SOL     OW 5960   3.704   3.629   2.221
 1983SOL    HW1 5961   3.758   3.600   2.301
 1983SOL    HW2 5962   3.734   3.719   2.192
 1984SOL     OW 5963   1.889   3.458   1.979
 1984SOL    HW1 5964   1.870   3.362   2.000
 1984SOL    HW2 5965   1.856   3.516   2.054
 1985SOL     OW 5966   3.551   2.784   2.474
 1985SOL    HW1 5967   3.646   2.755   2.482
 1985SOL    HW2 5968   3.543   2.849   2.399
 1986SOL     OW 5969   3.503   2.970   2.294
 1986SOL    HW1 5970   3.589   2.972   2.242
 1986SOL    HW2 5971   3.517   3.017   2.382
 1987SOL     OW 5972   1.975   2.599   3.459
 1987SOL    HW1 5973   2.063   2.586   3.504
 1987SOL    HW2 5974   1.962   2.696   3.437
 1988SOL     OW 5975   2.475   3.227   2.588
 1988SOL    HW1 5976   2.426   3.140   2.597
 1988SOL    HW2 5977   2.452   3.270   2.501
 1989SOL     OW 5978   3.155   3.090   3.285
 1989SOL    HW1 5979   3.192   3.017   3.227
 1989SOL    HW2 5980   3.207   3.095   3.370
 1990SOL     OW 5981   2.671   1.866   2.364
 1990SOL    HW1 5982   2.711   1.957   2.355
 1990SOL    HW2 5983   2.571   1.874   2.370
 1991SOL     OW 5984   2.059   2.838   3.126
 1991SOL    HW1 5985   2.148   2.793   3.112
 1991SOL    HW2 5986   1.986   2.773   3.107
 1992SOL     OW 5987   3.387   2.861   2.052
 1992SOL    HW1 5988   3.324   2.785   2.065
 1992SOL    HW2 5989   3.435   2.879   2.138
 1993SOL     OW 5990   3.049   3.654   3.478
 1993SOL    HW1 5991   3.073   3.714   3.402
 1993SOL    HW2 5992   3.056   3.559   3.448
 1994SOL     OW 5993   2.179   2.113   3.663
 1994SOL    HW1 5994   2.250   2.184   3.669
 1994SOL    HW2 5995   2.091   2.152   3.691
 1995SOL     OW 5996   3.328   3.279   2.815
 1995SOL    HW1 5997   3.269   3.285   2.895
 1995SOL    HW2 5998   3.313   3.191   2.769
 1996SOL     OW 5999   3.529   3.576   2.434
 1996SOL    HW1 6000   3.488   3.553   2.346
 1996SOL    HW2 6001   3.511   3.502   2.499
 1997SOL     OW 6002   2.460   2.591   2.132
 1997SOL    HW1 6003   2.484   2.660   2.064
 1997SOL    HW2 6004   2.382   2.624   2.186
 1998SOL     OW 6005   3.143   2.207   2.806
 1998SOL    HW1 6006   3.057   2.157   2.793
 1998SOL    HW2 6007   3.205   2.153   2.862
 1999SOL     OW 6008   3.438   3.524   2.169
 1999SOL    HW1 6009   3.527   3.570   2.172
 1999SOL    HW2 6010   3.417   3.500   2.074
 2000SOL     OW 6011   2.669   2.467   3.327
 2000SOL    HW1 6012   2.622   2.464   3.416
 2000SOL    HW2 6013   2.618   2.412   3.261
 2001SOL     OW 6014   3.256   2.331   3.536
 2001SOL    HW1 6015   3.236   2.374   3.624
 2001SOL    HW2 6016   3.334   2.269   3.545
 2002SOL     OW 6017   2.835   2.752   3.434
 2002SOL    HW1 6018   2.881   2.668   3.405
 2002SOL    HW2 6019   2.779   2.786   3.359
 2003SOL     OW 6020   2.853   2.272   3.104
 2003SOL    HW1 6021   2.776   2.306   3.158
 2003SOL    HW2 6022   2.819   2.221   3.025
 2004SOL     OW 6023   2.903   2.563   2.291
 2004SOL    HW1 6024   2.929   2.559   2.387
 2004SOL    HW2 6025   2.818   2.512   2.277
 2005SOL     OW 6026   1.938   2.673   2.651
 2005SOL    HW1 6027   2.037   2.661   2.660
 2005SOL    HW2 6028   1.914   2.768   2.672
 2006SOL     OW 6029   1.992   3.683   3.433
 2006SOL    HW1 6030   1.982   3.668   3.532
 2006SOL    HW2 6031   1.906   3.719   3.397
 2007SOL     OW 6032   2.727   2.210   2.057
 2007SOL    HW1 6033   2.786   2.273   2.008
 2007SOL    HW2 6034   2.746   2.116   2.028
 2008SOL     OW 6035   3.581   2.447   3.693
 2008SOL    HW1 6036   3.555   2.536   3.657
 2008SOL    HW2 6037   3.579   2.379   3.620
 2009SOL     OW 6038   3.224   3.006   2.407
 2009SOL    HW1 6039   3.307   2.977   2.359
 2009SOL    HW2 6040   3.175   3.073   2.351
 2010SOL     OW 6041   2.412   2.058   2.747
 2010SOL    HW1 6042   2.407   2.053   2.847
 2010SOL    HW2 6043   2.414   2.154   2.718
 2011SOL     OW 6044   2.870   3.318   2.339
 2011SOL    HW1 6045   2.824   3.390   2.287
 2011SOL    HW2 6046   2.866   3.338   2.437
 2012SOL     OW 6047   2.213   3.663   2.715
 2012SOL    HW1 6048   2.263   3.577   2.721
 2012SOL    HW2 6049   2.278   3.740   2.712
 2013SOL     OW 6050   3.657   2.928   2.735
 2013SOL    HW1 6051   3.595   2.913   2.659
 2013SOL    HW2 6052   3.605   2.939   2.820
 2014SOL     OW 6053   3.089   3.412   3.368
 2014SOL    HW1 6054   3.095   3.335   3.432
 2014SOL    HW2 6055   3.037   3.386   3.288
 2015SOL     OW 6056   2.183   2.805   2.104
 2015SOL    HW1 6057   2.265   2.844   2.062
 2015SOL    HW2 6058   2.156   2.723   2.055
 2016SOL     OW 6059   3.320   2.597   2.590
 2016SOL    HW1 6060   3.315   2.532   2.665
 2016SOL    HW2 6061   3.400   2.656   2.603
 2017SOL     OW 6062   2.323   3.128   3.589
 2017SOL    HW1 6063   2.273   3.129   3.503
 2017SOL    HW2 6064   2.260   3.110   3.665
 2018SOL     OW 6065   2.973   3.638   2.099
 2018SOL    HW1 6066   2.913   3.576   2.149
 2018SOL    HW2 6067   3.004   3.594   2.014
 2019SOL     OW 6068   2.064   2.147   3.360
 2019SOL    HW1 6069   1.984   2.207   3.347
 2019SOL    HW2 6070   2.054   2.098   3.446
 2020SOL     OW 6071   3.494   3.239   1.943
 2020SOL    HW1 6072   3.462   3.333   1.933
 2020SOL    HW2 6073   3.418   3.176   1.931
 2021SOL     OW 6074   2.326   3.605   2.185
 2021SOL    HW1 6075   2.359   3.644   2.271
 2021SOL    HW2 6076   2.402   3.598   2.120
 2022SOL     OW 6077   3.262   1.969   2.288
 2022SOL    HW1 6078   3.238   1.932   2.198
 2022SOL    HW2 6079   3.361   1.985   2.292
 2023SOL     OW 6080   2.111   3.647   3.103
 2023SOL    HW1 6081   2.168   3.582   3.153
 2023SOL    HW2 6082   2.095   3.614   3.010
 2024SOL     OW 6083   2.802   3.560   2.766
 2024SOL    HW1 6084   2.882   3.503   2.787
 2024SOL    HW2 6085   2.753   3.520   2.689
 2025SOL     OW 6086   2.244   2.562   2.342
 2025SOL    HW1 6087   2.289   2.472   2.339
 2025SOL    HW2 6088   2.150   2.551   2.375
 2026SOL     OW 6089   3.409   2.084   3.591
 2026SOL    HW1 6090   3.404   2.121   3.683
 2026SOL    HW2 6091   3.337   2.015   3.579
 2027SOL     OW 6092   2.476   1.984   1.979
 2027SOL    HW1 6093   2.574   1.962   1.986
 2027SOL    HW2 6094   2.445   1.967   1.886
 2028SOL     OW 6095   2.643   2.126   3.611
 2028SOL    HW1 6096   2.710   2.065   3.654
 2028SOL    HW2 6097   2.570   2.145   3.676
 2029SOL     OW 6098   2.750   3.376   3.057
 2029SOL    HW1 6099   2.727   3.351   2.963
 2029SOL    HW2 6100   2.811   3.307   3.096
 2030SOL     OW 6101   3.213   2.452   3.295
 2030SOL    HW1 6102   3.241   2.409   3.380
 2030SOL    HW2 6103   3.238   2.548   3.296
 2031SOL     OW 6104   2.665   3.264   2.786
 2031SOL    HW1 6105   2.755   3.278   2.744
 2031SOL    HW2 6106   2.594   3.266   2.715
 2032SOL     OW 6107   2.784   2.365   2.761
 2032SOL    HW1 6108   2.759   2.356   2.665
 2032SOL    HW2 6109   2.832   2.283   2.792
 2033SOL     OW 6110   2.401   1.926   2.374
 2033SOL    HW1 6111   2.320   1.927   2.432
 2033SOL    HW2 6112   2.404   2.009   2.319
 2034SOL     OW 6113   3.296   3.050   1.903
 2034SOL    HW1 6114   3.328   2.974   1.960
 2034SOL    HW2 6115   3.204   3.077   1.933
 2035SOL     OW 6116   2.159   1.897   2.033
 2035SOL    HW1 6117   2.208   1.981   2.012
 2035SOL    HW2 6118   2.221   1.832   2.078
 2036SOL     OW 6119   2.797   2.098   2.342
 2036SOL    HW1 6120   2.749   2.139   2.264
 2036SOL    HW2 6121   2.896   2.096   2.323
 2037SOL     OW 6122   2.938   2.545   3.326
 2037SOL    HW1 6123   2.858   2.484   3.329
 2037SOL    HW2 6124   3.019   2.492   3.302
 2038SOL     OW 6125   3.089   3.432   2.655
 2038SOL    HW1 6126   3.110   3.506   2.590
 2038SOL    HW2 6127   3.157   3.432   2.728
 2039SOL     OW 6128   2.321   3.014   2.603
 2039SOL    HW1 6129   2.250   2.987   2.668
 2039SOL    HW2 6130   2.295   2.986   2.510
 2040SOL     OW 6131   3.133   3.659   2.453
 2040SOL    HW1 6132   3.177   3.723   2.389
 2040SOL    HW2 6133   3.083   3.711   2.523
 2041SOL     OW 6134   2.894   2.411   1.878
 2041SOL    HW1 6135   2.853   2.493   1.839
 2041SOL    HW2 6136   2.958   2.437   1.951
 2042SOL     OW 6137   1.940   2.418   3.248
 2042SOL    HW1 6138   2.032   2.417   3.207
 2042SOL    HW2 6139   1.934   2.492   3.315
 2043SOL     OW 6140   2.423   2.084   3.009
 2043SOL    HW1 6141   2.461   2.000   3.046
 2043SOL    HW2 6142   2.335   2.103   3.053
 2044SOL     OW 6143   2.728   2.316   2.504
 2044SOL    HW1 6144   2.696   2.388   2.442
 2044SOL    HW2 6145   2.752   2.235   2.451
 2045SOL     OW 6146   2.879   1.901   2.615
 2045SOL    HW1 6147   2.807   1.906   2.546
 2045SOL    HW2 6148   2.855   1.832   2.684
 2046SOL     OW 6149   3.291   3.035   2.729
 2046SOL    HW1 6150   3.236   2.951   2.722
 2046SOL    HW2 6151   3.317   3.064   2.637
 2047SOL     OW 6152   3.328   2.452   2.854
 2047SOL    HW1 6153   3.298   2.357   2.861
 2047SOL    HW2 6154   3.401   2.468   2.920
 2048SOL     OW 6155   3.719   2.695   2.239
 2048SOL    HW1 6156   3.761   2.631   2.303
 2048SOL    HW2 6157   3.681   2.644   2.161
 2049SOL     OW 6158   2.350   3.247   2.036
 2049SOL    HW1 6159   2.263   3.232   2.083
 2049SOL    HW2 6160   2.333   3.273   1.941
 2050SOL     OW 6161   3.526   3.142   2.519
 2050SOL    HW1 6162   3.625   3.150   2.533
 2050SOL    HW2 6163   3.481   3.226   2.550
 2051SOL     OW 6164   3.252   2.437   1.940
 2051SOL    HW1 6165   3.198   2.416   2.021
 2051SOL    HW2 6166   3.343   2.396   1.949
 2052SOL     OW 6167   3.616   3.085   3.450
 2052SOL    HW1 6168   3.707   3.046   3.437
 2052SOL    HW2 6169   3.624   3.181   3.474
 2053SOL     OW 6170   2.926   3.209   3.202
 2053SOL    HW1 6171   2.846   3.186   3.257
 2053SOL    HW2 6172   3.009   3.183   3.251
 2054SOL     OW 6173   3.454   3.491   3.487
 2054SOL    HW1 6174   3.481   3.525   3.397
 2054SOL    HW2 6175   3.533   3.453   3.533
 2055SOL     OW 6176   2.973   3.057   2.962
 2055SOL    HW1 6177   2.933   3.101   3.043
 2055SOL    HW2 6178   2.932   3.094   2.879
 2056SOL     OW 6179   3.500   2.961   2.941
 2056SOL    HW1 6180   3.505   3.042   3.000
 2056SOL    HW2 6181   3.414   2.963   2.890
 2057SOL     OW 6182   2.777   1.951   3.264
 2057SOL    HW1 6183   2.802   1.931   3.169
 2057SOL    HW2 6184   2.849   2.007   3.306
 2058SOL     OW 6185   2.842   2.978   3.581
 2058SOL    HW1 6186   2.743   2.984   3.591
 2058SOL    HW2 6187   2.865   2.898   3.525
 2059SOL     OW 6188   2.567   2.912   2.230
 2059SOL    HW1 6189   2.553   2.919   2.329
 2059SOL    HW2 6190   2.651   2.861   2.212
 2060SOL     OW 6191   2.272   2.675   3.113
 2060SOL    HW1 6192   2.358   2.687   3.163
 2060SOL    HW2 6193   2.230   2.588   3.140
 2061SOL     OW 6194   3.136   2.248   3.124
 2061SOL    HW1 6195   3.157   2.322   3.188
 2061SOL    HW2 6196   3.047   2.265   3.081
 2062SOL     OW 6197   1.926   3.426   3.193
 2062SOL    HW1 6198   1.880   3.508   3.159
 2062SOL    HW2 6199   2.024   3.445   3.202
 2063SOL     OW 6200   2.229   2.962   2.363
 2063SOL    HW1 6201   2.222   3.045   2.307
 2063SOL    HW2 6202   2.233   2.882   2.303
 2064SOL     OW 6203   2.428   2.399   2.727
 2064SOL    HW1 6204   2.440   2.465   2.653
 2064SOL    HW2 6205   2.474   2.433   2.810
 2065SOL     OW 6206   3.114   3.210   2.250
 2065SOL    HW1 6207   3.164   3.287   2.290
 2065SOL    HW2 6208   3.019   3.212   2.282
 2066SOL     OW 6209   3.134   3.307   3.004
 2066SOL    HW1 6210   3.181   3.320   3.091
 2066SOL    HW2 6211   3.068   3.233   3.013
 2067SOL     OW 6212   3.444   2.501   2.334
 2067SOL    HW1 6213   3.413   2.562   2.407
 2067SOL    HW2 6214   3.494   2.553   2.265
 2068SOL     OW 6215   2.216   3.372   3.191
 2068SOL    HW1 6216   2.195   3.328   3.104
 2068SOL    HW2 6217   2.313   3.398   3.194
 2069SOL     OW 6218   2.264   2.613   3.460
 2069SOL    HW1 6219   2.332   2.668   3.413
 2069SOL    HW2 6220   2.304   2.525   3.487
 2070SOL     OW 6221   3.449   2.641   3.532
 2070SOL    HW1 6222   3.357   2.679   3.527
 2070SOL    HW2 6223   3.509   2.688   3.467
 2071SOL     OW 6224   2.875   1.967   3.632
 2071SOL    HW1 6225   2.881   2.052   3.580
 2071SOL    HW2 6226   2.907   1.891   3.575
 2072SOL     OW 6227   2.366   1.912   3.602
 2072SOL    HW1 6228   2.324   1.855   3.532
 2072SOL    HW2 6229   2.300   1.981   3.634
 2073SOL     OW 6230   2.435   2.732   2.891
 2073SOL    HW1 6231   2.479   2.821   2.882
 2073SOL    HW2 6232   2.372   2.732   2.968
 2074SOL     OW 6233   3.222   2.724   2.907
 2074SOL    HW1 6234   3.147   2.724   2.841
 2074SOL    HW2 6235   3.259   2.632   2.916
 2075SOL     OW 6236   3.071   2.387   2.137
 2075SOL    HW1 6237   3.084   2.303   2.191
 2075SOL    HW2 6238   3.042   2.461   2.197
 2076SOL     OW 6239   2.169   2.075   3.093
 2076SOL    HW1 6240   2.146   2.112   3.183
 2076SOL    HW2 6241   2.139   1.980   3.087
 2077SOL     OW 6242   1.899   3.172   3.144
 2077SOL    HW1 6243   1.952   3.123   3.212
 2077SOL    HW2 6244   1.921   3.270   3.149
 2078SOL     OW 6245   2.594   2.496   2.926
 2078SOL    HW1 6246   2.653   2.470   2.850
 2078SOL    HW2 6247   2.566   2.592   2.915
 2079SOL     OW 6248   3.590   2.797   3.716
 2079SOL    HW1 6249   3.544   2.790   3.627
 2079SOL    HW2 6250   3.528   2.841   3.782
 2080SOL     OW 6251   2.169   1.925   2.480
 2080SOL    HW1 6252   2.158   2.019   2.513
 2080SOL    HW2 6253   2.164   1.862   2.557
 2081SOL     OW 6254   3.484   2.229   2.236
 2081SOL    HW1 6255   3.486   2.153   2.300
 2081SOL    HW2 6256   3.436   2.306   2.276
 2082SOL     OW 6257   2.885   2.628   2.828
 2082SOL    HW1 6258   2.900   2.649   2.924
 2082SOL    HW2 6259   2.855   2.533   2.819
 2083SOL     OW 6260   2.842   3.435   3.562
 2083SOL    HW1 6261   2.822   3.479   3.474
 2083SOL    HW2 6262   2.881   3.344   3.546
 2084SOL     OW 6263   3.721   3.380   3.467
 2084SOL    HW1 6264   3.735   3.407   3.372
 2084SOL    HW2 6265   3.804   3.402   3.520
 2085SOL     OW 6266   2.212   2.760   3.666
 2085SOL    HW1 6267   2.288   2.804   3.714
 2085SOL    HW2 6268   2.247   2.713   3.584
 2086SOL     OW 6269   3.402   2.136   1.987
 2086SOL    HW1 6270   3.341   2.061   2.010
 2086SOL    HW2 6271   3.424   2.188   2.070
 2087SOL     OW 6272   3.165   2.700   1.904
 2087SOL    HW1 6273   3.199   2.607   1.919
 2087SOL    HW2 6274   3.183   2.727   1.809
 2088SOL     OW 6275   2.930   3.195   2.711
 2088SOL    HW1 6276   2.937   3.111   2.656
 2088SOL    HW2 6277   2.992   3.264   2.675
 2089SOL     OW 6278   2.181   2.672   2.811
 2089SOL    HW1 6279   2.274   2.708   2.816
 2089SOL    HW2 6280   2.175   2.587   2.863
 2090SOL     OW 6281   2.201   2.371   2.868
 2090SOL    HW1 6282   2.149   2.288   2.851
 2090SOL    HW2 6283   2.278   2.376   2.804
 2091SOL     OW 6284   3.000   2.242   3.540
 2091SOL    HW1 6285   2.955   2.305   3.604
 2091SOL    HW2 6286   3.093   2.273   3.523
 2092SOL     OW 6287   3.022   2.069   3.339
 2092SOL    HW1 6288   3.022   2.133   3.416
 2092SOL    HW2 6289   3.050   2.117   3.256
 2093SOL     OW 6290   1.870   3.188   2.062
 2093SOL    HW1 6291   1.777   3.209   2.031
 2093SOL    HW2 6292   1.880   3.089   2.075
 2094SOL     OW 6293   1.950   3.663   2.789
 2094SOL    HW1 6294   1.908   3.577   2.762
 2094SOL    HW2 6295   2.044   3.666   2.755
 2095SOL     OW 6296   2.366   3.430   2.772
 2095SOL    HW1 6297   2.432   3.504   2.781
 2095SOL    HW2 6298   2.410   3.351   2.730
 2096SOL     OW 6299   2.864   2.658   3.100
 2096SOL    HW1 6300   2.905   2.626   3.186
 2096SOL    HW2 6301   2.768   2.631   3.097
 2097SOL     OW 6302   1.902   2.406   2.976
 2097SOL    HW1 6303   1.987   2.373   2.935
 2097SOL    HW2 6304   1.915   2.421   3.074
 2098SOL     OW 6305   2.051   2.382   3.584
 2098SOL    HW1 6306   2.110   2.342   3.514
 2098SOL    HW2 6307   1.993   2.453   3.543
 2099SOL     OW 6308   3.231   2.812   3.522
 2099SOL    HW1 6309   3.270   2.901   3.542
 2099SOL    HW2 6310   3.241   2.792   3.425
 2100SOL     OW 6311   2.677   2.434   2.187
 2100SOL    HW1 6312   2.684   2.345   2.141
 2100SOL    HW2 6313   2.583   2.468   2.179
 2101SOL     OW 6314   3.519   2.466   3.068
 2101SOL    HW1 6315   3.481   2.397   3.130
 2101SOL    HW2 6316   3.601   2.430   3.024
 2102SOL     OW 6317   2.114   3.426   3.606
 2102SOL    HW1 6318   2.084   3.483   3.682
 2102SOL    HW2 6319   2.107   3.329   3.632
 2103SOL     OW 6320   2.533   2.326   3.131
 2103SOL    HW1 6321   2.499   2.237   3.101
 2103SOL    HW2 6322   2.559   2.380   3.051
 2104SOL     OW 6323   2.792   3.540   3.327
 2104SOL    HW1 6324   2.768   3.522   3.232
 2104SOL    HW2 6325   2.822   3.634   3.337
 2105SOL     OW 6326   2.021   2.999   3.328
 2105SOL    HW1 6327   2.043   2.938   3.404
 2105SOL    HW2 6328   2.031   2.950   3.242
 2106SOL     OW 6329   3.209   2.921   3.096
 2106SOL    HW1 6330   3.233   2.858   3.022
 2106SOL    HW2 6331   3.119   2.961   3.078
 2107SOL     OW 6332   3.164   2.717   2.171
 2107SOL    HW1 6333   3.078   2.686   2.213
 2107SOL    HW2 6334   3.160   2.703   2.072
 2108SOL     OW 6335   3.621   3.609   3.016
 2108SOL    HW1 6336   3.682   3.639   2.943
 2108SOL    HW2 6337   3.583   3.520   2.994
 2109SOL     OW 6338   3.114   3.593   2.990
 2109SOL    HW1 6339   3.198   3.598   2.936
 2109SOL    HW2 6340   3.091   3.497   3.008
 2110SOL     OW 6341   1.945   3.120   2.884
 2110SOL    HW1 6342   1.940   3.119   2.984
 2110SOL    HW2 6343   1.862   3.079   2.846
 2111SOL     OW 6344   2.550   3.524   3.578
 2111SOL    HW1 6345   2.494   3.605   3.587
 2111SOL    HW2 6346   2.602   3.528   3.492
 2112SOL     OW 6347   3.588   1.997   2.385
 2112SOL    HW1 6348   3.661   1.980   2.318
 2112SOL    HW2 6349   3.557   1.910   2.423
 2113SOL     OW 6350   3.250   3.435   2.339
 2113SOL    HW1 6351   3.317   3.447   2.265
 2113SOL    HW2 6352   3.210   3.524   2.362
 2114SOL     OW 6353   1.992   3.656   3.713
 2114SOL    HW1 6354   1.951   3.582   3.766
 2114SOL    HW2 6355   2.056   3.707   3.771
 2115SOL     OW 6356   3.142   2.789   2.534
 2115SOL    HW1 6357   3.202   2.708   2.536
 2115SOL    HW2 6358   3.182   2.858   2.474
 2116SOL     OW 6359   2.692   3.135   3.284
 2116SOL    HW1 6360   2.687   3.168   3.379
 2116SOL    HW2 6361   2.606   3.154   3.238
 2117SOL     OW 6362   2.534   3.478   2.016
 2117SOL    HW1 6363   2.543   3.488   1.917
 2117SOL    HW2 6364   2.494   3.389   2.037
 2118SOL     OW 6365   3.512   3.582   3.256
 2118SOL    HW1 6366   3.565   3.592   3.172
 2118SOL    HW2 6367   3.485   3.672   3.290
 2119SOL     OW 6368   3.703   2.037   2.825
 2119SOL    HW1 6369   3.742   1.952   2.789
 2119SOL    HW2 6370   3.605   2.039   2.806
 2120SOL     OW 6371   2.125   2.188   2.582
 2120SOL    HW1 6372   2.046   2.239   2.548
 2120SOL    HW2 6373   2.116   2.173   2.680
 2121SOL     OW 6374   3.056   3.474   1.893
 2121SOL    HW1 6375   3.062   3.381   1.930
 2121SOL    HW2 6376   2.997   3.474   1.813
 2122SOL     OW 6377   2.684   2.864   3.234
 2122SOL    HW1 6378   2.724   2.863   3.142
 2122SOL    HW2 6379   2.694   2.956   3.274
 2123SOL     OW 6380   2.778   2.772   2.153
 2123SOL    HW1 6381   2.841   2.810   2.085
 2123SOL    HW2 6382   2.818   2.689   2.192
 2124SOL     OW 6383   3.366   3.469   1.906
 2124SOL    HW1 6384   3.274   3.506   1.913
 2124SOL    HW2 6385   3.404   3.489   1.816
 2125SOL     OW 6386   2.234   3.150   3.352
 2125SOL    HW1 6387   2.221   3.243   3.318
 2125SOL    HW2 6388   2.150   3.098   3.339
 2126SOL     OW 6389   3.476   3.154   3.151
 2126SOL    HW1 6390   3.536   3.157   3.231
 2126SOL    HW2 6391   3.401   3.218   3.164
 2127SOL     OW 6392   2.901   2.960   2.558
 2127SOL    HW1 6393   2.831   2.913   2.612
 2127SOL    HW2 6394   2.960   2.892   2.515
 2128SOL     OW 6395   2.876   2.098   2.833
 2128SOL    HW1 6396   2.868   2.062   2.740
 2128SOL    HW2 6397   2.874   2.022   2.898
 2129SOL     OW 6398   2.452   3.349   2.353
 2129SOL    HW1 6399   2.494   3.291   2.283
 2129SOL    HW2 6400   2.408   3.428   2.309
 2130SOL     OW 6401   3.571   2.247   3.243
 2130SOL    HW1 6402   3.644   2.316   3.247
 2130SOL    HW2 6403   3.599   2.172   3.184
 2131SOL     OW 6404   2.117   3.210   2.152
 2131SOL    HW1 6405   2.021   3.211   2.125
 2131SOL    HW2 6406   2.129   3.263   2.236
 2132SOL     OW 6407   1.967   2.875   3.588
 2132SOL    HW1 6408   1.890   2.842   3.642
 2132SOL    HW2 6409   2.052   2.845   3.630
 2133SOL     OW 6410   2.534   2.065   3.351
 2133SOL    HW1 6411   2.624   2.049   3.311
 2133SOL    HW2 6412   2.542   2.070   3.450
 2134SOL     OW 6413   1.937   2.207   1.895
 2134SOL    HW1 6414   1.845   2.179   1.866
 2134SOL    HW2 6415   1.968   2.284   1.839
 2135SOL     OW 6416   3.302   2.718   3.260
 2135SOL    HW1 6417   3.245   2.770   3.197
 2135SOL    HW2 6418   3.398   2.730   3.236
 2136SOL     OW 6419   1.934   2.028   2.180
 2136SOL    HW1 6420   1.917   2.111   2.126
 2136SOL    HW2 6421   2.024   1.991   2.158
 2137SOL     OW 6422   3.045   3.197   1.981
 2137SOL    HW1 6423   2.946   3.186   1.983
 2137SOL    HW2 6424   3.079   3.212   2.074
 2138SOL     OW 6425   2.475   2.704   3.293
 2138SOL    HW1 6426   2.531   2.785   3.276
 2138SOL    HW2 6427   2.534   2.624   3.296
 2139SOL     OW 6428   3.355   3.629   2.821
 2139SOL    HW1 6429   3.388   3.693   2.752
 2139SOL    HW2 6430   3.421   3.623   2.896
 2140SOL     OW 6431   2.578   2.427   3.570
 2140SOL    HW1 6432   2.597   2.492   3.644
 2140SOL    HW2 6433   2.638   2.347   3.579
 2141SOL     OW 6434   3.312   3.082   3.495
 2141SOL    HW1 6435   3.303   3.072   3.594
 2141SOL    HW2 6436   3.408   3.075   3.469
 2142SOL     OW 6437   2.252   3.603   3.422
 2142SOL    HW1 6438   2.161   3.644   3.420
 2142SOL    HW2 6439   2.245   3.509   3.454
 2143SOL     OW 6440   3.536   2.745   3.116
 2143SOL    HW1 6441   3.509   2.656   3.079
 2143SOL    HW2 6442   3.537   2.813   3.043
 2144SOL     OW 6443   3.087   2.187   2.311
 2144SOL    HW1 6444   3.152   2.113   2.300
 2144SOL    HW2 6445   3.107   2.237   2.395
 2145SOL     OW 6446   2.456   2.607   2.514
 2145SOL    HW1 6447   2.506   2.692   2.495
 2145SOL    HW2 6448   2.368   2.609   2.466
 2146SOL     OW 6449   3.639   2.204   3.504
 2146SOL    HW1 6450   3.622   2.235   3.410
 2146SOL    HW2 6451   3.555   2.167   3.542
 2147SOL     OW 6452   3.592   2.796   3.379
 2147SOL    HW1 6453   3.630   2.887   3.394
 2147SOL    HW2 6454   3.584   2.779   3.280
 2148SOL     OW 6455   2.721   3.236   1.878
 2148SOL    HW1 6456   2.675   3.251   1.966
 2148SOL    HW2 6457   2.765   3.321   1.848
 2149SOL     OW 6458   2.523   3.652   2.815
 2149SOL    HW1 6459   2.477   3.740   2.802
 2149SOL    HW2 6460   2.622   3.664   2.808
 2150SOL     OW 6461   2.721   2.818   2.723
 2150SOL    HW1 6462   2.775   2.749   2.771
 2150SOL    HW2 6463   2.689   2.887   2.789
 2151SOL     OW 6464   2.945   2.846   1.949
 2151SOL    HW1 6465   2.922   2.899   1.867
 2151SOL    HW2 6466   3.026   2.790   1.930
 2152SOL     OW 6467   3.723   3.431   2.713
 2152SOL    HW1 6468   3.652   3.419   2.643
 2152SOL    HW2 6469   3.724   3.352   2.773
 2153SOL     OW 6470   2.083   3.176   3.706
 2153SOL    HW1 6471   2.018   3.103   3.685
 2153SOL    HW2 6472   2.087   3.190   3.804
 2154SOL     OW 6473   1.941   3.102   2.515
 2154SOL    HW1 6474   1.940   3.055   2.603
 2154SOL    HW2 6475   2.023   3.074   2.464
 2155SOL     OW 6476   2.534   3.253   3.486
 2155SOL    HW1 6477   2.456   3.203   3.524
 2155SOL    HW2 6478   2.531   3.348   3.517
 2156SOL     OW 6479   3.686   2.054   3.089
 2156SOL    HW1 6480   3.682   1.964   3.133
 2156SOL    HW2 6481   3.689   2.043   2.990
 2157SOL     OW 6482   3.567   3.349   2.966
 2157SOL    HW1 6483   3.474   3.324   2.939
 2157SOL    HW2 6484   3.593   3.299   3.048
 2158SOL     OW 6485   2.179   2.409   3.142
 2158SOL    HW1 6486   2.217   2.350   3.214
 2158SOL    HW2 6487   2.219   2.383   3.054
 2159SOL     OW 6488   2.674   3.448   2.549
 2159SOL    HW1 6489   2.706   3.458   2.455
 2159SOL    HW2 6490   2.595   3.386   2.551
 2160SOL     OW 6491   3.286   2.076   2.974
 2160SOL    HW1 6492   3.338   2.011   3.029
 2160SOL    HW2 6493   3.237   2.139   3.035
 2161SOL     OW 6494   2.863   1.896   3.016
 2161SOL    HW1 6495   2.800   1.824   2.985
 2161SOL    HW2 6496   2.956   1.860   3.016
 2162SOL     OW 6497   2.632   3.192   2.163
 2162SOL    HW1 6498   2.586   3.105   2.180
 2162SOL    HW2 6499   2.723   3.189   2.204
 2163SOL     OW 6500   2.480   3.429   3.146
 2163SOL    HW1 6501   2.475   3.511   3.203
 2163SOL    HW2 6502   2.569   3.426   3.101
 2164SOL     OW 6503   3.214   1.914   2.030
 2164SOL    HW1 6504   3.249   1.873   1.946
 2164SOL    HW2 6505   3.124   1.876   2.050
 2165SOL     OW 6506   3.162   2.315   2.553
 2165SOL    HW1 6507   3.103   2.395   2.557
 2165SOL    HW2 6508   3.177   2.280   2.646
 2166SOL     OW 6509   3.455   2.083   2.744
 2166SOL    HW1 6510   3.371   2.082   2.798
 2166SOL    HW2 6511   3.457   2.166   2.688
 2167SOL     OW 6512   1.901   2.939   2.162
 2167SOL    HW1 6513   2.000   2.928   2.153
 2167SOL    HW2 6514   1.861   2.853   2.194
 2168SOL     OW 6515   2.737   3.508   2.199
 2168SOL    HW1 6516   2.660   3.473   2.145
 2168SOL    HW2 6517   2.705   3.579   2.261
 2169SOL     OW 6518   2.092   2.490   3.837
 2169SOL    HW1 6519   1.999   2.488   3.874
 2169SOL    HW2 6520   2.093   2.451   3.745
 2170SOL     OW 6521   2.087   2.137   4.720
 2170SOL    HW1 6522   2.122   2.120   4.812
 2170SOL    HW2 6523   1.999   2.092   4.708
 2171SOL     OW 6524   3.617   2.469   3.955
 2171SOL    HW1 6525   3.605   2.456   3.856
 2171SOL    HW2 6526   3.587   2.388   4.004
 2172SOL     OW 6527   2.547   2.874   4.389
 2172SOL    HW1 6528   2.616   2.858   4.459
 2172SOL    HW2 6529   2.474   2.931   4.427
 2173SOL     OW 6530   3.465   2.309   4.461
 2173SOL    HW1 6531   3.391   2.355   4.411
 2173SOL    HW2 6532   3.516   2.377   4.514
 2174SOL     OW 6533   2.093   3.575   4.207
 2174SOL    HW1 6534   2.127   3.652   4.261
 2174SOL    HW2 6535   2.137   3.575   4.117
 2175SOL     OW 6536   2.092   3.296   4.262
 2175SOL    HW1 6537   2.066   3.392   4.262
 2175SOL    HW2 6538   2.021   3.242   4.307
 2176SOL     OW 6539   2.468   2.826   3.847
 2176SOL    HW1 6540   2.475   2.910   3.793
 2176SOL    HW2 6541   2.514   2.839   3.935
 2177SOL     OW 6542   1.984   2.505   4.287
 2177SOL    HW1 6543   1.939   2.417   4.304
 2177SOL    HW2 6544   1.983   2.559   4.371
 2178SOL     OW 6545   3.704   3.629   4.083
 2178SOL    HW1 6546   3.758   3.600   4.163
 2178SOL    HW2 6547   3.734   3.719   4.054
 2179SOL     OW 6548   1.889   3.458   3.841
 2179SOL    HW1 6549   1.870   3.362   3.862
 2179SOL    HW2 6550   1.856   3.516   3.916
 2180SOL     OW 6551   3.551   2.784   4.336
 2180SOL    HW1 6552   3.646   2.755   4.344
 2180SOL    HW2 6553   3.543   2.849   4.261
 2181SOL     OW 6554   3.503   2.970   4.156
 2181SOL    HW1 6555   3.589   2.972   4.104
 2181SOL    HW2 6556   3.517   3.017   4.244
 2182SOL     OW 6557   2.475   3.227   4.450
 2182SOL    HW1 6558   2.426   3.140   4.459
 2182SOL    HW2 6559   2.452   3.270   4.363
 2183SOL     OW 6560   2.671   1.866   4.226
 2183SOL    HW1 6561   2.711   1.957   4.217
 2183SOL    HW2 6562   2.571   1.874   4.232
 2184SOL     OW 6563   3.387   2.861   3.914
 2184SOL    HW1 6564   3.324   2.785   3.927
 2184SOL    HW2 6565   3.435   2.879   4.000
 2185SOL     OW 6566   3.529   3.576   4.296
 2185SOL    HW1 6567   3.488   3.553   4.208
 2185SOL    HW2 6568   3.511   3.502   4.361
 2186SOL     OW 6569   2.460   2.591   3.994
 2186SOL    HW1 6570   2.484   2.660   3.926
 2186SOL    HW2 6571   2.382   2.624   4.048
 2187SOL     OW 6572   3.143   2.207   4.668
 2187SOL    HW1 6573   3.057   2.157   4.655
 2187SOL    HW2 6574   3.205   2.153   4.724
 2188SOL     OW 6575   3.438   3.524   4.031
 2188SOL    HW1 6576   3.527   3.570   4.034
 2188SOL    HW2 6577   3.417   3.500   3.936
 2189SOL     OW 6578   2.903   2.563   4.153
 2189SOL    HW1 6579   2.929   2.559   4.249
 2189SOL    HW2 6580   2.818   2.512   4.139
 2190SOL     OW 6581   1.938   2.673   4.513
 2190SOL    HW1 6582   2.037   2.661   4.522
 2190SOL    HW2 6583   1.914   2.768   4.534
 2191SOL     OW 6584   2.727   2.210   3.919
 2191SOL    HW1 6585   2.786   2.273   3.870
 2191SOL    HW2 6586   2.746   2.116   3.890
 2192SOL     OW 6587   3.224   3.006   4.269
 2192SOL    HW1 6588   3.307   2.977   4.221
 2192SOL    HW2 6589   3.175   3.073   4.213
 2193SOL     OW 6590   2.870   3.318   4.201
 2193SOL    HW1 6591   2.824   3.390   4.149
 2193SOL    HW2 6592   2.866   3.338   4.299
 2194SOL     OW 6593   2.213   3.663   4.577
 2194SOL    HW1 6594   2.263   3.577   4.583
 2194SOL    HW2 6595   2.278   3.740   4.574
 2195SOL     OW 6596   3.657   2.928   4.597
 2195SOL    HW1 6597   3.595   2.913   4.521
 2195SOL    HW2 6598   3.605   2.939   4.682
 2196SOL     OW 6599   2.183   2.805   3.966
 2196SOL    HW1 6600   2.265   2.844   3.924
 2196SOL    HW2 6601   2.156   2.723   3.917
 2197SOL     OW 6602   2.973   3.638   3.961
 2197SOL    HW1 6603   2.913   3.576   4.011
 2197SOL    HW2 6604   3.004   3.594   3.876
 2198SOL     OW 6605   3.494   3.239   3.805
 2198SOL    HW1 6606   3.462   3.333   3.795
 2198SOL    HW2 6607   3.418   3.176   3.793
 2199SOL     OW 6608   2.326   3.605   4.047
 2199SOL    HW1 6609   2.359   3.644   4.133
 2199SOL    HW2 6610   2.402   3.598   3.982
 2200SOL     OW 6611   3.262   1.969   4.150
 2200SOL    HW1 6612   3.238   1.932   4.060
 2200SOL    HW2 6613   3.361   1.985   4.154
 2201SOL     OW 6614   2.802   3.560   4.628
 2201SOL    HW1 6615   2.882   3.503   4.649
 2201SOL    HW2 6616   2.753   3.520   4.551
 2202SOL     OW 6617   2.244   2.562   4.204
 2202SOL    HW1 6618   2.289   2.472   4.201
 2202SOL    HW2 6619   2.150   2.551   4.237
 2203SOL     OW 6620   2.476   1.984   3.841
 2203SOL    HW1 6621   2.574   1.962   3.848
 2203SOL    HW2 6622   2.445   1.967   3.748
 2204SOL     OW 6623   2.401   1.926   4.236
 2204SOL    HW1 6624   2.320   1.927   4.294
 2204SOL    HW2 6625   2.404   2.009   4.181
 2205SOL     OW 6626   3.296   3.050   3.765
 2205SOL    HW1 6627   3.328   2.974   3.822
 2205SOL    HW2 6628   3.204   3.077   3.795
 2206SOL     OW 6629   2.159   1.897   3.895
 2206SOL    HW1 6630   2.208   1.981   3.874
 2206SOL    HW2 6631   2.221   1.832   3.940
 2207SOL     OW 6632   2.797   2.098   4.204
 2207SOL    HW1 6633   2.749   2.139   4.126
 2207SOL    HW2 6634   2.896   2.096   4.185
 2208SOL     OW 6635   2.321   3.014   4.465
 2208SOL    HW1 6636   2.250   2.987   4.530
 2208SOL    HW2 6637   2.295   2.986   4.372
 2209SOL     OW 6638   3.133   3.659   4.315
 2209SOL    HW1 6639   3.177   3.723   4.251
 2209SOL    HW2 6640   3.083   3.711   4.385
 2210SOL     OW 6641   2.894   2.411   3.740
 2210SOL    HW1 6642   2.853   2.493   3.701
 2210SOL    HW2 6643   2.958   2.437   3.813
 2211SOL     OW 6644   2.728   2.316   4.366
 2211SOL    HW1 6645   2.696   2.388   4.304
 2211SOL    HW2 6646   2.752   2.235   4.313
 2212SOL     OW 6647   3.719   2.695   4.101
 2212SOL    HW1 6648   3.761   2.631   4.165
 2212SOL    HW2 6649   3.681   2.644   4.023
 2213SOL     OW 6650   2.350   3.247   3.898
 2213SOL    HW1 6651   2.263   3.232   3.945
 2213SOL    HW2 6652   2.333   3.273   3.803
 2214SOL     OW 6653   3.526   3.142   4.381
 2214SOL    HW1 6654   3.625   3.150   4.395
 2214SOL    HW2 6655   3.481   3.226   4.412
 2215SOL     OW 6656   3.252   2.437   3.802
 2215SOL    HW1 6657   3.198   2.416   3.883
 2215SOL    HW2 6658   3.343   2.396   3.811
 2216SOL     OW 6659   2.389   2.118   4.052
 2216SOL    HW1 6660   2.416   2.059   3.977
 2216SOL    HW2 6661   2.389   2.213   4.021
 2217SOL     OW 6662   2.973   3.057   4.824
 2217SOL    HW1 6663   2.933   3.101   4.905
 2217SOL    HW2 6664   2.932   3.094   4.741
 2218SOL     OW 6665   2.567   2.912   4.092
 2218SOL    HW1 6666   2.553   2.919   4.191
 2218SOL    HW2 6667   2.651   2.861   4.074
 2219SOL     OW 6668   2.229   2.962   4.225
 2219SOL    HW1 6669   2.222   3.045   4.169
 2219SOL    HW2 6670   2.233   2.882   4.165
 2220SOL     OW 6671   3.114   3.210   4.112
 2220SOL    HW1 6672   3.164   3.287   4.152
 2220SOL    HW2 6673   3.019   3.212   4.144
 2221SOL     OW 6674   3.444   2.501   4.196
 2221SOL    HW1 6675   3.413   2.562   4.269
 2221SOL    HW2 6676   3.494   2.553   4.127
 2222SOL     OW 6677   3.071   2.387   3.999
 2222SOL    HW1 6678   3.084   2.303   4.053
 2222SOL    HW2 6679   3.042   2.461   4.059
 2223SOL     OW 6680   2.169   1.925   4.342
 2223SOL    HW1 6681   2.158   2.019   4.375
 2223SOL    HW2 6682   2.164   1.862   4.419
 2224SOL     OW 6683   3.484   2.229   4.098
 2224SOL    HW1 6684   3.486   2.153   4.162
 2224SOL    HW2 6685   3.436   2.306   4.138
 2225SOL     OW 6686   3.402   2.136   3.849
 2225SOL    HW1 6687   3.341   2.061   3.872
 2225SOL    HW2 6688   3.424   2.188   3.932
 2226SOL     OW 6689   3.165   2.700   3.766
 2226SOL    HW1 6690   3.199   2.607   3.781
 2226SOL    HW2 6691   3.183   2.727   3.671
 2227SOL     OW 6692   1.870   3.188   3.924
 2227SOL    HW1 6693   1.777   3.209   3.893
 2227SOL    HW2 6694   1.880   3.089   3.937
 2228SOL     OW 6695   2.677   2.434   4.049
 2228SOL    HW1 6696   2.684   2.345   4.003
 2228SOL    HW2 6697   2.583   2.468   4.041
 2229SOL     OW 6698   2.335   2.362   3.915
 2229SOL    HW1 6699   2.396   2.442   3.919
 2229SOL    HW2 6700   2.240   2.393   3.922
 2230SOL     OW 6701   3.164   2.717   4.033
 2230SOL    HW1 6702   3.078   2.686   4.075
 2230SOL    HW2 6703   3.160   2.703   3.934
 2231SOL     OW 6704   3.588   1.997   4.247
 2231SOL    HW1 6705   3.661   1.980   4.180
 2231SOL    HW2 6706   3.557   1.910   4.285
 2232SOL     OW 6707   3.250   3.435   4.201
 2232SOL    HW1 6708   3.317   3.447   4.127
 2232SOL    HW2 6709   3.210   3.524   4.224
 2233SOL     OW 6710   2.534   3.478   3.878
 2233SOL    HW1 6711   2.543   3.488   3.779
 2233SOL    HW2 6712   2.494   3.389   3.899
 2234SOL     OW 6713   3.703   2.037   4.687
 2234SOL    HW1 6714   3.742   1.952   4.651
 2234SOL    HW2 6715   3.605   2.039   4.668
 2235SOL     OW 6716   3.056   3.474   3.755
 2235SOL    HW1 6717   3.062   3.381   3.792
 2235SOL    HW2 6718   2.997   3.474   3.675
 2236SOL     OW 6719   2.778   2.772   4.015
 2236SOL    HW1 6720   2.841   2.810   3.947
 2236SOL    HW2 6721   2.818   2.689   4.054
 2237SOL     OW 6722   3.366   3.469   3.768
 2237SOL    HW1 6723   3.274   3.506   3.775
 2237SOL    HW2 6724   3.404   3.489   3.678
 2238SOL     OW 6725   2.452   3.349   4.215
 2238SOL    HW1 6726   2.494   3.291   4.145
 2238SOL    HW2 6727   2.408   3.428   4.171
 2239SOL     OW 6728   2.117   3.210   4.014
 2239SOL    HW1 6729   2.021   3.211   3.987
 2239SOL    HW2 6730   2.129   3.263   4.098
 2240SOL     OW 6731   1.937   2.207   3.757
 2240SOL    HW1 6732   1.845   2.179   3.728
 2240SOL    HW2 6733   1.968   2.284   3.701
 2241SOL     OW 6734   1.934   2.028   4.042
 2241SOL    HW1 6735   1.917   2.111   3.988
 2241SOL    HW2 6736   2.024   1.991   4.020
 2242SOL     OW 6737   3.045   3.197   3.843
 2242SOL    HW1 6738   2.946   3.186   3.845
 2242SOL    HW2 6739   3.079   3.212   3.936
 2243SOL     OW 6740   3.087   2.187   4.173
 2243SOL    HW1 6741   3.152   2.113   4.162
 2243SOL    HW2 6742   3.107   2.237   4.257
 2244SOL     OW 6743   2.456   2.607   4.376
 2244SOL    HW1 6744   2.506   2.692   4.357
 2244SOL    HW2 6745   2.368   2.609   4.328
 2245SOL     OW 6746   2.721   3.236   3.740
 2245SOL    HW1 6747   2.675   3.251   3.828
 2245SOL    HW2 6748   2.765   3.321   3.710
 2246SOL     OW 6749   2.523   3.652   4.677
 2246SOL    HW1 6750   2.477   3.740   4.664
 2246SOL    HW2 6751   2.622   3.664   4.670
 2247SOL     OW 6752   2.945   2.846   3.811
 2247SOL    HW1 6753   2.922   2.899   3.729
 2247SOL    HW2 6754   3.026   2.790   3.792
 2248SOL     OW 6755   1.941   3.102   4.377
 2248SOL    HW1 6756   1.940   3.055   4.465
 2248SOL    HW2 6757   2.023   3.074   4.326
 2249SOL     OW 6758   2.290   2.286   4.244
 2249SOL    HW1 6759   2.320   2.214   4.182
 2249SOL    HW2 6760   2.251   2.246   4.327
 2250SOL     OW 6761   2.674   3.448   4.411
 2250SOL    HW1 6762   2.706   3.458   4.317
 2250SOL    HW2 6763   2.595   3.386   4.413
 2251SOL     OW 6764   2.632   3.192   4.025
 2251SOL    HW1 6765   2.586   3.105   4.042
 2251SOL    HW2 6766   2.723   3.189   4.066
 2252SOL     OW 6767   3.214   1.914   3.892
 2252SOL    HW1 6768   3.249   1.873   3.808
 2252SOL    HW2 6769   3.124   1.876   3.912
 2253SOL     OW 6770   3.162   2.315   4.415
 2253SOL    HW1 6771   3.103   2.395   4.419
 2253SOL    HW2 6772   3.177   2.280   4.508
 2254SOL     OW 6773   1.901   2.939   4.024
 2254SOL    HW1 6774   2.000   2.928   4.015
 2254SOL    HW2 6775   1.861   2.853   4.056
 2255SOL     OW 6776   2.737   3.508   4.061
 2255SOL    HW1 6777   2.660   3.473   4.007
 2255SOL    HW2 6778   2.705   3.579   4.123
 2256SOL     OW 6779   2.092   4.352   0.113
 2256SOL    HW1 6780   1.999   4.350   0.150
 2256SOL    HW2 6781   2.093   4.313   0.021
 2257SOL     OW 6782   2.087   3.999   0.996
 2257SOL    HW1 6783   2.122   3.982   1.088
 2257SOL    HW2 6784   1.999   3.954   0.984
 2258SOL     OW 6785   1.881   4.092   0.647
 2258SOL    HW1 6786   1.799   4.135   0.686
 2258SOL    HW2 6787   1.853   4.019   0.584
 2259SOL     OW 6788   3.617   4.331   0.231
 2259SOL    HW1 6789   3.605   4.318   0.132
 2259SOL    HW2 6790   3.587   4.250   0.280
 2260SOL     OW 6791   2.712   4.522   1.823
 2260SOL    HW1 6792   2.708   4.598   1.888
 2260SOL    HW2 6793   2.734   4.558   1.732
 2261SOL     OW 6794   2.547   4.736   0.665
 2261SOL    HW1 6795   2.616   4.720   0.735
 2261SOL    HW2 6796   2.474   4.793   0.703
 2262SOL     OW 6797   2.300   4.116   1.499
 2262SOL    HW1 6798   2.382   4.060   1.508
 2262SOL    HW2 6799   2.219   4.058   1.503
 2263SOL     OW 6800   3.465   4.171   0.737
 2263SOL    HW1 6801   3.391   4.217   0.687
 2263SOL    HW2 6802   3.516   4.239   0.790
 2264SOL     OW 6803   3.456   3.838   1.480
 2264SOL    HW1 6804   3.438   3.905   1.408
 2264SOL    HW2 6805   3.453   3.884   1.569
 2265SOL     OW 6806   1.984   4.367   0.563
 2265SOL    HW1 6807   1.939   4.279   0.580
 2265SOL    HW2 6808   1.983   4.421   0.647
 2266SOL     OW 6809   1.975   4.461   1.597
 2266SOL    HW1 6810   2.063   4.448   1.642
 2266SOL    HW2 6811   1.962   4.558   1.575
 2267SOL     OW 6812   2.671   3.728   0.502
 2267SOL    HW1 6813   2.711   3.819   0.493
 2267SOL    HW2 6814   2.571   3.736   0.508
 2268SOL     OW 6815   2.179   3.975   1.801
 2268SOL    HW1 6816   2.250   4.046   1.807
 2268SOL    HW2 6817   2.091   4.014   1.829
 2269SOL     OW 6818   3.143   4.069   0.944
 2269SOL    HW1 6819   3.057   4.019   0.931
 2269SOL    HW2 6820   3.205   4.015   1.000
 2270SOL     OW 6821   2.669   4.329   1.465
 2270SOL    HW1 6822   2.622   4.326   1.554
 2270SOL    HW2 6823   2.618   4.274   1.399
 2271SOL     OW 6824   3.256   4.193   1.674
 2271SOL    HW1 6825   3.236   4.236   1.762
 2271SOL    HW2 6826   3.334   4.131   1.683
 2272SOL     OW 6827   2.853   4.134   1.242
 2272SOL    HW1 6828   2.776   4.168   1.296
 2272SOL    HW2 6829   2.819   4.083   1.163
 2273SOL     OW 6830   2.903   4.425   0.429
 2273SOL    HW1 6831   2.929   4.421   0.525
 2273SOL    HW2 6832   2.818   4.374   0.415
 2274SOL     OW 6833   2.727   4.072   0.195
 2274SOL    HW1 6834   2.786   4.135   0.146
 2274SOL    HW2 6835   2.746   3.978   0.166
 2275SOL     OW 6836   3.581   4.309   1.831
 2275SOL    HW1 6837   3.555   4.398   1.795
 2275SOL    HW2 6838   3.579   4.241   1.758
 2276SOL     OW 6839   2.412   3.920   0.885
 2276SOL    HW1 6840   2.407   3.915   0.985
 2276SOL    HW2 6841   2.414   4.016   0.856
 2277SOL     OW 6842   3.320   4.459   0.728
 2277SOL    HW1 6843   3.315   4.394   0.803
 2277SOL    HW2 6844   3.400   4.518   0.741
 2278SOL     OW 6845   2.064   4.009   1.498
 2278SOL    HW1 6846   1.984   4.069   1.485
 2278SOL    HW2 6847   2.054   3.960   1.584
 2279SOL     OW 6848   3.262   3.831   0.426
 2279SOL    HW1 6849   3.238   3.794   0.336
 2279SOL    HW2 6850   3.361   3.847   0.430
 2280SOL     OW 6851   2.244   4.424   0.480
 2280SOL    HW1 6852   2.289   4.334   0.477
 2280SOL    HW2 6853   2.150   4.413   0.513
 2281SOL     OW 6854   3.409   3.946   1.729
 2281SOL    HW1 6855   3.404   3.983   1.821
 2281SOL    HW2 6856   3.337   3.877   1.717
 2282SOL     OW 6857   2.643   3.988   1.749
 2282SOL    HW1 6858   2.710   3.927   1.792
 2282SOL    HW2 6859   2.570   4.007   1.814
 2283SOL     OW 6860   3.213   4.314   1.433
 2283SOL    HW1 6861   3.241   4.271   1.518
 2283SOL    HW2 6862   3.238   4.410   1.434
 2284SOL     OW 6863   2.784   4.227   0.899
 2284SOL    HW1 6864   2.759   4.218   0.803
 2284SOL    HW2 6865   2.832   4.145   0.930
 2285SOL     OW 6866   2.401   3.788   0.512
 2285SOL    HW1 6867   2.320   3.789   0.570
 2285SOL    HW2 6868   2.404   3.871   0.457
 2286SOL     OW 6869   2.797   3.960   0.480
 2286SOL    HW1 6870   2.749   4.001   0.402
 2286SOL    HW2 6871   2.896   3.958   0.461
 2287SOL     OW 6872   2.938   4.407   1.464
 2287SOL    HW1 6873   2.858   4.346   1.467
 2287SOL    HW2 6874   3.019   4.354   1.440
 2288SOL     OW 6875   2.894   4.273   0.016
 2288SOL    HW1 6876   2.853   4.355  -0.023
 2288SOL    HW2 6877   2.958   4.299   0.089
 2289SOL     OW 6878   1.940   4.280   1.386
 2289SOL    HW1 6879   2.032   4.279   1.345
 2289SOL    HW2 6880   1.934   4.354   1.453
 2290SOL     OW 6881   2.423   3.946   1.147
 2290SOL    HW1 6882   2.461   3.862   1.184
 2290SOL    HW2 6883   2.335   3.965   1.191
 2291SOL     OW 6884   2.728   4.178   0.642
 2291SOL    HW1 6885   2.696   4.250   0.580
 2291SOL    HW2 6886   2.752   4.097   0.589
 2292SOL     OW 6887   2.879   3.763   0.753
 2292SOL    HW1 6888   2.807   3.768   0.684
 2292SOL    HW2 6889   2.855   3.694   0.822
 2293SOL     OW 6890   3.328   4.314   0.992
 2293SOL    HW1 6891   3.298   4.219   0.999
 2293SOL    HW2 6892   3.401   4.330   1.058
 2294SOL     OW 6893   3.252   4.299   0.078
 2294SOL    HW1 6894   3.198   4.278   0.159
 2294SOL    HW2 6895   3.343   4.258   0.087
 2295SOL     OW 6896   2.389   3.980   0.328
 2295SOL    HW1 6897   2.416   3.921   0.253
 2295SOL    HW2 6898   2.389   4.075   0.297
 2296SOL     OW 6899   2.777   3.813   1.402
 2296SOL    HW1 6900   2.802   3.793   1.307
 2296SOL    HW2 6901   2.849   3.869   1.444
 2297SOL     OW 6902   2.272   4.537   1.251
 2297SOL    HW1 6903   2.358   4.549   1.301
 2297SOL    HW2 6904   2.230   4.450   1.278
 2298SOL     OW 6905   3.136   4.110   1.262
 2298SOL    HW1 6906   3.157   4.184   1.326
 2298SOL    HW2 6907   3.047   4.127   1.219
 2299SOL     OW 6908   2.428   4.261   0.865
 2299SOL    HW1 6909   2.440   4.327   0.791
 2299SOL    HW2 6910   2.474   4.295   0.948
 2300SOL     OW 6911   3.444   4.363   0.472
 2300SOL    HW1 6912   3.413   4.424   0.545
 2300SOL    HW2 6913   3.494   4.415   0.403
 2301SOL     OW 6914   2.875   3.829   1.770
 2301SOL    HW1 6915   2.881   3.914   1.718
 2301SOL    HW2 6916   2.907   3.753   1.713
 2302SOL     OW 6917   2.366   3.774   1.740
 2302SOL    HW1 6918   2.324   3.717   1.670
 2302SOL    HW2 6919   2.300   3.843   1.772
 2303SOL     OW 6920   3.071   4.249   0.275
 2303SOL    HW1 6921   3.084   4.165   0.329
 2303SOL    HW2 6922   3.042   4.323   0.335
 2304SOL     OW 6923   2.169   3.937   1.231
 2304SOL    HW1 6924   2.146   3.974   1.321
 2304SOL    HW2 6925   2.139   3.842   1.225
 2305SOL     OW 6926   2.594   4.358   1.064
 2305SOL    HW1 6927   2.653   4.332   0.988
 2305SOL    HW2 6928   2.566   4.454   1.053
 2306SOL     OW 6929   3.590   4.659   1.854
 2306SOL    HW1 6930   3.544   4.652   1.765
 2306SOL    HW2 6931   3.528   4.703   1.920
 2307SOL     OW 6932   2.169   3.787   0.618
 2307SOL    HW1 6933   2.158   3.881   0.651
 2307SOL    HW2 6934   2.164   3.724   0.695
 2308SOL     OW 6935   3.484   4.091   0.374
 2308SOL    HW1 6936   3.486   4.015   0.438
 2308SOL    HW2 6937   3.436   4.168   0.414
 2309SOL     OW 6938   3.402   3.998   0.125
 2309SOL    HW1 6939   3.341   3.923   0.148
 2309SOL    HW2 6940   3.424   4.050   0.208
 2310SOL     OW 6941   2.181   4.534   0.949
 2310SOL    HW1 6942   2.274   4.570   0.954
 2310SOL    HW2 6943   2.175   4.449   1.001
 2311SOL     OW 6944   2.201   4.233   1.006
 2311SOL    HW1 6945   2.149   4.150   0.989
 2311SOL    HW2 6946   2.278   4.238   0.942
 2312SOL     OW 6947   3.000   4.104   1.678
 2312SOL    HW1 6948   2.955   4.167   1.742
 2312SOL    HW2 6949   3.093   4.135   1.661
 2313SOL     OW 6950   3.022   3.931   1.477
 2313SOL    HW1 6951   3.022   3.995   1.554
 2313SOL    HW2 6952   3.050   3.979   1.394
 2314SOL     OW 6953   1.902   4.268   1.114
 2314SOL    HW1 6954   1.987   4.235   1.073
 2314SOL    HW2 6955   1.915   4.283   1.212
 2315SOL     OW 6956   2.051   4.244   1.722
 2315SOL    HW1 6957   2.110   4.204   1.652
 2315SOL    HW2 6958   1.993   4.315   1.681
 2316SOL     OW 6959   2.677   4.296   0.325
 2316SOL    HW1 6960   2.684   4.207   0.279
 2316SOL    HW2 6961   2.583   4.330   0.317
 2317SOL     OW 6962   3.519   4.328   1.206
 2317SOL    HW1 6963   3.481   4.259   1.268
 2317SOL    HW2 6964   3.601   4.292   1.162
 2318SOL     OW 6965   2.533   4.188   1.269
 2318SOL    HW1 6966   2.499   4.099   1.239
 2318SOL    HW2 6967   2.559   4.242   1.189
 2319SOL     OW 6968   2.335   4.224   0.191
 2319SOL    HW1 6969   2.396   4.304   0.195
 2319SOL    HW2 6970   2.240   4.255   0.198
 2320SOL     OW 6971   2.765   3.810   0.133
 2320SOL    HW1 6972   2.816   3.811   0.047
 2320SOL    HW2 6973   2.821   3.768   0.204
 2321SOL     OW 6974   3.588   3.859   0.523
 2321SOL    HW1 6975   3.661   3.842   0.456
 2321SOL    HW2 6976   3.557   3.772   0.561
 2322SOL     OW 6977   3.142   4.651   0.672
 2322SOL    HW1 6978   3.202   4.570   0.674
 2322SOL    HW2 6979   3.182   4.720   0.612
 2323SOL     OW 6980   3.703   3.899   0.963
 2323SOL    HW1 6981   3.742   3.814   0.927
 2323SOL    HW2 6982   3.605   3.901   0.944
 2324SOL     OW 6983   2.125   4.050   0.720
 2324SOL    HW1 6984   2.046   4.101   0.686
 2324SOL    HW2 6985   2.116   4.035   0.818
 2325SOL     OW 6986   2.901   4.822   0.696
 2325SOL    HW1 6987   2.831   4.775   0.750
 2325SOL    HW2 6988   2.960   4.754   0.653
 2326SOL     OW 6989   2.876   3.960   0.971
 2326SOL    HW1 6990   2.868   3.924   0.878
 2326SOL    HW2 6991   2.874   3.884   1.036
 2327SOL     OW 6992   3.571   4.109   1.381
 2327SOL    HW1 6993   3.644   4.178   1.385
 2327SOL    HW2 6994   3.599   4.034   1.322
 2328SOL     OW 6995   2.534   3.927   1.489
 2328SOL    HW1 6996   2.624   3.911   1.449
 2328SOL    HW2 6997   2.542   3.932   1.588
 2329SOL     OW 6998   1.937   4.069   0.033
 2329SOL    HW1 6999   1.845   4.041   0.004
 2329SOL    HW2 7000   1.968   4.146  -0.023
 2330SOL     OW 7001   2.578   4.289   1.708
 2330SOL    HW1 7002   2.597   4.354   1.782
 2330SOL    HW2 7003   2.638   4.209   1.717
 2331SOL     OW 7004   3.087   4.049   0.449
 2331SOL    HW1 7005   3.152   3.975   0.438
 2331SOL    HW2 7006   3.107   4.099   0.533
 2332SOL     OW 7007   3.639   4.066   1.642
 2332SOL    HW1 7008   3.622   4.097   1.548
 2332SOL    HW2 7009   3.555   4.029   1.680
 2333SOL     OW 7010   2.945   4.708   0.087
 2333SOL    HW1 7011   2.922   4.761   0.005
 2333SOL    HW2 7012   3.026   4.652   0.068
 2334SOL     OW 7013   3.686   3.916   1.227
 2334SOL    HW1 7014   3.682   3.826   1.271
 2334SOL    HW2 7015   3.689   3.905   1.128
 2335SOL     OW 7016   2.290   4.148   0.520
 2335SOL    HW1 7017   2.320   4.076   0.458
 2335SOL    HW2 7018   2.251   4.108   0.603
 2336SOL     OW 7019   2.179   4.271   1.280
 2336SOL    HW1 7020   2.217   4.212   1.352
 2336SOL    HW2 7021   2.219   4.245   1.192
 2337SOL     OW 7022   3.286   3.938   1.112
 2337SOL    HW1 7023   3.338   3.873   1.167
 2337SOL    HW2 7024   3.237   4.001   1.173
 2338SOL     OW 7025   2.863   3.758   1.154
 2338SOL    HW1 7026   2.800   3.686   1.123
 2338SOL    HW2 7027   2.956   3.722   1.154
 2339SOL     OW 7028   3.214   3.776   0.168
 2339SOL    HW1 7029   3.249   3.735   0.084
 2339SOL    HW2 7030   3.124   3.738   0.188
 2340SOL     OW 7031   3.162   4.177   0.691
 2340SOL    HW1 7032   3.103   4.257   0.695
 2340SOL    HW2 7033   3.177   4.142   0.784
 2341SOL     OW 7034   3.455   3.945   0.882
 2341SOL    HW1 7035   3.371   3.944   0.936
 2341SOL    HW2 7036   3.457   4.028   0.826
 2342SOL     OW 7037   2.092   4.352   1.975
 2342SOL    HW1 7038   1.999   4.350   2.012
 2342SOL    HW2 7039   2.093   4.313   1.883
 2343SOL     OW 7040   2.087   3.999   2.858
 2343SOL    HW1 7041   2.122   3.982   2.950
 2343SOL    HW2 7042   1.999   3.954   2.846
 2344SOL     OW 7043   1.881   4.092   2.509
 2344SOL    HW1 7044   1.799   4.135   2.548
 2344SOL    HW2 7045   1.853   4.019   2.446
 2345SOL     OW 7046   3.617   4.331   2.093
 2345SOL    HW1 7047   3.605   4.318   1.994
 2345SOL    HW2 7048   3.587   4.250   2.142
 2346SOL     OW 7049   2.712   4.522   3.685
 2346SOL    HW1 7050   2.708   4.598   3.750
 2346SOL    HW2 7051   2.734   4.558   3.594
 2347SOL     OW 7052   2.547   4.736   2.527
 2347SOL    HW1 7053   2.616   4.720   2.597
 2347SOL    HW2 7054   2.474   4.793   2.565
 2348SOL     OW 7055   2.300   4.116   3.361
 2348SOL    HW1 7056   2.382   4.060   3.370
 2348SOL    HW2 7057   2.219   4.058   3.365
 2349SOL     OW 7058   3.465   4.171   2.599
 2349SOL    HW1 7059   3.391   4.217   2.549
 2349SOL    HW2 7060   3.516   4.239   2.652
 2350SOL     OW 7061   3.456   3.838   3.342
 2350SOL    HW1 7062   3.438   3.905   3.270
 2350SOL    HW2 7063   3.453   3.884   3.431
 2351SOL     OW 7064   1.984   4.367   2.425
 2351SOL    HW1 7065   1.939   4.279   2.442
 2351SOL    HW2 7066   1.983   4.421   2.509
 2352SOL     OW 7067   1.975   4.461   3.459
 2352SOL    HW1 7068   2.063   4.448   3.504
 2352SOL    HW2 7069   1.962   4.558   3.437
 2353SOL     OW 7070   2.671   3.728   2.364
 2353SOL    HW1 7071   2.711   3.819   2.355
 2353SOL    HW2 7072   2.571   3.736   2.370
 2354SOL     OW 7073   2.179   3.975   3.663
 2354SOL    HW1 7074   2.250   4.046   3.669
 2354SOL    HW2 7075   2.091   4.014   3.691
 2355SOL     OW 7076   3.143   4.069   2.806
 2355SOL    HW1 7077   3.057   4.019   2.793
 2355SOL    HW2 7078   3.205   4.015   2.862
 2356SOL     OW 7079   2.669   4.329   3.327
 2356SOL    HW1 7080   2.622   4.326   3.416
 2356SOL    HW2 7081   2.618   4.274   3.261
 2357SOL     OW 7082   3.256   4.193   3.536
 2357SOL    HW1 7083   3.236   4.236   3.624
 2357SOL    HW2 7084   3.334   4.131   3.545
 2358SOL     OW 7085   2.853   4.134   3.104
 2358SOL    HW1 7086   2.776   4.168   3.158
 2358SOL    HW2 7087   2.819   4.083   3.025
 2359SOL     OW 7088   2.903   4.425   2.291
 2359SOL    HW1 7089   2.929   4.421   2.387
 2359SOL    HW2 7090   2.818   4.374   2.277
 2360SOL     OW 7091   2.727   4.072   2.057
 2360SOL    HW1 7092   2.786   4.135   2.008
 2360SOL    HW2 7093   2.746   3.978   2.028
 2361SOL     OW 7094   3.581   4.309   3.693
 2361SOL    HW1 7095   3.555   4.398   3.657
 2361SOL    HW2 7096   3.579   4.241   3.620
 2362SOL     OW 7097   2.412   3.920   2.747
 2362SOL    HW1 7098   2.407   3.915   2.847
 2362SOL    HW2 7099   2.414   4.016   2.718
 2363SOL     OW 7100   3.320   4.459   2.590
 2363SOL    HW1 7101   3.315   4.394   2.665
 2363SOL    HW2 7102   3.400   4.518   2.603
 2364SOL     OW 7103   2.064   4.009   3.360
 2364SOL    HW1 7104   1.984   4.069   3.347
 2364SOL    HW2 7105   2.054   3.960   3.446
 2365SOL     OW 7106   3.262   3.831   2.288
 2365SOL    HW1 7107   3.238   3.794   2.198
 2365SOL    HW2 7108   3.361   3.847   2.292
 2366SOL     OW 7109   2.244   4.424   2.342
 2366SOL    HW1 7110   2.289   4.334   2.339
 2366SOL    HW2 7111   2.150   4.413   2.375
 2367SOL     OW 7112   3.409   3.946   3.591
 2367SOL    HW1 7113   3.404   3.983   3.683
 2367SOL    HW2 7114   3.337   3.877   3.579
 2368SOL     OW 7115   2.476   3.846   1.979
 2368SOL    HW1 7116   2.574   3.824   1.986
 2368SOL    HW2 7117   2.445   3.829   1.886
 2369SOL     OW 7118   2.643   3.988   3.611
 2369SOL    HW1 7119   2.710   3.927   3.654
 2369SOL    HW2 7120   2.570   4.007   3.676
 2370SOL     OW 7121   3.213   4.314   3.295
 2370SOL    HW1 7122   3.241   4.271   3.380
 2370SOL    HW2 7123   3.238   4.410   3.296
 2371SOL     OW 7124   2.784   4.227   2.761
 2371SOL    HW1 7125   2.759   4.218   2.665
 2371SOL    HW2 7126   2.832   4.145   2.792
 2372SOL     OW 7127   2.401   3.788   2.374
 2372SOL    HW1 7128   2.320   3.789   2.432
 2372SOL    HW2 7129   2.404   3.871   2.319
 2373SOL     OW 7130   2.159   3.759   2.033
 2373SOL    HW1 7131   2.208   3.843   2.012
 2373SOL    HW2 7132   2.221   3.694   2.078
 2374SOL     OW 7133   2.797   3.960   2.342
 2374SOL    HW1 7134   2.749   4.001   2.264
 2374SOL    HW2 7135   2.896   3.958   2.323
 2375SOL     OW 7136   2.938   4.407   3.326
 2375SOL    HW1 7137   2.858   4.346   3.329
 2375SOL    HW2 7138   3.019   4.354   3.302
 2376SOL     OW 7139   2.894   4.273   1.878
 2376SOL    HW1 7140   2.853   4.355   1.839
 2376SOL    HW2 7141   2.958   4.299   1.951
 2377SOL     OW 7142   1.940   4.280   3.248
 2377SOL    HW1 7143   2.032   4.279   3.207
 2377SOL    HW2 7144   1.934   4.354   3.315
 2378SOL     OW 7145   2.423   3.946   3.009
 2378SOL    HW1 7146   2.461   3.862   3.046
 2378SOL    HW2 7147   2.335   3.965   3.053
 2379SOL     OW 7148   2.728   4.178   2.504
 2379SOL    HW1 7149   2.696   4.250   2.442
 2379SOL    HW2 7150   2.752   4.097   2.451
 2380SOL     OW 7151   2.879   3.763   2.615
 2380SOL    HW1 7152   2.807   3.768   2.546
 2380SOL    HW2 7153   2.855   3.694   2.684
 2381SOL     OW 7154   3.328   4.314   2.854
 2381SOL    HW1 7155   3.298   4.219   2.861
 2381SOL    HW2 7156   3.401   4.330   2.920
 2382SOL     OW 7157   3.252   4.299   1.940
 2382SOL    HW1 7158   3.198   4.278   2.021
 2382SOL    HW2 7159   3.343   4.258   1.949
 2383SOL     OW 7160   2.389   3.980   2.190
 2383SOL    HW1 7161   2.416   3.921   2.115
 2383SOL    HW2 7162   2.389   4.075   2.159
 2384SOL     OW 7163   2.777   3.813   3.264
 2384SOL    HW1 7164   2.802   3.793   3.169
 2384SOL    HW2 7165   2.849   3.869   3.306
 2385SOL     OW 7166   2.272   4.537   3.113
 2385SOL    HW1 7167   2.358   4.549   3.163
 2385SOL    HW2 7168   2.230   4.450   3.140
 2386SOL     OW 7169   3.136   4.110   3.124
 2386SOL    HW1 7170   3.157   4.184   3.188
 2386SOL    HW2 7171   3.047   4.127   3.081
 2387SOL     OW 7172   2.428   4.261   2.727
 2387SOL    HW1 7173   2.440   4.327   2.653
 2387SOL    HW2 7174   2.474   4.295   2.810
 2388SOL     OW 7175   3.444   4.363   2.334
 2388SOL    HW1 7176   3.413   4.424   2.407
 2388SOL    HW2 7177   3.494   4.415   2.265
 2389SOL     OW 7178   2.875   3.829   3.632
 2389SOL    HW1 7179   2.881   3.914   3.580
 2389SOL    HW2 7180   2.907   3.753   3.575
 2390SOL     OW 7181   2.366   3.774   3.602
 2390SOL    HW1 7182   2.324   3.717   3.532
 2390SOL    HW2 7183   2.300   3.843   3.634
 2391SOL     OW 7184   3.071   4.249   2.137
 2391SOL    HW1 7185   3.084   4.165   2.191
 2391SOL    HW2 7186   3.042   4.323   2.197
 2392SOL     OW 7187   2.169   3.937   3.093
 2392SOL    HW1 7188   2.146   3.974   3.183
 2392SOL    HW2 7189   2.139   3.842   3.087
 2393SOL     OW 7190   2.594   4.358   2.926
 2393SOL    HW1 7191   2.653   4.332   2.850
 2393SOL    HW2 7192   2.566   4.454   2.915
 2394SOL     OW 7193   3.590   4.659   3.716
 2394SOL    HW1 7194   3.544   4.652   3.627
 2394SOL    HW2 7195   3.528   4.703   3.782
 2395SOL     OW 7196   2.169   3.787   2.480
 2395SOL    HW1 7197   2.158   3.881   2.513
 2395SOL    HW2 7198   2.164   3.724   2.557
 2396SOL     OW 7199   3.484   4.091   2.236
 2396SOL    HW1 7200   3.486   4.015   2.300
 2396SOL    HW2 7201   3.436   4.168   2.276
 2397SOL     OW 7202   3.402   3.998   1.987
 2397SOL    HW1 7203   3.341   3.923   2.010
 2397SOL    HW2 7204   3.424   4.050   2.070
 2398SOL     OW 7205   2.181   4.534   2.811
 2398SOL    HW1 7206   2.274   4.570   2.816
 2398SOL    HW2 7207   2.175   4.449   2.863
 2399SOL     OW 7208   2.201   4.233   2.868
 2399SOL    HW1 7209   2.149   4.150   2.851
 2399SOL    HW2 7210   2.278   4.238   2.804
 2400SOL     OW 7211   3.000   4.104   3.540
 2400SOL    HW1 7212   2.955   4.167   3.604
 2400SOL    HW2 7213   3.093   4.135   3.523
 2401SOL     OW 7214   3.022   3.931   3.339
 2401SOL    HW1 7215   3.022   3.995   3.416
 2401SOL    HW2 7216   3.050   3.979   3.256
 2402SOL     OW 7217   1.902   4.268   2.976
 2402SOL    HW1 7218   1.987   4.235   2.935
 2402SOL    HW2 7219   1.915   4.283   3.074
 2403SOL     OW 7220   2.051   4.244   3.584
 2403SOL    HW1 7221   2.110   4.204   3.514
 2403SOL    HW2 7222   1.993   4.315   3.543
 2404SOL     OW 7223   2.677   4.296   2.187
 2404SOL    HW1 7224   2.684   4.207   2.141
 2404SOL    HW2 7225   2.583   4.330   2.179
 2405SOL     OW 7226   3.519   4.328   3.068
 2405SOL    HW1 7227   3.481   4.259   3.130
 2405SOL    HW2 7228   3.601   4.292   3.024
 2406SOL     OW 7229   2.533   4.188   3.131
 2406SOL    HW1 7230   2.499   4.099   3.101
 2406SOL    HW2 7231   2.559   4.242   3.051
 2407SOL     OW 7232   2.335   4.224   2.053
 2407SOL    HW1 7233   2.396   4.304   2.057
 2407SOL    HW2 7234   2.240   4.255   2.060
 2408SOL     OW 7235   3.588   3.859   2.385
 2408SOL    HW1 7236   3.661   3.842   2.318
 2408SOL    HW2 7237   3.557   3.772   2.423
 2409SOL     OW 7238   3.142   4.651   2.534
 2409SOL    HW1 7239   3.202   4.570   2.536
 2409SOL    HW2 7240   3.182   4.720   2.474
 2410SOL     OW 7241   3.703   3.899   2.825
 2410SOL    HW1 7242   3.742   3.814   2.789
 2410SOL    HW2 7243   3.605   3.901   2.806
 2411SOL     OW 7244   2.125   4.050   2.582
 2411SOL    HW1 7245   2.046   4.101   2.548
 2411SOL    HW2 7246   2.116   4.035   2.680
 2412SOL     OW 7247   2.778   4.634   2.153
 2412SOL    HW1 7248   2.841   4.672   2.085
 2412SOL    HW2 7249   2.818   4.551   2.192
 2413SOL     OW 7250   2.901   4.822   2.558
 2413SOL    HW1 7251   2.831   4.775   2.612
 2413SOL    HW2 7252   2.960   4.754   2.515
 2414SOL     OW 7253   2.876   3.960   2.833
 2414SOL    HW1 7254   2.868   3.924   2.740
 2414SOL    HW2 7255   2.874   3.884   2.898
 2415SOL     OW 7256   3.571   4.109   3.243
 2415SOL    HW1 7257   3.644   4.178   3.247
 2415SOL    HW2 7258   3.599   4.034   3.184
 2416SOL     OW 7259   2.534   3.927   3.351
 2416SOL    HW1 7260   2.624   3.911   3.311
 2416SOL    HW2 7261   2.542   3.932   3.450
 2417SOL     OW 7262   1.937   4.069   1.895
 2417SOL    HW1 7263   1.845   4.041   1.866
 2417SOL    HW2 7264   1.968   4.146   1.839
 2418SOL     OW 7265   1.934   3.890   2.180
 2418SOL    HW1 7266   1.917   3.973   2.126
 2418SOL    HW2 7267   2.024   3.853   2.158
 2419SOL     OW 7268   2.578   4.289   3.570
 2419SOL    HW1 7269   2.597   4.354   3.644
 2419SOL    HW2 7270   2.638   4.209   3.579
 2420SOL     OW 7271   3.087   4.049   2.311
 2420SOL    HW1 7272   3.152   3.975   2.300
 2420SOL    HW2 7273   3.107   4.099   2.395
 2421SOL     OW 7274   3.639   4.066   3.504
 2421SOL    HW1 7275   3.622   4.097   3.410
 2421SOL    HW2 7276   3.555   4.029   3.542
 2422SOL     OW 7277   2.945   4.708   1.949
 2422SOL    HW1 7278   2.922   4.761   1.867
 2422SOL    HW2 7279   3.026   4.652   1.930
 2423SOL     OW 7280   3.686   3.916   3.089
 2423SOL    HW1 7281   3.682   3.826   3.133
 2423SOL    HW2 7282   3.689   3.905   2.990
 2424SOL     OW 7283   2.290   4.148   2.382
 2424SOL    HW1 7284   2.320   4.076   2.320
 2424SOL    HW2 7285   2.251   4.108   2.465
 2425SOL     OW 7286   2.179   4.271   3.142
 2425SOL    HW1 7287   2.217   4.212   3.214
 2425SOL    HW2 7288   2.219   4.245   3.054
 2426SOL     OW 7289   3.286   3.938   2.974
 2426SOL    HW1 7290   3.338   3.873   3.029
 2426SOL    HW2 7291   3.237   4.001   3.035
 2427SOL     OW 7292   2.863   3.758   3.016
 2427SOL    HW1 7293   2.800   3.686   2.985
 2427SOL    HW2 7294   2.956   3.722   3.016
 2428SOL     OW 7295   3.214   3.776   2.030
 2428SOL    HW1 7296   3.249   3.735   1.946
 2428SOL    HW2 7297   3.124   3.738   2.050
 2429SOL     OW 7298   3.162   4.177   2.553
 2429SOL    HW1 7299   3.103   4.257   2.557
 2429SOL    HW2 7300   3.177   4.142   2.646
 2430SOL     OW 7301   3.455   3.945   2.744
 2430SOL    HW1 7302   3.371   3.944   2.798
 2430SOL    HW2 7303   3.457   4.028   2.688
 2431SOL     OW 7304   2.092   4.352   3.837
 2431SOL    HW1 7305   1.999   4.350   3.874
 2431SOL    HW2 7306   2.093   4.313   3.745
 2432SOL     OW 7307   2.087   3.999   4.720
 2432SOL    HW1 7308   2.122   3.982   4.812
 2432SOL    HW2 7309   1.999   3.954   4.708
 2433SOL     OW 7310   3.617   4.331   3.955
 2433SOL    HW1 7311   3.605   4.318   3.856
 2433SOL    HW2 7312   3.587   4.250   4.004
 2434SOL     OW 7313   2.547   4.736   4.389
 2434SOL    HW1 7314   2.616   4.720   4.459
 2434SOL    HW2 7315   2.474   4.793   4.427
 2435SOL     OW 7316   3.465   4.171   4.461
 2435SOL    HW1 7317   3.391   4.217   4.411
 2435SOL    HW2 7318   3.516   4.239   4.514
 2436SOL     OW 7319   1.984   4.367   4.287
 2436SOL    HW1 7320   1.939   4.279   4.304
 2436SOL    HW2 7321   1.983   4.421   4.371
 2437SOL     OW 7322   2.671   3.728   4.226
 2437SOL    HW1 7323   2.711   3.819   4.217
 2437SOL    HW2 7324   2.571   3.736   4.232
 2438SOL     OW 7325   3.143   4.069   4.668
 2438SOL    HW1 7326   3.057   4.019   4.655
 2438SOL    HW2 7327   3.205   4.015   4.724
 2439SOL     OW 7328   2.903   4.425   4.153
 2439SOL    HW1 7329   2.929   4.421   4.249
 2439SOL    HW2 7330   2.818   4.374   4.139
 2440SOL     OW 7331   2.727   4.072   3.919
 2440SOL    HW1 7332   2.786   4.135   3.870
 2440SOL    HW2 7333   2.746   3.978   3.890
 2441SOL     OW 7334   3.262   3.831   4.150
 2441SOL    HW1 7335   3.238   3.794   4.060
 2441SOL    HW2 7336   3.361   3.847   4.154
 2442SOL     OW 7337   2.244   4.424   4.204
 2442SOL    HW1 7338   2.289   4.334   4.201
 2442SOL    HW2 7339   2.150   4.413   4.237
 2443SOL     OW 7340   2.476   3.846   3.841
 2443SOL    HW1 7341   2.574   3.824   3.848
 2443SOL    HW2 7342   2.445   3.829   3.748
 2444SOL     OW 7343   2.401   3.788   4.236
 2444SOL    HW1 7344   2.320   3.789   4.294
 2444SOL    HW2 7345   2.404   3.871   4.181
 2445SOL     OW 7346   2.159   3.759   3.895
 2445SOL    HW1 7347   2.208   3.843   3.874
 2445SOL    HW2 7348   2.221   3.694   3.940
 2446SOL     OW 7349   2.797   3.960   4.204
 2446SOL    HW1 7350   2.749   4.001   4.126
 2446SOL    HW2 7351   2.896   3.958   4.185
 2447SOL     OW 7352   2.894   4.273   3.740
 2447SOL    HW1 7353   2.853   4.355   3.701
 2447SOL    HW2 7354   2.958   4.299   3.813
 2448SOL     OW 7355   2.728   4.178   4.366
 2448SOL    HW1 7356   2.696   4.250   4.304
 2448SOL    HW2 7357   2.752   4.097   4.313
 2449SOL     OW 7358   3.252   4.299   3.802
 2449SOL    HW1 7359   3.198   4.278   3.883
 2449SOL    HW2 7360   3.343   4.258   3.811
 2450SOL     OW 7361   2.389   3.980   4.052
 2450SOL    HW1 7362   2.416   3.921   3.977
 2450SOL    HW2 7363   2.389   4.075   4.021
 2451SOL     OW 7364   3.444   4.363   4.196
 2451SOL    HW1 7365   3.413   4.424   4.269
 2451SOL    HW2 7366   3.494   4.415   4.127
 2452SOL     OW 7367   3.071   4.249   3.999
 2452SOL    HW1 7368   3.084   4.165   4.053
 2452SOL    HW2 7369   3.042   4.323   4.059
 2453SOL     OW 7370   2.169   3.787   4.342
 2453SOL    HW1 7371   2.158   3.881   4.375
 2453SOL    HW2 7372   2.164   3.724   4.419
 2454SOL     OW 7373   3.484   4.091   4.098
 2454SOL    HW1 7374   3.486   4.015   4.162
 2454SOL    HW2 7375   3.436   4.168   4.138
 2455SOL     OW 7376   3.402   3.998   3.849
 2455SOL    HW1 7377   3.341   3.923   3.872
 2455SOL    HW2 7378   3.424   4.050   3.932
 2456SOL     OW 7379   2.677   4.296   4.049
 2456SOL    HW1 7380   2.684   4.207   4.003
 2456SOL    HW2 7381   2.583   4.330   4.041
 2457SOL     OW 7382   2.335   4.224   3.915
 2457SOL    HW1 7383   2.396   4.304   3.919
 2457SOL    HW2 7384   2.240   4.255   3.922
 2458SOL     OW 7385   3.588   3.859   4.247
 2458SOL    HW1 7386   3.661   3.842   4.180
 2458SOL    HW2 7387   3.557   3.772   4.285
 2459SOL     OW 7388   3.142   4.651   4.396
 2459SOL    HW1 7389   3.202   4.570   4.398
 2459SOL    HW2 7390   3.182   4.720   4.336
 2460SOL     OW 7391   3.703   3.899   4.687
 2460SOL    HW1 7392   3.742   3.814   4.651
 2460SOL    HW2 7393   3.605   3.901   4.668
 2461SOL     OW 7394   2.778   4.634   4.015
 2461SOL    HW1 7395   2.841   4.672   3.947
 2461SOL    HW2 7396   2.818   4.551   4.054
 2462SOL     OW 7397   1.937   4.069   3.757
 2462SOL    HW1 7398   1.845   4.041   3.728
 2462SOL    HW2 7399   1.968   4.146   3.701
 2463SOL     OW 7400   1.934   3.890   4.042
 2463SOL    HW1 7401   1.917   3.973   3.988
 2463SOL    HW2 7402   2.024   3.853   4.020
 2464SOL     OW 7403   3.087   4.049   4.173
 2464SOL    HW1 7404   3.152   3.975   4.162
 2464SOL    HW2 7405   3.107   4.099   4.257
 2465SOL     OW 7406   2.945   4.708   3.811
 2465SOL    HW1 7407   2.922   4.761   3.729
 2465SOL    HW2 7408   3.026   4.652   3.792
 2466SOL     OW 7409   2.290   4.148   4.244
 2466SOL    HW1 7410   2.320   4.076   4.182
 2466SOL    HW2 7411   2.251   4.108   4.327
 2467SOL     OW 7412   3.214   3.776   3.892
 2467SOL    HW1 7413   3.249   3.735   3.808
 2467SOL    HW2 7414   3.124   3.738   3.912
 2468SOL     OW 7415   3.162   4.177   4.415
 2468SOL    HW1 7416   3.103   4.257   4.419
 2468SOL    HW2 7417   3.177   4.142   4.508
 2469SOL     OW 7418   3.954   0.628   0.113
 2469SOL    HW1 7419   3.861   0.626   0.150
 2469SOL    HW2 7420   3.955   0.589   0.021
 2470SOL     OW 7421   3.949   0.275   0.996
 2470SOL    HW1 7422   3.984   0.258   1.088
 2470SOL    HW2 7423   3.861   0.230   0.984
 2471SOL     OW 7424   3.743   0.368   0.647
 2471SOL    HW1 7425   3.661   0.411   0.686
 2471SOL    HW2 7426   3.715   0.295   0.584
 2472SOL     OW 7427   4.293   1.275   1.165
 2472SOL    HW1 7428   4.200   1.268   1.128
 2472SOL    HW2 7429   4.304   1.364   1.209
 2473SOL     OW 7430   4.574   0.798   1.823
 2473SOL    HW1 7431   4.570   0.874   1.888
 2473SOL    HW2 7432   4.596   0.834   1.732
 2474SOL     OW 7433   4.409   1.012   0.665
 2474SOL    HW1 7434   4.478   0.996   0.735
 2474SOL    HW2 7435   4.336   1.069   0.703
 2475SOL     OW 7436   4.410   1.161   1.803
 2475SOL    HW1 7437   4.470   1.240   1.817
 2475SOL    HW2 7438   4.324   1.192   1.762
 2476SOL     OW 7439   4.059   1.435   1.061
 2476SOL    HW1 7440   3.981   1.404   1.008
 2476SOL    HW2 7441   4.117   1.493   1.004
 2477SOL     OW 7442   4.162   0.392   1.499
 2477SOL    HW1 7443   4.244   0.336   1.508
 2477SOL    HW2 7444   4.081   0.334   1.503
 2478SOL     OW 7445   3.955   1.713   0.483
 2478SOL    HW1 7446   3.989   1.790   0.537
 2478SOL    HW2 7447   3.999   1.713   0.393
 2479SOL     OW 7448   3.954   1.434   0.538
 2479SOL    HW1 7449   3.928   1.530   0.538
 2479SOL    HW2 7450   3.883   1.380   0.583
 2480SOL     OW 7451   3.964   1.091   0.886
 2480SOL    HW1 7452   3.978   1.007   0.938
 2480SOL    HW2 7453   3.909   1.155   0.941
 2481SOL     OW 7454   4.344   1.786   1.439
 2481SOL    HW1 7455   4.252   1.769   1.474
 2481SOL    HW2 7456   4.372   1.878   1.465
 2482SOL     OW 7457   4.330   0.964   0.123
 2482SOL    HW1 7458   4.337   1.048   0.069
 2482SOL    HW2 7459   4.376   0.977   0.211
 2483SOL     OW 7460   3.846   0.643   0.563
 2483SOL    HW1 7461   3.801   0.555   0.580
 2483SOL    HW2 7462   3.845   0.697   0.647
 2484SOL     OW 7463   3.751   1.596   0.117
 2484SOL    HW1 7464   3.732   1.500   0.138
 2484SOL    HW2 7465   3.718   1.654   0.192
 2485SOL     OW 7466   3.837   0.737   1.597
 2485SOL    HW1 7467   3.925   0.724   1.642
 2485SOL    HW2 7468   3.824   0.834   1.575
 2486SOL     OW 7469   4.337   1.365   0.726
 2486SOL    HW1 7470   4.288   1.278   0.735
 2486SOL    HW2 7471   4.314   1.408   0.639
 2487SOL     OW 7472   4.533   0.004   0.502
 2487SOL    HW1 7473   4.573   0.095   0.493
 2487SOL    HW2 7474   4.433   0.012   0.508
 2488SOL     OW 7475   3.921   0.976   1.264
 2488SOL    HW1 7476   4.010   0.931   1.250
 2488SOL    HW2 7477   3.848   0.911   1.245
 2489SOL     OW 7478   4.041   0.251   1.801
 2489SOL    HW1 7479   4.112   0.322   1.807
 2489SOL    HW2 7480   3.953   0.290   1.829
 2490SOL     OW 7481   4.322   0.729   0.270
 2490SOL    HW1 7482   4.346   0.798   0.202
 2490SOL    HW2 7483   4.244   0.762   0.324
 2491SOL     OW 7484   3.800   0.811   0.789
 2491SOL    HW1 7485   3.899   0.799   0.798
 2491SOL    HW2 7486   3.776   0.906   0.810
 2492SOL     OW 7487   3.854   1.821   1.571
 2492SOL    HW1 7488   3.844   1.806   1.670
 2492SOL    HW2 7489   3.768   1.857   1.535
 2493SOL     OW 7490   4.274   0.196   0.885
 2493SOL    HW1 7491   4.269   0.191   0.985
 2493SOL    HW2 7492   4.276   0.292   0.856
 2494SOL     OW 7493   4.075   1.801   0.853
 2494SOL    HW1 7494   4.125   1.715   0.859
 2494SOL    HW2 7495   4.140   1.878   0.850
 2495SOL     OW 7496   4.045   0.943   0.242
 2495SOL    HW1 7497   4.127   0.982   0.200
 2495SOL    HW2 7498   4.018   0.861   0.193
 2496SOL     OW 7499   4.185   1.266   1.727
 2496SOL    HW1 7500   4.135   1.267   1.641
 2496SOL    HW2 7501   4.122   1.248   1.803
 2497SOL     OW 7502   3.926   0.285   1.498
 2497SOL    HW1 7503   3.846   0.345   1.485
 2497SOL    HW2 7504   3.916   0.236   1.584
 2498SOL     OW 7505   4.188   1.743   0.323
 2498SOL    HW1 7506   4.221   1.782   0.409
 2498SOL    HW2 7507   4.264   1.736   0.258
 2499SOL     OW 7508   3.973   1.785   1.241
 2499SOL    HW1 7509   4.030   1.720   1.291
 2499SOL    HW2 7510   3.957   1.752   1.148
 2500SOL     OW 7511   4.106   0.700   0.480
 2500SOL    HW1 7512   4.151   0.610   0.477
 2500SOL    HW2 7513   4.012   0.689   0.513
 2501SOL     OW 7514   4.338   0.122   0.117
 2501SOL    HW1 7515   4.436   0.100   0.124
 2501SOL    HW2 7516   4.307   0.105   0.024
 2502SOL     OW 7517   4.527   1.402   0.924
 2502SOL    HW1 7518   4.617   1.416   0.882
 2502SOL    HW2 7519   4.456   1.404   0.853
 2503SOL     OW 7520   4.263   0.064   0.512
 2503SOL    HW1 7521   4.182   0.065   0.570
 2503SOL    HW2 7522   4.266   0.147   0.457
 2504SOL     OW 7523   4.021   0.035   0.171
 2504SOL    HW1 7524   4.070   0.119   0.150
 2504SOL    HW2 7525   4.083  -0.030   0.216
 2505SOL     OW 7526   4.800   0.683   1.464
 2505SOL    HW1 7527   4.720   0.622   1.467
 2505SOL    HW2 7528   4.881   0.630   1.440
 2506SOL     OW 7529   4.183   1.152   0.741
 2506SOL    HW1 7530   4.112   1.125   0.806
 2506SOL    HW2 7531   4.157   1.124   0.648
 2507SOL     OW 7532   3.802   0.556   1.386
 2507SOL    HW1 7533   3.894   0.555   1.345
 2507SOL    HW2 7534   3.796   0.630   1.453
 2508SOL     OW 7535   4.285   0.222   1.147
 2508SOL    HW1 7536   4.323   0.138   1.184
 2508SOL    HW2 7537   4.197   0.241   1.191
 2509SOL     OW 7538   4.212   1.385   0.174
 2509SOL    HW1 7539   4.125   1.370   0.221
 2509SOL    HW2 7540   4.195   1.411   0.079
 2510SOL     OW 7541   4.251   0.256   0.328
 2510SOL    HW1 7542   4.278   0.197   0.253
 2510SOL    HW2 7543   4.251   0.351   0.297
 2511SOL     OW 7544   4.134   0.813   1.251
 2511SOL    HW1 7545   4.220   0.825   1.301
 2511SOL    HW2 7546   4.092   0.726   1.278
 2512SOL     OW 7547   3.788   1.564   1.331
 2512SOL    HW1 7548   3.742   1.646   1.297
 2512SOL    HW2 7549   3.886   1.583   1.340
 2513SOL     OW 7550   4.091   1.100   0.501
 2513SOL    HW1 7551   4.084   1.183   0.445
 2513SOL    HW2 7552   4.095   1.020   0.441
 2514SOL     OW 7553   4.290   0.537   0.865
 2514SOL    HW1 7554   4.302   0.603   0.791
 2514SOL    HW2 7555   4.336   0.571   0.948
 2515SOL     OW 7556   4.078   1.510   1.329
 2515SOL    HW1 7557   4.057   1.466   1.242
 2515SOL    HW2 7558   4.175   1.536   1.332
 2516SOL     OW 7559   4.126   0.751   1.598
 2516SOL    HW1 7560   4.194   0.806   1.551
 2516SOL    HW2 7561   4.166   0.663   1.625
 2517SOL     OW 7562   4.228   0.050   1.740
 2517SOL    HW1 7563   4.186  -0.007   1.670
 2517SOL    HW2 7564   4.162   0.119   1.772
 2518SOL     OW 7565   4.297   0.870   1.029
 2518SOL    HW1 7566   4.341   0.959   1.020
 2518SOL    HW2 7567   4.234   0.870   1.106
 2519SOL     OW 7568   4.031   0.213   1.231
 2519SOL    HW1 7569   4.008   0.250   1.321
 2519SOL    HW2 7570   4.001   0.118   1.225
 2520SOL     OW 7571   3.761   1.310   1.282
 2520SOL    HW1 7572   3.814   1.261   1.350
 2520SOL    HW2 7573   3.783   1.408   1.287
 2521SOL     OW 7574   4.031   0.063   0.618
 2521SOL    HW1 7575   4.020   0.157   0.651
 2521SOL    HW2 7576   4.026   0.000   0.695
 2522SOL     OW 7577   4.074   0.898   1.804
 2522SOL    HW1 7578   4.150   0.942   1.852
 2522SOL    HW2 7579   4.109   0.851   1.722
 2523SOL     OW 7580   4.043   0.810   0.949
 2523SOL    HW1 7581   4.136   0.846   0.954
 2523SOL    HW2 7582   4.037   0.725   1.001
 2524SOL     OW 7583   4.063   0.509   1.006
 2524SOL    HW1 7584   4.011   0.426   0.989
 2524SOL    HW2 7585   4.140   0.514   0.942
 2525SOL     OW 7586   3.732   1.326   0.200
 2525SOL    HW1 7587   3.639   1.347   0.169
 2525SOL    HW2 7588   3.742   1.227   0.213
 2526SOL     OW 7589   3.812   1.801   0.927
 2526SOL    HW1 7590   3.770   1.715   0.900
 2526SOL    HW2 7591   3.906   1.804   0.893
 2527SOL     OW 7592   4.228   1.568   0.910
 2527SOL    HW1 7593   4.294   1.642   0.919
 2527SOL    HW2 7594   4.272   1.489   0.868
 2528SOL     OW 7595   3.764   0.544   1.114
 2528SOL    HW1 7596   3.849   0.511   1.073
 2528SOL    HW2 7597   3.777   0.559   1.212
 2529SOL     OW 7598   3.913   0.520   1.722
 2529SOL    HW1 7599   3.972   0.480   1.652
 2529SOL    HW2 7600   3.855   0.591   1.681
 2530SOL     OW 7601   4.539   0.572   0.325
 2530SOL    HW1 7602   4.546   0.483   0.279
 2530SOL    HW2 7603   4.445   0.606   0.317
 2531SOL     OW 7604   3.976   1.564   1.744
 2531SOL    HW1 7605   3.946   1.621   1.820
 2531SOL    HW2 7606   3.969   1.467   1.770
 2532SOL     OW 7607   4.197   0.500   0.191
 2532SOL    HW1 7608   4.258   0.580   0.195
 2532SOL    HW2 7609   4.102   0.531   0.198
 2533SOL     OW 7610   3.883   1.137   1.466
 2533SOL    HW1 7611   3.905   1.076   1.542
 2533SOL    HW2 7612   3.893   1.088   1.380
 2534SOL     OW 7613   3.807   1.258   1.022
 2534SOL    HW1 7614   3.802   1.257   1.122
 2534SOL    HW2 7615   3.724   1.217   0.984
 2535SOL     OW 7616   4.412   1.662   1.716
 2535SOL    HW1 7617   4.356   1.743   1.725
 2535SOL    HW2 7618   4.464   1.666   1.630
 2536SOL     OW 7619   3.854   1.794   1.851
 2536SOL    HW1 7620   3.813   1.720   1.904
 2536SOL    HW2 7621   3.918   1.845   1.909
 2537SOL     OW 7622   3.987   0.326   0.720
 2537SOL    HW1 7623   3.908   0.377   0.686
 2537SOL    HW2 7624   3.978   0.311   0.818
 2538SOL     OW 7625   4.096   1.288   1.490
 2538SOL    HW1 7626   4.083   1.381   1.456
 2538SOL    HW2 7627   4.012   1.236   1.477
 2539SOL     OW 7628   4.314   1.487   0.491
 2539SOL    HW1 7629   4.356   1.429   0.421
 2539SOL    HW2 7630   4.270   1.566   0.447
 2540SOL     OW 7631   3.979   1.348   0.290
 2540SOL    HW1 7632   3.883   1.349   0.263
 2540SOL    HW2 7633   3.991   1.401   0.374
 2541SOL     OW 7634   3.829   1.013   1.726
 2541SOL    HW1 7635   3.752   0.980   1.780
 2541SOL    HW2 7636   3.914   0.983   1.768
 2542SOL     OW 7637   4.396   0.203   1.489
 2542SOL    HW1 7638   4.486   0.187   1.449
 2542SOL    HW2 7639   4.404   0.208   1.588
 2543SOL     OW 7640   3.799   0.345   0.033
 2543SOL    HW1 7641   3.707   0.317   0.004
 2543SOL    HW2 7642   3.830   0.422  -0.023
 2544SOL     OW 7643   4.337   0.842   1.431
 2544SOL    HW1 7644   4.393   0.923   1.414
 2544SOL    HW2 7645   4.396   0.762   1.434
 2545SOL     OW 7646   4.440   0.565   1.708
 2545SOL    HW1 7647   4.459   0.630   1.782
 2545SOL    HW2 7648   4.500   0.485   1.717
 2546SOL     OW 7649   4.114   1.741   1.560
 2546SOL    HW1 7650   4.023   1.782   1.558
 2546SOL    HW2 7651   4.107   1.647   1.592
 2547SOL     OW 7652   4.318   0.745   0.652
 2547SOL    HW1 7653   4.368   0.830   0.633
 2547SOL    HW2 7654   4.230   0.747   0.604
 2548SOL     OW 7655   3.945   1.314   1.844
 2548SOL    HW1 7656   3.880   1.241   1.823
 2548SOL    HW2 7657   3.949   1.328   1.942
 2549SOL     OW 7658   3.803   1.240   0.653
 2549SOL    HW1 7659   3.802   1.193   0.741
 2549SOL    HW2 7660   3.885   1.212   0.602
 2550SOL     OW 7661   4.396   1.391   1.624
 2550SOL    HW1 7662   4.318   1.341   1.662
 2550SOL    HW2 7663   4.393   1.486   1.655
 2551SOL     OW 7664   4.152   0.424   0.520
 2551SOL    HW1 7665   4.182   0.352   0.458
 2551SOL    HW2 7666   4.113   0.384   0.603
 2552SOL     OW 7667   4.041   0.547   1.280
 2552SOL    HW1 7668   4.079   0.488   1.352
 2552SOL    HW2 7669   4.081   0.521   1.192
 2553SOL     OW 7670   4.536   1.586   0.687
 2553SOL    HW1 7671   4.568   1.596   0.593
 2553SOL    HW2 7672   4.457   1.524   0.689
 2554SOL     OW 7673   3.763   1.077   0.300
 2554SOL    HW1 7674   3.862   1.066   0.291
 2554SOL    HW2 7675   3.723   0.991   0.332
 2555SOL     OW 7676   3.954   0.628   1.975
 2555SOL    HW1 7677   3.861   0.626   2.012
 2555SOL    HW2 7678   3.955   0.589   1.883
 2556SOL     OW 7679   3.949   0.275   2.858
 2556SOL    HW1 7680   3.984   0.258   2.950
 2556SOL    HW2 7681   3.861   0.230   2.846
 2557SOL     OW 7682   3.743   0.368   2.509
 2557SOL    HW1 7683   3.661   0.411   2.548
 2557SOL    HW2 7684   3.715   0.295   2.446
 2558SOL     OW 7685   4.293   1.275   3.027
 2558SOL    HW1 7686   4.200   1.268   2.990
 2558SOL    HW2 7687   4.304   1.364   3.071
 2559SOL     OW 7688   4.574   0.798   3.685
 2559SOL    HW1 7689   4.570   0.874   3.750
 2559SOL    HW2 7690   4.596   0.834   3.594
 2560SOL     OW 7691   4.409   1.012   2.527
 2560SOL    HW1 7692   4.478   0.996   2.597
 2560SOL    HW2 7693   4.336   1.069   2.565
 2561SOL     OW 7694   4.410   1.161   3.665
 2561SOL    HW1 7695   4.470   1.240   3.679
 2561SOL    HW2 7696   4.324   1.192   3.624
 2562SOL     OW 7697   4.059   1.435   2.923
 2562SOL    HW1 7698   3.981   1.404   2.870
 2562SOL    HW2 7699   4.117   1.493   2.866
 2563SOL     OW 7700   4.162   0.392   3.361
 2563SOL    HW1 7701   4.244   0.336   3.370
 2563SOL    HW2 7702   4.081   0.334   3.365
 2564SOL     OW 7703   3.955   1.713   2.345
 2564SOL    HW1 7704   3.989   1.790   2.399
 2564SOL    HW2 7705   3.999   1.713   2.255
 2565SOL     OW 7706   3.954   1.434   2.400
 2565SOL    HW1 7707   3.928   1.530   2.400
 2565SOL    HW2 7708   3.883   1.380   2.445
 2566SOL     OW 7709   3.964   1.091   2.748
 2566SOL    HW1 7710   3.978   1.007   2.800
 2566SOL    HW2 7711   3.909   1.155   2.803
 2567SOL     OW 7712   4.344   1.786   3.301
 2567SOL    HW1 7713   4.252   1.769   3.336
 2567SOL    HW2 7714   4.372   1.878   3.327
 2568SOL     OW 7715   4.330   0.964   1.985
 2568SOL    HW1 7716   4.337   1.048   1.931
 2568SOL    HW2 7717   4.376   0.977   2.073
 2569SOL     OW 7718   3.846   0.643   2.425
 2569SOL    HW1 7719   3.801   0.555   2.442
 2569SOL    HW2 7720   3.845   0.697   2.509
 2570SOL     OW 7721   3.751   1.596   1.979
 2570SOL    HW1 7722   3.732   1.500   2.000
 2570SOL    HW2 7723   3.718   1.654   2.054
 2571SOL     OW 7724   3.837   0.737   3.459
 2571SOL    HW1 7725   3.925   0.724   3.504
 2571SOL    HW2 7726   3.824   0.834   3.437
 2572SOL     OW 7727   4.337   1.365   2.588
 2572SOL    HW1 7728   4.288   1.278   2.597
 2572SOL    HW2 7729   4.314   1.408   2.501
 2573SOL     OW 7730   4.533   0.004   2.364
 2573SOL    HW1 7731   4.573   0.095   2.355
 2573SOL    HW2 7732   4.433   0.012   2.370
 2574SOL     OW 7733   3.921   0.976   3.126
 2574SOL    HW1 7734   4.010   0.931   3.112
 2574SOL    HW2 7735   3.848   0.911   3.107
 2575SOL     OW 7736   4.041   0.251   3.663
 2575SOL    HW1 7737   4.112   0.322   3.669
 2575SOL    HW2 7738   3.953   0.290   3.691
 2576SOL     OW 7739   4.322   0.729   2.132
 2576SOL    HW1 7740   4.346   0.798   2.064
 2576SOL    HW2 7741   4.244   0.762   2.186
 2577SOL     OW 7742   3.800   0.811   2.651
 2577SOL    HW1 7743   3.899   0.799   2.660
 2577SOL    HW2 7744   3.776   0.906   2.672
 2578SOL     OW 7745   3.854   1.821   3.433
 2578SOL    HW1 7746   3.844   1.806   3.532
 2578SOL    HW2 7747   3.768   1.857   3.397
 2579SOL     OW 7748   4.274   0.196   2.747
 2579SOL    HW1 7749   4.269   0.191   2.847
 2579SOL    HW2 7750   4.276   0.292   2.718
 2580SOL     OW 7751   4.075   1.801   2.715
 2580SOL    HW1 7752   4.125   1.715   2.721
 2580SOL    HW2 7753   4.140   1.878   2.712
 2581SOL     OW 7754   4.045   0.943   2.104
 2581SOL    HW1 7755   4.127   0.982   2.062
 2581SOL    HW2 7756   4.018   0.861   2.055
 2582SOL     OW 7757   4.185   1.266   3.589
 2582SOL    HW1 7758   4.135   1.267   3.503
 2582SOL    HW2 7759   4.122   1.248   3.665
 2583SOL     OW 7760   3.926   0.285   3.360
 2583SOL    HW1 7761   3.846   0.345   3.347
 2583SOL    HW2 7762   3.916   0.236   3.446
 2584SOL     OW 7763   4.188   1.743   2.185
 2584SOL    HW1 7764   4.221   1.782   2.271
 2584SOL    HW2 7765   4.264   1.736   2.120
 2585SOL     OW 7766   3.973   1.785   3.103
 2585SOL    HW1 7767   4.030   1.720   3.153
 2585SOL    HW2 7768   3.957   1.752   3.010
 2586SOL     OW 7769   4.106   0.700   2.342
 2586SOL    HW1 7770   4.151   0.610   2.339
 2586SOL    HW2 7771   4.012   0.689   2.375
 2587SOL     OW 7772   4.338   0.122   1.979
 2587SOL    HW1 7773   4.436   0.100   1.986
 2587SOL    HW2 7774   4.307   0.105   1.886
 2588SOL     OW 7775   4.527   1.402   2.786
 2588SOL    HW1 7776   4.617   1.416   2.744
 2588SOL    HW2 7777   4.456   1.404   2.715
 2589SOL     OW 7778   4.263   0.064   2.374
 2589SOL    HW1 7779   4.182   0.065   2.432
 2589SOL    HW2 7780   4.266   0.147   2.319
 2590SOL     OW 7781   4.021   0.035   2.033
 2590SOL    HW1 7782   4.070   0.119   2.012
 2590SOL    HW2 7783   4.083  -0.030   2.078
 2591SOL     OW 7784   4.800   0.683   3.326
 2591SOL    HW1 7785   4.720   0.622   3.329
 2591SOL    HW2 7786   4.881   0.630   3.302
 2592SOL     OW 7787   4.183   1.152   2.603
 2592SOL    HW1 7788   4.112   1.125   2.668
 2592SOL    HW2 7789   4.157   1.124   2.510
 2593SOL     OW 7790   3.802   0.556   3.248
 2593SOL    HW1 7791   3.894   0.555   3.207
 2593SOL    HW2 7792   3.796   0.630   3.315
 2594SOL     OW 7793   4.285   0.222   3.009
 2594SOL    HW1 7794   4.323   0.138   3.046
 2594SOL    HW2 7795   4.197   0.241   3.053
 2595SOL     OW 7796   4.212   1.385   2.036
 2595SOL    HW1 7797   4.125   1.370   2.083
 2595SOL    HW2 7798   4.195   1.411   1.941
 2596SOL     OW 7799   4.251   0.256   2.190
 2596SOL    HW1 7800   4.278   0.197   2.115
 2596SOL    HW2 7801   4.251   0.351   2.159
 2597SOL     OW 7802   4.134   0.813   3.113
 2597SOL    HW1 7803   4.220   0.825   3.163
 2597SOL    HW2 7804   4.092   0.726   3.140
 2598SOL     OW 7805   3.788   1.564   3.193
 2598SOL    HW1 7806   3.742   1.646   3.159
 2598SOL    HW2 7807   3.886   1.583   3.202
 2599SOL     OW 7808   4.091   1.100   2.363
 2599SOL    HW1 7809   4.084   1.183   2.307
 2599SOL    HW2 7810   4.095   1.020   2.303
 2600SOL     OW 7811   4.290   0.537   2.727
 2600SOL    HW1 7812   4.302   0.603   2.653
 2600SOL    HW2 7813   4.336   0.571   2.810
 2601SOL     OW 7814   4.078   1.510   3.191
 2601SOL    HW1 7815   4.057   1.466   3.104
 2601SOL    HW2 7816   4.175   1.536   3.194
 2602SOL     OW 7817   4.126   0.751   3.460
 2602SOL    HW1 7818   4.194   0.806   3.413
 2602SOL    HW2 7819   4.166   0.663   3.487
 2603SOL     OW 7820   4.228   0.050   3.602
 2603SOL    HW1 7821   4.186  -0.007   3.532
 2603SOL    HW2 7822   4.162   0.119   3.634
 2604SOL     OW 7823   4.297   0.870   2.891
 2604SOL    HW1 7824   4.341   0.959   2.882
 2604SOL    HW2 7825   4.234   0.870   2.968
 2605SOL     OW 7826   4.031   0.213   3.093
 2605SOL    HW1 7827   4.008   0.250   3.183
 2605SOL    HW2 7828   4.001   0.118   3.087
 2606SOL     OW 7829   3.761   1.310   3.144
 2606SOL    HW1 7830   3.814   1.261   3.212
 2606SOL    HW2 7831   3.783   1.408   3.149
 2607SOL     OW 7832   4.031   0.063   2.480
 2607SOL    HW1 7833   4.020   0.157   2.513
 2607SOL    HW2 7834   4.026   0.000   2.557
 2608SOL     OW 7835   4.074   0.898   3.666
 2608SOL    HW1 7836   4.150   0.942   3.714
 2608SOL    HW2 7837   4.109   0.851   3.584
 2609SOL     OW 7838   4.043   0.810   2.811
 2609SOL    HW1 7839   4.136   0.846   2.816
 2609SOL    HW2 7840   4.037   0.725   2.863
 2610SOL     OW 7841   4.063   0.509   2.868
 2610SOL    HW1 7842   4.011   0.426   2.851
 2610SOL    HW2 7843   4.140   0.514   2.804
 2611SOL     OW 7844   3.732   1.326   2.062
 2611SOL    HW1 7845   3.639   1.347   2.031
 2611SOL    HW2 7846   3.742   1.227   2.075
 2612SOL     OW 7847   3.812   1.801   2.789
 2612SOL    HW1 7848   3.770   1.715   2.762
 2612SOL    HW2 7849   3.906   1.804   2.755
 2613SOL     OW 7850   4.228   1.568   2.772
 2613SOL    HW1 7851   4.294   1.642   2.781
 2613SOL    HW2 7852   4.272   1.489   2.730
 2614SOL     OW 7853   3.764   0.544   2.976
 2614SOL    HW1 7854   3.849   0.511   2.935
 2614SOL    HW2 7855   3.777   0.559   3.074
 2615SOL     OW 7856   3.913   0.520   3.584
 2615SOL    HW1 7857   3.972   0.480   3.514
 2615SOL    HW2 7858   3.855   0.591   3.543
 2616SOL     OW 7859   4.539   0.572   2.187
 2616SOL    HW1 7860   4.546   0.483   2.141
 2616SOL    HW2 7861   4.445   0.606   2.179
 2617SOL     OW 7862   3.976   1.564   3.606
 2617SOL    HW1 7863   3.946   1.621   3.682
 2617SOL    HW2 7864   3.969   1.467   3.632
 2618SOL     OW 7865   4.197   0.500   2.053
 2618SOL    HW1 7866   4.258   0.580   2.057
 2618SOL    HW2 7867   4.102   0.531   2.060
 2619SOL     OW 7868   3.883   1.137   3.328
 2619SOL    HW1 7869   3.905   1.076   3.404
 2619SOL    HW2 7870   3.893   1.088   3.242
 2620SOL     OW 7871   3.807   1.258   2.884
 2620SOL    HW1 7872   3.802   1.257   2.984
 2620SOL    HW2 7873   3.724   1.217   2.846
 2621SOL     OW 7874   4.412   1.662   3.578
 2621SOL    HW1 7875   4.356   1.743   3.587
 2621SOL    HW2 7876   4.464   1.666   3.492
 2622SOL     OW 7877   3.854   1.794   3.713
 2622SOL    HW1 7878   3.813   1.720   3.766
 2622SOL    HW2 7879   3.918   1.845   3.771
 2623SOL     OW 7880   3.987   0.326   2.582
 2623SOL    HW1 7881   3.908   0.377   2.548
 2623SOL    HW2 7882   3.978   0.311   2.680
 2624SOL     OW 7883   4.096   1.288   3.352
 2624SOL    HW1 7884   4.083   1.381   3.318
 2624SOL    HW2 7885   4.012   1.236   3.339
 2625SOL     OW 7886   4.314   1.487   2.353
 2625SOL    HW1 7887   4.356   1.429   2.283
 2625SOL    HW2 7888   4.270   1.566   2.309
 2626SOL     OW 7889   3.979   1.348   2.152
 2626SOL    HW1 7890   3.883   1.349   2.125
 2626SOL    HW2 7891   3.991   1.401   2.236
 2627SOL     OW 7892   3.829   1.013   3.588
 2627SOL    HW1 7893   3.752   0.980   3.642
 2627SOL    HW2 7894   3.914   0.983   3.630
 2628SOL     OW 7895   4.396   0.203   3.351
 2628SOL    HW1 7896   4.486   0.187   3.311
 2628SOL    HW2 7897   4.404   0.208   3.450
 2629SOL     OW 7898   3.799   0.345   1.895
 2629SOL    HW1 7899   3.707   0.317   1.866
 2629SOL    HW2 7900   3.830   0.422   1.839
 2630SOL     OW 7901   3.796   0.166   2.180
 2630SOL    HW1 7902   3.779   0.249   2.126
 2630SOL    HW2 7903   3.886   0.129   2.158
 2631SOL     OW 7904   4.337   0.842   3.293
 2631SOL    HW1 7905   4.393   0.923   3.276
 2631SOL    HW2 7906   4.396   0.762   3.296
 2632SOL     OW 7907   4.440   0.565   3.570
 2632SOL    HW1 7908   4.459   0.630   3.644
 2632SOL    HW2 7909   4.500   0.485   3.579
 2633SOL     OW 7910   4.114   1.741   3.422
 2633SOL    HW1 7911   4.023   1.782   3.420
 2633SOL    HW2 7912   4.107   1.647   3.454
 2634SOL     OW 7913   4.318   0.745   2.514
 2634SOL    HW1 7914   4.368   0.830   2.495
 2634SOL    HW2 7915   4.230   0.747   2.466
 2635SOL     OW 7916   3.945   1.314   3.706
 2635SOL    HW1 7917   3.880   1.241   3.685
 2635SOL    HW2 7918   3.949   1.328   3.804
 2636SOL     OW 7919   3.803   1.240   2.515
 2636SOL    HW1 7920   3.802   1.193   2.603
 2636SOL    HW2 7921   3.885   1.212   2.464
 2637SOL     OW 7922   4.396   1.391   3.486
 2637SOL    HW1 7923   4.318   1.341   3.524
 2637SOL    HW2 7924   4.393   1.486   3.517
 2638SOL     OW 7925   4.152   0.424   2.382
 2638SOL    HW1 7926   4.182   0.352   2.320
 2638SOL    HW2 7927   4.113   0.384   2.465
 2639SOL     OW 7928   4.041   0.547   3.142
 2639SOL    HW1 7929   4.079   0.488   3.214
 2639SOL    HW2 7930   4.081   0.521   3.054
 2640SOL     OW 7931   4.536   1.586   2.549
 2640SOL    HW1 7932   4.568   1.596   2.455
 2640SOL    HW2 7933   4.457   1.524   2.551
 2641SOL     OW 7934   3.763   1.077   2.162
 2641SOL    HW1 7935   3.862   1.066   2.153
 2641SOL    HW2 7936   3.723   0.991   2.194
 2642SOL     OW 7937   3.954   0.628   3.837
 2642SOL    HW1 7938   3.861   0.626   3.874
 2642SOL    HW2 7939   3.955   0.589   3.745
 2643SOL     OW 7940   3.949   0.275   4.720
 2643SOL    HW1 7941   3.984   0.258   4.812
 2643SOL    HW2 7942   3.861   0.230   4.708
 2644SOL     OW 7943   4.409   1.012   4.389
 2644SOL    HW1 7944   4.478   0.996   4.459
 2644SOL    HW2 7945   4.336   1.069   4.427
 2645SOL     OW 7946   3.955   1.713   4.207
 2645SOL    HW1 7947   3.989   1.790   4.261
 2645SOL    HW2 7948   3.999   1.713   4.117
 2646SOL     OW 7949   3.954   1.434   4.262
 2646SOL    HW1 7950   3.928   1.530   4.262
 2646SOL    HW2 7951   3.883   1.380   4.307
 2647SOL     OW 7952   4.330   0.964   3.847
 2647SOL    HW1 7953   4.337   1.048   3.793
 2647SOL    HW2 7954   4.376   0.977   3.935
 2648SOL     OW 7955   3.846   0.643   4.287
 2648SOL    HW1 7956   3.801   0.555   4.304
 2648SOL    HW2 7957   3.845   0.697   4.371
 2649SOL     OW 7958   3.751   1.596   3.841
 2649SOL    HW1 7959   3.732   1.500   3.862
 2649SOL    HW2 7960   3.718   1.654   3.916
 2650SOL     OW 7961   4.337   1.365   4.450
 2650SOL    HW1 7962   4.288   1.278   4.459
 2650SOL    HW2 7963   4.314   1.408   4.363
 2651SOL     OW 7964   4.533   0.004   4.226
 2651SOL    HW1 7965   4.573   0.095   4.217
 2651SOL    HW2 7966   4.433   0.012   4.232
 2652SOL     OW 7967   4.322   0.729   3.994
 2652SOL    HW1 7968   4.346   0.798   3.926
 2652SOL    HW2 7969   4.244   0.762   4.048
 2653SOL     OW 7970   3.800   0.811   4.513
 2653SOL    HW1 7971   3.899   0.799   4.522
 2653SOL    HW2 7972   3.776   0.906   4.534
 2654SOL     OW 7973   4.075   1.801   4.577
 2654SOL    HW1 7974   4.125   1.715   4.583
 2654SOL    HW2 7975   4.140   1.878   4.574
 2655SOL     OW 7976   4.045   0.943   3.966
 2655SOL    HW1 7977   4.127   0.982   3.924
 2655SOL    HW2 7978   4.018   0.861   3.917
 2656SOL     OW 7979   4.188   1.743   4.047
 2656SOL    HW1 7980   4.221   1.782   4.133
 2656SOL    HW2 7981   4.264   1.736   3.982
 2657SOL     OW 7982   4.106   0.700   4.204
 2657SOL    HW1 7983   4.151   0.610   4.201
 2657SOL    HW2 7984   4.012   0.689   4.237
 2658SOL     OW 7985   4.338   0.122   3.841
 2658SOL    HW1 7986   4.436   0.100   3.848
 2658SOL    HW2 7987   4.307   0.105   3.748
 2659SOL     OW 7988   4.263   0.064   4.236
 2659SOL    HW1 7989   4.182   0.065   4.294
 2659SOL    HW2 7990   4.266   0.147   4.181
 2660SOL     OW 7991   4.021   0.035   3.895
 2660SOL    HW1 7992   4.070   0.119   3.874
 2660SOL    HW2 7993   4.083  -0.030   3.940
 2661SOL     OW 7994   4.183   1.152   4.465
 2661SOL    HW1 7995   4.112   1.125   4.530
 2661SOL    HW2 7996   4.157   1.124   4.372
 2662SOL     OW 7997   4.212   1.385   3.898
 2662SOL    HW1 7998   4.125   1.370   3.945
 2662SOL    HW2 7999   4.195   1.411   3.803
 2663SOL     OW 8000   4.251   0.256   4.052
 2663SOL    HW1 8001   4.278   0.197   3.977
 2663SOL    HW2 8002   4.251   0.351   4.021
 2664SOL     OW 8003   4.091   1.100   4.225
 2664SOL    HW1 8004   4.084   1.183   4.169
 2664SOL    HW2 8005   4.095   1.020   4.165
 2665SOL     OW 8006   4.031   0.063   4.342
 2665SOL    HW1 8007   4.020   0.157   4.375
 2665SOL    HW2 8008   4.026   0.000   4.419
 2666SOL     OW 8009   3.732   1.326   3.924
 2666SOL    HW1 8010   3.639   1.347   3.893
 2666SOL    HW2 8011   3.742   1.227   3.937
 2667SOL     OW 8012   4.539   0.572   4.049
 2667SOL    HW1 8013   4.546   0.483   4.003
 2667SOL    HW2 8014   4.445   0.606   4.041
 2668SOL     OW 8015   4.197   0.500   3.915
 2668SOL    HW1 8016   4.258   0.580   3.919
 2668SOL    HW2 8017   4.102   0.531   3.922
 2669SOL     OW 8018   4.763   1.098   4.420
 2669SOL    HW1 8019   4.693   1.051   4.474
 2669SOL    HW2 8020   4.822   1.030   4.377
 2670SOL     OW 8021   4.314   1.487   4.215
 2670SOL    HW1 8022   4.356   1.429   4.145
 2670SOL    HW2 8023   4.270   1.566   4.171
 2671SOL     OW 8024   3.979   1.348   4.014
 2671SOL    HW1 8025   3.883   1.349   3.987
 2671SOL    HW2 8026   3.991   1.401   4.098
 2672SOL     OW 8027   3.799   0.345   3.757
 2672SOL    HW1 8028   3.707   0.317   3.728
 2672SOL    HW2 8029   3.830   0.422   3.701
 2673SOL     OW 8030   3.796   0.166   4.042
 2673SOL    HW1 8031   3.779   0.249   3.988
 2673SOL    HW2 8032   3.886   0.129   4.020
 2674SOL     OW 8033   4.318   0.745   4.376
 2674SOL    HW1 8034   4.368   0.830   4.357
 2674SOL    HW2 8035   4.230   0.747   4.328
 2675SOL     OW 8036   4.385   1.790   4.677
 2675SOL    HW1 8037   4.339   1.878   4.664
 2675SOL    HW2 8038   4.484   1.802   4.670
 2676SOL     OW 8039   3.803   1.240   4.377
 2676SOL    HW1 8040   3.802   1.193   4.465
 2676SOL    HW2 8041   3.885   1.212   4.326
 2677SOL     OW 8042   4.152   0.424   4.244
 2677SOL    HW1 8043   4.182   0.352   4.182
 2677SOL    HW2 8044   4.113   0.384   4.327
 2678SOL     OW 8045   4.536   1.586   4.411
 2678SOL    HW1 8046   4.568   1.596   4.317
 2678SOL    HW2 8047   4.457   1.524   4.413
 2679SOL     OW 8048   3.763   1.077   4.024
 2679SOL    HW1 8049   3.862   1.066   4.015
 2679SOL    HW2 8050   3.723   0.991   4.056
 2680SOL     OW 8051   3.954   2.490   0.113
 2680SOL    HW1 8052   3.861   2.488   0.150
 2680SOL    HW2 8053   3.955   2.451   0.021
 2681SOL     OW 8054   3.949   2.137   0.996
 2681SOL    HW1 8055   3.984   2.120   1.088
 2681SOL    HW2 8056   3.861   2.092   0.984
 2682SOL     OW 8057   3.743   2.230   0.647
 2682SOL    HW1 8058   3.661   2.273   0.686
 2682SOL    HW2 8059   3.715   2.157   0.584
 2683SOL     OW 8060   4.293   3.137   1.165
 2683SOL    HW1 8061   4.200   3.130   1.128
 2683SOL    HW2 8062   4.304   3.226   1.209
 2684SOL     OW 8063   4.574   2.660   1.823
 2684SOL    HW1 8064   4.570   2.736   1.888
 2684SOL    HW2 8065   4.596   2.696   1.732
 2685SOL     OW 8066   4.409   2.874   0.665
 2685SOL    HW1 8067   4.478   2.858   0.735
 2685SOL    HW2 8068   4.336   2.931   0.703
 2686SOL     OW 8069   4.410   3.023   1.803
 2686SOL    HW1 8070   4.470   3.102   1.817
 2686SOL    HW2 8071   4.324   3.054   1.762
 2687SOL     OW 8072   4.059   3.297   1.061
 2687SOL    HW1 8073   3.981   3.266   1.008
 2687SOL    HW2 8074   4.117   3.355   1.004
 2688SOL     OW 8075   4.162   2.254   1.499
 2688SOL    HW1 8076   4.244   2.198   1.508
 2688SOL    HW2 8077   4.081   2.196   1.503
 2689SOL     OW 8078   3.955   3.575   0.483
 2689SOL    HW1 8079   3.989   3.652   0.537
 2689SOL    HW2 8080   3.999   3.575   0.393
 2690SOL     OW 8081   3.954   3.296   0.538
 2690SOL    HW1 8082   3.928   3.392   0.538
 2690SOL    HW2 8083   3.883   3.242   0.583
 2691SOL     OW 8084   3.964   2.953   0.886
 2691SOL    HW1 8085   3.978   2.869   0.938
 2691SOL    HW2 8086   3.909   3.017   0.941
 2692SOL     OW 8087   4.344   3.648   1.439
 2692SOL    HW1 8088   4.252   3.631   1.474
 2692SOL    HW2 8089   4.372   3.740   1.465
 2693SOL     OW 8090   4.330   2.826   0.123
 2693SOL    HW1 8091   4.337   2.910   0.069
 2693SOL    HW2 8092   4.376   2.839   0.211
 2694SOL     OW 8093   3.846   2.505   0.563
 2694SOL    HW1 8094   3.801   2.417   0.580
 2694SOL    HW2 8095   3.845   2.559   0.647
 2695SOL     OW 8096   3.751   3.458   0.117
 2695SOL    HW1 8097   3.732   3.362   0.138
 2695SOL    HW2 8098   3.718   3.516   0.192
 2696SOL     OW 8099   3.837   2.599   1.597
 2696SOL    HW1 8100   3.925   2.586   1.642
 2696SOL    HW2 8101   3.824   2.696   1.575
 2697SOL     OW 8102   4.337   3.227   0.726
 2697SOL    HW1 8103   4.288   3.140   0.735
 2697SOL    HW2 8104   4.314   3.270   0.639
 2698SOL     OW 8105   4.533   1.866   0.502
 2698SOL    HW1 8106   4.573   1.957   0.493
 2698SOL    HW2 8107   4.433   1.874   0.508
 2699SOL     OW 8108   3.921   2.838   1.264
 2699SOL    HW1 8109   4.010   2.793   1.250
 2699SOL    HW2 8110   3.848   2.773   1.245
 2700SOL     OW 8111   4.041   2.113   1.801
 2700SOL    HW1 8112   4.112   2.184   1.807
 2700SOL    HW2 8113   3.953   2.152   1.829
 2701SOL     OW 8114   4.322   2.591   0.270
 2701SOL    HW1 8115   4.346   2.660   0.202
 2701SOL    HW2 8116   4.244   2.624   0.324
 2702SOL     OW 8117   3.800   2.673   0.789
 2702SOL    HW1 8118   3.899   2.661   0.798
 2702SOL    HW2 8119   3.776   2.768   0.810
 2703SOL     OW 8120   3.854   3.683   1.571
 2703SOL    HW1 8121   3.844   3.668   1.670
 2703SOL    HW2 8122   3.768   3.719   1.535
 2704SOL     OW 8123   4.274   2.058   0.885
 2704SOL    HW1 8124   4.269   2.053   0.985
 2704SOL    HW2 8125   4.276   2.154   0.856
 2705SOL     OW 8126   4.075   3.663   0.853
 2705SOL    HW1 8127   4.125   3.577   0.859
 2705SOL    HW2 8128   4.140   3.740   0.850
 2706SOL     OW 8129   4.045   2.805   0.242
 2706SOL    HW1 8130   4.127   2.844   0.200
 2706SOL    HW2 8131   4.018   2.723   0.193
 2707SOL     OW 8132   4.185   3.128   1.727
 2707SOL    HW1 8133   4.135   3.129   1.641
 2707SOL    HW2 8134   4.122   3.110   1.803
 2708SOL     OW 8135   3.926   2.147   1.498
 2708SOL    HW1 8136   3.846   2.207   1.485
 2708SOL    HW2 8137   3.916   2.098   1.584
 2709SOL     OW 8138   4.188   3.605   0.323
 2709SOL    HW1 8139   4.221   3.644   0.409
 2709SOL    HW2 8140   4.264   3.598   0.258
 2710SOL     OW 8141   3.973   3.647   1.241
 2710SOL    HW1 8142   4.030   3.582   1.291
 2710SOL    HW2 8143   3.957   3.614   1.148
 2711SOL     OW 8144   4.106   2.562   0.480
 2711SOL    HW1 8145   4.151   2.472   0.477
 2711SOL    HW2 8146   4.012   2.551   0.513
 2712SOL     OW 8147   4.527   3.264   0.924
 2712SOL    HW1 8148   4.617   3.278   0.882
 2712SOL    HW2 8149   4.456   3.266   0.853
 2713SOL     OW 8150   4.263   1.926   0.512
 2713SOL    HW1 8151   4.182   1.927   0.570
 2713SOL    HW2 8152   4.266   2.009   0.457
 2714SOL     OW 8153   4.800   2.545   1.464
 2714SOL    HW1 8154   4.720   2.484   1.467
 2714SOL    HW2 8155   4.881   2.492   1.440
 2715SOL     OW 8156   4.183   3.014   0.741
 2715SOL    HW1 8157   4.112   2.987   0.806
 2715SOL    HW2 8158   4.157   2.986   0.648
 2716SOL     OW 8159   3.802   2.418   1.386
 2716SOL    HW1 8160   3.894   2.417   1.345
 2716SOL    HW2 8161   3.796   2.492   1.453
 2717SOL     OW 8162   4.285   2.084   1.147
 2717SOL    HW1 8163   4.323   2.000   1.184
 2717SOL    HW2 8164   4.197   2.103   1.191
 2718SOL     OW 8165   4.212   3.247   0.174
 2718SOL    HW1 8166   4.125   3.232   0.221
 2718SOL    HW2 8167   4.195   3.273   0.079
 2719SOL     OW 8168   4.251   2.118   0.328
 2719SOL    HW1 8169   4.278   2.059   0.253
 2719SOL    HW2 8170   4.251   2.213   0.297
 2720SOL     OW 8171   4.134   2.675   1.251
 2720SOL    HW1 8172   4.220   2.687   1.301
 2720SOL    HW2 8173   4.092   2.588   1.278
 2721SOL     OW 8174   3.788   3.426   1.331
 2721SOL    HW1 8175   3.742   3.508   1.297
 2721SOL    HW2 8176   3.886   3.445   1.340
 2722SOL     OW 8177   4.091   2.962   0.501
 2722SOL    HW1 8178   4.084   3.045   0.445
 2722SOL    HW2 8179   4.095   2.882   0.441
 2723SOL     OW 8180   4.290   2.399   0.865
 2723SOL    HW1 8181   4.302   2.465   0.791
 2723SOL    HW2 8182   4.336   2.433   0.948
 2724SOL     OW 8183   4.078   3.372   1.329
 2724SOL    HW1 8184   4.057   3.328   1.242
 2724SOL    HW2 8185   4.175   3.398   1.332
 2725SOL     OW 8186   4.126   2.613   1.598
 2725SOL    HW1 8187   4.194   2.668   1.551
 2725SOL    HW2 8188   4.166   2.525   1.625
 2726SOL     OW 8189   4.228   1.912   1.740
 2726SOL    HW1 8190   4.186   1.855   1.670
 2726SOL    HW2 8191   4.162   1.981   1.772
 2727SOL     OW 8192   4.297   2.732   1.029
 2727SOL    HW1 8193   4.341   2.821   1.020
 2727SOL    HW2 8194   4.234   2.732   1.106
 2728SOL     OW 8195   4.031   2.075   1.231
 2728SOL    HW1 8196   4.008   2.112   1.321
 2728SOL    HW2 8197   4.001   1.980   1.225
 2729SOL     OW 8198   3.761   3.172   1.282
 2729SOL    HW1 8199   3.814   3.123   1.350
 2729SOL    HW2 8200   3.783   3.270   1.287
 2730SOL     OW 8201   4.031   1.925   0.618
 2730SOL    HW1 8202   4.020   2.019   0.651
 2730SOL    HW2 8203   4.026   1.862   0.695
 2731SOL     OW 8204   4.074   2.760   1.804
 2731SOL    HW1 8205   4.150   2.804   1.852
 2731SOL    HW2 8206   4.109   2.713   1.722
 2732SOL     OW 8207   4.043   2.672   0.949
 2732SOL    HW1 8208   4.136   2.708   0.954
 2732SOL    HW2 8209   4.037   2.587   1.001
 2733SOL     OW 8210   4.063   2.371   1.006
 2733SOL    HW1 8211   4.011   2.288   0.989
 2733SOL    HW2 8212   4.140   2.376   0.942
 2734SOL     OW 8213   3.732   3.188   0.200
 2734SOL    HW1 8214   3.639   3.209   0.169
 2734SOL    HW2 8215   3.742   3.089   0.213
 2735SOL     OW 8216   3.812   3.663   0.927
 2735SOL    HW1 8217   3.770   3.577   0.900
 2735SOL    HW2 8218   3.906   3.666   0.893
 2736SOL     OW 8219   4.228   3.430   0.910
 2736SOL    HW1 8220   4.294   3.504   0.919
 2736SOL    HW2 8221   4.272   3.351   0.868
 2737SOL     OW 8222   3.764   2.406   1.114
 2737SOL    HW1 8223   3.849   2.373   1.073
 2737SOL    HW2 8224   3.777   2.421   1.212
 2738SOL     OW 8225   3.913   2.382   1.722
 2738SOL    HW1 8226   3.972   2.342   1.652
 2738SOL    HW2 8227   3.855   2.453   1.681
 2739SOL     OW 8228   4.539   2.434   0.325
 2739SOL    HW1 8229   4.546   2.345   0.279
 2739SOL    HW2 8230   4.445   2.468   0.317
 2740SOL     OW 8231   3.976   3.426   1.744
 2740SOL    HW1 8232   3.946   3.483   1.820
 2740SOL    HW2 8233   3.969   3.329   1.770
 2741SOL     OW 8234   4.197   2.362   0.191
 2741SOL    HW1 8235   4.258   2.442   0.195
 2741SOL    HW2 8236   4.102   2.393   0.198
 2742SOL     OW 8237   3.883   2.999   1.466
 2742SOL    HW1 8238   3.905   2.938   1.542
 2742SOL    HW2 8239   3.893   2.950   1.380
 2743SOL     OW 8240   3.807   3.120   1.022
 2743SOL    HW1 8241   3.802   3.119   1.122
 2743SOL    HW2 8242   3.724   3.079   0.984
 2744SOL     OW 8243   4.412   3.524   1.716
 2744SOL    HW1 8244   4.356   3.605   1.725
 2744SOL    HW2 8245   4.464   3.528   1.630
 2745SOL     OW 8246   3.854   3.656   1.851
 2745SOL    HW1 8247   3.813   3.582   1.904
 2745SOL    HW2 8248   3.918   3.707   1.909
 2746SOL     OW 8249   3.987   2.188   0.720
 2746SOL    HW1 8250   3.908   2.239   0.686
 2746SOL    HW2 8251   3.978   2.173   0.818
 2747SOL     OW 8252   4.096   3.150   1.490
 2747SOL    HW1 8253   4.083   3.243   1.456
 2747SOL    HW2 8254   4.012   3.098   1.477
 2748SOL     OW 8255   4.314   3.349   0.491
 2748SOL    HW1 8256   4.356   3.291   0.421
 2748SOL    HW2 8257   4.270   3.428   0.447
 2749SOL     OW 8258   3.979   3.210   0.290
 2749SOL    HW1 8259   3.883   3.211   0.263
 2749SOL    HW2 8260   3.991   3.263   0.374
 2750SOL     OW 8261   3.829   2.875   1.726
 2750SOL    HW1 8262   3.752   2.842   1.780
 2750SOL    HW2 8263   3.914   2.845   1.768
 2751SOL     OW 8264   4.396   2.065   1.489
 2751SOL    HW1 8265   4.486   2.049   1.449
 2751SOL    HW2 8266   4.404   2.070   1.588
 2752SOL     OW 8267   3.799   2.207   0.033
 2752SOL    HW1 8268   3.707   2.179   0.004
 2752SOL    HW2 8269   3.830   2.284  -0.023
 2753SOL     OW 8270   4.337   2.704   1.431
 2753SOL    HW1 8271   4.393   2.785   1.414
 2753SOL    HW2 8272   4.396   2.624   1.434
 2754SOL     OW 8273   4.440   2.427   1.708
 2754SOL    HW1 8274   4.459   2.492   1.782
 2754SOL    HW2 8275   4.500   2.347   1.717
 2755SOL     OW 8276   4.114   3.603   1.560
 2755SOL    HW1 8277   4.023   3.644   1.558
 2755SOL    HW2 8278   4.107   3.509   1.592
 2756SOL     OW 8279   4.318   2.607   0.652
 2756SOL    HW1 8280   4.368   2.692   0.633
 2756SOL    HW2 8281   4.230   2.609   0.604
 2757SOL     OW 8282   3.945   3.176   1.844
 2757SOL    HW1 8283   3.880   3.103   1.823
 2757SOL    HW2 8284   3.949   3.190   1.942
 2758SOL     OW 8285   3.803   3.102   0.653
 2758SOL    HW1 8286   3.802   3.055   0.741
 2758SOL    HW2 8287   3.885   3.074   0.602
 2759SOL     OW 8288   4.396   3.253   1.624
 2759SOL    HW1 8289   4.318   3.203   1.662
 2759SOL    HW2 8290   4.393   3.348   1.655
 2760SOL     OW 8291   4.152   2.286   0.520
 2760SOL    HW1 8292   4.182   2.214   0.458
 2760SOL    HW2 8293   4.113   2.246   0.603
 2761SOL     OW 8294   4.041   2.409   1.280
 2761SOL    HW1 8295   4.079   2.350   1.352
 2761SOL    HW2 8296   4.081   2.383   1.192
 2762SOL     OW 8297   4.536   3.448   0.687
 2762SOL    HW1 8298   4.568   3.458   0.593
 2762SOL    HW2 8299   4.457   3.386   0.689
 2763SOL     OW 8300   3.763   2.939   0.300
 2763SOL    HW1 8301   3.862   2.928   0.291
 2763SOL    HW2 8302   3.723   2.853   0.332
 2764SOL     OW 8303   3.954   2.490   1.975
 2764SOL    HW1 8304   3.861   2.488   2.012
 2764SOL    HW2 8305   3.955   2.451   1.883
 2765SOL     OW 8306   3.949   2.137   2.858
 2765SOL    HW1 8307   3.984   2.120   2.950
 2765SOL    HW2 8308   3.861   2.092   2.846
 2766SOL     OW 8309   3.743   2.230   2.509
 2766SOL    HW1 8310   3.661   2.273   2.548
 2766SOL    HW2 8311   3.715   2.157   2.446
 2767SOL     OW 8312   4.293   3.137   3.027
 2767SOL    HW1 8313   4.200   3.130   2.990
 2767SOL    HW2 8314   4.304   3.226   3.071
 2768SOL     OW 8315   4.574   2.660   3.685
 2768SOL    HW1 8316   4.570   2.736   3.750
 2768SOL    HW2 8317   4.596   2.696   3.594
 2769SOL     OW 8318   4.409   2.874   2.527
 2769SOL    HW1 8319   4.478   2.858   2.597
 2769SOL    HW2 8320   4.336   2.931   2.565
 2770SOL     OW 8321   4.410   3.023   3.665
 2770SOL    HW1 8322   4.470   3.102   3.679
 2770SOL    HW2 8323   4.324   3.054   3.624
 2771SOL     OW 8324   4.059   3.297   2.923
 2771SOL    HW1 8325   3.981   3.266   2.870
 2771SOL    HW2 8326   4.117   3.355   2.866
 2772SOL     OW 8327   4.162   2.254   3.361
 2772SOL    HW1 8328   4.244   2.198   3.370
 2772SOL    HW2 8329   4.081   2.196   3.365
 2773SOL     OW 8330   3.955   3.575   2.345
 2773SOL    HW1 8331   3.989   3.652   2.399
 2773SOL    HW2 8332   3.999   3.575   2.255
 2774SOL     OW 8333   3.954   3.296   2.400
 2774SOL    HW1 8334   3.928   3.392   2.400
 2774SOL    HW2 8335   3.883   3.242   2.445
 2775SOL     OW 8336   3.964   2.953   2.748
 2775SOL    HW1 8337   3.978   2.869   2.800
 2775SOL    HW2 8338   3.909   3.017   2.803
 2776SOL     OW 8339   4.344   3.648   3.301
 2776SOL    HW1 8340   4.252   3.631   3.336
 2776SOL    HW2 8341   4.372   3.740   3.327
 2777SOL     OW 8342   4.330   2.826   1.985
 2777SOL    HW1 8343   4.337   2.910   1.931
 2777SOL    HW2 8344   4.376   2.839   2.073
 2778SOL     OW 8345   3.846   2.505   2.425
 2778SOL    HW1 8346   3.801   2.417   2.442
 2778SOL    HW2 8347   3.845   2.559   2.509
 2779SOL     OW 8348   3.751   3.458   1.979
 2779SOL    HW1 8349   3.732   3.362   2.000
 2779SOL    HW2 8350   3.718   3.516   2.054
 2780SOL     OW 8351   3.837   2.599   3.459
 2780SOL    HW1 8352   3.925   2.586   3.504
 2780SOL    HW2 8353   3.824   2.696   3.437
 2781SOL     OW 8354   4.337   3.227   2.588
 2781SOL    HW1 8355   4.288   3.140   2.597
 2781SOL    HW2 8356   4.314   3.270   2.501
 2782SOL     OW 8357   4.533   1.866   2.364
 2782SOL    HW1 8358   4.573   1.957   2.355
 2782SOL    HW2 8359   4.433   1.874   2.370
 2783SOL     OW 8360   3.921   2.838   3.126
 2783SOL    HW1 8361   4.010   2.793   3.112
 2783SOL    HW2 8362   3.848   2.773   3.107
 2784SOL     OW 8363   4.041   2.113   3.663
 2784SOL    HW1 8364   4.112   2.184   3.669
 2784SOL    HW2 8365   3.953   2.152   3.691
 2785SOL     OW 8366   4.322   2.591   2.132
 2785SOL    HW1 8367   4.346   2.660   2.064
 2785SOL    HW2 8368   4.244   2.624   2.186
 2786SOL     OW 8369   3.800   2.673   2.651
 2786SOL    HW1 8370   3.899   2.661   2.660
 2786SOL    HW2 8371   3.776   2.768   2.672
 2787SOL     OW 8372   3.854   3.683   3.433
 2787SOL    HW1 8373   3.844   3.668   3.532
 2787SOL    HW2 8374   3.768   3.719   3.397
 2788SOL     OW 8375   4.274   2.058   2.747
 2788SOL    HW1 8376   4.269   2.053   2.847
 2788SOL    HW2 8377   4.276   2.154   2.718
 2789SOL     OW 8378   4.075   3.663   2.715
 2789SOL    HW1 8379   4.125   3.577   2.721
 2789SOL    HW2 8380   4.140   3.740   2.712
 2790SOL     OW 8381   4.045   2.805   2.104
 2790SOL    HW1 8382   4.127   2.844   2.062
 2790SOL    HW2 8383   4.018   2.723   2.055
 2791SOL     OW 8384   4.185   3.128   3.589
 2791SOL    HW1 8385   4.135   3.129   3.503
 2791SOL    HW2 8386   4.122   3.110   3.665
 2792SOL     OW 8387   3.926   2.147   3.360
 2792SOL    HW1 8388   3.846   2.207   3.347
 2792SOL    HW2 8389   3.916   2.098   3.446
 2793SOL     OW 8390   4.188   3.605   2.185
 2793SOL    HW1 8391   4.221   3.644   2.271
 2793SOL    HW2 8392   4.264   3.598   2.120
 2794SOL     OW 8393   3.973   3.647   3.103
 2794SOL    HW1 8394   4.030   3.582   3.153
 2794SOL    HW2 8395   3.957   3.614   3.010
 2795SOL     OW 8396   4.106   2.562   2.342
 2795SOL    HW1 8397   4.151   2.472   2.339
 2795SOL    HW2 8398   4.012   2.551   2.375
 2796SOL     OW 8399   4.338   1.984   1.979
 2796SOL    HW1 8400   4.436   1.962   1.986
 2796SOL    HW2 8401   4.307   1.967   1.886
 2797SOL     OW 8402   4.527   3.264   2.786
 2797SOL    HW1 8403   4.617   3.278   2.744
 2797SOL    HW2 8404   4.456   3.266   2.715
 2798SOL     OW 8405   4.263   1.926   2.374
 2798SOL    HW1 8406   4.182   1.927   2.432
 2798SOL    HW2 8407   4.266   2.009   2.319
 2799SOL     OW 8408   4.021   1.897   2.033
 2799SOL    HW1 8409   4.070   1.981   2.012
 2799SOL    HW2 8410   4.083   1.832   2.078
 2800SOL     OW 8411   4.800   2.545   3.326
 2800SOL    HW1 8412   4.720   2.484   3.329
 2800SOL    HW2 8413   4.881   2.492   3.302
 2801SOL     OW 8414   4.183   3.014   2.603
 2801SOL    HW1 8415   4.112   2.987   2.668
 2801SOL    HW2 8416   4.157   2.986   2.510
 2802SOL     OW 8417   3.802   2.418   3.248
 2802SOL    HW1 8418   3.894   2.417   3.207
 2802SOL    HW2 8419   3.796   2.492   3.315
 2803SOL     OW 8420   4.285   2.084   3.009
 2803SOL    HW1 8421   4.323   2.000   3.046
 2803SOL    HW2 8422   4.197   2.103   3.053
 2804SOL     OW 8423   4.212   3.247   2.036
 2804SOL    HW1 8424   4.125   3.232   2.083
 2804SOL    HW2 8425   4.195   3.273   1.941
 2805SOL     OW 8426   4.251   2.118   2.190
 2805SOL    HW1 8427   4.278   2.059   2.115
 2805SOL    HW2 8428   4.251   2.213   2.159
 2806SOL     OW 8429   4.134   2.675   3.113
 2806SOL    HW1 8430   4.220   2.687   3.163
 2806SOL    HW2 8431   4.092   2.588   3.140
 2807SOL     OW 8432   3.788   3.426   3.193
 2807SOL    HW1 8433   3.742   3.508   3.159
 2807SOL    HW2 8434   3.886   3.445   3.202
 2808SOL     OW 8435   4.091   2.962   2.363
 2808SOL    HW1 8436   4.084   3.045   2.307
 2808SOL    HW2 8437   4.095   2.882   2.303
 2809SOL     OW 8438   4.290   2.399   2.727
 2809SOL    HW1 8439   4.302   2.465   2.653
 2809SOL    HW2 8440   4.336   2.433   2.810
 2810SOL     OW 8441   4.078   3.372   3.191
 2810SOL    HW1 8442   4.057   3.328   3.104
 2810SOL    HW2 8443   4.175   3.398   3.194
 2811SOL     OW 8444   4.126   2.613   3.460
 2811SOL    HW1 8445   4.194   2.668   3.413
 2811SOL    HW2 8446   4.166   2.525   3.487
 2812SOL     OW 8447   4.228   1.912   3.602
 2812SOL    HW1 8448   4.186   1.855   3.532
 2812SOL    HW2 8449   4.162   1.981   3.634
 2813SOL     OW 8450   4.297   2.732   2.891
 2813SOL    HW1 8451   4.341   2.821   2.882
 2813SOL    HW2 8452   4.234   2.732   2.968
 2814SOL     OW 8453   4.031   2.075   3.093
 2814SOL    HW1 8454   4.008   2.112   3.183
 2814SOL    HW2 8455   4.001   1.980   3.087
 2815SOL     OW 8456   3.761   3.172   3.144
 2815SOL    HW1 8457   3.814   3.123   3.212
 2815SOL    HW2 8458   3.783   3.270   3.149
 2816SOL     OW 8459   4.031   1.925   2.480
 2816SOL    HW1 8460   4.020   2.019   2.513
 2816SOL    HW2 8461   4.026   1.862   2.557
 2817SOL     OW 8462   4.074   2.760   3.666
 2817SOL    HW1 8463   4.150   2.804   3.714
 2817SOL    HW2 8464   4.109   2.713   3.584
 2818SOL     OW 8465   4.043   2.672   2.811
 2818SOL    HW1 8466   4.136   2.708   2.816
 2818SOL    HW2 8467   4.037   2.587   2.863
 2819SOL     OW 8468   4.063   2.371   2.868
 2819SOL    HW1 8469   4.011   2.288   2.851
 2819SOL    HW2 8470   4.140   2.376   2.804
 2820SOL     OW 8471   3.732   3.188   2.062
 2820SOL    HW1 8472   3.639   3.209   2.031
 2820SOL    HW2 8473   3.742   3.089   2.075
 2821SOL     OW 8474   3.812   3.663   2.789
 2821SOL    HW1 8475   3.770   3.577   2.762
 2821SOL    HW2 8476   3.906   3.666   2.755
 2822SOL     OW 8477   4.228   3.430   2.772
 2822SOL    HW1 8478   4.294   3.504   2.781
 2822SOL    HW2 8479   4.272   3.351   2.730
 2823SOL     OW 8480   3.764   2.406   2.976
 2823SOL    HW1 8481   3.849   2.373   2.935
 2823SOL    HW2 8482   3.777   2.421   3.074
 2824SOL     OW 8483   3.913   2.382   3.584
 2824SOL    HW1 8484   3.972   2.342   3.514
 2824SOL    HW2 8485   3.855   2.453   3.543
 2825SOL     OW 8486   4.539   2.434   2.187
 2825SOL    HW1 8487   4.546   2.345   2.141
 2825SOL    HW2 8488   4.445   2.468   2.179
 2826SOL     OW 8489   3.976   3.426   3.606
 2826SOL    HW1 8490   3.946   3.483   3.682
 2826SOL    HW2 8491   3.969   3.329   3.632
 2827SOL     OW 8492   4.197   2.362   2.053
 2827SOL    HW1 8493   4.258   2.442   2.057
 2827SOL    HW2 8494   4.102   2.393   2.060
 2828SOL     OW 8495   3.883   2.999   3.328
 2828SOL    HW1 8496   3.905   2.938   3.404
 2828SOL    HW2 8497   3.893   2.950   3.242
 2829SOL     OW 8498   3.807   3.120   2.884
 2829SOL    HW1 8499   3.802   3.119   2.984
 2829SOL    HW2 8500   3.724   3.079   2.846
 2830SOL     OW 8501   4.412   3.524   3.578
 2830SOL    HW1 8502   4.356   3.605   3.587
 2830SOL    HW2 8503   4.464   3.528   3.492
 2831SOL     OW 8504   3.854   3.656   3.713
 2831SOL    HW1 8505   3.813   3.582   3.766
 2831SOL    HW2 8506   3.918   3.707   3.771
 2832SOL     OW 8507   3.987   2.188   2.582
 2832SOL    HW1 8508   3.908   2.239   2.548
 2832SOL    HW2 8509   3.978   2.173   2.680
 2833SOL     OW 8510   4.096   3.150   3.352
 2833SOL    HW1 8511   4.083   3.243   3.318
 2833SOL    HW2 8512   4.012   3.098   3.339
 2834SOL     OW 8513   4.314   3.349   2.353
 2834SOL    HW1 8514   4.356   3.291   2.283
 2834SOL    HW2 8515   4.270   3.428   2.309
 2835SOL     OW 8516   3.979   3.210   2.152
 2835SOL    HW1 8517   3.883   3.211   2.125
 2835SOL    HW2 8518   3.991   3.263   2.236
 2836SOL     OW 8519   3.829   2.875   3.588
 2836SOL    HW1 8520   3.752   2.842   3.642
 2836SOL    HW2 8521   3.914   2.845   3.630
 2837SOL     OW 8522   4.396   2.065   3.351
 2837SOL    HW1 8523   4.486   2.049   3.311
 2837SOL    HW2 8524   4.404   2.070   3.450
 2838SOL     OW 8525   3.799   2.207   1.895
 2838SOL    HW1 8526   3.707   2.179   1.866
 2838SOL    HW2 8527   3.830   2.284   1.839
 2839SOL     OW 8528   3.796   2.028   2.180
 2839SOL    HW1 8529   3.779   2.111   2.126
 2839SOL    HW2 8530   3.886   1.991   2.158
 2840SOL     OW 8531   4.337   2.704   3.293
 2840SOL    HW1 8532   4.393   2.785   3.276
 2840SOL    HW2 8533   4.396   2.624   3.296
 2841SOL     OW 8534   4.440   2.427   3.570
 2841SOL    HW1 8535   4.459   2.492   3.644
 2841SOL    HW2 8536   4.500   2.347   3.579
 2842SOL     OW 8537   4.114   3.603   3.422
 2842SOL    HW1 8538   4.023   3.644   3.420
 2842SOL    HW2 8539   4.107   3.509   3.454
 2843SOL     OW 8540   4.318   2.607   2.514
 2843SOL    HW1 8541   4.368   2.692   2.495
 2843SOL    HW2 8542   4.230   2.609   2.466
 2844SOL     OW 8543   3.945   3.176   3.706
 2844SOL    HW1 8544   3.880   3.103   3.685
 2844SOL    HW2 8545   3.949   3.190   3.804
 2845SOL     OW 8546   3.803   3.102   2.515
 2845SOL    HW1 8547   3.802   3.055   2.603
 2845SOL    HW2 8548   3.885   3.074   2.464
 2846SOL     OW 8549   4.396   3.253   3.486
 2846SOL    HW1 8550   4.318   3.203   3.524
 2846SOL    HW2 8551   4.393   3.348   3.517
 2847SOL     OW 8552   4.152   2.286   2.382
 2847SOL    HW1 8553   4.182   2.214   2.320
 2847SOL    HW2 8554   4.113   2.246   2.465
 2848SOL     OW 8555   4.041   2.409   3.142
 2848SOL    HW1 8556   4.079   2.350   3.214
 2848SOL    HW2 8557   4.081   2.383   3.054
 2849SOL     OW 8558   4.536   3.448   2.549
 2849SOL    HW1 8559   4.568   3.458   2.455
 2849SOL    HW2 8560   4.457   3.386   2.551
 2850SOL     OW 8561   3.763   2.939   2.162
 2850SOL    HW1 8562   3.862   2.928   2.153
 2850SOL    HW2 8563   3.723   2.853   2.194
 2851SOL     OW 8564   3.954   2.490   3.837
 2851SOL    HW1 8565   3.861   2.488   3.874
 2851SOL    HW2 8566   3.955   2.451   3.745
 2852SOL     OW 8567   3.949   2.137   4.720
 2852SOL    HW1 8568   3.984   2.120   4.812
 2852SOL    HW2 8569   3.861   2.092   4.708
 2853SOL     OW 8570   4.409   2.874   4.389
 2853SOL    HW1 8571   4.478   2.858   4.459
 2853SOL    HW2 8572   4.336   2.931   4.427
 2854SOL     OW 8573   3.955   3.575   4.207
 2854SOL    HW1 8574   3.989   3.652   4.261
 2854SOL    HW2 8575   3.999   3.575   4.117
 2855SOL     OW 8576   3.954   3.296   4.262
 2855SOL    HW1 8577   3.928   3.392   4.262
 2855SOL    HW2 8578   3.883   3.242   4.307
 2856SOL     OW 8579   4.330   2.826   3.847
 2856SOL    HW1 8580   4.337   2.910   3.793
 2856SOL    HW2 8581   4.376   2.839   3.935
 2857SOL     OW 8582   3.846   2.505   4.287
 2857SOL    HW1 8583   3.801   2.417   4.304
 2857SOL    HW2 8584   3.845   2.559   4.371
 2858SOL     OW 8585   3.751   3.458   3.841
 2858SOL    HW1 8586   3.732   3.362   3.862
 2858SOL    HW2 8587   3.718   3.516   3.916
 2859SOL     OW 8588   4.337   3.227   4.450
 2859SOL    HW1 8589   4.288   3.140   4.459
 2859SOL    HW2 8590   4.314   3.270   4.363
 2860SOL     OW 8591   4.533   1.866   4.226
 2860SOL    HW1 8592   4.573   1.957   4.217
 2860SOL    HW2 8593   4.433   1.874   4.232
 2861SOL     OW 8594   4.322   2.591   3.994
 2861SOL    HW1 8595   4.346   2.660   3.926
 2861SOL    HW2 8596   4.244   2.624   4.048
 2862SOL     OW 8597   3.800   2.673   4.513
 2862SOL    HW1 8598   3.899   2.661   4.522
 2862SOL    HW2 8599   3.776   2.768   4.534
 2863SOL     OW 8600   4.075   3.663   4.577
 2863SOL    HW1 8601   4.125   3.577   4.583
 2863SOL    HW2 8602   4.140   3.740   4.574
 2864SOL     OW 8603   4.045   2.805   3.966
 2864SOL    HW1 8604   4.127   2.844   3.924
 2864SOL    HW2 8605   4.018   2.723   3.917
 2865SOL     OW 8606   4.188   3.605   4.047
 2865SOL    HW1 8607   4.221   3.644   4.133
 2865SOL    HW2 8608   4.264   3.598   3.982
 2866SOL     OW 8609   4.106   2.562   4.204
 2866SOL    HW1 8610   4.151   2.472   4.201
 2866SOL    HW2 8611   4.012   2.551   4.237
 2867SOL     OW 8612   4.338   1.984   3.841
 2867SOL    HW1 8613   4.436   1.962   3.848
 2867SOL    HW2 8614   4.307   1.967   3.748
 2868SOL     OW 8615   4.263   1.926   4.236
 2868SOL    HW1 8616   4.182   1.927   4.294
 2868SOL    HW2 8617   4.266   2.009   4.181
 2869SOL     OW 8618   4.021   1.897   3.895
 2869SOL    HW1 8619   4.070   1.981   3.874
 2869SOL    HW2 8620   4.083   1.832   3.940
 2870SOL     OW 8621   4.183   3.014   4.465
 2870SOL    HW1 8622   4.112   2.987   4.530
 2870SOL    HW2 8623   4.157   2.986   4.372
 2871SOL     OW 8624   4.212   3.247   3.898
 2871SOL    HW1 8625   4.125   3.232   3.945
 2871SOL    HW2 8626   4.195   3.273   3.803
 2872SOL     OW 8627   4.251   2.118   4.052
 2872SOL    HW1 8628   4.278   2.059   3.977
 2872SOL    HW2 8629   4.251   2.213   4.021
 2873SOL     OW 8630   4.091   2.962   4.225
 2873SOL    HW1 8631   4.084   3.045   4.169
 2873SOL    HW2 8632   4.095   2.882   4.165
 2874SOL     OW 8633   4.031   1.925   4.342
 2874SOL    HW1 8634   4.020   2.019   4.375
 2874SOL    HW2 8635   4.026   1.862   4.419
 2875SOL     OW 8636   3.732   3.188   3.924
 2875SOL    HW1 8637   3.639   3.209   3.893
 2875SOL    HW2 8638   3.742   3.089   3.937
 2876SOL     OW 8639   4.539   2.434   4.049
 2876SOL    HW1 8640   4.546   2.345   4.003
 2876SOL    HW2 8641   4.445   2.468   4.041
 2877SOL     OW 8642   4.197   2.362   3.915
 2877SOL    HW1 8643   4.258   2.442   3.919
 2877SOL    HW2 8644   4.102   2.393   3.922
 2878SOL     OW 8645   4.763   2.960   4.420
 2878SOL    HW1 8646   4.693   2.913   4.474
 2878SOL    HW2 8647   4.822   2.892   4.377
 2879SOL     OW 8648   4.314   3.349   4.215
 2879SOL    HW1 8649   4.356   3.291   4.145
 2879SOL    HW2 8650   4.270   3.428   4.171
 2880SOL     OW 8651   3.979   3.210   4.014
 2880SOL    HW1 8652   3.883   3.211   3.987
 2880SOL    HW2 8653   3.991   3.263   4.098
 2881SOL     OW 8654   3.799   2.207   3.757
 2881SOL    HW1 8655   3.707   2.179   3.728
 2881SOL    HW2 8656   3.830   2.284   3.701
 2882SOL     OW 8657   3.796   2.028   4.042
 2882SOL    HW1 8658   3.779   2.111   3.988
 2882SOL    HW2 8659   3.886   1.991   4.020
 2883SOL     OW 8660   4.318   2.607   4.376
 2883SOL    HW1 8661   4.368   2.692   4.357
 2883SOL    HW2 8662   4.230   2.609   4.328
 2884SOL     OW 8663   4.385   3.652   4.677
 2884SOL    HW1 8664   4.339   3.740   4.664
 2884SOL    HW2 8665   4.484   3.664   4.670
 2885SOL     OW 8666   3.803   3.102   4.377
 2885SOL    HW1 8667   3.802   3.055   4.465
 2885SOL    HW2 8668   3.885   3.074   4.326
 2886SOL     OW 8669   4.152   2.286   4.244
 2886SOL    HW1 8670   4.182   2.214   4.182
 2886SOL    HW2 8671   4.113   2.246   4.327
 2887SOL     OW 8672   4.536   3.448   4.411
 2887SOL    HW1 8673   4.568   3.458   4.317
 2887SOL    HW2 8674   4.457   3.386   4.413
 2888SOL     OW 8675   3.763   2.939   4.024
 2888SOL    HW1 8676   3.862   2.928   4.015
 2888SOL    HW2 8677   3.723   2.853   4.056
 2889SOL     OW 8678   3.954   4.352   0.113
 2889SOL    HW1 8679   3.861   4.350   0.150
 2889SOL    HW2 8680   3.955   4.313   0.021
 2890SOL     OW 8681   3.949   3.999   0.996
 2890SOL    HW1 8682   3.984   3.982   1.088
 2890SOL    HW2 8683   3.861   3.954   0.984
 2891SOL     OW 8684   3.743   4.092   0.647
 2891SOL    HW1 8685   3.661   4.135   0.686
 2891SOL    HW2 8686   3.715   4.019   0.584
 2892SOL     OW 8687   4.574   4.522   1.823
 2892SOL    HW1 8688   4.570   4.598   1.888
 2892SOL    HW2 8689   4.596   4.558   1.732
 2893SOL     OW 8690   4.162   4.116   1.499
 2893SOL    HW1 8691   4.244   4.060   1.508
 2893SOL    HW2 8692   4.081   4.058   1.503
 2894SOL     OW 8693   3.846   4.367   0.563
 2894SOL    HW1 8694   3.801   4.279   0.580
 2894SOL    HW2 8695   3.845   4.421   0.647
 2895SOL     OW 8696   3.837   4.461   1.597
 2895SOL    HW1 8697   3.925   4.448   1.642
 2895SOL    HW2 8698   3.824   4.558   1.575
 2896SOL     OW 8699   4.533   3.728   0.502
 2896SOL    HW1 8700   4.573   3.819   0.493
 2896SOL    HW2 8701   4.433   3.736   0.508
 2897SOL     OW 8702   4.041   3.975   1.801
 2897SOL    HW1 8703   4.112   4.046   1.807
 2897SOL    HW2 8704   3.953   4.014   1.829
 2898SOL     OW 8705   4.274   3.920   0.885
 2898SOL    HW1 8706   4.269   3.915   0.985
 2898SOL    HW2 8707   4.276   4.016   0.856
 2899SOL     OW 8708   3.926   4.009   1.498
 2899SOL    HW1 8709   3.846   4.069   1.485
 2899SOL    HW2 8710   3.916   3.960   1.584
 2900SOL     OW 8711   4.106   4.424   0.480
 2900SOL    HW1 8712   4.151   4.334   0.477
 2900SOL    HW2 8713   4.012   4.413   0.513
 2901SOL     OW 8714   4.263   3.788   0.512
 2901SOL    HW1 8715   4.182   3.789   0.570
 2901SOL    HW2 8716   4.266   3.871   0.457
 2902SOL     OW 8717   4.800   4.407   1.464
 2902SOL    HW1 8718   4.720   4.346   1.467
 2902SOL    HW2 8719   4.881   4.354   1.440
 2903SOL     OW 8720   3.802   4.280   1.386
 2903SOL    HW1 8721   3.894   4.279   1.345
 2903SOL    HW2 8722   3.796   4.354   1.453
 2904SOL     OW 8723   4.285   3.946   1.147
 2904SOL    HW1 8724   4.323   3.862   1.184
 2904SOL    HW2 8725   4.197   3.965   1.191
 2905SOL     OW 8726   4.251   3.980   0.328
 2905SOL    HW1 8727   4.278   3.921   0.253
 2905SOL    HW2 8728   4.251   4.075   0.297
 2906SOL     OW 8729   4.134   4.537   1.251
 2906SOL    HW1 8730   4.220   4.549   1.301
 2906SOL    HW2 8731   4.092   4.450   1.278
 2907SOL     OW 8732   4.290   4.261   0.865
 2907SOL    HW1 8733   4.302   4.327   0.791
 2907SOL    HW2 8734   4.336   4.295   0.948
 2908SOL     OW 8735   4.228   3.774   1.740
 2908SOL    HW1 8736   4.186   3.717   1.670
 2908SOL    HW2 8737   4.162   3.843   1.772
 2909SOL     OW 8738   4.031   3.937   1.231
 2909SOL    HW1 8739   4.008   3.974   1.321
 2909SOL    HW2 8740   4.001   3.842   1.225
 2910SOL     OW 8741   4.031   3.787   0.618
 2910SOL    HW1 8742   4.020   3.881   0.651
 2910SOL    HW2 8743   4.026   3.724   0.695
 2911SOL     OW 8744   4.043   4.534   0.949
 2911SOL    HW1 8745   4.136   4.570   0.954
 2911SOL    HW2 8746   4.037   4.449   1.001
 2912SOL     OW 8747   4.063   4.233   1.006
 2912SOL    HW1 8748   4.011   4.150   0.989
 2912SOL    HW2 8749   4.140   4.238   0.942
 2913SOL     OW 8750   3.764   4.268   1.114
 2913SOL    HW1 8751   3.849   4.235   1.073
 2913SOL    HW2 8752   3.777   4.283   1.212
 2914SOL     OW 8753   3.913   4.244   1.722
 2914SOL    HW1 8754   3.972   4.204   1.652
 2914SOL    HW2 8755   3.855   4.315   1.681
 2915SOL     OW 8756   4.539   4.296   0.325
 2915SOL    HW1 8757   4.546   4.207   0.279
 2915SOL    HW2 8758   4.445   4.330   0.317
 2916SOL     OW 8759   4.197   4.224   0.191
 2916SOL    HW1 8760   4.258   4.304   0.195
 2916SOL    HW2 8761   4.102   4.255   0.198
 2917SOL     OW 8762   3.987   4.050   0.720
 2917SOL    HW1 8763   3.908   4.101   0.686
 2917SOL    HW2 8764   3.978   4.035   0.818
 2918SOL     OW 8765   4.396   3.927   1.489
 2918SOL    HW1 8766   4.486   3.911   1.449
 2918SOL    HW2 8767   4.404   3.932   1.588
 2919SOL     OW 8768   3.799   4.069   0.033
 2919SOL    HW1 8769   3.707   4.041   0.004
 2919SOL    HW2 8770   3.830   4.146  -0.023
 2920SOL     OW 8771   4.440   4.289   1.708
 2920SOL    HW1 8772   4.459   4.354   1.782
 2920SOL    HW2 8773   4.500   4.209   1.717
 2921SOL     OW 8774   4.152   4.148   0.520
 2921SOL    HW1 8775   4.182   4.076   0.458
 2921SOL    HW2 8776   4.113   4.108   0.603
 2922SOL     OW 8777   4.041   4.271   1.280
 2922SOL    HW1 8778   4.079   4.212   1.352
 2922SOL    HW2 8779   4.081   4.245   1.192
 2923SOL     OW 8780   3.954   4.352   1.975
 2923SOL    HW1 8781   3.861   4.350   2.012
 2923SOL    HW2 8782   3.955   4.313   1.883
 2924SOL     OW 8783   3.949   3.999   2.858
 2924SOL    HW1 8784   3.984   3.982   2.950
 2924SOL    HW2 8785   3.861   3.954   2.846
 2925SOL     OW 8786   3.743   4.092   2.509
 2925SOL    HW1 8787   3.661   4.135   2.548
 2925SOL    HW2 8788   3.715   4.019   2.446
 2926SOL     OW 8789   4.574   4.522   3.685
 2926SOL    HW1 8790   4.570   4.598   3.750
 2926SOL    HW2 8791   4.596   4.558   3.594
 2927SOL     OW 8792   4.162   4.116   3.361
 2927SOL    HW1 8793   4.244   4.060   3.370
 2927SOL    HW2 8794   4.081   4.058   3.365
 2928SOL     OW 8795   3.846   4.367   2.425
 2928SOL    HW1 8796   3.801   4.279   2.442
 2928SOL    HW2 8797   3.845   4.421   2.509
 2929SOL     OW 8798   3.837   4.461   3.459
 2929SOL    HW1 8799   3.925   4.448   3.504
 2929SOL    HW2 8800   3.824   4.558   3.437
 2930SOL     OW 8801   4.533   3.728   2.364
 2930SOL    HW1 8802   4.573   3.819   2.355
 2930SOL    HW2 8803   4.433   3.736   2.370
 2931SOL     OW 8804   4.041   3.975   3.663
 2931SOL    HW1 8805   4.112   4.046   3.669
 2931SOL    HW2 8806   3.953   4.014   3.691
 2932SOL     OW 8807   4.274   3.920   2.747
 2932SOL    HW1 8808   4.269   3.915   2.847
 2932SOL    HW2 8809   4.276   4.016   2.718
 2933SOL     OW 8810   3.926   4.009   3.360
 2933SOL    HW1 8811   3.846   4.069   3.347
 2933SOL    HW2 8812   3.916   3.960   3.446
 2934SOL     OW 8813   4.106   4.424   2.342
 2934SOL    HW1 8814   4.151   4.334   2.339
 2934SOL    HW2 8815   4.012   4.413   2.375
 2935SOL     OW 8816   4.338   3.846   1.979
 2935SOL    HW1 8817   4.436   3.824   1.986
 2935SOL    HW2 8818   4.307   3.829   1.886
 2936SOL     OW 8819   4.263   3.788   2.374
 2936SOL    HW1 8820   4.182   3.789   2.432
 2936SOL    HW2 8821   4.266   3.871   2.319
 2937SOL     OW 8822   4.021   3.759   2.033
 2937SOL    HW1 8823   4.070   3.843   2.012
 2937SOL    HW2 8824   4.083   3.694   2.078
 2938SOL     OW 8825   4.800   4.407   3.326
 2938SOL    HW1 8826   4.720   4.346   3.329
 2938SOL    HW2 8827   4.881   4.354   3.302
 2939SOL     OW 8828   3.802   4.280   3.248
 2939SOL    HW1 8829   3.894   4.279   3.207
 2939SOL    HW2 8830   3.796   4.354   3.315
 2940SOL     OW 8831   4.285   3.946   3.009
 2940SOL    HW1 8832   4.323   3.862   3.046
 2940SOL    HW2 8833   4.197   3.965   3.053
 2941SOL     OW 8834   4.251   3.980   2.190
 2941SOL    HW1 8835   4.278   3.921   2.115
 2941SOL    HW2 8836   4.251   4.075   2.159
 2942SOL     OW 8837   4.134   4.537   3.113
 2942SOL    HW1 8838   4.220   4.549   3.163
 2942SOL    HW2 8839   4.092   4.450   3.140
 2943SOL     OW 8840   4.290   4.261   2.727
 2943SOL    HW1 8841   4.302   4.327   2.653
 2943SOL    HW2 8842   4.336   4.295   2.810
 2944SOL     OW 8843   4.228   3.774   3.602
 2944SOL    HW1 8844   4.186   3.717   3.532
 2944SOL    HW2 8845   4.162   3.843   3.634
 2945SOL     OW 8846   4.031   3.937   3.093
 2945SOL    HW1 8847   4.008   3.974   3.183
 2945SOL    HW2 8848   4.001   3.842   3.087
 2946SOL     OW 8849   4.031   3.787   2.480
 2946SOL    HW1 8850   4.020   3.881   2.513
 2946SOL    HW2 8851   4.026   3.724   2.557
 2947SOL     OW 8852   4.043   4.534   2.811
 2947SOL    HW1 8853   4.136   4.570   2.816
 2947SOL    HW2 8854   4.037   4.449   2.863
 2948SOL     OW 8855   4.063   4.233   2.868
 2948SOL    HW1 8856   4.011   4.150   2.851
 2948SOL    HW2 8857   4.140   4.238   2.804
 2949SOL     OW 8858   3.764   4.268   2.976
 2949SOL    HW1 8859   3.849   4.235   2.935
 2949SOL    HW2 8860   3.777   4.283   3.074
 2950SOL     OW 8861   3.913   4.244   3.584
 2950SOL    HW1 8862   3.972   4.204   3.514
 2950SOL    HW2 8863   3.855   4.315   3.543
 2951SOL     OW 8864   4.539   4.296   2.187
 2951SOL    HW1 8865   4.546   4.207   2.141
 2951SOL    HW2 8866   4.445   4.330   2.179
 2952SOL     OW 8867   4.197   4.224   2.053
 2952SOL    HW1 8868   4.258   4.304   2.057
 2952SOL    HW2 8869   4.102   4.255   2.060
 2953SOL     OW 8870   3.987   4.050   2.582
 2953SOL    HW1 8871   3.908   4.101   2.548
 2953SOL    HW2 8872   3.978   4.035   2.680
 2954SOL     OW 8873   4.396   3.927   3.351
 2954SOL    HW1 8874   4.486   3.911   3.311
 2954SOL    HW2 8875   4.404   3.932   3.450
 2955SOL     OW 8876   3.799   4.069   1.895
 2955SOL    HW1 8877   3.707   4.041   1.866
 2955SOL    HW2 8878   3.830   4.146   1.839
 2956SOL     OW 8879   3.796   3.890   2.180
 2956SOL    HW1 8880   3.779   3.973   2.126
 2956SOL    HW2 8881   3.886   3.853   2.158
 2957SOL     OW 8882   4.440   4.289   3.570
 2957SOL    HW1 8883   4.459   4.354   3.644
 2957SOL    HW2 8884   4.500   4.209   3.579
 2958SOL     OW 8885   4.152   4.148   2.382
 2958SOL    HW1 8886   4.182   4.076   2.320
 2958SOL    HW2 8887   4.113   4.108   2.465
 2959SOL     OW 8888   4.041   4.271   3.142
 2959SOL    HW1 8889   4.079   4.212   3.214
 2959SOL    HW2 8890   4.081   4.245   3.054
 2960SOL     OW 8891   3.954   4.352   3.837
 2960SOL    HW1 8892   3.861   4.350   3.874
 2960SOL    HW2 8893   3.955   4.313   3.745
 2961SOL     OW 8894   3.949   3.999   4.720
 2961SOL    HW1 8895   3.984   3.982   4.812
 2961SOL    HW2 8896   3.861   3.954   4.708
 2962SOL     OW 8897   3.846   4.367   4.287
 2962SOL    HW1 8898   3.801   4.279   4.304
 2962SOL    HW2 8899   3.845   4.421   4.371
 2963SOL     OW 8900   4.533   3.728   4.226
 2963SOL    HW1 8901   4.573   3.819   4.217
 2963SOL    HW2 8902   4.433   3.736   4.232
 2964SOL     OW 8903   4.106   4.424   4.204
 2964SOL    HW1 8904   4.151   4.334   4.201
 2964SOL    HW2 8905   4.012   4.413   4.237
 2965SOL     OW 8906   4.338   3.846   3.841
 2965SOL    HW1 8907   4.436   3.824   3.848
 2965SOL    HW2 8908   4.307   3.829   3.748
 2966SOL     OW 8909   4.263   3.788   4.236
 2966SOL    HW1 8910   4.182   3.789   4.294
 2966SOL    HW2 8911   4.266   3.871   4.181
 2967SOL     OW 8912   4.021   3.759   3.895
 2967SOL    HW1 8913   4.070   3.843   3.874
 2967SOL    HW2 8914   4.083   3.694   3.940
 2968SOL     OW 8915   4.251   3.980   4.052
 2968SOL    HW1 8916   4.278   3.921   3.977
 2968SOL    HW2 8917   4.251   4.075   4.021
 2969SOL     OW 8918   4.031   3.787   4.342
 2969SOL    HW1 8919   4.020   3.881   4.375
 2969SOL    HW2 8920   4.026   3.724   4.419
 2970SOL     OW 8921   4.539   4.296   4.049
 2970SOL    HW1 8922   4.546   4.207   4.003
 2970SOL    HW2 8923   4.445   4.330   4.041
 2971SOL     OW 8924   4.197   4.224   3.915
 2971SOL    HW1 8925   4.258   4.304   3.919
 2971SOL    HW2 8926   4.102   4.255   3.922
 2972SOL     OW 8927   3.799   4.069   3.757
 2972SOL    HW1 8928   3.707   4.041   3.728
 2972SOL    HW2 8929   3.830   4.146   3.701
 2973SOL     OW 8930   3.796   3.890   4.042
 2973SOL    HW1 8931   3.779   3.973   3.988
 2973SOL    HW2 8932   3.886   3.853   4.020
 2974SOL     OW 8933   4.152   4.148   4.244
 2974SOL    HW1 8934   4.182   4.076   4.182
 2974SOL    HW2 8935   4.113   4.108   4.327
   4.50580   4.50580   4.50580
