mobley_5056289_GMX.gro created by acpype (v: 2023.10.27) on Wed May 20 23:45:59 2026
   16
    1MOL     C1    1   2.173   2.343   2.176
    1MOL     C2    2   2.149   2.254   2.296
    1MOL     C3    3   2.252   2.252   2.085
    1MOL     C4    4   2.277   2.172   2.303
    1MOL     C5    5   2.382   2.235   2.394
    1MOL     O1    6   2.331   2.167   2.170
    1MOL     H1    7   2.081   2.380   2.130
    1MOL     H2    8   2.234   2.429   2.206
    1MOL     H3    9   2.126   2.309   2.387
    1MOL     H4   10   2.064   2.187   2.274
    1MOL     H5   11   2.186   2.188   2.026
    1MOL     H6   12   2.318   2.307   2.017
    1MOL     H7   13   2.257   2.070   2.337
    1MOL     H8   14   2.365   2.343   2.403
    1MOL     H9   15   2.377   2.191   2.494
    1MOL    H10   16   2.482   2.219   2.354
   4.50580   4.50580   4.50580
