; mobley_9534740_GMX_OPLS.top created by acpype (v: 2023.10.27) on Wed May 20 23:43:47 2026

; Include forcefield parameters
#include "ffoplsaa.itp"

; Include mobley_9534740_GMX.itp topology
#include "mobley_9534740_GMX.itp"

; Ligand position restraints
#ifdef POSRES_LIG
#include "posre_mobley_9534740.itp"
#endif

[ system ]
 mobley_9534740

[ molecules ]
; Compound        nmols
 mobley_9534740   1     
