mobley_9534740_GMX.gro created by acpype (v: 2023.10.27) on Wed May 20 23:43:47 2026
 24
    1  MOL   C1    1  -0.142  -0.149  -0.064
    1  MOL   C2    2  -0.074  -0.013  -0.080
    1  MOL   C3    3  -0.048  -0.263  -0.102
    1  MOL   C4    4  -0.006  -0.002  -0.217
    1  MOL   C5    5   0.020  -0.237  -0.236
    1  MOL   C6    6   0.072   0.128  -0.231
    1  MOL   O1    7   0.085  -0.110  -0.235
    1  MOL   O2    8  -0.185  -0.165   0.071
    1  MOL   O3    9  -0.171   0.090  -0.067
    1  MOL   O4   10  -0.122  -0.385  -0.109
    1  MOL   O5   11   0.117  -0.341  -0.257
    1  MOL   O6   12   0.133   0.131  -0.359
    1  MOL   H1   13  -0.234  -0.153  -0.125
    1  MOL   H2   14   0.000   0.000  -0.000
    1  MOL   H3   15   0.027  -0.277  -0.023
    1  MOL   H4   16  -0.081  -0.004  -0.297
    1  MOL   H5   17  -0.052  -0.242  -0.319
    1  MOL   H6   18   0.150   0.132  -0.154
    1  MOL   H7   19   0.006   0.213  -0.220
    1  MOL   H8   20  -0.105  -0.160   0.126
    1  MOL   H9   21  -0.236   0.076  -0.137
    1  MOL  H10   22  -0.190  -0.372  -0.177
    1  MOL  H11   23   0.159  -0.322  -0.342
    1  MOL  H12   24   0.182   0.214  -0.365
    8.37400    11.98200     9.81600
