%VERSION  VERSION_STAMP = V0001.000  DATE = 05/20/26  23:43:50                  
%FLAG TITLE                                                                     
%FORMAT(20a4)                                                                   
d-glucose                                                                       
%FLAG POINTERS                                                                  
%FORMAT(10I8)                                                                   
      24       6      12      12      25      17      55      39       0       0
     134       1      12      17      39       9      20      24       7       0
       0       0       0       0       0       0       0       0      24       0
       0
%FLAG ATOM_NAME                                                                 
%FORMAT(20a4)                                                                   
C1  C2  C3  C4  C5  C6  O1  O2  O3  O4  O5  O6  H1  H2  H3  H4  H5  H6  H7  H8  
H9  H10 H11 H12 
%FLAG CHARGE                                                                    
%FORMAT(5E16.8)                                                                 
  1.29560553E+00  1.53249543E+00  1.62360693E+00  1.47782853E+00  5.81109147E+00
  2.52196632E+00 -8.46608058E+00 -1.03830665E+01 -1.04741780E+01 -1.01643989E+01
 -1.05835118E+01 -1.08021794E+01  1.37942811E+00  1.65276261E+00  1.94431941E+00
  9.96759810E-01  6.68758410E-01  1.23364971E+00  1.23364971E+00  7.50758760E+00
  7.47114300E+00  7.30714230E+00  7.79914440E+00  7.43469840E+00
%FLAG ATOMIC_NUMBER                                                             
%FORMAT(10I8)                                                                   
       6       6       6       6       6       6       8       8       8       8
       8       8       1       1       1       1       1       1       1       1
       1       1       1       1
%FLAG MASS                                                                      
%FORMAT(5E16.8)                                                                 
  1.20100000E+01  1.20100000E+01  1.20100000E+01  1.20100000E+01  1.20100000E+01
  1.20100000E+01  1.60000000E+01  1.60000000E+01  1.60000000E+01  1.60000000E+01
  1.60000000E+01  1.60000000E+01  1.00800000E+00  1.00800000E+00  1.00800000E+00
  1.00800000E+00  1.00800000E+00  1.00800000E+00  1.00800000E+00  1.00800000E+00
  1.00800000E+00  1.00800000E+00  1.00800000E+00  1.00800000E+00
%FLAG ATOM_TYPE_INDEX                                                           
%FORMAT(10I8)                                                                   
       1       1       1       1       1       1       2       3       3       3
       3       3       4       4       4       4       5       4       4       6
       6       6       6       6
%FLAG NUMBER_EXCLUDED_ATOMS                                                     
%FORMAT(10I8)                                                                   
      18      17      14      15      11       8      11       6       4       5
       3       4       3       2       2       2       1       2       1       1
       1       1       1       1
%FLAG NONBONDED_PARM_INDEX                                                      
%FORMAT(10I8)                                                                   
       1       2       4       7      11      16       2       3       5       8
      12      17       4       5       6       9      13      18       7       8
       9      10      14      19      11      12      13      14      15      20
      16      17      18      19      20      21
%FLAG RESIDUE_LABEL                                                             
%FORMAT(20a4)                                                                   
MOL 
%FLAG RESIDUE_POINTER                                                           
%FORMAT(10I8)                                                                   
       1
%FLAG BOND_FORCE_CONSTANT                                                       
%FORMAT(5E16.8)                                                                 
  2.26810000E+02  2.85250000E+02  3.42020000E+02  2.23800000E+02  2.79780000E+02
  3.41880000E+02  2.85150000E+02  3.44220000E+02  5.35510000E+02
%FLAG BOND_EQUIL_VALUE                                                          
%FORMAT(5E16.8)                                                                 
  1.53840000E+00  1.42410000E+00  1.09840000E+00  1.54280000E+00  1.43000000E+00
  1.09850000E+00  1.42420000E+00  1.09690000E+00  9.72500000E-01
%FLAG ANGLE_FORCE_CONSTANT                                                      
%FORMAT(5E16.8)                                                                 
  6.01800000E+01  7.65600000E+01  4.32800000E+01  6.52300000E+01  5.99900000E+01
  7.64200000E+01  4.31200000E+01  7.59500000E+01  4.31900000E+01  8.82800000E+01
  7.74500000E+01  4.33000000E+01  6.51300000E+01  5.66800000E+01  9.81000000E+01
  5.63300000E+01  5.63900000E+01  5.64500000E+01  5.62900000E+01  3.56400000E+01
%FLAG ANGLE_EQUIL_VALUE                                                         
%FORMAT(5E16.8)                                                                 
  1.93836350E+00  1.92073567E+00  1.90555129E+00  1.86872483E+00  1.94482122E+00
  1.92143380E+00  1.91951393E+00  1.94517029E+00  1.90467863E+00  1.97745889E+00
  1.86453604E+00  1.89455572E+00  1.87430989E+00  1.88635266E+00  1.89682464E+00
  1.91008915E+00  1.91916487E+00  1.91480154E+00  1.92649525E+00  1.89455572E+00
%FLAG DIHEDRAL_FORCE_CONSTANT                                                   
%FORMAT(5E16.8)                                                                 
  5.20000000E-01  1.55555556E-01  6.00000000E-02  1.80000000E-01  3.50000000E-01
  1.38000000E+00  1.16000000E+00  1.56000000E+00  8.60000000E-01  6.36666667E-01
  3.83333333E-01  8.80000000E-01  8.00000000E-02  7.50000000E-01  3.37000000E-01
  6.70000000E-01  7.30000000E-01  1.07000000E+00  2.50000000E-01  0.00000000E+00
  1.66666667E-01  1.00000000E+00  1.44000000E+00  1.23000000E-01
%FLAG DIHEDRAL_PERIODICITY                                                      
%FORMAT(5E16.8)                                                                 
  3.00000000E+00  3.00000000E+00  3.00000000E+00  3.00000000E+00  1.00000000E+00
  2.00000000E+00  3.00000000E+00  1.00000000E+00  2.00000000E+00  3.00000000E+00
  3.00000000E+00  1.00000000E+00  2.00000000E+00  3.00000000E+00  3.00000000E+00
  1.00000000E+00  2.00000000E+00  3.00000000E+00  1.00000000E+00  3.00000000E+00
  3.00000000E+00  1.00000000E+00  3.00000000E+00  3.00000000E+00
%FLAG DIHEDRAL_PHASE                                                            
%FORMAT(5E16.8)                                                                 
  0.00000000E+00  0.00000000E+00  0.00000000E+00  0.00000000E+00  3.14159400E+00
  0.00000000E+00  0.00000000E+00  3.14159400E+00  0.00000000E+00  0.00000000E+00
  0.00000000E+00  3.14159400E+00  0.00000000E+00  0.00000000E+00  0.00000000E+00
  3.14159400E+00  3.14159400E+00  0.00000000E+00  0.00000000E+00  0.00000000E+00
  0.00000000E+00  0.00000000E+00  0.00000000E+00  0.00000000E+00
%FLAG SCEE_SCALE_FACTOR                                                         
%FORMAT(5E16.8)                                                                 
  1.20000000E+00  1.20000000E+00  1.20000000E+00  1.20000000E+00  1.20000000E+00
  1.20000000E+00  1.20000000E+00  1.20000000E+00  1.20000000E+00  1.20000000E+00
  1.20000000E+00  1.20000000E+00  1.20000000E+00  1.20000000E+00  1.20000000E+00
  1.20000000E+00  1.20000000E+00  1.20000000E+00  1.20000000E+00  1.20000000E+00
  1.20000000E+00  1.20000000E+00  1.20000000E+00  1.20000000E+00
%FLAG SCNB_SCALE_FACTOR                                                         
%FORMAT(5E16.8)                                                                 
  2.00000000E+00  2.00000000E+00  2.00000000E+00  2.00000000E+00  2.00000000E+00
  2.00000000E+00  2.00000000E+00  2.00000000E+00  2.00000000E+00  2.00000000E+00
  2.00000000E+00  2.00000000E+00  2.00000000E+00  2.00000000E+00  2.00000000E+00
  2.00000000E+00  2.00000000E+00  2.00000000E+00  2.00000000E+00  2.00000000E+00
  2.00000000E+00  2.00000000E+00  2.00000000E+00  2.00000000E+00
%FLAG SOLTY                                                                     
%FORMAT(5E16.8)                                                                 
  0.00000000E+00  0.00000000E+00  0.00000000E+00  0.00000000E+00  0.00000000E+00
  0.00000000E+00  0.00000000E+00
%FLAG LENNARD_JONES_ACOEF                                                       
%FORMAT(5E16.8)                                                                 
  1.02073671E+06  5.42502534E+05  2.83662575E+05  7.18991463E+05  3.78207390E+05
  5.03152404E+05  6.97998263E+04  3.44374471E+04  4.69084694E+04  3.39005767E+03
  4.80619274E+04  2.33261683E+04  3.19666529E+04  2.16218723E+03  1.35510742E+03
  3.03553352E+02  1.16469347E+02  1.74176419E+02  4.36660257E+00  2.07292270E+00
  1.10360882E-05
%FLAG LENNARD_JONES_BCOEF                                                       
%FORMAT(5E16.8)                                                                 
  6.63431737E+02  4.38146883E+02  2.87011518E+02  5.36620538E+02  3.52573684E+02
  4.32634597E+02  1.14981426E+02  7.31636661E+01  9.08431526E+01  1.67944276E+01
  9.54115851E+01  6.02145835E+01  7.49920368E+01  1.34124560E+01  1.06181419E+01
  5.22789272E+00  2.93355636E+00  3.81654050E+00  4.15568027E-01  2.86326700E-01
  4.55498033E-04
%FLAG BONDS_INC_HYDROGEN                                                        
%FORMAT(10I8)                                                                   
       0      36       3       3      39       3       6      42       3       9
      45       3      12      48       6      15      51       8      15      54
       8      21      57       9      24      60       9      27      63       9
      30      66       9      33      69       9
%FLAG BONDS_WITHOUT_HYDROGEN                                                    
%FORMAT(10I8)                                                                   
       0       3       1       0       6       1       0      21       2       3
       9       1       3      24       2       6      12       1       6      27
       2       9      15       4       9      18       5      12      18       5
      12      30       2      15      33       7
%FLAG ANGLES_INC_HYDROGEN                                                       
%FORMAT(10I8)                                                                   
       0       3      39       3       0       6      42       3       0      21
      57       4       3       0      36       3       3       9      45       3
       3      24      60       4       6       0      36       3       6      12
      48       7       6      27      63       4       9       3      39       3
       9      15      51       9       9      15      54       9      12       6
      42       3      12      30      66       4      15       9      45      12
      15      33      69      13      18       9      45      14      18      12
      48      16      21       0      36      17      24       3      39      17
      27       6      42      17      30      12      48      18      33      15
      51      19      33      15      54      19      51      15      54      20
%FLAG ANGLES_WITHOUT_HYDROGEN                                                   
%FORMAT(10I8)                                                                   
       0       3       9       1       0       3      24       2       0       6
      12       1       0       6      27       2       3       0       6       1
       3       0      21       2       3       9      15       5       3       9
      18       6       6       0      21       2       6      12      18       6
       6      12      30       2       9       3      24       2       9      15
      33       8       9      18      12      10      12       6      27       2
      15       9      18      11      18      12      30      15
%FLAG DIHEDRALS_INC_HYDROGEN                                                    
%FORMAT(10I8)                                                                   
       0       3       9      45       2       0       3      24      60       3
       0       6      12      48       2       0       6      27      63       3
       3       0       6      42       2       3       0      21      57       3
       3       9      15      51       2       3       9      15      54       2
       6       0       3      39       2       6       0      21      57       3
       6      12      30      66       3      36       0       3       9       2
       9       3      24      60       3       9      15      33      69       3
       9      18      12      48      11      36       0       6      12       2
      12       6      27      63       3      12      18       9      45      15
      15       9       3      39       2      18       9       3      39      19
      18       9      -3      39      20      18       9      15      51      19
      18       9     -15      51      20      18       9      15      54      19
      18       9     -15      54      20      18      12       6      42      19
      18      12      -6      42      20      18      12      30      66      21
      21       0       3      39      19      21       0      -3      39      20
      21       0       6      42      19      21       0      -6      42      20
      36       0       3      24      19      36       0      -3      24      20
      24       3       9      45      19      24       3      -9      45      20
      36       0       6      27      19      36       0      -6      27      20
      27       6      12      48       2      30      12       6      42      19
      30      12      -6      42      20      33      15       9      45      19
      33      15      -9      45      20      36       0       3      39       2
      36       0       6      42       2      36       0      21      57      24
      39       3       9      45       2      39       3      24      60      24
      42       6      12      48       2      42       6      27      63      24
      45       9      15      51       2      45       9      15      54       2
      48      12      30      66      21      51      15      33      69      24
      54      15      33      69      24
%FLAG DIHEDRALS_WITHOUT_HYDROGEN                                                
%FORMAT(10I8)                                                                   
       0       3       9      15       1       0       3       9      18       2
       0       6     -12      18       2       0       6      12      30       4
       3       0       6      12       1       3       0       6      27       4
       3       9      15      33       4       3       9     -18      12       5
       3       9     -18      12       6       3       9     -18      12       7
       6       0       3       9       1       6       0       3      24       4
       6      12     -18       9       5       6      12     -18       9       6
       6      12     -18       9       7      21       0       3       9       4
       9      18      12      30       8       9      18     -12      30       9
       9      18     -12      30      10      21       0       6      12       4
      12      18       9      15      12      12      18      -9      15      13
      12      18      -9      15      14      15       9       3      24       4
      18       9       3      24      16      18       9      -3      24      17
      18       9      -3      24      18      18       9      15      33      16
      18       9     -15      33      17      18       9     -15      33      18
      18      12       6      27      16      18      12      -6      27      17
      18      12      -6      27      18      21       0       3      24      22
      21       0      -3      24      23      21       0       6      27      22
      21       0      -6      27      23      27       6      12      30      22
      27       6     -12      30      23
%FLAG EXCLUDED_ATOMS_LIST                                                       
%FORMAT(10I8)                                                                   
       2       3       4       5       6       7       8       9      10      11
      13      14      15      16      17      20      21      22       3       4
       5       6       7       8       9      10      12      13      14      15
      16      18      19      20      21       4       5       7       8       9
      10      11      13      14      15      17      20      22      23       5
       6       7       8       9      11      12      13      14      16      17
      18      19      21      24       6       7       8      10      11      13
      15      16      17      22      23       7       9      12      14      16
      18      19      24       9      10      11      12      14      15      16
      17      18      19      23       9      10      13      14      15      20
      13      14      16      21      11      13      15      17      22      15
      17      23      16      18      19      24      14      15      20      16
      21      17      22      18      19      23      19      24      24       0
       0       0       0       0
%FLAG HBOND_ACOEF                                                               
%FORMAT(5E16.8)                                                                 

%FLAG HBOND_BCOEF                                                               
%FORMAT(5E16.8)                                                                 

%FLAG HBCUT                                                                     
%FORMAT(5E16.8)                                                                 

%FLAG AMBER_ATOM_TYPE                                                           
%FORMAT(20a4)                                                                   
c6  c6  c6  c6  c6  c3  os  oh  oh  oh  oh  oh  h1  h1  h1  h1  h2  h1  h1  ho  
ho  ho  ho  ho  
%FLAG TREE_CHAIN_CLASSIFICATION                                                 
%FORMAT(20a4)                                                                   
BLA BLA BLA BLA BLA BLA BLA BLA BLA BLA BLA BLA BLA BLA BLA BLA BLA BLA BLA BLA 
BLA BLA BLA BLA 
%FLAG JOIN_ARRAY                                                                
%FORMAT(10I8)                                                                   
       0       0       0       0       0       0       0       0       0       0
       0       0       0       0       0       0       0       0       0       0
       0       0       0       0
%FLAG IROTAT                                                                    
%FORMAT(10I8)                                                                   
       0       0       0       0       0       0       0       0       0       0
       0       0       0       0       0       0       0       0       0       0
       0       0       0       0
%FLAG RADIUS_SET                                                                
%FORMAT(1a80)                                                                   
modified Bondi radii (mbondi)                                                   
%FLAG RADII                                                                     
%FORMAT(5E16.8)                                                                 
  1.70000000E+00  1.70000000E+00  1.70000000E+00  1.70000000E+00  1.70000000E+00
  1.70000000E+00  1.50000000E+00  1.50000000E+00  1.50000000E+00  1.50000000E+00
  1.50000000E+00  1.50000000E+00  1.30000000E+00  1.30000000E+00  1.30000000E+00
  1.30000000E+00  1.30000000E+00  1.30000000E+00  1.30000000E+00  8.00000000E-01
  8.00000000E-01  8.00000000E-01  8.00000000E-01  8.00000000E-01
%FLAG SCREEN                                                                    
%FORMAT(5E16.8)                                                                 
  7.20000000E-01  7.20000000E-01  7.20000000E-01  7.20000000E-01  7.20000000E-01
  7.20000000E-01  8.50000000E-01  8.50000000E-01  8.50000000E-01  8.50000000E-01
  8.50000000E-01  8.50000000E-01  8.50000000E-01  8.50000000E-01  8.50000000E-01
  8.50000000E-01  8.50000000E-01  8.50000000E-01  8.50000000E-01  8.50000000E-01
  8.50000000E-01  8.50000000E-01  8.50000000E-01  8.50000000E-01
%FLAG IPOL                                                                      
%FORMAT(1I8)                                                                    
       0
