d-glucose
    24
  -1.4240000  -1.4910000  -0.6420000  -0.7390000  -0.1330000  -0.8000000
  -0.4800000  -2.6340000  -1.0160000  -0.0640000  -0.0220000  -2.1700000
   0.2030000  -2.3730000  -2.3590000   0.7250000   1.2760000  -2.3060000
   0.8520000  -1.1030000  -2.3510000  -1.8480000  -1.6520000   0.7120000
  -1.7100000   0.9020000  -0.6670000  -1.2210000  -3.8520000  -1.0860000
   1.1670000  -3.4050000  -2.5670000   1.3270000   1.3050000  -3.5870000
  -2.3370000  -1.5300000  -1.2480000   0.0000000   0.0020000  -0.0010000
   0.2720000  -2.7730000  -0.2310000  -0.8140000  -0.0420000  -2.9720000
  -0.5170000  -2.4240000  -3.1850000   1.5010000   1.3220000  -1.5420000
   0.0560000   2.1310000  -2.2030000  -1.0490000  -1.6000000   1.2570000
  -2.3640000   0.7580000  -1.3690000  -1.8990000  -3.7220000  -1.7660000
   1.5860000  -3.2200000  -3.4210000   1.8230000   2.1390000  -3.6510000
