1_bromo_2_methylpropane
    14
   0.3900000  -0.1780000  -1.0080000  -0.7000000   1.9370000  -1.7720000
   0.0070000   0.2530000  -3.4790000  -0.5320000   0.4430000  -2.0610000
   1.7600000   1.0800000  -3.6870000   1.3970000   0.2500000  -1.0590000
  -0.0000000   0.0000000   0.0000000   0.4760000  -1.2620000  -1.1370000
   0.2570000   2.4660000  -1.8430000  -1.1020000   2.0960000  -0.7670000
  -1.3940000   2.3950000  -2.4850000  -0.6460000   0.6940000  -4.2380000
   0.1620000  -0.8050000  -3.7130000  -1.5190000  -0.0270000  -1.9740000
