; mobley_627267_GMX.top created by acpype (v: 2023.10.27) on Wed May 20 23:42:56 2026

[ defaults ]
; nbfunc        comb-rule       gen-pairs       fudgeLJ fudgeQQ
1               2               yes             0.5     0.8333333333

; Include mobley_627267_GMX.itp topology
#include "mobley_627267_GMX.itp"

; Ligand position restraints
#ifdef POSRES_LIG
#include "posre_mobley_627267.itp"
#endif

[ system ]
mobley_627267 in water

[ molecules ]
; Compound        nmols
 mobley_627267    1     
SOL              2852
