; mobley_627267_GMX_OPLS.top created by acpype (v: 2023.10.27) on Wed May 20 23:42:56 2026

; Include forcefield parameters
#include "ffoplsaa.itp"

; Include mobley_627267_GMX.itp topology
#include "mobley_627267_GMX.itp"

; Ligand position restraints
#ifdef POSRES_LIG
#include "posre_mobley_627267.itp"
#endif

[ system ]
 mobley_627267

[ molecules ]
; Compound        nmols
 mobley_627267    1     
