mobley_627267_GMX.gro created by acpype (v: 2023.10.27) on Wed May 20 23:42:56 2026
 14
    1  MOL   C1    1   0.039  -0.018  -0.101
    1  MOL   C2    2  -0.070   0.194  -0.177
    1  MOL   C3    3   0.001   0.025  -0.348
    1  MOL   C4    4  -0.053   0.044  -0.206
    1  MOL  BR1    5   0.176   0.108  -0.369
    1  MOL   H1    6   0.140   0.025  -0.106
    1  MOL   H2    7  -0.000   0.000   0.000
    1  MOL   H3    8   0.048  -0.126  -0.114
    1  MOL   H4    9   0.026   0.247  -0.184
    1  MOL   H5   10  -0.110   0.210  -0.077
    1  MOL   H6   11  -0.139   0.240  -0.248
    1  MOL   H7   12  -0.065   0.069  -0.424
    1  MOL   H8   13   0.016  -0.081  -0.371
    1  MOL   H9   14  -0.152  -0.003  -0.197
    6.55800     7.45600     8.47600
