heptan_4_one
    22
   2.6510000   2.6140000   2.8470000   1.0140000   0.3950000   0.1170000
   5.4840000   4.5630000   4.6450000   2.5200000   1.7870000   1.5770000
   4.0250000   3.2150000   3.0970000   1.1270000   1.1880000   1.4080000
   4.0920000   4.0010000   4.4030000   1.7090000   2.7840000   3.6190000
   1.7320000  -0.4320000   0.1000000   0.0090000  -0.0270000   0.0170000
   1.2030000   1.0320000  -0.7530000   5.7810000   5.2370000   3.8350000
   5.5080000   5.1270000   5.5820000   6.2240000   3.7600000   4.7130000
   2.7510000   2.4380000   0.7260000   3.2680000   0.9870000   1.6180000
   4.2630000   3.8730000   2.2540000   4.7520000   2.3960000   3.1170000
   0.8960000   0.5320000   2.2560000   0.3740000   1.9850000   1.4100000
   3.3690000   4.8250000   4.3820000   3.8120000   3.3550000   5.2440000
