mobley_2390199_GMX.gro created by acpype (v: 2023.10.27) on Wed May 20 23:42:57 2026
 22
    1  MOL   C1    1   0.265   0.261   0.285
    1  MOL   C2    2   0.101   0.040   0.012
    1  MOL   C3    3   0.548   0.456   0.464
    1  MOL   C4    4   0.252   0.179   0.158
    1  MOL   C5    5   0.403   0.322   0.310
    1  MOL   C6    6   0.113   0.119   0.141
    1  MOL   C7    7   0.409   0.400   0.440
    1  MOL   O1    8   0.171   0.278   0.362
    1  MOL   H1    9   0.173  -0.043   0.010
    1  MOL   H2   10   0.001  -0.003   0.002
    1  MOL   H3   11   0.120   0.103  -0.075
    1  MOL   H4   12   0.578   0.524   0.384
    1  MOL   H5   13   0.551   0.513   0.558
    1  MOL   H6   14   0.622   0.376   0.471
    1  MOL   H7   15   0.275   0.244   0.073
    1  MOL   H8   16   0.327   0.099   0.162
    1  MOL   H9   17   0.426   0.387   0.225
    1  MOL  H10   18   0.475   0.240   0.312
    1  MOL  H11   19   0.090   0.053   0.226
    1  MOL  H12   20   0.037   0.199   0.141
    1  MOL  H13   21   0.337   0.483   0.438
    1  MOL  H14   22   0.381   0.336   0.524
   12.43000    11.33800    12.67000
