; mobley_2390199_GMX_OPLS.top created by acpype (v: 2023.10.27) on Wed May 20 23:42:57 2026

; Include forcefield parameters
#include "ffoplsaa.itp"

; Include mobley_2390199_GMX.itp topology
#include "mobley_2390199_GMX.itp"

; Ligand position restraints
#ifdef POSRES_LIG
#include "posre_mobley_2390199.itp"
#endif

[ system ]
 mobley_2390199

[ molecules ]
; Compound        nmols
 mobley_2390199   1     
