%VERSION  VERSION_STAMP = V0001.000  DATE = 05/20/26  23:43:04                  
%FLAG TITLE                                                                     
%FORMAT(20a4)                                                                   
heptan_4_one                                                                    
%FLAG POINTERS                                                                  
%FORMAT(10I8)                                                                   
      22       4      14       7      32       7      46      15       0       0
     110       1       7       7      15       4       7      14       4       0
       0       0       0       0       0       0       0       0      22       0
       0
%FLAG ATOM_NAME                                                                 
%FORMAT(20a4)                                                                   
C1  C2  C3  C4  C5  C6  C7  O1  H1  H2  H3  H4  H5  H6  H7  H8  H9  H10 H11 H12 
H13 H14 
%FLAG CHARGE                                                                    
%FORMAT(5E16.8)                                                                 
  1.02791994E+01 -1.69649613E+00 -1.69649613E+00 -3.34196982E+00 -3.34196982E+00
 -1.39218372E+00 -1.39218372E+00 -9.65964123E+00  6.14091510E-01  6.14091510E-01
  6.14091510E-01  6.14091510E-01  6.14091510E-01  6.14091510E-01  1.15164936E+00
  1.15164936E+00  1.15164936E+00  1.15164936E+00  9.87648660E-01  9.87648660E-01
  9.87648660E-01  9.87648660E-01
%FLAG ATOMIC_NUMBER                                                             
%FORMAT(10I8)                                                                   
       6       6       6       6       6       6       6       8       1       1
       1       1       1       1       1       1       1       1       1       1
       1       1
%FLAG MASS                                                                      
%FORMAT(5E16.8)                                                                 
  1.20100000E+01  1.20100000E+01  1.20100000E+01  1.20100000E+01  1.20100000E+01
  1.20100000E+01  1.20100000E+01  1.60000000E+01  1.00800000E+00  1.00800000E+00
  1.00800000E+00  1.00800000E+00  1.00800000E+00  1.00800000E+00  1.00800000E+00
  1.00800000E+00  1.00800000E+00  1.00800000E+00  1.00800000E+00  1.00800000E+00
  1.00800000E+00  1.00800000E+00
%FLAG ATOM_TYPE_INDEX                                                           
%FORMAT(10I8)                                                                   
       1       2       2       2       2       2       2       3       4       4
       4       4       4       4       4       4       4       4       4       4
       4       4
%FLAG NUMBER_EXCLUDED_ATOMS                                                     
%FORMAT(10I8)                                                                   
      15       9       9      13      12       8       8       4       4       3
       2       4       3       2       3       2       3       2       1       1
       1       1
%FLAG NONBONDED_PARM_INDEX                                                      
%FORMAT(10I8)                                                                   
       1       2       4       7       2       3       5       8       4       5
       6       9       7       8       9      10
%FLAG RESIDUE_LABEL                                                             
%FORMAT(20a4)                                                                   
MOL 
%FLAG RESIDUE_POINTER                                                           
%FORMAT(10I8)                                                                   
       1
%FLAG BOND_FORCE_CONSTANT                                                       
%FORMAT(5E16.8)                                                                 
  2.34850000E+02  5.90600000E+02  2.28890000E+02  3.45250000E+02
%FLAG BOND_EQUIL_VALUE                                                          
%FORMAT(5E16.8)                                                                 
  1.52700000E+00  1.21900000E+00  1.53540000E+00  1.09620000E+00
%FLAG ANGLE_FORCE_CONSTANT                                                      
%FORMAT(5E16.8)                                                                 
  6.03600000E+01  4.36300000E+01  5.98700000E+01  4.32700000E+01  5.91500000E+01
  7.64500000E+01  3.58000000E+01
%FLAG ANGLE_EQUIL_VALUE                                                         
%FORMAT(5E16.8)                                                                 
  1.94482122E+00  1.90153704E+00  1.96576518E+00  1.91427794E+00  2.03645104E+00
  2.14501057E+00  1.88024401E+00
%FLAG DIHEDRAL_FORCE_CONSTANT                                                   
%FORMAT(5E16.8)                                                                 
  4.60000000E-01  4.00000000E-02  0.00000000E+00  1.55555556E-01  1.30000000E-01
  2.62000000E-01  0.00000000E+00  6.80000000E-01  2.00000000E-01  4.40000000E-01
  4.03000000E+00  3.66000000E+00  1.20000000E-01  1.10000000E+00
%FLAG DIHEDRAL_PERIODICITY                                                      
%FORMAT(5E16.8)                                                                 
  1.00000000E+00  2.00000000E+00  3.00000000E+00  3.00000000E+00  3.00000000E+00
  2.00000000E+00  3.00000000E+00  1.00000000E+00  2.00000000E+00  3.00000000E+00
  1.00000000E+00  2.00000000E+00  3.00000000E+00  2.00000000E+00
%FLAG DIHEDRAL_PHASE                                                            
%FORMAT(5E16.8)                                                                 
  3.14159400E+00  0.00000000E+00  0.00000000E+00  0.00000000E+00  0.00000000E+00
  3.14159400E+00  3.14159400E+00  0.00000000E+00  3.14159400E+00  3.14159400E+00
  0.00000000E+00  3.14159400E+00  0.00000000E+00  3.14159400E+00
%FLAG SCEE_SCALE_FACTOR                                                         
%FORMAT(5E16.8)                                                                 
  1.20000000E+00  1.20000000E+00  1.20000000E+00  1.20000000E+00  1.20000000E+00
  1.20000000E+00  1.20000000E+00  1.20000000E+00  1.20000000E+00  1.20000000E+00
  1.20000000E+00  1.20000000E+00  1.20000000E+00  0.00000000E+00
%FLAG SCNB_SCALE_FACTOR                                                         
%FORMAT(5E16.8)                                                                 
  2.00000000E+00  2.00000000E+00  2.00000000E+00  2.00000000E+00  2.00000000E+00
  2.00000000E+00  2.00000000E+00  2.00000000E+00  2.00000000E+00  2.00000000E+00
  2.00000000E+00  2.00000000E+00  2.00000000E+00  0.00000000E+00
%FLAG SOLTY                                                                     
%FORMAT(5E16.8)                                                                 
  0.00000000E+00  0.00000000E+00  0.00000000E+00  0.00000000E+00
%FLAG LENNARD_JONES_ACOEF                                                       
%FORMAT(5E16.8)                                                                 
  6.96551276E+05  8.43969952E+05  1.02073671E+06  5.17507491E+05  6.30925504E+05
  3.76435470E+05  8.12662403E+04  1.00235148E+05  5.68021765E+04  7.94617769E+03
%FLAG LENNARD_JONES_BCOEF                                                       
%FORMAT(5E16.8)                                                                 
  5.24668528E+02  5.90251928E+02  6.63431737E+02  4.98871431E+02  5.62969425E+02
  4.69350655E+02  1.21392023E+02  1.37787728E+02  1.11953944E+02  2.57122925E+01
%FLAG BONDS_INC_HYDROGEN                                                        
%FORMAT(10I8)                                                                   
       3      24       4       3      27       4       3      30       4       6
      33       4       6      36       4       6      39       4       9      42
       4       9      45       4      12      48       4      12      51       4
      15      54       4      15      57       4      18      60       4      18
      63       4
%FLAG BONDS_WITHOUT_HYDROGEN                                                    
%FORMAT(10I8)                                                                   
       0       9       1       0      12       1       0      21       2       3
      15       3       6      18       3       9      15       3      12      18
       3
%FLAG ANGLES_INC_HYDROGEN                                                       
%FORMAT(10I8)                                                                   
       0       9      42       2       0       9      45       2       0      12
      48       2       0      12      51       2       3      15      54       4
       3      15      57       4       6      18      60       4       6      18
      63       4       9      15      54       4       9      15      57       4
      12      18      60       4      12      18      63       4      15       3
      24       4      15       3      27       4      15       3      30       4
      15       9      42       4      15       9      45       4      18       6
      33       4      18       6      36       4      18       6      39       4
      18      12      48       4      18      12      51       4      24       3
      27       7      24       3      30       7      27       3      30       7
      33       6      36       7      33       6      39       7      36       6
      39       7      42       9      45       7      48      12      51       7
      54      15      57       7      60      18      63       7
%FLAG ANGLES_WITHOUT_HYDROGEN                                                   
%FORMAT(10I8)                                                                   
       0       9      15       1       0      12      18       1       3      15
       9       3       6      18      12       3       9       0      12       5
       9       0      21       6      12       0      21       6
%FLAG DIHEDRALS_INC_HYDROGEN                                                    
%FORMAT(10I8)                                                                   
       0       9      15      54       4       0       9      15      57       4
       0      12      18      60       4       0      12      18      63       4
       3      15       9      42       5       3      15       9      45       5
       6      18      12      48       5       6      18      12      51       5
       9       0      12      48       7       9       0      12      51       7
       9      15       3      24       5       9      15       3      27       5
       9      15       3      30       5      12       0       9      42       7
      12       0       9      45       7      12      18       6      33       5
      12      18       6      36       5      12      18       6      39       5
      21       0       9      42      11      21       0      -9      42      12
      21       0       9      45      11      21       0      -9      45      12
      21       0      12      48      11      21       0     -12      48      12
      21       0      12      51      11      21       0     -12      51      12
      24       3      15      54      13      24       3      15      57      13
      27       3      15      54      13      27       3      15      57      13
      30       3      15      54      13      30       3      15      57      13
      33       6      18      60      13      33       6      18      63      13
      36       6      18      60      13      36       6      18      63      13
      39       6      18      60      13      39       6      18      63      13
      42       9      15      54      13      42       9      15      57      13
      45       9      15      54      13      45       9      15      57      13
      48      12      18      60      13      48      12      18      63      13
      51      12      18      60      13      51      12      18      63      13
%FLAG DIHEDRALS_WITHOUT_HYDROGEN                                                
%FORMAT(10I8)                                                                   
       0       9      15       3       1       0       9     -15       3       2
       0       9     -15       3       3       0      12      18       6       1
       0      12     -18       6       2       0      12     -18       6       3
       9       0      12      18       6      12       0       9      15       6
      21       0       9      15       8      21       0      -9      15       9
      21       0      -9      15      10      21       0      12      18       8
      21       0     -12      18       9      21       0     -12      18      10
      21       0     -12      -9      14
%FLAG EXCLUDED_ATOMS_LIST                                                       
%FORMAT(10I8)                                                                   
       2       3       4       5       6       7       8      15      16      17
      18      19      20      21      22       4       6       9      10      11
      15      16      19      20       5       7      12      13      14      17
      18      21      22       5       6       7       8       9      10      11
      15      16      17      18      19      20       6       7       8      12
      13      14      15      16      17      18      21      22       8       9
      10      11      15      16      19      20       8      12      13      14
      17      18      21      22      15      16      17      18      10      11
      19      20      11      19      20      19      20      13      14      21
      22      14      21      22      21      22      16      19      20      19
      20      18      21      22      21      22      20       0      22       0
%FLAG HBOND_ACOEF                                                               
%FORMAT(5E16.8)                                                                 

%FLAG HBOND_BCOEF                                                               
%FORMAT(5E16.8)                                                                 

%FLAG HBCUT                                                                     
%FORMAT(5E16.8)                                                                 

%FLAG AMBER_ATOM_TYPE                                                           
%FORMAT(20a4)                                                                   
c   c3  c3  c3  c3  c3  c3  o   hc  hc  hc  hc  hc  hc  hc  hc  hc  hc  hc  hc  
hc  hc  
%FLAG TREE_CHAIN_CLASSIFICATION                                                 
%FORMAT(20a4)                                                                   
BLA BLA BLA BLA BLA BLA BLA BLA BLA BLA BLA BLA BLA BLA BLA BLA BLA BLA BLA BLA 
BLA BLA 
%FLAG JOIN_ARRAY                                                                
%FORMAT(10I8)                                                                   
       0       0       0       0       0       0       0       0       0       0
       0       0       0       0       0       0       0       0       0       0
       0       0
%FLAG IROTAT                                                                    
%FORMAT(10I8)                                                                   
       0       0       0       0       0       0       0       0       0       0
       0       0       0       0       0       0       0       0       0       0
       0       0
%FLAG RADIUS_SET                                                                
%FORMAT(1a80)                                                                   
modified Bondi radii (mbondi)                                                   
%FLAG RADII                                                                     
%FORMAT(5E16.8)                                                                 
  1.70000000E+00  1.70000000E+00  1.70000000E+00  1.70000000E+00  1.70000000E+00
  1.70000000E+00  1.70000000E+00  1.50000000E+00  1.30000000E+00  1.30000000E+00
  1.30000000E+00  1.30000000E+00  1.30000000E+00  1.30000000E+00  1.30000000E+00
  1.30000000E+00  1.30000000E+00  1.30000000E+00  1.30000000E+00  1.30000000E+00
  1.30000000E+00  1.30000000E+00
%FLAG SCREEN                                                                    
%FORMAT(5E16.8)                                                                 
  7.20000000E-01  7.20000000E-01  7.20000000E-01  7.20000000E-01  7.20000000E-01
  7.20000000E-01  7.20000000E-01  8.50000000E-01  8.50000000E-01  8.50000000E-01
  8.50000000E-01  8.50000000E-01  8.50000000E-01  8.50000000E-01  8.50000000E-01
  8.50000000E-01  8.50000000E-01  8.50000000E-01  8.50000000E-01  8.50000000E-01
  8.50000000E-01  8.50000000E-01
%FLAG IPOL                                                                      
%FORMAT(1I8)                                                                    
       0
