mobley_5123639_GMX.gro created by acpype (v: 2023.10.27) on Thu May 21 00:01:54 2026
   21
    1MOL     C1    1   2.195   2.126   2.276
    1MOL     C2    2   2.198   2.270   2.480
    1MOL     C3    3   2.500   2.444   2.191
    1MOL     C4    4   2.265   2.371   2.260
    1MOL     C5    5   2.173   2.268   2.329
    1MOL     C6    6   2.415   2.344   2.268
    1MOL     O1    7   2.452   2.350   2.406
    1MOL     H1    8   2.300   2.096   2.285
    1MOL     H2    9   2.166   2.118   2.170
    1MOL     H3   10   2.134   2.054   2.331
    1MOL     H4   11   2.179   2.371   2.521
    1MOL     H5   12   2.131   2.201   2.531
    1MOL     H6   13   2.301   2.242   2.504
    1MOL     H7   14   2.479   2.546   2.225
    1MOL     H8   15   2.606   2.426   2.208
    1MOL     H9   16   2.481   2.439   2.083
    1MOL    H10   17   2.245   2.471   2.301
    1MOL    H11   18   2.236   2.379   2.154
    1MOL    H12   19   2.069   2.296   2.312
    1MOL    H13   20   2.438   2.242   2.234
    1MOL    H14   21   2.524   2.415   2.412
   4.61691   4.61691   4.61691
