mobley_7599023_GMX.gro created by acpype (v: 2023.10.27) on Wed May 20 23:51:51 2026
   12
    1MOL     C1    1   2.291   2.285   2.143
    1MOL     C2    2   2.184   2.345   2.210
    1MOL     C3    3   2.396   2.229   2.215
    1MOL     C4    4   2.182   2.348   2.350
    1MOL     C5    5   2.394   2.232   2.355
    1MOL     C6    6   2.287   2.291   2.422
    1MOL    BR1    7   2.285   2.295   2.611
    1MOL     H1    8   2.292   2.283   2.034
    1MOL     H2    9   2.102   2.389   2.154
    1MOL     H3   10   2.479   2.182   2.163
    1MOL     H4   11   2.098   2.395   2.400
    1MOL     H5   12   2.476   2.187   2.410
   4.57717   4.57717   4.57717
