mobley_1800170_GMX.gro created by acpype (v: 2023.10.27) on Wed May 20 23:48:30 2026
    9
    1MOL     C1    1   2.119   2.238   2.252
    1MOL     C2    2   2.260   2.186   2.231
    1MOL     S1    3   2.368   2.318   2.167
    1MOL     H1    4   2.117   2.320   2.324
    1MOL     H2    5   2.075   2.273   2.158
    1MOL     H3    6   2.055   2.158   2.291
    1MOL     H4    7   2.260   2.103   2.160
    1MOL     H5    8   2.301   2.150   2.326
    1MOL     H6    9   2.434   2.240   2.080
   4.44146   4.44146   4.44146
