%VERSION  VERSION_STAMP = V0001.000  DATE = 05/20/26  23:53:48                  
%FLAG TITLE                                                                     
%FORMAT(20a4)                                                                   
4_methoxyaniline                                                                
%FLAG POINTERS                                                                  
%FORMAT(10I8)                                                                   
      18       7       9       9      17      11      26      14       0       0
      80       1       9      11      14       7       9       5       7       0
       0       0       0       0       0       0       0       0      18       0
       0
%FLAG ATOM_NAME                                                                 
%FORMAT(20a4)                                                                   
C1  C2  C3  C4  C5  C6  C7  N1  O1  H1  H2  H3  H4  H5  H6  H7  H8  H9  
%FLAG CHARGE                                                                    
%FORMAT(5E16.8)                                                                 
 -2.82445650E+00 -2.82445650E+00 -2.60578890E+00 -2.60578890E+00  1.77849648E+00
  1.51427313E+00  2.09009781E+00 -1.47272629E+01 -5.99331447E+00  2.42356590E+00
  2.42356590E+00  2.57845545E+00  2.57845545E+00  7.59869910E-01  7.59869910E-01
  7.59869910E-01  6.93905184E+00  6.93905184E+00
%FLAG ATOMIC_NUMBER                                                             
%FORMAT(10I8)                                                                   
       6       6       6       6       6       6       6       7       8       1
       1       1       1       1       1       1       1       1
%FLAG MASS                                                                      
%FORMAT(5E16.8)                                                                 
  1.20100000E+01  1.20100000E+01  1.20100000E+01  1.20100000E+01  1.20100000E+01
  1.20100000E+01  1.20100000E+01  1.40100000E+01  1.60000000E+01  1.00800000E+00
  1.00800000E+00  1.00800000E+00  1.00800000E+00  1.00800000E+00  1.00800000E+00
  1.00800000E+00  1.00800000E+00  1.00800000E+00
%FLAG ATOM_TYPE_INDEX                                                           
%FORMAT(10I8)                                                                   
       1       1       1       1       1       1       2       3       4       5
       5       5       5       6       6       6       7       7
%FLAG NUMBER_EXCLUDED_ATOMS                                                     
%FORMAT(10I8)                                                                   
      12      11       9       8       8       9       4       4       5       1
       1       1       1       2       1       1       1       1
%FLAG NONBONDED_PARM_INDEX                                                      
%FORMAT(10I8)                                                                   
       1       2       4       7      11      16      22       2       3       5
       8      12      17      23       4       5       6       9      13      18
      24       7       8       9      10      14      19      25      11      12
      13      14      15      20      26      16      17      18      19      20
      21      27      22      23      24      25      26      27      28
%FLAG RESIDUE_LABEL                                                             
%FORMAT(20a4)                                                                   
MOL 
%FLAG RESIDUE_POINTER                                                           
%FORMAT(10I8)                                                                   
       1
%FLAG BOND_FORCE_CONSTANT                                                       
%FORMAT(5E16.8)                                                                 
  3.54250000E+02  3.60690000E+02  3.42300000E+02  3.43340000E+02  2.82270000E+02
  3.44220000E+02  4.77540000E+02
%FLAG BOND_EQUIL_VALUE                                                          
%FORMAT(5E16.8)                                                                 
  1.39860000E+00  1.08600000E+00  1.37440000E+00  1.36880000E+00  1.42730000E+00
  1.09690000E+00  1.01140000E+00
%FLAG ANGLE_FORCE_CONSTANT                                                      
%FORMAT(5E16.8)                                                                 
  6.36700000E+01  4.49000000E+01  6.79100000E+01  7.90000000E+01  5.77100000E+01
  8.82600000E+01  5.62000000E+01  3.56400000E+01  4.63600000E+01
%FLAG ANGLE_EQUIL_VALUE                                                         
%FORMAT(5E16.8)                                                                 
  2.09474507E+00  2.09230160E+00  2.11080210E+00  2.07886256E+00  2.03732371E+00
  2.06629619E+00  1.92579712E+00  1.89455572E+00  2.01201642E+00
%FLAG DIHEDRAL_FORCE_CONSTANT                                                   
%FORMAT(5E16.8)                                                                 
  3.62500000E+00  1.05000000E+00  1.66000000E+00  3.83333333E-01  1.10000000E+00
%FLAG DIHEDRAL_PERIODICITY                                                      
%FORMAT(5E16.8)                                                                 
  2.00000000E+00  2.00000000E+00  2.00000000E+00  3.00000000E+00  2.00000000E+00
%FLAG DIHEDRAL_PHASE                                                            
%FORMAT(5E16.8)                                                                 
  3.14159400E+00  3.14159400E+00  3.14159400E+00  0.00000000E+00  3.14159400E+00
%FLAG SCEE_SCALE_FACTOR                                                         
%FORMAT(5E16.8)                                                                 
  1.20000000E+00  1.20000000E+00  1.20000000E+00  1.20000000E+00  0.00000000E+00
%FLAG SCNB_SCALE_FACTOR                                                         
%FORMAT(5E16.8)                                                                 
  2.00000000E+00  2.00000000E+00  2.00000000E+00  2.00000000E+00  0.00000000E+00
%FLAG SOLTY                                                                     
%FORMAT(5E16.8)                                                                 
  0.00000000E+00  0.00000000E+00  0.00000000E+00  0.00000000E+00  0.00000000E+00
  0.00000000E+00  0.00000000E+00
%FLAG LENNARD_JONES_ACOEF                                                       
%FORMAT(5E16.8)                                                                 
  6.96551276E+05  8.43969952E+05  1.02073671E+06  8.15855629E+05  9.87370297E+05
  9.54875571E+05  4.46121722E+05  5.42502534E+05  5.23754919E+05  2.83662575E+05
  7.52549148E+04  9.27554496E+04  8.91217989E+04  4.65732396E+04  6.90855956E+03
  5.63013422E+04  6.97998263E+04  6.69267216E+04  3.44374471E+04  4.88692384E+03
  3.39005767E+03  1.71458823E+03  2.23577481E+03  2.10567903E+03  9.46795083E+02
  9.04434904E+01  5.24570081E+01  1.34728399E-01
%FLAG LENNARD_JONES_BCOEF                                                       
%FORMAT(5E16.8)                                                                 
  5.24668528E+02  5.90251928E+02  6.63431737E+02  5.85909304E+02  6.58763033E+02
  6.54052181E+02  3.88758656E+02  4.38146883E+02  4.34643024E+02  2.87011518E+02
  1.09570372E+02  1.24325688E+02  1.23036209E+02  7.98066064E+01  2.10929191E+01
  1.01040256E+02  1.14981426E+02  1.13671113E+02  7.31636661E+01  1.89134207E+01
  1.67944276E+01  1.46824710E+01  1.71355763E+01  1.67892226E+01  1.01016461E+01
  2.14252117E+00  1.73959275E+00  7.34107347E-02
%FLAG BONDS_INC_HYDROGEN                                                        
%FORMAT(10I8)                                                                   
       0      27       2       3      30       2       6      33       2       9
      36       2      18      39       6      18      42       6      18      45
       6      21      48       7      21      51       7
%FLAG BONDS_WITHOUT_HYDROGEN                                                    
%FORMAT(10I8)                                                                   
       0       6       1       0      12       1       3       9       1       3
      12       1       6      15       1       9      15       1      12      21
       3      15      24       4      18      24       5
%FLAG ANGLES_INC_HYDROGEN                                                       
%FORMAT(10I8)                                                                   
       0       6      33       2       3       9      36       2       6       0
      27       2       9       3      30       2      12       0      27       2
      12       3      30       2      12      21      48       5      12      21
      51       5      15       6      33       2      15       9      36       2
      24      18      39       7      24      18      42       7      24      18
      45       7      39      18      42       8      39      18      45       8
      42      18      45       8      48      21      51       9
%FLAG ANGLES_WITHOUT_HYDROGEN                                                   
%FORMAT(10I8)                                                                   
       0       6      15       1       0      12       3       1       0      12
      21       3       3       9      15       1       3      12      21       3
       6       0      12       1       6      15       9       1       6      15
      24       4       9       3      12       1       9      15      24       4
      15      24      18       6
%FLAG DIHEDRALS_INC_HYDROGEN                                                    
%FORMAT(10I8)                                                                   
       0      12       3      30       1       0      12      21      48       2
       0      12      21      51       2      27       0      12       3       1
       3      12      21      48       2       3      12      21      51       2
       6      15       9      36       1       9      15       6      33       1
      12       0       6      33       1      12       3       9      36       1
      27       0       6      15       1      15       9       3      30       1
      15      24      18      39       4      15      24      18      42       4
      15      24      18      45       4      27       0      12      21       1
      21      12       3      30       1      24      15       6      33       1
      24      15       9      36       1      27       0       6      33       1
      30       3       9      36       1      27       0     -12      -6       5
       9      12      -3     -30       5       0      15      -6     -33       5
       3      15      -9     -36       5      12      48     -21     -51       5
%FLAG DIHEDRALS_WITHOUT_HYDROGEN                                                
%FORMAT(10I8)                                                                   
       0       6      15       9       1       0       6      15      24       1
       0      12      -3       9       1       3       9      15       6       1
       3       9      15      24       1       6       0     -12       3       1
       6       0      12      21       1       6      15      24      18       3
       9       3      12      21       1       9      15      24      18       3
      12       0       6      15       1      12       3      -9      15       1
       0       3     -12     -21       5       6       9     -15     -24       5
%FLAG EXCLUDED_ATOMS_LIST                                                       
%FORMAT(10I8)                                                                   
       2       3       4       5       6       8       9      10      11      12
      17      18       3       4       5       6       8       9      10      11
      13      17      18       4       5       6       7       8       9      10
      12      13       5       6       7       8       9      11      12      13
       6       8      10      11      12      13      17      18       7       9
      10      11      12      13      14      15      16       9      14      15
      16      10      11      17      18      12      13      14      15      16
      12      13       0       0      15      16      16       0      18       0
%FLAG HBOND_ACOEF                                                               
%FORMAT(5E16.8)                                                                 

%FLAG HBOND_BCOEF                                                               
%FORMAT(5E16.8)                                                                 

%FLAG HBCUT                                                                     
%FORMAT(5E16.8)                                                                 

%FLAG AMBER_ATOM_TYPE                                                           
%FORMAT(20a4)                                                                   
ca  ca  ca  ca  ca  ca  c3  nv  os  ha  ha  ha  ha  h1  h1  h1  hn  hn  
%FLAG TREE_CHAIN_CLASSIFICATION                                                 
%FORMAT(20a4)                                                                   
BLA BLA BLA BLA BLA BLA BLA BLA BLA BLA BLA BLA BLA BLA BLA BLA BLA BLA 
%FLAG JOIN_ARRAY                                                                
%FORMAT(10I8)                                                                   
       0       0       0       0       0       0       0       0       0       0
       0       0       0       0       0       0       0       0
%FLAG IROTAT                                                                    
%FORMAT(10I8)                                                                   
       0       0       0       0       0       0       0       0       0       0
       0       0       0       0       0       0       0       0
%FLAG RADIUS_SET                                                                
%FORMAT(1a80)                                                                   
modified Bondi radii (mbondi)                                                   
%FLAG RADII                                                                     
%FORMAT(5E16.8)                                                                 
  1.70000000E+00  1.70000000E+00  1.70000000E+00  1.70000000E+00  1.70000000E+00
  1.70000000E+00  1.70000000E+00  1.55000000E+00  1.50000000E+00  1.30000000E+00
  1.30000000E+00  1.30000000E+00  1.30000000E+00  1.30000000E+00  1.30000000E+00
  1.30000000E+00  1.30000000E+00  1.30000000E+00
%FLAG SCREEN                                                                    
%FORMAT(5E16.8)                                                                 
  7.20000000E-01  7.20000000E-01  7.20000000E-01  7.20000000E-01  7.20000000E-01
  7.20000000E-01  7.20000000E-01  7.90000000E-01  8.50000000E-01  8.50000000E-01
  8.50000000E-01  8.50000000E-01  8.50000000E-01  8.50000000E-01  8.50000000E-01
  8.50000000E-01  8.50000000E-01  8.50000000E-01
%FLAG IPOL                                                                      
%FORMAT(1I8)                                                                    
       0
