mobley_4218209_GMX.gro created by acpype (v: 2023.10.27) on Wed May 20 23:53:47 2026
 18
    1  MOL   C1    1   0.082  -0.044   0.056
    1  MOL   C2    2   0.294  -0.160   0.062
    1  MOL   C3    3   0.080  -0.041   0.196
    1  MOL   C4    4   0.292  -0.157   0.201
    1  MOL   C5    5   0.189  -0.103  -0.011
    1  MOL   C6    6   0.185  -0.097   0.268
    1  MOL   C7    7   0.071  -0.031   0.466
    1  MOL   N1    8   0.191  -0.107  -0.151
    1  MOL   O1    9   0.183  -0.094   0.404
    1  MOL   H1   10  -0.001   0.000   0.001
    1  MOL   H2   11   0.378  -0.206   0.011
    1  MOL   H3   12  -0.004   0.006   0.248
    1  MOL   H4   13   0.374  -0.200   0.257
    1  MOL   H5   14  -0.011  -0.103   0.475
    1  MOL   H6   15   0.039   0.055   0.407
    1  MOL   H7   16   0.100   0.003   0.566
    1  MOL   H8   17   0.117  -0.061  -0.202
    1  MOL   H9   18   0.259  -0.162  -0.198
    7.77000     5.22000    15.37200
