; mobley_4218209_GMX_OPLS.itp created by acpype (v: 2023.10.27) on Wed May 20 23:53:47 2026

; For OPLS atomtypes manual fine tuning
; AC_at:OPLS_at:OPLScode: Possible_Alternatives (see ffoplsaa.atp and ffoplsaanb.itp)
; ca:CA:opls_145: ['166', '501', '502']
; c3:CT:opls_135: ['136', '137', '149', '157', '158', '206', '209', '210', '223B', '224B', '245', '246', '274', '283', '284', '285', '292', '292B', '293B', '296', '307', '308', '505']
; nv:x:opls_x: []
; os:x:opls_x: []
; ha:HA:opls_146: []
; h1:HC:opls_140: []
; hn:H:opls_240: ['241', '290', '301', '304', '310', '504', '513']

[ moleculetype ]
;name            nrexcl
 mobley_4218209   3

[ atoms ]
;   nr  type  resi  res  atom  cgnr     charge      mass       ; qtot   bond_type
     1 opls_145     1   MOL    C1    1    -0.155000     12.01100 ; qtot -0.155  CA  
     2 opls_145     1   MOL    C2    2    -0.155000     12.01100 ; qtot -0.310  CA  
     3 opls_145     1   MOL    C3    3    -0.143000     12.01100 ; qtot -0.453  CA  
     4 opls_145     1   MOL    C4    4    -0.143000     12.01100 ; qtot -0.596  CA  
     5 opls_145     1   MOL    C5    5     0.097600     12.01100 ; qtot -0.498  CA  
     6 opls_145     1   MOL    C6    6     0.083100     12.01100 ; qtot -0.415  CA  
     7 opls_135     1   MOL    C7    7     0.114700     12.01100 ; qtot -0.301  CT  
     8 opls_x     1   MOL    N1    8    -0.806200      0.00000 ; qtot -1.107  x   
     9 opls_x     1   MOL    O1    9    -0.328900      0.00000 ; qtot -1.436  x   
    10 opls_146     1   MOL    H1   10     0.133000      1.00800 ; qtot -1.303  HA  
    11 opls_146     1   MOL    H2   11     0.133000      1.00800 ; qtot -1.170  HA  
    12 opls_146     1   MOL    H3   12     0.141500      1.00800 ; qtot -1.028  HA  
    13 opls_146     1   MOL    H4   13     0.141500      1.00800 ; qtot -0.887  HA  
    14 opls_140     1   MOL    H5   14     0.041700      1.00800 ; qtot -0.845  HC  
    15 opls_140     1   MOL    H6   15     0.041700      1.00800 ; qtot -0.803  HC  
    16 opls_140     1   MOL    H7   16     0.041700      1.00800 ; qtot -0.762  HC  
    17 opls_240     1   MOL    H8   17     0.380800      1.00800 ; qtot -0.381  H   
    18 opls_240     1   MOL    H9   18     0.380800      1.00800 ; qtot -0.000  H   

[ bonds ]
;   ai     aj funct   r             k
     1      3   1 ;    1.3986e-01    2.9644e+05 ;     C1 - C3         CA - CA    
     1      5   1 ;    1.3986e-01    2.9644e+05 ;     C1 - C5         CA - CA    
     1     10   1 ;    1.0860e-01    3.0183e+05 ;     C1 - H1         CA - HA    
     2      4   1 ;    1.3986e-01    2.9644e+05 ;     C2 - C4         CA - CA    
     2      5   1 ;    1.3986e-01    2.9644e+05 ;     C2 - C5         CA - CA    
     2     11   1 ;    1.0860e-01    3.0183e+05 ;     C2 - H2         CA - HA    
     3      6   1 ;    1.3986e-01    2.9644e+05 ;     C3 - C6         CA - CA    
     3     12   1 ;    1.0860e-01    3.0183e+05 ;     C3 - H3         CA - HA    
     4      6   1 ;    1.3986e-01    2.9644e+05 ;     C4 - C6         CA - CA    
     4     13   1 ;    1.0860e-01    3.0183e+05 ;     C4 - H4         CA - HA    
     5      8   1 ;    1.3744e-01    2.8644e+05 ;     C5 - N1         CA - x     
     6      9   1 ;    1.3688e-01    2.8731e+05 ;     C6 - O1         CA - x     
     7      9   1 ;    1.4273e-01    2.3620e+05 ;     C7 - O1         CT - x     
     7     14   1 ;    1.0969e-01    2.8804e+05 ;     C7 - H5         CT - HC    
     7     15   1 ;    1.0969e-01    2.8804e+05 ;     C7 - H6         CT - HC    
     7     16   1 ;    1.0969e-01    2.8804e+05 ;     C7 - H7         CT - HC    
     8     17   1 ;    1.0114e-01    3.9961e+05 ;     N1 - H8          x - H     
     8     18   1 ;    1.0114e-01    3.9961e+05 ;     N1 - H9          x - H     

[ pairs ]
;   ai     aj    funct
     1      4      1 ;     C1 - C4    
     1      9      1 ;     C1 - O1    
     1     11      1 ;     C1 - H2    
     1     17      1 ;     C1 - H8    
     1     18      1 ;     C1 - H9    
     2      3      1 ;     C2 - C3    
     2      9      1 ;     C2 - O1    
     2     17      1 ;     C2 - H8    
     2     18      1 ;     C2 - H9    
     3      7      1 ;     C3 - C7    
     3      8      1 ;     C3 - N1    
     3     13      1 ;     C3 - H4    
     4      7      1 ;     C4 - C7    
     4      8      1 ;     C4 - N1    
     4     12      1 ;     C4 - H3    
     5      6      1 ;     C5 - C6    
     5     12      1 ;     C5 - H3    
     5     13      1 ;     C5 - H4    
     6     11      1 ;     C6 - H2    
     6     14      1 ;     C6 - H5    
     6     15      1 ;     C6 - H6    
     6     16      1 ;     C6 - H7    
     8     11      1 ;     N1 - H2    
     9     12      1 ;     O1 - H3    
     9     13      1 ;     O1 - H4    
    10      2      1 ;     H1 - C2    
    10      6      1 ;     H1 - C6    
    10      8      1 ;     H1 - N1    
    10     12      1 ;     H1 - H3    
    11     13      1 ;     H2 - H4    

[ angles ]
;   ai     aj     ak    funct   theta         cth
     1      3      6      1 ;    1.2002e+02    5.3279e+02 ;     C1 - C3   - C6       CA -   CA - CA  
     1      3     12      1 ;    1.1988e+02    3.7572e+02 ;     C1 - C3   - H3       CA -   CA - HA  
     1      5      2      1 ;    1.2002e+02    5.3279e+02 ;     C1 - C5   - C2       CA -   CA - CA  
     1      5      8      1 ;    1.2094e+02    5.6827e+02 ;     C1 - C5   - N1       CA -   CA - x   
     2      4      6      1 ;    1.2002e+02    5.3279e+02 ;     C2 - C4   - C6       CA -   CA - CA  
     2      4     13      1 ;    1.1988e+02    3.7572e+02 ;     C2 - C4   - H4       CA -   CA - HA  
     2      5      8      1 ;    1.2094e+02    5.6827e+02 ;     C2 - C5   - N1       CA -   CA - x   
     3      1      5      1 ;    1.2002e+02    5.3279e+02 ;     C3 - C1   - C5       CA -   CA - CA  
     3      1     10      1 ;    1.1988e+02    3.7572e+02 ;     C3 - C1   - H1       CA -   CA - HA  
     3      6      4      1 ;    1.2002e+02    5.3279e+02 ;     C3 - C6   - C4       CA -   CA - CA  
     3      6      9      1 ;    1.1911e+02    6.6107e+02 ;     C3 - C6   - O1       CA -   CA - x   
     4      2      5      1 ;    1.2002e+02    5.3279e+02 ;     C4 - C2   - C5       CA -   CA - CA  
     4      2     11      1 ;    1.1988e+02    3.7572e+02 ;     C4 - C2   - H2       CA -   CA - HA  
     4      6      9      1 ;    1.1911e+02    6.6107e+02 ;     C4 - C6   - O1       CA -   CA - x   
     5      1     10      1 ;    1.1988e+02    3.7572e+02 ;     C5 - C1   - H1       CA -   CA - HA  
     5      2     11      1 ;    1.1988e+02    3.7572e+02 ;     C5 - C2   - H2       CA -   CA - HA  
     5      8     17      1 ;    1.1673e+02    4.8292e+02 ;     C5 - N1   - H8       CA -    x - H   
     5      8     18      1 ;    1.1673e+02    4.8292e+02 ;     C5 - N1   - H9       CA -    x - H   
     6      3     12      1 ;    1.1988e+02    3.7572e+02 ;     C6 - C3   - H3       CA -   CA - HA  
     6      4     13      1 ;    1.1988e+02    3.7572e+02 ;     C6 - C4   - H4       CA -   CA - HA  
     6      9      7      1 ;    1.1839e+02    7.3856e+02 ;     C6 - O1   - C7       CA -    x - CT  
     9      7     14      1 ;    1.1034e+02    4.7028e+02 ;     O1 - C7   - H5        x -   CT - HC  
     9      7     15      1 ;    1.1034e+02    4.7028e+02 ;     O1 - C7   - H6        x -   CT - HC  
     9      7     16      1 ;    1.1034e+02    4.7028e+02 ;     O1 - C7   - H7        x -   CT - HC  
    14      7     15      1 ;    1.0855e+02    2.9824e+02 ;     H5 - C7   - H6       HC -   CT - HC  
    14      7     16      1 ;    1.0855e+02    2.9824e+02 ;     H5 - C7   - H7       HC -   CT - HC  
    15      7     16      1 ;    1.0855e+02    2.9824e+02 ;     H6 - C7   - H7       HC -   CT - HC  
    17      8     18      1 ;    1.1528e+02    3.8794e+02 ;     H8 - N1   - H9        H -    x - H   

[ dihedrals ] ; propers
; for gromacs 4.5 or higher, using funct 9
;    i      j      k      l   func   phase     kd      pn
     1      3      6      4      9 ;   180.00  15.16700   2 ;     C1-    C3-    C6-    C4
     1      3      6      9      9 ;   180.00  15.16700   2 ;     C1-    C3-    C6-    O1
     1      5      2      4      9 ;   180.00  15.16700   2 ;     C1-    C5-    C2-    C4
     1      5      2     11      9 ;   180.00  15.16700   2 ;     C1-    C5-    C2-    H2
     1      5      8     17      9 ;   180.00   4.39320   2 ;     C1-    C5-    N1-    H8
     1      5      8     18      9 ;   180.00   4.39320   2 ;     C1-    C5-    N1-    H9
     2      4      6      3      9 ;   180.00  15.16700   2 ;     C2-    C4-    C6-    C3
     2      4      6      9      9 ;   180.00  15.16700   2 ;     C2-    C4-    C6-    O1
     2      5      8     17      9 ;   180.00   4.39320   2 ;     C2-    C5-    N1-    H8
     2      5      8     18      9 ;   180.00   4.39320   2 ;     C2-    C5-    N1-    H9
     3      1      5      2      9 ;   180.00  15.16700   2 ;     C3-    C1-    C5-    C2
     3      1      5      8      9 ;   180.00  15.16700   2 ;     C3-    C1-    C5-    N1
     3      6      4     13      9 ;   180.00  15.16700   2 ;     C3-    C6-    C4-    H4
     3      6      9      7      9 ;   180.00   6.94544   2 ;     C3-    C6-    O1-    C7
     4      2      5      8      9 ;   180.00  15.16700   2 ;     C4-    C2-    C5-    N1
     4      6      3     12      9 ;   180.00  15.16700   2 ;     C4-    C6-    C3-    H3
     4      6      9      7      9 ;   180.00   6.94544   2 ;     C4-    C6-    O1-    C7
     5      1      3      6      9 ;   180.00  15.16700   2 ;     C5-    C1-    C3-    C6
     5      1      3     12      9 ;   180.00  15.16700   2 ;     C5-    C1-    C3-    H3
     5      2      4      6      9 ;   180.00  15.16700   2 ;     C5-    C2-    C4-    C6
     5      2      4     13      9 ;   180.00  15.16700   2 ;     C5-    C2-    C4-    H4
     6      4      2     11      9 ;   180.00  15.16700   2 ;     C6-    C4-    C2-    H2
     6      9      7     14      9 ;     0.00   1.60387   3 ;     C6-    O1-    C7-    H5
     6      9      7     15      9 ;     0.00   1.60387   3 ;     C6-    O1-    C7-    H6
     6      9      7     16      9 ;     0.00   1.60387   3 ;     C6-    O1-    C7-    H7
     8      5      2     11      9 ;   180.00  15.16700   2 ;     N1-    C5-    C2-    H2
     9      6      3     12      9 ;   180.00  15.16700   2 ;     O1-    C6-    C3-    H3
     9      6      4     13      9 ;   180.00  15.16700   2 ;     O1-    C6-    C4-    H4
    10      1      3      6      9 ;   180.00  15.16700   2 ;     H1-    C1-    C3-    C6
    10      1      3     12      9 ;   180.00  15.16700   2 ;     H1-    C1-    C3-    H3
    10      1      5      2      9 ;   180.00  15.16700   2 ;     H1-    C1-    C5-    C2
    10      1      5      8      9 ;   180.00  15.16700   2 ;     H1-    C1-    C5-    N1
    11      2      4     13      9 ;   180.00  15.16700   2 ;     H2-    C2-    C4-    H4

[ dihedrals ] ; impropers
; treated as propers in GROMACS to use correct AMBER analytical function
;    i      j      k      l   func   phase     kd      pn
     1      2      5      8      4 ;   180.00   4.60240   2 ;     C1-    C2-    C5-    N1
     1      6      3     12      4 ;   180.00   4.60240   2 ;     C1-    C6-    C3-    H3
     2      6      4     13      4 ;   180.00   4.60240   2 ;     C2-    C6-    C4-    H4
     3      4      6      9      4 ;   180.00   4.60240   2 ;     C3-    C4-    C6-    O1
     4      5      2     11      4 ;   180.00   4.60240   2 ;     C4-    C5-    C2-    H2
     5     17      8     18      4 ;   180.00   4.60240   2 ;     C5-    H8-    N1-    H9
    10      1      5      3      4 ;   180.00   4.60240   2 ;     H1-    C1-    C5-    C3
