4_methoxyaniline
    18
   0.8180000  -0.4390000   0.5640000   2.9370000  -1.5970000   0.6200000
   0.7990000  -0.4060000   1.9590000   2.9180000  -1.5650000   2.0140000
   1.8870000  -1.0340000  -0.1050000   1.8500000  -0.9690000   2.6840000
   0.7090000  -0.3130000   4.6640000   1.9050000  -1.0660000  -1.5150000
   1.8320000  -0.9370000   4.0440000  -0.0060000   0.0030000   0.0100000
   3.7750000  -2.0630000   0.1080000  -0.0360000   0.0600000   2.4750000
   3.7400000  -2.0040000   2.5740000  -0.1100000  -1.0320000   4.7470000
   0.3930000   0.5470000   4.0680000   0.9960000   0.0250000   5.6630000
   1.1740000  -0.6120000  -2.0230000   2.5940000  -1.6210000  -1.9810000
