mobley_6911232_GMX.gro created by acpype (v: 2023.10.27) on Thu May 21 00:04:26 2026
   12
    1MOL     C1    1   2.289   2.087   2.284
    1MOL     C2    2   2.200   2.442   2.250
    1MOL     C3    3   2.311   2.235   2.264
    1MOL     O1    4   2.186   2.302   2.268
    1MOL     H1    5   2.383   2.033   2.281
    1MOL     H2    6   2.240   2.068   2.381
    1MOL     H3    7   2.222   2.047   2.207
    1MOL     H4    8   2.301   2.472   2.279
    1MOL     H5    9   2.127   2.495   2.311
    1MOL     H6   10   2.184   2.466   2.145
    1MOL     H7   11   2.357   2.254   2.167
    1MOL     H8   12   2.375   2.276   2.343
   4.52904   4.52904   4.52904
