; mobley_1708457_GMX_OPLS.top created by acpype (v: 2023.10.27) on Wed May 20 23:44:49 2026

; Include forcefield parameters
#include "ffoplsaa.itp"

; Include mobley_1708457_GMX.itp topology
#include "mobley_1708457_GMX.itp"

; Ligand position restraints
#ifdef POSRES_LIG
#include "posre_mobley_1708457.itp"
#endif

[ system ]
 mobley_1708457

[ molecules ]
; Compound        nmols
 mobley_1708457   1     
