dimethyl_sulfone
    11
   1.0620000   0.2380000   0.0930000   3.0250000   1.5690000   1.5420000
   0.9470000   0.4790000   2.6930000   0.6110000   2.5320000   1.2630000
   1.2750000   1.2690000   1.5230000   0.2520000  -0.4650000   0.2930000
   0.8130000   0.8750000  -0.7570000   1.9960000  -0.2960000  -0.0890000
   3.1990000   2.6110000   1.2690000   3.3970000   1.3710000   2.5480000
   3.4970000   0.9010000   0.8200000
