; mobley_1708457_GMX_OPLS.itp created by acpype (v: 2023.10.27) on Wed May 20 23:44:49 2026

; For OPLS atomtypes manual fine tuning
; AC_at:OPLS_at:OPLScode: Possible_Alternatives (see ffoplsaa.atp and ffoplsaanb.itp)
; c3:CT:opls_135: ['136', '137', '149', '157', '158', '206', '209', '210', '223B', '224B', '245', '246', '274', '283', '284', '285', '292', '292B', '293B', '296', '307', '308', '505']
; o:O:opls_236: ['272']
; s6:x:opls_x: []
; h1:HC:opls_140: []

[ moleculetype ]
;name            nrexcl
 mobley_1708457   3

[ atoms ]
;   nr  type  resi  res  atom  cgnr     charge      mass       ; qtot   bond_type
     1 opls_135     1   MOL    C1    1    -0.370300     12.01100 ; qtot -0.370  CT  
     2 opls_135     1   MOL    C2    2    -0.370300     12.01100 ; qtot -0.741  CT  
     3 opls_236     1   MOL    O1    3    -0.655800     15.99940 ; qtot -1.396  O   
     4 opls_236     1   MOL    O2    4    -0.655800     15.99940 ; qtot -2.052  O   
     5 opls_x     1   MOL    S1    5     1.353998      0.00000 ; qtot -0.698  x   
     6 opls_140     1   MOL    H1    6     0.116367      1.00800 ; qtot -0.582  HC  
     7 opls_140     1   MOL    H2    7     0.116367      1.00800 ; qtot -0.465  HC  
     8 opls_140     1   MOL    H3    8     0.116367      1.00800 ; qtot -0.349  HC  
     9 opls_140     1   MOL    H4    9     0.116367      1.00800 ; qtot -0.233  HC  
    10 opls_140     1   MOL    H5   10     0.116367      1.00800 ; qtot -0.116  HC  
    11 opls_140     1   MOL    H6   11     0.116367      1.00800 ; qtot -0.000  HC  

[ bonds ]
;   ai     aj funct   r             k
     1      5   1 ;    1.8127e-01    1.6609e+05 ;     C1 - S1         CT - x     
     1      6   1 ;    1.0969e-01    2.8804e+05 ;     C1 - H1         CT - HC    
     1      7   1 ;    1.0969e-01    2.8804e+05 ;     C1 - H2         CT - HC    
     1      8   1 ;    1.0969e-01    2.8804e+05 ;     C1 - H3         CT - HC    
     2      5   1 ;    1.8127e-01    1.6609e+05 ;     C2 - S1         CT - x     
     2      9   1 ;    1.0969e-01    2.8804e+05 ;     C2 - H4         CT - HC    
     2     10   1 ;    1.0969e-01    2.8804e+05 ;     C2 - H5         CT - HC    
     2     11   1 ;    1.0969e-01    2.8804e+05 ;     C2 - H6         CT - HC    
     3      5   1 ;    1.4657e-01    5.1421e+05 ;     O1 - S1          O - x     
     4      5   1 ;    1.4657e-01    5.1421e+05 ;     O2 - S1          O - x     

[ pairs ]
;   ai     aj    funct
     1      9      1 ;     C1 - H4    
     1     10      1 ;     C1 - H5    
     1     11      1 ;     C1 - H6    
     3      9      1 ;     O1 - H4    
     3     10      1 ;     O1 - H5    
     3     11      1 ;     O1 - H6    
     4      9      1 ;     O2 - H4    
     4     10      1 ;     O2 - H5    
     4     11      1 ;     O2 - H6    
     6      2      1 ;     H1 - C2    
     6      3      1 ;     H1 - O1    
     6      4      1 ;     H1 - O2    
     7      2      1 ;     H2 - C2    
     7      3      1 ;     H2 - O1    
     7      4      1 ;     H2 - O2    
     8      2      1 ;     H3 - C2    
     8      3      1 ;     H3 - O1    
     8      4      1 ;     H3 - O2    

[ angles ]
;   ai     aj     ak    funct   theta         cth
     1      5      2      1 ;    1.0481e+02    7.6776e+02 ;     C1 - S1   - C2       CT -    x - CT  
     1      5      3      1 ;    1.0851e+02    9.9797e+02 ;     C1 - S1   - O1       CT -    x - O   
     1      5      4      1 ;    1.0851e+02    9.9797e+02 ;     C1 - S1   - O2       CT -    x - O   
     2      5      3      1 ;    1.0851e+02    9.9797e+02 ;     C2 - S1   - O1       CT -    x - O   
     2      5      4      1 ;    1.0851e+02    9.9797e+02 ;     C2 - S1   - O2       CT -    x - O   
     3      5      4      1 ;    1.2021e+02    1.3263e+03 ;     O1 - S1   - O2        O -    x - O   
     5      1      6      1 ;    1.0707e+02    3.6066e+02 ;     S1 - C1   - H1        x -   CT - HC  
     5      1      7      1 ;    1.0707e+02    3.6066e+02 ;     S1 - C1   - H2        x -   CT - HC  
     5      1      8      1 ;    1.0707e+02    3.6066e+02 ;     S1 - C1   - H3        x -   CT - HC  
     5      2      9      1 ;    1.0707e+02    3.6066e+02 ;     S1 - C2   - H4        x -   CT - HC  
     5      2     10      1 ;    1.0707e+02    3.6066e+02 ;     S1 - C2   - H5        x -   CT - HC  
     5      2     11      1 ;    1.0707e+02    3.6066e+02 ;     S1 - C2   - H6        x -   CT - HC  
     6      1      7      1 ;    1.0855e+02    2.9824e+02 ;     H1 - C1   - H2       HC -   CT - HC  
     6      1      8      1 ;    1.0855e+02    2.9824e+02 ;     H1 - C1   - H3       HC -   CT - HC  
     7      1      8      1 ;    1.0855e+02    2.9824e+02 ;     H2 - C1   - H3       HC -   CT - HC  
     9      2     10      1 ;    1.0855e+02    2.9824e+02 ;     H4 - C2   - H5       HC -   CT - HC  
     9      2     11      1 ;    1.0855e+02    2.9824e+02 ;     H4 - C2   - H6       HC -   CT - HC  
    10      2     11      1 ;    1.0855e+02    2.9824e+02 ;     H5 - C2   - H6       HC -   CT - HC  

[ dihedrals ] ; propers
; for gromacs 4.5 or higher, using funct 9
;    i      j      k      l   func   phase     kd      pn
     1      5      2      9      9 ;   180.00   0.00000   3 ;     C1-    S1-    C2-    H4
     1      5      2     10      9 ;   180.00   0.00000   3 ;     C1-    S1-    C2-    H5
     1      5      2     11      9 ;   180.00   0.00000   3 ;     C1-    S1-    C2-    H6
     3      5      2      9      9 ;     0.00   0.60436   3 ;     O1-    S1-    C2-    H4
     3      5      2     10      9 ;     0.00   0.60436   3 ;     O1-    S1-    C2-    H5
     3      5      2     11      9 ;     0.00   0.60436   3 ;     O1-    S1-    C2-    H6
     4      5      2      9      9 ;     0.00   0.60436   3 ;     O2-    S1-    C2-    H4
     4      5      2     10      9 ;     0.00   0.60436   3 ;     O2-    S1-    C2-    H5
     4      5      2     11      9 ;     0.00   0.60436   3 ;     O2-    S1-    C2-    H6
     6      1      5      2      9 ;   180.00   0.00000   3 ;     H1-    C1-    S1-    C2
     6      1      5      3      9 ;     0.00   0.60436   3 ;     H1-    C1-    S1-    O1
     6      1      5      4      9 ;     0.00   0.60436   3 ;     H1-    C1-    S1-    O2
     7      1      5      2      9 ;   180.00   0.00000   3 ;     H2-    C1-    S1-    C2
     7      1      5      3      9 ;     0.00   0.60436   3 ;     H2-    C1-    S1-    O1
     7      1      5      4      9 ;     0.00   0.60436   3 ;     H2-    C1-    S1-    O2
     8      1      5      2      9 ;   180.00   0.00000   3 ;     H3-    C1-    S1-    C2
     8      1      5      3      9 ;     0.00   0.60436   3 ;     H3-    C1-    S1-    O1
     8      1      5      4      9 ;     0.00   0.60436   3 ;     H3-    C1-    S1-    O2
