mobley_4013838_GMX.gro created by acpype (v: 2023.10.27) on Wed May 20 23:56:05 2026
   22
    1MOL     C1    1   2.352   2.332   2.395
    1MOL     C2    2   2.568   2.458   2.367
    1MOL     C3    3   2.348   2.570   2.322
    1MOL     C4    4   2.133   2.209   2.412
    1MOL     C5    5   2.315   2.128   2.258
    1MOL     C6    6   2.426   2.440   2.315
    1MOL     C7    7   2.248   2.250   2.320
    1MOL     O1    8   2.375   2.314   2.515
    1MOL     H1    9   2.569   2.495   2.471
    1MOL     H2   10   2.623   2.530   2.306
    1MOL     H3   11   2.622   2.363   2.366
    1MOL     H4   12   2.246   2.558   2.282
    1MOL     H5   13   2.338   2.606   2.425
    1MOL     H6   14   2.398   2.648   2.263
    1MOL     H7   15   2.088   2.297   2.459
    1MOL     H8   16   2.055   2.156   2.356
    1MOL     H9   17   2.168   2.143   2.492
    1MOL    H10   18   2.359   2.064   2.335
    1MOL    H11   19   2.243   2.068   2.202
    1MOL    H12   20   2.395   2.157   2.190
    1MOL    H13   21   2.432   2.406   2.211
    1MOL    H14   22   2.206   2.312   2.240
   4.68191   4.68191   4.68191
