; mobley_6082662_GMX_OPLS.itp created by acpype (v: 2023.10.27) on Wed May 20 23:42:54 2026

; For OPLS atomtypes manual fine tuning
; AC_at:OPLS_at:OPLScode: Possible_Alternatives (see ffoplsaa.atp and ffoplsaanb.itp)
; ca:CA:opls_145: ['166', '501', '502']
; nv:x:opls_x: []
; no:x:opls_x: []
; o:O:opls_236: ['272']
; ha:HA:opls_146: []
; hn:H:opls_240: ['241', '290', '301', '304', '310', '504', '513']

[ moleculetype ]
;name            nrexcl
 mobley_6082662   3

[ atoms ]
;   nr  type  resi  res  atom  cgnr     charge      mass       ; qtot   bond_type
     1 opls_145     1   MOL    C1    1    -0.224000     12.01100 ; qtot -0.224  CA  
     2 opls_145     1   MOL    C2    2    -0.224000     12.01100 ; qtot -0.448  CA  
     3 opls_145     1   MOL    C3    3    -0.017000     12.01100 ; qtot -0.465  CA  
     4 opls_145     1   MOL    C4    4    -0.017000     12.01100 ; qtot -0.482  CA  
     5 opls_145     1   MOL    C5    5     0.221600     12.01100 ; qtot -0.260  CA  
     6 opls_145     1   MOL    C6    6    -0.242200     12.01100 ; qtot -0.503  CA  
     7 opls_x     1   MOL    N1    7    -0.850200      0.00000 ; qtot -1.353  x   
     8 opls_x     1   MOL    N2    8     0.323200      0.00000 ; qtot -1.030  x   
     9 opls_236     1   MOL    O1    9    -0.220000     15.99940 ; qtot -1.250  O   
    10 opls_236     1   MOL    O2   10    -0.220000     15.99940 ; qtot -1.470  O   
    11 opls_146     1   MOL    H1   11     0.145000      1.00800 ; qtot -1.325  HA  
    12 opls_146     1   MOL    H2   12     0.145000      1.00800 ; qtot -1.180  HA  
    13 opls_146     1   MOL    H3   13     0.168000      1.00800 ; qtot -1.012  HA  
    14 opls_146     1   MOL    H4   14     0.168000      1.00800 ; qtot -0.844  HA  
    15 opls_240     1   MOL    H5   15     0.421800      1.00800 ; qtot -0.422  H   
    16 opls_240     1   MOL    H6   16     0.421800      1.00800 ; qtot  0.000  H   

[ bonds ]
;   ai     aj funct   r             k
     1      3   1 ;    1.3986e-01    2.9644e+05 ;     C1 - C3         CA - CA    
     1      5   1 ;    1.3986e-01    2.9644e+05 ;     C1 - C5         CA - CA    
     1     11   1 ;    1.0860e-01    3.0183e+05 ;     C1 - H1         CA - HA    
     2      4   1 ;    1.3986e-01    2.9644e+05 ;     C2 - C4         CA - CA    
     2      5   1 ;    1.3986e-01    2.9644e+05 ;     C2 - C5         CA - CA    
     2     12   1 ;    1.0860e-01    3.0183e+05 ;     C2 - H2         CA - HA    
     3      6   1 ;    1.3986e-01    2.9644e+05 ;     C3 - C6         CA - CA    
     3     13   1 ;    1.0860e-01    3.0183e+05 ;     C3 - H3         CA - HA    
     4      6   1 ;    1.3986e-01    2.9644e+05 ;     C4 - C6         CA - CA    
     4     14   1 ;    1.0860e-01    3.0183e+05 ;     C4 - H4         CA - HA    
     5      7   1 ;    1.3744e-01    2.8644e+05 ;     C5 - N1         CA - x     
     6      8   1 ;    1.4696e-01    2.0937e+05 ;     C6 - N2         CA - x     
     7     15   1 ;    1.0114e-01    3.9961e+05 ;     N1 - H5          x - H     
     7     16   1 ;    1.0114e-01    3.9961e+05 ;     N1 - H6          x - H     
     8      9   1 ;    1.2311e-01    3.0270e+05 ;     N2 - O1          x - O     
     8     10   1 ;    1.2311e-01    3.0270e+05 ;     N2 - O2          x - O     

[ pairs ]
;   ai     aj    funct
     1      4      1 ;     C1 - C4    
     1      8      1 ;     C1 - N2    
     1     12      1 ;     C1 - H2    
     1     15      1 ;     C1 - H5    
     1     16      1 ;     C1 - H6    
     2      3      1 ;     C2 - C3    
     2      8      1 ;     C2 - N2    
     2     15      1 ;     C2 - H5    
     2     16      1 ;     C2 - H6    
     3      7      1 ;     C3 - N1    
     3      9      1 ;     C3 - O1    
     3     10      1 ;     C3 - O2    
     3     14      1 ;     C3 - H4    
     4      7      1 ;     C4 - N1    
     4      9      1 ;     C4 - O1    
     4     10      1 ;     C4 - O2    
     4     13      1 ;     C4 - H3    
     5      6      1 ;     C5 - C6    
     5     13      1 ;     C5 - H3    
     5     14      1 ;     C5 - H4    
     6     12      1 ;     C6 - H2    
     7     12      1 ;     N1 - H2    
     8     13      1 ;     N2 - H3    
     8     14      1 ;     N2 - H4    
    11      2      1 ;     H1 - C2    
    11      6      1 ;     H1 - C6    
    11      7      1 ;     H1 - N1    
    11     13      1 ;     H1 - H3    
    12     14      1 ;     H2 - H4    

[ angles ]
;   ai     aj     ak    funct   theta         cth
     1      3      6      1 ;    1.2002e+02    5.3279e+02 ;     C1 - C3   - C6       CA -   CA - CA  
     1      3     13      1 ;    1.1988e+02    3.7572e+02 ;     C1 - C3   - H3       CA -   CA - HA  
     1      5      2      1 ;    1.2002e+02    5.3279e+02 ;     C1 - C5   - C2       CA -   CA - CA  
     1      5      7      1 ;    1.2094e+02    5.6827e+02 ;     C1 - C5   - N1       CA -   CA - x   
     2      4      6      1 ;    1.2002e+02    5.3279e+02 ;     C2 - C4   - C6       CA -   CA - CA  
     2      4     14      1 ;    1.1988e+02    3.7572e+02 ;     C2 - C4   - H4       CA -   CA - HA  
     2      5      7      1 ;    1.2094e+02    5.6827e+02 ;     C2 - C5   - N1       CA -   CA - x   
     3      1      5      1 ;    1.2002e+02    5.3279e+02 ;     C3 - C1   - C5       CA -   CA - CA  
     3      1     11      1 ;    1.1988e+02    3.7572e+02 ;     C3 - C1   - H1       CA -   CA - HA  
     3      6      4      1 ;    1.2002e+02    5.3279e+02 ;     C3 - C6   - C4       CA -   CA - CA  
     3      6      8      1 ;    1.1900e+02    5.5329e+02 ;     C3 - C6   - N2       CA -   CA - x   
     4      2      5      1 ;    1.2002e+02    5.3279e+02 ;     C4 - C2   - C5       CA -   CA - CA  
     4      2     12      1 ;    1.1988e+02    3.7572e+02 ;     C4 - C2   - H2       CA -   CA - HA  
     4      6      8      1 ;    1.1900e+02    5.5329e+02 ;     C4 - C6   - N2       CA -   CA - x   
     5      1     11      1 ;    1.1988e+02    3.7572e+02 ;     C5 - C1   - H1       CA -   CA - HA  
     5      2     12      1 ;    1.1988e+02    3.7572e+02 ;     C5 - C2   - H2       CA -   CA - HA  
     5      7     15      1 ;    1.1673e+02    4.8292e+02 ;     C5 - N1   - H5       CA -    x - H   
     5      7     16      1 ;    1.1673e+02    4.8292e+02 ;     C5 - N1   - H6       CA -    x - H   
     6      3     13      1 ;    1.1988e+02    3.7572e+02 ;     C6 - C3   - H3       CA -   CA - HA  
     6      4     14      1 ;    1.1988e+02    3.7572e+02 ;     C6 - C4   - H4       CA -   CA - HA  
     6      8      9      1 ;    1.1776e+02    8.2910e+02 ;     C6 - N2   - O1       CA -    x - O   
     6      8     10      1 ;    1.1776e+02    8.2910e+02 ;     C6 - N2   - O2       CA -    x - O   
     9      8     10      1 ;    1.2505e+02    1.0964e+03 ;     O1 - N2   - O2        O -    x - O   
    15      7     16      1 ;    1.1528e+02    3.8794e+02 ;     H5 - N1   - H6        H -    x - H   

[ dihedrals ] ; propers
; for gromacs 4.5 or higher, using funct 9
;    i      j      k      l   func   phase     kd      pn
     1      3      6      4      9 ;   180.00  15.16700   2 ;     C1-    C3-    C6-    C4
     1      3      6      8      9 ;   180.00  15.16700   2 ;     C1-    C3-    C6-    N2
     1      5      2      4      9 ;   180.00  15.16700   2 ;     C1-    C5-    C2-    C4
     1      5      2     12      9 ;   180.00  15.16700   2 ;     C1-    C5-    C2-    H2
     1      5      7     15      9 ;   180.00   4.39320   2 ;     C1-    C5-    N1-    H5
     1      5      7     16      9 ;   180.00   4.39320   2 ;     C1-    C5-    N1-    H6
     2      4      6      3      9 ;   180.00  15.16700   2 ;     C2-    C4-    C6-    C3
     2      4      6      8      9 ;   180.00  15.16700   2 ;     C2-    C4-    C6-    N2
     2      5      7     15      9 ;   180.00   4.39320   2 ;     C2-    C5-    N1-    H5
     2      5      7     16      9 ;   180.00   4.39320   2 ;     C2-    C5-    N1-    H6
     3      1      5      2      9 ;   180.00  15.16700   2 ;     C3-    C1-    C5-    C2
     3      1      5      7      9 ;   180.00  15.16700   2 ;     C3-    C1-    C5-    N1
     3      6      4     14      9 ;   180.00  15.16700   2 ;     C3-    C6-    C4-    H4
     3      6      8      9      9 ;   180.00   3.01248   2 ;     C3-    C6-    N2-    O1
     3      6      8     10      9 ;   180.00   3.01248   2 ;     C3-    C6-    N2-    O2
     4      2      5      7      9 ;   180.00  15.16700   2 ;     C4-    C2-    C5-    N1
     4      6      3     13      9 ;   180.00  15.16700   2 ;     C4-    C6-    C3-    H3
     4      6      8      9      9 ;   180.00   3.01248   2 ;     C4-    C6-    N2-    O1
     4      6      8     10      9 ;   180.00   3.01248   2 ;     C4-    C6-    N2-    O2
     5      1      3      6      9 ;   180.00  15.16700   2 ;     C5-    C1-    C3-    C6
     5      1      3     13      9 ;   180.00  15.16700   2 ;     C5-    C1-    C3-    H3
     5      2      4      6      9 ;   180.00  15.16700   2 ;     C5-    C2-    C4-    C6
     5      2      4     14      9 ;   180.00  15.16700   2 ;     C5-    C2-    C4-    H4
     6      4      2     12      9 ;   180.00  15.16700   2 ;     C6-    C4-    C2-    H2
     7      5      2     12      9 ;   180.00  15.16700   2 ;     N1-    C5-    C2-    H2
     8      6      3     13      9 ;   180.00  15.16700   2 ;     N2-    C6-    C3-    H3
     8      6      4     14      9 ;   180.00  15.16700   2 ;     N2-    C6-    C4-    H4
    11      1      3      6      9 ;   180.00  15.16700   2 ;     H1-    C1-    C3-    C6
    11      1      3     13      9 ;   180.00  15.16700   2 ;     H1-    C1-    C3-    H3
    11      1      5      2      9 ;   180.00  15.16700   2 ;     H1-    C1-    C5-    C2
    11      1      5      7      9 ;   180.00  15.16700   2 ;     H1-    C1-    C5-    N1
    12      2      4     14      9 ;   180.00  15.16700   2 ;     H2-    C2-    C4-    H4

[ dihedrals ] ; impropers
; treated as propers in GROMACS to use correct AMBER analytical function
;    i      j      k      l   func   phase     kd      pn
     1      2      5      7      4 ;   180.00   4.60240   2 ;     C1-    C2-    C5-    N1
     1      6      3     13      4 ;   180.00   4.60240   2 ;     C1-    C6-    C3-    H3
     2      6      4     14      4 ;   180.00   4.60240   2 ;     C2-    C6-    C4-    H4
     3      4      6      8      4 ;   180.00   4.60240   2 ;     C3-    C4-    C6-    N2
     4      5      2     12      4 ;   180.00   4.60240   2 ;     C4-    C5-    C2-    H2
     5     15      7     16      4 ;   180.00   4.60240   2 ;     C5-    H5-    N1-    H6
     6      9      8     10      4 ;   180.00   4.60240   2 ;     C6-    O1-    N2-    O2
    11      1      5      3      4 ;   180.00   4.60240   2 ;     H1-    C1-    C5-    C3
