mobley_6082662_GMX.gro created by acpype (v: 2023.10.27) on Wed May 20 23:42:54 2026
 16
    1  MOL   C1    1   0.189  -0.104  -0.011
    1  MOL   C2    2   0.288  -0.165   0.200
    1  MOL   C3    3   0.081  -0.046   0.056
    1  MOL   C4    4   0.180  -0.108   0.268
    1  MOL   C5    5   0.292  -0.163   0.061
    1  MOL   C6    6   0.076  -0.048   0.196
    1  MOL   N1    7   0.401  -0.221  -0.007
    1  MOL   N2    8  -0.033   0.010   0.264
    1  MOL   O1    9  -0.126   0.063   0.197
    1  MOL   O2   10  -0.035   0.007   0.390
    1  MOL   H1   11   0.191  -0.101  -0.120
    1  MOL   H2   12   0.368  -0.211   0.257
    1  MOL   H3   13   0.001  -0.000  -0.001
    1  MOL   H4   14   0.178  -0.110   0.376
    1  MOL   H5   15   0.401  -0.223  -0.107
    1  MOL   H6   16   0.472  -0.268   0.045
   11.95800     6.61000    10.18800
