4-nitroaniline
    16
   1.8850000  -1.0360000  -0.1120000   2.8780000  -1.6520000   2.0020000
   0.8070000  -0.4630000   0.5610000   1.8000000  -1.0790000   2.6760000
   2.9210000  -1.6310000   0.6080000   0.7640000  -0.4840000   1.9550000
   4.0110000  -2.2110000  -0.0730000  -0.3340000   0.1000000   2.6410000
  -1.2550000   0.6300000   1.9740000  -0.3530000   0.0700000   3.8950000
   1.9090000  -1.0150000  -1.1990000   3.6810000  -2.1120000   2.5730000
   0.0060000  -0.0030000  -0.0130000   1.7800000  -1.1020000   3.7630000
   4.0080000  -2.2310000  -1.0730000   4.7240000  -2.6750000   0.4540000
