%VERSION  VERSION_STAMP = V0001.000  DATE = 05/20/26  23:42:55                  
%FLAG TITLE                                                                     
%FORMAT(20a4)                                                                   
4-nitroaniline                                                                  
%FLAG POINTERS                                                                  
%FORMAT(10I8)                                                                   
      16       6       6      10      11      13      23      17       0       0
      73       1      10      13      17       6       8       4       6       0
       0       0       0       0       0       0       0       0      16       0
       0
%FLAG ATOM_NAME                                                                 
%FORMAT(20a4)                                                                   
C1  C2  C3  C4  C5  C6  N1  N2  O1  O2  H1  H2  H3  H4  H5  H6  
%FLAG CHARGE                                                                    
%FORMAT(5E16.8)                                                                 
 -4.08179520E+00 -4.08179520E+00 -3.09779100E-01 -3.09779100E-01  4.03806168E+00
 -4.41344106E+00 -1.54743772E+01  5.88944736E+00 -4.00890600E+00 -4.00890600E+00
  2.64223350E+00  2.64223350E+00  3.06134640E+00  3.06134640E+00  7.68616614E+00
  7.68616614E+00
%FLAG ATOMIC_NUMBER                                                             
%FORMAT(10I8)                                                                   
       6       6       6       6       6       6       7       7       8       8
       1       1       1       1       1       1
%FLAG MASS                                                                      
%FORMAT(5E16.8)                                                                 
  1.20100000E+01  1.20100000E+01  1.20100000E+01  1.20100000E+01  1.20100000E+01
  1.20100000E+01  1.40100000E+01  1.40100000E+01  1.60000000E+01  1.60000000E+01
  1.00800000E+00  1.00800000E+00  1.00800000E+00  1.00800000E+00  1.00800000E+00
  1.00800000E+00
%FLAG ATOM_TYPE_INDEX                                                           
%FORMAT(10I8)                                                                   
       1       1       1       1       1       1       2       3       4       4
       5       5       5       5       6       6
%FLAG NUMBER_EXCLUDED_ATOMS                                                     
%FORMAT(10I8)                                                                   
      12      11      10       9       8       7       4       4       1       1
       1       1       1       1       1       1
%FLAG NONBONDED_PARM_INDEX                                                      
%FORMAT(10I8)                                                                   
       1       2       4       7      11      16       2       3       5       8
      12      17       4       5       6       9      13      18       7       8
       9      10      14      19      11      12      13      14      15      20
      16      17      18      19      20      21
%FLAG RESIDUE_LABEL                                                             
%FORMAT(20a4)                                                                   
MOL 
%FLAG RESIDUE_POINTER                                                           
%FORMAT(10I8)                                                                   
       1
%FLAG BOND_FORCE_CONSTANT                                                       
%FORMAT(5E16.8)                                                                 
  3.54250000E+02  3.60690000E+02  3.42300000E+02  2.50200000E+02  4.77540000E+02
  3.61740000E+02
%FLAG BOND_EQUIL_VALUE                                                          
%FORMAT(5E16.8)                                                                 
  1.39860000E+00  1.08600000E+00  1.37440000E+00  1.46960000E+00  1.01140000E+00
  1.23110000E+00
%FLAG ANGLE_FORCE_CONSTANT                                                      
%FORMAT(5E16.8)                                                                 
  6.36700000E+01  4.49000000E+01  6.79100000E+01  6.61200000E+01  5.77100000E+01
  9.90800000E+01  1.31020000E+02  4.63600000E+01
%FLAG ANGLE_EQUIL_VALUE                                                         
%FORMAT(5E16.8)                                                                 
  2.09474507E+00  2.09230160E+00  2.11080210E+00  2.07694270E+00  2.03732371E+00
  2.05530061E+00  2.18253516E+00  2.01201642E+00
%FLAG DIHEDRAL_FORCE_CONSTANT                                                   
%FORMAT(5E16.8)                                                                 
  3.62500000E+00  1.05000000E+00  7.20000000E-01  1.10000000E+00
%FLAG DIHEDRAL_PERIODICITY                                                      
%FORMAT(5E16.8)                                                                 
  2.00000000E+00  2.00000000E+00  2.00000000E+00  2.00000000E+00
%FLAG DIHEDRAL_PHASE                                                            
%FORMAT(5E16.8)                                                                 
  3.14159400E+00  3.14159400E+00  3.14159400E+00  3.14159400E+00
%FLAG SCEE_SCALE_FACTOR                                                         
%FORMAT(5E16.8)                                                                 
  1.20000000E+00  1.20000000E+00  1.20000000E+00  0.00000000E+00
%FLAG SCNB_SCALE_FACTOR                                                         
%FORMAT(5E16.8)                                                                 
  2.00000000E+00  2.00000000E+00  2.00000000E+00  0.00000000E+00
%FLAG SOLTY                                                                     
%FORMAT(5E16.8)                                                                 
  0.00000000E+00  0.00000000E+00  0.00000000E+00  0.00000000E+00  0.00000000E+00
  0.00000000E+00
%FLAG LENNARD_JONES_ACOEF                                                       
%FORMAT(5E16.8)                                                                 
  6.96551276E+05  8.15855629E+05  9.54875571E+05  7.10207765E+05  8.31261083E+05
  7.23647490E+05  5.17507491E+05  6.08567325E+05  5.29641935E+05  3.76435470E+05
  7.52549148E+04  8.91217989E+04  7.75325560E+04  5.27277400E+04  6.90855956E+03
  1.71458823E+03  2.10567903E+03  1.82809059E+03  9.87857350E+02  9.04434904E+01
  1.34728399E-01
%FLAG LENNARD_JONES_BCOEF                                                       
%FORMAT(5E16.8)                                                                 
  5.24668528E+02  5.85909304E+02  6.54052181E+02  5.11427129E+02  5.70919725E+02
  4.98353106E+02  4.98871431E+02  5.58212938E+02  4.87196412E+02  4.69350655E+02
  1.09570372E+02  1.23036209E+02  1.07361937E+02  1.01173582E+02  2.10929191E+01
  1.46824710E+01  1.67892226E+01  1.46352678E+01  1.22938581E+01  2.14252117E+00
  7.34107347E-02
%FLAG BONDS_INC_HYDROGEN                                                        
%FORMAT(10I8)                                                                   
       0      30       2       3      33       2       6      36       2       9
      39       2      18      42       5      18      45       5
%FLAG BONDS_WITHOUT_HYDROGEN                                                    
%FORMAT(10I8)                                                                   
       0       6       1       0      12       1       3       9       1       3
      12       1       6      15       1       9      15       1      12      18
       3      15      21       4      21      24       6      21      27       6
%FLAG ANGLES_INC_HYDROGEN                                                       
%FORMAT(10I8)                                                                   
       0       6      36       2       3       9      39       2       6       0
      30       2       9       3      33       2      12       0      30       2
      12       3      33       2      12      18      42       5      12      18
      45       5      15       6      36       2      15       9      39       2
      42      18      45       8
%FLAG ANGLES_WITHOUT_HYDROGEN                                                   
%FORMAT(10I8)                                                                   
       0       6      15       1       0      12       3       1       0      12
      18       3       3       9      15       1       3      12      18       3
       6       0      12       1       6      15       9       1       6      15
      21       4       9       3      12       1       9      15      21       4
      15      21      24       6      15      21      27       6      24      21
      27       7
%FLAG DIHEDRALS_INC_HYDROGEN                                                    
%FORMAT(10I8)                                                                   
       0      12       3      33       1       0      12      18      42       2
       0      12      18      45       2      30       0      12       3       1
       3      12      18      42       2       3      12      18      45       2
       6      15       9      39       1       9      15       6      36       1
      12       0       6      36       1      12       3       9      39       1
      30       0       6      15       1      15       9       3      33       1
      30       0      12      18       1      18      12       3      33       1
      21      15       6      36       1      21      15       9      39       1
      30       0       6      36       1      33       3       9      39       1
      30       0     -12      -6       4       9      12      -3     -33       4
       0      15      -6     -36       4       3      15      -9     -39       4
      12      42     -18     -45       4
%FLAG DIHEDRALS_WITHOUT_HYDROGEN                                                
%FORMAT(10I8)                                                                   
       0       6      15       9       1       0       6      15      21       1
       0      12      -3       9       1       3       9      15       6       1
       3       9      15      21       1       6       0     -12       3       1
       6       0      12      18       1       6      15      21      24       3
       6      15      21      27       3       9       3      12      18       1
       9      15      21      24       3       9      15      21      27       3
      12       0       6      15       1      12       3      -9      15       1
       0       3     -12     -18       4       6       9     -15     -21       4
      15      24     -21     -27       4
%FLAG EXCLUDED_ATOMS_LIST                                                       
%FORMAT(10I8)                                                                   
       2       3       4       5       6       7       8      11      12      13
      15      16       3       4       5       6       7       8      11      12
      14      15      16       4       5       6       7       8       9      10
      11      13      14       5       6       7       8       9      10      12
      13      14       6       7      11      12      13      14      15      16
       8       9      10      11      12      13      14      11      12      15
      16       9      10      13      14      10       0      13      14       0
       0      16       0
%FLAG HBOND_ACOEF                                                               
%FORMAT(5E16.8)                                                                 

%FLAG HBOND_BCOEF                                                               
%FORMAT(5E16.8)                                                                 

%FLAG HBCUT                                                                     
%FORMAT(5E16.8)                                                                 

%FLAG AMBER_ATOM_TYPE                                                           
%FORMAT(20a4)                                                                   
ca  ca  ca  ca  ca  ca  nv  no  o   o   ha  ha  ha  ha  hn  hn  
%FLAG TREE_CHAIN_CLASSIFICATION                                                 
%FORMAT(20a4)                                                                   
BLA BLA BLA BLA BLA BLA BLA BLA BLA BLA BLA BLA BLA BLA BLA BLA 
%FLAG JOIN_ARRAY                                                                
%FORMAT(10I8)                                                                   
       0       0       0       0       0       0       0       0       0       0
       0       0       0       0       0       0
%FLAG IROTAT                                                                    
%FORMAT(10I8)                                                                   
       0       0       0       0       0       0       0       0       0       0
       0       0       0       0       0       0
%FLAG RADIUS_SET                                                                
%FORMAT(1a80)                                                                   
modified Bondi radii (mbondi)                                                   
%FLAG RADII                                                                     
%FORMAT(5E16.8)                                                                 
  1.70000000E+00  1.70000000E+00  1.70000000E+00  1.70000000E+00  1.70000000E+00
  1.70000000E+00  1.55000000E+00  1.55000000E+00  1.50000000E+00  1.50000000E+00
  1.30000000E+00  1.30000000E+00  1.30000000E+00  1.30000000E+00  1.30000000E+00
  1.30000000E+00
%FLAG SCREEN                                                                    
%FORMAT(5E16.8)                                                                 
  7.20000000E-01  7.20000000E-01  7.20000000E-01  7.20000000E-01  7.20000000E-01
  7.20000000E-01  7.90000000E-01  7.90000000E-01  8.50000000E-01  8.50000000E-01
  8.50000000E-01  8.50000000E-01  8.50000000E-01  8.50000000E-01  8.50000000E-01
  8.50000000E-01
%FLAG IPOL                                                                      
%FORMAT(1I8)                                                                    
       0
