mobley_4252724_GMX.gro created by acpype (v: 2023.10.27) on Thu May 21 00:02:02 2026
   24
    1MOL     C1    1   2.251   2.514   2.109
    1MOL     C2    2   2.388   2.492   2.121
    1MOL     C3    3   2.169   2.504   2.222
    1MOL     C4    4   2.443   2.459   2.245
    1MOL     C5    5   2.224   2.471   2.346
    1MOL     C6    6   2.360   2.449   2.355
    1MOL     C7    7   2.286   2.197   2.507
    1MOL     C8    8   2.521   2.194   2.419
    1MOL     C9    9   2.420   2.413   2.489
    1MOL    C10   10   2.425   2.262   2.517
    1MOL     H1   11   2.208   2.540   2.013
    1MOL     H2   12   2.452   2.500   2.033
    1MOL     H3   13   2.062   2.521   2.213
    1MOL     H4   14   2.550   2.442   2.253
    1MOL     H5   15   2.159   2.463   2.433
    1MOL     H6   16   2.242   2.214   2.408
    1MOL     H7   17   2.218   2.237   2.582
    1MOL     H8   18   2.293   2.089   2.522
    1MOL     H9   19   2.528   2.087   2.439
    1MOL    H10   20   2.487   2.207   2.315
    1MOL    H11   21   2.622   2.236   2.428
    1MOL    H12   22   2.521   2.456   2.498
    1MOL    H13   23   2.360   2.463   2.567
    1MOL    H14   24   2.463   2.244   2.619
   4.72102   4.72102   4.72102
