%VERSION  VERSION_STAMP = V0001.000  DATE = 05/20/26  23:44:32                  
%FLAG TITLE                                                                     
%FORMAT(20a4)                                                                   
pent_1_yne                                                                      
%FLAG POINTERS                                                                  
%FORMAT(10I8)                                                                   
      13       4       8       4      17       3      20       2       0       0
      56       1       4       3       2       5       7       4       4       0
       0       0       0       0       0       0       0       0      13       0
       0
%FLAG ATOM_NAME                                                                 
%FORMAT(20a4)                                                                   
C1  C2  C3  C4  C5  H1  H2  H3  H4  H5  H6  H7  H8  
%FLAG CHARGE                                                                    
%FORMAT(5E16.8)                                                                 
 -2.97934605E+00 -2.51649963E+00 -1.73294073E+00 -7.83558900E-02 -1.39218372E+00
  2.97934605E+00  6.32313810E-01  6.32313810E-01  6.32313810E-01  1.06964901E+00
  1.06964901E+00  8.50981410E-01  8.50981410E-01
%FLAG ATOMIC_NUMBER                                                             
%FORMAT(10I8)                                                                   
       6       6       6       6       6       1       1       1       1       1
       1       1       1
%FLAG MASS                                                                      
%FORMAT(5E16.8)                                                                 
  1.20100000E+01  1.20100000E+01  1.20100000E+01  1.20100000E+01  1.20100000E+01
  1.00800000E+00  1.00800000E+00  1.00800000E+00  1.00800000E+00  1.00800000E+00
  1.00800000E+00  1.00800000E+00  1.00800000E+00
%FLAG ATOM_TYPE_INDEX                                                           
%FORMAT(10I8)                                                                   
       1       1       2       2       2       3       4       4       4       4
       4       4       4
%FLAG NUMBER_EXCLUDED_ATOMS                                                     
%FORMAT(10I8)                                                                   
       6       8       9       9       7       1       4       3       2       3
       2       1       1
%FLAG NONBONDED_PARM_INDEX                                                      
%FORMAT(10I8)                                                                   
       1       2       4       7       2       3       5       8       4       5
       6       9       7       8       9      10
%FLAG RESIDUE_LABEL                                                             
%FORMAT(20a4)                                                                   
MOL 
%FLAG RESIDUE_POINTER                                                           
%FORMAT(10I8)                                                                   
       1
%FLAG BOND_FORCE_CONSTANT                                                       
%FORMAT(5E16.8)                                                                 
  6.99130000E+02  3.92430000E+02  2.84580000E+02  2.28890000E+02  3.45250000E+02
%FLAG BOND_EQUIL_VALUE                                                          
%FORMAT(5E16.8)                                                                 
  1.20950000E+00  1.06660000E+00  1.46560000E+00  1.53540000E+00  1.09620000E+00
%FLAG ANGLE_FORCE_CONSTANT                                                      
%FORMAT(5E16.8)                                                                 
  5.35800000E+01  4.10500000E+01  6.13700000E+01  4.51300000E+01  5.98700000E+01
  4.32700000E+01  3.58000000E+01
%FLAG ANGLE_EQUIL_VALUE                                                         
%FORMAT(5E16.8)                                                                 
  3.11838111E+00  3.12902762E+00  1.95511867E+00  1.91026369E+00  1.96576518E+00
  1.91427794E+00  1.88024401E+00
%FLAG DIHEDRAL_FORCE_CONSTANT                                                   
%FORMAT(5E16.8)                                                                 
  0.00000000E+00  1.55555556E-01  1.30000000E-01  1.20000000E-01
%FLAG DIHEDRAL_PERIODICITY                                                      
%FORMAT(5E16.8)                                                                 
  2.00000000E+00  3.00000000E+00  3.00000000E+00  3.00000000E+00
%FLAG DIHEDRAL_PHASE                                                            
%FORMAT(5E16.8)                                                                 
  3.14159400E+00  0.00000000E+00  0.00000000E+00  0.00000000E+00
%FLAG SCEE_SCALE_FACTOR                                                         
%FORMAT(5E16.8)                                                                 
  1.20000000E+00  1.20000000E+00  1.20000000E+00  1.20000000E+00
%FLAG SCNB_SCALE_FACTOR                                                         
%FORMAT(5E16.8)                                                                 
  2.00000000E+00  2.00000000E+00  2.00000000E+00  2.00000000E+00
%FLAG SOLTY                                                                     
%FORMAT(5E16.8)                                                                 
  0.00000000E+00  0.00000000E+00  0.00000000E+00  0.00000000E+00
%FLAG LENNARD_JONES_ACOEF                                                       
%FORMAT(5E16.8)                                                                 
  2.00671338E+06  1.43239677E+06  1.02073671E+06  1.32549375E+05  9.27554496E+04
  6.90855956E+03  1.43334551E+05  1.00235148E+05  7.41026906E+03  7.94617769E+03
%FLAG LENNARD_JONES_BCOEF                                                       
%FORMAT(5E16.8)                                                                 
  1.13185062E+03  8.66911122E+02  6.63431737E+02  1.63939471E+02  1.24325688E+02
  2.10929191E+01  1.81752124E+02  1.37787728E+02  2.32899892E+01  2.57122925E+01
%FLAG BONDS_INC_HYDROGEN                                                        
%FORMAT(10I8)                                                                   
       0      15       2       6      18       5       6      21       5       6
      24       5       9      27       5       9      30       5      12      33
       5      12      36       5
%FLAG BONDS_WITHOUT_HYDROGEN                                                    
%FORMAT(10I8)                                                                   
       0       3       1       3       9       3       6      12       4       9
      12       4
%FLAG ANGLES_INC_HYDROGEN                                                       
%FORMAT(10I8)                                                                   
       3       0      15       2       3       9      27       4       3       9
      30       4       6      12      33       6       6      12      36       6
       9      12      33       6       9      12      36       6      12       6
      18       6      12       6      21       6      12       6      24       6
      12       9      27       6      12       9      30       6      18       6
      21       7      18       6      24       7      21       6      24       7
      27       9      30       7      33      12      36       7
%FLAG ANGLES_WITHOUT_HYDROGEN                                                   
%FORMAT(10I8)                                                                   
       0       3       9       1       3       9      12       3       6      12
       9       5
%FLAG DIHEDRALS_INC_HYDROGEN                                                    
%FORMAT(10I8)                                                                   
       0       3       9      27       1       0       3       9      30       1
       3       9      12      33       2       3       9      12      36       2
       6      12       9      27       3       6      12       9      30       3
      15       0       3       9       1       9      12       6      18       3
       9      12       6      21       3       9      12       6      24       3
      18       6      12      33       4      18       6      12      36       4
      21       6      12      33       4      21       6      12      36       4
      24       6      12      33       4      24       6      12      36       4
      27       9      12      33       4      27       9      12      36       4
      30       9      12      33       4      30       9      12      36       4
%FLAG DIHEDRALS_WITHOUT_HYDROGEN                                                
%FORMAT(10I8)                                                                   
       0       3       9      12       1       3       9      12       6       2
%FLAG EXCLUDED_ATOMS_LIST                                                       
%FORMAT(10I8)                                                                   
       2       4       5       6      10      11       3       4       5       6
      10      11      12      13       4       5       7       8       9      10
      11      12      13       5       6       7       8       9      10      11
      12      13       7       8       9      10      11      12      13       0
       8       9      12      13       9      12      13      12      13      11
      12      13      12      13      13       0
%FLAG HBOND_ACOEF                                                               
%FORMAT(5E16.8)                                                                 

%FLAG HBOND_BCOEF                                                               
%FORMAT(5E16.8)                                                                 

%FLAG HBCUT                                                                     
%FORMAT(5E16.8)                                                                 

%FLAG AMBER_ATOM_TYPE                                                           
%FORMAT(20a4)                                                                   
c1  c1  c3  c3  c3  ha  hc  hc  hc  hc  hc  hc  hc  
%FLAG TREE_CHAIN_CLASSIFICATION                                                 
%FORMAT(20a4)                                                                   
BLA BLA BLA BLA BLA BLA BLA BLA BLA BLA BLA BLA BLA 
%FLAG JOIN_ARRAY                                                                
%FORMAT(10I8)                                                                   
       0       0       0       0       0       0       0       0       0       0
       0       0       0
%FLAG IROTAT                                                                    
%FORMAT(10I8)                                                                   
       0       0       0       0       0       0       0       0       0       0
       0       0       0
%FLAG RADIUS_SET                                                                
%FORMAT(1a80)                                                                   
modified Bondi radii (mbondi)                                                   
%FLAG RADII                                                                     
%FORMAT(5E16.8)                                                                 
  1.70000000E+00  1.70000000E+00  1.70000000E+00  1.70000000E+00  1.70000000E+00
  1.30000000E+00  1.30000000E+00  1.30000000E+00  1.30000000E+00  1.30000000E+00
  1.30000000E+00  1.30000000E+00  1.30000000E+00
%FLAG SCREEN                                                                    
%FORMAT(5E16.8)                                                                 
  7.20000000E-01  7.20000000E-01  7.20000000E-01  7.20000000E-01  7.20000000E-01
  8.50000000E-01  8.50000000E-01  8.50000000E-01  8.50000000E-01  8.50000000E-01
  8.50000000E-01  8.50000000E-01  8.50000000E-01
%FLAG IPOL                                                                      
%FORMAT(1I8)                                                                    
       0
