; mobley_430089_GMX_OPLS.top created by acpype (v: 2023.10.27) on Wed May 20 23:44:32 2026

; Include forcefield parameters
#include "ffoplsaa.itp"

; Include mobley_430089_GMX.itp topology
#include "mobley_430089_GMX.itp"

; Ligand position restraints
#ifdef POSRES_LIG
#include "posre_mobley_430089.itp"
#endif

[ system ]
 mobley_430089

[ molecules ]
; Compound        nmols
 mobley_430089    1     
