mobley_430089_GMX.gro created by acpype (v: 2023.10.27) on Wed May 20 23:44:32 2026
 13
    1  MOL   C1    1   0.388  -0.339   0.120
    1  MOL   C2    2   0.290  -0.285   0.076
    1  MOL   C3    3   0.078  -0.005  -0.076
    1  MOL   C4    4   0.171  -0.219   0.021
    1  MOL   C5    5   0.202  -0.076  -0.023
    1  MOL   H1    6   0.474  -0.387   0.160
    1  MOL   H2    7   0.000   0.000   0.000
    1  MOL   H3    8   0.103   0.097  -0.107
    1  MOL   H4    9   0.038  -0.058  -0.163
    1  MOL   H5   10   0.133  -0.276  -0.064
    1  MOL   H6   11   0.092  -0.218   0.097
    1  MOL   H7   12   0.280  -0.076  -0.100
    1  MOL   H8   13   0.242  -0.018   0.062
    9.48000     9.67400     6.46200
