; mobley_430089_GMX_OPLS.itp created by acpype (v: 2023.10.27) on Wed May 20 23:44:32 2026

; For OPLS atomtypes manual fine tuning
; AC_at:OPLS_at:OPLScode: Possible_Alternatives (see ffoplsaa.atp and ffoplsaanb.itp)
; c1:x:opls_x: []
; c3:CT:opls_135: ['136', '137', '149', '157', '158', '206', '209', '210', '223B', '224B', '245', '246', '274', '283', '284', '285', '292', '292B', '293B', '296', '307', '308', '505']
; ha:HA:opls_146: []
; hc:HC:opls_140: []

[ moleculetype ]
;name            nrexcl
 mobley_430089    3

[ atoms ]
;   nr  type  resi  res  atom  cgnr     charge      mass       ; qtot   bond_type
     1 opls_x     1   MOL    C1    1    -0.163500      0.00000 ; qtot -0.164  x   
     2 opls_x     1   MOL    C2    2    -0.138100      0.00000 ; qtot -0.302  x   
     3 opls_135     1   MOL    C3    3    -0.095100     12.01100 ; qtot -0.397  CT  
     4 opls_135     1   MOL    C4    4    -0.004300     12.01100 ; qtot -0.401  CT  
     5 opls_135     1   MOL    C5    5    -0.076400     12.01100 ; qtot -0.477  CT  
     6 opls_146     1   MOL    H1    6     0.162500      1.00800 ; qtot -0.315  HA  
     7 opls_140     1   MOL    H2    7     0.034700      1.00800 ; qtot -0.280  HC  
     8 opls_140     1   MOL    H3    8     0.034700      1.00800 ; qtot -0.245  HC  
     9 opls_140     1   MOL    H4    9     0.034700      1.00800 ; qtot -0.211  HC  
    10 opls_140     1   MOL    H5   10     0.058700      1.00800 ; qtot -0.152  HC  
    11 opls_140     1   MOL    H6   11     0.058700      1.00800 ; qtot -0.093  HC  
    12 opls_140     1   MOL    H7   12     0.046700      1.00800 ; qtot -0.047  HC  
    13 opls_140     1   MOL    H8   13     0.046700      1.00800 ; qtot  0.000  HC  

[ bonds ]
;   ai     aj funct   r             k
     1      2   1 ;    1.2095e-01    5.8503e+05 ;     C1 - C2          x - x     
     1      6   1 ;    1.0666e-01    3.2839e+05 ;     C1 - H1          x - HA    
     2      4   1 ;    1.4656e-01    2.3814e+05 ;     C2 - C4          x - CT    
     3      5   1 ;    1.5354e-01    1.9154e+05 ;     C3 - C5         CT - CT    
     3      7   1 ;    1.0962e-01    2.8891e+05 ;     C3 - H2         CT - HC    
     3      8   1 ;    1.0962e-01    2.8891e+05 ;     C3 - H3         CT - HC    
     3      9   1 ;    1.0962e-01    2.8891e+05 ;     C3 - H4         CT - HC    
     4      5   1 ;    1.5354e-01    1.9154e+05 ;     C4 - C5         CT - CT    
     4     10   1 ;    1.0962e-01    2.8891e+05 ;     C4 - H5         CT - HC    
     4     11   1 ;    1.0962e-01    2.8891e+05 ;     C4 - H6         CT - HC    
     5     12   1 ;    1.0962e-01    2.8891e+05 ;     C5 - H7         CT - HC    
     5     13   1 ;    1.0962e-01    2.8891e+05 ;     C5 - H8         CT - HC    

[ pairs ]
;   ai     aj    funct
     1      5      1 ;     C1 - C5    
     1     10      1 ;     C1 - H5    
     1     11      1 ;     C1 - H6    
     2      3      1 ;     C2 - C3    
     2     12      1 ;     C2 - H7    
     2     13      1 ;     C2 - H8    
     3     10      1 ;     C3 - H5    
     3     11      1 ;     C3 - H6    
     4      7      1 ;     C4 - H2    
     4      8      1 ;     C4 - H3    
     4      9      1 ;     C4 - H4    
     6      4      1 ;     H1 - C4    
     7     12      1 ;     H2 - H7    
     7     13      1 ;     H2 - H8    
     8     12      1 ;     H3 - H7    
     8     13      1 ;     H3 - H8    
     9     12      1 ;     H4 - H7    
     9     13      1 ;     H4 - H8    
    10     12      1 ;     H5 - H7    
    10     13      1 ;     H5 - H8    
    11     12      1 ;     H6 - H7    
    11     13      1 ;     H6 - H8    

[ angles ]
;   ai     aj     ak    funct   theta         cth
     1      2      4      1 ;    1.7867e+02    4.4836e+02 ;     C1 - C2   - C4        x -    x - CT  
     2      1      6      1 ;    1.7928e+02    3.4351e+02 ;     C2 - C1   - H1        x -    x - HA  
     2      4      5      1 ;    1.1202e+02    5.1354e+02 ;     C2 - C4   - C5        x -   CT - CT  
     2      4     10      1 ;    1.0945e+02    3.7765e+02 ;     C2 - C4   - H5        x -   CT - HC  
     2      4     11      1 ;    1.0945e+02    3.7765e+02 ;     C2 - C4   - H6        x -   CT - HC  
     3      5      4      1 ;    1.1263e+02    5.0099e+02 ;     C3 - C5   - C4       CT -   CT - CT  
     3      5     12      1 ;    1.0968e+02    3.6208e+02 ;     C3 - C5   - H7       CT -   CT - HC  
     3      5     13      1 ;    1.0968e+02    3.6208e+02 ;     C3 - C5   - H8       CT -   CT - HC  
     4      5     12      1 ;    1.0968e+02    3.6208e+02 ;     C4 - C5   - H7       CT -   CT - HC  
     4      5     13      1 ;    1.0968e+02    3.6208e+02 ;     C4 - C5   - H8       CT -   CT - HC  
     5      3      7      1 ;    1.0968e+02    3.6208e+02 ;     C5 - C3   - H2       CT -   CT - HC  
     5      3      8      1 ;    1.0968e+02    3.6208e+02 ;     C5 - C3   - H3       CT -   CT - HC  
     5      3      9      1 ;    1.0968e+02    3.6208e+02 ;     C5 - C3   - H4       CT -   CT - HC  
     5      4     10      1 ;    1.0968e+02    3.6208e+02 ;     C5 - C4   - H5       CT -   CT - HC  
     5      4     11      1 ;    1.0968e+02    3.6208e+02 ;     C5 - C4   - H6       CT -   CT - HC  
     7      3      8      1 ;    1.0773e+02    2.9957e+02 ;     H2 - C3   - H3       HC -   CT - HC  
     7      3      9      1 ;    1.0773e+02    2.9957e+02 ;     H2 - C3   - H4       HC -   CT - HC  
     8      3      9      1 ;    1.0773e+02    2.9957e+02 ;     H3 - C3   - H4       HC -   CT - HC  
    10      4     11      1 ;    1.0773e+02    2.9957e+02 ;     H5 - C4   - H6       HC -   CT - HC  
    12      5     13      1 ;    1.0773e+02    2.9957e+02 ;     H7 - C5   - H8       HC -   CT - HC  

[ dihedrals ] ; propers
; for gromacs 4.5 or higher, using funct 9
;    i      j      k      l   func   phase     kd      pn
     1      2      4      5      9 ;   180.00   0.00000   2 ;     C1-    C2-    C4-    C5
     1      2      4     10      9 ;   180.00   0.00000   2 ;     C1-    C2-    C4-    H5
     1      2      4     11      9 ;   180.00   0.00000   2 ;     C1-    C2-    C4-    H6
     2      4      5      3      9 ;     0.00   0.65084   3 ;     C2-    C4-    C5-    C3
     2      4      5     12      9 ;     0.00   0.65084   3 ;     C2-    C4-    C5-    H7
     2      4      5     13      9 ;     0.00   0.65084   3 ;     C2-    C4-    C5-    H8
     3      5      4     10      9 ;     0.00   0.54392   3 ;     C3-    C5-    C4-    H5
     3      5      4     11      9 ;     0.00   0.54392   3 ;     C3-    C5-    C4-    H6
     4      5      3      7      9 ;     0.00   0.54392   3 ;     C4-    C5-    C3-    H2
     4      5      3      8      9 ;     0.00   0.54392   3 ;     C4-    C5-    C3-    H3
     4      5      3      9      9 ;     0.00   0.54392   3 ;     C4-    C5-    C3-    H4
     6      1      2      4      9 ;   180.00   0.00000   2 ;     H1-    C1-    C2-    C4
     7      3      5     12      9 ;     0.00   0.50208   3 ;     H2-    C3-    C5-    H7
     7      3      5     13      9 ;     0.00   0.50208   3 ;     H2-    C3-    C5-    H8
     8      3      5     12      9 ;     0.00   0.50208   3 ;     H3-    C3-    C5-    H7
     8      3      5     13      9 ;     0.00   0.50208   3 ;     H3-    C3-    C5-    H8
     9      3      5     12      9 ;     0.00   0.50208   3 ;     H4-    C3-    C5-    H7
     9      3      5     13      9 ;     0.00   0.50208   3 ;     H4-    C3-    C5-    H8
    10      4      5     12      9 ;     0.00   0.50208   3 ;     H5-    C4-    C5-    H7
    10      4      5     13      9 ;     0.00   0.50208   3 ;     H5-    C4-    C5-    H8
    11      4      5     12      9 ;     0.00   0.50208   3 ;     H6-    C4-    C5-    H7
    11      4      5     13      9 ;     0.00   0.50208   3 ;     H6-    C4-    C5-    H8
