mobley_3151666_GMX.gro created by acpype (v: 2023.10.27) on Wed May 20 23:51:13 2026
   33
    1MOL     C1    1   2.839   3.063   3.161
    1MOL     C2    2   2.796   3.046   3.016
    1MOL     C3    3   2.796   2.899   2.974
    1MOL     C4    4   2.750   2.882   2.829
    1MOL     C5    5   2.747   2.734   2.789
    1MOL     C6    6   2.695   2.711   2.647
    1MOL     C7    7   2.685   2.563   2.610
    1MOL     C8    8   2.635   2.545   2.466
    1MOL     C9    9   2.622   2.397   2.429
    1MOL    C10   10   2.569   2.377   2.288
    1MOL     O1   11   2.561   2.238   2.258
    1MOL     H1   12   2.940   3.025   3.176
    1MOL     H2   13   2.771   3.009   3.228
    1MOL     H3   14   2.838   3.169   3.188
    1MOL     H4   15   2.696   3.088   3.003
    1MOL     H5   16   2.864   3.103   2.951
    1MOL     H6   17   2.898   2.858   2.985
    1MOL     H7   18   2.731   2.842   3.041
    1MOL     H8   19   2.818   2.937   2.763
    1MOL     H9   20   2.650   2.925   2.817
    1MOL    H10   21   2.848   2.691   2.799
    1MOL    H11   22   2.682   2.679   2.859
    1MOL    H12   23   2.759   2.763   2.575
    1MOL    H13   24   2.595   2.756   2.640
    1MOL    H14   25   2.616   2.512   2.679
    1MOL    H15   26   2.783   2.515   2.620
    1MOL    H16   27   2.704   2.594   2.397
    1MOL    H17   28   2.538   2.595   2.455
    1MOL    H18   29   2.719   2.348   2.438
    1MOL    H19   30   2.554   2.349   2.501
    1MOL    H20   31   2.637   2.423   2.216
    1MOL    H21   32   2.469   2.422   2.276
    1MOL    H22   33   2.483   2.226   2.201
   5.41048   5.41048   5.41048
