%VERSION  VERSION_STAMP = V0001.000  DATE = 05/20/26  23:55:06                  
%FLAG TITLE                                                                     
%FORMAT(20a4)                                                                   
2,3-dichlorodibenzo-p-dioxin                                                    
%FLAG POINTERS                                                                  
%FORMAT(10I8)                                                                   
      22       4       6      18      12      26      27      41       0       0
     113       1      18      26      41       4       5       3       4       0
       0       0       0       0       0       0       0       0      22       0
       0
%FLAG ATOM_NAME                                                                 
%FORMAT(20a4)                                                                   
C1  C2  C3  C4  C5  C6  C7  C8  C9  C10 C11 C12 O1  O2  Cl1 Cl2 H1  H2  H3  H4  
H5  H6  
%FLAG CHARGE                                                                    
%FORMAT(5E16.8)                                                                 
 -2.27778750E+00 -2.27778750E+00 -3.24903609E+00 -3.24903609E+00 -3.17614689E+00
 -3.17614689E+00  3.82121631E+00  3.82121631E+00  4.05810621E+00  4.05810621E+00
  3.35290320E-01  3.35290320E-01 -7.06660794E+00 -7.06660794E+00 -1.06418232E+00
 -1.06418232E+00  2.58756660E+00  2.58756660E+00  2.86090110E+00  2.86090110E+00
  3.15245790E+00  3.15245790E+00
%FLAG ATOMIC_NUMBER                                                             
%FORMAT(10I8)                                                                   
       6       6       6       6       6       6       6       6       6       6
       6       6       8       8      17      17       1       1       1       1
       1       1
%FLAG MASS                                                                      
%FORMAT(5E16.8)                                                                 
  1.20100000E+01  1.20100000E+01  1.20100000E+01  1.20100000E+01  1.20100000E+01
  1.20100000E+01  1.20100000E+01  1.20100000E+01  1.20100000E+01  1.20100000E+01
  1.20100000E+01  1.20100000E+01  1.60000000E+01  1.60000000E+01  3.54500000E+01
  3.54500000E+01  1.00800000E+00  1.00800000E+00  1.00800000E+00  1.00800000E+00
  1.00800000E+00  1.00800000E+00
%FLAG ATOM_TYPE_INDEX                                                           
%FORMAT(10I8)                                                                   
       1       1       1       1       1       1       1       1       1       1
       1       1       2       2       3       3       4       4       4       4
       4       4
%FLAG NUMBER_EXCLUDED_ATOMS                                                     
%FORMAT(10I8)                                                                   
      10       9       9       8      11      10       8       7       8       7
       6       5       3       2       2       1       2       1       1       1
       1       1
%FLAG NONBONDED_PARM_INDEX                                                      
%FORMAT(10I8)                                                                   
       1       2       4       7       2       3       5       8       4       5
       6       9       7       8       9      10
%FLAG RESIDUE_LABEL                                                             
%FORMAT(20a4)                                                                   
MOL 
%FLAG RESIDUE_POINTER                                                           
%FORMAT(10I8)                                                                   
       1
%FLAG BOND_FORCE_CONSTANT                                                       
%FORMAT(5E16.8)                                                                 
  3.54250000E+02  3.60690000E+02  3.43340000E+02  1.87980000E+02
%FLAG BOND_EQUIL_VALUE                                                          
%FORMAT(5E16.8)                                                                 
  1.39860000E+00  1.08600000E+00  1.36880000E+00  1.75720000E+00
%FLAG ANGLE_FORCE_CONSTANT                                                      
%FORMAT(5E16.8)                                                                 
  6.36700000E+01  4.49000000E+01  7.90000000E+01  6.40600000E+01  8.96700000E+01
%FLAG ANGLE_EQUIL_VALUE                                                         
%FORMAT(5E16.8)                                                                 
  2.09474507E+00  2.09230160E+00  2.07886256E+00  2.08357495E+00  2.09212707E+00
%FLAG DIHEDRAL_FORCE_CONSTANT                                                   
%FORMAT(5E16.8)                                                                 
  3.62500000E+00  9.00000000E-01  1.10000000E+00
%FLAG DIHEDRAL_PERIODICITY                                                      
%FORMAT(5E16.8)                                                                 
  2.00000000E+00  2.00000000E+00  2.00000000E+00
%FLAG DIHEDRAL_PHASE                                                            
%FORMAT(5E16.8)                                                                 
  3.14159400E+00  3.14159400E+00  3.14159400E+00
%FLAG SCEE_SCALE_FACTOR                                                         
%FORMAT(5E16.8)                                                                 
  1.20000000E+00  1.20000000E+00  0.00000000E+00
%FLAG SCNB_SCALE_FACTOR                                                         
%FORMAT(5E16.8)                                                                 
  2.00000000E+00  2.00000000E+00  0.00000000E+00
%FLAG SOLTY                                                                     
%FORMAT(5E16.8)                                                                 
  0.00000000E+00  0.00000000E+00  0.00000000E+00  0.00000000E+00
%FLAG LENNARD_JONES_ACOEF                                                       
%FORMAT(5E16.8)                                                                 
  6.96551276E+05  4.46121722E+05  2.83662575E+05  1.49062160E+06  9.60982218E+05
  3.17107030E+06  7.52549148E+04  4.65732396E+04  1.66104821E+05  6.90855956E+03
%FLAG LENNARD_JONES_BCOEF                                                       
%FORMAT(5E16.8)                                                                 
  5.24668528E+02  3.88758656E+02  2.87011518E+02  9.81118883E+02  7.29357620E+02
  1.82923847E+03  1.09570372E+02  7.98066064E+01  2.08087638E+02  2.10929191E+01
%FLAG BONDS_INC_HYDROGEN                                                        
%FORMAT(10I8)                                                                   
       0      48       2       3      51       2       6      54       2       9
      57       2      12      60       2      15      63       2
%FLAG BONDS_WITHOUT_HYDROGEN                                                    
%FORMAT(10I8)                                                                   
       0       3       1       0       6       1       3       9       1       6
      18       1       9      21       1      12      24       1      12      30
       1      15      27       1      15      33       1      18      21       1
      18      36       3      21      39       3      24      27       1      24
      36       3      27      39       3      30      33       1      30      42
       4      33      45       4
%FLAG ANGLES_INC_HYDROGEN                                                       
%FORMAT(10I8)                                                                   
       0       3      51       2       0       6      54       2       3       0
      48       2       3       9      57       2       6       0      48       2
       9       3      51       2      18       6      54       2      21       9
      57       2      24      12      60       2      27      15      63       2
      30      12      60       2      33      15      63       2
%FLAG ANGLES_WITHOUT_HYDROGEN                                                   
%FORMAT(10I8)                                                                   
       0       3       9       1       0       6      18       1       3       0
       6       1       3       9      21       1       6      18      21       1
       6      18      36       3       9      21      18       1       9      21
      39       3      12      24      27       1      12      24      36       3
      12      30      33       1      12      30      42       4      15      27
      24       1      15      27      39       3      15      33      30       1
      15      33      45       4      18      21      39       3      18      36
      24       5      21      18      36       3      21      39      27       5
      24      12      30       1      24      27      39       3      27      15
      33       1      27      24      36       3      30      33      45       4
      33      30      42       4
%FLAG DIHEDRALS_INC_HYDROGEN                                                    
%FORMAT(10I8)                                                                   
       0       3       9      57       1       3       0       6      54       1
       6       0       3      51       1      48       0       3       9       1
      48       0       6      18       1      18      21       9      57       1
      21       9       3      51       1      21      18       6      54       1
      24      27      15      63       1      27      24      12      60       1
      30      33      15      63       1      33      30      12      60       1
      36      18       6      54       1      36      24      12      60       1
      39      21       9      57       1      39      27      15      63       1
      42      30      12      60       1      45      33      15      63       1
      48       0       3      51       1      48       0       6      54       1
      51       3       9      57       1      48       0      -6      -3       3
       0       9      -3     -51       3       0      18      -6     -54       3
       3      21      -9     -57       3      24      30     -12     -60       3
      27      33     -15     -63       3
%FLAG DIHEDRALS_WITHOUT_HYDROGEN                                                
%FORMAT(10I8)                                                                   
       0       3       9      21       1       0       6     -18      21       1
       0       6      18      36       1       3       0       6      18       1
       3       9     -21      18       1       3       9      21      39       1
       6       0       3       9       1       6      18     -21       9       1
       6      18      21      39       1       6      18      36      24       2
       9      21      18      36       1       9      21      39      27       2
      12      24      27      15       1      12      24      27      39       1
      12      24      36      18       2      12      30     -33      15       1
      12      30      33      45       1      15      27      24      36       1
      15      27      39      21       2      15      33      30      42       1
      18      21      39      27       2      18      36     -24      27       2
      21      18      36      24       2      21      39     -27      24       2
      24      12      30      33       1      24      12      30      42       1
      24      27     -15      33       1      27      15      33      30       1
      27      15      33      45       1      27      24     -12      30       1
      30      12      24      36       1      33      15      27      39       1
      36      18      21      39       1      36      24     -27      39       1
      42      30      33      45       1       6      21     -18     -36       3
       9      18     -21     -39       3      12      27     -24     -36       3
      15      24     -27     -39       3      12      33     -30     -42       3
      15      30     -33     -45       3
%FLAG EXCLUDED_ATOMS_LIST                                                       
%FORMAT(10I8)                                                                   
       2       3       4       7       8      13      17      18      19      20
       3       4       7       8      14      17      18      19      20       4
       7       8       9      13      14      17      18      19       7       8
      10      13      14      17      18      20       6       7       9      10
      11      12      13      14      15      16      21       8       9      10
      11      12      13      14      15      16      22       8       9      10
      13      14      17      19      20       9      10      13      14      18
      19      20      10      11      12      13      14      15      21      22
      11      12      13      14      16      21      22      12      13      15
      16      21      22      14      15      16      21      22      14      19
      21      20      22      16      21      22      18      19      20       0
       0       0       0
%FLAG HBOND_ACOEF                                                               
%FORMAT(5E16.8)                                                                 

%FLAG HBOND_BCOEF                                                               
%FORMAT(5E16.8)                                                                 

%FLAG HBCUT                                                                     
%FORMAT(5E16.8)                                                                 

%FLAG AMBER_ATOM_TYPE                                                           
%FORMAT(20a4)                                                                   
ca  ca  ca  ca  ca  ca  ca  ca  ca  ca  ca  ca  os  os  cl  cl  ha  ha  ha  ha  
ha  ha  
%FLAG TREE_CHAIN_CLASSIFICATION                                                 
%FORMAT(20a4)                                                                   
BLA BLA BLA BLA BLA BLA BLA BLA BLA BLA BLA BLA BLA BLA BLA BLA BLA BLA BLA BLA 
BLA BLA 
%FLAG JOIN_ARRAY                                                                
%FORMAT(10I8)                                                                   
       0       0       0       0       0       0       0       0       0       0
       0       0       0       0       0       0       0       0       0       0
       0       0
%FLAG IROTAT                                                                    
%FORMAT(10I8)                                                                   
       0       0       0       0       0       0       0       0       0       0
       0       0       0       0       0       0       0       0       0       0
       0       0
%FLAG RADIUS_SET                                                                
%FORMAT(1a80)                                                                   
modified Bondi radii (mbondi)                                                   
%FLAG RADII                                                                     
%FORMAT(5E16.8)                                                                 
  1.70000000E+00  1.70000000E+00  1.70000000E+00  1.70000000E+00  1.70000000E+00
  1.70000000E+00  1.70000000E+00  1.70000000E+00  1.70000000E+00  1.70000000E+00
  1.70000000E+00  1.70000000E+00  1.50000000E+00  1.50000000E+00  1.70000000E+00
  1.70000000E+00  1.30000000E+00  1.30000000E+00  1.30000000E+00  1.30000000E+00
  1.30000000E+00  1.30000000E+00
%FLAG SCREEN                                                                    
%FORMAT(5E16.8)                                                                 
  7.20000000E-01  7.20000000E-01  7.20000000E-01  7.20000000E-01  7.20000000E-01
  7.20000000E-01  7.20000000E-01  7.20000000E-01  7.20000000E-01  7.20000000E-01
  7.20000000E-01  7.20000000E-01  8.50000000E-01  8.50000000E-01  8.00000000E-01
  8.00000000E-01  8.50000000E-01  8.50000000E-01  8.50000000E-01  8.50000000E-01
  8.50000000E-01  8.50000000E-01
%FLAG IPOL                                                                      
%FORMAT(1I8)                                                                    
       0
