; mobley_1469079_GMX_OPLS.top created by acpype (v: 2023.10.27) on Wed May 20 23:55:05 2026

; Include forcefield parameters
#include "ffoplsaa.itp"

; Include mobley_1469079_GMX.itp topology
#include "mobley_1469079_GMX.itp"

; Ligand position restraints
#ifdef POSRES_LIG
#include "posre_mobley_1469079.itp"
#endif

[ system ]
 mobley_1469079

[ molecules ]
; Compound        nmols
 mobley_1469079   1     
