mobley_4506634_GMX.gro created by acpype (v: 2023.10.27) on Wed May 20 23:53:48 2026
 8426
    1MOL     C1    1   2.228   2.226   2.270
    1MOL     C2    2   2.194   2.172   2.133
    1MOL     F1    3   2.220   2.039   2.126
    1MOL     F2    4   2.063   2.190   2.102
    1MOL     F3    5   2.268   2.232   2.037
    1MOL    CL1    6   2.131   2.147   2.396
    1MOL    BR1    7   2.196   2.418   2.276
    1MOL     H1    8   2.334   2.211   2.293
    2SOL     OW    9   0.230   0.628   0.113
    2SOL    HW1   10   0.137   0.626   0.150
    2SOL    HW2   11   0.231   0.589   0.021
    3SOL     OW   12   0.225   0.275   0.996
    3SOL    HW1   13   0.260   0.258   1.088
    3SOL    HW2   14   0.137   0.230   0.984
    4SOL     OW   15   0.019   0.368   0.647
    4SOL    HW1   16  -0.063   0.411   0.686
    4SOL    HW2   17  -0.009   0.295   0.584
    5SOL     OW   18   0.569   1.275   1.165
    5SOL    HW1   19   0.476   1.268   1.128
    5SOL    HW2   20   0.580   1.364   1.209
    6SOL     OW   21   1.555   1.511   0.703
    6SOL    HW1   22   1.498   1.495   0.784
    6SOL    HW2   23   1.496   1.521   0.623
    7SOL     OW   24   1.135   0.703   0.717
    7SOL    HW1   25   1.192   0.781   0.692
    7SOL    HW2   26   1.075   0.729   0.793
    8SOL     OW   27   1.755   0.607   0.231
    8SOL    HW1   28   1.743   0.594   0.132
    8SOL    HW2   29   1.725   0.526   0.280
    9SOL     OW   30   0.768   1.144   1.023
    9SOL    HW1   31   0.690   1.161   1.083
    9SOL    HW2   32   0.802   1.231   0.987
   10SOL     OW   33   0.850   0.798   1.823
   10SOL    HW1   34   0.846   0.874   1.888
   10SOL    HW2   35   0.872   0.834   1.732
   11SOL     OW   36   0.685   1.012   0.665
   11SOL    HW1   37   0.754   0.996   0.735
   11SOL    HW2   38   0.612   1.069   0.703
   12SOL     OW   39   0.686   1.161   1.803
   12SOL    HW1   40   0.746   1.240   1.817
   12SOL    HW2   41   0.600   1.192   1.762
   13SOL     OW   42   0.335   1.435   1.061
   13SOL    HW1   43   0.257   1.404   1.008
   13SOL    HW2   44   0.393   1.493   1.004
   14SOL     OW   45   1.460   1.505   1.339
   14SOL    HW1   46   1.484   1.599   1.365
   14SOL    HW2   47   1.444   1.451   1.421
   15SOL     OW   48   0.438   0.392   1.499
   15SOL    HW1   49   0.520   0.336   1.508
   15SOL    HW2   50   0.357   0.334   1.503
   16SOL     OW   51   1.603   0.447   0.737
   16SOL    HW1   52   1.529   0.493   0.687
   16SOL    HW2   53   1.654   0.515   0.790
   17SOL     OW   54   0.231   1.713   0.483
   17SOL    HW1   55   0.265   1.790   0.537
   17SOL    HW2   56   0.275   1.713   0.393
   18SOL     OW   57   1.127   1.341   1.690
   18SOL    HW1   58   1.174   1.341   1.778
   18SOL    HW2   59   1.079   1.254   1.679
   19SOL     OW   60   0.230   1.434   0.538
   19SOL    HW1   61   0.204   1.530   0.538
   19SOL    HW2   62   0.159   1.380   0.583
   20SOL     OW   63   0.240   1.091   0.886
   20SOL    HW1   64   0.254   1.007   0.938
   20SOL    HW2   65   0.185   1.155   0.941
   21SOL     OW   66   0.620   1.786   1.439
   21SOL    HW1   67   0.528   1.769   1.474
   21SOL    HW2   68   0.648   1.878   1.465
   22SOL     OW   69   0.606   0.964   0.123
   22SOL    HW1   70   0.613   1.048   0.069
   22SOL    HW2   71   0.652   0.977   0.211
   23SOL     OW   72   1.594   0.114   1.480
   23SOL    HW1   73   1.576   0.181   1.408
   23SOL    HW2   74   1.591   0.160   1.569
   24SOL     OW   75   0.122   0.643   0.563
   24SOL    HW1   76   0.077   0.555   0.580
   24SOL    HW2   77   0.121   0.697   0.647
   25SOL     OW   78   1.842   1.767   0.359
   25SOL    HW1   79   1.896   1.738   0.439
   25SOL    HW2   80   1.872   1.857   0.330
   26SOL     OW   81   0.027   1.596   0.117
   26SOL    HW1   82   0.008   1.500   0.138
   26SOL    HW2   83  -0.006   1.654   0.192
   27SOL     OW   84   1.689   0.922   0.612
   27SOL    HW1   85   1.784   0.893   0.620
   27SOL    HW2   86   1.681   0.987   0.537
   28SOL     OW   87   1.641   1.108   0.432
   28SOL    HW1   88   1.727   1.110   0.380
   28SOL    HW2   89   1.655   1.155   0.520
   29SOL     OW   90   0.113   0.737   1.597
   29SOL    HW1   91   0.201   0.724   1.642
   29SOL    HW2   92   0.100   0.834   1.575
   30SOL     OW   93   0.613   1.365   0.726
   30SOL    HW1   94   0.564   1.278   0.735
   30SOL    HW2   95   0.590   1.408   0.639
   31SOL     OW   96   1.293   1.228   1.423
   31SOL    HW1   97   1.330   1.155   1.365
   31SOL    HW2   98   1.345   1.233   1.508
   32SOL     OW   99   0.809   0.004   0.502
   32SOL    HW1  100   0.849   0.095   0.493
   32SOL    HW2  101   0.709   0.012   0.508
   33SOL     OW  102   0.197   0.976   1.264
   33SOL    HW1  103   0.286   0.931   1.250
   33SOL    HW2  104   0.124   0.911   1.245
   34SOL     OW  105   1.525   0.999   0.190
   34SOL    HW1  106   1.462   0.923   0.203
   34SOL    HW2  107   1.573   1.017   0.276
   35SOL     OW  108   1.187   1.792   1.616
   35SOL    HW1  109   1.211   1.852   1.540
   35SOL    HW2  110   1.194   1.697   1.586
   36SOL     OW  111   0.317   0.251   1.801
   36SOL    HW1  112   0.388   0.322   1.807
   36SOL    HW2  113   0.229   0.290   1.829
   37SOL     OW  114   1.466   1.417   0.953
   37SOL    HW1  115   1.407   1.423   1.033
   37SOL    HW2  116   1.451   1.329   0.907
   38SOL     OW  117   1.667   1.714   0.572
   38SOL    HW1  118   1.626   1.691   0.484
   38SOL    HW2  119   1.649   1.640   0.637
   39SOL     OW  120   0.598   0.729   0.270
   39SOL    HW1  121   0.622   0.798   0.202
   39SOL    HW2  122   0.520   0.762   0.324
   40SOL     OW  123   1.281   0.345   0.944
   40SOL    HW1  124   1.195   0.295   0.931
   40SOL    HW2  125   1.343   0.291   1.000
   41SOL     OW  126   1.576   1.662   0.307
   41SOL    HW1  127   1.665   1.708   0.310
   41SOL    HW2  128   1.555   1.638   0.212
   42SOL     OW  129   0.807   0.605   1.465
   42SOL    HW1  130   0.760   0.602   1.554
   42SOL    HW2  131   0.756   0.550   1.399
   43SOL     OW  132   1.394   0.469   1.674
   43SOL    HW1  133   1.374   0.512   1.762
   43SOL    HW2  134   1.472   0.407   1.683
   44SOL     OW  135   0.973   0.890   1.572
   44SOL    HW1  136   1.019   0.806   1.543
   44SOL    HW2  137   0.917   0.924   1.497
   45SOL     OW  138   0.991   0.410   1.242
   45SOL    HW1  139   0.914   0.444   1.296
   45SOL    HW2  140   0.957   0.359   1.163
   46SOL     OW  141   1.041   0.701   0.429
   46SOL    HW1  142   1.067   0.697   0.525
   46SOL    HW2  143   0.956   0.650   0.415
   47SOL     OW  144   0.076   0.811   0.789
   47SOL    HW1  145   0.175   0.799   0.798
   47SOL    HW2  146   0.052   0.906   0.810
   48SOL     OW  147   0.130   1.821   1.571
   48SOL    HW1  148   0.120   1.806   1.670
   48SOL    HW2  149   0.044   1.857   1.535
   49SOL     OW  150   0.865   0.348   0.195
   49SOL    HW1  151   0.924   0.411   0.146
   49SOL    HW2  152   0.884   0.254   0.166
   50SOL     OW  153   1.719   0.585   1.831
   50SOL    HW1  154   1.693   0.674   1.795
   50SOL    HW2  155   1.717   0.517   1.758
   51SOL     OW  156   1.362   1.144   0.545
   51SOL    HW1  157   1.445   1.115   0.497
   51SOL    HW2  158   1.313   1.211   0.489
   52SOL     OW  159   0.550   0.196   0.885
   52SOL    HW1  160   0.545   0.191   0.985
   52SOL    HW2  161   0.552   0.292   0.856
   53SOL     OW  162   1.008   1.456   0.477
   53SOL    HW1  163   0.962   1.528   0.425
   53SOL    HW2  164   1.004   1.476   0.575
   54SOL     OW  165   0.351   1.801   0.853
   54SOL    HW1  166   0.401   1.715   0.859
   54SOL    HW2  167   0.416   1.878   0.850
   55SOL     OW  168   1.795   1.066   0.873
   55SOL    HW1  169   1.733   1.051   0.797
   55SOL    HW2  170   1.743   1.077   0.958
   56SOL     OW  171   1.227   1.550   1.506
   56SOL    HW1  172   1.233   1.473   1.570
   56SOL    HW2  173   1.175   1.524   1.426
   57SOL     OW  174   0.321   0.943   0.242
   57SOL    HW1  175   0.403   0.982   0.200
   57SOL    HW2  176   0.294   0.861   0.193
   58SOL     OW  177   1.458   0.735   0.728
   58SOL    HW1  178   1.453   0.670   0.803
   58SOL    HW2  179   1.538   0.794   0.741
   59SOL     OW  180   0.461   1.266   1.727
   59SOL    HW1  181   0.411   1.267   1.641
   59SOL    HW2  182   0.398   1.248   1.803
   60SOL     OW  183   1.111   1.776   0.237
   60SOL    HW1  184   1.051   1.714   0.287
   60SOL    HW2  185   1.142   1.732   0.152
   61SOL     OW  186   0.202   0.285   1.498
   61SOL    HW1  187   0.122   0.345   1.485
   61SOL    HW2  188   0.192   0.236   1.584
   62SOL     OW  189   1.632   1.377   0.081
   62SOL    HW1  190   1.600   1.471   0.071
   62SOL    HW2  191   1.556   1.314   0.069
   63SOL     OW  192   0.464   1.743   0.323
   63SOL    HW1  193   0.497   1.782   0.409
   63SOL    HW2  194   0.540   1.736   0.258
   64SOL     OW  195   1.400   0.107   0.426
   64SOL    HW1  196   1.376   0.070   0.336
   64SOL    HW2  197   1.499   0.123   0.430
   65SOL     OW  198   0.249   1.785   1.241
   65SOL    HW1  199   0.306   1.720   1.291
   65SOL    HW2  200   0.233   1.752   1.148
   66SOL     OW  201   0.940   1.698   0.904
   66SOL    HW1  202   1.020   1.641   0.925
   66SOL    HW2  203   0.891   1.658   0.827
   67SOL     OW  204   0.382   0.700   0.480
   67SOL    HW1  205   0.427   0.610   0.477
   67SOL    HW2  206   0.288   0.689   0.513
   68SOL     OW  207   1.547   0.222   1.729
   68SOL    HW1  208   1.542   0.259   1.821
   68SOL    HW2  209   1.475   0.153   1.717
   69SOL     OW  210   0.614   0.122   0.117
   69SOL    HW1  211   0.712   0.100   0.124
   69SOL    HW2  212   0.583   0.105   0.024
   70SOL     OW  213   0.781   0.264   1.749
   70SOL    HW1  214   0.848   0.203   1.792
   70SOL    HW2  215   0.708   0.283   1.814
   71SOL     OW  216   0.888   1.514   1.195
   71SOL    HW1  217   0.865   1.489   1.101
   71SOL    HW2  218   0.949   1.445   1.234
   72SOL     OW  219   1.351   0.590   1.433
   72SOL    HW1  220   1.379   0.547   1.518
   72SOL    HW2  221   1.376   0.686   1.434
   73SOL     OW  222   0.803   1.402   0.924
   73SOL    HW1  223   0.893   1.416   0.882
   73SOL    HW2  224   0.732   1.404   0.853
   74SOL     OW  225   0.922   0.503   0.899
   74SOL    HW1  226   0.897   0.494   0.803
   74SOL    HW2  227   0.970   0.421   0.930
   75SOL     OW  228   0.539   0.064   0.512
   75SOL    HW1  229   0.458   0.065   0.570
   75SOL    HW2  230   0.542   0.147   0.457
   76SOL     OW  231   1.434   1.188   0.041
   76SOL    HW1  232   1.466   1.112   0.098
   76SOL    HW2  233   1.342   1.215   0.071
   77SOL     OW  234   0.297   0.035   0.171
   77SOL    HW1  235   0.346   0.119   0.150
   77SOL    HW2  236   0.359  -0.030   0.216
   78SOL     OW  237   0.935   0.236   0.480
   78SOL    HW1  238   0.887   0.277   0.402
   78SOL    HW2  239   1.034   0.234   0.461
   79SOL     OW  240   1.076   0.683   1.464
   79SOL    HW1  241   0.996   0.622   1.467
   79SOL    HW2  242   1.157   0.630   1.440
   80SOL     OW  243   1.227   1.570   0.793
   80SOL    HW1  244   1.248   1.644   0.728
   80SOL    HW2  245   1.295   1.570   0.866
   81SOL     OW  246   0.459   1.152   0.741
   81SOL    HW1  247   0.388   1.125   0.806
   81SOL    HW2  248   0.433   1.124   0.648
   82SOL     OW  249   1.271   1.797   0.591
   82SOL    HW1  250   1.315   1.861   0.527
   82SOL    HW2  251   1.221   1.849   0.661
   83SOL     OW  252   1.032   0.549   0.016
   83SOL    HW1  253   0.991   0.631  -0.023
   83SOL    HW2  254   1.096   0.575   0.089
   84SOL     OW  255   0.078   0.556   1.386
   84SOL    HW1  256   0.170   0.555   1.345
   84SOL    HW2  257   0.072   0.630   1.453
   85SOL     OW  258   0.561   0.222   1.147
   85SOL    HW1  259   0.599   0.138   1.184
   85SOL    HW2  260   0.473   0.241   1.191
   86SOL     OW  261   0.866   0.454   0.642
   86SOL    HW1  262   0.834   0.526   0.580
   86SOL    HW2  263   0.890   0.373   0.589
   87SOL     OW  264   1.017   0.039   0.753
   87SOL    HW1  265   0.945   0.044   0.684
   87SOL    HW2  266   0.993  -0.030   0.822
   88SOL     OW  267   1.429   1.173   0.867
   88SOL    HW1  268   1.374   1.089   0.860
   88SOL    HW2  269   1.455   1.202   0.775
   89SOL     OW  270   1.466   0.590   0.992
   89SOL    HW1  271   1.436   0.495   0.999
   89SOL    HW2  272   1.539   0.606   1.058
   90SOL     OW  273   1.857   0.833   0.377
   90SOL    HW1  274   1.899   0.769   0.441
   90SOL    HW2  275   1.819   0.782   0.299
   91SOL     OW  276   0.488   1.385   0.174
   91SOL    HW1  277   0.401   1.370   0.221
   91SOL    HW2  278   0.471   1.411   0.079
   92SOL     OW  279   1.664   1.280   0.657
   92SOL    HW1  280   1.763   1.288   0.671
   92SOL    HW2  281   1.619   1.364   0.688
   93SOL     OW  282   1.390   0.575   0.078
   93SOL    HW1  283   1.336   0.554   0.159
   93SOL    HW2  284   1.481   0.534   0.087
   94SOL     OW  285   0.527   0.256   0.328
   94SOL    HW1  286   0.554   0.197   0.253
   94SOL    HW2  287   0.527   0.351   0.297
   95SOL     OW  288   1.754   1.223   1.588
   95SOL    HW1  289   1.845   1.184   1.575
   95SOL    HW2  290   1.762   1.319   1.612
   96SOL     OW  291   1.064   1.347   1.340
   96SOL    HW1  292   0.984   1.324   1.395
   96SOL    HW2  293   1.147   1.321   1.389
   97SOL     OW  294   1.592   1.629   1.625
   97SOL    HW1  295   1.619   1.663   1.535
   97SOL    HW2  296   1.671   1.591   1.671
   98SOL     OW  297   1.111   1.195   1.100
   98SOL    HW1  298   1.071   1.239   1.181
   98SOL    HW2  299   1.070   1.232   1.017
   99SOL     OW  300   1.638   1.099   1.079
   99SOL    HW1  301   1.643   1.180   1.138
   99SOL    HW2  302   1.552   1.101   1.028
  100SOL     OW  303   0.915   0.089   1.402
  100SOL    HW1  304   0.940   0.069   1.307
  100SOL    HW2  305   0.987   0.145   1.444
  101SOL     OW  306   0.980   1.116   1.719
  101SOL    HW1  307   0.881   1.122   1.729
  101SOL    HW2  308   1.003   1.036   1.663
  102SOL     OW  309   0.705   1.050   0.368
  102SOL    HW1  310   0.691   1.057   0.467
  102SOL    HW2  311   0.789   0.999   0.350
  103SOL     OW  312   0.410   0.813   1.251
  103SOL    HW1  313   0.496   0.825   1.301
  103SOL    HW2  314   0.368   0.726   1.278
  104SOL     OW  315   1.274   0.386   1.262
  104SOL    HW1  316   1.295   0.460   1.326
  104SOL    HW2  317   1.185   0.403   1.219
  105SOL     OW  318   0.064   1.564   1.331
  105SOL    HW1  319   0.018   1.646   1.297
  105SOL    HW2  320   0.162   1.583   1.340
  106SOL     OW  321   0.367   1.100   0.501
  106SOL    HW1  322   0.360   1.183   0.445
  106SOL    HW2  323   0.371   1.020   0.441
  107SOL     OW  324   0.566   0.537   0.865
  107SOL    HW1  325   0.578   0.603   0.791
  107SOL    HW2  326   0.612   0.571   0.948
  108SOL     OW  327   1.252   1.348   0.388
  108SOL    HW1  328   1.302   1.425   0.428
  108SOL    HW2  329   1.157   1.350   0.420
  109SOL     OW  330   1.272   1.445   1.142
  109SOL    HW1  331   1.319   1.458   1.229
  109SOL    HW2  332   1.206   1.371   1.151
  110SOL     OW  333   1.582   0.639   0.472
  110SOL    HW1  334   1.551   0.700   0.545
  110SOL    HW2  335   1.632   0.691   0.403
  111SOL     OW  336   0.354   1.510   1.329
  111SOL    HW1  337   0.333   1.466   1.242
  111SOL    HW2  338   0.451   1.536   1.332
  112SOL     OW  339   0.402   0.751   1.598
  112SOL    HW1  340   0.470   0.806   1.551
  112SOL    HW2  341   0.442   0.663   1.625
  113SOL     OW  342   1.587   0.779   1.670
  113SOL    HW1  343   1.495   0.817   1.665
  113SOL    HW2  344   1.647   0.826   1.605
  114SOL     OW  345   1.013   0.105   1.770
  114SOL    HW1  346   1.019   0.190   1.718
  114SOL    HW2  347   1.045   0.029   1.713
  115SOL     OW  348   0.504   0.050   1.740
  115SOL    HW1  349   0.462  -0.007   1.670
  115SOL    HW2  350   0.438   0.119   1.772
  116SOL     OW  351   0.573   0.870   1.029
  116SOL    HW1  352   0.617   0.959   1.020
  116SOL    HW2  353   0.510   0.870   1.106
  117SOL     OW  354   1.360   0.862   1.045
  117SOL    HW1  355   1.285   0.862   0.979
  117SOL    HW2  356   1.397   0.770   1.054
  118SOL     OW  357   1.209   0.525   0.275
  118SOL    HW1  358   1.222   0.441   0.329
  118SOL    HW2  359   1.180   0.599   0.335
  119SOL     OW  360   0.307   0.213   1.231
  119SOL    HW1  361   0.284   0.250   1.321
  119SOL    HW2  362   0.277   0.118   1.225
  120SOL     OW  363   0.037   1.310   1.282
  120SOL    HW1  364   0.090   1.261   1.350
  120SOL    HW2  365   0.059   1.408   1.287
  121SOL     OW  366   0.732   0.634   1.064
  121SOL    HW1  367   0.791   0.608   0.988
  121SOL    HW2  368   0.704   0.730   1.053
  122SOL     OW  369   1.728   0.935   1.854
  122SOL    HW1  370   1.682   0.928   1.765
  122SOL    HW2  371   1.666   0.979   1.920
  123SOL     OW  372   0.307   0.063   0.618
  123SOL    HW1  373   0.296   0.157   0.651
  123SOL    HW2  374   0.302   0.000   0.695
  124SOL     OW  375   1.622   0.367   0.374
  124SOL    HW1  376   1.624   0.291   0.438
  124SOL    HW2  377   1.574   0.444   0.414
  125SOL     OW  378   1.023   0.766   0.966
  125SOL    HW1  379   1.038   0.787   1.062
  125SOL    HW2  380   0.993   0.671   0.957
  126SOL     OW  381   0.980   1.573   1.700
  126SOL    HW1  382   0.960   1.617   1.612
  126SOL    HW2  383   1.019   1.482   1.684
  127SOL     OW  384   1.859   1.518   1.605
  127SOL    HW1  385   1.873   1.545   1.510
  127SOL    HW2  386   1.942   1.540   1.658
  128SOL     OW  387   0.350   0.898   1.804
  128SOL    HW1  388   0.426   0.942   1.852
  128SOL    HW2  389   0.385   0.851   1.722
  129SOL     OW  390   1.540   0.274   0.125
  129SOL    HW1  391   1.479   0.199   0.148
  129SOL    HW2  392   1.562   0.326   0.208
  130SOL     OW  393   1.303   0.838   0.042
  130SOL    HW1  394   1.337   0.745   0.057
  130SOL    HW2  395   1.321   0.865  -0.053
  131SOL     OW  396   1.068   1.333   0.849
  131SOL    HW1  397   1.075   1.249   0.794
  131SOL    HW2  398   1.130   1.402   0.813
  132SOL     OW  399   0.319   0.810   0.949
  132SOL    HW1  400   0.412   0.846   0.954
  132SOL    HW2  401   0.313   0.725   1.001
  133SOL     OW  402   0.339   0.509   1.006
  133SOL    HW1  403   0.287   0.426   0.989
  133SOL    HW2  404   0.416   0.514   0.942
  134SOL     OW  405   1.138   0.380   1.678
  134SOL    HW1  406   1.093   0.443   1.742
  134SOL    HW2  407   1.231   0.411   1.661
  135SOL     OW  408   1.160   0.207   1.477
  135SOL    HW1  409   1.160   0.271   1.554
  135SOL    HW2  410   1.188   0.255   1.394
  136SOL     OW  411   0.008   1.326   0.200
  136SOL    HW1  412  -0.085   1.347   0.169
  136SOL    HW2  413   0.018   1.227   0.213
  137SOL     OW  414   0.088   1.801   0.927
  137SOL    HW1  415   0.046   1.715   0.900
  137SOL    HW2  416   0.182   1.804   0.893
  138SOL     OW  417   0.504   1.568   0.910
  138SOL    HW1  418   0.570   1.642   0.919
  138SOL    HW2  419   0.548   1.489   0.868
  139SOL     OW  420   1.002   0.796   1.238
  139SOL    HW1  421   1.043   0.764   1.324
  139SOL    HW2  422   0.906   0.769   1.235
  140SOL     OW  423   0.040   0.544   1.114
  140SOL    HW1  424   0.125   0.511   1.073
  140SOL    HW2  425   0.053   0.559   1.212
  141SOL     OW  426   0.189   0.520   1.722
  141SOL    HW1  427   0.248   0.480   1.652
  141SOL    HW2  428   0.131   0.591   1.681
  142SOL     OW  429   1.369   0.950   1.660
  142SOL    HW1  430   1.408   1.039   1.680
  142SOL    HW2  431   1.379   0.930   1.563
  143SOL     OW  432   0.815   0.572   0.325
  143SOL    HW1  433   0.822   0.483   0.279
  143SOL    HW2  434   0.721   0.606   0.317
  144SOL     OW  435   1.657   0.604   1.206
  144SOL    HW1  436   1.619   0.535   1.268
  144SOL    HW2  437   1.739   0.568   1.162
  145SOL     OW  438   0.252   1.564   1.744
  145SOL    HW1  439   0.222   1.621   1.820
  145SOL    HW2  440   0.245   1.467   1.770
  146SOL     OW  441   0.671   0.464   1.269
  146SOL    HW1  442   0.637   0.375   1.239
  146SOL    HW2  443   0.697   0.518   1.189
  147SOL     OW  444   0.930   1.678   1.465
  147SOL    HW1  445   0.906   1.660   1.370
  147SOL    HW2  446   0.960   1.772   1.475
  148SOL     OW  447   0.473   0.500   0.191
  148SOL    HW1  448   0.534   0.580   0.195
  148SOL    HW2  449   0.378   0.531   0.198
  149SOL     OW  450   0.159   1.137   1.466
  149SOL    HW1  451   0.181   1.076   1.542
  149SOL    HW2  452   0.169   1.088   1.380
  150SOL     OW  453   1.347   1.059   1.234
  150SOL    HW1  454   1.371   0.996   1.160
  150SOL    HW2  455   1.257   1.099   1.216
  151SOL     OW  456   1.302   0.855   0.309
  151SOL    HW1  457   1.216   0.824   0.351
  151SOL    HW2  458   1.298   0.841   0.210
  152SOL     OW  459   1.759   1.747   1.154
  152SOL    HW1  460   1.820   1.777   1.081
  152SOL    HW2  461   1.721   1.658   1.132
  153SOL     OW  462   1.252   1.731   1.128
  153SOL    HW1  463   1.336   1.736   1.074
  153SOL    HW2  464   1.229   1.635   1.146
  154SOL     OW  465   0.083   1.258   1.022
  154SOL    HW1  466   0.078   1.257   1.122
  154SOL    HW2  467   0.000   1.217   0.984
  155SOL     OW  468   0.688   1.662   1.716
  155SOL    HW1  469   0.632   1.743   1.725
  155SOL    HW2  470   0.740   1.666   1.630
  156SOL     OW  471   0.903   0.086   0.133
  156SOL    HW1  472   0.954   0.087   0.047
  156SOL    HW2  473   0.959   0.044   0.204
  157SOL     OW  474   1.726   0.135   0.523
  157SOL    HW1  475   1.799   0.118   0.456
  157SOL    HW2  476   1.695   0.048   0.561
  158SOL     OW  477   1.388   1.573   0.477
  158SOL    HW1  478   1.455   1.585   0.403
  158SOL    HW2  479   1.348   1.662   0.500
  159SOL     OW  480   0.130   1.794   1.851
  159SOL    HW1  481   0.089   1.720   1.904
  159SOL    HW2  482   0.194   1.845   1.909
  160SOL     OW  483   1.280   0.927   0.672
  160SOL    HW1  484   1.340   0.846   0.674
  160SOL    HW2  485   1.320   0.996   0.612
  161SOL     OW  486   0.830   1.273   1.422
  161SOL    HW1  487   0.825   1.306   1.517
  161SOL    HW2  488   0.744   1.292   1.376
  162SOL     OW  489   0.672   1.616   0.154
  162SOL    HW1  490   0.681   1.626   0.055
  162SOL    HW2  491   0.632   1.527   0.175
  163SOL     OW  492   1.650   1.720   1.394
  163SOL    HW1  493   1.703   1.730   1.310
  163SOL    HW2  494   1.623   1.810   1.428
  164SOL     OW  495   1.841   0.175   0.963
  164SOL    HW1  496   1.880   0.090   0.927
  164SOL    HW2  497   1.743   0.177   0.944
  165SOL     OW  498   0.263   0.326   0.720
  165SOL    HW1  499   0.184   0.377   0.686
  165SOL    HW2  500   0.254   0.311   0.818
  166SOL     OW  501   1.194   1.612   0.031
  166SOL    HW1  502   1.200   1.519   0.068
  166SOL    HW2  503   1.135   1.612  -0.049
  167SOL     OW  504   0.822   1.002   1.372
  167SOL    HW1  505   0.862   1.001   1.280
  167SOL    HW2  506   0.832   1.094   1.412
  168SOL     OW  507   0.916   0.910   0.291
  168SOL    HW1  508   0.979   0.948   0.223
  168SOL    HW2  509   0.956   0.827   0.330
  169SOL     OW  510   1.504   1.607   0.044
  169SOL    HW1  511   1.412   1.644   0.051
  169SOL    HW2  512   1.542   1.627  -0.046
  170SOL     OW  513   0.372   1.288   1.490
  170SOL    HW1  514   0.359   1.381   1.456
  170SOL    HW2  515   0.288   1.236   1.477
  171SOL     OW  516   1.614   1.292   1.289
  171SOL    HW1  517   1.674   1.295   1.369
  171SOL    HW2  518   1.539   1.356   1.302
  172SOL     OW  519   1.039   1.098   0.696
  172SOL    HW1  520   0.969   1.051   0.750
  172SOL    HW2  521   1.098   1.030   0.653
  173SOL     OW  522   1.014   0.236   0.971
  173SOL    HW1  523   1.006   0.200   0.878
  173SOL    HW2  524   1.012   0.160   1.036
  174SOL     OW  525   0.590   1.487   0.491
  174SOL    HW1  526   0.632   1.429   0.421
  174SOL    HW2  527   0.546   1.566   0.447
  175SOL     OW  528   1.709   0.385   1.381
  175SOL    HW1  529   1.782   0.454   1.385
  175SOL    HW2  530   1.737   0.310   1.322
  176SOL     OW  531   0.255   1.348   0.290
  176SOL    HW1  532   0.159   1.349   0.263
  176SOL    HW2  533   0.267   1.401   0.374
  177SOL     OW  534   0.105   1.013   1.726
  177SOL    HW1  535   0.028   0.980   1.780
  177SOL    HW2  536   0.190   0.983   1.768
  178SOL     OW  537   0.672   0.203   1.489
  178SOL    HW1  538   0.762   0.187   1.449
  178SOL    HW2  539   0.680   0.208   1.588
  179SOL     OW  540   0.075   0.345   0.033
  179SOL    HW1  541  -0.017   0.317   0.004
  179SOL    HW2  542   0.106   0.422  -0.023
  180SOL     OW  543   1.440   0.856   1.398
  180SOL    HW1  544   1.383   0.908   1.335
  180SOL    HW2  545   1.536   0.868   1.374
  181SOL     OW  546   0.072   0.166   0.318
  181SOL    HW1  547   0.055   0.249   0.264
  181SOL    HW2  548   0.162   0.129   0.296
  182SOL     OW  549   1.183   1.335   0.119
  182SOL    HW1  550   1.084   1.324   0.121
  182SOL    HW2  551   1.217   1.350   0.212
  183SOL     OW  552   0.613   0.842   1.431
  183SOL    HW1  553   0.669   0.923   1.414
  183SOL    HW2  554   0.672   0.762   1.434
  184SOL     OW  555   1.493   1.767   0.959
  184SOL    HW1  556   1.526   1.831   0.890
  184SOL    HW2  557   1.559   1.761   1.034
  185SOL     OW  558   0.716   0.565   1.708
  185SOL    HW1  559   0.735   0.630   1.782
  185SOL    HW2  560   0.776   0.485   1.717
  186SOL     OW  561   1.450   1.220   1.633
  186SOL    HW1  562   1.441   1.210   1.732
  186SOL    HW2  563   1.546   1.213   1.607
  187SOL     OW  564   0.390   1.741   1.560
  187SOL    HW1  565   0.299   1.782   1.558
  187SOL    HW2  566   0.383   1.647   1.592
  188SOL     OW  567   1.674   0.883   1.254
  188SOL    HW1  568   1.647   0.794   1.217
  188SOL    HW2  569   1.675   0.951   1.181
  189SOL     OW  570   1.225   0.325   0.449
  189SOL    HW1  571   1.290   0.251   0.438
  189SOL    HW2  572   1.245   0.375   0.533
  190SOL     OW  573   0.594   0.745   0.652
  190SOL    HW1  574   0.644   0.830   0.633
  190SOL    HW2  575   0.506   0.747   0.604
  191SOL     OW  576   1.777   0.342   1.642
  191SOL    HW1  577   1.760   0.373   1.548
  191SOL    HW2  578   1.693   0.305   1.680
  192SOL     OW  579   1.730   0.934   1.517
  192SOL    HW1  580   1.768   1.025   1.532
  192SOL    HW2  581   1.722   0.917   1.418
  193SOL     OW  582   0.859   1.374   0.016
  193SOL    HW1  583   0.813   1.389   0.104
  193SOL    HW2  584   0.903   1.459  -0.014
  194SOL     OW  585   0.661   1.790   0.953
  194SOL    HW1  586   0.615   1.878   0.940
  194SOL    HW2  587   0.760   1.802   0.946
  195SOL     OW  588   0.859   0.956   0.861
  195SOL    HW1  589   0.913   0.887   0.909
  195SOL    HW2  590   0.827   1.025   0.927
  196SOL     OW  591   1.083   0.984   0.087
  196SOL    HW1  592   1.060   1.037   0.005
  196SOL    HW2  593   1.164   0.928   0.068
  197SOL     OW  594   1.861   1.569   0.851
  197SOL    HW1  595   1.790   1.557   0.781
  197SOL    HW2  596   1.862   1.490   0.911
  198SOL     OW  597   0.221   1.314   1.844
  198SOL    HW1  598   0.156   1.241   1.823
  198SOL    HW2  599   0.225   1.328   1.942
  199SOL     OW  600   0.079   1.240   0.653
  199SOL    HW1  601   0.078   1.193   0.741
  199SOL    HW2  602   0.161   1.212   0.602
  200SOL     OW  603   0.672   1.391   1.624
  200SOL    HW1  604   0.594   1.341   1.662
  200SOL    HW2  605   0.669   1.486   1.655
  201SOL     OW  606   1.824   0.192   1.227
  201SOL    HW1  607   1.820   0.102   1.271
  201SOL    HW2  608   1.827   0.181   1.128
  202SOL     OW  609   0.428   0.424   0.520
  202SOL    HW1  610   0.458   0.352   0.458
  202SOL    HW2  611   0.389   0.384   0.603
  203SOL     OW  612   1.705   1.487   1.104
  203SOL    HW1  613   1.612   1.462   1.077
  203SOL    HW2  614   1.731   1.437   1.186
  204SOL     OW  615   0.317   0.547   1.280
  204SOL    HW1  616   0.355   0.488   1.352
  204SOL    HW2  617   0.357   0.521   1.192
  205SOL     OW  618   0.812   1.586   0.687
  205SOL    HW1  619   0.844   1.596   0.593
  205SOL    HW2  620   0.733   1.524   0.689
  206SOL     OW  621   1.424   0.214   1.112
  206SOL    HW1  622   1.476   0.149   1.167
  206SOL    HW2  623   1.375   0.277   1.173
  207SOL     OW  624   1.001   0.034   1.154
  207SOL    HW1  625   0.938  -0.038   1.123
  207SOL    HW2  626   1.094  -0.002   1.154
  208SOL     OW  627   0.770   1.330   0.301
  208SOL    HW1  628   0.724   1.243   0.318
  208SOL    HW2  629   0.861   1.327   0.342
  209SOL     OW  630   0.618   1.567   1.284
  209SOL    HW1  631   0.613   1.649   1.341
  209SOL    HW2  632   0.707   1.564   1.239
  210SOL     OW  633   1.352   0.052   0.168
  210SOL    HW1  634   1.387   0.011   0.084
  210SOL    HW2  635   1.262   0.014   0.188
  211SOL     OW  636   1.300   0.453   0.691
  211SOL    HW1  637   1.241   0.533   0.695
  211SOL    HW2  638   1.315   0.418   0.784
  212SOL     OW  639   1.593   0.221   0.882
  212SOL    HW1  640   1.509   0.220   0.936
  212SOL    HW2  641   1.595   0.304   0.826
  213SOL     OW  642   0.039   1.077   0.300
  213SOL    HW1  643   0.138   1.066   0.291
  213SOL    HW2  644  -0.001   0.991   0.332
  214SOL     OW  645   0.875   1.646   0.337
  214SOL    HW1  646   0.798   1.611   0.283
  214SOL    HW2  647   0.843   1.717   0.399
  215SOL     OW  648   0.230   0.628   1.975
  215SOL    HW1  649   0.137   0.626   2.012
  215SOL    HW2  650   0.231   0.589   1.883
  216SOL     OW  651   0.225   0.275   2.858
  216SOL    HW1  652   0.260   0.258   2.950
  216SOL    HW2  653   0.137   0.230   2.846
  217SOL     OW  654   0.019   0.368   2.509
  217SOL    HW1  655  -0.063   0.411   2.548
  217SOL    HW2  656  -0.009   0.295   2.446
  218SOL     OW  657   0.569   1.275   3.027
  218SOL    HW1  658   0.476   1.268   2.990
  218SOL    HW2  659   0.580   1.364   3.071
  219SOL     OW  660   1.555   1.511   2.565
  219SOL    HW1  661   1.498   1.495   2.646
  219SOL    HW2  662   1.496   1.521   2.485
  220SOL     OW  663   1.135   0.703   2.579
  220SOL    HW1  664   1.192   0.781   2.554
  220SOL    HW2  665   1.075   0.729   2.655
  221SOL     OW  666   1.755   0.607   2.093
  221SOL    HW1  667   1.743   0.594   1.994
  221SOL    HW2  668   1.725   0.526   2.142
  222SOL     OW  669   0.768   1.144   2.885
  222SOL    HW1  670   0.690   1.161   2.945
  222SOL    HW2  671   0.802   1.231   2.849
  223SOL     OW  672   0.850   0.798   3.685
  223SOL    HW1  673   0.846   0.874   3.750
  223SOL    HW2  674   0.872   0.834   3.594
  224SOL     OW  675   0.685   1.012   2.527
  224SOL    HW1  676   0.754   0.996   2.597
  224SOL    HW2  677   0.612   1.069   2.565
  225SOL     OW  678   0.686   1.161   3.665
  225SOL    HW1  679   0.746   1.240   3.679
  225SOL    HW2  680   0.600   1.192   3.624
  226SOL     OW  681   0.335   1.435   2.923
  226SOL    HW1  682   0.257   1.404   2.870
  226SOL    HW2  683   0.393   1.493   2.866
  227SOL     OW  684   1.460   1.505   3.201
  227SOL    HW1  685   1.484   1.599   3.227
  227SOL    HW2  686   1.444   1.451   3.283
  228SOL     OW  687   0.438   0.392   3.361
  228SOL    HW1  688   0.520   0.336   3.370
  228SOL    HW2  689   0.357   0.334   3.365
  229SOL     OW  690   1.603   0.447   2.599
  229SOL    HW1  691   1.529   0.493   2.549
  229SOL    HW2  692   1.654   0.515   2.652
  230SOL     OW  693   0.231   1.713   2.345
  230SOL    HW1  694   0.265   1.790   2.399
  230SOL    HW2  695   0.275   1.713   2.255
  231SOL     OW  696   1.127   1.341   3.552
  231SOL    HW1  697   1.174   1.341   3.640
  231SOL    HW2  698   1.079   1.254   3.541
  232SOL     OW  699   0.230   1.434   2.400
  232SOL    HW1  700   0.204   1.530   2.400
  232SOL    HW2  701   0.159   1.380   2.445
  233SOL     OW  702   0.240   1.091   2.748
  233SOL    HW1  703   0.254   1.007   2.800
  233SOL    HW2  704   0.185   1.155   2.803
  234SOL     OW  705   0.620   1.786   3.301
  234SOL    HW1  706   0.528   1.769   3.336
  234SOL    HW2  707   0.648   1.878   3.327
  235SOL     OW  708   0.606   0.964   1.985
  235SOL    HW1  709   0.613   1.048   1.931
  235SOL    HW2  710   0.652   0.977   2.073
  236SOL     OW  711   1.594   0.114   3.342
  236SOL    HW1  712   1.576   0.181   3.270
  236SOL    HW2  713   1.591   0.160   3.431
  237SOL     OW  714   0.122   0.643   2.425
  237SOL    HW1  715   0.077   0.555   2.442
  237SOL    HW2  716   0.121   0.697   2.509
  238SOL     OW  717   1.842   1.767   2.221
  238SOL    HW1  718   1.896   1.738   2.301
  238SOL    HW2  719   1.872   1.857   2.192
  239SOL     OW  720   0.027   1.596   1.979
  239SOL    HW1  721   0.008   1.500   2.000
  239SOL    HW2  722  -0.006   1.654   2.054
  240SOL     OW  723   1.689   0.922   2.474
  240SOL    HW1  724   1.784   0.893   2.482
  240SOL    HW2  725   1.681   0.987   2.399
  241SOL     OW  726   1.641   1.108   2.294
  241SOL    HW1  727   1.727   1.110   2.242
  241SOL    HW2  728   1.655   1.155   2.382
  242SOL     OW  729   0.113   0.737   3.459
  242SOL    HW1  730   0.201   0.724   3.504
  242SOL    HW2  731   0.100   0.834   3.437
  243SOL     OW  732   0.613   1.365   2.588
  243SOL    HW1  733   0.564   1.278   2.597
  243SOL    HW2  734   0.590   1.408   2.501
  244SOL     OW  735   1.293   1.228   3.285
  244SOL    HW1  736   1.330   1.155   3.227
  244SOL    HW2  737   1.345   1.233   3.370
  245SOL     OW  738   0.809   0.004   2.364
  245SOL    HW1  739   0.849   0.095   2.355
  245SOL    HW2  740   0.709   0.012   2.370
  246SOL     OW  741   0.197   0.976   3.126
  246SOL    HW1  742   0.286   0.931   3.112
  246SOL    HW2  743   0.124   0.911   3.107
  247SOL     OW  744   1.525   0.999   2.052
  247SOL    HW1  745   1.462   0.923   2.065
  247SOL    HW2  746   1.573   1.017   2.138
  248SOL     OW  747   1.187   1.792   3.478
  248SOL    HW1  748   1.211   1.852   3.402
  248SOL    HW2  749   1.194   1.697   3.448
  249SOL     OW  750   0.317   0.251   3.663
  249SOL    HW1  751   0.388   0.322   3.669
  249SOL    HW2  752   0.229   0.290   3.691
  250SOL     OW  753   1.466   1.417   2.815
  250SOL    HW1  754   1.407   1.423   2.895
  250SOL    HW2  755   1.451   1.329   2.769
  251SOL     OW  756   1.667   1.714   2.434
  251SOL    HW1  757   1.626   1.691   2.346
  251SOL    HW2  758   1.649   1.640   2.499
  252SOL     OW  759   0.598   0.729   2.132
  252SOL    HW1  760   0.622   0.798   2.064
  252SOL    HW2  761   0.520   0.762   2.186
  253SOL     OW  762   1.281   0.345   2.806
  253SOL    HW1  763   1.195   0.295   2.793
  253SOL    HW2  764   1.343   0.291   2.862
  254SOL     OW  765   1.576   1.662   2.169
  254SOL    HW1  766   1.665   1.708   2.172
  254SOL    HW2  767   1.555   1.638   2.074
  255SOL     OW  768   0.807   0.605   3.327
  255SOL    HW1  769   0.760   0.602   3.416
  255SOL    HW2  770   0.756   0.550   3.261
  256SOL     OW  771   1.394   0.469   3.536
  256SOL    HW1  772   1.374   0.512   3.624
  256SOL    HW2  773   1.472   0.407   3.545
  257SOL     OW  774   0.973   0.890   3.434
  257SOL    HW1  775   1.019   0.806   3.405
  257SOL    HW2  776   0.917   0.924   3.359
  258SOL     OW  777   0.991   0.410   3.104
  258SOL    HW1  778   0.914   0.444   3.158
  258SOL    HW2  779   0.957   0.359   3.025
  259SOL     OW  780   1.041   0.701   2.291
  259SOL    HW1  781   1.067   0.697   2.387
  259SOL    HW2  782   0.956   0.650   2.277
  260SOL     OW  783   0.076   0.811   2.651
  260SOL    HW1  784   0.175   0.799   2.660
  260SOL    HW2  785   0.052   0.906   2.672
  261SOL     OW  786   0.130   1.821   3.433
  261SOL    HW1  787   0.120   1.806   3.532
  261SOL    HW2  788   0.044   1.857   3.397
  262SOL     OW  789   0.865   0.348   2.057
  262SOL    HW1  790   0.924   0.411   2.008
  262SOL    HW2  791   0.884   0.254   2.028
  263SOL     OW  792   1.719   0.585   3.693
  263SOL    HW1  793   1.693   0.674   3.657
  263SOL    HW2  794   1.717   0.517   3.620
  264SOL     OW  795   1.362   1.144   2.407
  264SOL    HW1  796   1.445   1.115   2.359
  264SOL    HW2  797   1.313   1.211   2.351
  265SOL     OW  798   0.550   0.196   2.747
  265SOL    HW1  799   0.545   0.191   2.847
  265SOL    HW2  800   0.552   0.292   2.718
  266SOL     OW  801   1.008   1.456   2.339
  266SOL    HW1  802   0.962   1.528   2.287
  266SOL    HW2  803   1.004   1.476   2.437
  267SOL     OW  804   0.351   1.801   2.715
  267SOL    HW1  805   0.401   1.715   2.721
  267SOL    HW2  806   0.416   1.878   2.712
  268SOL     OW  807   1.795   1.066   2.735
  268SOL    HW1  808   1.733   1.051   2.659
  268SOL    HW2  809   1.743   1.077   2.820
  269SOL     OW  810   1.227   1.550   3.368
  269SOL    HW1  811   1.233   1.473   3.432
  269SOL    HW2  812   1.175   1.524   3.288
  270SOL     OW  813   0.321   0.943   2.104
  270SOL    HW1  814   0.403   0.982   2.062
  270SOL    HW2  815   0.294   0.861   2.055
  271SOL     OW  816   1.458   0.735   2.590
  271SOL    HW1  817   1.453   0.670   2.665
  271SOL    HW2  818   1.538   0.794   2.603
  272SOL     OW  819   0.461   1.266   3.589
  272SOL    HW1  820   0.411   1.267   3.503
  272SOL    HW2  821   0.398   1.248   3.665
  273SOL     OW  822   1.111   1.776   2.099
  273SOL    HW1  823   1.051   1.714   2.149
  273SOL    HW2  824   1.142   1.732   2.014
  274SOL     OW  825   0.202   0.285   3.360
  274SOL    HW1  826   0.122   0.345   3.347
  274SOL    HW2  827   0.192   0.236   3.446
  275SOL     OW  828   1.632   1.377   1.943
  275SOL    HW1  829   1.600   1.471   1.933
  275SOL    HW2  830   1.556   1.314   1.931
  276SOL     OW  831   0.464   1.743   2.185
  276SOL    HW1  832   0.497   1.782   2.271
  276SOL    HW2  833   0.540   1.736   2.120
  277SOL     OW  834   1.400   0.107   2.288
  277SOL    HW1  835   1.376   0.070   2.198
  277SOL    HW2  836   1.499   0.123   2.292
  278SOL     OW  837   0.249   1.785   3.103
  278SOL    HW1  838   0.306   1.720   3.153
  278SOL    HW2  839   0.233   1.752   3.010
  279SOL     OW  840   0.940   1.698   2.766
  279SOL    HW1  841   1.020   1.641   2.787
  279SOL    HW2  842   0.891   1.658   2.689
  280SOL     OW  843   0.382   0.700   2.342
  280SOL    HW1  844   0.427   0.610   2.339
  280SOL    HW2  845   0.288   0.689   2.375
  281SOL     OW  846   1.547   0.222   3.591
  281SOL    HW1  847   1.542   0.259   3.683
  281SOL    HW2  848   1.475   0.153   3.579
  282SOL     OW  849   0.614   0.122   1.979
  282SOL    HW1  850   0.712   0.100   1.986
  282SOL    HW2  851   0.583   0.105   1.886
  283SOL     OW  852   0.781   0.264   3.611
  283SOL    HW1  853   0.848   0.203   3.654
  283SOL    HW2  854   0.708   0.283   3.676
  284SOL     OW  855   0.888   1.514   3.057
  284SOL    HW1  856   0.865   1.489   2.963
  284SOL    HW2  857   0.949   1.445   3.096
  285SOL     OW  858   1.351   0.590   3.295
  285SOL    HW1  859   1.379   0.547   3.380
  285SOL    HW2  860   1.376   0.686   3.296
  286SOL     OW  861   0.803   1.402   2.786
  286SOL    HW1  862   0.893   1.416   2.744
  286SOL    HW2  863   0.732   1.404   2.715
  287SOL     OW  864   0.922   0.503   2.761
  287SOL    HW1  865   0.897   0.494   2.665
  287SOL    HW2  866   0.970   0.421   2.792
  288SOL     OW  867   0.539   0.064   2.374
  288SOL    HW1  868   0.458   0.065   2.432
  288SOL    HW2  869   0.542   0.147   2.319
  289SOL     OW  870   1.434   1.188   1.903
  289SOL    HW1  871   1.466   1.112   1.960
  289SOL    HW2  872   1.342   1.215   1.933
  290SOL     OW  873   0.297   0.035   2.033
  290SOL    HW1  874   0.346   0.119   2.012
  290SOL    HW2  875   0.359  -0.030   2.078
  291SOL     OW  876   0.935   0.236   2.342
  291SOL    HW1  877   0.887   0.277   2.264
  291SOL    HW2  878   1.034   0.234   2.323
  292SOL     OW  879   1.076   0.683   3.326
  292SOL    HW1  880   0.996   0.622   3.329
  292SOL    HW2  881   1.157   0.630   3.302
  293SOL     OW  882   1.227   1.570   2.655
  293SOL    HW1  883   1.248   1.644   2.590
  293SOL    HW2  884   1.295   1.570   2.728
  294SOL     OW  885   0.459   1.152   2.603
  294SOL    HW1  886   0.388   1.125   2.668
  294SOL    HW2  887   0.433   1.124   2.510
  295SOL     OW  888   1.271   1.797   2.453
  295SOL    HW1  889   1.315   1.861   2.389
  295SOL    HW2  890   1.221   1.849   2.523
  296SOL     OW  891   1.032   0.549   1.878
  296SOL    HW1  892   0.991   0.631   1.839
  296SOL    HW2  893   1.096   0.575   1.951
  297SOL     OW  894   0.078   0.556   3.248
  297SOL    HW1  895   0.170   0.555   3.207
  297SOL    HW2  896   0.072   0.630   3.315
  298SOL     OW  897   0.561   0.222   3.009
  298SOL    HW1  898   0.599   0.138   3.046
  298SOL    HW2  899   0.473   0.241   3.053
  299SOL     OW  900   0.866   0.454   2.504
  299SOL    HW1  901   0.834   0.526   2.442
  299SOL    HW2  902   0.890   0.373   2.451
  300SOL     OW  903   1.017   0.039   2.615
  300SOL    HW1  904   0.945   0.044   2.546
  300SOL    HW2  905   0.993  -0.030   2.684
  301SOL     OW  906   1.429   1.173   2.729
  301SOL    HW1  907   1.374   1.089   2.722
  301SOL    HW2  908   1.455   1.202   2.637
  302SOL     OW  909   1.466   0.590   2.854
  302SOL    HW1  910   1.436   0.495   2.861
  302SOL    HW2  911   1.539   0.606   2.920
  303SOL     OW  912   1.857   0.833   2.239
  303SOL    HW1  913   1.899   0.769   2.303
  303SOL    HW2  914   1.819   0.782   2.161
  304SOL     OW  915   0.488   1.385   2.036
  304SOL    HW1  916   0.401   1.370   2.083
  304SOL    HW2  917   0.471   1.411   1.941
  305SOL     OW  918   1.664   1.280   2.519
  305SOL    HW1  919   1.763   1.288   2.533
  305SOL    HW2  920   1.619   1.364   2.550
  306SOL     OW  921   1.390   0.575   1.940
  306SOL    HW1  922   1.336   0.554   2.021
  306SOL    HW2  923   1.481   0.534   1.949
  307SOL     OW  924   0.527   0.256   2.190
  307SOL    HW1  925   0.554   0.197   2.115
  307SOL    HW2  926   0.527   0.351   2.159
  308SOL     OW  927   1.754   1.223   3.450
  308SOL    HW1  928   1.845   1.184   3.437
  308SOL    HW2  929   1.762   1.319   3.474
  309SOL     OW  930   1.064   1.347   3.202
  309SOL    HW1  931   0.984   1.324   3.257
  309SOL    HW2  932   1.147   1.321   3.251
  310SOL     OW  933   1.592   1.629   3.487
  310SOL    HW1  934   1.619   1.663   3.397
  310SOL    HW2  935   1.671   1.591   3.533
  311SOL     OW  936   1.111   1.195   2.962
  311SOL    HW1  937   1.071   1.239   3.043
  311SOL    HW2  938   1.070   1.232   2.879
  312SOL     OW  939   1.638   1.099   2.941
  312SOL    HW1  940   1.643   1.180   3.000
  312SOL    HW2  941   1.552   1.101   2.890
  313SOL     OW  942   0.915   0.089   3.264
  313SOL    HW1  943   0.940   0.069   3.169
  313SOL    HW2  944   0.987   0.145   3.306
  314SOL     OW  945   0.980   1.116   3.581
  314SOL    HW1  946   0.881   1.122   3.591
  314SOL    HW2  947   1.003   1.036   3.525
  315SOL     OW  948   0.705   1.050   2.230
  315SOL    HW1  949   0.691   1.057   2.329
  315SOL    HW2  950   0.789   0.999   2.212
  316SOL     OW  951   0.410   0.813   3.113
  316SOL    HW1  952   0.496   0.825   3.163
  316SOL    HW2  953   0.368   0.726   3.140
  317SOL     OW  954   1.274   0.386   3.124
  317SOL    HW1  955   1.295   0.460   3.188
  317SOL    HW2  956   1.185   0.403   3.081
  318SOL     OW  957   0.064   1.564   3.193
  318SOL    HW1  958   0.018   1.646   3.159
  318SOL    HW2  959   0.162   1.583   3.202
  319SOL     OW  960   0.367   1.100   2.363
  319SOL    HW1  961   0.360   1.183   2.307
  319SOL    HW2  962   0.371   1.020   2.303
  320SOL     OW  963   0.566   0.537   2.727
  320SOL    HW1  964   0.578   0.603   2.653
  320SOL    HW2  965   0.612   0.571   2.810
  321SOL     OW  966   1.252   1.348   2.250
  321SOL    HW1  967   1.302   1.425   2.290
  321SOL    HW2  968   1.157   1.350   2.282
  322SOL     OW  969   1.272   1.445   3.004
  322SOL    HW1  970   1.319   1.458   3.091
  322SOL    HW2  971   1.206   1.371   3.013
  323SOL     OW  972   1.582   0.639   2.334
  323SOL    HW1  973   1.551   0.700   2.407
  323SOL    HW2  974   1.632   0.691   2.265
  324SOL     OW  975   0.354   1.510   3.191
  324SOL    HW1  976   0.333   1.466   3.104
  324SOL    HW2  977   0.451   1.536   3.194
  325SOL     OW  978   0.402   0.751   3.460
  325SOL    HW1  979   0.470   0.806   3.413
  325SOL    HW2  980   0.442   0.663   3.487
  326SOL     OW  981   1.587   0.779   3.532
  326SOL    HW1  982   1.495   0.817   3.527
  326SOL    HW2  983   1.647   0.826   3.467
  327SOL     OW  984   1.013   0.105   3.632
  327SOL    HW1  985   1.019   0.190   3.580
  327SOL    HW2  986   1.045   0.029   3.575
  328SOL     OW  987   0.504   0.050   3.602
  328SOL    HW1  988   0.462  -0.007   3.532
  328SOL    HW2  989   0.438   0.119   3.634
  329SOL     OW  990   0.573   0.870   2.891
  329SOL    HW1  991   0.617   0.959   2.882
  329SOL    HW2  992   0.510   0.870   2.968
  330SOL     OW  993   1.360   0.862   2.907
  330SOL    HW1  994   1.285   0.862   2.841
  330SOL    HW2  995   1.397   0.770   2.916
  331SOL     OW  996   1.209   0.525   2.137
  331SOL    HW1  997   1.222   0.441   2.191
  331SOL    HW2  998   1.180   0.599   2.197
  332SOL     OW  999   0.307   0.213   3.093
  332SOL    HW1 1000   0.284   0.250   3.183
  332SOL    HW2 1001   0.277   0.118   3.087
  333SOL     OW 1002   0.037   1.310   3.144
  333SOL    HW1 1003   0.090   1.261   3.212
  333SOL    HW2 1004   0.059   1.408   3.149
  334SOL     OW 1005   0.732   0.634   2.926
  334SOL    HW1 1006   0.791   0.608   2.850
  334SOL    HW2 1007   0.704   0.730   2.915
  335SOL     OW 1008   1.728   0.935   3.716
  335SOL    HW1 1009   1.682   0.928   3.627
  335SOL    HW2 1010   1.666   0.979   3.782
  336SOL     OW 1011   0.307   0.063   2.480
  336SOL    HW1 1012   0.296   0.157   2.513
  336SOL    HW2 1013   0.302   0.000   2.557
  337SOL     OW 1014   1.622   0.367   2.236
  337SOL    HW1 1015   1.624   0.291   2.300
  337SOL    HW2 1016   1.574   0.444   2.276
  338SOL     OW 1017   1.023   0.766   2.828
  338SOL    HW1 1018   1.038   0.787   2.924
  338SOL    HW2 1019   0.993   0.671   2.819
  339SOL     OW 1020   0.980   1.573   3.562
  339SOL    HW1 1021   0.960   1.617   3.474
  339SOL    HW2 1022   1.019   1.482   3.546
  340SOL     OW 1023   1.859   1.518   3.467
  340SOL    HW1 1024   1.873   1.545   3.372
  340SOL    HW2 1025   1.942   1.540   3.520
  341SOL     OW 1026   0.350   0.898   3.666
  341SOL    HW1 1027   0.426   0.942   3.714
  341SOL    HW2 1028   0.385   0.851   3.584
  342SOL     OW 1029   1.540   0.274   1.987
  342SOL    HW1 1030   1.479   0.199   2.010
  342SOL    HW2 1031   1.562   0.326   2.070
  343SOL     OW 1032   1.303   0.838   1.904
  343SOL    HW1 1033   1.337   0.745   1.919
  343SOL    HW2 1034   1.321   0.865   1.809
  344SOL     OW 1035   1.068   1.333   2.711
  344SOL    HW1 1036   1.075   1.249   2.656
  344SOL    HW2 1037   1.130   1.402   2.675
  345SOL     OW 1038   0.319   0.810   2.811
  345SOL    HW1 1039   0.412   0.846   2.816
  345SOL    HW2 1040   0.313   0.725   2.863
  346SOL     OW 1041   0.339   0.509   2.868
  346SOL    HW1 1042   0.287   0.426   2.851
  346SOL    HW2 1043   0.416   0.514   2.804
  347SOL     OW 1044   1.138   0.380   3.540
  347SOL    HW1 1045   1.093   0.443   3.604
  347SOL    HW2 1046   1.231   0.411   3.523
  348SOL     OW 1047   1.160   0.207   3.339
  348SOL    HW1 1048   1.160   0.271   3.416
  348SOL    HW2 1049   1.188   0.255   3.256
  349SOL     OW 1050   0.008   1.326   2.062
  349SOL    HW1 1051  -0.085   1.347   2.031
  349SOL    HW2 1052   0.018   1.227   2.075
  350SOL     OW 1053   0.088   1.801   2.789
  350SOL    HW1 1054   0.046   1.715   2.762
  350SOL    HW2 1055   0.182   1.804   2.755
  351SOL     OW 1056   0.504   1.568   2.772
  351SOL    HW1 1057   0.570   1.642   2.781
  351SOL    HW2 1058   0.548   1.489   2.730
  352SOL     OW 1059   1.002   0.796   3.100
  352SOL    HW1 1060   1.043   0.764   3.186
  352SOL    HW2 1061   0.906   0.769   3.097
  353SOL     OW 1062   0.040   0.544   2.976
  353SOL    HW1 1063   0.125   0.511   2.935
  353SOL    HW2 1064   0.053   0.559   3.074
  354SOL     OW 1065   0.189   0.520   3.584
  354SOL    HW1 1066   0.248   0.480   3.514
  354SOL    HW2 1067   0.131   0.591   3.543
  355SOL     OW 1068   1.369   0.950   3.522
  355SOL    HW1 1069   1.408   1.039   3.542
  355SOL    HW2 1070   1.379   0.930   3.425
  356SOL     OW 1071   0.815   0.572   2.187
  356SOL    HW1 1072   0.822   0.483   2.141
  356SOL    HW2 1073   0.721   0.606   2.179
  357SOL     OW 1074   1.657   0.604   3.068
  357SOL    HW1 1075   1.619   0.535   3.130
  357SOL    HW2 1076   1.739   0.568   3.024
  358SOL     OW 1077   0.252   1.564   3.606
  358SOL    HW1 1078   0.222   1.621   3.682
  358SOL    HW2 1079   0.245   1.467   3.632
  359SOL     OW 1080   0.671   0.464   3.131
  359SOL    HW1 1081   0.637   0.375   3.101
  359SOL    HW2 1082   0.697   0.518   3.051
  360SOL     OW 1083   0.930   1.678   3.327
  360SOL    HW1 1084   0.906   1.660   3.232
  360SOL    HW2 1085   0.960   1.772   3.337
  361SOL     OW 1086   0.473   0.500   2.053
  361SOL    HW1 1087   0.534   0.580   2.057
  361SOL    HW2 1088   0.378   0.531   2.060
  362SOL     OW 1089   0.159   1.137   3.328
  362SOL    HW1 1090   0.181   1.076   3.404
  362SOL    HW2 1091   0.169   1.088   3.242
  363SOL     OW 1092   1.347   1.059   3.096
  363SOL    HW1 1093   1.371   0.996   3.022
  363SOL    HW2 1094   1.257   1.099   3.078
  364SOL     OW 1095   1.302   0.855   2.171
  364SOL    HW1 1096   1.216   0.824   2.213
  364SOL    HW2 1097   1.298   0.841   2.072
  365SOL     OW 1098   1.759   1.747   3.016
  365SOL    HW1 1099   1.820   1.777   2.943
  365SOL    HW2 1100   1.721   1.658   2.994
  366SOL     OW 1101   1.252   1.731   2.990
  366SOL    HW1 1102   1.336   1.736   2.936
  366SOL    HW2 1103   1.229   1.635   3.008
  367SOL     OW 1104   0.083   1.258   2.884
  367SOL    HW1 1105   0.078   1.257   2.984
  367SOL    HW2 1106   0.000   1.217   2.846
  368SOL     OW 1107   0.688   1.662   3.578
  368SOL    HW1 1108   0.632   1.743   3.587
  368SOL    HW2 1109   0.740   1.666   3.492
  369SOL     OW 1110   1.726   0.135   2.385
  369SOL    HW1 1111   1.799   0.118   2.318
  369SOL    HW2 1112   1.695   0.048   2.423
  370SOL     OW 1113   1.388   1.573   2.339
  370SOL    HW1 1114   1.455   1.585   2.265
  370SOL    HW2 1115   1.348   1.662   2.362
  371SOL     OW 1116   0.130   1.794   3.713
  371SOL    HW1 1117   0.089   1.720   3.766
  371SOL    HW2 1118   0.194   1.845   3.771
  372SOL     OW 1119   1.280   0.927   2.534
  372SOL    HW1 1120   1.340   0.846   2.536
  372SOL    HW2 1121   1.320   0.996   2.474
  373SOL     OW 1122   0.830   1.273   3.284
  373SOL    HW1 1123   0.825   1.306   3.379
  373SOL    HW2 1124   0.744   1.292   3.238
  374SOL     OW 1125   0.672   1.616   2.016
  374SOL    HW1 1126   0.681   1.626   1.917
  374SOL    HW2 1127   0.632   1.527   2.037
  375SOL     OW 1128   1.650   1.720   3.256
  375SOL    HW1 1129   1.703   1.730   3.172
  375SOL    HW2 1130   1.623   1.810   3.290
  376SOL     OW 1131   1.841   0.175   2.825
  376SOL    HW1 1132   1.880   0.090   2.789
  376SOL    HW2 1133   1.743   0.177   2.806
  377SOL     OW 1134   0.263   0.326   2.582
  377SOL    HW1 1135   0.184   0.377   2.548
  377SOL    HW2 1136   0.254   0.311   2.680
  378SOL     OW 1137   1.194   1.612   1.893
  378SOL    HW1 1138   1.200   1.519   1.930
  378SOL    HW2 1139   1.135   1.612   1.813
  379SOL     OW 1140   0.822   1.002   3.234
  379SOL    HW1 1141   0.862   1.001   3.142
  379SOL    HW2 1142   0.832   1.094   3.274
  380SOL     OW 1143   0.916   0.910   2.153
  380SOL    HW1 1144   0.979   0.948   2.085
  380SOL    HW2 1145   0.956   0.827   2.192
  381SOL     OW 1146   1.504   1.607   1.906
  381SOL    HW1 1147   1.412   1.644   1.913
  381SOL    HW2 1148   1.542   1.627   1.816
  382SOL     OW 1149   0.372   1.288   3.352
  382SOL    HW1 1150   0.359   1.381   3.318
  382SOL    HW2 1151   0.288   1.236   3.339
  383SOL     OW 1152   1.614   1.292   3.151
  383SOL    HW1 1153   1.674   1.295   3.231
  383SOL    HW2 1154   1.539   1.356   3.164
  384SOL     OW 1155   1.039   1.098   2.558
  384SOL    HW1 1156   0.969   1.051   2.612
  384SOL    HW2 1157   1.098   1.030   2.515
  385SOL     OW 1158   1.014   0.236   2.833
  385SOL    HW1 1159   1.006   0.200   2.740
  385SOL    HW2 1160   1.012   0.160   2.898
  386SOL     OW 1161   0.590   1.487   2.353
  386SOL    HW1 1162   0.632   1.429   2.283
  386SOL    HW2 1163   0.546   1.566   2.309
  387SOL     OW 1164   1.709   0.385   3.243
  387SOL    HW1 1165   1.782   0.454   3.247
  387SOL    HW2 1166   1.737   0.310   3.184
  388SOL     OW 1167   0.255   1.348   2.152
  388SOL    HW1 1168   0.159   1.349   2.125
  388SOL    HW2 1169   0.267   1.401   2.236
  389SOL     OW 1170   0.105   1.013   3.588
  389SOL    HW1 1171   0.028   0.980   3.642
  389SOL    HW2 1172   0.190   0.983   3.630
  390SOL     OW 1173   0.672   0.203   3.351
  390SOL    HW1 1174   0.762   0.187   3.311
  390SOL    HW2 1175   0.680   0.208   3.450
  391SOL     OW 1176   0.075   0.345   1.895
  391SOL    HW1 1177  -0.017   0.317   1.866
  391SOL    HW2 1178   0.106   0.422   1.839
  392SOL     OW 1179   1.440   0.856   3.260
  392SOL    HW1 1180   1.383   0.908   3.197
  392SOL    HW2 1181   1.536   0.868   3.236
  393SOL     OW 1182   0.072   0.166   2.180
  393SOL    HW1 1183   0.055   0.249   2.126
  393SOL    HW2 1184   0.162   0.129   2.158
  394SOL     OW 1185   1.183   1.335   1.981
  394SOL    HW1 1186   1.084   1.324   1.983
  394SOL    HW2 1187   1.217   1.350   2.074
  395SOL     OW 1188   0.613   0.842   3.293
  395SOL    HW1 1189   0.669   0.923   3.276
  395SOL    HW2 1190   0.672   0.762   3.296
  396SOL     OW 1191   1.493   1.767   2.821
  396SOL    HW1 1192   1.526   1.831   2.752
  396SOL    HW2 1193   1.559   1.761   2.896
  397SOL     OW 1194   0.716   0.565   3.570
  397SOL    HW1 1195   0.735   0.630   3.644
  397SOL    HW2 1196   0.776   0.485   3.579
  398SOL     OW 1197   1.450   1.220   3.495
  398SOL    HW1 1198   1.441   1.210   3.594
  398SOL    HW2 1199   1.546   1.213   3.469
  399SOL     OW 1200   0.390   1.741   3.422
  399SOL    HW1 1201   0.299   1.782   3.420
  399SOL    HW2 1202   0.383   1.647   3.454
  400SOL     OW 1203   1.674   0.883   3.116
  400SOL    HW1 1204   1.647   0.794   3.079
  400SOL    HW2 1205   1.675   0.951   3.043
  401SOL     OW 1206   1.225   0.325   2.311
  401SOL    HW1 1207   1.290   0.251   2.300
  401SOL    HW2 1208   1.245   0.375   2.395
  402SOL     OW 1209   0.594   0.745   2.514
  402SOL    HW1 1210   0.644   0.830   2.495
  402SOL    HW2 1211   0.506   0.747   2.466
  403SOL     OW 1212   1.777   0.342   3.504
  403SOL    HW1 1213   1.760   0.373   3.410
  403SOL    HW2 1214   1.693   0.305   3.542
  404SOL     OW 1215   1.730   0.934   3.379
  404SOL    HW1 1216   1.768   1.025   3.394
  404SOL    HW2 1217   1.722   0.917   3.280
  405SOL     OW 1218   0.859   1.374   1.878
  405SOL    HW1 1219   0.813   1.389   1.966
  405SOL    HW2 1220   0.903   1.459   1.848
  406SOL     OW 1221   0.661   1.790   2.815
  406SOL    HW1 1222   0.615   1.878   2.802
  406SOL    HW2 1223   0.760   1.802   2.808
  407SOL     OW 1224   0.859   0.956   2.723
  407SOL    HW1 1225   0.913   0.887   2.771
  407SOL    HW2 1226   0.827   1.025   2.789
  408SOL     OW 1227   1.083   0.984   1.949
  408SOL    HW1 1228   1.060   1.037   1.867
  408SOL    HW2 1229   1.164   0.928   1.930
  409SOL     OW 1230   1.861   1.569   2.713
  409SOL    HW1 1231   1.790   1.557   2.643
  409SOL    HW2 1232   1.862   1.490   2.773
  410SOL     OW 1233   0.221   1.314   3.706
  410SOL    HW1 1234   0.156   1.241   3.685
  410SOL    HW2 1235   0.225   1.328   3.804
  411SOL     OW 1236   0.079   1.240   2.515
  411SOL    HW1 1237   0.078   1.193   2.603
  411SOL    HW2 1238   0.161   1.212   2.464
  412SOL     OW 1239   0.672   1.391   3.486
  412SOL    HW1 1240   0.594   1.341   3.524
  412SOL    HW2 1241   0.669   1.486   3.517
  413SOL     OW 1242   1.824   0.192   3.089
  413SOL    HW1 1243   1.820   0.102   3.133
  413SOL    HW2 1244   1.827   0.181   2.990
  414SOL     OW 1245   0.428   0.424   2.382
  414SOL    HW1 1246   0.458   0.352   2.320
  414SOL    HW2 1247   0.389   0.384   2.465
  415SOL     OW 1248   1.705   1.487   2.966
  415SOL    HW1 1249   1.612   1.462   2.939
  415SOL    HW2 1250   1.731   1.437   3.048
  416SOL     OW 1251   0.317   0.547   3.142
  416SOL    HW1 1252   0.355   0.488   3.214
  416SOL    HW2 1253   0.357   0.521   3.054
  417SOL     OW 1254   0.812   1.586   2.549
  417SOL    HW1 1255   0.844   1.596   2.455
  417SOL    HW2 1256   0.733   1.524   2.551
  418SOL     OW 1257   1.424   0.214   2.974
  418SOL    HW1 1258   1.476   0.149   3.029
  418SOL    HW2 1259   1.375   0.277   3.035
  419SOL     OW 1260   1.001   0.034   3.016
  419SOL    HW1 1261   0.938  -0.038   2.985
  419SOL    HW2 1262   1.094  -0.002   3.016
  420SOL     OW 1263   0.770   1.330   2.163
  420SOL    HW1 1264   0.724   1.243   2.180
  420SOL    HW2 1265   0.861   1.327   2.204
  421SOL     OW 1266   0.618   1.567   3.146
  421SOL    HW1 1267   0.613   1.649   3.203
  421SOL    HW2 1268   0.707   1.564   3.101
  422SOL     OW 1269   1.352   0.052   2.030
  422SOL    HW1 1270   1.387   0.011   1.946
  422SOL    HW2 1271   1.262   0.014   2.050
  423SOL     OW 1272   1.300   0.453   2.553
  423SOL    HW1 1273   1.241   0.533   2.557
  423SOL    HW2 1274   1.315   0.418   2.646
  424SOL     OW 1275   1.593   0.221   2.744
  424SOL    HW1 1276   1.509   0.220   2.798
  424SOL    HW2 1277   1.595   0.304   2.688
  425SOL     OW 1278   0.039   1.077   2.162
  425SOL    HW1 1279   0.138   1.066   2.153
  425SOL    HW2 1280  -0.001   0.991   2.194
  426SOL     OW 1281   0.875   1.646   2.199
  426SOL    HW1 1282   0.798   1.611   2.145
  426SOL    HW2 1283   0.843   1.717   2.261
  427SOL     OW 1284   0.230   0.628   3.837
  427SOL    HW1 1285   0.137   0.626   3.874
  427SOL    HW2 1286   0.231   0.589   3.745
  428SOL     OW 1287   1.755   0.607   3.955
  428SOL    HW1 1288   1.743   0.594   3.856
  428SOL    HW2 1289   1.725   0.526   4.004
  429SOL     OW 1290   0.231   1.713   4.207
  429SOL    HW1 1291   0.265   1.790   4.261
  429SOL    HW2 1292   0.275   1.713   4.117
  430SOL     OW 1293   0.230   1.434   4.262
  430SOL    HW1 1294   0.204   1.530   4.262
  430SOL    HW2 1295   0.159   1.380   4.307
  431SOL     OW 1296   0.606   0.964   3.847
  431SOL    HW1 1297   0.613   1.048   3.793
  431SOL    HW2 1298   0.652   0.977   3.935
  432SOL     OW 1299   0.122   0.643   4.287
  432SOL    HW1 1300   0.077   0.555   4.304
  432SOL    HW2 1301   0.121   0.697   4.371
  433SOL     OW 1302   1.842   1.767   4.083
  433SOL    HW1 1303   1.896   1.738   4.163
  433SOL    HW2 1304   1.872   1.857   4.054
  434SOL     OW 1305   0.027   1.596   3.841
  434SOL    HW1 1306   0.008   1.500   3.862
  434SOL    HW2 1307  -0.006   1.654   3.916
  435SOL     OW 1308   1.689   0.922   4.336
  435SOL    HW1 1309   1.784   0.893   4.344
  435SOL    HW2 1310   1.681   0.987   4.261
  436SOL     OW 1311   1.641   1.108   4.156
  436SOL    HW1 1312   1.727   1.110   4.104
  436SOL    HW2 1313   1.655   1.155   4.244
  437SOL     OW 1314   0.809   0.004   4.226
  437SOL    HW1 1315   0.849   0.095   4.217
  437SOL    HW2 1316   0.709   0.012   4.232
  438SOL     OW 1317   1.525   0.999   3.914
  438SOL    HW1 1318   1.462   0.923   3.927
  438SOL    HW2 1319   1.573   1.017   4.000
  439SOL     OW 1320   0.598   0.729   3.994
  439SOL    HW1 1321   0.622   0.798   3.926
  439SOL    HW2 1322   0.520   0.762   4.048
  440SOL     OW 1323   1.576   1.662   4.031
  440SOL    HW1 1324   1.665   1.708   4.034
  440SOL    HW2 1325   1.555   1.638   3.936
  441SOL     OW 1326   1.041   0.701   4.153
  441SOL    HW1 1327   1.067   0.697   4.249
  441SOL    HW2 1328   0.956   0.650   4.139
  442SOL     OW 1329   0.076   0.811   4.513
  442SOL    HW1 1330   0.175   0.799   4.522
  442SOL    HW2 1331   0.052   0.906   4.534
  443SOL     OW 1332   0.865   0.348   3.919
  443SOL    HW1 1333   0.924   0.411   3.870
  443SOL    HW2 1334   0.884   0.254   3.890
  444SOL     OW 1335   1.362   1.144   4.269
  444SOL    HW1 1336   1.445   1.115   4.221
  444SOL    HW2 1337   1.313   1.211   4.213
  445SOL     OW 1338   1.008   1.456   4.201
  445SOL    HW1 1339   0.962   1.528   4.149
  445SOL    HW2 1340   1.004   1.476   4.299
  446SOL     OW 1341   0.351   1.801   4.577
  446SOL    HW1 1342   0.401   1.715   4.583
  446SOL    HW2 1343   0.416   1.878   4.574
  447SOL     OW 1344   0.321   0.943   3.966
  447SOL    HW1 1345   0.403   0.982   3.924
  447SOL    HW2 1346   0.294   0.861   3.917
  448SOL     OW 1347   1.111   1.776   3.961
  448SOL    HW1 1348   1.051   1.714   4.011
  448SOL    HW2 1349   1.142   1.732   3.876
  449SOL     OW 1350   1.632   1.377   3.805
  449SOL    HW1 1351   1.600   1.471   3.795
  449SOL    HW2 1352   1.556   1.314   3.793
  450SOL     OW 1353   0.464   1.743   4.047
  450SOL    HW1 1354   0.497   1.782   4.133
  450SOL    HW2 1355   0.540   1.736   3.982
  451SOL     OW 1356   1.400   0.107   4.150
  451SOL    HW1 1357   1.376   0.070   4.060
  451SOL    HW2 1358   1.499   0.123   4.154
  452SOL     OW 1359   0.382   0.700   4.204
  452SOL    HW1 1360   0.427   0.610   4.201
  452SOL    HW2 1361   0.288   0.689   4.237
  453SOL     OW 1362   0.614   0.122   3.841
  453SOL    HW1 1363   0.712   0.100   3.848
  453SOL    HW2 1364   0.583   0.105   3.748
  454SOL     OW 1365   0.539   0.064   4.236
  454SOL    HW1 1366   0.458   0.065   4.294
  454SOL    HW2 1367   0.542   0.147   4.181
  455SOL     OW 1368   1.434   1.188   3.765
  455SOL    HW1 1369   1.466   1.112   3.822
  455SOL    HW2 1370   1.342   1.215   3.795
  456SOL     OW 1371   0.297   0.035   3.895
  456SOL    HW1 1372   0.346   0.119   3.874
  456SOL    HW2 1373   0.359  -0.030   3.940
  457SOL     OW 1374   0.935   0.236   4.204
  457SOL    HW1 1375   0.887   0.277   4.126
  457SOL    HW2 1376   1.034   0.234   4.185
  458SOL     OW 1377   0.459   1.152   4.465
  458SOL    HW1 1378   0.388   1.125   4.530
  458SOL    HW2 1379   0.433   1.124   4.372
  459SOL     OW 1380   1.271   1.797   4.315
  459SOL    HW1 1381   1.315   1.861   4.251
  459SOL    HW2 1382   1.221   1.849   4.385
  460SOL     OW 1383   1.032   0.549   3.740
  460SOL    HW1 1384   0.991   0.631   3.701
  460SOL    HW2 1385   1.096   0.575   3.813
  461SOL     OW 1386   0.866   0.454   4.366
  461SOL    HW1 1387   0.834   0.526   4.304
  461SOL    HW2 1388   0.890   0.373   4.313
  462SOL     OW 1389   1.857   0.833   4.101
  462SOL    HW1 1390   1.899   0.769   4.165
  462SOL    HW2 1391   1.819   0.782   4.023
  463SOL     OW 1392   0.488   1.385   3.898
  463SOL    HW1 1393   0.401   1.370   3.945
  463SOL    HW2 1394   0.471   1.411   3.803
  464SOL     OW 1395   1.390   0.575   3.802
  464SOL    HW1 1396   1.336   0.554   3.883
  464SOL    HW2 1397   1.481   0.534   3.811
  465SOL     OW 1398   0.527   0.256   4.052
  465SOL    HW1 1399   0.554   0.197   3.977
  465SOL    HW2 1400   0.527   0.351   4.021
  466SOL     OW 1401   0.705   1.050   4.092
  466SOL    HW1 1402   0.691   1.057   4.191
  466SOL    HW2 1403   0.789   0.999   4.074
  467SOL     OW 1404   0.367   1.100   4.225
  467SOL    HW1 1405   0.360   1.183   4.169
  467SOL    HW2 1406   0.371   1.020   4.165
  468SOL     OW 1407   1.252   1.348   4.112
  468SOL    HW1 1408   1.302   1.425   4.152
  468SOL    HW2 1409   1.157   1.350   4.144
  469SOL     OW 1410   1.582   0.639   4.196
  469SOL    HW1 1411   1.551   0.700   4.269
  469SOL    HW2 1412   1.632   0.691   4.127
  470SOL     OW 1413   1.209   0.525   3.999
  470SOL    HW1 1414   1.222   0.441   4.053
  470SOL    HW2 1415   1.180   0.599   4.059
  471SOL     OW 1416   0.307   0.063   4.342
  471SOL    HW1 1417   0.296   0.157   4.375
  471SOL    HW2 1418   0.302   0.000   4.419
  472SOL     OW 1419   1.622   0.367   4.098
  472SOL    HW1 1420   1.624   0.291   4.162
  472SOL    HW2 1421   1.574   0.444   4.138
  473SOL     OW 1422   1.540   0.274   3.849
  473SOL    HW1 1423   1.479   0.199   3.872
  473SOL    HW2 1424   1.562   0.326   3.932
  474SOL     OW 1425   1.303   0.838   3.766
  474SOL    HW1 1426   1.337   0.745   3.781
  474SOL    HW2 1427   1.321   0.865   3.671
  475SOL     OW 1428   0.008   1.326   3.924
  475SOL    HW1 1429  -0.085   1.347   3.893
  475SOL    HW2 1430   0.018   1.227   3.937
  476SOL     OW 1431   0.815   0.572   4.049
  476SOL    HW1 1432   0.822   0.483   4.003
  476SOL    HW2 1433   0.721   0.606   4.041
  477SOL     OW 1434   0.473   0.500   3.915
  477SOL    HW1 1435   0.534   0.580   3.919
  477SOL    HW2 1436   0.378   0.531   3.922
  478SOL     OW 1437   1.302   0.855   4.033
  478SOL    HW1 1438   1.216   0.824   4.075
  478SOL    HW2 1439   1.298   0.841   3.934
  479SOL     OW 1440   1.726   0.135   4.247
  479SOL    HW1 1441   1.799   0.118   4.180
  479SOL    HW2 1442   1.695   0.048   4.285
  480SOL     OW 1443   1.388   1.573   4.201
  480SOL    HW1 1444   1.455   1.585   4.127
  480SOL    HW2 1445   1.348   1.662   4.224
  481SOL     OW 1446   0.672   1.616   3.878
  481SOL    HW1 1447   0.681   1.626   3.779
  481SOL    HW2 1448   0.632   1.527   3.899
  482SOL     OW 1449   1.841   0.175   4.687
  482SOL    HW1 1450   1.880   0.090   4.651
  482SOL    HW2 1451   1.743   0.177   4.668
  483SOL     OW 1452   1.194   1.612   3.755
  483SOL    HW1 1453   1.200   1.519   3.792
  483SOL    HW2 1454   1.135   1.612   3.675
  484SOL     OW 1455   0.916   0.910   4.015
  484SOL    HW1 1456   0.979   0.948   3.947
  484SOL    HW2 1457   0.956   0.827   4.054
  485SOL     OW 1458   1.504   1.607   3.768
  485SOL    HW1 1459   1.412   1.644   3.775
  485SOL    HW2 1460   1.542   1.627   3.678
  486SOL     OW 1461   0.590   1.487   4.215
  486SOL    HW1 1462   0.632   1.429   4.145
  486SOL    HW2 1463   0.546   1.566   4.171
  487SOL     OW 1464   0.255   1.348   4.014
  487SOL    HW1 1465   0.159   1.349   3.987
  487SOL    HW2 1466   0.267   1.401   4.098
  488SOL     OW 1467   0.075   0.345   3.757
  488SOL    HW1 1468  -0.017   0.317   3.728
  488SOL    HW2 1469   0.106   0.422   3.701
  489SOL     OW 1470   0.072   0.166   4.042
  489SOL    HW1 1471   0.055   0.249   3.988
  489SOL    HW2 1472   0.162   0.129   4.020
  490SOL     OW 1473   1.183   1.335   3.843
  490SOL    HW1 1474   1.084   1.324   3.845
  490SOL    HW2 1475   1.217   1.350   3.936
  491SOL     OW 1476   1.225   0.325   4.173
  491SOL    HW1 1477   1.290   0.251   4.162
  491SOL    HW2 1478   1.245   0.375   4.257
  492SOL     OW 1479   0.594   0.745   4.376
  492SOL    HW1 1480   0.644   0.830   4.357
  492SOL    HW2 1481   0.506   0.747   4.328
  493SOL     OW 1482   0.859   1.374   3.740
  493SOL    HW1 1483   0.813   1.389   3.828
  493SOL    HW2 1484   0.903   1.459   3.710
  494SOL     OW 1485   1.083   0.984   3.811
  494SOL    HW1 1486   1.060   1.037   3.729
  494SOL    HW2 1487   1.164   0.928   3.792
  495SOL     OW 1488   0.079   1.240   4.377
  495SOL    HW1 1489   0.078   1.193   4.465
  495SOL    HW2 1490   0.161   1.212   4.326
  496SOL     OW 1491   0.428   0.424   4.244
  496SOL    HW1 1492   0.458   0.352   4.182
  496SOL    HW2 1493   0.389   0.384   4.327
  497SOL     OW 1494   0.770   1.330   4.025
  497SOL    HW1 1495   0.724   1.243   4.042
  497SOL    HW2 1496   0.861   1.327   4.066
  498SOL     OW 1497   1.352   0.052   3.892
  498SOL    HW1 1498   1.387   0.011   3.808
  498SOL    HW2 1499   1.262   0.014   3.912
  499SOL     OW 1500   0.039   1.077   4.024
  499SOL    HW1 1501   0.138   1.066   4.015
  499SOL    HW2 1502  -0.001   0.991   4.056
  500SOL     OW 1503   0.875   1.646   4.061
  500SOL    HW1 1504   0.798   1.611   4.007
  500SOL    HW2 1505   0.843   1.717   4.123
  501SOL     OW 1506   0.230   2.490   0.113
  501SOL    HW1 1507   0.137   2.488   0.150
  501SOL    HW2 1508   0.231   2.451   0.021
  502SOL     OW 1509   0.225   2.137   0.996
  502SOL    HW1 1510   0.260   2.120   1.088
  502SOL    HW2 1511   0.137   2.092   0.984
  503SOL     OW 1512   0.019   2.230   0.647
  503SOL    HW1 1513  -0.063   2.273   0.686
  503SOL    HW2 1514  -0.009   2.157   0.584
  504SOL     OW 1515   0.569   3.137   1.165
  504SOL    HW1 1516   0.476   3.130   1.128
  504SOL    HW2 1517   0.580   3.226   1.209
  505SOL     OW 1518   1.555   3.373   0.703
  505SOL    HW1 1519   1.498   3.357   0.784
  505SOL    HW2 1520   1.496   3.383   0.623
  506SOL     OW 1521   1.135   2.565   0.717
  506SOL    HW1 1522   1.192   2.643   0.692
  506SOL    HW2 1523   1.075   2.591   0.793
  507SOL     OW 1524   1.755   2.469   0.231
  507SOL    HW1 1525   1.743   2.456   0.132
  507SOL    HW2 1526   1.725   2.388   0.280
  508SOL     OW 1527   0.768   3.006   1.023
  508SOL    HW1 1528   0.690   3.023   1.083
  508SOL    HW2 1529   0.802   3.093   0.987
  509SOL     OW 1530   0.850   2.660   1.823
  509SOL    HW1 1531   0.846   2.736   1.888
  509SOL    HW2 1532   0.872   2.696   1.732
  510SOL     OW 1533   0.685   2.874   0.665
  510SOL    HW1 1534   0.754   2.858   0.735
  510SOL    HW2 1535   0.612   2.931   0.703
  511SOL     OW 1536   0.686   3.023   1.803
  511SOL    HW1 1537   0.746   3.102   1.817
  511SOL    HW2 1538   0.600   3.054   1.762
  512SOL     OW 1539   0.335   3.297   1.061
  512SOL    HW1 1540   0.257   3.266   1.008
  512SOL    HW2 1541   0.393   3.355   1.004
  513SOL     OW 1542   1.460   3.367   1.339
  513SOL    HW1 1543   1.484   3.461   1.365
  513SOL    HW2 1544   1.444   3.313   1.421
  514SOL     OW 1545   0.438   2.254   1.499
  514SOL    HW1 1546   0.520   2.198   1.508
  514SOL    HW2 1547   0.357   2.196   1.503
  515SOL     OW 1548   1.603   2.309   0.737
  515SOL    HW1 1549   1.529   2.355   0.687
  515SOL    HW2 1550   1.654   2.377   0.790
  516SOL     OW 1551   0.231   3.575   0.483
  516SOL    HW1 1552   0.265   3.652   0.537
  516SOL    HW2 1553   0.275   3.575   0.393
  517SOL     OW 1554   1.127   3.203   1.690
  517SOL    HW1 1555   1.174   3.203   1.778
  517SOL    HW2 1556   1.079   3.116   1.679
  518SOL     OW 1557   0.230   3.296   0.538
  518SOL    HW1 1558   0.204   3.392   0.538
  518SOL    HW2 1559   0.159   3.242   0.583
  519SOL     OW 1560   0.240   2.953   0.886
  519SOL    HW1 1561   0.254   2.869   0.938
  519SOL    HW2 1562   0.185   3.017   0.941
  520SOL     OW 1563   0.620   3.648   1.439
  520SOL    HW1 1564   0.528   3.631   1.474
  520SOL    HW2 1565   0.648   3.740   1.465
  521SOL     OW 1566   0.606   2.826   0.123
  521SOL    HW1 1567   0.613   2.910   0.069
  521SOL    HW2 1568   0.652   2.839   0.211
  522SOL     OW 1569   1.594   1.976   1.480
  522SOL    HW1 1570   1.576   2.043   1.408
  522SOL    HW2 1571   1.591   2.022   1.569
  523SOL     OW 1572   0.122   2.505   0.563
  523SOL    HW1 1573   0.077   2.417   0.580
  523SOL    HW2 1574   0.121   2.559   0.647
  524SOL     OW 1575   1.842   3.629   0.359
  524SOL    HW1 1576   1.896   3.600   0.439
  524SOL    HW2 1577   1.872   3.719   0.330
  525SOL     OW 1578   0.027   3.458   0.117
  525SOL    HW1 1579   0.008   3.362   0.138
  525SOL    HW2 1580  -0.006   3.516   0.192
  526SOL     OW 1581   1.689   2.784   0.612
  526SOL    HW1 1582   1.784   2.755   0.620
  526SOL    HW2 1583   1.681   2.849   0.537
  527SOL     OW 1584   1.641   2.970   0.432
  527SOL    HW1 1585   1.727   2.972   0.380
  527SOL    HW2 1586   1.655   3.017   0.520
  528SOL     OW 1587   0.113   2.599   1.597
  528SOL    HW1 1588   0.201   2.586   1.642
  528SOL    HW2 1589   0.100   2.696   1.575
  529SOL     OW 1590   0.613   3.227   0.726
  529SOL    HW1 1591   0.564   3.140   0.735
  529SOL    HW2 1592   0.590   3.270   0.639
  530SOL     OW 1593   1.293   3.090   1.423
  530SOL    HW1 1594   1.330   3.017   1.365
  530SOL    HW2 1595   1.345   3.095   1.508
  531SOL     OW 1596   0.809   1.866   0.502
  531SOL    HW1 1597   0.849   1.957   0.493
  531SOL    HW2 1598   0.709   1.874   0.508
  532SOL     OW 1599   0.197   2.838   1.264
  532SOL    HW1 1600   0.286   2.793   1.250
  532SOL    HW2 1601   0.124   2.773   1.245
  533SOL     OW 1602   1.525   2.861   0.190
  533SOL    HW1 1603   1.462   2.785   0.203
  533SOL    HW2 1604   1.573   2.879   0.276
  534SOL     OW 1605   1.187   3.654   1.616
  534SOL    HW1 1606   1.211   3.714   1.540
  534SOL    HW2 1607   1.194   3.559   1.586
  535SOL     OW 1608   0.317   2.113   1.801
  535SOL    HW1 1609   0.388   2.184   1.807
  535SOL    HW2 1610   0.229   2.152   1.829
  536SOL     OW 1611   1.466   3.279   0.953
  536SOL    HW1 1612   1.407   3.285   1.033
  536SOL    HW2 1613   1.451   3.191   0.907
  537SOL     OW 1614   1.667   3.576   0.572
  537SOL    HW1 1615   1.626   3.553   0.484
  537SOL    HW2 1616   1.649   3.502   0.637
  538SOL     OW 1617   0.598   2.591   0.270
  538SOL    HW1 1618   0.622   2.660   0.202
  538SOL    HW2 1619   0.520   2.624   0.324
  539SOL     OW 1620   1.281   2.207   0.944
  539SOL    HW1 1621   1.195   2.157   0.931
  539SOL    HW2 1622   1.343   2.153   1.000
  540SOL     OW 1623   1.576   3.524   0.307
  540SOL    HW1 1624   1.665   3.570   0.310
  540SOL    HW2 1625   1.555   3.500   0.212
  541SOL     OW 1626   0.807   2.467   1.465
  541SOL    HW1 1627   0.760   2.464   1.554
  541SOL    HW2 1628   0.756   2.412   1.399
  542SOL     OW 1629   1.394   2.331   1.674
  542SOL    HW1 1630   1.374   2.374   1.762
  542SOL    HW2 1631   1.472   2.269   1.683
  543SOL     OW 1632   0.973   2.752   1.572
  543SOL    HW1 1633   1.019   2.668   1.543
  543SOL    HW2 1634   0.917   2.786   1.497
  544SOL     OW 1635   0.991   2.272   1.242
  544SOL    HW1 1636   0.914   2.306   1.296
  544SOL    HW2 1637   0.957   2.221   1.163
  545SOL     OW 1638   1.041   2.563   0.429
  545SOL    HW1 1639   1.067   2.559   0.525
  545SOL    HW2 1640   0.956   2.512   0.415
  546SOL     OW 1641   0.076   2.673   0.789
  546SOL    HW1 1642   0.175   2.661   0.798
  546SOL    HW2 1643   0.052   2.768   0.810
  547SOL     OW 1644   0.130   3.683   1.571
  547SOL    HW1 1645   0.120   3.668   1.670
  547SOL    HW2 1646   0.044   3.719   1.535
  548SOL     OW 1647   0.865   2.210   0.195
  548SOL    HW1 1648   0.924   2.273   0.146
  548SOL    HW2 1649   0.884   2.116   0.166
  549SOL     OW 1650   1.719   2.447   1.831
  549SOL    HW1 1651   1.693   2.536   1.795
  549SOL    HW2 1652   1.717   2.379   1.758
  550SOL     OW 1653   1.362   3.006   0.545
  550SOL    HW1 1654   1.445   2.977   0.497
  550SOL    HW2 1655   1.313   3.073   0.489
  551SOL     OW 1656   0.550   2.058   0.885
  551SOL    HW1 1657   0.545   2.053   0.985
  551SOL    HW2 1658   0.552   2.154   0.856
  552SOL     OW 1659   1.008   3.318   0.477
  552SOL    HW1 1660   0.962   3.390   0.425
  552SOL    HW2 1661   1.004   3.338   0.575
  553SOL     OW 1662   0.351   3.663   0.853
  553SOL    HW1 1663   0.401   3.577   0.859
  553SOL    HW2 1664   0.416   3.740   0.850
  554SOL     OW 1665   1.795   2.928   0.873
  554SOL    HW1 1666   1.733   2.913   0.797
  554SOL    HW2 1667   1.743   2.939   0.958
  555SOL     OW 1668   1.227   3.412   1.506
  555SOL    HW1 1669   1.233   3.335   1.570
  555SOL    HW2 1670   1.175   3.386   1.426
  556SOL     OW 1671   0.321   2.805   0.242
  556SOL    HW1 1672   0.403   2.844   0.200
  556SOL    HW2 1673   0.294   2.723   0.193
  557SOL     OW 1674   1.458   2.597   0.728
  557SOL    HW1 1675   1.453   2.532   0.803
  557SOL    HW2 1676   1.538   2.656   0.741
  558SOL     OW 1677   0.461   3.128   1.727
  558SOL    HW1 1678   0.411   3.129   1.641
  558SOL    HW2 1679   0.398   3.110   1.803
  559SOL     OW 1680   1.111   3.638   0.237
  559SOL    HW1 1681   1.051   3.576   0.287
  559SOL    HW2 1682   1.142   3.594   0.152
  560SOL     OW 1683   0.202   2.147   1.498
  560SOL    HW1 1684   0.122   2.207   1.485
  560SOL    HW2 1685   0.192   2.098   1.584
  561SOL     OW 1686   1.632   3.239   0.081
  561SOL    HW1 1687   1.600   3.333   0.071
  561SOL    HW2 1688   1.556   3.176   0.069
  562SOL     OW 1689   0.464   3.605   0.323
  562SOL    HW1 1690   0.497   3.644   0.409
  562SOL    HW2 1691   0.540   3.598   0.258
  563SOL     OW 1692   1.400   1.969   0.426
  563SOL    HW1 1693   1.376   1.932   0.336
  563SOL    HW2 1694   1.499   1.985   0.430
  564SOL     OW 1695   0.249   3.647   1.241
  564SOL    HW1 1696   0.306   3.582   1.291
  564SOL    HW2 1697   0.233   3.614   1.148
  565SOL     OW 1698   0.940   3.560   0.904
  565SOL    HW1 1699   1.020   3.503   0.925
  565SOL    HW2 1700   0.891   3.520   0.827
  566SOL     OW 1701   0.382   2.562   0.480
  566SOL    HW1 1702   0.427   2.472   0.477
  566SOL    HW2 1703   0.288   2.551   0.513
  567SOL     OW 1704   1.547   2.084   1.729
  567SOL    HW1 1705   1.542   2.121   1.821
  567SOL    HW2 1706   1.475   2.015   1.717
  568SOL     OW 1707   0.614   1.984   0.117
  568SOL    HW1 1708   0.712   1.962   0.124
  568SOL    HW2 1709   0.583   1.967   0.024
  569SOL     OW 1710   0.781   2.126   1.749
  569SOL    HW1 1711   0.848   2.065   1.792
  569SOL    HW2 1712   0.708   2.145   1.814
  570SOL     OW 1713   0.888   3.376   1.195
  570SOL    HW1 1714   0.865   3.351   1.101
  570SOL    HW2 1715   0.949   3.307   1.234
  571SOL     OW 1716   1.351   2.452   1.433
  571SOL    HW1 1717   1.379   2.409   1.518
  571SOL    HW2 1718   1.376   2.548   1.434
  572SOL     OW 1719   0.803   3.264   0.924
  572SOL    HW1 1720   0.893   3.278   0.882
  572SOL    HW2 1721   0.732   3.266   0.853
  573SOL     OW 1722   0.922   2.365   0.899
  573SOL    HW1 1723   0.897   2.356   0.803
  573SOL    HW2 1724   0.970   2.283   0.930
  574SOL     OW 1725   0.539   1.926   0.512
  574SOL    HW1 1726   0.458   1.927   0.570
  574SOL    HW2 1727   0.542   2.009   0.457
  575SOL     OW 1728   1.434   3.050   0.041
  575SOL    HW1 1729   1.466   2.974   0.098
  575SOL    HW2 1730   1.342   3.077   0.071
  576SOL     OW 1731   0.935   2.098   0.480
  576SOL    HW1 1732   0.887   2.139   0.402
  576SOL    HW2 1733   1.034   2.096   0.461
  577SOL     OW 1734   1.076   2.545   1.464
  577SOL    HW1 1735   0.996   2.484   1.467
  577SOL    HW2 1736   1.157   2.492   1.440
  578SOL     OW 1737   1.227   3.432   0.793
  578SOL    HW1 1738   1.248   3.506   0.728
  578SOL    HW2 1739   1.295   3.432   0.866
  579SOL     OW 1740   0.459   3.014   0.741
  579SOL    HW1 1741   0.388   2.987   0.806
  579SOL    HW2 1742   0.433   2.986   0.648
  580SOL     OW 1743   1.271   3.659   0.591
  580SOL    HW1 1744   1.315   3.723   0.527
  580SOL    HW2 1745   1.221   3.711   0.661
  581SOL     OW 1746   1.032   2.411   0.016
  581SOL    HW1 1747   0.991   2.493  -0.023
  581SOL    HW2 1748   1.096   2.437   0.089
  582SOL     OW 1749   0.078   2.418   1.386
  582SOL    HW1 1750   0.170   2.417   1.345
  582SOL    HW2 1751   0.072   2.492   1.453
  583SOL     OW 1752   0.561   2.084   1.147
  583SOL    HW1 1753   0.599   2.000   1.184
  583SOL    HW2 1754   0.473   2.103   1.191
  584SOL     OW 1755   0.866   2.316   0.642
  584SOL    HW1 1756   0.834   2.388   0.580
  584SOL    HW2 1757   0.890   2.235   0.589
  585SOL     OW 1758   1.017   1.901   0.753
  585SOL    HW1 1759   0.945   1.906   0.684
  585SOL    HW2 1760   0.993   1.832   0.822
  586SOL     OW 1761   1.429   3.035   0.867
  586SOL    HW1 1762   1.374   2.951   0.860
  586SOL    HW2 1763   1.455   3.064   0.775
  587SOL     OW 1764   1.466   2.452   0.992
  587SOL    HW1 1765   1.436   2.357   0.999
  587SOL    HW2 1766   1.539   2.468   1.058
  588SOL     OW 1767   1.857   2.695   0.377
  588SOL    HW1 1768   1.899   2.631   0.441
  588SOL    HW2 1769   1.819   2.644   0.299
  589SOL     OW 1770   0.488   3.247   0.174
  589SOL    HW1 1771   0.401   3.232   0.221
  589SOL    HW2 1772   0.471   3.273   0.079
  590SOL     OW 1773   1.664   3.142   0.657
  590SOL    HW1 1774   1.763   3.150   0.671
  590SOL    HW2 1775   1.619   3.226   0.688
  591SOL     OW 1776   1.390   2.437   0.078
  591SOL    HW1 1777   1.336   2.416   0.159
  591SOL    HW2 1778   1.481   2.396   0.087
  592SOL     OW 1779   0.527   2.118   0.328
  592SOL    HW1 1780   0.554   2.059   0.253
  592SOL    HW2 1781   0.527   2.213   0.297
  593SOL     OW 1782   1.754   3.085   1.588
  593SOL    HW1 1783   1.845   3.046   1.575
  593SOL    HW2 1784   1.762   3.181   1.612
  594SOL     OW 1785   1.064   3.209   1.340
  594SOL    HW1 1786   0.984   3.186   1.395
  594SOL    HW2 1787   1.147   3.183   1.389
  595SOL     OW 1788   1.592   3.491   1.625
  595SOL    HW1 1789   1.619   3.525   1.535
  595SOL    HW2 1790   1.671   3.453   1.671
  596SOL     OW 1791   1.111   3.057   1.100
  596SOL    HW1 1792   1.071   3.101   1.181
  596SOL    HW2 1793   1.070   3.094   1.017
  597SOL     OW 1794   1.638   2.961   1.079
  597SOL    HW1 1795   1.643   3.042   1.138
  597SOL    HW2 1796   1.552   2.963   1.028
  598SOL     OW 1797   0.915   1.951   1.402
  598SOL    HW1 1798   0.940   1.931   1.307
  598SOL    HW2 1799   0.987   2.007   1.444
  599SOL     OW 1800   0.980   2.978   1.719
  599SOL    HW1 1801   0.881   2.984   1.729
  599SOL    HW2 1802   1.003   2.898   1.663
  600SOL     OW 1803   0.705   2.912   0.368
  600SOL    HW1 1804   0.691   2.919   0.467
  600SOL    HW2 1805   0.789   2.861   0.350
  601SOL     OW 1806   0.410   2.675   1.251
  601SOL    HW1 1807   0.496   2.687   1.301
  601SOL    HW2 1808   0.368   2.588   1.278
  602SOL     OW 1809   1.274   2.248   1.262
  602SOL    HW1 1810   1.295   2.322   1.326
  602SOL    HW2 1811   1.185   2.265   1.219
  603SOL     OW 1812   0.064   3.426   1.331
  603SOL    HW1 1813   0.018   3.508   1.297
  603SOL    HW2 1814   0.162   3.445   1.340
  604SOL     OW 1815   0.367   2.962   0.501
  604SOL    HW1 1816   0.360   3.045   0.445
  604SOL    HW2 1817   0.371   2.882   0.441
  605SOL     OW 1818   0.566   2.399   0.865
  605SOL    HW1 1819   0.578   2.465   0.791
  605SOL    HW2 1820   0.612   2.433   0.948
  606SOL     OW 1821   1.252   3.210   0.388
  606SOL    HW1 1822   1.302   3.287   0.428
  606SOL    HW2 1823   1.157   3.212   0.420
  607SOL     OW 1824   1.272   3.307   1.142
  607SOL    HW1 1825   1.319   3.320   1.229
  607SOL    HW2 1826   1.206   3.233   1.151
  608SOL     OW 1827   1.582   2.501   0.472
  608SOL    HW1 1828   1.551   2.562   0.545
  608SOL    HW2 1829   1.632   2.553   0.403
  609SOL     OW 1830   0.354   3.372   1.329
  609SOL    HW1 1831   0.333   3.328   1.242
  609SOL    HW2 1832   0.451   3.398   1.332
  610SOL     OW 1833   0.402   2.613   1.598
  610SOL    HW1 1834   0.470   2.668   1.551
  610SOL    HW2 1835   0.442   2.525   1.625
  611SOL     OW 1836   1.587   2.641   1.670
  611SOL    HW1 1837   1.495   2.679   1.665
  611SOL    HW2 1838   1.647   2.688   1.605
  612SOL     OW 1839   1.013   1.967   1.770
  612SOL    HW1 1840   1.019   2.052   1.718
  612SOL    HW2 1841   1.045   1.891   1.713
  613SOL     OW 1842   0.504   1.912   1.740
  613SOL    HW1 1843   0.462   1.855   1.670
  613SOL    HW2 1844   0.438   1.981   1.772
  614SOL     OW 1845   0.573   2.732   1.029
  614SOL    HW1 1846   0.617   2.821   1.020
  614SOL    HW2 1847   0.510   2.732   1.106
  615SOL     OW 1848   1.360   2.724   1.045
  615SOL    HW1 1849   1.285   2.724   0.979
  615SOL    HW2 1850   1.397   2.632   1.054
  616SOL     OW 1851   1.209   2.387   0.275
  616SOL    HW1 1852   1.222   2.303   0.329
  616SOL    HW2 1853   1.180   2.461   0.335
  617SOL     OW 1854   0.307   2.075   1.231
  617SOL    HW1 1855   0.284   2.112   1.321
  617SOL    HW2 1856   0.277   1.980   1.225
  618SOL     OW 1857   0.037   3.172   1.282
  618SOL    HW1 1858   0.090   3.123   1.350
  618SOL    HW2 1859   0.059   3.270   1.287
  619SOL     OW 1860   0.732   2.496   1.064
  619SOL    HW1 1861   0.791   2.470   0.988
  619SOL    HW2 1862   0.704   2.592   1.053
  620SOL     OW 1863   1.728   2.797   1.854
  620SOL    HW1 1864   1.682   2.790   1.765
  620SOL    HW2 1865   1.666   2.841   1.920
  621SOL     OW 1866   0.307   1.925   0.618
  621SOL    HW1 1867   0.296   2.019   0.651
  621SOL    HW2 1868   0.302   1.862   0.695
  622SOL     OW 1869   1.622   2.229   0.374
  622SOL    HW1 1870   1.624   2.153   0.438
  622SOL    HW2 1871   1.574   2.306   0.414
  623SOL     OW 1872   1.023   2.628   0.966
  623SOL    HW1 1873   1.038   2.649   1.062
  623SOL    HW2 1874   0.993   2.533   0.957
  624SOL     OW 1875   0.980   3.435   1.700
  624SOL    HW1 1876   0.960   3.479   1.612
  624SOL    HW2 1877   1.019   3.344   1.684
  625SOL     OW 1878   1.859   3.380   1.605
  625SOL    HW1 1879   1.873   3.407   1.510
  625SOL    HW2 1880   1.942   3.402   1.658
  626SOL     OW 1881   0.350   2.760   1.804
  626SOL    HW1 1882   0.426   2.804   1.852
  626SOL    HW2 1883   0.385   2.713   1.722
  627SOL     OW 1884   1.540   2.136   0.125
  627SOL    HW1 1885   1.479   2.061   0.148
  627SOL    HW2 1886   1.562   2.188   0.208
  628SOL     OW 1887   1.303   2.700   0.042
  628SOL    HW1 1888   1.337   2.607   0.057
  628SOL    HW2 1889   1.321   2.727  -0.053
  629SOL     OW 1890   1.068   3.195   0.849
  629SOL    HW1 1891   1.075   3.111   0.794
  629SOL    HW2 1892   1.130   3.264   0.813
  630SOL     OW 1893   0.319   2.672   0.949
  630SOL    HW1 1894   0.412   2.708   0.954
  630SOL    HW2 1895   0.313   2.587   1.001
  631SOL     OW 1896   0.339   2.371   1.006
  631SOL    HW1 1897   0.287   2.288   0.989
  631SOL    HW2 1898   0.416   2.376   0.942
  632SOL     OW 1899   1.138   2.242   1.678
  632SOL    HW1 1900   1.093   2.305   1.742
  632SOL    HW2 1901   1.231   2.273   1.661
  633SOL     OW 1902   1.160   2.069   1.477
  633SOL    HW1 1903   1.160   2.133   1.554
  633SOL    HW2 1904   1.188   2.117   1.394
  634SOL     OW 1905   0.008   3.188   0.200
  634SOL    HW1 1906  -0.085   3.209   0.169
  634SOL    HW2 1907   0.018   3.089   0.213
  635SOL     OW 1908   0.088   3.663   0.927
  635SOL    HW1 1909   0.046   3.577   0.900
  635SOL    HW2 1910   0.182   3.666   0.893
  636SOL     OW 1911   0.504   3.430   0.910
  636SOL    HW1 1912   0.570   3.504   0.919
  636SOL    HW2 1913   0.548   3.351   0.868
  637SOL     OW 1914   1.002   2.658   1.238
  637SOL    HW1 1915   1.043   2.626   1.324
  637SOL    HW2 1916   0.906   2.631   1.235
  638SOL     OW 1917   0.040   2.406   1.114
  638SOL    HW1 1918   0.125   2.373   1.073
  638SOL    HW2 1919   0.053   2.421   1.212
  639SOL     OW 1920   0.189   2.382   1.722
  639SOL    HW1 1921   0.248   2.342   1.652
  639SOL    HW2 1922   0.131   2.453   1.681
  640SOL     OW 1923   1.369   2.812   1.660
  640SOL    HW1 1924   1.408   2.901   1.680
  640SOL    HW2 1925   1.379   2.792   1.563
  641SOL     OW 1926   0.815   2.434   0.325
  641SOL    HW1 1927   0.822   2.345   0.279
  641SOL    HW2 1928   0.721   2.468   0.317
  642SOL     OW 1929   1.657   2.466   1.206
  642SOL    HW1 1930   1.619   2.397   1.268
  642SOL    HW2 1931   1.739   2.430   1.162
  643SOL     OW 1932   0.252   3.426   1.744
  643SOL    HW1 1933   0.222   3.483   1.820
  643SOL    HW2 1934   0.245   3.329   1.770
  644SOL     OW 1935   0.671   2.326   1.269
  644SOL    HW1 1936   0.637   2.237   1.239
  644SOL    HW2 1937   0.697   2.380   1.189
  645SOL     OW 1938   0.930   3.540   1.465
  645SOL    HW1 1939   0.906   3.522   1.370
  645SOL    HW2 1940   0.960   3.634   1.475
  646SOL     OW 1941   0.473   2.362   0.191
  646SOL    HW1 1942   0.534   2.442   0.195
  646SOL    HW2 1943   0.378   2.393   0.198
  647SOL     OW 1944   0.159   2.999   1.466
  647SOL    HW1 1945   0.181   2.938   1.542
  647SOL    HW2 1946   0.169   2.950   1.380
  648SOL     OW 1947   1.347   2.921   1.234
  648SOL    HW1 1948   1.371   2.858   1.160
  648SOL    HW2 1949   1.257   2.961   1.216
  649SOL     OW 1950   1.302   2.717   0.309
  649SOL    HW1 1951   1.216   2.686   0.351
  649SOL    HW2 1952   1.298   2.703   0.210
  650SOL     OW 1953   1.759   3.609   1.154
  650SOL    HW1 1954   1.820   3.639   1.081
  650SOL    HW2 1955   1.721   3.520   1.132
  651SOL     OW 1956   1.252   3.593   1.128
  651SOL    HW1 1957   1.336   3.598   1.074
  651SOL    HW2 1958   1.229   3.497   1.146
  652SOL     OW 1959   0.083   3.120   1.022
  652SOL    HW1 1960   0.078   3.119   1.122
  652SOL    HW2 1961   0.000   3.079   0.984
  653SOL     OW 1962   0.688   3.524   1.716
  653SOL    HW1 1963   0.632   3.605   1.725
  653SOL    HW2 1964   0.740   3.528   1.630
  654SOL     OW 1965   0.903   1.948   0.133
  654SOL    HW1 1966   0.954   1.949   0.047
  654SOL    HW2 1967   0.959   1.906   0.204
  655SOL     OW 1968   1.726   1.997   0.523
  655SOL    HW1 1969   1.799   1.980   0.456
  655SOL    HW2 1970   1.695   1.910   0.561
  656SOL     OW 1971   1.388   3.435   0.477
  656SOL    HW1 1972   1.455   3.447   0.403
  656SOL    HW2 1973   1.348   3.524   0.500
  657SOL     OW 1974   0.130   3.656   1.851
  657SOL    HW1 1975   0.089   3.582   1.904
  657SOL    HW2 1976   0.194   3.707   1.909
  658SOL     OW 1977   1.280   2.789   0.672
  658SOL    HW1 1978   1.340   2.708   0.674
  658SOL    HW2 1979   1.320   2.858   0.612
  659SOL     OW 1980   0.830   3.135   1.422
  659SOL    HW1 1981   0.825   3.168   1.517
  659SOL    HW2 1982   0.744   3.154   1.376
  660SOL     OW 1983   0.672   3.478   0.154
  660SOL    HW1 1984   0.681   3.488   0.055
  660SOL    HW2 1985   0.632   3.389   0.175
  661SOL     OW 1986   1.650   3.582   1.394
  661SOL    HW1 1987   1.703   3.592   1.310
  661SOL    HW2 1988   1.623   3.672   1.428
  662SOL     OW 1989   1.841   2.037   0.963
  662SOL    HW1 1990   1.880   1.952   0.927
  662SOL    HW2 1991   1.743   2.039   0.944
  663SOL     OW 1992   0.263   2.188   0.720
  663SOL    HW1 1993   0.184   2.239   0.686
  663SOL    HW2 1994   0.254   2.173   0.818
  664SOL     OW 1995   1.194   3.474   0.031
  664SOL    HW1 1996   1.200   3.381   0.068
  664SOL    HW2 1997   1.135   3.474  -0.049
  665SOL     OW 1998   0.822   2.864   1.372
  665SOL    HW1 1999   0.862   2.863   1.280
  665SOL    HW2 2000   0.832   2.956   1.412
  666SOL     OW 2001   0.916   2.772   0.291
  666SOL    HW1 2002   0.979   2.810   0.223
  666SOL    HW2 2003   0.956   2.689   0.330
  667SOL     OW 2004   1.504   3.469   0.044
  667SOL    HW1 2005   1.412   3.506   0.051
  667SOL    HW2 2006   1.542   3.489  -0.046
  668SOL     OW 2007   0.372   3.150   1.490
  668SOL    HW1 2008   0.359   3.243   1.456
  668SOL    HW2 2009   0.288   3.098   1.477
  669SOL     OW 2010   1.614   3.154   1.289
  669SOL    HW1 2011   1.674   3.157   1.369
  669SOL    HW2 2012   1.539   3.218   1.302
  670SOL     OW 2013   1.039   2.960   0.696
  670SOL    HW1 2014   0.969   2.913   0.750
  670SOL    HW2 2015   1.098   2.892   0.653
  671SOL     OW 2016   1.014   2.098   0.971
  671SOL    HW1 2017   1.006   2.062   0.878
  671SOL    HW2 2018   1.012   2.022   1.036
  672SOL     OW 2019   0.590   3.349   0.491
  672SOL    HW1 2020   0.632   3.291   0.421
  672SOL    HW2 2021   0.546   3.428   0.447
  673SOL     OW 2022   1.709   2.247   1.381
  673SOL    HW1 2023   1.782   2.316   1.385
  673SOL    HW2 2024   1.737   2.172   1.322
  674SOL     OW 2025   0.255   3.210   0.290
  674SOL    HW1 2026   0.159   3.211   0.263
  674SOL    HW2 2027   0.267   3.263   0.374
  675SOL     OW 2028   0.105   2.875   1.726
  675SOL    HW1 2029   0.028   2.842   1.780
  675SOL    HW2 2030   0.190   2.845   1.768
  676SOL     OW 2031   0.672   2.065   1.489
  676SOL    HW1 2032   0.762   2.049   1.449
  676SOL    HW2 2033   0.680   2.070   1.588
  677SOL     OW 2034   0.075   2.207   0.033
  677SOL    HW1 2035  -0.017   2.179   0.004
  677SOL    HW2 2036   0.106   2.284  -0.023
  678SOL     OW 2037   1.440   2.718   1.398
  678SOL    HW1 2038   1.383   2.770   1.335
  678SOL    HW2 2039   1.536   2.730   1.374
  679SOL     OW 2040   0.072   2.028   0.318
  679SOL    HW1 2041   0.055   2.111   0.264
  679SOL    HW2 2042   0.162   1.991   0.296
  680SOL     OW 2043   1.183   3.197   0.119
  680SOL    HW1 2044   1.084   3.186   0.121
  680SOL    HW2 2045   1.217   3.212   0.212
  681SOL     OW 2046   0.613   2.704   1.431
  681SOL    HW1 2047   0.669   2.785   1.414
  681SOL    HW2 2048   0.672   2.624   1.434
  682SOL     OW 2049   1.493   3.629   0.959
  682SOL    HW1 2050   1.526   3.693   0.890
  682SOL    HW2 2051   1.559   3.623   1.034
  683SOL     OW 2052   0.716   2.427   1.708
  683SOL    HW1 2053   0.735   2.492   1.782
  683SOL    HW2 2054   0.776   2.347   1.717
  684SOL     OW 2055   1.450   3.082   1.633
  684SOL    HW1 2056   1.441   3.072   1.732
  684SOL    HW2 2057   1.546   3.075   1.607
  685SOL     OW 2058   0.390   3.603   1.560
  685SOL    HW1 2059   0.299   3.644   1.558
  685SOL    HW2 2060   0.383   3.509   1.592
  686SOL     OW 2061   1.674   2.745   1.254
  686SOL    HW1 2062   1.647   2.656   1.217
  686SOL    HW2 2063   1.675   2.813   1.181
  687SOL     OW 2064   1.225   2.187   0.449
  687SOL    HW1 2065   1.290   2.113   0.438
  687SOL    HW2 2066   1.245   2.237   0.533
  688SOL     OW 2067   0.594   2.607   0.652
  688SOL    HW1 2068   0.644   2.692   0.633
  688SOL    HW2 2069   0.506   2.609   0.604
  689SOL     OW 2070   1.777   2.204   1.642
  689SOL    HW1 2071   1.760   2.235   1.548
  689SOL    HW2 2072   1.693   2.167   1.680
  690SOL     OW 2073   1.730   2.796   1.517
  690SOL    HW1 2074   1.768   2.887   1.532
  690SOL    HW2 2075   1.722   2.779   1.418
  691SOL     OW 2076   0.859   3.236   0.016
  691SOL    HW1 2077   0.813   3.251   0.104
  691SOL    HW2 2078   0.903   3.321  -0.014
  692SOL     OW 2079   0.661   3.652   0.953
  692SOL    HW1 2080   0.615   3.740   0.940
  692SOL    HW2 2081   0.760   3.664   0.946
  693SOL     OW 2082   0.859   2.818   0.861
  693SOL    HW1 2083   0.913   2.749   0.909
  693SOL    HW2 2084   0.827   2.887   0.927
  694SOL     OW 2085   1.083   2.846   0.087
  694SOL    HW1 2086   1.060   2.899   0.005
  694SOL    HW2 2087   1.164   2.790   0.068
  695SOL     OW 2088   1.861   3.431   0.851
  695SOL    HW1 2089   1.790   3.419   0.781
  695SOL    HW2 2090   1.862   3.352   0.911
  696SOL     OW 2091   0.221   3.176   1.844
  696SOL    HW1 2092   0.156   3.103   1.823
  696SOL    HW2 2093   0.225   3.190   1.942
  697SOL     OW 2094   0.079   3.102   0.653
  697SOL    HW1 2095   0.078   3.055   0.741
  697SOL    HW2 2096   0.161   3.074   0.602
  698SOL     OW 2097   0.672   3.253   1.624
  698SOL    HW1 2098   0.594   3.203   1.662
  698SOL    HW2 2099   0.669   3.348   1.655
  699SOL     OW 2100   1.824   2.054   1.227
  699SOL    HW1 2101   1.820   1.964   1.271
  699SOL    HW2 2102   1.827   2.043   1.128
  700SOL     OW 2103   0.428   2.286   0.520
  700SOL    HW1 2104   0.458   2.214   0.458
  700SOL    HW2 2105   0.389   2.246   0.603
  701SOL     OW 2106   1.705   3.349   1.104
  701SOL    HW1 2107   1.612   3.324   1.077
  701SOL    HW2 2108   1.731   3.299   1.186
  702SOL     OW 2109   0.317   2.409   1.280
  702SOL    HW1 2110   0.355   2.350   1.352
  702SOL    HW2 2111   0.357   2.383   1.192
  703SOL     OW 2112   0.812   3.448   0.687
  703SOL    HW1 2113   0.844   3.458   0.593
  703SOL    HW2 2114   0.733   3.386   0.689
  704SOL     OW 2115   1.424   2.076   1.112
  704SOL    HW1 2116   1.476   2.011   1.167
  704SOL    HW2 2117   1.375   2.139   1.173
  705SOL     OW 2118   1.001   1.896   1.154
  705SOL    HW1 2119   0.938   1.824   1.123
  705SOL    HW2 2120   1.094   1.860   1.154
  706SOL     OW 2121   0.770   3.192   0.301
  706SOL    HW1 2122   0.724   3.105   0.318
  706SOL    HW2 2123   0.861   3.189   0.342
  707SOL     OW 2124   0.618   3.429   1.284
  707SOL    HW1 2125   0.613   3.511   1.341
  707SOL    HW2 2126   0.707   3.426   1.239
  708SOL     OW 2127   1.352   1.914   0.168
  708SOL    HW1 2128   1.387   1.873   0.084
  708SOL    HW2 2129   1.262   1.876   0.188
  709SOL     OW 2130   1.300   2.315   0.691
  709SOL    HW1 2131   1.241   2.395   0.695
  709SOL    HW2 2132   1.315   2.280   0.784
  710SOL     OW 2133   1.593   2.083   0.882
  710SOL    HW1 2134   1.509   2.082   0.936
  710SOL    HW2 2135   1.595   2.166   0.826
  711SOL     OW 2136   0.039   2.939   0.300
  711SOL    HW1 2137   0.138   2.928   0.291
  711SOL    HW2 2138  -0.001   2.853   0.332
  712SOL     OW 2139   0.875   3.508   0.337
  712SOL    HW1 2140   0.798   3.473   0.283
  712SOL    HW2 2141   0.843   3.579   0.399
  713SOL     OW 2142   0.230   2.490   1.975
  713SOL    HW1 2143   0.137   2.488   2.012
  713SOL    HW2 2144   0.231   2.451   1.883
  714SOL     OW 2145   0.225   2.137   2.858
  714SOL    HW1 2146   0.260   2.120   2.950
  714SOL    HW2 2147   0.137   2.092   2.846
  715SOL     OW 2148   0.019   2.230   2.509
  715SOL    HW1 2149  -0.063   2.273   2.548
  715SOL    HW2 2150  -0.009   2.157   2.446
  716SOL     OW 2151   0.569   3.137   3.027
  716SOL    HW1 2152   0.476   3.130   2.990
  716SOL    HW2 2153   0.580   3.226   3.071
  717SOL     OW 2154   1.555   3.373   2.565
  717SOL    HW1 2155   1.498   3.357   2.646
  717SOL    HW2 2156   1.496   3.383   2.485
  718SOL     OW 2157   1.135   2.565   2.579
  718SOL    HW1 2158   1.192   2.643   2.554
  718SOL    HW2 2159   1.075   2.591   2.655
  719SOL     OW 2160   1.755   2.469   2.093
  719SOL    HW1 2161   1.743   2.456   1.994
  719SOL    HW2 2162   1.725   2.388   2.142
  720SOL     OW 2163   0.768   3.006   2.885
  720SOL    HW1 2164   0.690   3.023   2.945
  720SOL    HW2 2165   0.802   3.093   2.849
  721SOL     OW 2166   0.850   2.660   3.685
  721SOL    HW1 2167   0.846   2.736   3.750
  721SOL    HW2 2168   0.872   2.696   3.594
  722SOL     OW 2169   0.685   2.874   2.527
  722SOL    HW1 2170   0.754   2.858   2.597
  722SOL    HW2 2171   0.612   2.931   2.565
  723SOL     OW 2172   0.686   3.023   3.665
  723SOL    HW1 2173   0.746   3.102   3.679
  723SOL    HW2 2174   0.600   3.054   3.624
  724SOL     OW 2175   0.335   3.297   2.923
  724SOL    HW1 2176   0.257   3.266   2.870
  724SOL    HW2 2177   0.393   3.355   2.866
  725SOL     OW 2178   1.460   3.367   3.201
  725SOL    HW1 2179   1.484   3.461   3.227
  725SOL    HW2 2180   1.444   3.313   3.283
  726SOL     OW 2181   0.438   2.254   3.361
  726SOL    HW1 2182   0.520   2.198   3.370
  726SOL    HW2 2183   0.357   2.196   3.365
  727SOL     OW 2184   1.603   2.309   2.599
  727SOL    HW1 2185   1.529   2.355   2.549
  727SOL    HW2 2186   1.654   2.377   2.652
  728SOL     OW 2187   0.231   3.575   2.345
  728SOL    HW1 2188   0.265   3.652   2.399
  728SOL    HW2 2189   0.275   3.575   2.255
  729SOL     OW 2190   1.127   3.203   3.552
  729SOL    HW1 2191   1.174   3.203   3.640
  729SOL    HW2 2192   1.079   3.116   3.541
  730SOL     OW 2193   0.230   3.296   2.400
  730SOL    HW1 2194   0.204   3.392   2.400
  730SOL    HW2 2195   0.159   3.242   2.445
  731SOL     OW 2196   0.240   2.953   2.748
  731SOL    HW1 2197   0.254   2.869   2.800
  731SOL    HW2 2198   0.185   3.017   2.803
  732SOL     OW 2199   0.620   3.648   3.301
  732SOL    HW1 2200   0.528   3.631   3.336
  732SOL    HW2 2201   0.648   3.740   3.327
  733SOL     OW 2202   0.606   2.826   1.985
  733SOL    HW1 2203   0.613   2.910   1.931
  733SOL    HW2 2204   0.652   2.839   2.073
  734SOL     OW 2205   1.594   1.976   3.342
  734SOL    HW1 2206   1.576   2.043   3.270
  734SOL    HW2 2207   1.591   2.022   3.431
  735SOL     OW 2208   0.122   2.505   2.425
  735SOL    HW1 2209   0.077   2.417   2.442
  735SOL    HW2 2210   0.121   2.559   2.509
  736SOL     OW 2211   1.842   3.629   2.221
  736SOL    HW1 2212   1.896   3.600   2.301
  736SOL    HW2 2213   1.872   3.719   2.192
  737SOL     OW 2214   0.027   3.458   1.979
  737SOL    HW1 2215   0.008   3.362   2.000
  737SOL    HW2 2216  -0.006   3.516   2.054
  738SOL     OW 2217   1.689   2.784   2.474
  738SOL    HW1 2218   1.784   2.755   2.482
  738SOL    HW2 2219   1.681   2.849   2.399
  739SOL     OW 2220   1.641   2.970   2.294
  739SOL    HW1 2221   1.727   2.972   2.242
  739SOL    HW2 2222   1.655   3.017   2.382
  740SOL     OW 2223   0.113   2.599   3.459
  740SOL    HW1 2224   0.201   2.586   3.504
  740SOL    HW2 2225   0.100   2.696   3.437
  741SOL     OW 2226   0.613   3.227   2.588
  741SOL    HW1 2227   0.564   3.140   2.597
  741SOL    HW2 2228   0.590   3.270   2.501
  742SOL     OW 2229   1.293   3.090   3.285
  742SOL    HW1 2230   1.330   3.017   3.227
  742SOL    HW2 2231   1.345   3.095   3.370
  743SOL     OW 2232   0.809   1.866   2.364
  743SOL    HW1 2233   0.849   1.957   2.355
  743SOL    HW2 2234   0.709   1.874   2.370
  744SOL     OW 2235   0.197   2.838   3.126
  744SOL    HW1 2236   0.286   2.793   3.112
  744SOL    HW2 2237   0.124   2.773   3.107
  745SOL     OW 2238   1.525   2.861   2.052
  745SOL    HW1 2239   1.462   2.785   2.065
  745SOL    HW2 2240   1.573   2.879   2.138
  746SOL     OW 2241   1.187   3.654   3.478
  746SOL    HW1 2242   1.211   3.714   3.402
  746SOL    HW2 2243   1.194   3.559   3.448
  747SOL     OW 2244   0.317   2.113   3.663
  747SOL    HW1 2245   0.388   2.184   3.669
  747SOL    HW2 2246   0.229   2.152   3.691
  748SOL     OW 2247   1.466   3.279   2.815
  748SOL    HW1 2248   1.407   3.285   2.895
  748SOL    HW2 2249   1.451   3.191   2.769
  749SOL     OW 2250   1.667   3.576   2.434
  749SOL    HW1 2251   1.626   3.553   2.346
  749SOL    HW2 2252   1.649   3.502   2.499
  750SOL     OW 2253   0.598   2.591   2.132
  750SOL    HW1 2254   0.622   2.660   2.064
  750SOL    HW2 2255   0.520   2.624   2.186
  751SOL     OW 2256   1.281   2.207   2.806
  751SOL    HW1 2257   1.195   2.157   2.793
  751SOL    HW2 2258   1.343   2.153   2.862
  752SOL     OW 2259   1.576   3.524   2.169
  752SOL    HW1 2260   1.665   3.570   2.172
  752SOL    HW2 2261   1.555   3.500   2.074
  753SOL     OW 2262   0.807   2.467   3.327
  753SOL    HW1 2263   0.760   2.464   3.416
  753SOL    HW2 2264   0.756   2.412   3.261
  754SOL     OW 2265   1.394   2.331   3.536
  754SOL    HW1 2266   1.374   2.374   3.624
  754SOL    HW2 2267   1.472   2.269   3.545
  755SOL     OW 2268   0.973   2.752   3.434
  755SOL    HW1 2269   1.019   2.668   3.405
  755SOL    HW2 2270   0.917   2.786   3.359
  756SOL     OW 2271   0.991   2.272   3.104
  756SOL    HW1 2272   0.914   2.306   3.158
  756SOL    HW2 2273   0.957   2.221   3.025
  757SOL     OW 2274   1.041   2.563   2.291
  757SOL    HW1 2275   1.067   2.559   2.387
  757SOL    HW2 2276   0.956   2.512   2.277
  758SOL     OW 2277   0.076   2.673   2.651
  758SOL    HW1 2278   0.175   2.661   2.660
  758SOL    HW2 2279   0.052   2.768   2.672
  759SOL     OW 2280   0.130   3.683   3.433
  759SOL    HW1 2281   0.120   3.668   3.532
  759SOL    HW2 2282   0.044   3.719   3.397
  760SOL     OW 2283   0.865   2.210   2.057
  760SOL    HW1 2284   0.924   2.273   2.008
  760SOL    HW2 2285   0.884   2.116   2.028
  761SOL     OW 2286   1.719   2.447   3.693
  761SOL    HW1 2287   1.693   2.536   3.657
  761SOL    HW2 2288   1.717   2.379   3.620
  762SOL     OW 2289   1.362   3.006   2.407
  762SOL    HW1 2290   1.445   2.977   2.359
  762SOL    HW2 2291   1.313   3.073   2.351
  763SOL     OW 2292   0.550   2.058   2.747
  763SOL    HW1 2293   0.545   2.053   2.847
  763SOL    HW2 2294   0.552   2.154   2.718
  764SOL     OW 2295   1.008   3.318   2.339
  764SOL    HW1 2296   0.962   3.390   2.287
  764SOL    HW2 2297   1.004   3.338   2.437
  765SOL     OW 2298   0.351   3.663   2.715
  765SOL    HW1 2299   0.401   3.577   2.721
  765SOL    HW2 2300   0.416   3.740   2.712
  766SOL     OW 2301   1.795   2.928   2.735
  766SOL    HW1 2302   1.733   2.913   2.659
  766SOL    HW2 2303   1.743   2.939   2.820
  767SOL     OW 2304   1.227   3.412   3.368
  767SOL    HW1 2305   1.233   3.335   3.432
  767SOL    HW2 2306   1.175   3.386   3.288
  768SOL     OW 2307   0.321   2.805   2.104
  768SOL    HW1 2308   0.403   2.844   2.062
  768SOL    HW2 2309   0.294   2.723   2.055
  769SOL     OW 2310   1.458   2.597   2.590
  769SOL    HW1 2311   1.453   2.532   2.665
  769SOL    HW2 2312   1.538   2.656   2.603
  770SOL     OW 2313   0.461   3.128   3.589
  770SOL    HW1 2314   0.411   3.129   3.503
  770SOL    HW2 2315   0.398   3.110   3.665
  771SOL     OW 2316   1.111   3.638   2.099
  771SOL    HW1 2317   1.051   3.576   2.149
  771SOL    HW2 2318   1.142   3.594   2.014
  772SOL     OW 2319   0.202   2.147   3.360
  772SOL    HW1 2320   0.122   2.207   3.347
  772SOL    HW2 2321   0.192   2.098   3.446
  773SOL     OW 2322   1.632   3.239   1.943
  773SOL    HW1 2323   1.600   3.333   1.933
  773SOL    HW2 2324   1.556   3.176   1.931
  774SOL     OW 2325   0.464   3.605   2.185
  774SOL    HW1 2326   0.497   3.644   2.271
  774SOL    HW2 2327   0.540   3.598   2.120
  775SOL     OW 2328   1.400   1.969   2.288
  775SOL    HW1 2329   1.376   1.932   2.198
  775SOL    HW2 2330   1.499   1.985   2.292
  776SOL     OW 2331   0.249   3.647   3.103
  776SOL    HW1 2332   0.306   3.582   3.153
  776SOL    HW2 2333   0.233   3.614   3.010
  777SOL     OW 2334   0.940   3.560   2.766
  777SOL    HW1 2335   1.020   3.503   2.787
  777SOL    HW2 2336   0.891   3.520   2.689
  778SOL     OW 2337   0.382   2.562   2.342
  778SOL    HW1 2338   0.427   2.472   2.339
  778SOL    HW2 2339   0.288   2.551   2.375
  779SOL     OW 2340   1.547   2.084   3.591
  779SOL    HW1 2341   1.542   2.121   3.683
  779SOL    HW2 2342   1.475   2.015   3.579
  780SOL     OW 2343   0.614   1.984   1.979
  780SOL    HW1 2344   0.712   1.962   1.986
  780SOL    HW2 2345   0.583   1.967   1.886
  781SOL     OW 2346   0.781   2.126   3.611
  781SOL    HW1 2347   0.848   2.065   3.654
  781SOL    HW2 2348   0.708   2.145   3.676
  782SOL     OW 2349   0.888   3.376   3.057
  782SOL    HW1 2350   0.865   3.351   2.963
  782SOL    HW2 2351   0.949   3.307   3.096
  783SOL     OW 2352   1.351   2.452   3.295
  783SOL    HW1 2353   1.379   2.409   3.380
  783SOL    HW2 2354   1.376   2.548   3.296
  784SOL     OW 2355   0.803   3.264   2.786
  784SOL    HW1 2356   0.893   3.278   2.744
  784SOL    HW2 2357   0.732   3.266   2.715
  785SOL     OW 2358   0.922   2.365   2.761
  785SOL    HW1 2359   0.897   2.356   2.665
  785SOL    HW2 2360   0.970   2.283   2.792
  786SOL     OW 2361   0.539   1.926   2.374
  786SOL    HW1 2362   0.458   1.927   2.432
  786SOL    HW2 2363   0.542   2.009   2.319
  787SOL     OW 2364   1.434   3.050   1.903
  787SOL    HW1 2365   1.466   2.974   1.960
  787SOL    HW2 2366   1.342   3.077   1.933
  788SOL     OW 2367   0.297   1.897   2.033
  788SOL    HW1 2368   0.346   1.981   2.012
  788SOL    HW2 2369   0.359   1.832   2.078
  789SOL     OW 2370   0.935   2.098   2.342
  789SOL    HW1 2371   0.887   2.139   2.264
  789SOL    HW2 2372   1.034   2.096   2.323
  790SOL     OW 2373   1.076   2.545   3.326
  790SOL    HW1 2374   0.996   2.484   3.329
  790SOL    HW2 2375   1.157   2.492   3.302
  791SOL     OW 2376   1.227   3.432   2.655
  791SOL    HW1 2377   1.248   3.506   2.590
  791SOL    HW2 2378   1.295   3.432   2.728
  792SOL     OW 2379   0.459   3.014   2.603
  792SOL    HW1 2380   0.388   2.987   2.668
  792SOL    HW2 2381   0.433   2.986   2.510
  793SOL     OW 2382   1.271   3.659   2.453
  793SOL    HW1 2383   1.315   3.723   2.389
  793SOL    HW2 2384   1.221   3.711   2.523
  794SOL     OW 2385   1.032   2.411   1.878
  794SOL    HW1 2386   0.991   2.493   1.839
  794SOL    HW2 2387   1.096   2.437   1.951
  795SOL     OW 2388   0.078   2.418   3.248
  795SOL    HW1 2389   0.170   2.417   3.207
  795SOL    HW2 2390   0.072   2.492   3.315
  796SOL     OW 2391   0.561   2.084   3.009
  796SOL    HW1 2392   0.599   2.000   3.046
  796SOL    HW2 2393   0.473   2.103   3.053
  797SOL     OW 2394   0.866   2.316   2.504
  797SOL    HW1 2395   0.834   2.388   2.442
  797SOL    HW2 2396   0.890   2.235   2.451
  798SOL     OW 2397   1.017   1.901   2.615
  798SOL    HW1 2398   0.945   1.906   2.546
  798SOL    HW2 2399   0.993   1.832   2.684
  799SOL     OW 2400   1.429   3.035   2.729
  799SOL    HW1 2401   1.374   2.951   2.722
  799SOL    HW2 2402   1.455   3.064   2.637
  800SOL     OW 2403   1.466   2.452   2.854
  800SOL    HW1 2404   1.436   2.357   2.861
  800SOL    HW2 2405   1.539   2.468   2.920
  801SOL     OW 2406   1.857   2.695   2.239
  801SOL    HW1 2407   1.899   2.631   2.303
  801SOL    HW2 2408   1.819   2.644   2.161
  802SOL     OW 2409   0.488   3.247   2.036
  802SOL    HW1 2410   0.401   3.232   2.083
  802SOL    HW2 2411   0.471   3.273   1.941
  803SOL     OW 2412   1.664   3.142   2.519
  803SOL    HW1 2413   1.763   3.150   2.533
  803SOL    HW2 2414   1.619   3.226   2.550
  804SOL     OW 2415   1.390   2.437   1.940
  804SOL    HW1 2416   1.336   2.416   2.021
  804SOL    HW2 2417   1.481   2.396   1.949
  805SOL     OW 2418   0.527   2.118   2.190
  805SOL    HW1 2419   0.554   2.059   2.115
  805SOL    HW2 2420   0.527   2.213   2.159
  806SOL     OW 2421   1.754   3.085   3.450
  806SOL    HW1 2422   1.845   3.046   3.437
  806SOL    HW2 2423   1.762   3.181   3.474
  807SOL     OW 2424   1.064   3.209   3.202
  807SOL    HW1 2425   0.984   3.186   3.257
  807SOL    HW2 2426   1.147   3.183   3.251
  808SOL     OW 2427   1.592   3.491   3.487
  808SOL    HW1 2428   1.619   3.525   3.397
  808SOL    HW2 2429   1.671   3.453   3.533
  809SOL     OW 2430   1.111   3.057   2.962
  809SOL    HW1 2431   1.071   3.101   3.043
  809SOL    HW2 2432   1.070   3.094   2.879
  810SOL     OW 2433   1.638   2.961   2.941
  810SOL    HW1 2434   1.643   3.042   3.000
  810SOL    HW2 2435   1.552   2.963   2.890
  811SOL     OW 2436   0.915   1.951   3.264
  811SOL    HW1 2437   0.940   1.931   3.169
  811SOL    HW2 2438   0.987   2.007   3.306
  812SOL     OW 2439   0.980   2.978   3.581
  812SOL    HW1 2440   0.881   2.984   3.591
  812SOL    HW2 2441   1.003   2.898   3.525
  813SOL     OW 2442   0.705   2.912   2.230
  813SOL    HW1 2443   0.691   2.919   2.329
  813SOL    HW2 2444   0.789   2.861   2.212
  814SOL     OW 2445   0.410   2.675   3.113
  814SOL    HW1 2446   0.496   2.687   3.163
  814SOL    HW2 2447   0.368   2.588   3.140
  815SOL     OW 2448   1.274   2.248   3.124
  815SOL    HW1 2449   1.295   2.322   3.188
  815SOL    HW2 2450   1.185   2.265   3.081
  816SOL     OW 2451   0.064   3.426   3.193
  816SOL    HW1 2452   0.018   3.508   3.159
  816SOL    HW2 2453   0.162   3.445   3.202
  817SOL     OW 2454   0.367   2.962   2.363
  817SOL    HW1 2455   0.360   3.045   2.307
  817SOL    HW2 2456   0.371   2.882   2.303
  818SOL     OW 2457   0.566   2.399   2.727
  818SOL    HW1 2458   0.578   2.465   2.653
  818SOL    HW2 2459   0.612   2.433   2.810
  819SOL     OW 2460   1.252   3.210   2.250
  819SOL    HW1 2461   1.302   3.287   2.290
  819SOL    HW2 2462   1.157   3.212   2.282
  820SOL     OW 2463   1.272   3.307   3.004
  820SOL    HW1 2464   1.319   3.320   3.091
  820SOL    HW2 2465   1.206   3.233   3.013
  821SOL     OW 2466   1.582   2.501   2.334
  821SOL    HW1 2467   1.551   2.562   2.407
  821SOL    HW2 2468   1.632   2.553   2.265
  822SOL     OW 2469   0.354   3.372   3.191
  822SOL    HW1 2470   0.333   3.328   3.104
  822SOL    HW2 2471   0.451   3.398   3.194
  823SOL     OW 2472   0.402   2.613   3.460
  823SOL    HW1 2473   0.470   2.668   3.413
  823SOL    HW2 2474   0.442   2.525   3.487
  824SOL     OW 2475   1.587   2.641   3.532
  824SOL    HW1 2476   1.495   2.679   3.527
  824SOL    HW2 2477   1.647   2.688   3.467
  825SOL     OW 2478   1.013   1.967   3.632
  825SOL    HW1 2479   1.019   2.052   3.580
  825SOL    HW2 2480   1.045   1.891   3.575
  826SOL     OW 2481   0.504   1.912   3.602
  826SOL    HW1 2482   0.462   1.855   3.532
  826SOL    HW2 2483   0.438   1.981   3.634
  827SOL     OW 2484   0.573   2.732   2.891
  827SOL    HW1 2485   0.617   2.821   2.882
  827SOL    HW2 2486   0.510   2.732   2.968
  828SOL     OW 2487   1.360   2.724   2.907
  828SOL    HW1 2488   1.285   2.724   2.841
  828SOL    HW2 2489   1.397   2.632   2.916
  829SOL     OW 2490   1.209   2.387   2.137
  829SOL    HW1 2491   1.222   2.303   2.191
  829SOL    HW2 2492   1.180   2.461   2.197
  830SOL     OW 2493   0.307   2.075   3.093
  830SOL    HW1 2494   0.284   2.112   3.183
  830SOL    HW2 2495   0.277   1.980   3.087
  831SOL     OW 2496   0.037   3.172   3.144
  831SOL    HW1 2497   0.090   3.123   3.212
  831SOL    HW2 2498   0.059   3.270   3.149
  832SOL     OW 2499   0.732   2.496   2.926
  832SOL    HW1 2500   0.791   2.470   2.850
  832SOL    HW2 2501   0.704   2.592   2.915
  833SOL     OW 2502   1.728   2.797   3.716
  833SOL    HW1 2503   1.682   2.790   3.627
  833SOL    HW2 2504   1.666   2.841   3.782
  834SOL     OW 2505   0.307   1.925   2.480
  834SOL    HW1 2506   0.296   2.019   2.513
  834SOL    HW2 2507   0.302   1.862   2.557
  835SOL     OW 2508   1.622   2.229   2.236
  835SOL    HW1 2509   1.624   2.153   2.300
  835SOL    HW2 2510   1.574   2.306   2.276
  836SOL     OW 2511   1.023   2.628   2.828
  836SOL    HW1 2512   1.038   2.649   2.924
  836SOL    HW2 2513   0.993   2.533   2.819
  837SOL     OW 2514   0.980   3.435   3.562
  837SOL    HW1 2515   0.960   3.479   3.474
  837SOL    HW2 2516   1.019   3.344   3.546
  838SOL     OW 2517   1.859   3.380   3.467
  838SOL    HW1 2518   1.873   3.407   3.372
  838SOL    HW2 2519   1.942   3.402   3.520
  839SOL     OW 2520   0.350   2.760   3.666
  839SOL    HW1 2521   0.426   2.804   3.714
  839SOL    HW2 2522   0.385   2.713   3.584
  840SOL     OW 2523   1.540   2.136   1.987
  840SOL    HW1 2524   1.479   2.061   2.010
  840SOL    HW2 2525   1.562   2.188   2.070
  841SOL     OW 2526   1.303   2.700   1.904
  841SOL    HW1 2527   1.337   2.607   1.919
  841SOL    HW2 2528   1.321   2.727   1.809
  842SOL     OW 2529   1.068   3.195   2.711
  842SOL    HW1 2530   1.075   3.111   2.656
  842SOL    HW2 2531   1.130   3.264   2.675
  843SOL     OW 2532   0.319   2.672   2.811
  843SOL    HW1 2533   0.412   2.708   2.816
  843SOL    HW2 2534   0.313   2.587   2.863
  844SOL     OW 2535   0.339   2.371   2.868
  844SOL    HW1 2536   0.287   2.288   2.851
  844SOL    HW2 2537   0.416   2.376   2.804
  845SOL     OW 2538   1.138   2.242   3.540
  845SOL    HW1 2539   1.093   2.305   3.604
  845SOL    HW2 2540   1.231   2.273   3.523
  846SOL     OW 2541   1.160   2.069   3.339
  846SOL    HW1 2542   1.160   2.133   3.416
  846SOL    HW2 2543   1.188   2.117   3.256
  847SOL     OW 2544   0.008   3.188   2.062
  847SOL    HW1 2545  -0.085   3.209   2.031
  847SOL    HW2 2546   0.018   3.089   2.075
  848SOL     OW 2547   0.088   3.663   2.789
  848SOL    HW1 2548   0.046   3.577   2.762
  848SOL    HW2 2549   0.182   3.666   2.755
  849SOL     OW 2550   0.504   3.430   2.772
  849SOL    HW1 2551   0.570   3.504   2.781
  849SOL    HW2 2552   0.548   3.351   2.730
  850SOL     OW 2553   1.002   2.658   3.100
  850SOL    HW1 2554   1.043   2.626   3.186
  850SOL    HW2 2555   0.906   2.631   3.097
  851SOL     OW 2556   0.040   2.406   2.976
  851SOL    HW1 2557   0.125   2.373   2.935
  851SOL    HW2 2558   0.053   2.421   3.074
  852SOL     OW 2559   0.189   2.382   3.584
  852SOL    HW1 2560   0.248   2.342   3.514
  852SOL    HW2 2561   0.131   2.453   3.543
  853SOL     OW 2562   1.369   2.812   3.522
  853SOL    HW1 2563   1.408   2.901   3.542
  853SOL    HW2 2564   1.379   2.792   3.425
  854SOL     OW 2565   0.815   2.434   2.187
  854SOL    HW1 2566   0.822   2.345   2.141
  854SOL    HW2 2567   0.721   2.468   2.179
  855SOL     OW 2568   1.657   2.466   3.068
  855SOL    HW1 2569   1.619   2.397   3.130
  855SOL    HW2 2570   1.739   2.430   3.024
  856SOL     OW 2571   0.252   3.426   3.606
  856SOL    HW1 2572   0.222   3.483   3.682
  856SOL    HW2 2573   0.245   3.329   3.632
  857SOL     OW 2574   0.671   2.326   3.131
  857SOL    HW1 2575   0.637   2.237   3.101
  857SOL    HW2 2576   0.697   2.380   3.051
  858SOL     OW 2577   0.930   3.540   3.327
  858SOL    HW1 2578   0.906   3.522   3.232
  858SOL    HW2 2579   0.960   3.634   3.337
  859SOL     OW 2580   0.473   2.362   2.053
  859SOL    HW1 2581   0.534   2.442   2.057
  859SOL    HW2 2582   0.378   2.393   2.060
  860SOL     OW 2583   0.159   2.999   3.328
  860SOL    HW1 2584   0.181   2.938   3.404
  860SOL    HW2 2585   0.169   2.950   3.242
  861SOL     OW 2586   1.347   2.921   3.096
  861SOL    HW1 2587   1.371   2.858   3.022
  861SOL    HW2 2588   1.257   2.961   3.078
  862SOL     OW 2589   1.302   2.717   2.171
  862SOL    HW1 2590   1.216   2.686   2.213
  862SOL    HW2 2591   1.298   2.703   2.072
  863SOL     OW 2592   1.759   3.609   3.016
  863SOL    HW1 2593   1.820   3.639   2.943
  863SOL    HW2 2594   1.721   3.520   2.994
  864SOL     OW 2595   1.252   3.593   2.990
  864SOL    HW1 2596   1.336   3.598   2.936
  864SOL    HW2 2597   1.229   3.497   3.008
  865SOL     OW 2598   0.083   3.120   2.884
  865SOL    HW1 2599   0.078   3.119   2.984
  865SOL    HW2 2600   0.000   3.079   2.846
  866SOL     OW 2601   0.688   3.524   3.578
  866SOL    HW1 2602   0.632   3.605   3.587
  866SOL    HW2 2603   0.740   3.528   3.492
  867SOL     OW 2604   1.726   1.997   2.385
  867SOL    HW1 2605   1.799   1.980   2.318
  867SOL    HW2 2606   1.695   1.910   2.423
  868SOL     OW 2607   1.388   3.435   2.339
  868SOL    HW1 2608   1.455   3.447   2.265
  868SOL    HW2 2609   1.348   3.524   2.362
  869SOL     OW 2610   0.130   3.656   3.713
  869SOL    HW1 2611   0.089   3.582   3.766
  869SOL    HW2 2612   0.194   3.707   3.771
  870SOL     OW 2613   1.280   2.789   2.534
  870SOL    HW1 2614   1.340   2.708   2.536
  870SOL    HW2 2615   1.320   2.858   2.474
  871SOL     OW 2616   0.830   3.135   3.284
  871SOL    HW1 2617   0.825   3.168   3.379
  871SOL    HW2 2618   0.744   3.154   3.238
  872SOL     OW 2619   0.672   3.478   2.016
  872SOL    HW1 2620   0.681   3.488   1.917
  872SOL    HW2 2621   0.632   3.389   2.037
  873SOL     OW 2622   1.650   3.582   3.256
  873SOL    HW1 2623   1.703   3.592   3.172
  873SOL    HW2 2624   1.623   3.672   3.290
  874SOL     OW 2625   1.841   2.037   2.825
  874SOL    HW1 2626   1.880   1.952   2.789
  874SOL    HW2 2627   1.743   2.039   2.806
  875SOL     OW 2628   0.263   2.188   2.582
  875SOL    HW1 2629   0.184   2.239   2.548
  875SOL    HW2 2630   0.254   2.173   2.680
  876SOL     OW 2631   1.194   3.474   1.893
  876SOL    HW1 2632   1.200   3.381   1.930
  876SOL    HW2 2633   1.135   3.474   1.813
  877SOL     OW 2634   0.822   2.864   3.234
  877SOL    HW1 2635   0.862   2.863   3.142
  877SOL    HW2 2636   0.832   2.956   3.274
  878SOL     OW 2637   0.916   2.772   2.153
  878SOL    HW1 2638   0.979   2.810   2.085
  878SOL    HW2 2639   0.956   2.689   2.192
  879SOL     OW 2640   1.504   3.469   1.906
  879SOL    HW1 2641   1.412   3.506   1.913
  879SOL    HW2 2642   1.542   3.489   1.816
  880SOL     OW 2643   0.372   3.150   3.352
  880SOL    HW1 2644   0.359   3.243   3.318
  880SOL    HW2 2645   0.288   3.098   3.339
  881SOL     OW 2646   1.614   3.154   3.151
  881SOL    HW1 2647   1.674   3.157   3.231
  881SOL    HW2 2648   1.539   3.218   3.164
  882SOL     OW 2649   1.039   2.960   2.558
  882SOL    HW1 2650   0.969   2.913   2.612
  882SOL    HW2 2651   1.098   2.892   2.515
  883SOL     OW 2652   1.014   2.098   2.833
  883SOL    HW1 2653   1.006   2.062   2.740
  883SOL    HW2 2654   1.012   2.022   2.898
  884SOL     OW 2655   0.590   3.349   2.353
  884SOL    HW1 2656   0.632   3.291   2.283
  884SOL    HW2 2657   0.546   3.428   2.309
  885SOL     OW 2658   1.709   2.247   3.243
  885SOL    HW1 2659   1.782   2.316   3.247
  885SOL    HW2 2660   1.737   2.172   3.184
  886SOL     OW 2661   0.255   3.210   2.152
  886SOL    HW1 2662   0.159   3.211   2.125
  886SOL    HW2 2663   0.267   3.263   2.236
  887SOL     OW 2664   0.105   2.875   3.588
  887SOL    HW1 2665   0.028   2.842   3.642
  887SOL    HW2 2666   0.190   2.845   3.630
  888SOL     OW 2667   0.672   2.065   3.351
  888SOL    HW1 2668   0.762   2.049   3.311
  888SOL    HW2 2669   0.680   2.070   3.450
  889SOL     OW 2670   0.075   2.207   1.895
  889SOL    HW1 2671  -0.017   2.179   1.866
  889SOL    HW2 2672   0.106   2.284   1.839
  890SOL     OW 2673   1.440   2.718   3.260
  890SOL    HW1 2674   1.383   2.770   3.197
  890SOL    HW2 2675   1.536   2.730   3.236
  891SOL     OW 2676   0.072   2.028   2.180
  891SOL    HW1 2677   0.055   2.111   2.126
  891SOL    HW2 2678   0.162   1.991   2.158
  892SOL     OW 2679   1.183   3.197   1.981
  892SOL    HW1 2680   1.084   3.186   1.983
  892SOL    HW2 2681   1.217   3.212   2.074
  893SOL     OW 2682   0.613   2.704   3.293
  893SOL    HW1 2683   0.669   2.785   3.276
  893SOL    HW2 2684   0.672   2.624   3.296
  894SOL     OW 2685   1.493   3.629   2.821
  894SOL    HW1 2686   1.526   3.693   2.752
  894SOL    HW2 2687   1.559   3.623   2.896
  895SOL     OW 2688   0.716   2.427   3.570
  895SOL    HW1 2689   0.735   2.492   3.644
  895SOL    HW2 2690   0.776   2.347   3.579
  896SOL     OW 2691   1.450   3.082   3.495
  896SOL    HW1 2692   1.441   3.072   3.594
  896SOL    HW2 2693   1.546   3.075   3.469
  897SOL     OW 2694   0.390   3.603   3.422
  897SOL    HW1 2695   0.299   3.644   3.420
  897SOL    HW2 2696   0.383   3.509   3.454
  898SOL     OW 2697   1.674   2.745   3.116
  898SOL    HW1 2698   1.647   2.656   3.079
  898SOL    HW2 2699   1.675   2.813   3.043
  899SOL     OW 2700   1.225   2.187   2.311
  899SOL    HW1 2701   1.290   2.113   2.300
  899SOL    HW2 2702   1.245   2.237   2.395
  900SOL     OW 2703   0.594   2.607   2.514
  900SOL    HW1 2704   0.644   2.692   2.495
  900SOL    HW2 2705   0.506   2.609   2.466
  901SOL     OW 2706   1.777   2.204   3.504
  901SOL    HW1 2707   1.760   2.235   3.410
  901SOL    HW2 2708   1.693   2.167   3.542
  902SOL     OW 2709   1.730   2.796   3.379
  902SOL    HW1 2710   1.768   2.887   3.394
  902SOL    HW2 2711   1.722   2.779   3.280
  903SOL     OW 2712   0.859   3.236   1.878
  903SOL    HW1 2713   0.813   3.251   1.966
  903SOL    HW2 2714   0.903   3.321   1.848
  904SOL     OW 2715   0.661   3.652   2.815
  904SOL    HW1 2716   0.615   3.740   2.802
  904SOL    HW2 2717   0.760   3.664   2.808
  905SOL     OW 2718   0.859   2.818   2.723
  905SOL    HW1 2719   0.913   2.749   2.771
  905SOL    HW2 2720   0.827   2.887   2.789
  906SOL     OW 2721   1.083   2.846   1.949
  906SOL    HW1 2722   1.060   2.899   1.867
  906SOL    HW2 2723   1.164   2.790   1.930
  907SOL     OW 2724   1.861   3.431   2.713
  907SOL    HW1 2725   1.790   3.419   2.643
  907SOL    HW2 2726   1.862   3.352   2.773
  908SOL     OW 2727   0.221   3.176   3.706
  908SOL    HW1 2728   0.156   3.103   3.685
  908SOL    HW2 2729   0.225   3.190   3.804
  909SOL     OW 2730   0.079   3.102   2.515
  909SOL    HW1 2731   0.078   3.055   2.603
  909SOL    HW2 2732   0.161   3.074   2.464
  910SOL     OW 2733   0.672   3.253   3.486
  910SOL    HW1 2734   0.594   3.203   3.524
  910SOL    HW2 2735   0.669   3.348   3.517
  911SOL     OW 2736   1.824   2.054   3.089
  911SOL    HW1 2737   1.820   1.964   3.133
  911SOL    HW2 2738   1.827   2.043   2.990
  912SOL     OW 2739   0.428   2.286   2.382
  912SOL    HW1 2740   0.458   2.214   2.320
  912SOL    HW2 2741   0.389   2.246   2.465
  913SOL     OW 2742   1.705   3.349   2.966
  913SOL    HW1 2743   1.612   3.324   2.939
  913SOL    HW2 2744   1.731   3.299   3.048
  914SOL     OW 2745   0.317   2.409   3.142
  914SOL    HW1 2746   0.355   2.350   3.214
  914SOL    HW2 2747   0.357   2.383   3.054
  915SOL     OW 2748   0.812   3.448   2.549
  915SOL    HW1 2749   0.844   3.458   2.455
  915SOL    HW2 2750   0.733   3.386   2.551
  916SOL     OW 2751   1.424   2.076   2.974
  916SOL    HW1 2752   1.476   2.011   3.029
  916SOL    HW2 2753   1.375   2.139   3.035
  917SOL     OW 2754   1.001   1.896   3.016
  917SOL    HW1 2755   0.938   1.824   2.985
  917SOL    HW2 2756   1.094   1.860   3.016
  918SOL     OW 2757   0.770   3.192   2.163
  918SOL    HW1 2758   0.724   3.105   2.180
  918SOL    HW2 2759   0.861   3.189   2.204
  919SOL     OW 2760   0.618   3.429   3.146
  919SOL    HW1 2761   0.613   3.511   3.203
  919SOL    HW2 2762   0.707   3.426   3.101
  920SOL     OW 2763   1.352   1.914   2.030
  920SOL    HW1 2764   1.387   1.873   1.946
  920SOL    HW2 2765   1.262   1.876   2.050
  921SOL     OW 2766   1.300   2.315   2.553
  921SOL    HW1 2767   1.241   2.395   2.557
  921SOL    HW2 2768   1.315   2.280   2.646
  922SOL     OW 2769   1.593   2.083   2.744
  922SOL    HW1 2770   1.509   2.082   2.798
  922SOL    HW2 2771   1.595   2.166   2.688
  923SOL     OW 2772   0.039   2.939   2.162
  923SOL    HW1 2773   0.138   2.928   2.153
  923SOL    HW2 2774  -0.001   2.853   2.194
  924SOL     OW 2775   0.875   3.508   2.199
  924SOL    HW1 2776   0.798   3.473   2.145
  924SOL    HW2 2777   0.843   3.579   2.261
  925SOL     OW 2778   0.230   2.490   3.837
  925SOL    HW1 2779   0.137   2.488   3.874
  925SOL    HW2 2780   0.231   2.451   3.745
  926SOL     OW 2781   1.755   2.469   3.955
  926SOL    HW1 2782   1.743   2.456   3.856
  926SOL    HW2 2783   1.725   2.388   4.004
  927SOL     OW 2784   0.231   3.575   4.207
  927SOL    HW1 2785   0.265   3.652   4.261
  927SOL    HW2 2786   0.275   3.575   4.117
  928SOL     OW 2787   0.230   3.296   4.262
  928SOL    HW1 2788   0.204   3.392   4.262
  928SOL    HW2 2789   0.159   3.242   4.307
  929SOL     OW 2790   0.606   2.826   3.847
  929SOL    HW1 2791   0.613   2.910   3.793
  929SOL    HW2 2792   0.652   2.839   3.935
  930SOL     OW 2793   0.122   2.505   4.287
  930SOL    HW1 2794   0.077   2.417   4.304
  930SOL    HW2 2795   0.121   2.559   4.371
  931SOL     OW 2796   1.842   3.629   4.083
  931SOL    HW1 2797   1.896   3.600   4.163
  931SOL    HW2 2798   1.872   3.719   4.054
  932SOL     OW 2799   0.027   3.458   3.841
  932SOL    HW1 2800   0.008   3.362   3.862
  932SOL    HW2 2801  -0.006   3.516   3.916
  933SOL     OW 2802   1.689   2.784   4.336
  933SOL    HW1 2803   1.784   2.755   4.344
  933SOL    HW2 2804   1.681   2.849   4.261
  934SOL     OW 2805   1.641   2.970   4.156
  934SOL    HW1 2806   1.727   2.972   4.104
  934SOL    HW2 2807   1.655   3.017   4.244
  935SOL     OW 2808   0.809   1.866   4.226
  935SOL    HW1 2809   0.849   1.957   4.217
  935SOL    HW2 2810   0.709   1.874   4.232
  936SOL     OW 2811   1.525   2.861   3.914
  936SOL    HW1 2812   1.462   2.785   3.927
  936SOL    HW2 2813   1.573   2.879   4.000
  937SOL     OW 2814   0.598   2.591   3.994
  937SOL    HW1 2815   0.622   2.660   3.926
  937SOL    HW2 2816   0.520   2.624   4.048
  938SOL     OW 2817   1.576   3.524   4.031
  938SOL    HW1 2818   1.665   3.570   4.034
  938SOL    HW2 2819   1.555   3.500   3.936
  939SOL     OW 2820   1.041   2.563   4.153
  939SOL    HW1 2821   1.067   2.559   4.249
  939SOL    HW2 2822   0.956   2.512   4.139
  940SOL     OW 2823   0.076   2.673   4.513
  940SOL    HW1 2824   0.175   2.661   4.522
  940SOL    HW2 2825   0.052   2.768   4.534
  941SOL     OW 2826   0.865   2.210   3.919
  941SOL    HW1 2827   0.924   2.273   3.870
  941SOL    HW2 2828   0.884   2.116   3.890
  942SOL     OW 2829   1.362   3.006   4.269
  942SOL    HW1 2830   1.445   2.977   4.221
  942SOL    HW2 2831   1.313   3.073   4.213
  943SOL     OW 2832   1.008   3.318   4.201
  943SOL    HW1 2833   0.962   3.390   4.149
  943SOL    HW2 2834   1.004   3.338   4.299
  944SOL     OW 2835   0.351   3.663   4.577
  944SOL    HW1 2836   0.401   3.577   4.583
  944SOL    HW2 2837   0.416   3.740   4.574
  945SOL     OW 2838   0.321   2.805   3.966
  945SOL    HW1 2839   0.403   2.844   3.924
  945SOL    HW2 2840   0.294   2.723   3.917
  946SOL     OW 2841   1.111   3.638   3.961
  946SOL    HW1 2842   1.051   3.576   4.011
  946SOL    HW2 2843   1.142   3.594   3.876
  947SOL     OW 2844   1.632   3.239   3.805
  947SOL    HW1 2845   1.600   3.333   3.795
  947SOL    HW2 2846   1.556   3.176   3.793
  948SOL     OW 2847   0.464   3.605   4.047
  948SOL    HW1 2848   0.497   3.644   4.133
  948SOL    HW2 2849   0.540   3.598   3.982
  949SOL     OW 2850   1.400   1.969   4.150
  949SOL    HW1 2851   1.376   1.932   4.060
  949SOL    HW2 2852   1.499   1.985   4.154
  950SOL     OW 2853   0.382   2.562   4.204
  950SOL    HW1 2854   0.427   2.472   4.201
  950SOL    HW2 2855   0.288   2.551   4.237
  951SOL     OW 2856   0.614   1.984   3.841
  951SOL    HW1 2857   0.712   1.962   3.848
  951SOL    HW2 2858   0.583   1.967   3.748
  952SOL     OW 2859   0.539   1.926   4.236
  952SOL    HW1 2860   0.458   1.927   4.294
  952SOL    HW2 2861   0.542   2.009   4.181
  953SOL     OW 2862   1.434   3.050   3.765
  953SOL    HW1 2863   1.466   2.974   3.822
  953SOL    HW2 2864   1.342   3.077   3.795
  954SOL     OW 2865   0.297   1.897   3.895
  954SOL    HW1 2866   0.346   1.981   3.874
  954SOL    HW2 2867   0.359   1.832   3.940
  955SOL     OW 2868   0.935   2.098   4.204
  955SOL    HW1 2869   0.887   2.139   4.126
  955SOL    HW2 2870   1.034   2.096   4.185
  956SOL     OW 2871   0.459   3.014   4.465
  956SOL    HW1 2872   0.388   2.987   4.530
  956SOL    HW2 2873   0.433   2.986   4.372
  957SOL     OW 2874   1.271   3.659   4.315
  957SOL    HW1 2875   1.315   3.723   4.251
  957SOL    HW2 2876   1.221   3.711   4.385
  958SOL     OW 2877   1.032   2.411   3.740
  958SOL    HW1 2878   0.991   2.493   3.701
  958SOL    HW2 2879   1.096   2.437   3.813
  959SOL     OW 2880   0.866   2.316   4.366
  959SOL    HW1 2881   0.834   2.388   4.304
  959SOL    HW2 2882   0.890   2.235   4.313
  960SOL     OW 2883   1.857   2.695   4.101
  960SOL    HW1 2884   1.899   2.631   4.165
  960SOL    HW2 2885   1.819   2.644   4.023
  961SOL     OW 2886   0.488   3.247   3.898
  961SOL    HW1 2887   0.401   3.232   3.945
  961SOL    HW2 2888   0.471   3.273   3.803
  962SOL     OW 2889   1.390   2.437   3.802
  962SOL    HW1 2890   1.336   2.416   3.883
  962SOL    HW2 2891   1.481   2.396   3.811
  963SOL     OW 2892   0.527   2.118   4.052
  963SOL    HW1 2893   0.554   2.059   3.977
  963SOL    HW2 2894   0.527   2.213   4.021
  964SOL     OW 2895   0.705   2.912   4.092
  964SOL    HW1 2896   0.691   2.919   4.191
  964SOL    HW2 2897   0.789   2.861   4.074
  965SOL     OW 2898   0.367   2.962   4.225
  965SOL    HW1 2899   0.360   3.045   4.169
  965SOL    HW2 2900   0.371   2.882   4.165
  966SOL     OW 2901   1.252   3.210   4.112
  966SOL    HW1 2902   1.302   3.287   4.152
  966SOL    HW2 2903   1.157   3.212   4.144
  967SOL     OW 2904   1.582   2.501   4.196
  967SOL    HW1 2905   1.551   2.562   4.269
  967SOL    HW2 2906   1.632   2.553   4.127
  968SOL     OW 2907   1.209   2.387   3.999
  968SOL    HW1 2908   1.222   2.303   4.053
  968SOL    HW2 2909   1.180   2.461   4.059
  969SOL     OW 2910   0.307   1.925   4.342
  969SOL    HW1 2911   0.296   2.019   4.375
  969SOL    HW2 2912   0.302   1.862   4.419
  970SOL     OW 2913   1.622   2.229   4.098
  970SOL    HW1 2914   1.624   2.153   4.162
  970SOL    HW2 2915   1.574   2.306   4.138
  971SOL     OW 2916   1.540   2.136   3.849
  971SOL    HW1 2917   1.479   2.061   3.872
  971SOL    HW2 2918   1.562   2.188   3.932
  972SOL     OW 2919   1.303   2.700   3.766
  972SOL    HW1 2920   1.337   2.607   3.781
  972SOL    HW2 2921   1.321   2.727   3.671
  973SOL     OW 2922   0.008   3.188   3.924
  973SOL    HW1 2923  -0.085   3.209   3.893
  973SOL    HW2 2924   0.018   3.089   3.937
  974SOL     OW 2925   0.815   2.434   4.049
  974SOL    HW1 2926   0.822   2.345   4.003
  974SOL    HW2 2927   0.721   2.468   4.041
  975SOL     OW 2928   0.473   2.362   3.915
  975SOL    HW1 2929   0.534   2.442   3.919
  975SOL    HW2 2930   0.378   2.393   3.922
  976SOL     OW 2931   1.302   2.717   4.033
  976SOL    HW1 2932   1.216   2.686   4.075
  976SOL    HW2 2933   1.298   2.703   3.934
  977SOL     OW 2934   1.726   1.997   4.247
  977SOL    HW1 2935   1.799   1.980   4.180
  977SOL    HW2 2936   1.695   1.910   4.285
  978SOL     OW 2937   1.388   3.435   4.201
  978SOL    HW1 2938   1.455   3.447   4.127
  978SOL    HW2 2939   1.348   3.524   4.224
  979SOL     OW 2940   0.672   3.478   3.878
  979SOL    HW1 2941   0.681   3.488   3.779
  979SOL    HW2 2942   0.632   3.389   3.899
  980SOL     OW 2943   1.194   3.474   3.755
  980SOL    HW1 2944   1.200   3.381   3.792
  980SOL    HW2 2945   1.135   3.474   3.675
  981SOL     OW 2946   0.916   2.772   4.015
  981SOL    HW1 2947   0.979   2.810   3.947
  981SOL    HW2 2948   0.956   2.689   4.054
  982SOL     OW 2949   1.504   3.469   3.768
  982SOL    HW1 2950   1.412   3.506   3.775
  982SOL    HW2 2951   1.542   3.489   3.678
  983SOL     OW 2952   0.590   3.349   4.215
  983SOL    HW1 2953   0.632   3.291   4.145
  983SOL    HW2 2954   0.546   3.428   4.171
  984SOL     OW 2955   0.255   3.210   4.014
  984SOL    HW1 2956   0.159   3.211   3.987
  984SOL    HW2 2957   0.267   3.263   4.098
  985SOL     OW 2958   0.075   2.207   3.757
  985SOL    HW1 2959  -0.017   2.179   3.728
  985SOL    HW2 2960   0.106   2.284   3.701
  986SOL     OW 2961   0.072   2.028   4.042
  986SOL    HW1 2962   0.055   2.111   3.988
  986SOL    HW2 2963   0.162   1.991   4.020
  987SOL     OW 2964   1.183   3.197   3.843
  987SOL    HW1 2965   1.084   3.186   3.845
  987SOL    HW2 2966   1.217   3.212   3.936
  988SOL     OW 2967   1.225   2.187   4.173
  988SOL    HW1 2968   1.290   2.113   4.162
  988SOL    HW2 2969   1.245   2.237   4.257
  989SOL     OW 2970   0.594   2.607   4.376
  989SOL    HW1 2971   0.644   2.692   4.357
  989SOL    HW2 2972   0.506   2.609   4.328
  990SOL     OW 2973   0.859   3.236   3.740
  990SOL    HW1 2974   0.813   3.251   3.828
  990SOL    HW2 2975   0.903   3.321   3.710
  991SOL     OW 2976   1.083   2.846   3.811
  991SOL    HW1 2977   1.060   2.899   3.729
  991SOL    HW2 2978   1.164   2.790   3.792
  992SOL     OW 2979   0.079   3.102   4.377
  992SOL    HW1 2980   0.078   3.055   4.465
  992SOL    HW2 2981   0.161   3.074   4.326
  993SOL     OW 2982   0.428   2.286   4.244
  993SOL    HW1 2983   0.458   2.214   4.182
  993SOL    HW2 2984   0.389   2.246   4.327
  994SOL     OW 2985   0.770   3.192   4.025
  994SOL    HW1 2986   0.724   3.105   4.042
  994SOL    HW2 2987   0.861   3.189   4.066
  995SOL     OW 2988   1.352   1.914   3.892
  995SOL    HW1 2989   1.387   1.873   3.808
  995SOL    HW2 2990   1.262   1.876   3.912
  996SOL     OW 2991   0.039   2.939   4.024
  996SOL    HW1 2992   0.138   2.928   4.015
  996SOL    HW2 2993  -0.001   2.853   4.056
  997SOL     OW 2994   0.875   3.508   4.061
  997SOL    HW1 2995   0.798   3.473   4.007
  997SOL    HW2 2996   0.843   3.579   4.123
  998SOL     OW 2997   0.225   3.999   0.996
  998SOL    HW1 2998   0.260   3.982   1.088
  998SOL    HW2 2999   0.137   3.954   0.984
  999SOL     OW 3000   0.019   4.092   0.647
  999SOL    HW1 3001  -0.063   4.135   0.686
  999SOL    HW2 3002  -0.009   4.019   0.584
 1000SOL     OW 3003   1.755   4.331   0.231
 1000SOL    HW1 3004   1.743   4.318   0.132
 1000SOL    HW2 3005   1.725   4.250   0.280
 1001SOL     OW 3006   0.438   4.116   1.499
 1001SOL    HW1 3007   0.520   4.060   1.508
 1001SOL    HW2 3008   0.357   4.058   1.503
 1002SOL     OW 3009   1.603   4.171   0.737
 1002SOL    HW1 3010   1.529   4.217   0.687
 1002SOL    HW2 3011   1.654   4.239   0.790
 1003SOL     OW 3012   1.594   3.838   1.480
 1003SOL    HW1 3013   1.576   3.905   1.408
 1003SOL    HW2 3014   1.591   3.884   1.569
 1004SOL     OW 3015   0.122   4.367   0.563
 1004SOL    HW1 3016   0.077   4.279   0.580
 1004SOL    HW2 3017   0.121   4.421   0.647
 1005SOL     OW 3018   0.809   3.728   0.502
 1005SOL    HW1 3019   0.849   3.819   0.493
 1005SOL    HW2 3020   0.709   3.736   0.508
 1006SOL     OW 3021   0.317   3.975   1.801
 1006SOL    HW1 3022   0.388   4.046   1.807
 1006SOL    HW2 3023   0.229   4.014   1.829
 1007SOL     OW 3024   1.281   4.069   0.944
 1007SOL    HW1 3025   1.195   4.019   0.931
 1007SOL    HW2 3026   1.343   4.015   1.000
 1008SOL     OW 3027   0.807   4.329   1.465
 1008SOL    HW1 3028   0.760   4.326   1.554
 1008SOL    HW2 3029   0.756   4.274   1.399
 1009SOL     OW 3030   1.394   4.193   1.674
 1009SOL    HW1 3031   1.374   4.236   1.762
 1009SOL    HW2 3032   1.472   4.131   1.683
 1010SOL     OW 3033   0.991   4.134   1.242
 1010SOL    HW1 3034   0.914   4.168   1.296
 1010SOL    HW2 3035   0.957   4.083   1.163
 1011SOL     OW 3036   1.041   4.425   0.429
 1011SOL    HW1 3037   1.067   4.421   0.525
 1011SOL    HW2 3038   0.956   4.374   0.415
 1012SOL     OW 3039   0.076   4.535   0.789
 1012SOL    HW1 3040   0.175   4.523   0.798
 1012SOL    HW2 3041   0.052   4.630   0.810
 1013SOL     OW 3042   0.865   4.072   0.195
 1013SOL    HW1 3043   0.924   4.135   0.146
 1013SOL    HW2 3044   0.884   3.978   0.166
 1014SOL     OW 3045   1.719   4.309   1.831
 1014SOL    HW1 3046   1.693   4.398   1.795
 1014SOL    HW2 3047   1.717   4.241   1.758
 1015SOL     OW 3048   0.550   3.920   0.885
 1015SOL    HW1 3049   0.545   3.915   0.985
 1015SOL    HW2 3050   0.552   4.016   0.856
 1016SOL     OW 3051   1.458   4.459   0.728
 1016SOL    HW1 3052   1.453   4.394   0.803
 1016SOL    HW2 3053   1.538   4.518   0.741
 1017SOL     OW 3054   0.202   4.009   1.498
 1017SOL    HW1 3055   0.122   4.069   1.485
 1017SOL    HW2 3056   0.192   3.960   1.584
 1018SOL     OW 3057   1.400   3.831   0.426
 1018SOL    HW1 3058   1.376   3.794   0.336
 1018SOL    HW2 3059   1.499   3.847   0.430
 1019SOL     OW 3060   1.547   3.946   1.729
 1019SOL    HW1 3061   1.542   3.983   1.821
 1019SOL    HW2 3062   1.475   3.877   1.717
 1020SOL     OW 3063   0.614   3.846   0.117
 1020SOL    HW1 3064   0.712   3.824   0.124
 1020SOL    HW2 3065   0.583   3.829   0.024
 1021SOL     OW 3066   0.781   3.988   1.749
 1021SOL    HW1 3067   0.848   3.927   1.792
 1021SOL    HW2 3068   0.708   4.007   1.814
 1022SOL     OW 3069   1.351   4.314   1.433
 1022SOL    HW1 3070   1.379   4.271   1.518
 1022SOL    HW2 3071   1.376   4.410   1.434
 1023SOL     OW 3072   0.922   4.227   0.899
 1023SOL    HW1 3073   0.897   4.218   0.803
 1023SOL    HW2 3074   0.970   4.145   0.930
 1024SOL     OW 3075   0.539   3.788   0.512
 1024SOL    HW1 3076   0.458   3.789   0.570
 1024SOL    HW2 3077   0.542   3.871   0.457
 1025SOL     OW 3078   0.935   3.960   0.480
 1025SOL    HW1 3079   0.887   4.001   0.402
 1025SOL    HW2 3080   1.034   3.958   0.461
 1026SOL     OW 3081   1.076   4.407   1.464
 1026SOL    HW1 3082   0.996   4.346   1.467
 1026SOL    HW2 3083   1.157   4.354   1.440
 1027SOL     OW 3084   1.032   4.273   0.016
 1027SOL    HW1 3085   0.991   4.355  -0.023
 1027SOL    HW2 3086   1.096   4.299   0.089
 1028SOL     OW 3087   0.078   4.280   1.386
 1028SOL    HW1 3088   0.170   4.279   1.345
 1028SOL    HW2 3089   0.072   4.354   1.453
 1029SOL     OW 3090   0.561   3.946   1.147
 1029SOL    HW1 3091   0.599   3.862   1.184
 1029SOL    HW2 3092   0.473   3.965   1.191
 1030SOL     OW 3093   0.866   4.178   0.642
 1030SOL    HW1 3094   0.834   4.250   0.580
 1030SOL    HW2 3095   0.890   4.097   0.589
 1031SOL     OW 3096   1.017   3.763   0.753
 1031SOL    HW1 3097   0.945   3.768   0.684
 1031SOL    HW2 3098   0.993   3.694   0.822
 1032SOL     OW 3099   1.466   4.314   0.992
 1032SOL    HW1 3100   1.436   4.219   0.999
 1032SOL    HW2 3101   1.539   4.330   1.058
 1033SOL     OW 3102   0.527   3.980   0.328
 1033SOL    HW1 3103   0.554   3.921   0.253
 1033SOL    HW2 3104   0.527   4.075   0.297
 1034SOL     OW 3105   0.915   3.813   1.402
 1034SOL    HW1 3106   0.940   3.793   1.307
 1034SOL    HW2 3107   0.987   3.869   1.444
 1035SOL     OW 3108   1.274   4.110   1.262
 1035SOL    HW1 3109   1.295   4.184   1.326
 1035SOL    HW2 3110   1.185   4.127   1.219
 1036SOL     OW 3111   0.566   4.261   0.865
 1036SOL    HW1 3112   0.578   4.327   0.791
 1036SOL    HW2 3113   0.612   4.295   0.948
 1037SOL     OW 3114   1.582   4.363   0.472
 1037SOL    HW1 3115   1.551   4.424   0.545
 1037SOL    HW2 3116   1.632   4.415   0.403
 1038SOL     OW 3117   1.013   3.829   1.770
 1038SOL    HW1 3118   1.019   3.914   1.718
 1038SOL    HW2 3119   1.045   3.753   1.713
 1039SOL     OW 3120   0.504   3.774   1.740
 1039SOL    HW1 3121   0.462   3.717   1.670
 1039SOL    HW2 3122   0.438   3.843   1.772
 1040SOL     OW 3123   1.209   4.249   0.275
 1040SOL    HW1 3124   1.222   4.165   0.329
 1040SOL    HW2 3125   1.180   4.323   0.335
 1041SOL     OW 3126   0.307   3.937   1.231
 1041SOL    HW1 3127   0.284   3.974   1.321
 1041SOL    HW2 3128   0.277   3.842   1.225
 1042SOL     OW 3129   0.732   4.358   1.064
 1042SOL    HW1 3130   0.791   4.332   0.988
 1042SOL    HW2 3131   0.704   4.454   1.053
 1043SOL     OW 3132   0.307   3.787   0.618
 1043SOL    HW1 3133   0.296   3.881   0.651
 1043SOL    HW2 3134   0.302   3.724   0.695
 1044SOL     OW 3135   1.622   4.091   0.374
 1044SOL    HW1 3136   1.624   4.015   0.438
 1044SOL    HW2 3137   1.574   4.168   0.414
 1045SOL     OW 3138   1.540   3.998   0.125
 1045SOL    HW1 3139   1.479   3.923   0.148
 1045SOL    HW2 3140   1.562   4.050   0.208
 1046SOL     OW 3141   0.319   4.534   0.949
 1046SOL    HW1 3142   0.412   4.570   0.954
 1046SOL    HW2 3143   0.313   4.449   1.001
 1047SOL     OW 3144   0.339   4.233   1.006
 1047SOL    HW1 3145   0.287   4.150   0.989
 1047SOL    HW2 3146   0.416   4.238   0.942
 1048SOL     OW 3147   1.138   4.104   1.678
 1048SOL    HW1 3148   1.093   4.167   1.742
 1048SOL    HW2 3149   1.231   4.135   1.661
 1049SOL     OW 3150   1.160   3.931   1.477
 1049SOL    HW1 3151   1.160   3.995   1.554
 1049SOL    HW2 3152   1.188   3.979   1.394
 1050SOL     OW 3153   0.040   4.268   1.114
 1050SOL    HW1 3154   0.125   4.235   1.073
 1050SOL    HW2 3155   0.053   4.283   1.212
 1051SOL     OW 3156   0.189   4.244   1.722
 1051SOL    HW1 3157   0.248   4.204   1.652
 1051SOL    HW2 3158   0.131   4.315   1.681
 1052SOL     OW 3159   0.815   4.296   0.325
 1052SOL    HW1 3160   0.822   4.207   0.279
 1052SOL    HW2 3161   0.721   4.330   0.317
 1053SOL     OW 3162   1.657   4.328   1.206
 1053SOL    HW1 3163   1.619   4.259   1.268
 1053SOL    HW2 3164   1.739   4.292   1.162
 1054SOL     OW 3165   0.671   4.188   1.269
 1054SOL    HW1 3166   0.637   4.099   1.239
 1054SOL    HW2 3167   0.697   4.242   1.189
 1055SOL     OW 3168   0.903   3.810   0.133
 1055SOL    HW1 3169   0.954   3.811   0.047
 1055SOL    HW2 3170   0.959   3.768   0.204
 1056SOL     OW 3171   1.726   3.859   0.523
 1056SOL    HW1 3172   1.799   3.842   0.456
 1056SOL    HW2 3173   1.695   3.772   0.561
 1057SOL     OW 3174   1.841   3.899   0.963
 1057SOL    HW1 3175   1.880   3.814   0.927
 1057SOL    HW2 3176   1.743   3.901   0.944
 1058SOL     OW 3177   0.263   4.050   0.720
 1058SOL    HW1 3178   0.184   4.101   0.686
 1058SOL    HW2 3179   0.254   4.035   0.818
 1059SOL     OW 3180   1.014   3.960   0.971
 1059SOL    HW1 3181   1.006   3.924   0.878
 1059SOL    HW2 3182   1.012   3.884   1.036
 1060SOL     OW 3183   1.709   4.109   1.381
 1060SOL    HW1 3184   1.782   4.178   1.385
 1060SOL    HW2 3185   1.737   4.034   1.322
 1061SOL     OW 3186   0.672   3.927   1.489
 1061SOL    HW1 3187   0.762   3.911   1.449
 1061SOL    HW2 3188   0.680   3.932   1.588
 1062SOL     OW 3189   0.075   4.069   0.033
 1062SOL    HW1 3190  -0.017   4.041   0.004
 1062SOL    HW2 3191   0.106   4.146  -0.023
 1063SOL     OW 3192   0.072   3.890   0.318
 1063SOL    HW1 3193   0.055   3.973   0.264
 1063SOL    HW2 3194   0.162   3.853   0.296
 1064SOL     OW 3195   0.716   4.289   1.708
 1064SOL    HW1 3196   0.735   4.354   1.782
 1064SOL    HW2 3197   0.776   4.209   1.717
 1065SOL     OW 3198   1.225   4.049   0.449
 1065SOL    HW1 3199   1.290   3.975   0.438
 1065SOL    HW2 3200   1.245   4.099   0.533
 1066SOL     OW 3201   1.777   4.066   1.642
 1066SOL    HW1 3202   1.760   4.097   1.548
 1066SOL    HW2 3203   1.693   4.029   1.680
 1067SOL     OW 3204   1.083   4.708   0.087
 1067SOL    HW1 3205   1.060   4.761   0.005
 1067SOL    HW2 3206   1.164   4.652   0.068
 1068SOL     OW 3207   1.824   3.916   1.227
 1068SOL    HW1 3208   1.820   3.826   1.271
 1068SOL    HW2 3209   1.827   3.905   1.128
 1069SOL     OW 3210   0.428   4.148   0.520
 1069SOL    HW1 3211   0.458   4.076   0.458
 1069SOL    HW2 3212   0.389   4.108   0.603
 1070SOL     OW 3213   0.317   4.271   1.280
 1070SOL    HW1 3214   0.355   4.212   1.352
 1070SOL    HW2 3215   0.357   4.245   1.192
 1071SOL     OW 3216   1.424   3.938   1.112
 1071SOL    HW1 3217   1.476   3.873   1.167
 1071SOL    HW2 3218   1.375   4.001   1.173
 1072SOL     OW 3219   1.001   3.758   1.154
 1072SOL    HW1 3220   0.938   3.686   1.123
 1072SOL    HW2 3221   1.094   3.722   1.154
 1073SOL     OW 3222   1.352   3.776   0.168
 1073SOL    HW1 3223   1.387   3.735   0.084
 1073SOL    HW2 3224   1.262   3.738   0.188
 1074SOL     OW 3225   1.300   4.177   0.691
 1074SOL    HW1 3226   1.241   4.257   0.695
 1074SOL    HW2 3227   1.315   4.142   0.784
 1075SOL     OW 3228   1.593   3.945   0.882
 1075SOL    HW1 3229   1.509   3.944   0.936
 1075SOL    HW2 3230   1.595   4.028   0.826
 1076SOL     OW 3231   0.225   3.999   2.858
 1076SOL    HW1 3232   0.260   3.982   2.950
 1076SOL    HW2 3233   0.137   3.954   2.846
 1077SOL     OW 3234   0.019   4.092   2.509
 1077SOL    HW1 3235  -0.063   4.135   2.548
 1077SOL    HW2 3236  -0.009   4.019   2.446
 1078SOL     OW 3237   1.755   4.331   2.093
 1078SOL    HW1 3238   1.743   4.318   1.994
 1078SOL    HW2 3239   1.725   4.250   2.142
 1079SOL     OW 3240   0.438   4.116   3.361
 1079SOL    HW1 3241   0.520   4.060   3.370
 1079SOL    HW2 3242   0.357   4.058   3.365
 1080SOL     OW 3243   1.603   4.171   2.599
 1080SOL    HW1 3244   1.529   4.217   2.549
 1080SOL    HW2 3245   1.654   4.239   2.652
 1081SOL     OW 3246   1.594   3.838   3.342
 1081SOL    HW1 3247   1.576   3.905   3.270
 1081SOL    HW2 3248   1.591   3.884   3.431
 1082SOL     OW 3249   0.122   4.367   2.425
 1082SOL    HW1 3250   0.077   4.279   2.442
 1082SOL    HW2 3251   0.121   4.421   2.509
 1083SOL     OW 3252   0.809   3.728   2.364
 1083SOL    HW1 3253   0.849   3.819   2.355
 1083SOL    HW2 3254   0.709   3.736   2.370
 1084SOL     OW 3255   0.317   3.975   3.663
 1084SOL    HW1 3256   0.388   4.046   3.669
 1084SOL    HW2 3257   0.229   4.014   3.691
 1085SOL     OW 3258   1.281   4.069   2.806
 1085SOL    HW1 3259   1.195   4.019   2.793
 1085SOL    HW2 3260   1.343   4.015   2.862
 1086SOL     OW 3261   0.807   4.329   3.327
 1086SOL    HW1 3262   0.760   4.326   3.416
 1086SOL    HW2 3263   0.756   4.274   3.261
 1087SOL     OW 3264   1.394   4.193   3.536
 1087SOL    HW1 3265   1.374   4.236   3.624
 1087SOL    HW2 3266   1.472   4.131   3.545
 1088SOL     OW 3267   0.991   4.134   3.104
 1088SOL    HW1 3268   0.914   4.168   3.158
 1088SOL    HW2 3269   0.957   4.083   3.025
 1089SOL     OW 3270   1.041   4.425   2.291
 1089SOL    HW1 3271   1.067   4.421   2.387
 1089SOL    HW2 3272   0.956   4.374   2.277
 1090SOL     OW 3273   0.076   4.535   2.651
 1090SOL    HW1 3274   0.175   4.523   2.660
 1090SOL    HW2 3275   0.052   4.630   2.672
 1091SOL     OW 3276   0.865   4.072   2.057
 1091SOL    HW1 3277   0.924   4.135   2.008
 1091SOL    HW2 3278   0.884   3.978   2.028
 1092SOL     OW 3279   1.719   4.309   3.693
 1092SOL    HW1 3280   1.693   4.398   3.657
 1092SOL    HW2 3281   1.717   4.241   3.620
 1093SOL     OW 3282   0.550   3.920   2.747
 1093SOL    HW1 3283   0.545   3.915   2.847
 1093SOL    HW2 3284   0.552   4.016   2.718
 1094SOL     OW 3285   1.458   4.459   2.590
 1094SOL    HW1 3286   1.453   4.394   2.665
 1094SOL    HW2 3287   1.538   4.518   2.603
 1095SOL     OW 3288   0.202   4.009   3.360
 1095SOL    HW1 3289   0.122   4.069   3.347
 1095SOL    HW2 3290   0.192   3.960   3.446
 1096SOL     OW 3291   1.400   3.831   2.288
 1096SOL    HW1 3292   1.376   3.794   2.198
 1096SOL    HW2 3293   1.499   3.847   2.292
 1097SOL     OW 3294   1.547   3.946   3.591
 1097SOL    HW1 3295   1.542   3.983   3.683
 1097SOL    HW2 3296   1.475   3.877   3.579
 1098SOL     OW 3297   0.614   3.846   1.979
 1098SOL    HW1 3298   0.712   3.824   1.986
 1098SOL    HW2 3299   0.583   3.829   1.886
 1099SOL     OW 3300   0.781   3.988   3.611
 1099SOL    HW1 3301   0.848   3.927   3.654
 1099SOL    HW2 3302   0.708   4.007   3.676
 1100SOL     OW 3303   1.351   4.314   3.295
 1100SOL    HW1 3304   1.379   4.271   3.380
 1100SOL    HW2 3305   1.376   4.410   3.296
 1101SOL     OW 3306   0.922   4.227   2.761
 1101SOL    HW1 3307   0.897   4.218   2.665
 1101SOL    HW2 3308   0.970   4.145   2.792
 1102SOL     OW 3309   0.539   3.788   2.374
 1102SOL    HW1 3310   0.458   3.789   2.432
 1102SOL    HW2 3311   0.542   3.871   2.319
 1103SOL     OW 3312   0.297   3.759   2.033
 1103SOL    HW1 3313   0.346   3.843   2.012
 1103SOL    HW2 3314   0.359   3.694   2.078
 1104SOL     OW 3315   0.935   3.960   2.342
 1104SOL    HW1 3316   0.887   4.001   2.264
 1104SOL    HW2 3317   1.034   3.958   2.323
 1105SOL     OW 3318   1.076   4.407   3.326
 1105SOL    HW1 3319   0.996   4.346   3.329
 1105SOL    HW2 3320   1.157   4.354   3.302
 1106SOL     OW 3321   1.032   4.273   1.878
 1106SOL    HW1 3322   0.991   4.355   1.839
 1106SOL    HW2 3323   1.096   4.299   1.951
 1107SOL     OW 3324   0.078   4.280   3.248
 1107SOL    HW1 3325   0.170   4.279   3.207
 1107SOL    HW2 3326   0.072   4.354   3.315
 1108SOL     OW 3327   0.561   3.946   3.009
 1108SOL    HW1 3328   0.599   3.862   3.046
 1108SOL    HW2 3329   0.473   3.965   3.053
 1109SOL     OW 3330   0.866   4.178   2.504
 1109SOL    HW1 3331   0.834   4.250   2.442
 1109SOL    HW2 3332   0.890   4.097   2.451
 1110SOL     OW 3333   1.017   3.763   2.615
 1110SOL    HW1 3334   0.945   3.768   2.546
 1110SOL    HW2 3335   0.993   3.694   2.684
 1111SOL     OW 3336   1.466   4.314   2.854
 1111SOL    HW1 3337   1.436   4.219   2.861
 1111SOL    HW2 3338   1.539   4.330   2.920
 1112SOL     OW 3339   0.527   3.980   2.190
 1112SOL    HW1 3340   0.554   3.921   2.115
 1112SOL    HW2 3341   0.527   4.075   2.159
 1113SOL     OW 3342   0.915   3.813   3.264
 1113SOL    HW1 3343   0.940   3.793   3.169
 1113SOL    HW2 3344   0.987   3.869   3.306
 1114SOL     OW 3345   1.274   4.110   3.124
 1114SOL    HW1 3346   1.295   4.184   3.188
 1114SOL    HW2 3347   1.185   4.127   3.081
 1115SOL     OW 3348   0.566   4.261   2.727
 1115SOL    HW1 3349   0.578   4.327   2.653
 1115SOL    HW2 3350   0.612   4.295   2.810
 1116SOL     OW 3351   1.582   4.363   2.334
 1116SOL    HW1 3352   1.551   4.424   2.407
 1116SOL    HW2 3353   1.632   4.415   2.265
 1117SOL     OW 3354   1.013   3.829   3.632
 1117SOL    HW1 3355   1.019   3.914   3.580
 1117SOL    HW2 3356   1.045   3.753   3.575
 1118SOL     OW 3357   0.504   3.774   3.602
 1118SOL    HW1 3358   0.462   3.717   3.532
 1118SOL    HW2 3359   0.438   3.843   3.634
 1119SOL     OW 3360   1.209   4.249   2.137
 1119SOL    HW1 3361   1.222   4.165   2.191
 1119SOL    HW2 3362   1.180   4.323   2.197
 1120SOL     OW 3363   0.307   3.937   3.093
 1120SOL    HW1 3364   0.284   3.974   3.183
 1120SOL    HW2 3365   0.277   3.842   3.087
 1121SOL     OW 3366   0.732   4.358   2.926
 1121SOL    HW1 3367   0.791   4.332   2.850
 1121SOL    HW2 3368   0.704   4.454   2.915
 1122SOL     OW 3369   0.307   3.787   2.480
 1122SOL    HW1 3370   0.296   3.881   2.513
 1122SOL    HW2 3371   0.302   3.724   2.557
 1123SOL     OW 3372   1.622   4.091   2.236
 1123SOL    HW1 3373   1.624   4.015   2.300
 1123SOL    HW2 3374   1.574   4.168   2.276
 1124SOL     OW 3375   1.540   3.998   1.987
 1124SOL    HW1 3376   1.479   3.923   2.010
 1124SOL    HW2 3377   1.562   4.050   2.070
 1125SOL     OW 3378   0.319   4.534   2.811
 1125SOL    HW1 3379   0.412   4.570   2.816
 1125SOL    HW2 3380   0.313   4.449   2.863
 1126SOL     OW 3381   0.339   4.233   2.868
 1126SOL    HW1 3382   0.287   4.150   2.851
 1126SOL    HW2 3383   0.416   4.238   2.804
 1127SOL     OW 3384   1.138   4.104   3.540
 1127SOL    HW1 3385   1.093   4.167   3.604
 1127SOL    HW2 3386   1.231   4.135   3.523
 1128SOL     OW 3387   1.160   3.931   3.339
 1128SOL    HW1 3388   1.160   3.995   3.416
 1128SOL    HW2 3389   1.188   3.979   3.256
 1129SOL     OW 3390   0.040   4.268   2.976
 1129SOL    HW1 3391   0.125   4.235   2.935
 1129SOL    HW2 3392   0.053   4.283   3.074
 1130SOL     OW 3393   0.189   4.244   3.584
 1130SOL    HW1 3394   0.248   4.204   3.514
 1130SOL    HW2 3395   0.131   4.315   3.543
 1131SOL     OW 3396   0.815   4.296   2.187
 1131SOL    HW1 3397   0.822   4.207   2.141
 1131SOL    HW2 3398   0.721   4.330   2.179
 1132SOL     OW 3399   1.657   4.328   3.068
 1132SOL    HW1 3400   1.619   4.259   3.130
 1132SOL    HW2 3401   1.739   4.292   3.024
 1133SOL     OW 3402   0.671   4.188   3.131
 1133SOL    HW1 3403   0.637   4.099   3.101
 1133SOL    HW2 3404   0.697   4.242   3.051
 1134SOL     OW 3405   1.726   3.859   2.385
 1134SOL    HW1 3406   1.799   3.842   2.318
 1134SOL    HW2 3407   1.695   3.772   2.423
 1135SOL     OW 3408   1.841   3.899   2.825
 1135SOL    HW1 3409   1.880   3.814   2.789
 1135SOL    HW2 3410   1.743   3.901   2.806
 1136SOL     OW 3411   0.263   4.050   2.582
 1136SOL    HW1 3412   0.184   4.101   2.548
 1136SOL    HW2 3413   0.254   4.035   2.680
 1137SOL     OW 3414   1.014   3.960   2.833
 1137SOL    HW1 3415   1.006   3.924   2.740
 1137SOL    HW2 3416   1.012   3.884   2.898
 1138SOL     OW 3417   1.709   4.109   3.243
 1138SOL    HW1 3418   1.782   4.178   3.247
 1138SOL    HW2 3419   1.737   4.034   3.184
 1139SOL     OW 3420   0.672   3.927   3.351
 1139SOL    HW1 3421   0.762   3.911   3.311
 1139SOL    HW2 3422   0.680   3.932   3.450
 1140SOL     OW 3423   0.075   4.069   1.895
 1140SOL    HW1 3424  -0.017   4.041   1.866
 1140SOL    HW2 3425   0.106   4.146   1.839
 1141SOL     OW 3426   0.072   3.890   2.180
 1141SOL    HW1 3427   0.055   3.973   2.126
 1141SOL    HW2 3428   0.162   3.853   2.158
 1142SOL     OW 3429   0.716   4.289   3.570
 1142SOL    HW1 3430   0.735   4.354   3.644
 1142SOL    HW2 3431   0.776   4.209   3.579
 1143SOL     OW 3432   1.225   4.049   2.311
 1143SOL    HW1 3433   1.290   3.975   2.300
 1143SOL    HW2 3434   1.245   4.099   2.395
 1144SOL     OW 3435   1.777   4.066   3.504
 1144SOL    HW1 3436   1.760   4.097   3.410
 1144SOL    HW2 3437   1.693   4.029   3.542
 1145SOL     OW 3438   1.083   4.708   1.949
 1145SOL    HW1 3439   1.060   4.761   1.867
 1145SOL    HW2 3440   1.164   4.652   1.930
 1146SOL     OW 3441   1.824   3.916   3.089
 1146SOL    HW1 3442   1.820   3.826   3.133
 1146SOL    HW2 3443   1.827   3.905   2.990
 1147SOL     OW 3444   0.428   4.148   2.382
 1147SOL    HW1 3445   0.458   4.076   2.320
 1147SOL    HW2 3446   0.389   4.108   2.465
 1148SOL     OW 3447   0.317   4.271   3.142
 1148SOL    HW1 3448   0.355   4.212   3.214
 1148SOL    HW2 3449   0.357   4.245   3.054
 1149SOL     OW 3450   1.424   3.938   2.974
 1149SOL    HW1 3451   1.476   3.873   3.029
 1149SOL    HW2 3452   1.375   4.001   3.035
 1150SOL     OW 3453   1.001   3.758   3.016
 1150SOL    HW1 3454   0.938   3.686   2.985
 1150SOL    HW2 3455   1.094   3.722   3.016
 1151SOL     OW 3456   1.352   3.776   2.030
 1151SOL    HW1 3457   1.387   3.735   1.946
 1151SOL    HW2 3458   1.262   3.738   2.050
 1152SOL     OW 3459   1.300   4.177   2.553
 1152SOL    HW1 3460   1.241   4.257   2.557
 1152SOL    HW2 3461   1.315   4.142   2.646
 1153SOL     OW 3462   1.593   3.945   2.744
 1153SOL    HW1 3463   1.509   3.944   2.798
 1153SOL    HW2 3464   1.595   4.028   2.688
 1154SOL     OW 3465   1.755   4.331   3.955
 1154SOL    HW1 3466   1.743   4.318   3.856
 1154SOL    HW2 3467   1.725   4.250   4.004
 1155SOL     OW 3468   0.122   4.367   4.287
 1155SOL    HW1 3469   0.077   4.279   4.304
 1155SOL    HW2 3470   0.121   4.421   4.371
 1156SOL     OW 3471   0.809   3.728   4.226
 1156SOL    HW1 3472   0.849   3.819   4.217
 1156SOL    HW2 3473   0.709   3.736   4.232
 1157SOL     OW 3474   1.041   4.425   4.153
 1157SOL    HW1 3475   1.067   4.421   4.249
 1157SOL    HW2 3476   0.956   4.374   4.139
 1158SOL     OW 3477   0.076   4.535   4.513
 1158SOL    HW1 3478   0.175   4.523   4.522
 1158SOL    HW2 3479   0.052   4.630   4.534
 1159SOL     OW 3480   0.865   4.072   3.919
 1159SOL    HW1 3481   0.924   4.135   3.870
 1159SOL    HW2 3482   0.884   3.978   3.890
 1160SOL     OW 3483   1.400   3.831   4.150
 1160SOL    HW1 3484   1.376   3.794   4.060
 1160SOL    HW2 3485   1.499   3.847   4.154
 1161SOL     OW 3486   0.614   3.846   3.841
 1161SOL    HW1 3487   0.712   3.824   3.848
 1161SOL    HW2 3488   0.583   3.829   3.748
 1162SOL     OW 3489   0.539   3.788   4.236
 1162SOL    HW1 3490   0.458   3.789   4.294
 1162SOL    HW2 3491   0.542   3.871   4.181
 1163SOL     OW 3492   0.297   3.759   3.895
 1163SOL    HW1 3493   0.346   3.843   3.874
 1163SOL    HW2 3494   0.359   3.694   3.940
 1164SOL     OW 3495   0.935   3.960   4.204
 1164SOL    HW1 3496   0.887   4.001   4.126
 1164SOL    HW2 3497   1.034   3.958   4.185
 1165SOL     OW 3498   1.032   4.273   3.740
 1165SOL    HW1 3499   0.991   4.355   3.701
 1165SOL    HW2 3500   1.096   4.299   3.813
 1166SOL     OW 3501   0.866   4.178   4.366
 1166SOL    HW1 3502   0.834   4.250   4.304
 1166SOL    HW2 3503   0.890   4.097   4.313
 1167SOL     OW 3504   0.527   3.980   4.052
 1167SOL    HW1 3505   0.554   3.921   3.977
 1167SOL    HW2 3506   0.527   4.075   4.021
 1168SOL     OW 3507   1.582   4.363   4.196
 1168SOL    HW1 3508   1.551   4.424   4.269
 1168SOL    HW2 3509   1.632   4.415   4.127
 1169SOL     OW 3510   1.209   4.249   3.999
 1169SOL    HW1 3511   1.222   4.165   4.053
 1169SOL    HW2 3512   1.180   4.323   4.059
 1170SOL     OW 3513   0.307   3.787   4.342
 1170SOL    HW1 3514   0.296   3.881   4.375
 1170SOL    HW2 3515   0.302   3.724   4.419
 1171SOL     OW 3516   1.622   4.091   4.098
 1171SOL    HW1 3517   1.624   4.015   4.162
 1171SOL    HW2 3518   1.574   4.168   4.138
 1172SOL     OW 3519   1.540   3.998   3.849
 1172SOL    HW1 3520   1.479   3.923   3.872
 1172SOL    HW2 3521   1.562   4.050   3.932
 1173SOL     OW 3522   0.339   4.233   4.730
 1173SOL    HW1 3523   0.287   4.150   4.713
 1173SOL    HW2 3524   0.416   4.238   4.666
 1174SOL     OW 3525   0.815   4.296   4.049
 1174SOL    HW1 3526   0.822   4.207   4.003
 1174SOL    HW2 3527   0.721   4.330   4.041
 1175SOL     OW 3528   1.726   3.859   4.247
 1175SOL    HW1 3529   1.799   3.842   4.180
 1175SOL    HW2 3530   1.695   3.772   4.285
 1176SOL     OW 3531   0.075   4.069   3.757
 1176SOL    HW1 3532  -0.017   4.041   3.728
 1176SOL    HW2 3533   0.106   4.146   3.701
 1177SOL     OW 3534   0.072   3.890   4.042
 1177SOL    HW1 3535   0.055   3.973   3.988
 1177SOL    HW2 3536   0.162   3.853   4.020
 1178SOL     OW 3537   1.225   4.049   4.173
 1178SOL    HW1 3538   1.290   3.975   4.162
 1178SOL    HW2 3539   1.245   4.099   4.257
 1179SOL     OW 3540   1.083   4.708   3.811
 1179SOL    HW1 3541   1.060   4.761   3.729
 1179SOL    HW2 3542   1.164   4.652   3.792
 1180SOL     OW 3543   0.428   4.148   4.244
 1180SOL    HW1 3544   0.458   4.076   4.182
 1180SOL    HW2 3545   0.389   4.108   4.327
 1181SOL     OW 3546   1.352   3.776   3.892
 1181SOL    HW1 3547   1.387   3.735   3.808
 1181SOL    HW2 3548   1.262   3.738   3.912
 1182SOL     OW 3549   1.300   4.177   4.415
 1182SOL    HW1 3550   1.241   4.257   4.419
 1182SOL    HW2 3551   1.315   4.142   4.508
 1183SOL     OW 3552   2.092   0.628   0.113
 1183SOL    HW1 3553   1.999   0.626   0.150
 1183SOL    HW2 3554   2.093   0.589   0.021
 1184SOL     OW 3555   2.087   0.275   0.996
 1184SOL    HW1 3556   2.122   0.258   1.088
 1184SOL    HW2 3557   1.999   0.230   0.984
 1185SOL     OW 3558   1.881   0.368   0.647
 1185SOL    HW1 3559   1.799   0.411   0.686
 1185SOL    HW2 3560   1.853   0.295   0.584
 1186SOL     OW 3561   2.431   1.275   1.165
 1186SOL    HW1 3562   2.338   1.268   1.128
 1186SOL    HW2 3563   2.442   1.364   1.209
 1187SOL     OW 3564   3.417   1.511   0.703
 1187SOL    HW1 3565   3.360   1.495   0.784
 1187SOL    HW2 3566   3.358   1.521   0.623
 1188SOL     OW 3567   2.997   0.703   0.717
 1188SOL    HW1 3568   3.054   0.781   0.692
 1188SOL    HW2 3569   2.937   0.729   0.793
 1189SOL     OW 3570   3.617   0.607   0.231
 1189SOL    HW1 3571   3.605   0.594   0.132
 1189SOL    HW2 3572   3.587   0.526   0.280
 1190SOL     OW 3573   2.630   1.144   1.023
 1190SOL    HW1 3574   2.552   1.161   1.083
 1190SOL    HW2 3575   2.664   1.231   0.987
 1191SOL     OW 3576   2.712   0.798   1.823
 1191SOL    HW1 3577   2.708   0.874   1.888
 1191SOL    HW2 3578   2.734   0.834   1.732
 1192SOL     OW 3579   2.547   1.012   0.665
 1192SOL    HW1 3580   2.616   0.996   0.735
 1192SOL    HW2 3581   2.474   1.069   0.703
 1193SOL     OW 3582   2.548   1.161   1.803
 1193SOL    HW1 3583   2.608   1.240   1.817
 1193SOL    HW2 3584   2.462   1.192   1.762
 1194SOL     OW 3585   2.197   1.435   1.061
 1194SOL    HW1 3586   2.119   1.404   1.008
 1194SOL    HW2 3587   2.255   1.493   1.004
 1195SOL     OW 3588   3.322   1.505   1.339
 1195SOL    HW1 3589   3.346   1.599   1.365
 1195SOL    HW2 3590   3.306   1.451   1.421
 1196SOL     OW 3591   2.300   0.392   1.499
 1196SOL    HW1 3592   2.382   0.336   1.508
 1196SOL    HW2 3593   2.219   0.334   1.503
 1197SOL     OW 3594   3.465   0.447   0.737
 1197SOL    HW1 3595   3.391   0.493   0.687
 1197SOL    HW2 3596   3.516   0.515   0.790
 1198SOL     OW 3597   2.093   1.713   0.483
 1198SOL    HW1 3598   2.127   1.790   0.537
 1198SOL    HW2 3599   2.137   1.713   0.393
 1199SOL     OW 3600   2.989   1.341   1.690
 1199SOL    HW1 3601   3.036   1.341   1.778
 1199SOL    HW2 3602   2.941   1.254   1.679
 1200SOL     OW 3603   2.092   1.434   0.538
 1200SOL    HW1 3604   2.066   1.530   0.538
 1200SOL    HW2 3605   2.021   1.380   0.583
 1201SOL     OW 3606   2.102   1.091   0.886
 1201SOL    HW1 3607   2.116   1.007   0.938
 1201SOL    HW2 3608   2.047   1.155   0.941
 1202SOL     OW 3609   2.482   1.786   1.439
 1202SOL    HW1 3610   2.390   1.769   1.474
 1202SOL    HW2 3611   2.510   1.878   1.465
 1203SOL     OW 3612   2.468   0.964   0.123
 1203SOL    HW1 3613   2.475   1.048   0.069
 1203SOL    HW2 3614   2.514   0.977   0.211
 1204SOL     OW 3615   3.456   0.114   1.480
 1204SOL    HW1 3616   3.438   0.181   1.408
 1204SOL    HW2 3617   3.453   0.160   1.569
 1205SOL     OW 3618   1.984   0.643   0.563
 1205SOL    HW1 3619   1.939   0.555   0.580
 1205SOL    HW2 3620   1.983   0.697   0.647
 1206SOL     OW 3621   3.704   1.767   0.359
 1206SOL    HW1 3622   3.758   1.738   0.439
 1206SOL    HW2 3623   3.734   1.857   0.330
 1207SOL     OW 3624   1.889   1.596   0.117
 1207SOL    HW1 3625   1.870   1.500   0.138
 1207SOL    HW2 3626   1.856   1.654   0.192
 1208SOL     OW 3627   3.551   0.922   0.612
 1208SOL    HW1 3628   3.646   0.893   0.620
 1208SOL    HW2 3629   3.543   0.987   0.537
 1209SOL     OW 3630   3.503   1.108   0.432
 1209SOL    HW1 3631   3.589   1.110   0.380
 1209SOL    HW2 3632   3.517   1.155   0.520
 1210SOL     OW 3633   1.975   0.737   1.597
 1210SOL    HW1 3634   2.063   0.724   1.642
 1210SOL    HW2 3635   1.962   0.834   1.575
 1211SOL     OW 3636   2.475   1.365   0.726
 1211SOL    HW1 3637   2.426   1.278   0.735
 1211SOL    HW2 3638   2.452   1.408   0.639
 1212SOL     OW 3639   3.155   1.228   1.423
 1212SOL    HW1 3640   3.192   1.155   1.365
 1212SOL    HW2 3641   3.207   1.233   1.508
 1213SOL     OW 3642   2.671   0.004   0.502
 1213SOL    HW1 3643   2.711   0.095   0.493
 1213SOL    HW2 3644   2.571   0.012   0.508
 1214SOL     OW 3645   2.059   0.976   1.264
 1214SOL    HW1 3646   2.148   0.931   1.250
 1214SOL    HW2 3647   1.986   0.911   1.245
 1215SOL     OW 3648   3.387   0.999   0.190
 1215SOL    HW1 3649   3.324   0.923   0.203
 1215SOL    HW2 3650   3.435   1.017   0.276
 1216SOL     OW 3651   3.049   1.792   1.616
 1216SOL    HW1 3652   3.073   1.852   1.540
 1216SOL    HW2 3653   3.056   1.697   1.586
 1217SOL     OW 3654   2.179   0.251   1.801
 1217SOL    HW1 3655   2.250   0.322   1.807
 1217SOL    HW2 3656   2.091   0.290   1.829
 1218SOL     OW 3657   3.328   1.417   0.953
 1218SOL    HW1 3658   3.269   1.423   1.033
 1218SOL    HW2 3659   3.313   1.329   0.907
 1219SOL     OW 3660   3.529   1.714   0.572
 1219SOL    HW1 3661   3.488   1.691   0.484
 1219SOL    HW2 3662   3.511   1.640   0.637
 1220SOL     OW 3663   2.460   0.729   0.270
 1220SOL    HW1 3664   2.484   0.798   0.202
 1220SOL    HW2 3665   2.382   0.762   0.324
 1221SOL     OW 3666   3.143   0.345   0.944
 1221SOL    HW1 3667   3.057   0.295   0.931
 1221SOL    HW2 3668   3.205   0.291   1.000
 1222SOL     OW 3669   3.438   1.662   0.307
 1222SOL    HW1 3670   3.527   1.708   0.310
 1222SOL    HW2 3671   3.417   1.638   0.212
 1223SOL     OW 3672   2.669   0.605   1.465
 1223SOL    HW1 3673   2.622   0.602   1.554
 1223SOL    HW2 3674   2.618   0.550   1.399
 1224SOL     OW 3675   3.256   0.469   1.674
 1224SOL    HW1 3676   3.236   0.512   1.762
 1224SOL    HW2 3677   3.334   0.407   1.683
 1225SOL     OW 3678   2.835   0.890   1.572
 1225SOL    HW1 3679   2.881   0.806   1.543
 1225SOL    HW2 3680   2.779   0.924   1.497
 1226SOL     OW 3681   2.853   0.410   1.242
 1226SOL    HW1 3682   2.776   0.444   1.296
 1226SOL    HW2 3683   2.819   0.359   1.163
 1227SOL     OW 3684   2.903   0.701   0.429
 1227SOL    HW1 3685   2.929   0.697   0.525
 1227SOL    HW2 3686   2.818   0.650   0.415
 1228SOL     OW 3687   1.938   0.811   0.789
 1228SOL    HW1 3688   2.037   0.799   0.798
 1228SOL    HW2 3689   1.914   0.906   0.810
 1229SOL     OW 3690   1.992   1.821   1.571
 1229SOL    HW1 3691   1.982   1.806   1.670
 1229SOL    HW2 3692   1.906   1.857   1.535
 1230SOL     OW 3693   2.727   0.348   0.195
 1230SOL    HW1 3694   2.786   0.411   0.146
 1230SOL    HW2 3695   2.746   0.254   0.166
 1231SOL     OW 3696   3.581   0.585   1.831
 1231SOL    HW1 3697   3.555   0.674   1.795
 1231SOL    HW2 3698   3.579   0.517   1.758
 1232SOL     OW 3699   3.224   1.144   0.545
 1232SOL    HW1 3700   3.307   1.115   0.497
 1232SOL    HW2 3701   3.175   1.211   0.489
 1233SOL     OW 3702   2.412   0.196   0.885
 1233SOL    HW1 3703   2.407   0.191   0.985
 1233SOL    HW2 3704   2.414   0.292   0.856
 1234SOL     OW 3705   2.870   1.456   0.477
 1234SOL    HW1 3706   2.824   1.528   0.425
 1234SOL    HW2 3707   2.866   1.476   0.575
 1235SOL     OW 3708   2.213   1.801   0.853
 1235SOL    HW1 3709   2.263   1.715   0.859
 1235SOL    HW2 3710   2.278   1.878   0.850
 1236SOL     OW 3711   3.657   1.066   0.873
 1236SOL    HW1 3712   3.595   1.051   0.797
 1236SOL    HW2 3713   3.605   1.077   0.958
 1237SOL     OW 3714   3.089   1.550   1.506
 1237SOL    HW1 3715   3.095   1.473   1.570
 1237SOL    HW2 3716   3.037   1.524   1.426
 1238SOL     OW 3717   2.183   0.943   0.242
 1238SOL    HW1 3718   2.265   0.982   0.200
 1238SOL    HW2 3719   2.156   0.861   0.193
 1239SOL     OW 3720   3.320   0.735   0.728
 1239SOL    HW1 3721   3.315   0.670   0.803
 1239SOL    HW2 3722   3.400   0.794   0.741
 1240SOL     OW 3723   2.323   1.266   1.727
 1240SOL    HW1 3724   2.273   1.267   1.641
 1240SOL    HW2 3725   2.260   1.248   1.803
 1241SOL     OW 3726   2.973   1.776   0.237
 1241SOL    HW1 3727   2.913   1.714   0.287
 1241SOL    HW2 3728   3.004   1.732   0.152
 1242SOL     OW 3729   2.064   0.285   1.498
 1242SOL    HW1 3730   1.984   0.345   1.485
 1242SOL    HW2 3731   2.054   0.236   1.584
 1243SOL     OW 3732   3.494   1.377   0.081
 1243SOL    HW1 3733   3.462   1.471   0.071
 1243SOL    HW2 3734   3.418   1.314   0.069
 1244SOL     OW 3735   2.326   1.743   0.323
 1244SOL    HW1 3736   2.359   1.782   0.409
 1244SOL    HW2 3737   2.402   1.736   0.258
 1245SOL     OW 3738   3.262   0.107   0.426
 1245SOL    HW1 3739   3.238   0.070   0.336
 1245SOL    HW2 3740   3.361   0.123   0.430
 1246SOL     OW 3741   2.111   1.785   1.241
 1246SOL    HW1 3742   2.168   1.720   1.291
 1246SOL    HW2 3743   2.095   1.752   1.148
 1247SOL     OW 3744   2.802   1.698   0.904
 1247SOL    HW1 3745   2.882   1.641   0.925
 1247SOL    HW2 3746   2.753   1.658   0.827
 1248SOL     OW 3747   2.244   0.700   0.480
 1248SOL    HW1 3748   2.289   0.610   0.477
 1248SOL    HW2 3749   2.150   0.689   0.513
 1249SOL     OW 3750   3.409   0.222   1.729
 1249SOL    HW1 3751   3.404   0.259   1.821
 1249SOL    HW2 3752   3.337   0.153   1.717
 1250SOL     OW 3753   2.476   0.122   0.117
 1250SOL    HW1 3754   2.574   0.100   0.124
 1250SOL    HW2 3755   2.445   0.105   0.024
 1251SOL     OW 3756   2.643   0.264   1.749
 1251SOL    HW1 3757   2.710   0.203   1.792
 1251SOL    HW2 3758   2.570   0.283   1.814
 1252SOL     OW 3759   2.750   1.514   1.195
 1252SOL    HW1 3760   2.727   1.489   1.101
 1252SOL    HW2 3761   2.811   1.445   1.234
 1253SOL     OW 3762   3.213   0.590   1.433
 1253SOL    HW1 3763   3.241   0.547   1.518
 1253SOL    HW2 3764   3.238   0.686   1.434
 1254SOL     OW 3765   2.665   1.402   0.924
 1254SOL    HW1 3766   2.755   1.416   0.882
 1254SOL    HW2 3767   2.594   1.404   0.853
 1255SOL     OW 3768   2.784   0.503   0.899
 1255SOL    HW1 3769   2.759   0.494   0.803
 1255SOL    HW2 3770   2.832   0.421   0.930
 1256SOL     OW 3771   2.401   0.064   0.512
 1256SOL    HW1 3772   2.320   0.065   0.570
 1256SOL    HW2 3773   2.404   0.147   0.457
 1257SOL     OW 3774   3.296   1.188   0.041
 1257SOL    HW1 3775   3.328   1.112   0.098
 1257SOL    HW2 3776   3.204   1.215   0.071
 1258SOL     OW 3777   2.159   0.035   0.171
 1258SOL    HW1 3778   2.208   0.119   0.150
 1258SOL    HW2 3779   2.221  -0.030   0.216
 1259SOL     OW 3780   2.797   0.236   0.480
 1259SOL    HW1 3781   2.749   0.277   0.402
 1259SOL    HW2 3782   2.896   0.234   0.461
 1260SOL     OW 3783   2.938   0.683   1.464
 1260SOL    HW1 3784   2.858   0.622   1.467
 1260SOL    HW2 3785   3.019   0.630   1.440
 1261SOL     OW 3786   3.089   1.570   0.793
 1261SOL    HW1 3787   3.110   1.644   0.728
 1261SOL    HW2 3788   3.157   1.570   0.866
 1262SOL     OW 3789   2.321   1.152   0.741
 1262SOL    HW1 3790   2.250   1.125   0.806
 1262SOL    HW2 3791   2.295   1.124   0.648
 1263SOL     OW 3792   3.133   1.797   0.591
 1263SOL    HW1 3793   3.177   1.861   0.527
 1263SOL    HW2 3794   3.083   1.849   0.661
 1264SOL     OW 3795   2.894   0.549   0.016
 1264SOL    HW1 3796   2.853   0.631  -0.023
 1264SOL    HW2 3797   2.958   0.575   0.089
 1265SOL     OW 3798   1.940   0.556   1.386
 1265SOL    HW1 3799   2.032   0.555   1.345
 1265SOL    HW2 3800   1.934   0.630   1.453
 1266SOL     OW 3801   2.423   0.222   1.147
 1266SOL    HW1 3802   2.461   0.138   1.184
 1266SOL    HW2 3803   2.335   0.241   1.191
 1267SOL     OW 3804   2.728   0.454   0.642
 1267SOL    HW1 3805   2.696   0.526   0.580
 1267SOL    HW2 3806   2.752   0.373   0.589
 1268SOL     OW 3807   2.879   0.039   0.753
 1268SOL    HW1 3808   2.807   0.044   0.684
 1268SOL    HW2 3809   2.855  -0.030   0.822
 1269SOL     OW 3810   3.291   1.173   0.867
 1269SOL    HW1 3811   3.236   1.089   0.860
 1269SOL    HW2 3812   3.317   1.202   0.775
 1270SOL     OW 3813   3.328   0.590   0.992
 1270SOL    HW1 3814   3.298   0.495   0.999
 1270SOL    HW2 3815   3.401   0.606   1.058
 1271SOL     OW 3816   3.719   0.833   0.377
 1271SOL    HW1 3817   3.761   0.769   0.441
 1271SOL    HW2 3818   3.681   0.782   0.299
 1272SOL     OW 3819   2.350   1.385   0.174
 1272SOL    HW1 3820   2.263   1.370   0.221
 1272SOL    HW2 3821   2.333   1.411   0.079
 1273SOL     OW 3822   3.526   1.280   0.657
 1273SOL    HW1 3823   3.625   1.288   0.671
 1273SOL    HW2 3824   3.481   1.364   0.688
 1274SOL     OW 3825   3.252   0.575   0.078
 1274SOL    HW1 3826   3.198   0.554   0.159
 1274SOL    HW2 3827   3.343   0.534   0.087
 1275SOL     OW 3828   2.389   0.256   0.328
 1275SOL    HW1 3829   2.416   0.197   0.253
 1275SOL    HW2 3830   2.389   0.351   0.297
 1276SOL     OW 3831   3.616   1.223   1.588
 1276SOL    HW1 3832   3.707   1.184   1.575
 1276SOL    HW2 3833   3.624   1.319   1.612
 1277SOL     OW 3834   2.926   1.347   1.340
 1277SOL    HW1 3835   2.846   1.324   1.395
 1277SOL    HW2 3836   3.009   1.321   1.389
 1278SOL     OW 3837   3.454   1.629   1.625
 1278SOL    HW1 3838   3.481   1.663   1.535
 1278SOL    HW2 3839   3.533   1.591   1.671
 1279SOL     OW 3840   2.973   1.195   1.100
 1279SOL    HW1 3841   2.933   1.239   1.181
 1279SOL    HW2 3842   2.932   1.232   1.017
 1280SOL     OW 3843   3.500   1.099   1.079
 1280SOL    HW1 3844   3.505   1.180   1.138
 1280SOL    HW2 3845   3.414   1.101   1.028
 1281SOL     OW 3846   2.777   0.089   1.402
 1281SOL    HW1 3847   2.802   0.069   1.307
 1281SOL    HW2 3848   2.849   0.145   1.444
 1282SOL     OW 3849   2.842   1.116   1.719
 1282SOL    HW1 3850   2.743   1.122   1.729
 1282SOL    HW2 3851   2.865   1.036   1.663
 1283SOL     OW 3852   2.567   1.050   0.368
 1283SOL    HW1 3853   2.553   1.057   0.467
 1283SOL    HW2 3854   2.651   0.999   0.350
 1284SOL     OW 3855   2.272   0.813   1.251
 1284SOL    HW1 3856   2.358   0.825   1.301
 1284SOL    HW2 3857   2.230   0.726   1.278
 1285SOL     OW 3858   3.136   0.386   1.262
 1285SOL    HW1 3859   3.157   0.460   1.326
 1285SOL    HW2 3860   3.047   0.403   1.219
 1286SOL     OW 3861   1.926   1.564   1.331
 1286SOL    HW1 3862   1.880   1.646   1.297
 1286SOL    HW2 3863   2.024   1.583   1.340
 1287SOL     OW 3864   2.229   1.100   0.501
 1287SOL    HW1 3865   2.222   1.183   0.445
 1287SOL    HW2 3866   2.233   1.020   0.441
 1288SOL     OW 3867   2.428   0.537   0.865
 1288SOL    HW1 3868   2.440   0.603   0.791
 1288SOL    HW2 3869   2.474   0.571   0.948
 1289SOL     OW 3870   3.114   1.348   0.388
 1289SOL    HW1 3871   3.164   1.425   0.428
 1289SOL    HW2 3872   3.019   1.350   0.420
 1290SOL     OW 3873   3.134   1.445   1.142
 1290SOL    HW1 3874   3.181   1.458   1.229
 1290SOL    HW2 3875   3.068   1.371   1.151
 1291SOL     OW 3876   3.444   0.639   0.472
 1291SOL    HW1 3877   3.413   0.700   0.545
 1291SOL    HW2 3878   3.494   0.691   0.403
 1292SOL     OW 3879   2.216   1.510   1.329
 1292SOL    HW1 3880   2.195   1.466   1.242
 1292SOL    HW2 3881   2.313   1.536   1.332
 1293SOL     OW 3882   2.264   0.751   1.598
 1293SOL    HW1 3883   2.332   0.806   1.551
 1293SOL    HW2 3884   2.304   0.663   1.625
 1294SOL     OW 3885   3.449   0.779   1.670
 1294SOL    HW1 3886   3.357   0.817   1.665
 1294SOL    HW2 3887   3.509   0.826   1.605
 1295SOL     OW 3888   2.875   0.105   1.770
 1295SOL    HW1 3889   2.881   0.190   1.718
 1295SOL    HW2 3890   2.907   0.029   1.713
 1296SOL     OW 3891   2.366   0.050   1.740
 1296SOL    HW1 3892   2.324  -0.007   1.670
 1296SOL    HW2 3893   2.300   0.119   1.772
 1297SOL     OW 3894   2.435   0.870   1.029
 1297SOL    HW1 3895   2.479   0.959   1.020
 1297SOL    HW2 3896   2.372   0.870   1.106
 1298SOL     OW 3897   3.222   0.862   1.045
 1298SOL    HW1 3898   3.147   0.862   0.979
 1298SOL    HW2 3899   3.259   0.770   1.054
 1299SOL     OW 3900   3.071   0.525   0.275
 1299SOL    HW1 3901   3.084   0.441   0.329
 1299SOL    HW2 3902   3.042   0.599   0.335
 1300SOL     OW 3903   2.169   0.213   1.231
 1300SOL    HW1 3904   2.146   0.250   1.321
 1300SOL    HW2 3905   2.139   0.118   1.225
 1301SOL     OW 3906   1.899   1.310   1.282
 1301SOL    HW1 3907   1.952   1.261   1.350
 1301SOL    HW2 3908   1.921   1.408   1.287
 1302SOL     OW 3909   2.594   0.634   1.064
 1302SOL    HW1 3910   2.653   0.608   0.988
 1302SOL    HW2 3911   2.566   0.730   1.053
 1303SOL     OW 3912   3.590   0.935   1.854
 1303SOL    HW1 3913   3.544   0.928   1.765
 1303SOL    HW2 3914   3.528   0.979   1.920
 1304SOL     OW 3915   2.169   0.063   0.618
 1304SOL    HW1 3916   2.158   0.157   0.651
 1304SOL    HW2 3917   2.164   0.000   0.695
 1305SOL     OW 3918   3.484   0.367   0.374
 1305SOL    HW1 3919   3.486   0.291   0.438
 1305SOL    HW2 3920   3.436   0.444   0.414
 1306SOL     OW 3921   2.885   0.766   0.966
 1306SOL    HW1 3922   2.900   0.787   1.062
 1306SOL    HW2 3923   2.855   0.671   0.957
 1307SOL     OW 3924   2.842   1.573   1.700
 1307SOL    HW1 3925   2.822   1.617   1.612
 1307SOL    HW2 3926   2.881   1.482   1.684
 1308SOL     OW 3927   3.721   1.518   1.605
 1308SOL    HW1 3928   3.735   1.545   1.510
 1308SOL    HW2 3929   3.804   1.540   1.658
 1309SOL     OW 3930   2.212   0.898   1.804
 1309SOL    HW1 3931   2.288   0.942   1.852
 1309SOL    HW2 3932   2.247   0.851   1.722
 1310SOL     OW 3933   3.402   0.274   0.125
 1310SOL    HW1 3934   3.341   0.199   0.148
 1310SOL    HW2 3935   3.424   0.326   0.208
 1311SOL     OW 3936   3.165   0.838   0.042
 1311SOL    HW1 3937   3.199   0.745   0.057
 1311SOL    HW2 3938   3.183   0.865  -0.053
 1312SOL     OW 3939   2.930   1.333   0.849
 1312SOL    HW1 3940   2.937   1.249   0.794
 1312SOL    HW2 3941   2.992   1.402   0.813
 1313SOL     OW 3942   2.181   0.810   0.949
 1313SOL    HW1 3943   2.274   0.846   0.954
 1313SOL    HW2 3944   2.175   0.725   1.001
 1314SOL     OW 3945   2.201   0.509   1.006
 1314SOL    HW1 3946   2.149   0.426   0.989
 1314SOL    HW2 3947   2.278   0.514   0.942
 1315SOL     OW 3948   3.000   0.380   1.678
 1315SOL    HW1 3949   2.955   0.443   1.742
 1315SOL    HW2 3950   3.093   0.411   1.661
 1316SOL     OW 3951   3.022   0.207   1.477
 1316SOL    HW1 3952   3.022   0.271   1.554
 1316SOL    HW2 3953   3.050   0.255   1.394
 1317SOL     OW 3954   1.870   1.326   0.200
 1317SOL    HW1 3955   1.777   1.347   0.169
 1317SOL    HW2 3956   1.880   1.227   0.213
 1318SOL     OW 3957   1.950   1.801   0.927
 1318SOL    HW1 3958   1.908   1.715   0.900
 1318SOL    HW2 3959   2.044   1.804   0.893
 1319SOL     OW 3960   2.366   1.568   0.910
 1319SOL    HW1 3961   2.432   1.642   0.919
 1319SOL    HW2 3962   2.410   1.489   0.868
 1320SOL     OW 3963   2.864   0.796   1.238
 1320SOL    HW1 3964   2.905   0.764   1.324
 1320SOL    HW2 3965   2.768   0.769   1.235
 1321SOL     OW 3966   1.902   0.544   1.114
 1321SOL    HW1 3967   1.987   0.511   1.073
 1321SOL    HW2 3968   1.915   0.559   1.212
 1322SOL     OW 3969   2.051   0.520   1.722
 1322SOL    HW1 3970   2.110   0.480   1.652
 1322SOL    HW2 3971   1.993   0.591   1.681
 1323SOL     OW 3972   3.231   0.950   1.660
 1323SOL    HW1 3973   3.270   1.039   1.680
 1323SOL    HW2 3974   3.241   0.930   1.563
 1324SOL     OW 3975   2.677   0.572   0.325
 1324SOL    HW1 3976   2.684   0.483   0.279
 1324SOL    HW2 3977   2.583   0.606   0.317
 1325SOL     OW 3978   3.519   0.604   1.206
 1325SOL    HW1 3979   3.481   0.535   1.268
 1325SOL    HW2 3980   3.601   0.568   1.162
 1326SOL     OW 3981   2.114   1.564   1.744
 1326SOL    HW1 3982   2.084   1.621   1.820
 1326SOL    HW2 3983   2.107   1.467   1.770
 1327SOL     OW 3984   2.533   0.464   1.269
 1327SOL    HW1 3985   2.499   0.375   1.239
 1327SOL    HW2 3986   2.559   0.518   1.189
 1328SOL     OW 3987   2.792   1.678   1.465
 1328SOL    HW1 3988   2.768   1.660   1.370
 1328SOL    HW2 3989   2.822   1.772   1.475
 1329SOL     OW 3990   2.335   0.500   0.191
 1329SOL    HW1 3991   2.396   0.580   0.195
 1329SOL    HW2 3992   2.240   0.531   0.198
 1330SOL     OW 3993   2.021   1.137   1.466
 1330SOL    HW1 3994   2.043   1.076   1.542
 1330SOL    HW2 3995   2.031   1.088   1.380
 1331SOL     OW 3996   3.209   1.059   1.234
 1331SOL    HW1 3997   3.233   0.996   1.160
 1331SOL    HW2 3998   3.119   1.099   1.216
 1332SOL     OW 3999   3.164   0.855   0.309
 1332SOL    HW1 4000   3.078   0.824   0.351
 1332SOL    HW2 4001   3.160   0.841   0.210
 1333SOL     OW 4002   3.621   1.747   1.154
 1333SOL    HW1 4003   3.682   1.777   1.081
 1333SOL    HW2 4004   3.583   1.658   1.132
 1334SOL     OW 4005   3.114   1.731   1.128
 1334SOL    HW1 4006   3.198   1.736   1.074
 1334SOL    HW2 4007   3.091   1.635   1.146
 1335SOL     OW 4008   1.945   1.258   1.022
 1335SOL    HW1 4009   1.940   1.257   1.122
 1335SOL    HW2 4010   1.862   1.217   0.984
 1336SOL     OW 4011   2.550   1.662   1.716
 1336SOL    HW1 4012   2.494   1.743   1.725
 1336SOL    HW2 4013   2.602   1.666   1.630
 1337SOL     OW 4014   2.765   0.086   0.133
 1337SOL    HW1 4015   2.816   0.087   0.047
 1337SOL    HW2 4016   2.821   0.044   0.204
 1338SOL     OW 4017   3.588   0.135   0.523
 1338SOL    HW1 4018   3.661   0.118   0.456
 1338SOL    HW2 4019   3.557   0.048   0.561
 1339SOL     OW 4020   3.250   1.573   0.477
 1339SOL    HW1 4021   3.317   1.585   0.403
 1339SOL    HW2 4022   3.210   1.662   0.500
 1340SOL     OW 4023   1.992   1.794   1.851
 1340SOL    HW1 4024   1.951   1.720   1.904
 1340SOL    HW2 4025   2.056   1.845   1.909
 1341SOL     OW 4026   3.142   0.927   0.672
 1341SOL    HW1 4027   3.202   0.846   0.674
 1341SOL    HW2 4028   3.182   0.996   0.612
 1342SOL     OW 4029   2.692   1.273   1.422
 1342SOL    HW1 4030   2.687   1.306   1.517
 1342SOL    HW2 4031   2.606   1.292   1.376
 1343SOL     OW 4032   2.534   1.616   0.154
 1343SOL    HW1 4033   2.543   1.626   0.055
 1343SOL    HW2 4034   2.494   1.527   0.175
 1344SOL     OW 4035   3.512   1.720   1.394
 1344SOL    HW1 4036   3.565   1.730   1.310
 1344SOL    HW2 4037   3.485   1.810   1.428
 1345SOL     OW 4038   3.703   0.175   0.963
 1345SOL    HW1 4039   3.742   0.090   0.927
 1345SOL    HW2 4040   3.605   0.177   0.944
 1346SOL     OW 4041   2.125   0.326   0.720
 1346SOL    HW1 4042   2.046   0.377   0.686
 1346SOL    HW2 4043   2.116   0.311   0.818
 1347SOL     OW 4044   3.056   1.612   0.031
 1347SOL    HW1 4045   3.062   1.519   0.068
 1347SOL    HW2 4046   2.997   1.612  -0.049
 1348SOL     OW 4047   2.684   1.002   1.372
 1348SOL    HW1 4048   2.724   1.001   1.280
 1348SOL    HW2 4049   2.694   1.094   1.412
 1349SOL     OW 4050   2.778   0.910   0.291
 1349SOL    HW1 4051   2.841   0.948   0.223
 1349SOL    HW2 4052   2.818   0.827   0.330
 1350SOL     OW 4053   3.366   1.607   0.044
 1350SOL    HW1 4054   3.274   1.644   0.051
 1350SOL    HW2 4055   3.404   1.627  -0.046
 1351SOL     OW 4056   2.234   1.288   1.490
 1351SOL    HW1 4057   2.221   1.381   1.456
 1351SOL    HW2 4058   2.150   1.236   1.477
 1352SOL     OW 4059   3.476   1.292   1.289
 1352SOL    HW1 4060   3.536   1.295   1.369
 1352SOL    HW2 4061   3.401   1.356   1.302
 1353SOL     OW 4062   2.901   1.098   0.696
 1353SOL    HW1 4063   2.831   1.051   0.750
 1353SOL    HW2 4064   2.960   1.030   0.653
 1354SOL     OW 4065   2.876   0.236   0.971
 1354SOL    HW1 4066   2.868   0.200   0.878
 1354SOL    HW2 4067   2.874   0.160   1.036
 1355SOL     OW 4068   2.452   1.487   0.491
 1355SOL    HW1 4069   2.494   1.429   0.421
 1355SOL    HW2 4070   2.408   1.566   0.447
 1356SOL     OW 4071   3.571   0.385   1.381
 1356SOL    HW1 4072   3.644   0.454   1.385
 1356SOL    HW2 4073   3.599   0.310   1.322
 1357SOL     OW 4074   2.117   1.348   0.290
 1357SOL    HW1 4075   2.021   1.349   0.263
 1357SOL    HW2 4076   2.129   1.401   0.374
 1358SOL     OW 4077   1.967   1.013   1.726
 1358SOL    HW1 4078   1.890   0.980   1.780
 1358SOL    HW2 4079   2.052   0.983   1.768
 1359SOL     OW 4080   2.534   0.203   1.489
 1359SOL    HW1 4081   2.624   0.187   1.449
 1359SOL    HW2 4082   2.542   0.208   1.588
 1360SOL     OW 4083   1.937   0.345   0.033
 1360SOL    HW1 4084   1.845   0.317   0.004
 1360SOL    HW2 4085   1.968   0.422  -0.023
 1361SOL     OW 4086   3.302   0.856   1.398
 1361SOL    HW1 4087   3.245   0.908   1.335
 1361SOL    HW2 4088   3.398   0.868   1.374
 1362SOL     OW 4089   3.045   1.335   0.119
 1362SOL    HW1 4090   2.946   1.324   0.121
 1362SOL    HW2 4091   3.079   1.350   0.212
 1363SOL     OW 4092   2.475   0.842   1.431
 1363SOL    HW1 4093   2.531   0.923   1.414
 1363SOL    HW2 4094   2.534   0.762   1.434
 1364SOL     OW 4095   3.355   1.767   0.959
 1364SOL    HW1 4096   3.388   1.831   0.890
 1364SOL    HW2 4097   3.421   1.761   1.034
 1365SOL     OW 4098   2.578   0.565   1.708
 1365SOL    HW1 4099   2.597   0.630   1.782
 1365SOL    HW2 4100   2.638   0.485   1.717
 1366SOL     OW 4101   3.312   1.220   1.633
 1366SOL    HW1 4102   3.303   1.210   1.732
 1366SOL    HW2 4103   3.408   1.213   1.607
 1367SOL     OW 4104   2.252   1.741   1.560
 1367SOL    HW1 4105   2.161   1.782   1.558
 1367SOL    HW2 4106   2.245   1.647   1.592
 1368SOL     OW 4107   3.536   0.883   1.254
 1368SOL    HW1 4108   3.509   0.794   1.217
 1368SOL    HW2 4109   3.537   0.951   1.181
 1369SOL     OW 4110   3.087   0.325   0.449
 1369SOL    HW1 4111   3.152   0.251   0.438
 1369SOL    HW2 4112   3.107   0.375   0.533
 1370SOL     OW 4113   2.456   0.745   0.652
 1370SOL    HW1 4114   2.506   0.830   0.633
 1370SOL    HW2 4115   2.368   0.747   0.604
 1371SOL     OW 4116   3.639   0.342   1.642
 1371SOL    HW1 4117   3.622   0.373   1.548
 1371SOL    HW2 4118   3.555   0.305   1.680
 1372SOL     OW 4119   3.592   0.934   1.517
 1372SOL    HW1 4120   3.630   1.025   1.532
 1372SOL    HW2 4121   3.584   0.917   1.418
 1373SOL     OW 4122   2.721   1.374   0.016
 1373SOL    HW1 4123   2.675   1.389   0.104
 1373SOL    HW2 4124   2.765   1.459  -0.014
 1374SOL     OW 4125   2.523   1.790   0.953
 1374SOL    HW1 4126   2.477   1.878   0.940
 1374SOL    HW2 4127   2.622   1.802   0.946
 1375SOL     OW 4128   2.721   0.956   0.861
 1375SOL    HW1 4129   2.775   0.887   0.909
 1375SOL    HW2 4130   2.689   1.025   0.927
 1376SOL     OW 4131   2.945   0.984   0.087
 1376SOL    HW1 4132   2.922   1.037   0.005
 1376SOL    HW2 4133   3.026   0.928   0.068
 1377SOL     OW 4134   3.723   1.569   0.851
 1377SOL    HW1 4135   3.652   1.557   0.781
 1377SOL    HW2 4136   3.724   1.490   0.911
 1378SOL     OW 4137   2.083   1.314   1.844
 1378SOL    HW1 4138   2.018   1.241   1.823
 1378SOL    HW2 4139   2.087   1.328   1.942
 1379SOL     OW 4140   1.941   1.240   0.653
 1379SOL    HW1 4141   1.940   1.193   0.741
 1379SOL    HW2 4142   2.023   1.212   0.602
 1380SOL     OW 4143   2.534   1.391   1.624
 1380SOL    HW1 4144   2.456   1.341   1.662
 1380SOL    HW2 4145   2.531   1.486   1.655
 1381SOL     OW 4146   3.686   0.192   1.227
 1381SOL    HW1 4147   3.682   0.102   1.271
 1381SOL    HW2 4148   3.689   0.181   1.128
 1382SOL     OW 4149   2.290   0.424   0.520
 1382SOL    HW1 4150   2.320   0.352   0.458
 1382SOL    HW2 4151   2.251   0.384   0.603
 1383SOL     OW 4152   3.567   1.487   1.104
 1383SOL    HW1 4153   3.474   1.462   1.077
 1383SOL    HW2 4154   3.593   1.437   1.186
 1384SOL     OW 4155   2.179   0.547   1.280
 1384SOL    HW1 4156   2.217   0.488   1.352
 1384SOL    HW2 4157   2.219   0.521   1.192
 1385SOL     OW 4158   2.674   1.586   0.687
 1385SOL    HW1 4159   2.706   1.596   0.593
 1385SOL    HW2 4160   2.595   1.524   0.689
 1386SOL     OW 4161   3.286   0.214   1.112
 1386SOL    HW1 4162   3.338   0.149   1.167
 1386SOL    HW2 4163   3.237   0.277   1.173
 1387SOL     OW 4164   2.863   0.034   1.154
 1387SOL    HW1 4165   2.800  -0.038   1.123
 1387SOL    HW2 4166   2.956  -0.002   1.154
 1388SOL     OW 4167   2.632   1.330   0.301
 1388SOL    HW1 4168   2.586   1.243   0.318
 1388SOL    HW2 4169   2.723   1.327   0.342
 1389SOL     OW 4170   2.480   1.567   1.284
 1389SOL    HW1 4171   2.475   1.649   1.341
 1389SOL    HW2 4172   2.569   1.564   1.239
 1390SOL     OW 4173   3.214   0.052   0.168
 1390SOL    HW1 4174   3.249   0.011   0.084
 1390SOL    HW2 4175   3.124   0.014   0.188
 1391SOL     OW 4176   3.162   0.453   0.691
 1391SOL    HW1 4177   3.103   0.533   0.695
 1391SOL    HW2 4178   3.177   0.418   0.784
 1392SOL     OW 4179   3.455   0.221   0.882
 1392SOL    HW1 4180   3.371   0.220   0.936
 1392SOL    HW2 4181   3.457   0.304   0.826
 1393SOL     OW 4182   1.901   1.077   0.300
 1393SOL    HW1 4183   2.000   1.066   0.291
 1393SOL    HW2 4184   1.861   0.991   0.332
 1394SOL     OW 4185   2.737   1.646   0.337
 1394SOL    HW1 4186   2.660   1.611   0.283
 1394SOL    HW2 4187   2.705   1.717   0.399
 1395SOL     OW 4188   2.092   0.628   1.975
 1395SOL    HW1 4189   1.999   0.626   2.012
 1395SOL    HW2 4190   2.093   0.589   1.883
 1396SOL     OW 4191   2.087   0.275   2.858
 1396SOL    HW1 4192   2.122   0.258   2.950
 1396SOL    HW2 4193   1.999   0.230   2.846
 1397SOL     OW 4194   1.881   0.368   2.509
 1397SOL    HW1 4195   1.799   0.411   2.548
 1397SOL    HW2 4196   1.853   0.295   2.446
 1398SOL     OW 4197   2.431   1.275   3.027
 1398SOL    HW1 4198   2.338   1.268   2.990
 1398SOL    HW2 4199   2.442   1.364   3.071
 1399SOL     OW 4200   3.417   1.511   2.565
 1399SOL    HW1 4201   3.360   1.495   2.646
 1399SOL    HW2 4202   3.358   1.521   2.485
 1400SOL     OW 4203   2.997   0.703   2.579
 1400SOL    HW1 4204   3.054   0.781   2.554
 1400SOL    HW2 4205   2.937   0.729   2.655
 1401SOL     OW 4206   3.617   0.607   2.093
 1401SOL    HW1 4207   3.605   0.594   1.994
 1401SOL    HW2 4208   3.587   0.526   2.142
 1402SOL     OW 4209   2.630   1.144   2.885
 1402SOL    HW1 4210   2.552   1.161   2.945
 1402SOL    HW2 4211   2.664   1.231   2.849
 1403SOL     OW 4212   2.712   0.798   3.685
 1403SOL    HW1 4213   2.708   0.874   3.750
 1403SOL    HW2 4214   2.734   0.834   3.594
 1404SOL     OW 4215   2.547   1.012   2.527
 1404SOL    HW1 4216   2.616   0.996   2.597
 1404SOL    HW2 4217   2.474   1.069   2.565
 1405SOL     OW 4218   2.548   1.161   3.665
 1405SOL    HW1 4219   2.608   1.240   3.679
 1405SOL    HW2 4220   2.462   1.192   3.624
 1406SOL     OW 4221   2.197   1.435   2.923
 1406SOL    HW1 4222   2.119   1.404   2.870
 1406SOL    HW2 4223   2.255   1.493   2.866
 1407SOL     OW 4224   3.322   1.505   3.201
 1407SOL    HW1 4225   3.346   1.599   3.227
 1407SOL    HW2 4226   3.306   1.451   3.283
 1408SOL     OW 4227   2.300   0.392   3.361
 1408SOL    HW1 4228   2.382   0.336   3.370
 1408SOL    HW2 4229   2.219   0.334   3.365
 1409SOL     OW 4230   3.465   0.447   2.599
 1409SOL    HW1 4231   3.391   0.493   2.549
 1409SOL    HW2 4232   3.516   0.515   2.652
 1410SOL     OW 4233   2.093   1.713   2.345
 1410SOL    HW1 4234   2.127   1.790   2.399
 1410SOL    HW2 4235   2.137   1.713   2.255
 1411SOL     OW 4236   2.989   1.341   3.552
 1411SOL    HW1 4237   3.036   1.341   3.640
 1411SOL    HW2 4238   2.941   1.254   3.541
 1412SOL     OW 4239   2.092   1.434   2.400
 1412SOL    HW1 4240   2.066   1.530   2.400
 1412SOL    HW2 4241   2.021   1.380   2.445
 1413SOL     OW 4242   2.102   1.091   2.748
 1413SOL    HW1 4243   2.116   1.007   2.800
 1413SOL    HW2 4244   2.047   1.155   2.803
 1414SOL     OW 4245   2.482   1.786   3.301
 1414SOL    HW1 4246   2.390   1.769   3.336
 1414SOL    HW2 4247   2.510   1.878   3.327
 1415SOL     OW 4248   2.468   0.964   1.985
 1415SOL    HW1 4249   2.475   1.048   1.931
 1415SOL    HW2 4250   2.514   0.977   2.073
 1416SOL     OW 4251   3.456   0.114   3.342
 1416SOL    HW1 4252   3.438   0.181   3.270
 1416SOL    HW2 4253   3.453   0.160   3.431
 1417SOL     OW 4254   1.984   0.643   2.425
 1417SOL    HW1 4255   1.939   0.555   2.442
 1417SOL    HW2 4256   1.983   0.697   2.509
 1418SOL     OW 4257   3.704   1.767   2.221
 1418SOL    HW1 4258   3.758   1.738   2.301
 1418SOL    HW2 4259   3.734   1.857   2.192
 1419SOL     OW 4260   1.889   1.596   1.979
 1419SOL    HW1 4261   1.870   1.500   2.000
 1419SOL    HW2 4262   1.856   1.654   2.054
 1420SOL     OW 4263   3.551   0.922   2.474
 1420SOL    HW1 4264   3.646   0.893   2.482
 1420SOL    HW2 4265   3.543   0.987   2.399
 1421SOL     OW 4266   3.503   1.108   2.294
 1421SOL    HW1 4267   3.589   1.110   2.242
 1421SOL    HW2 4268   3.517   1.155   2.382
 1422SOL     OW 4269   1.975   0.737   3.459
 1422SOL    HW1 4270   2.063   0.724   3.504
 1422SOL    HW2 4271   1.962   0.834   3.437
 1423SOL     OW 4272   2.475   1.365   2.588
 1423SOL    HW1 4273   2.426   1.278   2.597
 1423SOL    HW2 4274   2.452   1.408   2.501
 1424SOL     OW 4275   3.155   1.228   3.285
 1424SOL    HW1 4276   3.192   1.155   3.227
 1424SOL    HW2 4277   3.207   1.233   3.370
 1425SOL     OW 4278   2.671   0.004   2.364
 1425SOL    HW1 4279   2.711   0.095   2.355
 1425SOL    HW2 4280   2.571   0.012   2.370
 1426SOL     OW 4281   2.059   0.976   3.126
 1426SOL    HW1 4282   2.148   0.931   3.112
 1426SOL    HW2 4283   1.986   0.911   3.107
 1427SOL     OW 4284   3.387   0.999   2.052
 1427SOL    HW1 4285   3.324   0.923   2.065
 1427SOL    HW2 4286   3.435   1.017   2.138
 1428SOL     OW 4287   3.049   1.792   3.478
 1428SOL    HW1 4288   3.073   1.852   3.402
 1428SOL    HW2 4289   3.056   1.697   3.448
 1429SOL     OW 4290   2.179   0.251   3.663
 1429SOL    HW1 4291   2.250   0.322   3.669
 1429SOL    HW2 4292   2.091   0.290   3.691
 1430SOL     OW 4293   3.328   1.417   2.815
 1430SOL    HW1 4294   3.269   1.423   2.895
 1430SOL    HW2 4295   3.313   1.329   2.769
 1431SOL     OW 4296   3.529   1.714   2.434
 1431SOL    HW1 4297   3.488   1.691   2.346
 1431SOL    HW2 4298   3.511   1.640   2.499
 1432SOL     OW 4299   2.460   0.729   2.132
 1432SOL    HW1 4300   2.484   0.798   2.064
 1432SOL    HW2 4301   2.382   0.762   2.186
 1433SOL     OW 4302   3.143   0.345   2.806
 1433SOL    HW1 4303   3.057   0.295   2.793
 1433SOL    HW2 4304   3.205   0.291   2.862
 1434SOL     OW 4305   3.438   1.662   2.169
 1434SOL    HW1 4306   3.527   1.708   2.172
 1434SOL    HW2 4307   3.417   1.638   2.074
 1435SOL     OW 4308   2.669   0.605   3.327
 1435SOL    HW1 4309   2.622   0.602   3.416
 1435SOL    HW2 4310   2.618   0.550   3.261
 1436SOL     OW 4311   3.256   0.469   3.536
 1436SOL    HW1 4312   3.236   0.512   3.624
 1436SOL    HW2 4313   3.334   0.407   3.545
 1437SOL     OW 4314   2.835   0.890   3.434
 1437SOL    HW1 4315   2.881   0.806   3.405
 1437SOL    HW2 4316   2.779   0.924   3.359
 1438SOL     OW 4317   2.853   0.410   3.104
 1438SOL    HW1 4318   2.776   0.444   3.158
 1438SOL    HW2 4319   2.819   0.359   3.025
 1439SOL     OW 4320   2.903   0.701   2.291
 1439SOL    HW1 4321   2.929   0.697   2.387
 1439SOL    HW2 4322   2.818   0.650   2.277
 1440SOL     OW 4323   1.938   0.811   2.651
 1440SOL    HW1 4324   2.037   0.799   2.660
 1440SOL    HW2 4325   1.914   0.906   2.672
 1441SOL     OW 4326   1.992   1.821   3.433
 1441SOL    HW1 4327   1.982   1.806   3.532
 1441SOL    HW2 4328   1.906   1.857   3.397
 1442SOL     OW 4329   2.727   0.348   2.057
 1442SOL    HW1 4330   2.786   0.411   2.008
 1442SOL    HW2 4331   2.746   0.254   2.028
 1443SOL     OW 4332   3.581   0.585   3.693
 1443SOL    HW1 4333   3.555   0.674   3.657
 1443SOL    HW2 4334   3.579   0.517   3.620
 1444SOL     OW 4335   3.224   1.144   2.407
 1444SOL    HW1 4336   3.307   1.115   2.359
 1444SOL    HW2 4337   3.175   1.211   2.351
 1445SOL     OW 4338   2.412   0.196   2.747
 1445SOL    HW1 4339   2.407   0.191   2.847
 1445SOL    HW2 4340   2.414   0.292   2.718
 1446SOL     OW 4341   2.870   1.456   2.339
 1446SOL    HW1 4342   2.824   1.528   2.287
 1446SOL    HW2 4343   2.866   1.476   2.437
 1447SOL     OW 4344   2.213   1.801   2.715
 1447SOL    HW1 4345   2.263   1.715   2.721
 1447SOL    HW2 4346   2.278   1.878   2.712
 1448SOL     OW 4347   3.657   1.066   2.735
 1448SOL    HW1 4348   3.595   1.051   2.659
 1448SOL    HW2 4349   3.605   1.077   2.820
 1449SOL     OW 4350   3.089   1.550   3.368
 1449SOL    HW1 4351   3.095   1.473   3.432
 1449SOL    HW2 4352   3.037   1.524   3.288
 1450SOL     OW 4353   2.183   0.943   2.104
 1450SOL    HW1 4354   2.265   0.982   2.062
 1450SOL    HW2 4355   2.156   0.861   2.055
 1451SOL     OW 4356   3.320   0.735   2.590
 1451SOL    HW1 4357   3.315   0.670   2.665
 1451SOL    HW2 4358   3.400   0.794   2.603
 1452SOL     OW 4359   2.323   1.266   3.589
 1452SOL    HW1 4360   2.273   1.267   3.503
 1452SOL    HW2 4361   2.260   1.248   3.665
 1453SOL     OW 4362   2.973   1.776   2.099
 1453SOL    HW1 4363   2.913   1.714   2.149
 1453SOL    HW2 4364   3.004   1.732   2.014
 1454SOL     OW 4365   2.064   0.285   3.360
 1454SOL    HW1 4366   1.984   0.345   3.347
 1454SOL    HW2 4367   2.054   0.236   3.446
 1455SOL     OW 4368   3.494   1.377   1.943
 1455SOL    HW1 4369   3.462   1.471   1.933
 1455SOL    HW2 4370   3.418   1.314   1.931
 1456SOL     OW 4371   2.326   1.743   2.185
 1456SOL    HW1 4372   2.359   1.782   2.271
 1456SOL    HW2 4373   2.402   1.736   2.120
 1457SOL     OW 4374   3.262   0.107   2.288
 1457SOL    HW1 4375   3.238   0.070   2.198
 1457SOL    HW2 4376   3.361   0.123   2.292
 1458SOL     OW 4377   2.111   1.785   3.103
 1458SOL    HW1 4378   2.168   1.720   3.153
 1458SOL    HW2 4379   2.095   1.752   3.010
 1459SOL     OW 4380   2.802   1.698   2.766
 1459SOL    HW1 4381   2.882   1.641   2.787
 1459SOL    HW2 4382   2.753   1.658   2.689
 1460SOL     OW 4383   2.244   0.700   2.342
 1460SOL    HW1 4384   2.289   0.610   2.339
 1460SOL    HW2 4385   2.150   0.689   2.375
 1461SOL     OW 4386   3.409   0.222   3.591
 1461SOL    HW1 4387   3.404   0.259   3.683
 1461SOL    HW2 4388   3.337   0.153   3.579
 1462SOL     OW 4389   2.476   0.122   1.979
 1462SOL    HW1 4390   2.574   0.100   1.986
 1462SOL    HW2 4391   2.445   0.105   1.886
 1463SOL     OW 4392   2.643   0.264   3.611
 1463SOL    HW1 4393   2.710   0.203   3.654
 1463SOL    HW2 4394   2.570   0.283   3.676
 1464SOL     OW 4395   2.750   1.514   3.057
 1464SOL    HW1 4396   2.727   1.489   2.963
 1464SOL    HW2 4397   2.811   1.445   3.096
 1465SOL     OW 4398   3.213   0.590   3.295
 1465SOL    HW1 4399   3.241   0.547   3.380
 1465SOL    HW2 4400   3.238   0.686   3.296
 1466SOL     OW 4401   2.665   1.402   2.786
 1466SOL    HW1 4402   2.755   1.416   2.744
 1466SOL    HW2 4403   2.594   1.404   2.715
 1467SOL     OW 4404   2.784   0.503   2.761
 1467SOL    HW1 4405   2.759   0.494   2.665
 1467SOL    HW2 4406   2.832   0.421   2.792
 1468SOL     OW 4407   2.401   0.064   2.374
 1468SOL    HW1 4408   2.320   0.065   2.432
 1468SOL    HW2 4409   2.404   0.147   2.319
 1469SOL     OW 4410   3.296   1.188   1.903
 1469SOL    HW1 4411   3.328   1.112   1.960
 1469SOL    HW2 4412   3.204   1.215   1.933
 1470SOL     OW 4413   2.159   0.035   2.033
 1470SOL    HW1 4414   2.208   0.119   2.012
 1470SOL    HW2 4415   2.221  -0.030   2.078
 1471SOL     OW 4416   2.797   0.236   2.342
 1471SOL    HW1 4417   2.749   0.277   2.264
 1471SOL    HW2 4418   2.896   0.234   2.323
 1472SOL     OW 4419   2.938   0.683   3.326
 1472SOL    HW1 4420   2.858   0.622   3.329
 1472SOL    HW2 4421   3.019   0.630   3.302
 1473SOL     OW 4422   3.089   1.570   2.655
 1473SOL    HW1 4423   3.110   1.644   2.590
 1473SOL    HW2 4424   3.157   1.570   2.728
 1474SOL     OW 4425   2.321   1.152   2.603
 1474SOL    HW1 4426   2.250   1.125   2.668
 1474SOL    HW2 4427   2.295   1.124   2.510
 1475SOL     OW 4428   3.133   1.797   2.453
 1475SOL    HW1 4429   3.177   1.861   2.389
 1475SOL    HW2 4430   3.083   1.849   2.523
 1476SOL     OW 4431   2.894   0.549   1.878
 1476SOL    HW1 4432   2.853   0.631   1.839
 1476SOL    HW2 4433   2.958   0.575   1.951
 1477SOL     OW 4434   1.940   0.556   3.248
 1477SOL    HW1 4435   2.032   0.555   3.207
 1477SOL    HW2 4436   1.934   0.630   3.315
 1478SOL     OW 4437   2.423   0.222   3.009
 1478SOL    HW1 4438   2.461   0.138   3.046
 1478SOL    HW2 4439   2.335   0.241   3.053
 1479SOL     OW 4440   2.728   0.454   2.504
 1479SOL    HW1 4441   2.696   0.526   2.442
 1479SOL    HW2 4442   2.752   0.373   2.451
 1480SOL     OW 4443   2.879   0.039   2.615
 1480SOL    HW1 4444   2.807   0.044   2.546
 1480SOL    HW2 4445   2.855  -0.030   2.684
 1481SOL     OW 4446   3.291   1.173   2.729
 1481SOL    HW1 4447   3.236   1.089   2.722
 1481SOL    HW2 4448   3.317   1.202   2.637
 1482SOL     OW 4449   3.328   0.590   2.854
 1482SOL    HW1 4450   3.298   0.495   2.861
 1482SOL    HW2 4451   3.401   0.606   2.920
 1483SOL     OW 4452   3.719   0.833   2.239
 1483SOL    HW1 4453   3.761   0.769   2.303
 1483SOL    HW2 4454   3.681   0.782   2.161
 1484SOL     OW 4455   2.350   1.385   2.036
 1484SOL    HW1 4456   2.263   1.370   2.083
 1484SOL    HW2 4457   2.333   1.411   1.941
 1485SOL     OW 4458   3.526   1.280   2.519
 1485SOL    HW1 4459   3.625   1.288   2.533
 1485SOL    HW2 4460   3.481   1.364   2.550
 1486SOL     OW 4461   3.252   0.575   1.940
 1486SOL    HW1 4462   3.198   0.554   2.021
 1486SOL    HW2 4463   3.343   0.534   1.949
 1487SOL     OW 4464   2.389   0.256   2.190
 1487SOL    HW1 4465   2.416   0.197   2.115
 1487SOL    HW2 4466   2.389   0.351   2.159
 1488SOL     OW 4467   3.616   1.223   3.450
 1488SOL    HW1 4468   3.707   1.184   3.437
 1488SOL    HW2 4469   3.624   1.319   3.474
 1489SOL     OW 4470   2.926   1.347   3.202
 1489SOL    HW1 4471   2.846   1.324   3.257
 1489SOL    HW2 4472   3.009   1.321   3.251
 1490SOL     OW 4473   3.454   1.629   3.487
 1490SOL    HW1 4474   3.481   1.663   3.397
 1490SOL    HW2 4475   3.533   1.591   3.533
 1491SOL     OW 4476   2.973   1.195   2.962
 1491SOL    HW1 4477   2.933   1.239   3.043
 1491SOL    HW2 4478   2.932   1.232   2.879
 1492SOL     OW 4479   3.500   1.099   2.941
 1492SOL    HW1 4480   3.505   1.180   3.000
 1492SOL    HW2 4481   3.414   1.101   2.890
 1493SOL     OW 4482   2.777   0.089   3.264
 1493SOL    HW1 4483   2.802   0.069   3.169
 1493SOL    HW2 4484   2.849   0.145   3.306
 1494SOL     OW 4485   2.842   1.116   3.581
 1494SOL    HW1 4486   2.743   1.122   3.591
 1494SOL    HW2 4487   2.865   1.036   3.525
 1495SOL     OW 4488   2.567   1.050   2.230
 1495SOL    HW1 4489   2.553   1.057   2.329
 1495SOL    HW2 4490   2.651   0.999   2.212
 1496SOL     OW 4491   2.272   0.813   3.113
 1496SOL    HW1 4492   2.358   0.825   3.163
 1496SOL    HW2 4493   2.230   0.726   3.140
 1497SOL     OW 4494   3.136   0.386   3.124
 1497SOL    HW1 4495   3.157   0.460   3.188
 1497SOL    HW2 4496   3.047   0.403   3.081
 1498SOL     OW 4497   1.926   1.564   3.193
 1498SOL    HW1 4498   1.880   1.646   3.159
 1498SOL    HW2 4499   2.024   1.583   3.202
 1499SOL     OW 4500   2.229   1.100   2.363
 1499SOL    HW1 4501   2.222   1.183   2.307
 1499SOL    HW2 4502   2.233   1.020   2.303
 1500SOL     OW 4503   2.428   0.537   2.727
 1500SOL    HW1 4504   2.440   0.603   2.653
 1500SOL    HW2 4505   2.474   0.571   2.810
 1501SOL     OW 4506   3.114   1.348   2.250
 1501SOL    HW1 4507   3.164   1.425   2.290
 1501SOL    HW2 4508   3.019   1.350   2.282
 1502SOL     OW 4509   3.134   1.445   3.004
 1502SOL    HW1 4510   3.181   1.458   3.091
 1502SOL    HW2 4511   3.068   1.371   3.013
 1503SOL     OW 4512   3.444   0.639   2.334
 1503SOL    HW1 4513   3.413   0.700   2.407
 1503SOL    HW2 4514   3.494   0.691   2.265
 1504SOL     OW 4515   2.216   1.510   3.191
 1504SOL    HW1 4516   2.195   1.466   3.104
 1504SOL    HW2 4517   2.313   1.536   3.194
 1505SOL     OW 4518   2.264   0.751   3.460
 1505SOL    HW1 4519   2.332   0.806   3.413
 1505SOL    HW2 4520   2.304   0.663   3.487
 1506SOL     OW 4521   3.449   0.779   3.532
 1506SOL    HW1 4522   3.357   0.817   3.527
 1506SOL    HW2 4523   3.509   0.826   3.467
 1507SOL     OW 4524   2.875   0.105   3.632
 1507SOL    HW1 4525   2.881   0.190   3.580
 1507SOL    HW2 4526   2.907   0.029   3.575
 1508SOL     OW 4527   2.366   0.050   3.602
 1508SOL    HW1 4528   2.324  -0.007   3.532
 1508SOL    HW2 4529   2.300   0.119   3.634
 1509SOL     OW 4530   2.435   0.870   2.891
 1509SOL    HW1 4531   2.479   0.959   2.882
 1509SOL    HW2 4532   2.372   0.870   2.968
 1510SOL     OW 4533   3.222   0.862   2.907
 1510SOL    HW1 4534   3.147   0.862   2.841
 1510SOL    HW2 4535   3.259   0.770   2.916
 1511SOL     OW 4536   3.071   0.525   2.137
 1511SOL    HW1 4537   3.084   0.441   2.191
 1511SOL    HW2 4538   3.042   0.599   2.197
 1512SOL     OW 4539   2.169   0.213   3.093
 1512SOL    HW1 4540   2.146   0.250   3.183
 1512SOL    HW2 4541   2.139   0.118   3.087
 1513SOL     OW 4542   1.899   1.310   3.144
 1513SOL    HW1 4543   1.952   1.261   3.212
 1513SOL    HW2 4544   1.921   1.408   3.149
 1514SOL     OW 4545   2.594   0.634   2.926
 1514SOL    HW1 4546   2.653   0.608   2.850
 1514SOL    HW2 4547   2.566   0.730   2.915
 1515SOL     OW 4548   3.590   0.935   3.716
 1515SOL    HW1 4549   3.544   0.928   3.627
 1515SOL    HW2 4550   3.528   0.979   3.782
 1516SOL     OW 4551   2.169   0.063   2.480
 1516SOL    HW1 4552   2.158   0.157   2.513
 1516SOL    HW2 4553   2.164   0.000   2.557
 1517SOL     OW 4554   3.484   0.367   2.236
 1517SOL    HW1 4555   3.486   0.291   2.300
 1517SOL    HW2 4556   3.436   0.444   2.276
 1518SOL     OW 4557   2.885   0.766   2.828
 1518SOL    HW1 4558   2.900   0.787   2.924
 1518SOL    HW2 4559   2.855   0.671   2.819
 1519SOL     OW 4560   2.842   1.573   3.562
 1519SOL    HW1 4561   2.822   1.617   3.474
 1519SOL    HW2 4562   2.881   1.482   3.546
 1520SOL     OW 4563   3.721   1.518   3.467
 1520SOL    HW1 4564   3.735   1.545   3.372
 1520SOL    HW2 4565   3.804   1.540   3.520
 1521SOL     OW 4566   2.212   0.898   3.666
 1521SOL    HW1 4567   2.288   0.942   3.714
 1521SOL    HW2 4568   2.247   0.851   3.584
 1522SOL     OW 4569   3.402   0.274   1.987
 1522SOL    HW1 4570   3.341   0.199   2.010
 1522SOL    HW2 4571   3.424   0.326   2.070
 1523SOL     OW 4572   3.165   0.838   1.904
 1523SOL    HW1 4573   3.199   0.745   1.919
 1523SOL    HW2 4574   3.183   0.865   1.809
 1524SOL     OW 4575   2.930   1.333   2.711
 1524SOL    HW1 4576   2.937   1.249   2.656
 1524SOL    HW2 4577   2.992   1.402   2.675
 1525SOL     OW 4578   2.181   0.810   2.811
 1525SOL    HW1 4579   2.274   0.846   2.816
 1525SOL    HW2 4580   2.175   0.725   2.863
 1526SOL     OW 4581   2.201   0.509   2.868
 1526SOL    HW1 4582   2.149   0.426   2.851
 1526SOL    HW2 4583   2.278   0.514   2.804
 1527SOL     OW 4584   3.000   0.380   3.540
 1527SOL    HW1 4585   2.955   0.443   3.604
 1527SOL    HW2 4586   3.093   0.411   3.523
 1528SOL     OW 4587   3.022   0.207   3.339
 1528SOL    HW1 4588   3.022   0.271   3.416
 1528SOL    HW2 4589   3.050   0.255   3.256
 1529SOL     OW 4590   1.870   1.326   2.062
 1529SOL    HW1 4591   1.777   1.347   2.031
 1529SOL    HW2 4592   1.880   1.227   2.075
 1530SOL     OW 4593   1.950   1.801   2.789
 1530SOL    HW1 4594   1.908   1.715   2.762
 1530SOL    HW2 4595   2.044   1.804   2.755
 1531SOL     OW 4596   2.366   1.568   2.772
 1531SOL    HW1 4597   2.432   1.642   2.781
 1531SOL    HW2 4598   2.410   1.489   2.730
 1532SOL     OW 4599   2.864   0.796   3.100
 1532SOL    HW1 4600   2.905   0.764   3.186
 1532SOL    HW2 4601   2.768   0.769   3.097
 1533SOL     OW 4602   1.902   0.544   2.976
 1533SOL    HW1 4603   1.987   0.511   2.935
 1533SOL    HW2 4604   1.915   0.559   3.074
 1534SOL     OW 4605   2.051   0.520   3.584
 1534SOL    HW1 4606   2.110   0.480   3.514
 1534SOL    HW2 4607   1.993   0.591   3.543
 1535SOL     OW 4608   3.231   0.950   3.522
 1535SOL    HW1 4609   3.270   1.039   3.542
 1535SOL    HW2 4610   3.241   0.930   3.425
 1536SOL     OW 4611   2.677   0.572   2.187
 1536SOL    HW1 4612   2.684   0.483   2.141
 1536SOL    HW2 4613   2.583   0.606   2.179
 1537SOL     OW 4614   3.519   0.604   3.068
 1537SOL    HW1 4615   3.481   0.535   3.130
 1537SOL    HW2 4616   3.601   0.568   3.024
 1538SOL     OW 4617   2.114   1.564   3.606
 1538SOL    HW1 4618   2.084   1.621   3.682
 1538SOL    HW2 4619   2.107   1.467   3.632
 1539SOL     OW 4620   2.533   0.464   3.131
 1539SOL    HW1 4621   2.499   0.375   3.101
 1539SOL    HW2 4622   2.559   0.518   3.051
 1540SOL     OW 4623   2.792   1.678   3.327
 1540SOL    HW1 4624   2.768   1.660   3.232
 1540SOL    HW2 4625   2.822   1.772   3.337
 1541SOL     OW 4626   2.335   0.500   2.053
 1541SOL    HW1 4627   2.396   0.580   2.057
 1541SOL    HW2 4628   2.240   0.531   2.060
 1542SOL     OW 4629   2.021   1.137   3.328
 1542SOL    HW1 4630   2.043   1.076   3.404
 1542SOL    HW2 4631   2.031   1.088   3.242
 1543SOL     OW 4632   3.209   1.059   3.096
 1543SOL    HW1 4633   3.233   0.996   3.022
 1543SOL    HW2 4634   3.119   1.099   3.078
 1544SOL     OW 4635   3.164   0.855   2.171
 1544SOL    HW1 4636   3.078   0.824   2.213
 1544SOL    HW2 4637   3.160   0.841   2.072
 1545SOL     OW 4638   3.621   1.747   3.016
 1545SOL    HW1 4639   3.682   1.777   2.943
 1545SOL    HW2 4640   3.583   1.658   2.994
 1546SOL     OW 4641   3.114   1.731   2.990
 1546SOL    HW1 4642   3.198   1.736   2.936
 1546SOL    HW2 4643   3.091   1.635   3.008
 1547SOL     OW 4644   1.945   1.258   2.884
 1547SOL    HW1 4645   1.940   1.257   2.984
 1547SOL    HW2 4646   1.862   1.217   2.846
 1548SOL     OW 4647   2.550   1.662   3.578
 1548SOL    HW1 4648   2.494   1.743   3.587
 1548SOL    HW2 4649   2.602   1.666   3.492
 1549SOL     OW 4650   3.588   0.135   2.385
 1549SOL    HW1 4651   3.661   0.118   2.318
 1549SOL    HW2 4652   3.557   0.048   2.423
 1550SOL     OW 4653   3.250   1.573   2.339
 1550SOL    HW1 4654   3.317   1.585   2.265
 1550SOL    HW2 4655   3.210   1.662   2.362
 1551SOL     OW 4656   1.992   1.794   3.713
 1551SOL    HW1 4657   1.951   1.720   3.766
 1551SOL    HW2 4658   2.056   1.845   3.771
 1552SOL     OW 4659   3.142   0.927   2.534
 1552SOL    HW1 4660   3.202   0.846   2.536
 1552SOL    HW2 4661   3.182   0.996   2.474
 1553SOL     OW 4662   2.692   1.273   3.284
 1553SOL    HW1 4663   2.687   1.306   3.379
 1553SOL    HW2 4664   2.606   1.292   3.238
 1554SOL     OW 4665   2.534   1.616   2.016
 1554SOL    HW1 4666   2.543   1.626   1.917
 1554SOL    HW2 4667   2.494   1.527   2.037
 1555SOL     OW 4668   3.512   1.720   3.256
 1555SOL    HW1 4669   3.565   1.730   3.172
 1555SOL    HW2 4670   3.485   1.810   3.290
 1556SOL     OW 4671   3.703   0.175   2.825
 1556SOL    HW1 4672   3.742   0.090   2.789
 1556SOL    HW2 4673   3.605   0.177   2.806
 1557SOL     OW 4674   2.125   0.326   2.582
 1557SOL    HW1 4675   2.046   0.377   2.548
 1557SOL    HW2 4676   2.116   0.311   2.680
 1558SOL     OW 4677   3.056   1.612   1.893
 1558SOL    HW1 4678   3.062   1.519   1.930
 1558SOL    HW2 4679   2.997   1.612   1.813
 1559SOL     OW 4680   2.684   1.002   3.234
 1559SOL    HW1 4681   2.724   1.001   3.142
 1559SOL    HW2 4682   2.694   1.094   3.274
 1560SOL     OW 4683   2.778   0.910   2.153
 1560SOL    HW1 4684   2.841   0.948   2.085
 1560SOL    HW2 4685   2.818   0.827   2.192
 1561SOL     OW 4686   3.366   1.607   1.906
 1561SOL    HW1 4687   3.274   1.644   1.913
 1561SOL    HW2 4688   3.404   1.627   1.816
 1562SOL     OW 4689   2.234   1.288   3.352
 1562SOL    HW1 4690   2.221   1.381   3.318
 1562SOL    HW2 4691   2.150   1.236   3.339
 1563SOL     OW 4692   3.476   1.292   3.151
 1563SOL    HW1 4693   3.536   1.295   3.231
 1563SOL    HW2 4694   3.401   1.356   3.164
 1564SOL     OW 4695   2.901   1.098   2.558
 1564SOL    HW1 4696   2.831   1.051   2.612
 1564SOL    HW2 4697   2.960   1.030   2.515
 1565SOL     OW 4698   2.876   0.236   2.833
 1565SOL    HW1 4699   2.868   0.200   2.740
 1565SOL    HW2 4700   2.874   0.160   2.898
 1566SOL     OW 4701   2.452   1.487   2.353
 1566SOL    HW1 4702   2.494   1.429   2.283
 1566SOL    HW2 4703   2.408   1.566   2.309
 1567SOL     OW 4704   3.571   0.385   3.243
 1567SOL    HW1 4705   3.644   0.454   3.247
 1567SOL    HW2 4706   3.599   0.310   3.184
 1568SOL     OW 4707   2.117   1.348   2.152
 1568SOL    HW1 4708   2.021   1.349   2.125
 1568SOL    HW2 4709   2.129   1.401   2.236
 1569SOL     OW 4710   1.967   1.013   3.588
 1569SOL    HW1 4711   1.890   0.980   3.642
 1569SOL    HW2 4712   2.052   0.983   3.630
 1570SOL     OW 4713   2.534   0.203   3.351
 1570SOL    HW1 4714   2.624   0.187   3.311
 1570SOL    HW2 4715   2.542   0.208   3.450
 1571SOL     OW 4716   1.937   0.345   1.895
 1571SOL    HW1 4717   1.845   0.317   1.866
 1571SOL    HW2 4718   1.968   0.422   1.839
 1572SOL     OW 4719   3.302   0.856   3.260
 1572SOL    HW1 4720   3.245   0.908   3.197
 1572SOL    HW2 4721   3.398   0.868   3.236
 1573SOL     OW 4722   1.934   0.166   2.180
 1573SOL    HW1 4723   1.917   0.249   2.126
 1573SOL    HW2 4724   2.024   0.129   2.158
 1574SOL     OW 4725   3.045   1.335   1.981
 1574SOL    HW1 4726   2.946   1.324   1.983
 1574SOL    HW2 4727   3.079   1.350   2.074
 1575SOL     OW 4728   2.475   0.842   3.293
 1575SOL    HW1 4729   2.531   0.923   3.276
 1575SOL    HW2 4730   2.534   0.762   3.296
 1576SOL     OW 4731   3.355   1.767   2.821
 1576SOL    HW1 4732   3.388   1.831   2.752
 1576SOL    HW2 4733   3.421   1.761   2.896
 1577SOL     OW 4734   2.578   0.565   3.570
 1577SOL    HW1 4735   2.597   0.630   3.644
 1577SOL    HW2 4736   2.638   0.485   3.579
 1578SOL     OW 4737   3.312   1.220   3.495
 1578SOL    HW1 4738   3.303   1.210   3.594
 1578SOL    HW2 4739   3.408   1.213   3.469
 1579SOL     OW 4740   2.252   1.741   3.422
 1579SOL    HW1 4741   2.161   1.782   3.420
 1579SOL    HW2 4742   2.245   1.647   3.454
 1580SOL     OW 4743   3.536   0.883   3.116
 1580SOL    HW1 4744   3.509   0.794   3.079
 1580SOL    HW2 4745   3.537   0.951   3.043
 1581SOL     OW 4746   3.087   0.325   2.311
 1581SOL    HW1 4747   3.152   0.251   2.300
 1581SOL    HW2 4748   3.107   0.375   2.395
 1582SOL     OW 4749   2.456   0.745   2.514
 1582SOL    HW1 4750   2.506   0.830   2.495
 1582SOL    HW2 4751   2.368   0.747   2.466
 1583SOL     OW 4752   3.639   0.342   3.504
 1583SOL    HW1 4753   3.622   0.373   3.410
 1583SOL    HW2 4754   3.555   0.305   3.542
 1584SOL     OW 4755   3.592   0.934   3.379
 1584SOL    HW1 4756   3.630   1.025   3.394
 1584SOL    HW2 4757   3.584   0.917   3.280
 1585SOL     OW 4758   2.721   1.374   1.878
 1585SOL    HW1 4759   2.675   1.389   1.966
 1585SOL    HW2 4760   2.765   1.459   1.848
 1586SOL     OW 4761   2.523   1.790   2.815
 1586SOL    HW1 4762   2.477   1.878   2.802
 1586SOL    HW2 4763   2.622   1.802   2.808
 1587SOL     OW 4764   2.721   0.956   2.723
 1587SOL    HW1 4765   2.775   0.887   2.771
 1587SOL    HW2 4766   2.689   1.025   2.789
 1588SOL     OW 4767   2.945   0.984   1.949
 1588SOL    HW1 4768   2.922   1.037   1.867
 1588SOL    HW2 4769   3.026   0.928   1.930
 1589SOL     OW 4770   3.723   1.569   2.713
 1589SOL    HW1 4771   3.652   1.557   2.643
 1589SOL    HW2 4772   3.724   1.490   2.773
 1590SOL     OW 4773   2.083   1.314   3.706
 1590SOL    HW1 4774   2.018   1.241   3.685
 1590SOL    HW2 4775   2.087   1.328   3.804
 1591SOL     OW 4776   1.941   1.240   2.515
 1591SOL    HW1 4777   1.940   1.193   2.603
 1591SOL    HW2 4778   2.023   1.212   2.464
 1592SOL     OW 4779   2.534   1.391   3.486
 1592SOL    HW1 4780   2.456   1.341   3.524
 1592SOL    HW2 4781   2.531   1.486   3.517
 1593SOL     OW 4782   3.686   0.192   3.089
 1593SOL    HW1 4783   3.682   0.102   3.133
 1593SOL    HW2 4784   3.689   0.181   2.990
 1594SOL     OW 4785   2.290   0.424   2.382
 1594SOL    HW1 4786   2.320   0.352   2.320
 1594SOL    HW2 4787   2.251   0.384   2.465
 1595SOL     OW 4788   3.567   1.487   2.966
 1595SOL    HW1 4789   3.474   1.462   2.939
 1595SOL    HW2 4790   3.593   1.437   3.048
 1596SOL     OW 4791   2.179   0.547   3.142
 1596SOL    HW1 4792   2.217   0.488   3.214
 1596SOL    HW2 4793   2.219   0.521   3.054
 1597SOL     OW 4794   2.674   1.586   2.549
 1597SOL    HW1 4795   2.706   1.596   2.455
 1597SOL    HW2 4796   2.595   1.524   2.551
 1598SOL     OW 4797   3.286   0.214   2.974
 1598SOL    HW1 4798   3.338   0.149   3.029
 1598SOL    HW2 4799   3.237   0.277   3.035
 1599SOL     OW 4800   2.863   0.034   3.016
 1599SOL    HW1 4801   2.800  -0.038   2.985
 1599SOL    HW2 4802   2.956  -0.002   3.016
 1600SOL     OW 4803   2.632   1.330   2.163
 1600SOL    HW1 4804   2.586   1.243   2.180
 1600SOL    HW2 4805   2.723   1.327   2.204
 1601SOL     OW 4806   2.480   1.567   3.146
 1601SOL    HW1 4807   2.475   1.649   3.203
 1601SOL    HW2 4808   2.569   1.564   3.101
 1602SOL     OW 4809   3.214   0.052   2.030
 1602SOL    HW1 4810   3.249   0.011   1.946
 1602SOL    HW2 4811   3.124   0.014   2.050
 1603SOL     OW 4812   3.162   0.453   2.553
 1603SOL    HW1 4813   3.103   0.533   2.557
 1603SOL    HW2 4814   3.177   0.418   2.646
 1604SOL     OW 4815   3.455   0.221   2.744
 1604SOL    HW1 4816   3.371   0.220   2.798
 1604SOL    HW2 4817   3.457   0.304   2.688
 1605SOL     OW 4818   1.901   1.077   2.162
 1605SOL    HW1 4819   2.000   1.066   2.153
 1605SOL    HW2 4820   1.861   0.991   2.194
 1606SOL     OW 4821   2.737   1.646   2.199
 1606SOL    HW1 4822   2.660   1.611   2.145
 1606SOL    HW2 4823   2.705   1.717   2.261
 1607SOL     OW 4824   2.092   0.628   3.837
 1607SOL    HW1 4825   1.999   0.626   3.874
 1607SOL    HW2 4826   2.093   0.589   3.745
 1608SOL     OW 4827   3.617   0.607   3.955
 1608SOL    HW1 4828   3.605   0.594   3.856
 1608SOL    HW2 4829   3.587   0.526   4.004
 1609SOL     OW 4830   2.093   1.713   4.207
 1609SOL    HW1 4831   2.127   1.790   4.261
 1609SOL    HW2 4832   2.137   1.713   4.117
 1610SOL     OW 4833   2.092   1.434   4.262
 1610SOL    HW1 4834   2.066   1.530   4.262
 1610SOL    HW2 4835   2.021   1.380   4.307
 1611SOL     OW 4836   2.468   0.964   3.847
 1611SOL    HW1 4837   2.475   1.048   3.793
 1611SOL    HW2 4838   2.514   0.977   3.935
 1612SOL     OW 4839   1.984   0.643   4.287
 1612SOL    HW1 4840   1.939   0.555   4.304
 1612SOL    HW2 4841   1.983   0.697   4.371
 1613SOL     OW 4842   3.704   1.767   4.083
 1613SOL    HW1 4843   3.758   1.738   4.163
 1613SOL    HW2 4844   3.734   1.857   4.054
 1614SOL     OW 4845   1.889   1.596   3.841
 1614SOL    HW1 4846   1.870   1.500   3.862
 1614SOL    HW2 4847   1.856   1.654   3.916
 1615SOL     OW 4848   3.551   0.922   4.336
 1615SOL    HW1 4849   3.646   0.893   4.344
 1615SOL    HW2 4850   3.543   0.987   4.261
 1616SOL     OW 4851   3.503   1.108   4.156
 1616SOL    HW1 4852   3.589   1.110   4.104
 1616SOL    HW2 4853   3.517   1.155   4.244
 1617SOL     OW 4854   2.671   0.004   4.226
 1617SOL    HW1 4855   2.711   0.095   4.217
 1617SOL    HW2 4856   2.571   0.012   4.232
 1618SOL     OW 4857   3.387   0.999   3.914
 1618SOL    HW1 4858   3.324   0.923   3.927
 1618SOL    HW2 4859   3.435   1.017   4.000
 1619SOL     OW 4860   2.460   0.729   3.994
 1619SOL    HW1 4861   2.484   0.798   3.926
 1619SOL    HW2 4862   2.382   0.762   4.048
 1620SOL     OW 4863   3.438   1.662   4.031
 1620SOL    HW1 4864   3.527   1.708   4.034
 1620SOL    HW2 4865   3.417   1.638   3.936
 1621SOL     OW 4866   2.903   0.701   4.153
 1621SOL    HW1 4867   2.929   0.697   4.249
 1621SOL    HW2 4868   2.818   0.650   4.139
 1622SOL     OW 4869   1.938   0.811   4.513
 1622SOL    HW1 4870   2.037   0.799   4.522
 1622SOL    HW2 4871   1.914   0.906   4.534
 1623SOL     OW 4872   2.727   0.348   3.919
 1623SOL    HW1 4873   2.786   0.411   3.870
 1623SOL    HW2 4874   2.746   0.254   3.890
 1624SOL     OW 4875   3.224   1.144   4.269
 1624SOL    HW1 4876   3.307   1.115   4.221
 1624SOL    HW2 4877   3.175   1.211   4.213
 1625SOL     OW 4878   2.870   1.456   4.201
 1625SOL    HW1 4879   2.824   1.528   4.149
 1625SOL    HW2 4880   2.866   1.476   4.299
 1626SOL     OW 4881   2.213   1.801   4.577
 1626SOL    HW1 4882   2.263   1.715   4.583
 1626SOL    HW2 4883   2.278   1.878   4.574
 1627SOL     OW 4884   2.183   0.943   3.966
 1627SOL    HW1 4885   2.265   0.982   3.924
 1627SOL    HW2 4886   2.156   0.861   3.917
 1628SOL     OW 4887   2.973   1.776   3.961
 1628SOL    HW1 4888   2.913   1.714   4.011
 1628SOL    HW2 4889   3.004   1.732   3.876
 1629SOL     OW 4890   3.494   1.377   3.805
 1629SOL    HW1 4891   3.462   1.471   3.795
 1629SOL    HW2 4892   3.418   1.314   3.793
 1630SOL     OW 4893   2.326   1.743   4.047
 1630SOL    HW1 4894   2.359   1.782   4.133
 1630SOL    HW2 4895   2.402   1.736   3.982
 1631SOL     OW 4896   3.262   0.107   4.150
 1631SOL    HW1 4897   3.238   0.070   4.060
 1631SOL    HW2 4898   3.361   0.123   4.154
 1632SOL     OW 4899   2.244   0.700   4.204
 1632SOL    HW1 4900   2.289   0.610   4.201
 1632SOL    HW2 4901   2.150   0.689   4.237
 1633SOL     OW 4902   2.476   0.122   3.841
 1633SOL    HW1 4903   2.574   0.100   3.848
 1633SOL    HW2 4904   2.445   0.105   3.748
 1634SOL     OW 4905   2.401   0.064   4.236
 1634SOL    HW1 4906   2.320   0.065   4.294
 1634SOL    HW2 4907   2.404   0.147   4.181
 1635SOL     OW 4908   3.296   1.188   3.765
 1635SOL    HW1 4909   3.328   1.112   3.822
 1635SOL    HW2 4910   3.204   1.215   3.795
 1636SOL     OW 4911   2.159   0.035   3.895
 1636SOL    HW1 4912   2.208   0.119   3.874
 1636SOL    HW2 4913   2.221  -0.030   3.940
 1637SOL     OW 4914   2.797   0.236   4.204
 1637SOL    HW1 4915   2.749   0.277   4.126
 1637SOL    HW2 4916   2.896   0.234   4.185
 1638SOL     OW 4917   2.321   1.152   4.465
 1638SOL    HW1 4918   2.250   1.125   4.530
 1638SOL    HW2 4919   2.295   1.124   4.372
 1639SOL     OW 4920   3.133   1.797   4.315
 1639SOL    HW1 4921   3.177   1.861   4.251
 1639SOL    HW2 4922   3.083   1.849   4.385
 1640SOL     OW 4923   2.894   0.549   3.740
 1640SOL    HW1 4924   2.853   0.631   3.701
 1640SOL    HW2 4925   2.958   0.575   3.813
 1641SOL     OW 4926   2.728   0.454   4.366
 1641SOL    HW1 4927   2.696   0.526   4.304
 1641SOL    HW2 4928   2.752   0.373   4.313
 1642SOL     OW 4929   3.719   0.833   4.101
 1642SOL    HW1 4930   3.761   0.769   4.165
 1642SOL    HW2 4931   3.681   0.782   4.023
 1643SOL     OW 4932   2.350   1.385   3.898
 1643SOL    HW1 4933   2.263   1.370   3.945
 1643SOL    HW2 4934   2.333   1.411   3.803
 1644SOL     OW 4935   3.252   0.575   3.802
 1644SOL    HW1 4936   3.198   0.554   3.883
 1644SOL    HW2 4937   3.343   0.534   3.811
 1645SOL     OW 4938   2.389   0.256   4.052
 1645SOL    HW1 4939   2.416   0.197   3.977
 1645SOL    HW2 4940   2.389   0.351   4.021
 1646SOL     OW 4941   2.567   1.050   4.092
 1646SOL    HW1 4942   2.553   1.057   4.191
 1646SOL    HW2 4943   2.651   0.999   4.074
 1647SOL     OW 4944   2.229   1.100   4.225
 1647SOL    HW1 4945   2.222   1.183   4.169
 1647SOL    HW2 4946   2.233   1.020   4.165
 1648SOL     OW 4947   3.114   1.348   4.112
 1648SOL    HW1 4948   3.164   1.425   4.152
 1648SOL    HW2 4949   3.019   1.350   4.144
 1649SOL     OW 4950   3.444   0.639   4.196
 1649SOL    HW1 4951   3.413   0.700   4.269
 1649SOL    HW2 4952   3.494   0.691   4.127
 1650SOL     OW 4953   3.071   0.525   3.999
 1650SOL    HW1 4954   3.084   0.441   4.053
 1650SOL    HW2 4955   3.042   0.599   4.059
 1651SOL     OW 4956   2.169   0.063   4.342
 1651SOL    HW1 4957   2.158   0.157   4.375
 1651SOL    HW2 4958   2.164   0.000   4.419
 1652SOL     OW 4959   3.484   0.367   4.098
 1652SOL    HW1 4960   3.486   0.291   4.162
 1652SOL    HW2 4961   3.436   0.444   4.138
 1653SOL     OW 4962   3.402   0.274   3.849
 1653SOL    HW1 4963   3.341   0.199   3.872
 1653SOL    HW2 4964   3.424   0.326   3.932
 1654SOL     OW 4965   3.165   0.838   3.766
 1654SOL    HW1 4966   3.199   0.745   3.781
 1654SOL    HW2 4967   3.183   0.865   3.671
 1655SOL     OW 4968   1.870   1.326   3.924
 1655SOL    HW1 4969   1.777   1.347   3.893
 1655SOL    HW2 4970   1.880   1.227   3.937
 1656SOL     OW 4971   2.677   0.572   4.049
 1656SOL    HW1 4972   2.684   0.483   4.003
 1656SOL    HW2 4973   2.583   0.606   4.041
 1657SOL     OW 4974   2.335   0.500   3.915
 1657SOL    HW1 4975   2.396   0.580   3.919
 1657SOL    HW2 4976   2.240   0.531   3.922
 1658SOL     OW 4977   3.164   0.855   4.033
 1658SOL    HW1 4978   3.078   0.824   4.075
 1658SOL    HW2 4979   3.160   0.841   3.934
 1659SOL     OW 4980   3.588   0.135   4.247
 1659SOL    HW1 4981   3.661   0.118   4.180
 1659SOL    HW2 4982   3.557   0.048   4.285
 1660SOL     OW 4983   3.250   1.573   4.201
 1660SOL    HW1 4984   3.317   1.585   4.127
 1660SOL    HW2 4985   3.210   1.662   4.224
 1661SOL     OW 4986   2.534   1.616   3.878
 1661SOL    HW1 4987   2.543   1.626   3.779
 1661SOL    HW2 4988   2.494   1.527   3.899
 1662SOL     OW 4989   3.703   0.175   4.687
 1662SOL    HW1 4990   3.742   0.090   4.651
 1662SOL    HW2 4991   3.605   0.177   4.668
 1663SOL     OW 4992   3.056   1.612   3.755
 1663SOL    HW1 4993   3.062   1.519   3.792
 1663SOL    HW2 4994   2.997   1.612   3.675
 1664SOL     OW 4995   2.778   0.910   4.015
 1664SOL    HW1 4996   2.841   0.948   3.947
 1664SOL    HW2 4997   2.818   0.827   4.054
 1665SOL     OW 4998   3.366   1.607   3.768
 1665SOL    HW1 4999   3.274   1.644   3.775
 1665SOL    HW2 5000   3.404   1.627   3.678
 1666SOL     OW 5001   2.452   1.487   4.215
 1666SOL    HW1 5002   2.494   1.429   4.145
 1666SOL    HW2 5003   2.408   1.566   4.171
 1667SOL     OW 5004   2.117   1.348   4.014
 1667SOL    HW1 5005   2.021   1.349   3.987
 1667SOL    HW2 5006   2.129   1.401   4.098
 1668SOL     OW 5007   1.937   0.345   3.757
 1668SOL    HW1 5008   1.845   0.317   3.728
 1668SOL    HW2 5009   1.968   0.422   3.701
 1669SOL     OW 5010   1.934   0.166   4.042
 1669SOL    HW1 5011   1.917   0.249   3.988
 1669SOL    HW2 5012   2.024   0.129   4.020
 1670SOL     OW 5013   3.045   1.335   3.843
 1670SOL    HW1 5014   2.946   1.324   3.845
 1670SOL    HW2 5015   3.079   1.350   3.936
 1671SOL     OW 5016   3.087   0.325   4.173
 1671SOL    HW1 5017   3.152   0.251   4.162
 1671SOL    HW2 5018   3.107   0.375   4.257
 1672SOL     OW 5019   2.456   0.745   4.376
 1672SOL    HW1 5020   2.506   0.830   4.357
 1672SOL    HW2 5021   2.368   0.747   4.328
 1673SOL     OW 5022   2.721   1.374   3.740
 1673SOL    HW1 5023   2.675   1.389   3.828
 1673SOL    HW2 5024   2.765   1.459   3.710
 1674SOL     OW 5025   2.945   0.984   3.811
 1674SOL    HW1 5026   2.922   1.037   3.729
 1674SOL    HW2 5027   3.026   0.928   3.792
 1675SOL     OW 5028   1.941   1.240   4.377
 1675SOL    HW1 5029   1.940   1.193   4.465
 1675SOL    HW2 5030   2.023   1.212   4.326
 1676SOL     OW 5031   2.290   0.424   4.244
 1676SOL    HW1 5032   2.320   0.352   4.182
 1676SOL    HW2 5033   2.251   0.384   4.327
 1677SOL     OW 5034   2.632   1.330   4.025
 1677SOL    HW1 5035   2.586   1.243   4.042
 1677SOL    HW2 5036   2.723   1.327   4.066
 1678SOL     OW 5037   3.214   0.052   3.892
 1678SOL    HW1 5038   3.249   0.011   3.808
 1678SOL    HW2 5039   3.124   0.014   3.912
 1679SOL     OW 5040   1.901   1.077   4.024
 1679SOL    HW1 5041   2.000   1.066   4.015
 1679SOL    HW2 5042   1.861   0.991   4.056
 1680SOL     OW 5043   2.737   1.646   4.061
 1680SOL    HW1 5044   2.660   1.611   4.007
 1680SOL    HW2 5045   2.705   1.717   4.123
 1681SOL     OW 5046   2.092   2.490   0.113
 1681SOL    HW1 5047   1.999   2.488   0.150
 1681SOL    HW2 5048   2.093   2.451   0.021
 1682SOL     OW 5049   2.087   2.137   0.996
 1682SOL    HW1 5050   2.122   2.120   1.088
 1682SOL    HW2 5051   1.999   2.092   0.984
 1683SOL     OW 5052   1.881   2.230   0.647
 1683SOL    HW1 5053   1.799   2.273   0.686
 1683SOL    HW2 5054   1.853   2.157   0.584
 1684SOL     OW 5055   2.431   3.137   1.165
 1684SOL    HW1 5056   2.338   3.130   1.128
 1684SOL    HW2 5057   2.442   3.226   1.209
 1685SOL     OW 5058   3.417   3.373   0.703
 1685SOL    HW1 5059   3.360   3.357   0.784
 1685SOL    HW2 5060   3.358   3.383   0.623
 1686SOL     OW 5061   2.997   2.565   0.717
 1686SOL    HW1 5062   3.054   2.643   0.692
 1686SOL    HW2 5063   2.937   2.591   0.793
 1687SOL     OW 5064   3.617   2.469   0.231
 1687SOL    HW1 5065   3.605   2.456   0.132
 1687SOL    HW2 5066   3.587   2.388   0.280
 1688SOL     OW 5067   2.630   3.006   1.023
 1688SOL    HW1 5068   2.552   3.023   1.083
 1688SOL    HW2 5069   2.664   3.093   0.987
 1689SOL     OW 5070   2.712   2.660   1.823
 1689SOL    HW1 5071   2.708   2.736   1.888
 1689SOL    HW2 5072   2.734   2.696   1.732
 1690SOL     OW 5073   2.547   2.874   0.665
 1690SOL    HW1 5074   2.616   2.858   0.735
 1690SOL    HW2 5075   2.474   2.931   0.703
 1691SOL     OW 5076   2.548   3.023   1.803
 1691SOL    HW1 5077   2.608   3.102   1.817
 1691SOL    HW2 5078   2.462   3.054   1.762
 1692SOL     OW 5079   2.197   3.297   1.061
 1692SOL    HW1 5080   2.119   3.266   1.008
 1692SOL    HW2 5081   2.255   3.355   1.004
 1693SOL     OW 5082   3.322   3.367   1.339
 1693SOL    HW1 5083   3.346   3.461   1.365
 1693SOL    HW2 5084   3.306   3.313   1.421
 1694SOL     OW 5085   2.300   2.254   1.499
 1694SOL    HW1 5086   2.382   2.198   1.508
 1694SOL    HW2 5087   2.219   2.196   1.503
 1695SOL     OW 5088   3.465   2.309   0.737
 1695SOL    HW1 5089   3.391   2.355   0.687
 1695SOL    HW2 5090   3.516   2.377   0.790
 1696SOL     OW 5091   2.093   3.575   0.483
 1696SOL    HW1 5092   2.127   3.652   0.537
 1696SOL    HW2 5093   2.137   3.575   0.393
 1697SOL     OW 5094   2.989   3.203   1.690
 1697SOL    HW1 5095   3.036   3.203   1.778
 1697SOL    HW2 5096   2.941   3.116   1.679
 1698SOL     OW 5097   2.092   3.296   0.538
 1698SOL    HW1 5098   2.066   3.392   0.538
 1698SOL    HW2 5099   2.021   3.242   0.583
 1699SOL     OW 5100   2.102   2.953   0.886
 1699SOL    HW1 5101   2.116   2.869   0.938
 1699SOL    HW2 5102   2.047   3.017   0.941
 1700SOL     OW 5103   2.482   3.648   1.439
 1700SOL    HW1 5104   2.390   3.631   1.474
 1700SOL    HW2 5105   2.510   3.740   1.465
 1701SOL     OW 5106   2.468   2.826   0.123
 1701SOL    HW1 5107   2.475   2.910   0.069
 1701SOL    HW2 5108   2.514   2.839   0.211
 1702SOL     OW 5109   3.456   1.976   1.480
 1702SOL    HW1 5110   3.438   2.043   1.408
 1702SOL    HW2 5111   3.453   2.022   1.569
 1703SOL     OW 5112   1.984   2.505   0.563
 1703SOL    HW1 5113   1.939   2.417   0.580
 1703SOL    HW2 5114   1.983   2.559   0.647
 1704SOL     OW 5115   3.704   3.629   0.359
 1704SOL    HW1 5116   3.758   3.600   0.439
 1704SOL    HW2 5117   3.734   3.719   0.330
 1705SOL     OW 5118   1.889   3.458   0.117
 1705SOL    HW1 5119   1.870   3.362   0.138
 1705SOL    HW2 5120   1.856   3.516   0.192
 1706SOL     OW 5121   3.551   2.784   0.612
 1706SOL    HW1 5122   3.646   2.755   0.620
 1706SOL    HW2 5123   3.543   2.849   0.537
 1707SOL     OW 5124   3.503   2.970   0.432
 1707SOL    HW1 5125   3.589   2.972   0.380
 1707SOL    HW2 5126   3.517   3.017   0.520
 1708SOL     OW 5127   1.975   2.599   1.597
 1708SOL    HW1 5128   2.063   2.586   1.642
 1708SOL    HW2 5129   1.962   2.696   1.575
 1709SOL     OW 5130   2.475   3.227   0.726
 1709SOL    HW1 5131   2.426   3.140   0.735
 1709SOL    HW2 5132   2.452   3.270   0.639
 1710SOL     OW 5133   3.155   3.090   1.423
 1710SOL    HW1 5134   3.192   3.017   1.365
 1710SOL    HW2 5135   3.207   3.095   1.508
 1711SOL     OW 5136   2.671   1.866   0.502
 1711SOL    HW1 5137   2.711   1.957   0.493
 1711SOL    HW2 5138   2.571   1.874   0.508
 1712SOL     OW 5139   2.059   2.838   1.264
 1712SOL    HW1 5140   2.148   2.793   1.250
 1712SOL    HW2 5141   1.986   2.773   1.245
 1713SOL     OW 5142   3.387   2.861   0.190
 1713SOL    HW1 5143   3.324   2.785   0.203
 1713SOL    HW2 5144   3.435   2.879   0.276
 1714SOL     OW 5145   3.049   3.654   1.616
 1714SOL    HW1 5146   3.073   3.714   1.540
 1714SOL    HW2 5147   3.056   3.559   1.586
 1715SOL     OW 5148   2.179   2.113   1.801
 1715SOL    HW1 5149   2.250   2.184   1.807
 1715SOL    HW2 5150   2.091   2.152   1.829
 1716SOL     OW 5151   3.328   3.279   0.953
 1716SOL    HW1 5152   3.269   3.285   1.033
 1716SOL    HW2 5153   3.313   3.191   0.907
 1717SOL     OW 5154   3.529   3.576   0.572
 1717SOL    HW1 5155   3.488   3.553   0.484
 1717SOL    HW2 5156   3.511   3.502   0.637
 1718SOL     OW 5157   2.460   2.591   0.270
 1718SOL    HW1 5158   2.484   2.660   0.202
 1718SOL    HW2 5159   2.382   2.624   0.324
 1719SOL     OW 5160   3.143   2.207   0.944
 1719SOL    HW1 5161   3.057   2.157   0.931
 1719SOL    HW2 5162   3.205   2.153   1.000
 1720SOL     OW 5163   3.438   3.524   0.307
 1720SOL    HW1 5164   3.527   3.570   0.310
 1720SOL    HW2 5165   3.417   3.500   0.212
 1721SOL     OW 5166   2.669   2.467   1.465
 1721SOL    HW1 5167   2.622   2.464   1.554
 1721SOL    HW2 5168   2.618   2.412   1.399
 1722SOL     OW 5169   3.256   2.331   1.674
 1722SOL    HW1 5170   3.236   2.374   1.762
 1722SOL    HW2 5171   3.334   2.269   1.683
 1723SOL     OW 5172   2.835   2.752   1.572
 1723SOL    HW1 5173   2.881   2.668   1.543
 1723SOL    HW2 5174   2.779   2.786   1.497
 1724SOL     OW 5175   2.853   2.272   1.242
 1724SOL    HW1 5176   2.776   2.306   1.296
 1724SOL    HW2 5177   2.819   2.221   1.163
 1725SOL     OW 5178   2.903   2.563   0.429
 1725SOL    HW1 5179   2.929   2.559   0.525
 1725SOL    HW2 5180   2.818   2.512   0.415
 1726SOL     OW 5181   1.938   2.673   0.789
 1726SOL    HW1 5182   2.037   2.661   0.798
 1726SOL    HW2 5183   1.914   2.768   0.810
 1727SOL     OW 5184   1.992   3.683   1.571
 1727SOL    HW1 5185   1.982   3.668   1.670
 1727SOL    HW2 5186   1.906   3.719   1.535
 1728SOL     OW 5187   2.727   2.210   0.195
 1728SOL    HW1 5188   2.786   2.273   0.146
 1728SOL    HW2 5189   2.746   2.116   0.166
 1729SOL     OW 5190   3.581   2.447   1.831
 1729SOL    HW1 5191   3.555   2.536   1.795
 1729SOL    HW2 5192   3.579   2.379   1.758
 1730SOL     OW 5193   3.224   3.006   0.545
 1730SOL    HW1 5194   3.307   2.977   0.497
 1730SOL    HW2 5195   3.175   3.073   0.489
 1731SOL     OW 5196   2.412   2.058   0.885
 1731SOL    HW1 5197   2.407   2.053   0.985
 1731SOL    HW2 5198   2.414   2.154   0.856
 1732SOL     OW 5199   2.870   3.318   0.477
 1732SOL    HW1 5200   2.824   3.390   0.425
 1732SOL    HW2 5201   2.866   3.338   0.575
 1733SOL     OW 5202   2.213   3.663   0.853
 1733SOL    HW1 5203   2.263   3.577   0.859
 1733SOL    HW2 5204   2.278   3.740   0.850
 1734SOL     OW 5205   3.657   2.928   0.873
 1734SOL    HW1 5206   3.595   2.913   0.797
 1734SOL    HW2 5207   3.605   2.939   0.958
 1735SOL     OW 5208   3.089   3.412   1.506
 1735SOL    HW1 5209   3.095   3.335   1.570
 1735SOL    HW2 5210   3.037   3.386   1.426
 1736SOL     OW 5211   2.183   2.805   0.242
 1736SOL    HW1 5212   2.265   2.844   0.200
 1736SOL    HW2 5213   2.156   2.723   0.193
 1737SOL     OW 5214   3.320   2.597   0.728
 1737SOL    HW1 5215   3.315   2.532   0.803
 1737SOL    HW2 5216   3.400   2.656   0.741
 1738SOL     OW 5217   2.323   3.128   1.727
 1738SOL    HW1 5218   2.273   3.129   1.641
 1738SOL    HW2 5219   2.260   3.110   1.803
 1739SOL     OW 5220   2.973   3.638   0.237
 1739SOL    HW1 5221   2.913   3.576   0.287
 1739SOL    HW2 5222   3.004   3.594   0.152
 1740SOL     OW 5223   2.064   2.147   1.498
 1740SOL    HW1 5224   1.984   2.207   1.485
 1740SOL    HW2 5225   2.054   2.098   1.584
 1741SOL     OW 5226   3.494   3.239   0.081
 1741SOL    HW1 5227   3.462   3.333   0.071
 1741SOL    HW2 5228   3.418   3.176   0.069
 1742SOL     OW 5229   2.326   3.605   0.323
 1742SOL    HW1 5230   2.359   3.644   0.409
 1742SOL    HW2 5231   2.402   3.598   0.258
 1743SOL     OW 5232   3.262   1.969   0.426
 1743SOL    HW1 5233   3.238   1.932   0.336
 1743SOL    HW2 5234   3.361   1.985   0.430
 1744SOL     OW 5235   2.111   3.647   1.241
 1744SOL    HW1 5236   2.168   3.582   1.291
 1744SOL    HW2 5237   2.095   3.614   1.148
 1745SOL     OW 5238   2.802   3.560   0.904
 1745SOL    HW1 5239   2.882   3.503   0.925
 1745SOL    HW2 5240   2.753   3.520   0.827
 1746SOL     OW 5241   2.244   2.562   0.480
 1746SOL    HW1 5242   2.289   2.472   0.477
 1746SOL    HW2 5243   2.150   2.551   0.513
 1747SOL     OW 5244   3.409   2.084   1.729
 1747SOL    HW1 5245   3.404   2.121   1.821
 1747SOL    HW2 5246   3.337   2.015   1.717
 1748SOL     OW 5247   2.476   1.984   0.117
 1748SOL    HW1 5248   2.574   1.962   0.124
 1748SOL    HW2 5249   2.445   1.967   0.024
 1749SOL     OW 5250   2.643   2.126   1.749
 1749SOL    HW1 5251   2.710   2.065   1.792
 1749SOL    HW2 5252   2.570   2.145   1.814
 1750SOL     OW 5253   2.750   3.376   1.195
 1750SOL    HW1 5254   2.727   3.351   1.101
 1750SOL    HW2 5255   2.811   3.307   1.234
 1751SOL     OW 5256   3.213   2.452   1.433
 1751SOL    HW1 5257   3.241   2.409   1.518
 1751SOL    HW2 5258   3.238   2.548   1.434
 1752SOL     OW 5259   2.665   3.264   0.924
 1752SOL    HW1 5260   2.755   3.278   0.882
 1752SOL    HW2 5261   2.594   3.266   0.853
 1753SOL     OW 5262   2.784   2.365   0.899
 1753SOL    HW1 5263   2.759   2.356   0.803
 1753SOL    HW2 5264   2.832   2.283   0.930
 1754SOL     OW 5265   2.401   1.926   0.512
 1754SOL    HW1 5266   2.320   1.927   0.570
 1754SOL    HW2 5267   2.404   2.009   0.457
 1755SOL     OW 5268   3.296   3.050   0.041
 1755SOL    HW1 5269   3.328   2.974   0.098
 1755SOL    HW2 5270   3.204   3.077   0.071
 1756SOL     OW 5271   2.797   2.098   0.480
 1756SOL    HW1 5272   2.749   2.139   0.402
 1756SOL    HW2 5273   2.896   2.096   0.461
 1757SOL     OW 5274   2.938   2.545   1.464
 1757SOL    HW1 5275   2.858   2.484   1.467
 1757SOL    HW2 5276   3.019   2.492   1.440
 1758SOL     OW 5277   3.089   3.432   0.793
 1758SOL    HW1 5278   3.110   3.506   0.728
 1758SOL    HW2 5279   3.157   3.432   0.866
 1759SOL     OW 5280   2.321   3.014   0.741
 1759SOL    HW1 5281   2.250   2.987   0.806
 1759SOL    HW2 5282   2.295   2.986   0.648
 1760SOL     OW 5283   3.133   3.659   0.591
 1760SOL    HW1 5284   3.177   3.723   0.527
 1760SOL    HW2 5285   3.083   3.711   0.661
 1761SOL     OW 5286   2.894   2.411   0.016
 1761SOL    HW1 5287   2.853   2.493  -0.023
 1761SOL    HW2 5288   2.958   2.437   0.089
 1762SOL     OW 5289   1.940   2.418   1.386
 1762SOL    HW1 5290   2.032   2.417   1.345
 1762SOL    HW2 5291   1.934   2.492   1.453
 1763SOL     OW 5292   2.423   2.084   1.147
 1763SOL    HW1 5293   2.461   2.000   1.184
 1763SOL    HW2 5294   2.335   2.103   1.191
 1764SOL     OW 5295   2.728   2.316   0.642
 1764SOL    HW1 5296   2.696   2.388   0.580
 1764SOL    HW2 5297   2.752   2.235   0.589
 1765SOL     OW 5298   2.879   1.901   0.753
 1765SOL    HW1 5299   2.807   1.906   0.684
 1765SOL    HW2 5300   2.855   1.832   0.822
 1766SOL     OW 5301   3.291   3.035   0.867
 1766SOL    HW1 5302   3.236   2.951   0.860
 1766SOL    HW2 5303   3.317   3.064   0.775
 1767SOL     OW 5304   3.328   2.452   0.992
 1767SOL    HW1 5305   3.298   2.357   0.999
 1767SOL    HW2 5306   3.401   2.468   1.058
 1768SOL     OW 5307   3.719   2.695   0.377
 1768SOL    HW1 5308   3.761   2.631   0.441
 1768SOL    HW2 5309   3.681   2.644   0.299
 1769SOL     OW 5310   2.350   3.247   0.174
 1769SOL    HW1 5311   2.263   3.232   0.221
 1769SOL    HW2 5312   2.333   3.273   0.079
 1770SOL     OW 5313   3.526   3.142   0.657
 1770SOL    HW1 5314   3.625   3.150   0.671
 1770SOL    HW2 5315   3.481   3.226   0.688
 1771SOL     OW 5316   3.252   2.437   0.078
 1771SOL    HW1 5317   3.198   2.416   0.159
 1771SOL    HW2 5318   3.343   2.396   0.087
 1772SOL     OW 5319   2.389   2.118   0.328
 1772SOL    HW1 5320   2.416   2.059   0.253
 1772SOL    HW2 5321   2.389   2.213   0.297
 1773SOL     OW 5322   3.616   3.085   1.588
 1773SOL    HW1 5323   3.707   3.046   1.575
 1773SOL    HW2 5324   3.624   3.181   1.612
 1774SOL     OW 5325   2.926   3.209   1.340
 1774SOL    HW1 5326   2.846   3.186   1.395
 1774SOL    HW2 5327   3.009   3.183   1.389
 1775SOL     OW 5328   3.454   3.491   1.625
 1775SOL    HW1 5329   3.481   3.525   1.535
 1775SOL    HW2 5330   3.533   3.453   1.671
 1776SOL     OW 5331   2.973   3.057   1.100
 1776SOL    HW1 5332   2.933   3.101   1.181
 1776SOL    HW2 5333   2.932   3.094   1.017
 1777SOL     OW 5334   3.500   2.961   1.079
 1777SOL    HW1 5335   3.505   3.042   1.138
 1777SOL    HW2 5336   3.414   2.963   1.028
 1778SOL     OW 5337   2.777   1.951   1.402
 1778SOL    HW1 5338   2.802   1.931   1.307
 1778SOL    HW2 5339   2.849   2.007   1.444
 1779SOL     OW 5340   2.842   2.978   1.719
 1779SOL    HW1 5341   2.743   2.984   1.729
 1779SOL    HW2 5342   2.865   2.898   1.663
 1780SOL     OW 5343   2.567   2.912   0.368
 1780SOL    HW1 5344   2.553   2.919   0.467
 1780SOL    HW2 5345   2.651   2.861   0.350
 1781SOL     OW 5346   2.272   2.675   1.251
 1781SOL    HW1 5347   2.358   2.687   1.301
 1781SOL    HW2 5348   2.230   2.588   1.278
 1782SOL     OW 5349   3.136   2.248   1.262
 1782SOL    HW1 5350   3.157   2.322   1.326
 1782SOL    HW2 5351   3.047   2.265   1.219
 1783SOL     OW 5352   1.926   3.426   1.331
 1783SOL    HW1 5353   1.880   3.508   1.297
 1783SOL    HW2 5354   2.024   3.445   1.340
 1784SOL     OW 5355   2.229   2.962   0.501
 1784SOL    HW1 5356   2.222   3.045   0.445
 1784SOL    HW2 5357   2.233   2.882   0.441
 1785SOL     OW 5358   2.428   2.399   0.865
 1785SOL    HW1 5359   2.440   2.465   0.791
 1785SOL    HW2 5360   2.474   2.433   0.948
 1786SOL     OW 5361   3.114   3.210   0.388
 1786SOL    HW1 5362   3.164   3.287   0.428
 1786SOL    HW2 5363   3.019   3.212   0.420
 1787SOL     OW 5364   3.134   3.307   1.142
 1787SOL    HW1 5365   3.181   3.320   1.229
 1787SOL    HW2 5366   3.068   3.233   1.151
 1788SOL     OW 5367   3.444   2.501   0.472
 1788SOL    HW1 5368   3.413   2.562   0.545
 1788SOL    HW2 5369   3.494   2.553   0.403
 1789SOL     OW 5370   2.216   3.372   1.329
 1789SOL    HW1 5371   2.195   3.328   1.242
 1789SOL    HW2 5372   2.313   3.398   1.332
 1790SOL     OW 5373   2.264   2.613   1.598
 1790SOL    HW1 5374   2.332   2.668   1.551
 1790SOL    HW2 5375   2.304   2.525   1.625
 1791SOL     OW 5376   3.449   2.641   1.670
 1791SOL    HW1 5377   3.357   2.679   1.665
 1791SOL    HW2 5378   3.509   2.688   1.605
 1792SOL     OW 5379   2.875   1.967   1.770
 1792SOL    HW1 5380   2.881   2.052   1.718
 1792SOL    HW2 5381   2.907   1.891   1.713
 1793SOL     OW 5382   2.366   1.912   1.740
 1793SOL    HW1 5383   2.324   1.855   1.670
 1793SOL    HW2 5384   2.300   1.981   1.772
 1794SOL     OW 5385   2.435   2.732   1.029
 1794SOL    HW1 5386   2.479   2.821   1.020
 1794SOL    HW2 5387   2.372   2.732   1.106
 1795SOL     OW 5388   3.222   2.724   1.045
 1795SOL    HW1 5389   3.147   2.724   0.979
 1795SOL    HW2 5390   3.259   2.632   1.054
 1796SOL     OW 5391   3.071   2.387   0.275
 1796SOL    HW1 5392   3.084   2.303   0.329
 1796SOL    HW2 5393   3.042   2.461   0.335
 1797SOL     OW 5394   2.169   2.075   1.231
 1797SOL    HW1 5395   2.146   2.112   1.321
 1797SOL    HW2 5396   2.139   1.980   1.225
 1798SOL     OW 5397   1.899   3.172   1.282
 1798SOL    HW1 5398   1.952   3.123   1.350
 1798SOL    HW2 5399   1.921   3.270   1.287
 1799SOL     OW 5400   2.594   2.496   1.064
 1799SOL    HW1 5401   2.653   2.470   0.988
 1799SOL    HW2 5402   2.566   2.592   1.053
 1800SOL     OW 5403   3.590   2.797   1.854
 1800SOL    HW1 5404   3.544   2.790   1.765
 1800SOL    HW2 5405   3.528   2.841   1.920
 1801SOL     OW 5406   2.169   1.925   0.618
 1801SOL    HW1 5407   2.158   2.019   0.651
 1801SOL    HW2 5408   2.164   1.862   0.695
 1802SOL     OW 5409   3.484   2.229   0.374
 1802SOL    HW1 5410   3.486   2.153   0.438
 1802SOL    HW2 5411   3.436   2.306   0.414
 1803SOL     OW 5412   2.885   2.628   0.966
 1803SOL    HW1 5413   2.900   2.649   1.062
 1803SOL    HW2 5414   2.855   2.533   0.957
 1804SOL     OW 5415   2.842   3.435   1.700
 1804SOL    HW1 5416   2.822   3.479   1.612
 1804SOL    HW2 5417   2.881   3.344   1.684
 1805SOL     OW 5418   3.721   3.380   1.605
 1805SOL    HW1 5419   3.735   3.407   1.510
 1805SOL    HW2 5420   3.804   3.402   1.658
 1806SOL     OW 5421   2.212   2.760   1.804
 1806SOL    HW1 5422   2.288   2.804   1.852
 1806SOL    HW2 5423   2.247   2.713   1.722
 1807SOL     OW 5424   3.402   2.136   0.125
 1807SOL    HW1 5425   3.341   2.061   0.148
 1807SOL    HW2 5426   3.424   2.188   0.208
 1808SOL     OW 5427   3.165   2.700   0.042
 1808SOL    HW1 5428   3.199   2.607   0.057
 1808SOL    HW2 5429   3.183   2.727  -0.053
 1809SOL     OW 5430   2.930   3.195   0.849
 1809SOL    HW1 5431   2.937   3.111   0.794
 1809SOL    HW2 5432   2.992   3.264   0.813
 1810SOL     OW 5433   2.181   2.672   0.949
 1810SOL    HW1 5434   2.274   2.708   0.954
 1810SOL    HW2 5435   2.175   2.587   1.001
 1811SOL     OW 5436   2.201   2.371   1.006
 1811SOL    HW1 5437   2.149   2.288   0.989
 1811SOL    HW2 5438   2.278   2.376   0.942
 1812SOL     OW 5439   3.000   2.242   1.678
 1812SOL    HW1 5440   2.955   2.305   1.742
 1812SOL    HW2 5441   3.093   2.273   1.661
 1813SOL     OW 5442   3.022   2.069   1.477
 1813SOL    HW1 5443   3.022   2.133   1.554
 1813SOL    HW2 5444   3.050   2.117   1.394
 1814SOL     OW 5445   1.870   3.188   0.200
 1814SOL    HW1 5446   1.777   3.209   0.169
 1814SOL    HW2 5447   1.880   3.089   0.213
 1815SOL     OW 5448   1.950   3.663   0.927
 1815SOL    HW1 5449   1.908   3.577   0.900
 1815SOL    HW2 5450   2.044   3.666   0.893
 1816SOL     OW 5451   2.366   3.430   0.910
 1816SOL    HW1 5452   2.432   3.504   0.919
 1816SOL    HW2 5453   2.410   3.351   0.868
 1817SOL     OW 5454   2.864   2.658   1.238
 1817SOL    HW1 5455   2.905   2.626   1.324
 1817SOL    HW2 5456   2.768   2.631   1.235
 1818SOL     OW 5457   1.902   2.406   1.114
 1818SOL    HW1 5458   1.987   2.373   1.073
 1818SOL    HW2 5459   1.915   2.421   1.212
 1819SOL     OW 5460   2.051   2.382   1.722
 1819SOL    HW1 5461   2.110   2.342   1.652
 1819SOL    HW2 5462   1.993   2.453   1.681
 1820SOL     OW 5463   3.231   2.812   1.660
 1820SOL    HW1 5464   3.270   2.901   1.680
 1820SOL    HW2 5465   3.241   2.792   1.563
 1821SOL     OW 5466   2.677   2.434   0.325
 1821SOL    HW1 5467   2.684   2.345   0.279
 1821SOL    HW2 5468   2.583   2.468   0.317
 1822SOL     OW 5469   3.519   2.466   1.206
 1822SOL    HW1 5470   3.481   2.397   1.268
 1822SOL    HW2 5471   3.601   2.430   1.162
 1823SOL     OW 5472   2.114   3.426   1.744
 1823SOL    HW1 5473   2.084   3.483   1.820
 1823SOL    HW2 5474   2.107   3.329   1.770
 1824SOL     OW 5475   2.533   2.326   1.269
 1824SOL    HW1 5476   2.499   2.237   1.239
 1824SOL    HW2 5477   2.559   2.380   1.189
 1825SOL     OW 5478   2.792   3.540   1.465
 1825SOL    HW1 5479   2.768   3.522   1.370
 1825SOL    HW2 5480   2.822   3.634   1.475
 1826SOL     OW 5481   2.335   2.362   0.191
 1826SOL    HW1 5482   2.396   2.442   0.195
 1826SOL    HW2 5483   2.240   2.393   0.198
 1827SOL     OW 5484   2.021   2.999   1.466
 1827SOL    HW1 5485   2.043   2.938   1.542
 1827SOL    HW2 5486   2.031   2.950   1.380
 1828SOL     OW 5487   3.209   2.921   1.234
 1828SOL    HW1 5488   3.233   2.858   1.160
 1828SOL    HW2 5489   3.119   2.961   1.216
 1829SOL     OW 5490   3.164   2.717   0.309
 1829SOL    HW1 5491   3.078   2.686   0.351
 1829SOL    HW2 5492   3.160   2.703   0.210
 1830SOL     OW 5493   3.621   3.609   1.154
 1830SOL    HW1 5494   3.682   3.639   1.081
 1830SOL    HW2 5495   3.583   3.520   1.132
 1831SOL     OW 5496   3.114   3.593   1.128
 1831SOL    HW1 5497   3.198   3.598   1.074
 1831SOL    HW2 5498   3.091   3.497   1.146
 1832SOL     OW 5499   1.945   3.120   1.022
 1832SOL    HW1 5500   1.940   3.119   1.122
 1832SOL    HW2 5501   1.862   3.079   0.984
 1833SOL     OW 5502   2.550   3.524   1.716
 1833SOL    HW1 5503   2.494   3.605   1.725
 1833SOL    HW2 5504   2.602   3.528   1.630
 1834SOL     OW 5505   2.765   1.948   0.133
 1834SOL    HW1 5506   2.816   1.949   0.047
 1834SOL    HW2 5507   2.821   1.906   0.204
 1835SOL     OW 5508   3.588   1.997   0.523
 1835SOL    HW1 5509   3.661   1.980   0.456
 1835SOL    HW2 5510   3.557   1.910   0.561
 1836SOL     OW 5511   3.250   3.435   0.477
 1836SOL    HW1 5512   3.317   3.447   0.403
 1836SOL    HW2 5513   3.210   3.524   0.500
 1837SOL     OW 5514   1.992   3.656   1.851
 1837SOL    HW1 5515   1.951   3.582   1.904
 1837SOL    HW2 5516   2.056   3.707   1.909
 1838SOL     OW 5517   3.142   2.789   0.672
 1838SOL    HW1 5518   3.202   2.708   0.674
 1838SOL    HW2 5519   3.182   2.858   0.612
 1839SOL     OW 5520   2.692   3.135   1.422
 1839SOL    HW1 5521   2.687   3.168   1.517
 1839SOL    HW2 5522   2.606   3.154   1.376
 1840SOL     OW 5523   2.534   3.478   0.154
 1840SOL    HW1 5524   2.543   3.488   0.055
 1840SOL    HW2 5525   2.494   3.389   0.175
 1841SOL     OW 5526   3.512   3.582   1.394
 1841SOL    HW1 5527   3.565   3.592   1.310
 1841SOL    HW2 5528   3.485   3.672   1.428
 1842SOL     OW 5529   3.703   2.037   0.963
 1842SOL    HW1 5530   3.742   1.952   0.927
 1842SOL    HW2 5531   3.605   2.039   0.944
 1843SOL     OW 5532   2.125   2.188   0.720
 1843SOL    HW1 5533   2.046   2.239   0.686
 1843SOL    HW2 5534   2.116   2.173   0.818
 1844SOL     OW 5535   3.056   3.474   0.031
 1844SOL    HW1 5536   3.062   3.381   0.068
 1844SOL    HW2 5537   2.997   3.474  -0.049
 1845SOL     OW 5538   2.684   2.864   1.372
 1845SOL    HW1 5539   2.724   2.863   1.280
 1845SOL    HW2 5540   2.694   2.956   1.412
 1846SOL     OW 5541   2.778   2.772   0.291
 1846SOL    HW1 5542   2.841   2.810   0.223
 1846SOL    HW2 5543   2.818   2.689   0.330
 1847SOL     OW 5544   3.366   3.469   0.044
 1847SOL    HW1 5545   3.274   3.506   0.051
 1847SOL    HW2 5546   3.404   3.489  -0.046
 1848SOL     OW 5547   2.234   3.150   1.490
 1848SOL    HW1 5548   2.221   3.243   1.456
 1848SOL    HW2 5549   2.150   3.098   1.477
 1849SOL     OW 5550   3.476   3.154   1.289
 1849SOL    HW1 5551   3.536   3.157   1.369
 1849SOL    HW2 5552   3.401   3.218   1.302
 1850SOL     OW 5553   2.901   2.960   0.696
 1850SOL    HW1 5554   2.831   2.913   0.750
 1850SOL    HW2 5555   2.960   2.892   0.653
 1851SOL     OW 5556   2.876   2.098   0.971
 1851SOL    HW1 5557   2.868   2.062   0.878
 1851SOL    HW2 5558   2.874   2.022   1.036
 1852SOL     OW 5559   2.452   3.349   0.491
 1852SOL    HW1 5560   2.494   3.291   0.421
 1852SOL    HW2 5561   2.408   3.428   0.447
 1853SOL     OW 5562   3.571   2.247   1.381
 1853SOL    HW1 5563   3.644   2.316   1.385
 1853SOL    HW2 5564   3.599   2.172   1.322
 1854SOL     OW 5565   2.117   3.210   0.290
 1854SOL    HW1 5566   2.021   3.211   0.263
 1854SOL    HW2 5567   2.129   3.263   0.374
 1855SOL     OW 5568   1.967   2.875   1.726
 1855SOL    HW1 5569   1.890   2.842   1.780
 1855SOL    HW2 5570   2.052   2.845   1.768
 1856SOL     OW 5571   2.534   2.065   1.489
 1856SOL    HW1 5572   2.624   2.049   1.449
 1856SOL    HW2 5573   2.542   2.070   1.588
 1857SOL     OW 5574   1.937   2.207   0.033
 1857SOL    HW1 5575   1.845   2.179   0.004
 1857SOL    HW2 5576   1.968   2.284  -0.023
 1858SOL     OW 5577   3.302   2.718   1.398
 1858SOL    HW1 5578   3.245   2.770   1.335
 1858SOL    HW2 5579   3.398   2.730   1.374
 1859SOL     OW 5580   1.934   2.028   0.318
 1859SOL    HW1 5581   1.917   2.111   0.264
 1859SOL    HW2 5582   2.024   1.991   0.296
 1860SOL     OW 5583   3.045   3.197   0.119
 1860SOL    HW1 5584   2.946   3.186   0.121
 1860SOL    HW2 5585   3.079   3.212   0.212
 1861SOL     OW 5586   2.475   2.704   1.431
 1861SOL    HW1 5587   2.531   2.785   1.414
 1861SOL    HW2 5588   2.534   2.624   1.434
 1862SOL     OW 5589   3.355   3.629   0.959
 1862SOL    HW1 5590   3.388   3.693   0.890
 1862SOL    HW2 5591   3.421   3.623   1.034
 1863SOL     OW 5592   2.578   2.427   1.708
 1863SOL    HW1 5593   2.597   2.492   1.782
 1863SOL    HW2 5594   2.638   2.347   1.717
 1864SOL     OW 5595   3.312   3.082   1.633
 1864SOL    HW1 5596   3.303   3.072   1.732
 1864SOL    HW2 5597   3.408   3.075   1.607
 1865SOL     OW 5598   2.252   3.603   1.560
 1865SOL    HW1 5599   2.161   3.644   1.558
 1865SOL    HW2 5600   2.245   3.509   1.592
 1866SOL     OW 5601   3.536   2.745   1.254
 1866SOL    HW1 5602   3.509   2.656   1.217
 1866SOL    HW2 5603   3.537   2.813   1.181
 1867SOL     OW 5604   3.087   2.187   0.449
 1867SOL    HW1 5605   3.152   2.113   0.438
 1867SOL    HW2 5606   3.107   2.237   0.533
 1868SOL     OW 5607   2.456   2.607   0.652
 1868SOL    HW1 5608   2.506   2.692   0.633
 1868SOL    HW2 5609   2.368   2.609   0.604
 1869SOL     OW 5610   3.639   2.204   1.642
 1869SOL    HW1 5611   3.622   2.235   1.548
 1869SOL    HW2 5612   3.555   2.167   1.680
 1870SOL     OW 5613   3.592   2.796   1.517
 1870SOL    HW1 5614   3.630   2.887   1.532
 1870SOL    HW2 5615   3.584   2.779   1.418
 1871SOL     OW 5616   2.721   3.236   0.016
 1871SOL    HW1 5617   2.675   3.251   0.104
 1871SOL    HW2 5618   2.765   3.321  -0.014
 1872SOL     OW 5619   2.523   3.652   0.953
 1872SOL    HW1 5620   2.477   3.740   0.940
 1872SOL    HW2 5621   2.622   3.664   0.946
 1873SOL     OW 5622   2.721   2.818   0.861
 1873SOL    HW1 5623   2.775   2.749   0.909
 1873SOL    HW2 5624   2.689   2.887   0.927
 1874SOL     OW 5625   2.945   2.846   0.087
 1874SOL    HW1 5626   2.922   2.899   0.005
 1874SOL    HW2 5627   3.026   2.790   0.068
 1875SOL     OW 5628   3.723   3.431   0.851
 1875SOL    HW1 5629   3.652   3.419   0.781
 1875SOL    HW2 5630   3.724   3.352   0.911
 1876SOL     OW 5631   2.083   3.176   1.844
 1876SOL    HW1 5632   2.018   3.103   1.823
 1876SOL    HW2 5633   2.087   3.190   1.942
 1877SOL     OW 5634   1.941   3.102   0.653
 1877SOL    HW1 5635   1.940   3.055   0.741
 1877SOL    HW2 5636   2.023   3.074   0.602
 1878SOL     OW 5637   2.534   3.253   1.624
 1878SOL    HW1 5638   2.456   3.203   1.662
 1878SOL    HW2 5639   2.531   3.348   1.655
 1879SOL     OW 5640   3.686   2.054   1.227
 1879SOL    HW1 5641   3.682   1.964   1.271
 1879SOL    HW2 5642   3.689   2.043   1.128
 1880SOL     OW 5643   2.290   2.286   0.520
 1880SOL    HW1 5644   2.320   2.214   0.458
 1880SOL    HW2 5645   2.251   2.246   0.603
 1881SOL     OW 5646   3.567   3.349   1.104
 1881SOL    HW1 5647   3.474   3.324   1.077
 1881SOL    HW2 5648   3.593   3.299   1.186
 1882SOL     OW 5649   2.179   2.409   1.280
 1882SOL    HW1 5650   2.217   2.350   1.352
 1882SOL    HW2 5651   2.219   2.383   1.192
 1883SOL     OW 5652   2.674   3.448   0.687
 1883SOL    HW1 5653   2.706   3.458   0.593
 1883SOL    HW2 5654   2.595   3.386   0.689
 1884SOL     OW 5655   3.286   2.076   1.112
 1884SOL    HW1 5656   3.338   2.011   1.167
 1884SOL    HW2 5657   3.237   2.139   1.173
 1885SOL     OW 5658   2.863   1.896   1.154
 1885SOL    HW1 5659   2.800   1.824   1.123
 1885SOL    HW2 5660   2.956   1.860   1.154
 1886SOL     OW 5661   2.632   3.192   0.301
 1886SOL    HW1 5662   2.586   3.105   0.318
 1886SOL    HW2 5663   2.723   3.189   0.342
 1887SOL     OW 5664   2.480   3.429   1.284
 1887SOL    HW1 5665   2.475   3.511   1.341
 1887SOL    HW2 5666   2.569   3.426   1.239
 1888SOL     OW 5667   3.214   1.914   0.168
 1888SOL    HW1 5668   3.249   1.873   0.084
 1888SOL    HW2 5669   3.124   1.876   0.188
 1889SOL     OW 5670   3.162   2.315   0.691
 1889SOL    HW1 5671   3.103   2.395   0.695
 1889SOL    HW2 5672   3.177   2.280   0.784
 1890SOL     OW 5673   3.455   2.083   0.882
 1890SOL    HW1 5674   3.371   2.082   0.936
 1890SOL    HW2 5675   3.457   2.166   0.826
 1891SOL     OW 5676   1.901   2.939   0.300
 1891SOL    HW1 5677   2.000   2.928   0.291
 1891SOL    HW2 5678   1.861   2.853   0.332
 1892SOL     OW 5679   2.737   3.508   0.337
 1892SOL    HW1 5680   2.660   3.473   0.283
 1892SOL    HW2 5681   2.705   3.579   0.399
 1893SOL     OW 5682   2.092   2.490   1.975
 1893SOL    HW1 5683   1.999   2.488   2.012
 1893SOL    HW2 5684   2.093   2.451   1.883
 1894SOL     OW 5685   2.087   2.137   2.858
 1894SOL    HW1 5686   2.122   2.120   2.950
 1894SOL    HW2 5687   1.999   2.092   2.846
 1895SOL     OW 5688   1.881   2.230   2.509
 1895SOL    HW1 5689   1.799   2.273   2.548
 1895SOL    HW2 5690   1.853   2.157   2.446
 1896SOL     OW 5691   2.431   3.137   3.027
 1896SOL    HW1 5692   2.338   3.130   2.990
 1896SOL    HW2 5693   2.442   3.226   3.071
 1897SOL     OW 5694   3.417   3.373   2.565
 1897SOL    HW1 5695   3.360   3.357   2.646
 1897SOL    HW2 5696   3.358   3.383   2.485
 1898SOL     OW 5697   2.997   2.565   2.579
 1898SOL    HW1 5698   3.054   2.643   2.554
 1898SOL    HW2 5699   2.937   2.591   2.655
 1899SOL     OW 5700   3.617   2.469   2.093
 1899SOL    HW1 5701   3.605   2.456   1.994
 1899SOL    HW2 5702   3.587   2.388   2.142
 1900SOL     OW 5703   2.630   3.006   2.885
 1900SOL    HW1 5704   2.552   3.023   2.945
 1900SOL    HW2 5705   2.664   3.093   2.849
 1901SOL     OW 5706   2.712   2.660   3.685
 1901SOL    HW1 5707   2.708   2.736   3.750
 1901SOL    HW2 5708   2.734   2.696   3.594
 1902SOL     OW 5709   2.547   2.874   2.527
 1902SOL    HW1 5710   2.616   2.858   2.597
 1902SOL    HW2 5711   2.474   2.931   2.565
 1903SOL     OW 5712   2.548   3.023   3.665
 1903SOL    HW1 5713   2.608   3.102   3.679
 1903SOL    HW2 5714   2.462   3.054   3.624
 1904SOL     OW 5715   2.197   3.297   2.923
 1904SOL    HW1 5716   2.119   3.266   2.870
 1904SOL    HW2 5717   2.255   3.355   2.866
 1905SOL     OW 5718   3.322   3.367   3.201
 1905SOL    HW1 5719   3.346   3.461   3.227
 1905SOL    HW2 5720   3.306   3.313   3.283
 1906SOL     OW 5721   2.300   2.254   3.361
 1906SOL    HW1 5722   2.382   2.198   3.370
 1906SOL    HW2 5723   2.219   2.196   3.365
 1907SOL     OW 5724   3.465   2.309   2.599
 1907SOL    HW1 5725   3.391   2.355   2.549
 1907SOL    HW2 5726   3.516   2.377   2.652
 1908SOL     OW 5727   2.093   3.575   2.345
 1908SOL    HW1 5728   2.127   3.652   2.399
 1908SOL    HW2 5729   2.137   3.575   2.255
 1909SOL     OW 5730   2.989   3.203   3.552
 1909SOL    HW1 5731   3.036   3.203   3.640
 1909SOL    HW2 5732   2.941   3.116   3.541
 1910SOL     OW 5733   2.092   3.296   2.400
 1910SOL    HW1 5734   2.066   3.392   2.400
 1910SOL    HW2 5735   2.021   3.242   2.445
 1911SOL     OW 5736   2.102   2.953   2.748
 1911SOL    HW1 5737   2.116   2.869   2.800
 1911SOL    HW2 5738   2.047   3.017   2.803
 1912SOL     OW 5739   2.482   3.648   3.301
 1912SOL    HW1 5740   2.390   3.631   3.336
 1912SOL    HW2 5741   2.510   3.740   3.327
 1913SOL     OW 5742   2.468   2.826   1.985
 1913SOL    HW1 5743   2.475   2.910   1.931
 1913SOL    HW2 5744   2.514   2.839   2.073
 1914SOL     OW 5745   3.456   1.976   3.342
 1914SOL    HW1 5746   3.438   2.043   3.270
 1914SOL    HW2 5747   3.453   2.022   3.431
 1915SOL     OW 5748   1.984   2.505   2.425
 1915SOL    HW1 5749   1.939   2.417   2.442
 1915SOL    HW2 5750   1.983   2.559   2.509
 1916SOL     OW 5751   3.704   3.629   2.221
 1916SOL    HW1 5752   3.758   3.600   2.301
 1916SOL    HW2 5753   3.734   3.719   2.192
 1917SOL     OW 5754   1.889   3.458   1.979
 1917SOL    HW1 5755   1.870   3.362   2.000
 1917SOL    HW2 5756   1.856   3.516   2.054
 1918SOL     OW 5757   3.551   2.784   2.474
 1918SOL    HW1 5758   3.646   2.755   2.482
 1918SOL    HW2 5759   3.543   2.849   2.399
 1919SOL     OW 5760   3.503   2.970   2.294
 1919SOL    HW1 5761   3.589   2.972   2.242
 1919SOL    HW2 5762   3.517   3.017   2.382
 1920SOL     OW 5763   1.975   2.599   3.459
 1920SOL    HW1 5764   2.063   2.586   3.504
 1920SOL    HW2 5765   1.962   2.696   3.437
 1921SOL     OW 5766   2.475   3.227   2.588
 1921SOL    HW1 5767   2.426   3.140   2.597
 1921SOL    HW2 5768   2.452   3.270   2.501
 1922SOL     OW 5769   3.155   3.090   3.285
 1922SOL    HW1 5770   3.192   3.017   3.227
 1922SOL    HW2 5771   3.207   3.095   3.370
 1923SOL     OW 5772   2.671   1.866   2.364
 1923SOL    HW1 5773   2.711   1.957   2.355
 1923SOL    HW2 5774   2.571   1.874   2.370
 1924SOL     OW 5775   2.059   2.838   3.126
 1924SOL    HW1 5776   2.148   2.793   3.112
 1924SOL    HW2 5777   1.986   2.773   3.107
 1925SOL     OW 5778   3.387   2.861   2.052
 1925SOL    HW1 5779   3.324   2.785   2.065
 1925SOL    HW2 5780   3.435   2.879   2.138
 1926SOL     OW 5781   3.049   3.654   3.478
 1926SOL    HW1 5782   3.073   3.714   3.402
 1926SOL    HW2 5783   3.056   3.559   3.448
 1927SOL     OW 5784   2.179   2.113   3.663
 1927SOL    HW1 5785   2.250   2.184   3.669
 1927SOL    HW2 5786   2.091   2.152   3.691
 1928SOL     OW 5787   3.328   3.279   2.815
 1928SOL    HW1 5788   3.269   3.285   2.895
 1928SOL    HW2 5789   3.313   3.191   2.769
 1929SOL     OW 5790   3.529   3.576   2.434
 1929SOL    HW1 5791   3.488   3.553   2.346
 1929SOL    HW2 5792   3.511   3.502   2.499
 1930SOL     OW 5793   2.460   2.591   2.132
 1930SOL    HW1 5794   2.484   2.660   2.064
 1930SOL    HW2 5795   2.382   2.624   2.186
 1931SOL     OW 5796   3.143   2.207   2.806
 1931SOL    HW1 5797   3.057   2.157   2.793
 1931SOL    HW2 5798   3.205   2.153   2.862
 1932SOL     OW 5799   3.438   3.524   2.169
 1932SOL    HW1 5800   3.527   3.570   2.172
 1932SOL    HW2 5801   3.417   3.500   2.074
 1933SOL     OW 5802   2.669   2.467   3.327
 1933SOL    HW1 5803   2.622   2.464   3.416
 1933SOL    HW2 5804   2.618   2.412   3.261
 1934SOL     OW 5805   3.256   2.331   3.536
 1934SOL    HW1 5806   3.236   2.374   3.624
 1934SOL    HW2 5807   3.334   2.269   3.545
 1935SOL     OW 5808   2.835   2.752   3.434
 1935SOL    HW1 5809   2.881   2.668   3.405
 1935SOL    HW2 5810   2.779   2.786   3.359
 1936SOL     OW 5811   2.853   2.272   3.104
 1936SOL    HW1 5812   2.776   2.306   3.158
 1936SOL    HW2 5813   2.819   2.221   3.025
 1937SOL     OW 5814   2.903   2.563   2.291
 1937SOL    HW1 5815   2.929   2.559   2.387
 1937SOL    HW2 5816   2.818   2.512   2.277
 1938SOL     OW 5817   1.938   2.673   2.651
 1938SOL    HW1 5818   2.037   2.661   2.660
 1938SOL    HW2 5819   1.914   2.768   2.672
 1939SOL     OW 5820   1.992   3.683   3.433
 1939SOL    HW1 5821   1.982   3.668   3.532
 1939SOL    HW2 5822   1.906   3.719   3.397
 1940SOL     OW 5823   2.727   2.210   2.057
 1940SOL    HW1 5824   2.786   2.273   2.008
 1940SOL    HW2 5825   2.746   2.116   2.028
 1941SOL     OW 5826   3.581   2.447   3.693
 1941SOL    HW1 5827   3.555   2.536   3.657
 1941SOL    HW2 5828   3.579   2.379   3.620
 1942SOL     OW 5829   3.224   3.006   2.407
 1942SOL    HW1 5830   3.307   2.977   2.359
 1942SOL    HW2 5831   3.175   3.073   2.351
 1943SOL     OW 5832   2.412   2.058   2.747
 1943SOL    HW1 5833   2.407   2.053   2.847
 1943SOL    HW2 5834   2.414   2.154   2.718
 1944SOL     OW 5835   2.870   3.318   2.339
 1944SOL    HW1 5836   2.824   3.390   2.287
 1944SOL    HW2 5837   2.866   3.338   2.437
 1945SOL     OW 5838   2.213   3.663   2.715
 1945SOL    HW1 5839   2.263   3.577   2.721
 1945SOL    HW2 5840   2.278   3.740   2.712
 1946SOL     OW 5841   3.657   2.928   2.735
 1946SOL    HW1 5842   3.595   2.913   2.659
 1946SOL    HW2 5843   3.605   2.939   2.820
 1947SOL     OW 5844   3.089   3.412   3.368
 1947SOL    HW1 5845   3.095   3.335   3.432
 1947SOL    HW2 5846   3.037   3.386   3.288
 1948SOL     OW 5847   2.183   2.805   2.104
 1948SOL    HW1 5848   2.265   2.844   2.062
 1948SOL    HW2 5849   2.156   2.723   2.055
 1949SOL     OW 5850   3.320   2.597   2.590
 1949SOL    HW1 5851   3.315   2.532   2.665
 1949SOL    HW2 5852   3.400   2.656   2.603
 1950SOL     OW 5853   2.323   3.128   3.589
 1950SOL    HW1 5854   2.273   3.129   3.503
 1950SOL    HW2 5855   2.260   3.110   3.665
 1951SOL     OW 5856   2.973   3.638   2.099
 1951SOL    HW1 5857   2.913   3.576   2.149
 1951SOL    HW2 5858   3.004   3.594   2.014
 1952SOL     OW 5859   2.064   2.147   3.360
 1952SOL    HW1 5860   1.984   2.207   3.347
 1952SOL    HW2 5861   2.054   2.098   3.446
 1953SOL     OW 5862   3.494   3.239   1.943
 1953SOL    HW1 5863   3.462   3.333   1.933
 1953SOL    HW2 5864   3.418   3.176   1.931
 1954SOL     OW 5865   2.326   3.605   2.185
 1954SOL    HW1 5866   2.359   3.644   2.271
 1954SOL    HW2 5867   2.402   3.598   2.120
 1955SOL     OW 5868   3.262   1.969   2.288
 1955SOL    HW1 5869   3.238   1.932   2.198
 1955SOL    HW2 5870   3.361   1.985   2.292
 1956SOL     OW 5871   2.111   3.647   3.103
 1956SOL    HW1 5872   2.168   3.582   3.153
 1956SOL    HW2 5873   2.095   3.614   3.010
 1957SOL     OW 5874   2.802   3.560   2.766
 1957SOL    HW1 5875   2.882   3.503   2.787
 1957SOL    HW2 5876   2.753   3.520   2.689
 1958SOL     OW 5877   3.409   2.084   3.591
 1958SOL    HW1 5878   3.404   2.121   3.683
 1958SOL    HW2 5879   3.337   2.015   3.579
 1959SOL     OW 5880   2.476   1.984   1.979
 1959SOL    HW1 5881   2.574   1.962   1.986
 1959SOL    HW2 5882   2.445   1.967   1.886
 1960SOL     OW 5883   2.643   2.126   3.611
 1960SOL    HW1 5884   2.710   2.065   3.654
 1960SOL    HW2 5885   2.570   2.145   3.676
 1961SOL     OW 5886   2.750   3.376   3.057
 1961SOL    HW1 5887   2.727   3.351   2.963
 1961SOL    HW2 5888   2.811   3.307   3.096
 1962SOL     OW 5889   3.213   2.452   3.295
 1962SOL    HW1 5890   3.241   2.409   3.380
 1962SOL    HW2 5891   3.238   2.548   3.296
 1963SOL     OW 5892   2.665   3.264   2.786
 1963SOL    HW1 5893   2.755   3.278   2.744
 1963SOL    HW2 5894   2.594   3.266   2.715
 1964SOL     OW 5895   2.784   2.365   2.761
 1964SOL    HW1 5896   2.759   2.356   2.665
 1964SOL    HW2 5897   2.832   2.283   2.792
 1965SOL     OW 5898   2.401   1.926   2.374
 1965SOL    HW1 5899   2.320   1.927   2.432
 1965SOL    HW2 5900   2.404   2.009   2.319
 1966SOL     OW 5901   3.296   3.050   1.903
 1966SOL    HW1 5902   3.328   2.974   1.960
 1966SOL    HW2 5903   3.204   3.077   1.933
 1967SOL     OW 5904   2.797   2.098   2.342
 1967SOL    HW1 5905   2.749   2.139   2.264
 1967SOL    HW2 5906   2.896   2.096   2.323
 1968SOL     OW 5907   2.938   2.545   3.326
 1968SOL    HW1 5908   2.858   2.484   3.329
 1968SOL    HW2 5909   3.019   2.492   3.302
 1969SOL     OW 5910   3.089   3.432   2.655
 1969SOL    HW1 5911   3.110   3.506   2.590
 1969SOL    HW2 5912   3.157   3.432   2.728
 1970SOL     OW 5913   2.321   3.014   2.603
 1970SOL    HW1 5914   2.250   2.987   2.668
 1970SOL    HW2 5915   2.295   2.986   2.510
 1971SOL     OW 5916   3.133   3.659   2.453
 1971SOL    HW1 5917   3.177   3.723   2.389
 1971SOL    HW2 5918   3.083   3.711   2.523
 1972SOL     OW 5919   2.894   2.411   1.878
 1972SOL    HW1 5920   2.853   2.493   1.839
 1972SOL    HW2 5921   2.958   2.437   1.951
 1973SOL     OW 5922   1.940   2.418   3.248
 1973SOL    HW1 5923   2.032   2.417   3.207
 1973SOL    HW2 5924   1.934   2.492   3.315
 1974SOL     OW 5925   2.423   2.084   3.009
 1974SOL    HW1 5926   2.461   2.000   3.046
 1974SOL    HW2 5927   2.335   2.103   3.053
 1975SOL     OW 5928   2.728   2.316   2.504
 1975SOL    HW1 5929   2.696   2.388   2.442
 1975SOL    HW2 5930   2.752   2.235   2.451
 1976SOL     OW 5931   2.879   1.901   2.615
 1976SOL    HW1 5932   2.807   1.906   2.546
 1976SOL    HW2 5933   2.855   1.832   2.684
 1977SOL     OW 5934   3.291   3.035   2.729
 1977SOL    HW1 5935   3.236   2.951   2.722
 1977SOL    HW2 5936   3.317   3.064   2.637
 1978SOL     OW 5937   3.328   2.452   2.854
 1978SOL    HW1 5938   3.298   2.357   2.861
 1978SOL    HW2 5939   3.401   2.468   2.920
 1979SOL     OW 5940   3.719   2.695   2.239
 1979SOL    HW1 5941   3.761   2.631   2.303
 1979SOL    HW2 5942   3.681   2.644   2.161
 1980SOL     OW 5943   2.350   3.247   2.036
 1980SOL    HW1 5944   2.263   3.232   2.083
 1980SOL    HW2 5945   2.333   3.273   1.941
 1981SOL     OW 5946   3.526   3.142   2.519
 1981SOL    HW1 5947   3.625   3.150   2.533
 1981SOL    HW2 5948   3.481   3.226   2.550
 1982SOL     OW 5949   3.252   2.437   1.940
 1982SOL    HW1 5950   3.198   2.416   2.021
 1982SOL    HW2 5951   3.343   2.396   1.949
 1983SOL     OW 5952   3.616   3.085   3.450
 1983SOL    HW1 5953   3.707   3.046   3.437
 1983SOL    HW2 5954   3.624   3.181   3.474
 1984SOL     OW 5955   2.926   3.209   3.202
 1984SOL    HW1 5956   2.846   3.186   3.257
 1984SOL    HW2 5957   3.009   3.183   3.251
 1985SOL     OW 5958   3.454   3.491   3.487
 1985SOL    HW1 5959   3.481   3.525   3.397
 1985SOL    HW2 5960   3.533   3.453   3.533
 1986SOL     OW 5961   2.973   3.057   2.962
 1986SOL    HW1 5962   2.933   3.101   3.043
 1986SOL    HW2 5963   2.932   3.094   2.879
 1987SOL     OW 5964   3.500   2.961   2.941
 1987SOL    HW1 5965   3.505   3.042   3.000
 1987SOL    HW2 5966   3.414   2.963   2.890
 1988SOL     OW 5967   2.777   1.951   3.264
 1988SOL    HW1 5968   2.802   1.931   3.169
 1988SOL    HW2 5969   2.849   2.007   3.306
 1989SOL     OW 5970   2.842   2.978   3.581
 1989SOL    HW1 5971   2.743   2.984   3.591
 1989SOL    HW2 5972   2.865   2.898   3.525
 1990SOL     OW 5973   2.567   2.912   2.230
 1990SOL    HW1 5974   2.553   2.919   2.329
 1990SOL    HW2 5975   2.651   2.861   2.212
 1991SOL     OW 5976   2.272   2.675   3.113
 1991SOL    HW1 5977   2.358   2.687   3.163
 1991SOL    HW2 5978   2.230   2.588   3.140
 1992SOL     OW 5979   3.136   2.248   3.124
 1992SOL    HW1 5980   3.157   2.322   3.188
 1992SOL    HW2 5981   3.047   2.265   3.081
 1993SOL     OW 5982   1.926   3.426   3.193
 1993SOL    HW1 5983   1.880   3.508   3.159
 1993SOL    HW2 5984   2.024   3.445   3.202
 1994SOL     OW 5985   2.229   2.962   2.363
 1994SOL    HW1 5986   2.222   3.045   2.307
 1994SOL    HW2 5987   2.233   2.882   2.303
 1995SOL     OW 5988   2.428   2.399   2.727
 1995SOL    HW1 5989   2.440   2.465   2.653
 1995SOL    HW2 5990   2.474   2.433   2.810
 1996SOL     OW 5991   3.114   3.210   2.250
 1996SOL    HW1 5992   3.164   3.287   2.290
 1996SOL    HW2 5993   3.019   3.212   2.282
 1997SOL     OW 5994   3.134   3.307   3.004
 1997SOL    HW1 5995   3.181   3.320   3.091
 1997SOL    HW2 5996   3.068   3.233   3.013
 1998SOL     OW 5997   3.444   2.501   2.334
 1998SOL    HW1 5998   3.413   2.562   2.407
 1998SOL    HW2 5999   3.494   2.553   2.265
 1999SOL     OW 6000   2.216   3.372   3.191
 1999SOL    HW1 6001   2.195   3.328   3.104
 1999SOL    HW2 6002   2.313   3.398   3.194
 2000SOL     OW 6003   2.264   2.613   3.460
 2000SOL    HW1 6004   2.332   2.668   3.413
 2000SOL    HW2 6005   2.304   2.525   3.487
 2001SOL     OW 6006   3.449   2.641   3.532
 2001SOL    HW1 6007   3.357   2.679   3.527
 2001SOL    HW2 6008   3.509   2.688   3.467
 2002SOL     OW 6009   2.875   1.967   3.632
 2002SOL    HW1 6010   2.881   2.052   3.580
 2002SOL    HW2 6011   2.907   1.891   3.575
 2003SOL     OW 6012   2.366   1.912   3.602
 2003SOL    HW1 6013   2.324   1.855   3.532
 2003SOL    HW2 6014   2.300   1.981   3.634
 2004SOL     OW 6015   2.435   2.732   2.891
 2004SOL    HW1 6016   2.479   2.821   2.882
 2004SOL    HW2 6017   2.372   2.732   2.968
 2005SOL     OW 6018   3.222   2.724   2.907
 2005SOL    HW1 6019   3.147   2.724   2.841
 2005SOL    HW2 6020   3.259   2.632   2.916
 2006SOL     OW 6021   3.071   2.387   2.137
 2006SOL    HW1 6022   3.084   2.303   2.191
 2006SOL    HW2 6023   3.042   2.461   2.197
 2007SOL     OW 6024   2.169   2.075   3.093
 2007SOL    HW1 6025   2.146   2.112   3.183
 2007SOL    HW2 6026   2.139   1.980   3.087
 2008SOL     OW 6027   1.899   3.172   3.144
 2008SOL    HW1 6028   1.952   3.123   3.212
 2008SOL    HW2 6029   1.921   3.270   3.149
 2009SOL     OW 6030   2.594   2.496   2.926
 2009SOL    HW1 6031   2.653   2.470   2.850
 2009SOL    HW2 6032   2.566   2.592   2.915
 2010SOL     OW 6033   3.590   2.797   3.716
 2010SOL    HW1 6034   3.544   2.790   3.627
 2010SOL    HW2 6035   3.528   2.841   3.782
 2011SOL     OW 6036   2.169   1.925   2.480
 2011SOL    HW1 6037   2.158   2.019   2.513
 2011SOL    HW2 6038   2.164   1.862   2.557
 2012SOL     OW 6039   3.484   2.229   2.236
 2012SOL    HW1 6040   3.486   2.153   2.300
 2012SOL    HW2 6041   3.436   2.306   2.276
 2013SOL     OW 6042   2.885   2.628   2.828
 2013SOL    HW1 6043   2.900   2.649   2.924
 2013SOL    HW2 6044   2.855   2.533   2.819
 2014SOL     OW 6045   2.842   3.435   3.562
 2014SOL    HW1 6046   2.822   3.479   3.474
 2014SOL    HW2 6047   2.881   3.344   3.546
 2015SOL     OW 6048   3.721   3.380   3.467
 2015SOL    HW1 6049   3.735   3.407   3.372
 2015SOL    HW2 6050   3.804   3.402   3.520
 2016SOL     OW 6051   2.212   2.760   3.666
 2016SOL    HW1 6052   2.288   2.804   3.714
 2016SOL    HW2 6053   2.247   2.713   3.584
 2017SOL     OW 6054   3.402   2.136   1.987
 2017SOL    HW1 6055   3.341   2.061   2.010
 2017SOL    HW2 6056   3.424   2.188   2.070
 2018SOL     OW 6057   3.165   2.700   1.904
 2018SOL    HW1 6058   3.199   2.607   1.919
 2018SOL    HW2 6059   3.183   2.727   1.809
 2019SOL     OW 6060   2.930   3.195   2.711
 2019SOL    HW1 6061   2.937   3.111   2.656
 2019SOL    HW2 6062   2.992   3.264   2.675
 2020SOL     OW 6063   2.181   2.672   2.811
 2020SOL    HW1 6064   2.274   2.708   2.816
 2020SOL    HW2 6065   2.175   2.587   2.863
 2021SOL     OW 6066   2.201   2.371   2.868
 2021SOL    HW1 6067   2.149   2.288   2.851
 2021SOL    HW2 6068   2.278   2.376   2.804
 2022SOL     OW 6069   3.000   2.242   3.540
 2022SOL    HW1 6070   2.955   2.305   3.604
 2022SOL    HW2 6071   3.093   2.273   3.523
 2023SOL     OW 6072   3.022   2.069   3.339
 2023SOL    HW1 6073   3.022   2.133   3.416
 2023SOL    HW2 6074   3.050   2.117   3.256
 2024SOL     OW 6075   1.870   3.188   2.062
 2024SOL    HW1 6076   1.777   3.209   2.031
 2024SOL    HW2 6077   1.880   3.089   2.075
 2025SOL     OW 6078   1.950   3.663   2.789
 2025SOL    HW1 6079   1.908   3.577   2.762
 2025SOL    HW2 6080   2.044   3.666   2.755
 2026SOL     OW 6081   2.366   3.430   2.772
 2026SOL    HW1 6082   2.432   3.504   2.781
 2026SOL    HW2 6083   2.410   3.351   2.730
 2027SOL     OW 6084   2.864   2.658   3.100
 2027SOL    HW1 6085   2.905   2.626   3.186
 2027SOL    HW2 6086   2.768   2.631   3.097
 2028SOL     OW 6087   1.902   2.406   2.976
 2028SOL    HW1 6088   1.987   2.373   2.935
 2028SOL    HW2 6089   1.915   2.421   3.074
 2029SOL     OW 6090   2.051   2.382   3.584
 2029SOL    HW1 6091   2.110   2.342   3.514
 2029SOL    HW2 6092   1.993   2.453   3.543
 2030SOL     OW 6093   3.231   2.812   3.522
 2030SOL    HW1 6094   3.270   2.901   3.542
 2030SOL    HW2 6095   3.241   2.792   3.425
 2031SOL     OW 6096   2.677   2.434   2.187
 2031SOL    HW1 6097   2.684   2.345   2.141
 2031SOL    HW2 6098   2.583   2.468   2.179
 2032SOL     OW 6099   3.519   2.466   3.068
 2032SOL    HW1 6100   3.481   2.397   3.130
 2032SOL    HW2 6101   3.601   2.430   3.024
 2033SOL     OW 6102   2.114   3.426   3.606
 2033SOL    HW1 6103   2.084   3.483   3.682
 2033SOL    HW2 6104   2.107   3.329   3.632
 2034SOL     OW 6105   2.533   2.326   3.131
 2034SOL    HW1 6106   2.499   2.237   3.101
 2034SOL    HW2 6107   2.559   2.380   3.051
 2035SOL     OW 6108   2.792   3.540   3.327
 2035SOL    HW1 6109   2.768   3.522   3.232
 2035SOL    HW2 6110   2.822   3.634   3.337
 2036SOL     OW 6111   2.021   2.999   3.328
 2036SOL    HW1 6112   2.043   2.938   3.404
 2036SOL    HW2 6113   2.031   2.950   3.242
 2037SOL     OW 6114   3.209   2.921   3.096
 2037SOL    HW1 6115   3.233   2.858   3.022
 2037SOL    HW2 6116   3.119   2.961   3.078
 2038SOL     OW 6117   3.164   2.717   2.171
 2038SOL    HW1 6118   3.078   2.686   2.213
 2038SOL    HW2 6119   3.160   2.703   2.072
 2039SOL     OW 6120   3.621   3.609   3.016
 2039SOL    HW1 6121   3.682   3.639   2.943
 2039SOL    HW2 6122   3.583   3.520   2.994
 2040SOL     OW 6123   3.114   3.593   2.990
 2040SOL    HW1 6124   3.198   3.598   2.936
 2040SOL    HW2 6125   3.091   3.497   3.008
 2041SOL     OW 6126   1.945   3.120   2.884
 2041SOL    HW1 6127   1.940   3.119   2.984
 2041SOL    HW2 6128   1.862   3.079   2.846
 2042SOL     OW 6129   2.550   3.524   3.578
 2042SOL    HW1 6130   2.494   3.605   3.587
 2042SOL    HW2 6131   2.602   3.528   3.492
 2043SOL     OW 6132   3.588   1.997   2.385
 2043SOL    HW1 6133   3.661   1.980   2.318
 2043SOL    HW2 6134   3.557   1.910   2.423
 2044SOL     OW 6135   3.250   3.435   2.339
 2044SOL    HW1 6136   3.317   3.447   2.265
 2044SOL    HW2 6137   3.210   3.524   2.362
 2045SOL     OW 6138   1.992   3.656   3.713
 2045SOL    HW1 6139   1.951   3.582   3.766
 2045SOL    HW2 6140   2.056   3.707   3.771
 2046SOL     OW 6141   3.142   2.789   2.534
 2046SOL    HW1 6142   3.202   2.708   2.536
 2046SOL    HW2 6143   3.182   2.858   2.474
 2047SOL     OW 6144   2.692   3.135   3.284
 2047SOL    HW1 6145   2.687   3.168   3.379
 2047SOL    HW2 6146   2.606   3.154   3.238
 2048SOL     OW 6147   2.534   3.478   2.016
 2048SOL    HW1 6148   2.543   3.488   1.917
 2048SOL    HW2 6149   2.494   3.389   2.037
 2049SOL     OW 6150   3.512   3.582   3.256
 2049SOL    HW1 6151   3.565   3.592   3.172
 2049SOL    HW2 6152   3.485   3.672   3.290
 2050SOL     OW 6153   3.703   2.037   2.825
 2050SOL    HW1 6154   3.742   1.952   2.789
 2050SOL    HW2 6155   3.605   2.039   2.806
 2051SOL     OW 6156   2.125   2.188   2.582
 2051SOL    HW1 6157   2.046   2.239   2.548
 2051SOL    HW2 6158   2.116   2.173   2.680
 2052SOL     OW 6159   3.056   3.474   1.893
 2052SOL    HW1 6160   3.062   3.381   1.930
 2052SOL    HW2 6161   2.997   3.474   1.813
 2053SOL     OW 6162   2.684   2.864   3.234
 2053SOL    HW1 6163   2.724   2.863   3.142
 2053SOL    HW2 6164   2.694   2.956   3.274
 2054SOL     OW 6165   2.778   2.772   2.153
 2054SOL    HW1 6166   2.841   2.810   2.085
 2054SOL    HW2 6167   2.818   2.689   2.192
 2055SOL     OW 6168   3.366   3.469   1.906
 2055SOL    HW1 6169   3.274   3.506   1.913
 2055SOL    HW2 6170   3.404   3.489   1.816
 2056SOL     OW 6171   2.234   3.150   3.352
 2056SOL    HW1 6172   2.221   3.243   3.318
 2056SOL    HW2 6173   2.150   3.098   3.339
 2057SOL     OW 6174   3.476   3.154   3.151
 2057SOL    HW1 6175   3.536   3.157   3.231
 2057SOL    HW2 6176   3.401   3.218   3.164
 2058SOL     OW 6177   2.901   2.960   2.558
 2058SOL    HW1 6178   2.831   2.913   2.612
 2058SOL    HW2 6179   2.960   2.892   2.515
 2059SOL     OW 6180   2.876   2.098   2.833
 2059SOL    HW1 6181   2.868   2.062   2.740
 2059SOL    HW2 6182   2.874   2.022   2.898
 2060SOL     OW 6183   2.452   3.349   2.353
 2060SOL    HW1 6184   2.494   3.291   2.283
 2060SOL    HW2 6185   2.408   3.428   2.309
 2061SOL     OW 6186   3.571   2.247   3.243
 2061SOL    HW1 6187   3.644   2.316   3.247
 2061SOL    HW2 6188   3.599   2.172   3.184
 2062SOL     OW 6189   2.117   3.210   2.152
 2062SOL    HW1 6190   2.021   3.211   2.125
 2062SOL    HW2 6191   2.129   3.263   2.236
 2063SOL     OW 6192   1.967   2.875   3.588
 2063SOL    HW1 6193   1.890   2.842   3.642
 2063SOL    HW2 6194   2.052   2.845   3.630
 2064SOL     OW 6195   2.534   2.065   3.351
 2064SOL    HW1 6196   2.624   2.049   3.311
 2064SOL    HW2 6197   2.542   2.070   3.450
 2065SOL     OW 6198   1.937   2.207   1.895
 2065SOL    HW1 6199   1.845   2.179   1.866
 2065SOL    HW2 6200   1.968   2.284   1.839
 2066SOL     OW 6201   3.302   2.718   3.260
 2066SOL    HW1 6202   3.245   2.770   3.197
 2066SOL    HW2 6203   3.398   2.730   3.236
 2067SOL     OW 6204   1.934   2.028   2.180
 2067SOL    HW1 6205   1.917   2.111   2.126
 2067SOL    HW2 6206   2.024   1.991   2.158
 2068SOL     OW 6207   3.045   3.197   1.981
 2068SOL    HW1 6208   2.946   3.186   1.983
 2068SOL    HW2 6209   3.079   3.212   2.074
 2069SOL     OW 6210   2.475   2.704   3.293
 2069SOL    HW1 6211   2.531   2.785   3.276
 2069SOL    HW2 6212   2.534   2.624   3.296
 2070SOL     OW 6213   3.355   3.629   2.821
 2070SOL    HW1 6214   3.388   3.693   2.752
 2070SOL    HW2 6215   3.421   3.623   2.896
 2071SOL     OW 6216   2.578   2.427   3.570
 2071SOL    HW1 6217   2.597   2.492   3.644
 2071SOL    HW2 6218   2.638   2.347   3.579
 2072SOL     OW 6219   3.312   3.082   3.495
 2072SOL    HW1 6220   3.303   3.072   3.594
 2072SOL    HW2 6221   3.408   3.075   3.469
 2073SOL     OW 6222   2.252   3.603   3.422
 2073SOL    HW1 6223   2.161   3.644   3.420
 2073SOL    HW2 6224   2.245   3.509   3.454
 2074SOL     OW 6225   3.536   2.745   3.116
 2074SOL    HW1 6226   3.509   2.656   3.079
 2074SOL    HW2 6227   3.537   2.813   3.043
 2075SOL     OW 6228   3.087   2.187   2.311
 2075SOL    HW1 6229   3.152   2.113   2.300
 2075SOL    HW2 6230   3.107   2.237   2.395
 2076SOL     OW 6231   2.456   2.607   2.514
 2076SOL    HW1 6232   2.506   2.692   2.495
 2076SOL    HW2 6233   2.368   2.609   2.466
 2077SOL     OW 6234   3.639   2.204   3.504
 2077SOL    HW1 6235   3.622   2.235   3.410
 2077SOL    HW2 6236   3.555   2.167   3.542
 2078SOL     OW 6237   3.592   2.796   3.379
 2078SOL    HW1 6238   3.630   2.887   3.394
 2078SOL    HW2 6239   3.584   2.779   3.280
 2079SOL     OW 6240   2.721   3.236   1.878
 2079SOL    HW1 6241   2.675   3.251   1.966
 2079SOL    HW2 6242   2.765   3.321   1.848
 2080SOL     OW 6243   2.523   3.652   2.815
 2080SOL    HW1 6244   2.477   3.740   2.802
 2080SOL    HW2 6245   2.622   3.664   2.808
 2081SOL     OW 6246   2.721   2.818   2.723
 2081SOL    HW1 6247   2.775   2.749   2.771
 2081SOL    HW2 6248   2.689   2.887   2.789
 2082SOL     OW 6249   2.945   2.846   1.949
 2082SOL    HW1 6250   2.922   2.899   1.867
 2082SOL    HW2 6251   3.026   2.790   1.930
 2083SOL     OW 6252   3.723   3.431   2.713
 2083SOL    HW1 6253   3.652   3.419   2.643
 2083SOL    HW2 6254   3.724   3.352   2.773
 2084SOL     OW 6255   2.083   3.176   3.706
 2084SOL    HW1 6256   2.018   3.103   3.685
 2084SOL    HW2 6257   2.087   3.190   3.804
 2085SOL     OW 6258   1.941   3.102   2.515
 2085SOL    HW1 6259   1.940   3.055   2.603
 2085SOL    HW2 6260   2.023   3.074   2.464
 2086SOL     OW 6261   2.534   3.253   3.486
 2086SOL    HW1 6262   2.456   3.203   3.524
 2086SOL    HW2 6263   2.531   3.348   3.517
 2087SOL     OW 6264   3.686   2.054   3.089
 2087SOL    HW1 6265   3.682   1.964   3.133
 2087SOL    HW2 6266   3.689   2.043   2.990
 2088SOL     OW 6267   3.567   3.349   2.966
 2088SOL    HW1 6268   3.474   3.324   2.939
 2088SOL    HW2 6269   3.593   3.299   3.048
 2089SOL     OW 6270   2.179   2.409   3.142
 2089SOL    HW1 6271   2.217   2.350   3.214
 2089SOL    HW2 6272   2.219   2.383   3.054
 2090SOL     OW 6273   2.674   3.448   2.549
 2090SOL    HW1 6274   2.706   3.458   2.455
 2090SOL    HW2 6275   2.595   3.386   2.551
 2091SOL     OW 6276   3.286   2.076   2.974
 2091SOL    HW1 6277   3.338   2.011   3.029
 2091SOL    HW2 6278   3.237   2.139   3.035
 2092SOL     OW 6279   2.863   1.896   3.016
 2092SOL    HW1 6280   2.800   1.824   2.985
 2092SOL    HW2 6281   2.956   1.860   3.016
 2093SOL     OW 6282   2.632   3.192   2.163
 2093SOL    HW1 6283   2.586   3.105   2.180
 2093SOL    HW2 6284   2.723   3.189   2.204
 2094SOL     OW 6285   2.480   3.429   3.146
 2094SOL    HW1 6286   2.475   3.511   3.203
 2094SOL    HW2 6287   2.569   3.426   3.101
 2095SOL     OW 6288   3.214   1.914   2.030
 2095SOL    HW1 6289   3.249   1.873   1.946
 2095SOL    HW2 6290   3.124   1.876   2.050
 2096SOL     OW 6291   3.162   2.315   2.553
 2096SOL    HW1 6292   3.103   2.395   2.557
 2096SOL    HW2 6293   3.177   2.280   2.646
 2097SOL     OW 6294   3.455   2.083   2.744
 2097SOL    HW1 6295   3.371   2.082   2.798
 2097SOL    HW2 6296   3.457   2.166   2.688
 2098SOL     OW 6297   1.901   2.939   2.162
 2098SOL    HW1 6298   2.000   2.928   2.153
 2098SOL    HW2 6299   1.861   2.853   2.194
 2099SOL     OW 6300   2.737   3.508   2.199
 2099SOL    HW1 6301   2.660   3.473   2.145
 2099SOL    HW2 6302   2.705   3.579   2.261
 2100SOL     OW 6303   2.092   2.490   3.837
 2100SOL    HW1 6304   1.999   2.488   3.874
 2100SOL    HW2 6305   2.093   2.451   3.745
 2101SOL     OW 6306   3.617   2.469   3.955
 2101SOL    HW1 6307   3.605   2.456   3.856
 2101SOL    HW2 6308   3.587   2.388   4.004
 2102SOL     OW 6309   2.093   3.575   4.207
 2102SOL    HW1 6310   2.127   3.652   4.261
 2102SOL    HW2 6311   2.137   3.575   4.117
 2103SOL     OW 6312   2.092   3.296   4.262
 2103SOL    HW1 6313   2.066   3.392   4.262
 2103SOL    HW2 6314   2.021   3.242   4.307
 2104SOL     OW 6315   2.468   2.826   3.847
 2104SOL    HW1 6316   2.475   2.910   3.793
 2104SOL    HW2 6317   2.514   2.839   3.935
 2105SOL     OW 6318   1.984   2.505   4.287
 2105SOL    HW1 6319   1.939   2.417   4.304
 2105SOL    HW2 6320   1.983   2.559   4.371
 2106SOL     OW 6321   3.704   3.629   4.083
 2106SOL    HW1 6322   3.758   3.600   4.163
 2106SOL    HW2 6323   3.734   3.719   4.054
 2107SOL     OW 6324   1.889   3.458   3.841
 2107SOL    HW1 6325   1.870   3.362   3.862
 2107SOL    HW2 6326   1.856   3.516   3.916
 2108SOL     OW 6327   3.551   2.784   4.336
 2108SOL    HW1 6328   3.646   2.755   4.344
 2108SOL    HW2 6329   3.543   2.849   4.261
 2109SOL     OW 6330   3.503   2.970   4.156
 2109SOL    HW1 6331   3.589   2.972   4.104
 2109SOL    HW2 6332   3.517   3.017   4.244
 2110SOL     OW 6333   2.671   1.866   4.226
 2110SOL    HW1 6334   2.711   1.957   4.217
 2110SOL    HW2 6335   2.571   1.874   4.232
 2111SOL     OW 6336   3.387   2.861   3.914
 2111SOL    HW1 6337   3.324   2.785   3.927
 2111SOL    HW2 6338   3.435   2.879   4.000
 2112SOL     OW 6339   2.460   2.591   3.994
 2112SOL    HW1 6340   2.484   2.660   3.926
 2112SOL    HW2 6341   2.382   2.624   4.048
 2113SOL     OW 6342   3.438   3.524   4.031
 2113SOL    HW1 6343   3.527   3.570   4.034
 2113SOL    HW2 6344   3.417   3.500   3.936
 2114SOL     OW 6345   2.903   2.563   4.153
 2114SOL    HW1 6346   2.929   2.559   4.249
 2114SOL    HW2 6347   2.818   2.512   4.139
 2115SOL     OW 6348   1.938   2.673   4.513
 2115SOL    HW1 6349   2.037   2.661   4.522
 2115SOL    HW2 6350   1.914   2.768   4.534
 2116SOL     OW 6351   2.727   2.210   3.919
 2116SOL    HW1 6352   2.786   2.273   3.870
 2116SOL    HW2 6353   2.746   2.116   3.890
 2117SOL     OW 6354   3.224   3.006   4.269
 2117SOL    HW1 6355   3.307   2.977   4.221
 2117SOL    HW2 6356   3.175   3.073   4.213
 2118SOL     OW 6357   2.870   3.318   4.201
 2118SOL    HW1 6358   2.824   3.390   4.149
 2118SOL    HW2 6359   2.866   3.338   4.299
 2119SOL     OW 6360   2.213   3.663   4.577
 2119SOL    HW1 6361   2.263   3.577   4.583
 2119SOL    HW2 6362   2.278   3.740   4.574
 2120SOL     OW 6363   2.183   2.805   3.966
 2120SOL    HW1 6364   2.265   2.844   3.924
 2120SOL    HW2 6365   2.156   2.723   3.917
 2121SOL     OW 6366   2.973   3.638   3.961
 2121SOL    HW1 6367   2.913   3.576   4.011
 2121SOL    HW2 6368   3.004   3.594   3.876
 2122SOL     OW 6369   3.494   3.239   3.805
 2122SOL    HW1 6370   3.462   3.333   3.795
 2122SOL    HW2 6371   3.418   3.176   3.793
 2123SOL     OW 6372   2.326   3.605   4.047
 2123SOL    HW1 6373   2.359   3.644   4.133
 2123SOL    HW2 6374   2.402   3.598   3.982
 2124SOL     OW 6375   3.262   1.969   4.150
 2124SOL    HW1 6376   3.238   1.932   4.060
 2124SOL    HW2 6377   3.361   1.985   4.154
 2125SOL     OW 6378   2.244   2.562   4.204
 2125SOL    HW1 6379   2.289   2.472   4.201
 2125SOL    HW2 6380   2.150   2.551   4.237
 2126SOL     OW 6381   2.476   1.984   3.841
 2126SOL    HW1 6382   2.574   1.962   3.848
 2126SOL    HW2 6383   2.445   1.967   3.748
 2127SOL     OW 6384   2.401   1.926   4.236
 2127SOL    HW1 6385   2.320   1.927   4.294
 2127SOL    HW2 6386   2.404   2.009   4.181
 2128SOL     OW 6387   3.296   3.050   3.765
 2128SOL    HW1 6388   3.328   2.974   3.822
 2128SOL    HW2 6389   3.204   3.077   3.795
 2129SOL     OW 6390   2.159   1.897   3.895
 2129SOL    HW1 6391   2.208   1.981   3.874
 2129SOL    HW2 6392   2.221   1.832   3.940
 2130SOL     OW 6393   2.797   2.098   4.204
 2130SOL    HW1 6394   2.749   2.139   4.126
 2130SOL    HW2 6395   2.896   2.096   4.185
 2131SOL     OW 6396   2.321   3.014   4.465
 2131SOL    HW1 6397   2.250   2.987   4.530
 2131SOL    HW2 6398   2.295   2.986   4.372
 2132SOL     OW 6399   3.133   3.659   4.315
 2132SOL    HW1 6400   3.177   3.723   4.251
 2132SOL    HW2 6401   3.083   3.711   4.385
 2133SOL     OW 6402   2.894   2.411   3.740
 2133SOL    HW1 6403   2.853   2.493   3.701
 2133SOL    HW2 6404   2.958   2.437   3.813
 2134SOL     OW 6405   2.728   2.316   4.366
 2134SOL    HW1 6406   2.696   2.388   4.304
 2134SOL    HW2 6407   2.752   2.235   4.313
 2135SOL     OW 6408   3.719   2.695   4.101
 2135SOL    HW1 6409   3.761   2.631   4.165
 2135SOL    HW2 6410   3.681   2.644   4.023
 2136SOL     OW 6411   2.350   3.247   3.898
 2136SOL    HW1 6412   2.263   3.232   3.945
 2136SOL    HW2 6413   2.333   3.273   3.803
 2137SOL     OW 6414   3.252   2.437   3.802
 2137SOL    HW1 6415   3.198   2.416   3.883
 2137SOL    HW2 6416   3.343   2.396   3.811
 2138SOL     OW 6417   2.389   2.118   4.052
 2138SOL    HW1 6418   2.416   2.059   3.977
 2138SOL    HW2 6419   2.389   2.213   4.021
 2139SOL     OW 6420   2.567   2.912   4.092
 2139SOL    HW1 6421   2.553   2.919   4.191
 2139SOL    HW2 6422   2.651   2.861   4.074
 2140SOL     OW 6423   2.229   2.962   4.225
 2140SOL    HW1 6424   2.222   3.045   4.169
 2140SOL    HW2 6425   2.233   2.882   4.165
 2141SOL     OW 6426   3.114   3.210   4.112
 2141SOL    HW1 6427   3.164   3.287   4.152
 2141SOL    HW2 6428   3.019   3.212   4.144
 2142SOL     OW 6429   3.444   2.501   4.196
 2142SOL    HW1 6430   3.413   2.562   4.269
 2142SOL    HW2 6431   3.494   2.553   4.127
 2143SOL     OW 6432   3.071   2.387   3.999
 2143SOL    HW1 6433   3.084   2.303   4.053
 2143SOL    HW2 6434   3.042   2.461   4.059
 2144SOL     OW 6435   2.169   1.925   4.342
 2144SOL    HW1 6436   2.158   2.019   4.375
 2144SOL    HW2 6437   2.164   1.862   4.419
 2145SOL     OW 6438   3.484   2.229   4.098
 2145SOL    HW1 6439   3.486   2.153   4.162
 2145SOL    HW2 6440   3.436   2.306   4.138
 2146SOL     OW 6441   3.402   2.136   3.849
 2146SOL    HW1 6442   3.341   2.061   3.872
 2146SOL    HW2 6443   3.424   2.188   3.932
 2147SOL     OW 6444   3.165   2.700   3.766
 2147SOL    HW1 6445   3.199   2.607   3.781
 2147SOL    HW2 6446   3.183   2.727   3.671
 2148SOL     OW 6447   1.870   3.188   3.924
 2148SOL    HW1 6448   1.777   3.209   3.893
 2148SOL    HW2 6449   1.880   3.089   3.937
 2149SOL     OW 6450   2.677   2.434   4.049
 2149SOL    HW1 6451   2.684   2.345   4.003
 2149SOL    HW2 6452   2.583   2.468   4.041
 2150SOL     OW 6453   2.335   2.362   3.915
 2150SOL    HW1 6454   2.396   2.442   3.919
 2150SOL    HW2 6455   2.240   2.393   3.922
 2151SOL     OW 6456   3.164   2.717   4.033
 2151SOL    HW1 6457   3.078   2.686   4.075
 2151SOL    HW2 6458   3.160   2.703   3.934
 2152SOL     OW 6459   3.588   1.997   4.247
 2152SOL    HW1 6460   3.661   1.980   4.180
 2152SOL    HW2 6461   3.557   1.910   4.285
 2153SOL     OW 6462   3.250   3.435   4.201
 2153SOL    HW1 6463   3.317   3.447   4.127
 2153SOL    HW2 6464   3.210   3.524   4.224
 2154SOL     OW 6465   2.534   3.478   3.878
 2154SOL    HW1 6466   2.543   3.488   3.779
 2154SOL    HW2 6467   2.494   3.389   3.899
 2155SOL     OW 6468   3.056   3.474   3.755
 2155SOL    HW1 6469   3.062   3.381   3.792
 2155SOL    HW2 6470   2.997   3.474   3.675
 2156SOL     OW 6471   2.778   2.772   4.015
 2156SOL    HW1 6472   2.841   2.810   3.947
 2156SOL    HW2 6473   2.818   2.689   4.054
 2157SOL     OW 6474   3.366   3.469   3.768
 2157SOL    HW1 6475   3.274   3.506   3.775
 2157SOL    HW2 6476   3.404   3.489   3.678
 2158SOL     OW 6477   2.452   3.349   4.215
 2158SOL    HW1 6478   2.494   3.291   4.145
 2158SOL    HW2 6479   2.408   3.428   4.171
 2159SOL     OW 6480   2.117   3.210   4.014
 2159SOL    HW1 6481   2.021   3.211   3.987
 2159SOL    HW2 6482   2.129   3.263   4.098
 2160SOL     OW 6483   1.937   2.207   3.757
 2160SOL    HW1 6484   1.845   2.179   3.728
 2160SOL    HW2 6485   1.968   2.284   3.701
 2161SOL     OW 6486   1.934   2.028   4.042
 2161SOL    HW1 6487   1.917   2.111   3.988
 2161SOL    HW2 6488   2.024   1.991   4.020
 2162SOL     OW 6489   3.045   3.197   3.843
 2162SOL    HW1 6490   2.946   3.186   3.845
 2162SOL    HW2 6491   3.079   3.212   3.936
 2163SOL     OW 6492   3.087   2.187   4.173
 2163SOL    HW1 6493   3.152   2.113   4.162
 2163SOL    HW2 6494   3.107   2.237   4.257
 2164SOL     OW 6495   2.456   2.607   4.376
 2164SOL    HW1 6496   2.506   2.692   4.357
 2164SOL    HW2 6497   2.368   2.609   4.328
 2165SOL     OW 6498   2.721   3.236   3.740
 2165SOL    HW1 6499   2.675   3.251   3.828
 2165SOL    HW2 6500   2.765   3.321   3.710
 2166SOL     OW 6501   2.945   2.846   3.811
 2166SOL    HW1 6502   2.922   2.899   3.729
 2166SOL    HW2 6503   3.026   2.790   3.792
 2167SOL     OW 6504   1.941   3.102   4.377
 2167SOL    HW1 6505   1.940   3.055   4.465
 2167SOL    HW2 6506   2.023   3.074   4.326
 2168SOL     OW 6507   2.290   2.286   4.244
 2168SOL    HW1 6508   2.320   2.214   4.182
 2168SOL    HW2 6509   2.251   2.246   4.327
 2169SOL     OW 6510   2.632   3.192   4.025
 2169SOL    HW1 6511   2.586   3.105   4.042
 2169SOL    HW2 6512   2.723   3.189   4.066
 2170SOL     OW 6513   3.214   1.914   3.892
 2170SOL    HW1 6514   3.249   1.873   3.808
 2170SOL    HW2 6515   3.124   1.876   3.912
 2171SOL     OW 6516   1.901   2.939   4.024
 2171SOL    HW1 6517   2.000   2.928   4.015
 2171SOL    HW2 6518   1.861   2.853   4.056
 2172SOL     OW 6519   2.737   3.508   4.061
 2172SOL    HW1 6520   2.660   3.473   4.007
 2172SOL    HW2 6521   2.705   3.579   4.123
 2173SOL     OW 6522   2.087   3.999   0.996
 2173SOL    HW1 6523   2.122   3.982   1.088
 2173SOL    HW2 6524   1.999   3.954   0.984
 2174SOL     OW 6525   1.881   4.092   0.647
 2174SOL    HW1 6526   1.799   4.135   0.686
 2174SOL    HW2 6527   1.853   4.019   0.584
 2175SOL     OW 6528   3.617   4.331   0.231
 2175SOL    HW1 6529   3.605   4.318   0.132
 2175SOL    HW2 6530   3.587   4.250   0.280
 2176SOL     OW 6531   2.300   4.116   1.499
 2176SOL    HW1 6532   2.382   4.060   1.508
 2176SOL    HW2 6533   2.219   4.058   1.503
 2177SOL     OW 6534   3.465   4.171   0.737
 2177SOL    HW1 6535   3.391   4.217   0.687
 2177SOL    HW2 6536   3.516   4.239   0.790
 2178SOL     OW 6537   3.456   3.838   1.480
 2178SOL    HW1 6538   3.438   3.905   1.408
 2178SOL    HW2 6539   3.453   3.884   1.569
 2179SOL     OW 6540   1.984   4.367   0.563
 2179SOL    HW1 6541   1.939   4.279   0.580
 2179SOL    HW2 6542   1.983   4.421   0.647
 2180SOL     OW 6543   2.671   3.728   0.502
 2180SOL    HW1 6544   2.711   3.819   0.493
 2180SOL    HW2 6545   2.571   3.736   0.508
 2181SOL     OW 6546   2.179   3.975   1.801
 2181SOL    HW1 6547   2.250   4.046   1.807
 2181SOL    HW2 6548   2.091   4.014   1.829
 2182SOL     OW 6549   3.143   4.069   0.944
 2182SOL    HW1 6550   3.057   4.019   0.931
 2182SOL    HW2 6551   3.205   4.015   1.000
 2183SOL     OW 6552   2.669   4.329   1.465
 2183SOL    HW1 6553   2.622   4.326   1.554
 2183SOL    HW2 6554   2.618   4.274   1.399
 2184SOL     OW 6555   3.256   4.193   1.674
 2184SOL    HW1 6556   3.236   4.236   1.762
 2184SOL    HW2 6557   3.334   4.131   1.683
 2185SOL     OW 6558   2.853   4.134   1.242
 2185SOL    HW1 6559   2.776   4.168   1.296
 2185SOL    HW2 6560   2.819   4.083   1.163
 2186SOL     OW 6561   2.903   4.425   0.429
 2186SOL    HW1 6562   2.929   4.421   0.525
 2186SOL    HW2 6563   2.818   4.374   0.415
 2187SOL     OW 6564   2.727   4.072   0.195
 2187SOL    HW1 6565   2.786   4.135   0.146
 2187SOL    HW2 6566   2.746   3.978   0.166
 2188SOL     OW 6567   3.581   4.309   1.831
 2188SOL    HW1 6568   3.555   4.398   1.795
 2188SOL    HW2 6569   3.579   4.241   1.758
 2189SOL     OW 6570   2.412   3.920   0.885
 2189SOL    HW1 6571   2.407   3.915   0.985
 2189SOL    HW2 6572   2.414   4.016   0.856
 2190SOL     OW 6573   3.320   4.459   0.728
 2190SOL    HW1 6574   3.315   4.394   0.803
 2190SOL    HW2 6575   3.400   4.518   0.741
 2191SOL     OW 6576   2.064   4.009   1.498
 2191SOL    HW1 6577   1.984   4.069   1.485
 2191SOL    HW2 6578   2.054   3.960   1.584
 2192SOL     OW 6579   3.262   3.831   0.426
 2192SOL    HW1 6580   3.238   3.794   0.336
 2192SOL    HW2 6581   3.361   3.847   0.430
 2193SOL     OW 6582   3.409   3.946   1.729
 2193SOL    HW1 6583   3.404   3.983   1.821
 2193SOL    HW2 6584   3.337   3.877   1.717
 2194SOL     OW 6585   2.476   3.846   0.117
 2194SOL    HW1 6586   2.574   3.824   0.124
 2194SOL    HW2 6587   2.445   3.829   0.024
 2195SOL     OW 6588   2.643   3.988   1.749
 2195SOL    HW1 6589   2.710   3.927   1.792
 2195SOL    HW2 6590   2.570   4.007   1.814
 2196SOL     OW 6591   3.213   4.314   1.433
 2196SOL    HW1 6592   3.241   4.271   1.518
 2196SOL    HW2 6593   3.238   4.410   1.434
 2197SOL     OW 6594   2.784   4.227   0.899
 2197SOL    HW1 6595   2.759   4.218   0.803
 2197SOL    HW2 6596   2.832   4.145   0.930
 2198SOL     OW 6597   2.401   3.788   0.512
 2198SOL    HW1 6598   2.320   3.789   0.570
 2198SOL    HW2 6599   2.404   3.871   0.457
 2199SOL     OW 6600   2.797   3.960   0.480
 2199SOL    HW1 6601   2.749   4.001   0.402
 2199SOL    HW2 6602   2.896   3.958   0.461
 2200SOL     OW 6603   2.938   4.407   1.464
 2200SOL    HW1 6604   2.858   4.346   1.467
 2200SOL    HW2 6605   3.019   4.354   1.440
 2201SOL     OW 6606   2.894   4.273   0.016
 2201SOL    HW1 6607   2.853   4.355  -0.023
 2201SOL    HW2 6608   2.958   4.299   0.089
 2202SOL     OW 6609   1.940   4.280   1.386
 2202SOL    HW1 6610   2.032   4.279   1.345
 2202SOL    HW2 6611   1.934   4.354   1.453
 2203SOL     OW 6612   2.423   3.946   1.147
 2203SOL    HW1 6613   2.461   3.862   1.184
 2203SOL    HW2 6614   2.335   3.965   1.191
 2204SOL     OW 6615   2.728   4.178   0.642
 2204SOL    HW1 6616   2.696   4.250   0.580
 2204SOL    HW2 6617   2.752   4.097   0.589
 2205SOL     OW 6618   2.879   3.763   0.753
 2205SOL    HW1 6619   2.807   3.768   0.684
 2205SOL    HW2 6620   2.855   3.694   0.822
 2206SOL     OW 6621   3.328   4.314   0.992
 2206SOL    HW1 6622   3.298   4.219   0.999
 2206SOL    HW2 6623   3.401   4.330   1.058
 2207SOL     OW 6624   2.389   3.980   0.328
 2207SOL    HW1 6625   2.416   3.921   0.253
 2207SOL    HW2 6626   2.389   4.075   0.297
 2208SOL     OW 6627   2.777   3.813   1.402
 2208SOL    HW1 6628   2.802   3.793   1.307
 2208SOL    HW2 6629   2.849   3.869   1.444
 2209SOL     OW 6630   3.136   4.110   1.262
 2209SOL    HW1 6631   3.157   4.184   1.326
 2209SOL    HW2 6632   3.047   4.127   1.219
 2210SOL     OW 6633   2.428   4.261   0.865
 2210SOL    HW1 6634   2.440   4.327   0.791
 2210SOL    HW2 6635   2.474   4.295   0.948
 2211SOL     OW 6636   3.444   4.363   0.472
 2211SOL    HW1 6637   3.413   4.424   0.545
 2211SOL    HW2 6638   3.494   4.415   0.403
 2212SOL     OW 6639   2.875   3.829   1.770
 2212SOL    HW1 6640   2.881   3.914   1.718
 2212SOL    HW2 6641   2.907   3.753   1.713
 2213SOL     OW 6642   2.366   3.774   1.740
 2213SOL    HW1 6643   2.324   3.717   1.670
 2213SOL    HW2 6644   2.300   3.843   1.772
 2214SOL     OW 6645   3.071   4.249   0.275
 2214SOL    HW1 6646   3.084   4.165   0.329
 2214SOL    HW2 6647   3.042   4.323   0.335
 2215SOL     OW 6648   2.169   3.937   1.231
 2215SOL    HW1 6649   2.146   3.974   1.321
 2215SOL    HW2 6650   2.139   3.842   1.225
 2216SOL     OW 6651   2.594   4.358   1.064
 2216SOL    HW1 6652   2.653   4.332   0.988
 2216SOL    HW2 6653   2.566   4.454   1.053
 2217SOL     OW 6654   2.169   3.787   0.618
 2217SOL    HW1 6655   2.158   3.881   0.651
 2217SOL    HW2 6656   2.164   3.724   0.695
 2218SOL     OW 6657   3.484   4.091   0.374
 2218SOL    HW1 6658   3.486   4.015   0.438
 2218SOL    HW2 6659   3.436   4.168   0.414
 2219SOL     OW 6660   3.402   3.998   0.125
 2219SOL    HW1 6661   3.341   3.923   0.148
 2219SOL    HW2 6662   3.424   4.050   0.208
 2220SOL     OW 6663   2.181   4.534   0.949
 2220SOL    HW1 6664   2.274   4.570   0.954
 2220SOL    HW2 6665   2.175   4.449   1.001
 2221SOL     OW 6666   2.201   4.233   1.006
 2221SOL    HW1 6667   2.149   4.150   0.989
 2221SOL    HW2 6668   2.278   4.238   0.942
 2222SOL     OW 6669   3.000   4.104   1.678
 2222SOL    HW1 6670   2.955   4.167   1.742
 2222SOL    HW2 6671   3.093   4.135   1.661
 2223SOL     OW 6672   3.022   3.931   1.477
 2223SOL    HW1 6673   3.022   3.995   1.554
 2223SOL    HW2 6674   3.050   3.979   1.394
 2224SOL     OW 6675   1.902   4.268   1.114
 2224SOL    HW1 6676   1.987   4.235   1.073
 2224SOL    HW2 6677   1.915   4.283   1.212
 2225SOL     OW 6678   2.051   4.244   1.722
 2225SOL    HW1 6679   2.110   4.204   1.652
 2225SOL    HW2 6680   1.993   4.315   1.681
 2226SOL     OW 6681   2.677   4.296   0.325
 2226SOL    HW1 6682   2.684   4.207   0.279
 2226SOL    HW2 6683   2.583   4.330   0.317
 2227SOL     OW 6684   3.519   4.328   1.206
 2227SOL    HW1 6685   3.481   4.259   1.268
 2227SOL    HW2 6686   3.601   4.292   1.162
 2228SOL     OW 6687   2.533   4.188   1.269
 2228SOL    HW1 6688   2.499   4.099   1.239
 2228SOL    HW2 6689   2.559   4.242   1.189
 2229SOL     OW 6690   2.765   3.810   0.133
 2229SOL    HW1 6691   2.816   3.811   0.047
 2229SOL    HW2 6692   2.821   3.768   0.204
 2230SOL     OW 6693   3.588   3.859   0.523
 2230SOL    HW1 6694   3.661   3.842   0.456
 2230SOL    HW2 6695   3.557   3.772   0.561
 2231SOL     OW 6696   3.703   3.899   0.963
 2231SOL    HW1 6697   3.742   3.814   0.927
 2231SOL    HW2 6698   3.605   3.901   0.944
 2232SOL     OW 6699   2.125   4.050   0.720
 2232SOL    HW1 6700   2.046   4.101   0.686
 2232SOL    HW2 6701   2.116   4.035   0.818
 2233SOL     OW 6702   2.876   3.960   0.971
 2233SOL    HW1 6703   2.868   3.924   0.878
 2233SOL    HW2 6704   2.874   3.884   1.036
 2234SOL     OW 6705   3.571   4.109   1.381
 2234SOL    HW1 6706   3.644   4.178   1.385
 2234SOL    HW2 6707   3.599   4.034   1.322
 2235SOL     OW 6708   2.534   3.927   1.489
 2235SOL    HW1 6709   2.624   3.911   1.449
 2235SOL    HW2 6710   2.542   3.932   1.588
 2236SOL     OW 6711   1.937   4.069   0.033
 2236SOL    HW1 6712   1.845   4.041   0.004
 2236SOL    HW2 6713   1.968   4.146  -0.023
 2237SOL     OW 6714   1.934   3.890   0.318
 2237SOL    HW1 6715   1.917   3.973   0.264
 2237SOL    HW2 6716   2.024   3.853   0.296
 2238SOL     OW 6717   2.578   4.289   1.708
 2238SOL    HW1 6718   2.597   4.354   1.782
 2238SOL    HW2 6719   2.638   4.209   1.717
 2239SOL     OW 6720   3.087   4.049   0.449
 2239SOL    HW1 6721   3.152   3.975   0.438
 2239SOL    HW2 6722   3.107   4.099   0.533
 2240SOL     OW 6723   3.639   4.066   1.642
 2240SOL    HW1 6724   3.622   4.097   1.548
 2240SOL    HW2 6725   3.555   4.029   1.680
 2241SOL     OW 6726   2.945   4.708   0.087
 2241SOL    HW1 6727   2.922   4.761   0.005
 2241SOL    HW2 6728   3.026   4.652   0.068
 2242SOL     OW 6729   3.686   3.916   1.227
 2242SOL    HW1 6730   3.682   3.826   1.271
 2242SOL    HW2 6731   3.689   3.905   1.128
 2243SOL     OW 6732   2.290   4.148   0.520
 2243SOL    HW1 6733   2.320   4.076   0.458
 2243SOL    HW2 6734   2.251   4.108   0.603
 2244SOL     OW 6735   2.179   4.271   1.280
 2244SOL    HW1 6736   2.217   4.212   1.352
 2244SOL    HW2 6737   2.219   4.245   1.192
 2245SOL     OW 6738   3.286   3.938   1.112
 2245SOL    HW1 6739   3.338   3.873   1.167
 2245SOL    HW2 6740   3.237   4.001   1.173
 2246SOL     OW 6741   2.863   3.758   1.154
 2246SOL    HW1 6742   2.800   3.686   1.123
 2246SOL    HW2 6743   2.956   3.722   1.154
 2247SOL     OW 6744   3.214   3.776   0.168
 2247SOL    HW1 6745   3.249   3.735   0.084
 2247SOL    HW2 6746   3.124   3.738   0.188
 2248SOL     OW 6747   3.162   4.177   0.691
 2248SOL    HW1 6748   3.103   4.257   0.695
 2248SOL    HW2 6749   3.177   4.142   0.784
 2249SOL     OW 6750   3.455   3.945   0.882
 2249SOL    HW1 6751   3.371   3.944   0.936
 2249SOL    HW2 6752   3.457   4.028   0.826
 2250SOL     OW 6753   2.087   3.999   2.858
 2250SOL    HW1 6754   2.122   3.982   2.950
 2250SOL    HW2 6755   1.999   3.954   2.846
 2251SOL     OW 6756   1.881   4.092   2.509
 2251SOL    HW1 6757   1.799   4.135   2.548
 2251SOL    HW2 6758   1.853   4.019   2.446
 2252SOL     OW 6759   3.617   4.331   2.093
 2252SOL    HW1 6760   3.605   4.318   1.994
 2252SOL    HW2 6761   3.587   4.250   2.142
 2253SOL     OW 6762   2.300   4.116   3.361
 2253SOL    HW1 6763   2.382   4.060   3.370
 2253SOL    HW2 6764   2.219   4.058   3.365
 2254SOL     OW 6765   3.465   4.171   2.599
 2254SOL    HW1 6766   3.391   4.217   2.549
 2254SOL    HW2 6767   3.516   4.239   2.652
 2255SOL     OW 6768   3.456   3.838   3.342
 2255SOL    HW1 6769   3.438   3.905   3.270
 2255SOL    HW2 6770   3.453   3.884   3.431
 2256SOL     OW 6771   1.984   4.367   2.425
 2256SOL    HW1 6772   1.939   4.279   2.442
 2256SOL    HW2 6773   1.983   4.421   2.509
 2257SOL     OW 6774   2.671   3.728   2.364
 2257SOL    HW1 6775   2.711   3.819   2.355
 2257SOL    HW2 6776   2.571   3.736   2.370
 2258SOL     OW 6777   2.179   3.975   3.663
 2258SOL    HW1 6778   2.250   4.046   3.669
 2258SOL    HW2 6779   2.091   4.014   3.691
 2259SOL     OW 6780   3.143   4.069   2.806
 2259SOL    HW1 6781   3.057   4.019   2.793
 2259SOL    HW2 6782   3.205   4.015   2.862
 2260SOL     OW 6783   2.669   4.329   3.327
 2260SOL    HW1 6784   2.622   4.326   3.416
 2260SOL    HW2 6785   2.618   4.274   3.261
 2261SOL     OW 6786   3.256   4.193   3.536
 2261SOL    HW1 6787   3.236   4.236   3.624
 2261SOL    HW2 6788   3.334   4.131   3.545
 2262SOL     OW 6789   2.853   4.134   3.104
 2262SOL    HW1 6790   2.776   4.168   3.158
 2262SOL    HW2 6791   2.819   4.083   3.025
 2263SOL     OW 6792   2.903   4.425   2.291
 2263SOL    HW1 6793   2.929   4.421   2.387
 2263SOL    HW2 6794   2.818   4.374   2.277
 2264SOL     OW 6795   2.727   4.072   2.057
 2264SOL    HW1 6796   2.786   4.135   2.008
 2264SOL    HW2 6797   2.746   3.978   2.028
 2265SOL     OW 6798   3.581   4.309   3.693
 2265SOL    HW1 6799   3.555   4.398   3.657
 2265SOL    HW2 6800   3.579   4.241   3.620
 2266SOL     OW 6801   2.412   3.920   2.747
 2266SOL    HW1 6802   2.407   3.915   2.847
 2266SOL    HW2 6803   2.414   4.016   2.718
 2267SOL     OW 6804   3.320   4.459   2.590
 2267SOL    HW1 6805   3.315   4.394   2.665
 2267SOL    HW2 6806   3.400   4.518   2.603
 2268SOL     OW 6807   2.064   4.009   3.360
 2268SOL    HW1 6808   1.984   4.069   3.347
 2268SOL    HW2 6809   2.054   3.960   3.446
 2269SOL     OW 6810   3.262   3.831   2.288
 2269SOL    HW1 6811   3.238   3.794   2.198
 2269SOL    HW2 6812   3.361   3.847   2.292
 2270SOL     OW 6813   3.409   3.946   3.591
 2270SOL    HW1 6814   3.404   3.983   3.683
 2270SOL    HW2 6815   3.337   3.877   3.579
 2271SOL     OW 6816   2.476   3.846   1.979
 2271SOL    HW1 6817   2.574   3.824   1.986
 2271SOL    HW2 6818   2.445   3.829   1.886
 2272SOL     OW 6819   2.643   3.988   3.611
 2272SOL    HW1 6820   2.710   3.927   3.654
 2272SOL    HW2 6821   2.570   4.007   3.676
 2273SOL     OW 6822   3.213   4.314   3.295
 2273SOL    HW1 6823   3.241   4.271   3.380
 2273SOL    HW2 6824   3.238   4.410   3.296
 2274SOL     OW 6825   2.784   4.227   2.761
 2274SOL    HW1 6826   2.759   4.218   2.665
 2274SOL    HW2 6827   2.832   4.145   2.792
 2275SOL     OW 6828   2.401   3.788   2.374
 2275SOL    HW1 6829   2.320   3.789   2.432
 2275SOL    HW2 6830   2.404   3.871   2.319
 2276SOL     OW 6831   2.159   3.759   2.033
 2276SOL    HW1 6832   2.208   3.843   2.012
 2276SOL    HW2 6833   2.221   3.694   2.078
 2277SOL     OW 6834   2.797   3.960   2.342
 2277SOL    HW1 6835   2.749   4.001   2.264
 2277SOL    HW2 6836   2.896   3.958   2.323
 2278SOL     OW 6837   2.938   4.407   3.326
 2278SOL    HW1 6838   2.858   4.346   3.329
 2278SOL    HW2 6839   3.019   4.354   3.302
 2279SOL     OW 6840   2.894   4.273   1.878
 2279SOL    HW1 6841   2.853   4.355   1.839
 2279SOL    HW2 6842   2.958   4.299   1.951
 2280SOL     OW 6843   1.940   4.280   3.248
 2280SOL    HW1 6844   2.032   4.279   3.207
 2280SOL    HW2 6845   1.934   4.354   3.315
 2281SOL     OW 6846   2.423   3.946   3.009
 2281SOL    HW1 6847   2.461   3.862   3.046
 2281SOL    HW2 6848   2.335   3.965   3.053
 2282SOL     OW 6849   2.728   4.178   2.504
 2282SOL    HW1 6850   2.696   4.250   2.442
 2282SOL    HW2 6851   2.752   4.097   2.451
 2283SOL     OW 6852   2.879   3.763   2.615
 2283SOL    HW1 6853   2.807   3.768   2.546
 2283SOL    HW2 6854   2.855   3.694   2.684
 2284SOL     OW 6855   3.328   4.314   2.854
 2284SOL    HW1 6856   3.298   4.219   2.861
 2284SOL    HW2 6857   3.401   4.330   2.920
 2285SOL     OW 6858   2.389   3.980   2.190
 2285SOL    HW1 6859   2.416   3.921   2.115
 2285SOL    HW2 6860   2.389   4.075   2.159
 2286SOL     OW 6861   2.777   3.813   3.264
 2286SOL    HW1 6862   2.802   3.793   3.169
 2286SOL    HW2 6863   2.849   3.869   3.306
 2287SOL     OW 6864   3.136   4.110   3.124
 2287SOL    HW1 6865   3.157   4.184   3.188
 2287SOL    HW2 6866   3.047   4.127   3.081
 2288SOL     OW 6867   2.428   4.261   2.727
 2288SOL    HW1 6868   2.440   4.327   2.653
 2288SOL    HW2 6869   2.474   4.295   2.810
 2289SOL     OW 6870   3.444   4.363   2.334
 2289SOL    HW1 6871   3.413   4.424   2.407
 2289SOL    HW2 6872   3.494   4.415   2.265
 2290SOL     OW 6873   2.875   3.829   3.632
 2290SOL    HW1 6874   2.881   3.914   3.580
 2290SOL    HW2 6875   2.907   3.753   3.575
 2291SOL     OW 6876   2.366   3.774   3.602
 2291SOL    HW1 6877   2.324   3.717   3.532
 2291SOL    HW2 6878   2.300   3.843   3.634
 2292SOL     OW 6879   3.071   4.249   2.137
 2292SOL    HW1 6880   3.084   4.165   2.191
 2292SOL    HW2 6881   3.042   4.323   2.197
 2293SOL     OW 6882   2.169   3.937   3.093
 2293SOL    HW1 6883   2.146   3.974   3.183
 2293SOL    HW2 6884   2.139   3.842   3.087
 2294SOL     OW 6885   2.594   4.358   2.926
 2294SOL    HW1 6886   2.653   4.332   2.850
 2294SOL    HW2 6887   2.566   4.454   2.915
 2295SOL     OW 6888   2.169   3.787   2.480
 2295SOL    HW1 6889   2.158   3.881   2.513
 2295SOL    HW2 6890   2.164   3.724   2.557
 2296SOL     OW 6891   3.484   4.091   2.236
 2296SOL    HW1 6892   3.486   4.015   2.300
 2296SOL    HW2 6893   3.436   4.168   2.276
 2297SOL     OW 6894   3.402   3.998   1.987
 2297SOL    HW1 6895   3.341   3.923   2.010
 2297SOL    HW2 6896   3.424   4.050   2.070
 2298SOL     OW 6897   2.181   4.534   2.811
 2298SOL    HW1 6898   2.274   4.570   2.816
 2298SOL    HW2 6899   2.175   4.449   2.863
 2299SOL     OW 6900   2.201   4.233   2.868
 2299SOL    HW1 6901   2.149   4.150   2.851
 2299SOL    HW2 6902   2.278   4.238   2.804
 2300SOL     OW 6903   3.000   4.104   3.540
 2300SOL    HW1 6904   2.955   4.167   3.604
 2300SOL    HW2 6905   3.093   4.135   3.523
 2301SOL     OW 6906   3.022   3.931   3.339
 2301SOL    HW1 6907   3.022   3.995   3.416
 2301SOL    HW2 6908   3.050   3.979   3.256
 2302SOL     OW 6909   1.902   4.268   2.976
 2302SOL    HW1 6910   1.987   4.235   2.935
 2302SOL    HW2 6911   1.915   4.283   3.074
 2303SOL     OW 6912   2.051   4.244   3.584
 2303SOL    HW1 6913   2.110   4.204   3.514
 2303SOL    HW2 6914   1.993   4.315   3.543
 2304SOL     OW 6915   2.677   4.296   2.187
 2304SOL    HW1 6916   2.684   4.207   2.141
 2304SOL    HW2 6917   2.583   4.330   2.179
 2305SOL     OW 6918   3.519   4.328   3.068
 2305SOL    HW1 6919   3.481   4.259   3.130
 2305SOL    HW2 6920   3.601   4.292   3.024
 2306SOL     OW 6921   2.533   4.188   3.131
 2306SOL    HW1 6922   2.499   4.099   3.101
 2306SOL    HW2 6923   2.559   4.242   3.051
 2307SOL     OW 6924   3.588   3.859   2.385
 2307SOL    HW1 6925   3.661   3.842   2.318
 2307SOL    HW2 6926   3.557   3.772   2.423
 2308SOL     OW 6927   3.703   3.899   2.825
 2308SOL    HW1 6928   3.742   3.814   2.789
 2308SOL    HW2 6929   3.605   3.901   2.806
 2309SOL     OW 6930   2.125   4.050   2.582
 2309SOL    HW1 6931   2.046   4.101   2.548
 2309SOL    HW2 6932   2.116   4.035   2.680
 2310SOL     OW 6933   2.876   3.960   2.833
 2310SOL    HW1 6934   2.868   3.924   2.740
 2310SOL    HW2 6935   2.874   3.884   2.898
 2311SOL     OW 6936   3.571   4.109   3.243
 2311SOL    HW1 6937   3.644   4.178   3.247
 2311SOL    HW2 6938   3.599   4.034   3.184
 2312SOL     OW 6939   2.534   3.927   3.351
 2312SOL    HW1 6940   2.624   3.911   3.311
 2312SOL    HW2 6941   2.542   3.932   3.450
 2313SOL     OW 6942   1.937   4.069   1.895
 2313SOL    HW1 6943   1.845   4.041   1.866
 2313SOL    HW2 6944   1.968   4.146   1.839
 2314SOL     OW 6945   1.934   3.890   2.180
 2314SOL    HW1 6946   1.917   3.973   2.126
 2314SOL    HW2 6947   2.024   3.853   2.158
 2315SOL     OW 6948   2.578   4.289   3.570
 2315SOL    HW1 6949   2.597   4.354   3.644
 2315SOL    HW2 6950   2.638   4.209   3.579
 2316SOL     OW 6951   3.087   4.049   2.311
 2316SOL    HW1 6952   3.152   3.975   2.300
 2316SOL    HW2 6953   3.107   4.099   2.395
 2317SOL     OW 6954   3.639   4.066   3.504
 2317SOL    HW1 6955   3.622   4.097   3.410
 2317SOL    HW2 6956   3.555   4.029   3.542
 2318SOL     OW 6957   2.945   4.708   1.949
 2318SOL    HW1 6958   2.922   4.761   1.867
 2318SOL    HW2 6959   3.026   4.652   1.930
 2319SOL     OW 6960   3.686   3.916   3.089
 2319SOL    HW1 6961   3.682   3.826   3.133
 2319SOL    HW2 6962   3.689   3.905   2.990
 2320SOL     OW 6963   2.290   4.148   2.382
 2320SOL    HW1 6964   2.320   4.076   2.320
 2320SOL    HW2 6965   2.251   4.108   2.465
 2321SOL     OW 6966   2.179   4.271   3.142
 2321SOL    HW1 6967   2.217   4.212   3.214
 2321SOL    HW2 6968   2.219   4.245   3.054
 2322SOL     OW 6969   3.286   3.938   2.974
 2322SOL    HW1 6970   3.338   3.873   3.029
 2322SOL    HW2 6971   3.237   4.001   3.035
 2323SOL     OW 6972   2.863   3.758   3.016
 2323SOL    HW1 6973   2.800   3.686   2.985
 2323SOL    HW2 6974   2.956   3.722   3.016
 2324SOL     OW 6975   3.214   3.776   2.030
 2324SOL    HW1 6976   3.249   3.735   1.946
 2324SOL    HW2 6977   3.124   3.738   2.050
 2325SOL     OW 6978   3.162   4.177   2.553
 2325SOL    HW1 6979   3.103   4.257   2.557
 2325SOL    HW2 6980   3.177   4.142   2.646
 2326SOL     OW 6981   3.455   3.945   2.744
 2326SOL    HW1 6982   3.371   3.944   2.798
 2326SOL    HW2 6983   3.457   4.028   2.688
 2327SOL     OW 6984   3.617   4.331   3.955
 2327SOL    HW1 6985   3.605   4.318   3.856
 2327SOL    HW2 6986   3.587   4.250   4.004
 2328SOL     OW 6987   1.984   4.367   4.287
 2328SOL    HW1 6988   1.939   4.279   4.304
 2328SOL    HW2 6989   1.983   4.421   4.371
 2329SOL     OW 6990   2.671   3.728   4.226
 2329SOL    HW1 6991   2.711   3.819   4.217
 2329SOL    HW2 6992   2.571   3.736   4.232
 2330SOL     OW 6993   2.903   4.425   4.153
 2330SOL    HW1 6994   2.929   4.421   4.249
 2330SOL    HW2 6995   2.818   4.374   4.139
 2331SOL     OW 6996   2.727   4.072   3.919
 2331SOL    HW1 6997   2.786   4.135   3.870
 2331SOL    HW2 6998   2.746   3.978   3.890
 2332SOL     OW 6999   3.262   3.831   4.150
 2332SOL    HW1 7000   3.238   3.794   4.060
 2332SOL    HW2 7001   3.361   3.847   4.154
 2333SOL     OW 7002   2.476   3.846   3.841
 2333SOL    HW1 7003   2.574   3.824   3.848
 2333SOL    HW2 7004   2.445   3.829   3.748
 2334SOL     OW 7005   2.401   3.788   4.236
 2334SOL    HW1 7006   2.320   3.789   4.294
 2334SOL    HW2 7007   2.404   3.871   4.181
 2335SOL     OW 7008   2.159   3.759   3.895
 2335SOL    HW1 7009   2.208   3.843   3.874
 2335SOL    HW2 7010   2.221   3.694   3.940
 2336SOL     OW 7011   2.797   3.960   4.204
 2336SOL    HW1 7012   2.749   4.001   4.126
 2336SOL    HW2 7013   2.896   3.958   4.185
 2337SOL     OW 7014   2.894   4.273   3.740
 2337SOL    HW1 7015   2.853   4.355   3.701
 2337SOL    HW2 7016   2.958   4.299   3.813
 2338SOL     OW 7017   2.728   4.178   4.366
 2338SOL    HW1 7018   2.696   4.250   4.304
 2338SOL    HW2 7019   2.752   4.097   4.313
 2339SOL     OW 7020   2.389   3.980   4.052
 2339SOL    HW1 7021   2.416   3.921   3.977
 2339SOL    HW2 7022   2.389   4.075   4.021
 2340SOL     OW 7023   3.444   4.363   4.196
 2340SOL    HW1 7024   3.413   4.424   4.269
 2340SOL    HW2 7025   3.494   4.415   4.127
 2341SOL     OW 7026   3.071   4.249   3.999
 2341SOL    HW1 7027   3.084   4.165   4.053
 2341SOL    HW2 7028   3.042   4.323   4.059
 2342SOL     OW 7029   2.169   3.787   4.342
 2342SOL    HW1 7030   2.158   3.881   4.375
 2342SOL    HW2 7031   2.164   3.724   4.419
 2343SOL     OW 7032   3.484   4.091   4.098
 2343SOL    HW1 7033   3.486   4.015   4.162
 2343SOL    HW2 7034   3.436   4.168   4.138
 2344SOL     OW 7035   3.402   3.998   3.849
 2344SOL    HW1 7036   3.341   3.923   3.872
 2344SOL    HW2 7037   3.424   4.050   3.932
 2345SOL     OW 7038   2.201   4.233   4.730
 2345SOL    HW1 7039   2.149   4.150   4.713
 2345SOL    HW2 7040   2.278   4.238   4.666
 2346SOL     OW 7041   2.677   4.296   4.049
 2346SOL    HW1 7042   2.684   4.207   4.003
 2346SOL    HW2 7043   2.583   4.330   4.041
 2347SOL     OW 7044   3.588   3.859   4.247
 2347SOL    HW1 7045   3.661   3.842   4.180
 2347SOL    HW2 7046   3.557   3.772   4.285
 2348SOL     OW 7047   1.937   4.069   3.757
 2348SOL    HW1 7048   1.845   4.041   3.728
 2348SOL    HW2 7049   1.968   4.146   3.701
 2349SOL     OW 7050   1.934   3.890   4.042
 2349SOL    HW1 7051   1.917   3.973   3.988
 2349SOL    HW2 7052   2.024   3.853   4.020
 2350SOL     OW 7053   3.087   4.049   4.173
 2350SOL    HW1 7054   3.152   3.975   4.162
 2350SOL    HW2 7055   3.107   4.099   4.257
 2351SOL     OW 7056   2.945   4.708   3.811
 2351SOL    HW1 7057   2.922   4.761   3.729
 2351SOL    HW2 7058   3.026   4.652   3.792
 2352SOL     OW 7059   2.290   4.148   4.244
 2352SOL    HW1 7060   2.320   4.076   4.182
 2352SOL    HW2 7061   2.251   4.108   4.327
 2353SOL     OW 7062   3.214   3.776   3.892
 2353SOL    HW1 7063   3.249   3.735   3.808
 2353SOL    HW2 7064   3.124   3.738   3.912
 2354SOL     OW 7065   3.162   4.177   4.415
 2354SOL    HW1 7066   3.103   4.257   4.419
 2354SOL    HW2 7067   3.177   4.142   4.508
 2355SOL     OW 7068   3.954   0.628   0.113
 2355SOL    HW1 7069   3.861   0.626   0.150
 2355SOL    HW2 7070   3.955   0.589   0.021
 2356SOL     OW 7071   3.949   0.275   0.996
 2356SOL    HW1 7072   3.984   0.258   1.088
 2356SOL    HW2 7073   3.861   0.230   0.984
 2357SOL     OW 7074   3.743   0.368   0.647
 2357SOL    HW1 7075   3.661   0.411   0.686
 2357SOL    HW2 7076   3.715   0.295   0.584
 2358SOL     OW 7077   4.293   1.275   1.165
 2358SOL    HW1 7078   4.200   1.268   1.128
 2358SOL    HW2 7079   4.304   1.364   1.209
 2359SOL     OW 7080   4.574   0.798   1.823
 2359SOL    HW1 7081   4.570   0.874   1.888
 2359SOL    HW2 7082   4.596   0.834   1.732
 2360SOL     OW 7083   4.059   1.435   1.061
 2360SOL    HW1 7084   3.981   1.404   1.008
 2360SOL    HW2 7085   4.117   1.493   1.004
 2361SOL     OW 7086   4.162   0.392   1.499
 2361SOL    HW1 7087   4.244   0.336   1.508
 2361SOL    HW2 7088   4.081   0.334   1.503
 2362SOL     OW 7089   3.955   1.713   0.483
 2362SOL    HW1 7090   3.989   1.790   0.537
 2362SOL    HW2 7091   3.999   1.713   0.393
 2363SOL     OW 7092   3.954   1.434   0.538
 2363SOL    HW1 7093   3.928   1.530   0.538
 2363SOL    HW2 7094   3.883   1.380   0.583
 2364SOL     OW 7095   3.964   1.091   0.886
 2364SOL    HW1 7096   3.978   1.007   0.938
 2364SOL    HW2 7097   3.909   1.155   0.941
 2365SOL     OW 7098   3.846   0.643   0.563
 2365SOL    HW1 7099   3.801   0.555   0.580
 2365SOL    HW2 7100   3.845   0.697   0.647
 2366SOL     OW 7101   3.751   1.596   0.117
 2366SOL    HW1 7102   3.732   1.500   0.138
 2366SOL    HW2 7103   3.718   1.654   0.192
 2367SOL     OW 7104   3.837   0.737   1.597
 2367SOL    HW1 7105   3.925   0.724   1.642
 2367SOL    HW2 7106   3.824   0.834   1.575
 2368SOL     OW 7107   4.337   1.365   0.726
 2368SOL    HW1 7108   4.288   1.278   0.735
 2368SOL    HW2 7109   4.314   1.408   0.639
 2369SOL     OW 7110   3.921   0.976   1.264
 2369SOL    HW1 7111   4.010   0.931   1.250
 2369SOL    HW2 7112   3.848   0.911   1.245
 2370SOL     OW 7113   4.041   0.251   1.801
 2370SOL    HW1 7114   4.112   0.322   1.807
 2370SOL    HW2 7115   3.953   0.290   1.829
 2371SOL     OW 7116   4.322   0.729   0.270
 2371SOL    HW1 7117   4.346   0.798   0.202
 2371SOL    HW2 7118   4.244   0.762   0.324
 2372SOL     OW 7119   3.800   0.811   0.789
 2372SOL    HW1 7120   3.899   0.799   0.798
 2372SOL    HW2 7121   3.776   0.906   0.810
 2373SOL     OW 7122   3.854   1.821   1.571
 2373SOL    HW1 7123   3.844   1.806   1.670
 2373SOL    HW2 7124   3.768   1.857   1.535
 2374SOL     OW 7125   4.589   0.348   0.195
 2374SOL    HW1 7126   4.648   0.411   0.146
 2374SOL    HW2 7127   4.608   0.254   0.166
 2375SOL     OW 7128   4.274   0.196   0.885
 2375SOL    HW1 7129   4.269   0.191   0.985
 2375SOL    HW2 7130   4.276   0.292   0.856
 2376SOL     OW 7131   4.075   1.801   0.853
 2376SOL    HW1 7132   4.125   1.715   0.859
 2376SOL    HW2 7133   4.140   1.878   0.850
 2377SOL     OW 7134   4.045   0.943   0.242
 2377SOL    HW1 7135   4.127   0.982   0.200
 2377SOL    HW2 7136   4.018   0.861   0.193
 2378SOL     OW 7137   4.185   1.266   1.727
 2378SOL    HW1 7138   4.135   1.267   1.641
 2378SOL    HW2 7139   4.122   1.248   1.803
 2379SOL     OW 7140   3.926   0.285   1.498
 2379SOL    HW1 7141   3.846   0.345   1.485
 2379SOL    HW2 7142   3.916   0.236   1.584
 2380SOL     OW 7143   4.188   1.743   0.323
 2380SOL    HW1 7144   4.221   1.782   0.409
 2380SOL    HW2 7145   4.264   1.736   0.258
 2381SOL     OW 7146   3.973   1.785   1.241
 2381SOL    HW1 7147   4.030   1.720   1.291
 2381SOL    HW2 7148   3.957   1.752   1.148
 2382SOL     OW 7149   4.106   0.700   0.480
 2382SOL    HW1 7150   4.151   0.610   0.477
 2382SOL    HW2 7151   4.012   0.689   0.513
 2383SOL     OW 7152   4.263   0.064   0.512
 2383SOL    HW1 7153   4.182   0.065   0.570
 2383SOL    HW2 7154   4.266   0.147   0.457
 2384SOL     OW 7155   4.021   0.035   0.171
 2384SOL    HW1 7156   4.070   0.119   0.150
 2384SOL    HW2 7157   4.083  -0.030   0.216
 2385SOL     OW 7158   4.659   0.236   0.480
 2385SOL    HW1 7159   4.611   0.277   0.402
 2385SOL    HW2 7160   4.758   0.234   0.461
 2386SOL     OW 7161   4.183   1.152   0.741
 2386SOL    HW1 7162   4.112   1.125   0.806
 2386SOL    HW2 7163   4.157   1.124   0.648
 2387SOL     OW 7164   3.802   0.556   1.386
 2387SOL    HW1 7165   3.894   0.555   1.345
 2387SOL    HW2 7166   3.796   0.630   1.453
 2388SOL     OW 7167   4.285   0.222   1.147
 2388SOL    HW1 7168   4.323   0.138   1.184
 2388SOL    HW2 7169   4.197   0.241   1.191
 2389SOL     OW 7170   4.251   0.256   0.328
 2389SOL    HW1 7171   4.278   0.197   0.253
 2389SOL    HW2 7172   4.251   0.351   0.297
 2390SOL     OW 7173   4.134   0.813   1.251
 2390SOL    HW1 7174   4.220   0.825   1.301
 2390SOL    HW2 7175   4.092   0.726   1.278
 2391SOL     OW 7176   3.788   1.564   1.331
 2391SOL    HW1 7177   3.742   1.646   1.297
 2391SOL    HW2 7178   3.886   1.583   1.340
 2392SOL     OW 7179   4.091   1.100   0.501
 2392SOL    HW1 7180   4.084   1.183   0.445
 2392SOL    HW2 7181   4.095   1.020   0.441
 2393SOL     OW 7182   4.290   0.537   0.865
 2393SOL    HW1 7183   4.302   0.603   0.791
 2393SOL    HW2 7184   4.336   0.571   0.948
 2394SOL     OW 7185   4.078   1.510   1.329
 2394SOL    HW1 7186   4.057   1.466   1.242
 2394SOL    HW2 7187   4.175   1.536   1.332
 2395SOL     OW 7188   4.126   0.751   1.598
 2395SOL    HW1 7189   4.194   0.806   1.551
 2395SOL    HW2 7190   4.166   0.663   1.625
 2396SOL     OW 7191   4.228   0.050   1.740
 2396SOL    HW1 7192   4.186  -0.007   1.670
 2396SOL    HW2 7193   4.162   0.119   1.772
 2397SOL     OW 7194   4.297   0.870   1.029
 2397SOL    HW1 7195   4.341   0.959   1.020
 2397SOL    HW2 7196   4.234   0.870   1.106
 2398SOL     OW 7197   4.031   0.213   1.231
 2398SOL    HW1 7198   4.008   0.250   1.321
 2398SOL    HW2 7199   4.001   0.118   1.225
 2399SOL     OW 7200   3.761   1.310   1.282
 2399SOL    HW1 7201   3.814   1.261   1.350
 2399SOL    HW2 7202   3.783   1.408   1.287
 2400SOL     OW 7203   4.031   0.063   0.618
 2400SOL    HW1 7204   4.020   0.157   0.651
 2400SOL    HW2 7205   4.026   0.000   0.695
 2401SOL     OW 7206   4.074   0.898   1.804
 2401SOL    HW1 7207   4.150   0.942   1.852
 2401SOL    HW2 7208   4.109   0.851   1.722
 2402SOL     OW 7209   4.043   0.810   0.949
 2402SOL    HW1 7210   4.136   0.846   0.954
 2402SOL    HW2 7211   4.037   0.725   1.001
 2403SOL     OW 7212   4.063   0.509   1.006
 2403SOL    HW1 7213   4.011   0.426   0.989
 2403SOL    HW2 7214   4.140   0.514   0.942
 2404SOL     OW 7215   3.732   1.326   0.200
 2404SOL    HW1 7216   3.639   1.347   0.169
 2404SOL    HW2 7217   3.742   1.227   0.213
 2405SOL     OW 7218   3.812   1.801   0.927
 2405SOL    HW1 7219   3.770   1.715   0.900
 2405SOL    HW2 7220   3.906   1.804   0.893
 2406SOL     OW 7221   4.228   1.568   0.910
 2406SOL    HW1 7222   4.294   1.642   0.919
 2406SOL    HW2 7223   4.272   1.489   0.868
 2407SOL     OW 7224   3.764   0.544   1.114
 2407SOL    HW1 7225   3.849   0.511   1.073
 2407SOL    HW2 7226   3.777   0.559   1.212
 2408SOL     OW 7227   3.913   0.520   1.722
 2408SOL    HW1 7228   3.972   0.480   1.652
 2408SOL    HW2 7229   3.855   0.591   1.681
 2409SOL     OW 7230   4.539   0.572   0.325
 2409SOL    HW1 7231   4.546   0.483   0.279
 2409SOL    HW2 7232   4.445   0.606   0.317
 2410SOL     OW 7233   3.976   1.564   1.744
 2410SOL    HW1 7234   3.946   1.621   1.820
 2410SOL    HW2 7235   3.969   1.467   1.770
 2411SOL     OW 7236   4.197   0.500   0.191
 2411SOL    HW1 7237   4.258   0.580   0.195
 2411SOL    HW2 7238   4.102   0.531   0.198
 2412SOL     OW 7239   3.883   1.137   1.466
 2412SOL    HW1 7240   3.905   1.076   1.542
 2412SOL    HW2 7241   3.893   1.088   1.380
 2413SOL     OW 7242   3.807   1.258   1.022
 2413SOL    HW1 7243   3.802   1.257   1.122
 2413SOL    HW2 7244   3.724   1.217   0.984
 2414SOL     OW 7245   4.412   1.662   1.716
 2414SOL    HW1 7246   4.356   1.743   1.725
 2414SOL    HW2 7247   4.464   1.666   1.630
 2415SOL     OW 7248   3.854   1.794   1.851
 2415SOL    HW1 7249   3.813   1.720   1.904
 2415SOL    HW2 7250   3.918   1.845   1.909
 2416SOL     OW 7251   3.987   0.326   0.720
 2416SOL    HW1 7252   3.908   0.377   0.686
 2416SOL    HW2 7253   3.978   0.311   0.818
 2417SOL     OW 7254   4.096   1.288   1.490
 2417SOL    HW1 7255   4.083   1.381   1.456
 2417SOL    HW2 7256   4.012   1.236   1.477
 2418SOL     OW 7257   4.314   1.487   0.491
 2418SOL    HW1 7258   4.356   1.429   0.421
 2418SOL    HW2 7259   4.270   1.566   0.447
 2419SOL     OW 7260   3.979   1.348   0.290
 2419SOL    HW1 7261   3.883   1.349   0.263
 2419SOL    HW2 7262   3.991   1.401   0.374
 2420SOL     OW 7263   3.829   1.013   1.726
 2420SOL    HW1 7264   3.752   0.980   1.780
 2420SOL    HW2 7265   3.914   0.983   1.768
 2421SOL     OW 7266   4.396   0.203   1.489
 2421SOL    HW1 7267   4.486   0.187   1.449
 2421SOL    HW2 7268   4.404   0.208   1.588
 2422SOL     OW 7269   3.799   0.345   0.033
 2422SOL    HW1 7270   3.707   0.317   0.004
 2422SOL    HW2 7271   3.830   0.422  -0.023
 2423SOL     OW 7272   4.337   0.842   1.431
 2423SOL    HW1 7273   4.393   0.923   1.414
 2423SOL    HW2 7274   4.396   0.762   1.434
 2424SOL     OW 7275   4.114   1.741   1.560
 2424SOL    HW1 7276   4.023   1.782   1.558
 2424SOL    HW2 7277   4.107   1.647   1.592
 2425SOL     OW 7278   4.318   0.745   0.652
 2425SOL    HW1 7279   4.368   0.830   0.633
 2425SOL    HW2 7280   4.230   0.747   0.604
 2426SOL     OW 7281   3.945   1.314   1.844
 2426SOL    HW1 7282   3.880   1.241   1.823
 2426SOL    HW2 7283   3.949   1.328   1.942
 2427SOL     OW 7284   3.803   1.240   0.653
 2427SOL    HW1 7285   3.802   1.193   0.741
 2427SOL    HW2 7286   3.885   1.212   0.602
 2428SOL     OW 7287   4.396   1.391   1.624
 2428SOL    HW1 7288   4.318   1.341   1.662
 2428SOL    HW2 7289   4.393   1.486   1.655
 2429SOL     OW 7290   4.152   0.424   0.520
 2429SOL    HW1 7291   4.182   0.352   0.458
 2429SOL    HW2 7292   4.113   0.384   0.603
 2430SOL     OW 7293   4.041   0.547   1.280
 2430SOL    HW1 7294   4.079   0.488   1.352
 2430SOL    HW2 7295   4.081   0.521   1.192
 2431SOL     OW 7296   3.763   1.077   0.300
 2431SOL    HW1 7297   3.862   1.066   0.291
 2431SOL    HW2 7298   3.723   0.991   0.332
 2432SOL     OW 7299   3.954   0.628   1.975
 2432SOL    HW1 7300   3.861   0.626   2.012
 2432SOL    HW2 7301   3.955   0.589   1.883
 2433SOL     OW 7302   3.949   0.275   2.858
 2433SOL    HW1 7303   3.984   0.258   2.950
 2433SOL    HW2 7304   3.861   0.230   2.846
 2434SOL     OW 7305   3.743   0.368   2.509
 2434SOL    HW1 7306   3.661   0.411   2.548
 2434SOL    HW2 7307   3.715   0.295   2.446
 2435SOL     OW 7308   4.293   1.275   3.027
 2435SOL    HW1 7309   4.200   1.268   2.990
 2435SOL    HW2 7310   4.304   1.364   3.071
 2436SOL     OW 7311   4.574   0.798   3.685
 2436SOL    HW1 7312   4.570   0.874   3.750
 2436SOL    HW2 7313   4.596   0.834   3.594
 2437SOL     OW 7314   4.059   1.435   2.923
 2437SOL    HW1 7315   3.981   1.404   2.870
 2437SOL    HW2 7316   4.117   1.493   2.866
 2438SOL     OW 7317   4.162   0.392   3.361
 2438SOL    HW1 7318   4.244   0.336   3.370
 2438SOL    HW2 7319   4.081   0.334   3.365
 2439SOL     OW 7320   3.955   1.713   2.345
 2439SOL    HW1 7321   3.989   1.790   2.399
 2439SOL    HW2 7322   3.999   1.713   2.255
 2440SOL     OW 7323   3.954   1.434   2.400
 2440SOL    HW1 7324   3.928   1.530   2.400
 2440SOL    HW2 7325   3.883   1.380   2.445
 2441SOL     OW 7326   3.964   1.091   2.748
 2441SOL    HW1 7327   3.978   1.007   2.800
 2441SOL    HW2 7328   3.909   1.155   2.803
 2442SOL     OW 7329   3.846   0.643   2.425
 2442SOL    HW1 7330   3.801   0.555   2.442
 2442SOL    HW2 7331   3.845   0.697   2.509
 2443SOL     OW 7332   3.751   1.596   1.979
 2443SOL    HW1 7333   3.732   1.500   2.000
 2443SOL    HW2 7334   3.718   1.654   2.054
 2444SOL     OW 7335   3.837   0.737   3.459
 2444SOL    HW1 7336   3.925   0.724   3.504
 2444SOL    HW2 7337   3.824   0.834   3.437
 2445SOL     OW 7338   4.337   1.365   2.588
 2445SOL    HW1 7339   4.288   1.278   2.597
 2445SOL    HW2 7340   4.314   1.408   2.501
 2446SOL     OW 7341   3.921   0.976   3.126
 2446SOL    HW1 7342   4.010   0.931   3.112
 2446SOL    HW2 7343   3.848   0.911   3.107
 2447SOL     OW 7344   4.041   0.251   3.663
 2447SOL    HW1 7345   4.112   0.322   3.669
 2447SOL    HW2 7346   3.953   0.290   3.691
 2448SOL     OW 7347   4.322   0.729   2.132
 2448SOL    HW1 7348   4.346   0.798   2.064
 2448SOL    HW2 7349   4.244   0.762   2.186
 2449SOL     OW 7350   3.800   0.811   2.651
 2449SOL    HW1 7351   3.899   0.799   2.660
 2449SOL    HW2 7352   3.776   0.906   2.672
 2450SOL     OW 7353   3.854   1.821   3.433
 2450SOL    HW1 7354   3.844   1.806   3.532
 2450SOL    HW2 7355   3.768   1.857   3.397
 2451SOL     OW 7356   4.589   0.348   2.057
 2451SOL    HW1 7357   4.648   0.411   2.008
 2451SOL    HW2 7358   4.608   0.254   2.028
 2452SOL     OW 7359   4.274   0.196   2.747
 2452SOL    HW1 7360   4.269   0.191   2.847
 2452SOL    HW2 7361   4.276   0.292   2.718
 2453SOL     OW 7362   4.075   1.801   2.715
 2453SOL    HW1 7363   4.125   1.715   2.721
 2453SOL    HW2 7364   4.140   1.878   2.712
 2454SOL     OW 7365   4.045   0.943   2.104
 2454SOL    HW1 7366   4.127   0.982   2.062
 2454SOL    HW2 7367   4.018   0.861   2.055
 2455SOL     OW 7368   4.185   1.266   3.589
 2455SOL    HW1 7369   4.135   1.267   3.503
 2455SOL    HW2 7370   4.122   1.248   3.665
 2456SOL     OW 7371   3.926   0.285   3.360
 2456SOL    HW1 7372   3.846   0.345   3.347
 2456SOL    HW2 7373   3.916   0.236   3.446
 2457SOL     OW 7374   4.188   1.743   2.185
 2457SOL    HW1 7375   4.221   1.782   2.271
 2457SOL    HW2 7376   4.264   1.736   2.120
 2458SOL     OW 7377   3.973   1.785   3.103
 2458SOL    HW1 7378   4.030   1.720   3.153
 2458SOL    HW2 7379   3.957   1.752   3.010
 2459SOL     OW 7380   4.106   0.700   2.342
 2459SOL    HW1 7381   4.151   0.610   2.339
 2459SOL    HW2 7382   4.012   0.689   2.375
 2460SOL     OW 7383   4.338   0.122   1.979
 2460SOL    HW1 7384   4.436   0.100   1.986
 2460SOL    HW2 7385   4.307   0.105   1.886
 2461SOL     OW 7386   4.263   0.064   2.374
 2461SOL    HW1 7387   4.182   0.065   2.432
 2461SOL    HW2 7388   4.266   0.147   2.319
 2462SOL     OW 7389   4.021   0.035   2.033
 2462SOL    HW1 7390   4.070   0.119   2.012
 2462SOL    HW2 7391   4.083  -0.030   2.078
 2463SOL     OW 7392   4.659   0.236   2.342
 2463SOL    HW1 7393   4.611   0.277   2.264
 2463SOL    HW2 7394   4.758   0.234   2.323
 2464SOL     OW 7395   4.183   1.152   2.603
 2464SOL    HW1 7396   4.112   1.125   2.668
 2464SOL    HW2 7397   4.157   1.124   2.510
 2465SOL     OW 7398   3.802   0.556   3.248
 2465SOL    HW1 7399   3.894   0.555   3.207
 2465SOL    HW2 7400   3.796   0.630   3.315
 2466SOL     OW 7401   4.285   0.222   3.009
 2466SOL    HW1 7402   4.323   0.138   3.046
 2466SOL    HW2 7403   4.197   0.241   3.053
 2467SOL     OW 7404   4.251   0.256   2.190
 2467SOL    HW1 7405   4.278   0.197   2.115
 2467SOL    HW2 7406   4.251   0.351   2.159
 2468SOL     OW 7407   4.134   0.813   3.113
 2468SOL    HW1 7408   4.220   0.825   3.163
 2468SOL    HW2 7409   4.092   0.726   3.140
 2469SOL     OW 7410   3.788   1.564   3.193
 2469SOL    HW1 7411   3.742   1.646   3.159
 2469SOL    HW2 7412   3.886   1.583   3.202
 2470SOL     OW 7413   4.091   1.100   2.363
 2470SOL    HW1 7414   4.084   1.183   2.307
 2470SOL    HW2 7415   4.095   1.020   2.303
 2471SOL     OW 7416   4.290   0.537   2.727
 2471SOL    HW1 7417   4.302   0.603   2.653
 2471SOL    HW2 7418   4.336   0.571   2.810
 2472SOL     OW 7419   4.078   1.510   3.191
 2472SOL    HW1 7420   4.057   1.466   3.104
 2472SOL    HW2 7421   4.175   1.536   3.194
 2473SOL     OW 7422   4.126   0.751   3.460
 2473SOL    HW1 7423   4.194   0.806   3.413
 2473SOL    HW2 7424   4.166   0.663   3.487
 2474SOL     OW 7425   4.228   0.050   3.602
 2474SOL    HW1 7426   4.186  -0.007   3.532
 2474SOL    HW2 7427   4.162   0.119   3.634
 2475SOL     OW 7428   4.297   0.870   2.891
 2475SOL    HW1 7429   4.341   0.959   2.882
 2475SOL    HW2 7430   4.234   0.870   2.968
 2476SOL     OW 7431   4.031   0.213   3.093
 2476SOL    HW1 7432   4.008   0.250   3.183
 2476SOL    HW2 7433   4.001   0.118   3.087
 2477SOL     OW 7434   3.761   1.310   3.144
 2477SOL    HW1 7435   3.814   1.261   3.212
 2477SOL    HW2 7436   3.783   1.408   3.149
 2478SOL     OW 7437   4.031   0.063   2.480
 2478SOL    HW1 7438   4.020   0.157   2.513
 2478SOL    HW2 7439   4.026   0.000   2.557
 2479SOL     OW 7440   4.074   0.898   3.666
 2479SOL    HW1 7441   4.150   0.942   3.714
 2479SOL    HW2 7442   4.109   0.851   3.584
 2480SOL     OW 7443   4.043   0.810   2.811
 2480SOL    HW1 7444   4.136   0.846   2.816
 2480SOL    HW2 7445   4.037   0.725   2.863
 2481SOL     OW 7446   4.063   0.509   2.868
 2481SOL    HW1 7447   4.011   0.426   2.851
 2481SOL    HW2 7448   4.140   0.514   2.804
 2482SOL     OW 7449   3.732   1.326   2.062
 2482SOL    HW1 7450   3.639   1.347   2.031
 2482SOL    HW2 7451   3.742   1.227   2.075
 2483SOL     OW 7452   3.812   1.801   2.789
 2483SOL    HW1 7453   3.770   1.715   2.762
 2483SOL    HW2 7454   3.906   1.804   2.755
 2484SOL     OW 7455   4.228   1.568   2.772
 2484SOL    HW1 7456   4.294   1.642   2.781
 2484SOL    HW2 7457   4.272   1.489   2.730
 2485SOL     OW 7458   3.764   0.544   2.976
 2485SOL    HW1 7459   3.849   0.511   2.935
 2485SOL    HW2 7460   3.777   0.559   3.074
 2486SOL     OW 7461   3.913   0.520   3.584
 2486SOL    HW1 7462   3.972   0.480   3.514
 2486SOL    HW2 7463   3.855   0.591   3.543
 2487SOL     OW 7464   4.539   0.572   2.187
 2487SOL    HW1 7465   4.546   0.483   2.141
 2487SOL    HW2 7466   4.445   0.606   2.179
 2488SOL     OW 7467   3.976   1.564   3.606
 2488SOL    HW1 7468   3.946   1.621   3.682
 2488SOL    HW2 7469   3.969   1.467   3.632
 2489SOL     OW 7470   4.197   0.500   2.053
 2489SOL    HW1 7471   4.258   0.580   2.057
 2489SOL    HW2 7472   4.102   0.531   2.060
 2490SOL     OW 7473   3.883   1.137   3.328
 2490SOL    HW1 7474   3.905   1.076   3.404
 2490SOL    HW2 7475   3.893   1.088   3.242
 2491SOL     OW 7476   3.807   1.258   2.884
 2491SOL    HW1 7477   3.802   1.257   2.984
 2491SOL    HW2 7478   3.724   1.217   2.846
 2492SOL     OW 7479   4.412   1.662   3.578
 2492SOL    HW1 7480   4.356   1.743   3.587
 2492SOL    HW2 7481   4.464   1.666   3.492
 2493SOL     OW 7482   3.854   1.794   3.713
 2493SOL    HW1 7483   3.813   1.720   3.766
 2493SOL    HW2 7484   3.918   1.845   3.771
 2494SOL     OW 7485   3.987   0.326   2.582
 2494SOL    HW1 7486   3.908   0.377   2.548
 2494SOL    HW2 7487   3.978   0.311   2.680
 2495SOL     OW 7488   4.096   1.288   3.352
 2495SOL    HW1 7489   4.083   1.381   3.318
 2495SOL    HW2 7490   4.012   1.236   3.339
 2496SOL     OW 7491   4.314   1.487   2.353
 2496SOL    HW1 7492   4.356   1.429   2.283
 2496SOL    HW2 7493   4.270   1.566   2.309
 2497SOL     OW 7494   3.979   1.348   2.152
 2497SOL    HW1 7495   3.883   1.349   2.125
 2497SOL    HW2 7496   3.991   1.401   2.236
 2498SOL     OW 7497   3.829   1.013   3.588
 2498SOL    HW1 7498   3.752   0.980   3.642
 2498SOL    HW2 7499   3.914   0.983   3.630
 2499SOL     OW 7500   4.396   0.203   3.351
 2499SOL    HW1 7501   4.486   0.187   3.311
 2499SOL    HW2 7502   4.404   0.208   3.450
 2500SOL     OW 7503   3.799   0.345   1.895
 2500SOL    HW1 7504   3.707   0.317   1.866
 2500SOL    HW2 7505   3.830   0.422   1.839
 2501SOL     OW 7506   3.796   0.166   2.180
 2501SOL    HW1 7507   3.779   0.249   2.126
 2501SOL    HW2 7508   3.886   0.129   2.158
 2502SOL     OW 7509   4.337   0.842   3.293
 2502SOL    HW1 7510   4.393   0.923   3.276
 2502SOL    HW2 7511   4.396   0.762   3.296
 2503SOL     OW 7512   4.114   1.741   3.422
 2503SOL    HW1 7513   4.023   1.782   3.420
 2503SOL    HW2 7514   4.107   1.647   3.454
 2504SOL     OW 7515   4.318   0.745   2.514
 2504SOL    HW1 7516   4.368   0.830   2.495
 2504SOL    HW2 7517   4.230   0.747   2.466
 2505SOL     OW 7518   3.945   1.314   3.706
 2505SOL    HW1 7519   3.880   1.241   3.685
 2505SOL    HW2 7520   3.949   1.328   3.804
 2506SOL     OW 7521   3.803   1.240   2.515
 2506SOL    HW1 7522   3.802   1.193   2.603
 2506SOL    HW2 7523   3.885   1.212   2.464
 2507SOL     OW 7524   4.396   1.391   3.486
 2507SOL    HW1 7525   4.318   1.341   3.524
 2507SOL    HW2 7526   4.393   1.486   3.517
 2508SOL     OW 7527   4.152   0.424   2.382
 2508SOL    HW1 7528   4.182   0.352   2.320
 2508SOL    HW2 7529   4.113   0.384   2.465
 2509SOL     OW 7530   4.041   0.547   3.142
 2509SOL    HW1 7531   4.079   0.488   3.214
 2509SOL    HW2 7532   4.081   0.521   3.054
 2510SOL     OW 7533   3.763   1.077   2.162
 2510SOL    HW1 7534   3.862   1.066   2.153
 2510SOL    HW2 7535   3.723   0.991   2.194
 2511SOL     OW 7536   3.954   0.628   3.837
 2511SOL    HW1 7537   3.861   0.626   3.874
 2511SOL    HW2 7538   3.955   0.589   3.745
 2512SOL     OW 7539   3.955   1.713   4.207
 2512SOL    HW1 7540   3.989   1.790   4.261
 2512SOL    HW2 7541   3.999   1.713   4.117
 2513SOL     OW 7542   3.954   1.434   4.262
 2513SOL    HW1 7543   3.928   1.530   4.262
 2513SOL    HW2 7544   3.883   1.380   4.307
 2514SOL     OW 7545   3.846   0.643   4.287
 2514SOL    HW1 7546   3.801   0.555   4.304
 2514SOL    HW2 7547   3.845   0.697   4.371
 2515SOL     OW 7548   3.751   1.596   3.841
 2515SOL    HW1 7549   3.732   1.500   3.862
 2515SOL    HW2 7550   3.718   1.654   3.916
 2516SOL     OW 7551   4.322   0.729   3.994
 2516SOL    HW1 7552   4.346   0.798   3.926
 2516SOL    HW2 7553   4.244   0.762   4.048
 2517SOL     OW 7554   3.800   0.811   4.513
 2517SOL    HW1 7555   3.899   0.799   4.522
 2517SOL    HW2 7556   3.776   0.906   4.534
 2518SOL     OW 7557   4.589   0.348   3.919
 2518SOL    HW1 7558   4.648   0.411   3.870
 2518SOL    HW2 7559   4.608   0.254   3.890
 2519SOL     OW 7560   4.075   1.801   4.577
 2519SOL    HW1 7561   4.125   1.715   4.583
 2519SOL    HW2 7562   4.140   1.878   4.574
 2520SOL     OW 7563   4.045   0.943   3.966
 2520SOL    HW1 7564   4.127   0.982   3.924
 2520SOL    HW2 7565   4.018   0.861   3.917
 2521SOL     OW 7566   4.188   1.743   4.047
 2521SOL    HW1 7567   4.221   1.782   4.133
 2521SOL    HW2 7568   4.264   1.736   3.982
 2522SOL     OW 7569   4.106   0.700   4.204
 2522SOL    HW1 7570   4.151   0.610   4.201
 2522SOL    HW2 7571   4.012   0.689   4.237
 2523SOL     OW 7572   4.338   0.122   3.841
 2523SOL    HW1 7573   4.436   0.100   3.848
 2523SOL    HW2 7574   4.307   0.105   3.748
 2524SOL     OW 7575   4.263   0.064   4.236
 2524SOL    HW1 7576   4.182   0.065   4.294
 2524SOL    HW2 7577   4.266   0.147   4.181
 2525SOL     OW 7578   4.021   0.035   3.895
 2525SOL    HW1 7579   4.070   0.119   3.874
 2525SOL    HW2 7580   4.083  -0.030   3.940
 2526SOL     OW 7581   4.659   0.236   4.204
 2526SOL    HW1 7582   4.611   0.277   4.126
 2526SOL    HW2 7583   4.758   0.234   4.185
 2527SOL     OW 7584   4.183   1.152   4.465
 2527SOL    HW1 7585   4.112   1.125   4.530
 2527SOL    HW2 7586   4.157   1.124   4.372
 2528SOL     OW 7587   4.251   0.256   4.052
 2528SOL    HW1 7588   4.278   0.197   3.977
 2528SOL    HW2 7589   4.251   0.351   4.021
 2529SOL     OW 7590   4.091   1.100   4.225
 2529SOL    HW1 7591   4.084   1.183   4.169
 2529SOL    HW2 7592   4.095   1.020   4.165
 2530SOL     OW 7593   4.031   0.063   4.342
 2530SOL    HW1 7594   4.020   0.157   4.375
 2530SOL    HW2 7595   4.026   0.000   4.419
 2531SOL     OW 7596   3.732   1.326   3.924
 2531SOL    HW1 7597   3.639   1.347   3.893
 2531SOL    HW2 7598   3.742   1.227   3.937
 2532SOL     OW 7599   4.539   0.572   4.049
 2532SOL    HW1 7600   4.546   0.483   4.003
 2532SOL    HW2 7601   4.445   0.606   4.041
 2533SOL     OW 7602   4.197   0.500   3.915
 2533SOL    HW1 7603   4.258   0.580   3.919
 2533SOL    HW2 7604   4.102   0.531   3.922
 2534SOL     OW 7605   4.314   1.487   4.215
 2534SOL    HW1 7606   4.356   1.429   4.145
 2534SOL    HW2 7607   4.270   1.566   4.171
 2535SOL     OW 7608   3.979   1.348   4.014
 2535SOL    HW1 7609   3.883   1.349   3.987
 2535SOL    HW2 7610   3.991   1.401   4.098
 2536SOL     OW 7611   3.799   0.345   3.757
 2536SOL    HW1 7612   3.707   0.317   3.728
 2536SOL    HW2 7613   3.830   0.422   3.701
 2537SOL     OW 7614   3.796   0.166   4.042
 2537SOL    HW1 7615   3.779   0.249   3.988
 2537SOL    HW2 7616   3.886   0.129   4.020
 2538SOL     OW 7617   4.318   0.745   4.376
 2538SOL    HW1 7618   4.368   0.830   4.357
 2538SOL    HW2 7619   4.230   0.747   4.328
 2539SOL     OW 7620   3.803   1.240   4.377
 2539SOL    HW1 7621   3.802   1.193   4.465
 2539SOL    HW2 7622   3.885   1.212   4.326
 2540SOL     OW 7623   4.152   0.424   4.244
 2540SOL    HW1 7624   4.182   0.352   4.182
 2540SOL    HW2 7625   4.113   0.384   4.327
 2541SOL     OW 7626   3.763   1.077   4.024
 2541SOL    HW1 7627   3.862   1.066   4.015
 2541SOL    HW2 7628   3.723   0.991   4.056
 2542SOL     OW 7629   3.954   2.490   0.113
 2542SOL    HW1 7630   3.861   2.488   0.150
 2542SOL    HW2 7631   3.955   2.451   0.021
 2543SOL     OW 7632   3.949   2.137   0.996
 2543SOL    HW1 7633   3.984   2.120   1.088
 2543SOL    HW2 7634   3.861   2.092   0.984
 2544SOL     OW 7635   3.743   2.230   0.647
 2544SOL    HW1 7636   3.661   2.273   0.686
 2544SOL    HW2 7637   3.715   2.157   0.584
 2545SOL     OW 7638   4.293   3.137   1.165
 2545SOL    HW1 7639   4.200   3.130   1.128
 2545SOL    HW2 7640   4.304   3.226   1.209
 2546SOL     OW 7641   4.574   2.660   1.823
 2546SOL    HW1 7642   4.570   2.736   1.888
 2546SOL    HW2 7643   4.596   2.696   1.732
 2547SOL     OW 7644   4.059   3.297   1.061
 2547SOL    HW1 7645   3.981   3.266   1.008
 2547SOL    HW2 7646   4.117   3.355   1.004
 2548SOL     OW 7647   4.162   2.254   1.499
 2548SOL    HW1 7648   4.244   2.198   1.508
 2548SOL    HW2 7649   4.081   2.196   1.503
 2549SOL     OW 7650   3.955   3.575   0.483
 2549SOL    HW1 7651   3.989   3.652   0.537
 2549SOL    HW2 7652   3.999   3.575   0.393
 2550SOL     OW 7653   3.954   3.296   0.538
 2550SOL    HW1 7654   3.928   3.392   0.538
 2550SOL    HW2 7655   3.883   3.242   0.583
 2551SOL     OW 7656   3.964   2.953   0.886
 2551SOL    HW1 7657   3.978   2.869   0.938
 2551SOL    HW2 7658   3.909   3.017   0.941
 2552SOL     OW 7659   3.846   2.505   0.563
 2552SOL    HW1 7660   3.801   2.417   0.580
 2552SOL    HW2 7661   3.845   2.559   0.647
 2553SOL     OW 7662   3.751   3.458   0.117
 2553SOL    HW1 7663   3.732   3.362   0.138
 2553SOL    HW2 7664   3.718   3.516   0.192
 2554SOL     OW 7665   3.837   2.599   1.597
 2554SOL    HW1 7666   3.925   2.586   1.642
 2554SOL    HW2 7667   3.824   2.696   1.575
 2555SOL     OW 7668   4.337   3.227   0.726
 2555SOL    HW1 7669   4.288   3.140   0.735
 2555SOL    HW2 7670   4.314   3.270   0.639
 2556SOL     OW 7671   4.533   1.866   0.502
 2556SOL    HW1 7672   4.573   1.957   0.493
 2556SOL    HW2 7673   4.433   1.874   0.508
 2557SOL     OW 7674   3.921   2.838   1.264
 2557SOL    HW1 7675   4.010   2.793   1.250
 2557SOL    HW2 7676   3.848   2.773   1.245
 2558SOL     OW 7677   4.041   2.113   1.801
 2558SOL    HW1 7678   4.112   2.184   1.807
 2558SOL    HW2 7679   3.953   2.152   1.829
 2559SOL     OW 7680   4.322   2.591   0.270
 2559SOL    HW1 7681   4.346   2.660   0.202
 2559SOL    HW2 7682   4.244   2.624   0.324
 2560SOL     OW 7683   3.800   2.673   0.789
 2560SOL    HW1 7684   3.899   2.661   0.798
 2560SOL    HW2 7685   3.776   2.768   0.810
 2561SOL     OW 7686   3.854   3.683   1.571
 2561SOL    HW1 7687   3.844   3.668   1.670
 2561SOL    HW2 7688   3.768   3.719   1.535
 2562SOL     OW 7689   4.589   2.210   0.195
 2562SOL    HW1 7690   4.648   2.273   0.146
 2562SOL    HW2 7691   4.608   2.116   0.166
 2563SOL     OW 7692   4.274   2.058   0.885
 2563SOL    HW1 7693   4.269   2.053   0.985
 2563SOL    HW2 7694   4.276   2.154   0.856
 2564SOL     OW 7695   4.075   3.663   0.853
 2564SOL    HW1 7696   4.125   3.577   0.859
 2564SOL    HW2 7697   4.140   3.740   0.850
 2565SOL     OW 7698   4.045   2.805   0.242
 2565SOL    HW1 7699   4.127   2.844   0.200
 2565SOL    HW2 7700   4.018   2.723   0.193
 2566SOL     OW 7701   4.185   3.128   1.727
 2566SOL    HW1 7702   4.135   3.129   1.641
 2566SOL    HW2 7703   4.122   3.110   1.803
 2567SOL     OW 7704   3.926   2.147   1.498
 2567SOL    HW1 7705   3.846   2.207   1.485
 2567SOL    HW2 7706   3.916   2.098   1.584
 2568SOL     OW 7707   4.188   3.605   0.323
 2568SOL    HW1 7708   4.221   3.644   0.409
 2568SOL    HW2 7709   4.264   3.598   0.258
 2569SOL     OW 7710   3.973   3.647   1.241
 2569SOL    HW1 7711   4.030   3.582   1.291
 2569SOL    HW2 7712   3.957   3.614   1.148
 2570SOL     OW 7713   4.106   2.562   0.480
 2570SOL    HW1 7714   4.151   2.472   0.477
 2570SOL    HW2 7715   4.012   2.551   0.513
 2571SOL     OW 7716   4.338   1.984   0.117
 2571SOL    HW1 7717   4.436   1.962   0.124
 2571SOL    HW2 7718   4.307   1.967   0.024
 2572SOL     OW 7719   4.263   1.926   0.512
 2572SOL    HW1 7720   4.182   1.927   0.570
 2572SOL    HW2 7721   4.266   2.009   0.457
 2573SOL     OW 7722   4.659   2.098   0.480
 2573SOL    HW1 7723   4.611   2.139   0.402
 2573SOL    HW2 7724   4.758   2.096   0.461
 2574SOL     OW 7725   4.183   3.014   0.741
 2574SOL    HW1 7726   4.112   2.987   0.806
 2574SOL    HW2 7727   4.157   2.986   0.648
 2575SOL     OW 7728   3.802   2.418   1.386
 2575SOL    HW1 7729   3.894   2.417   1.345
 2575SOL    HW2 7730   3.796   2.492   1.453
 2576SOL     OW 7731   4.285   2.084   1.147
 2576SOL    HW1 7732   4.323   2.000   1.184
 2576SOL    HW2 7733   4.197   2.103   1.191
 2577SOL     OW 7734   4.251   2.118   0.328
 2577SOL    HW1 7735   4.278   2.059   0.253
 2577SOL    HW2 7736   4.251   2.213   0.297
 2578SOL     OW 7737   4.134   2.675   1.251
 2578SOL    HW1 7738   4.220   2.687   1.301
 2578SOL    HW2 7739   4.092   2.588   1.278
 2579SOL     OW 7740   3.788   3.426   1.331
 2579SOL    HW1 7741   3.742   3.508   1.297
 2579SOL    HW2 7742   3.886   3.445   1.340
 2580SOL     OW 7743   4.091   2.962   0.501
 2580SOL    HW1 7744   4.084   3.045   0.445
 2580SOL    HW2 7745   4.095   2.882   0.441
 2581SOL     OW 7746   4.290   2.399   0.865
 2581SOL    HW1 7747   4.302   2.465   0.791
 2581SOL    HW2 7748   4.336   2.433   0.948
 2582SOL     OW 7749   4.078   3.372   1.329
 2582SOL    HW1 7750   4.057   3.328   1.242
 2582SOL    HW2 7751   4.175   3.398   1.332
 2583SOL     OW 7752   4.126   2.613   1.598
 2583SOL    HW1 7753   4.194   2.668   1.551
 2583SOL    HW2 7754   4.166   2.525   1.625
 2584SOL     OW 7755   4.228   1.912   1.740
 2584SOL    HW1 7756   4.186   1.855   1.670
 2584SOL    HW2 7757   4.162   1.981   1.772
 2585SOL     OW 7758   4.297   2.732   1.029
 2585SOL    HW1 7759   4.341   2.821   1.020
 2585SOL    HW2 7760   4.234   2.732   1.106
 2586SOL     OW 7761   4.031   2.075   1.231
 2586SOL    HW1 7762   4.008   2.112   1.321
 2586SOL    HW2 7763   4.001   1.980   1.225
 2587SOL     OW 7764   3.761   3.172   1.282
 2587SOL    HW1 7765   3.814   3.123   1.350
 2587SOL    HW2 7766   3.783   3.270   1.287
 2588SOL     OW 7767   4.031   1.925   0.618
 2588SOL    HW1 7768   4.020   2.019   0.651
 2588SOL    HW2 7769   4.026   1.862   0.695
 2589SOL     OW 7770   4.074   2.760   1.804
 2589SOL    HW1 7771   4.150   2.804   1.852
 2589SOL    HW2 7772   4.109   2.713   1.722
 2590SOL     OW 7773   4.043   2.672   0.949
 2590SOL    HW1 7774   4.136   2.708   0.954
 2590SOL    HW2 7775   4.037   2.587   1.001
 2591SOL     OW 7776   4.063   2.371   1.006
 2591SOL    HW1 7777   4.011   2.288   0.989
 2591SOL    HW2 7778   4.140   2.376   0.942
 2592SOL     OW 7779   3.732   3.188   0.200
 2592SOL    HW1 7780   3.639   3.209   0.169
 2592SOL    HW2 7781   3.742   3.089   0.213
 2593SOL     OW 7782   3.812   3.663   0.927
 2593SOL    HW1 7783   3.770   3.577   0.900
 2593SOL    HW2 7784   3.906   3.666   0.893
 2594SOL     OW 7785   4.228   3.430   0.910
 2594SOL    HW1 7786   4.294   3.504   0.919
 2594SOL    HW2 7787   4.272   3.351   0.868
 2595SOL     OW 7788   3.764   2.406   1.114
 2595SOL    HW1 7789   3.849   2.373   1.073
 2595SOL    HW2 7790   3.777   2.421   1.212
 2596SOL     OW 7791   3.913   2.382   1.722
 2596SOL    HW1 7792   3.972   2.342   1.652
 2596SOL    HW2 7793   3.855   2.453   1.681
 2597SOL     OW 7794   4.539   2.434   0.325
 2597SOL    HW1 7795   4.546   2.345   0.279
 2597SOL    HW2 7796   4.445   2.468   0.317
 2598SOL     OW 7797   3.976   3.426   1.744
 2598SOL    HW1 7798   3.946   3.483   1.820
 2598SOL    HW2 7799   3.969   3.329   1.770
 2599SOL     OW 7800   4.197   2.362   0.191
 2599SOL    HW1 7801   4.258   2.442   0.195
 2599SOL    HW2 7802   4.102   2.393   0.198
 2600SOL     OW 7803   3.883   2.999   1.466
 2600SOL    HW1 7804   3.905   2.938   1.542
 2600SOL    HW2 7805   3.893   2.950   1.380
 2601SOL     OW 7806   3.807   3.120   1.022
 2601SOL    HW1 7807   3.802   3.119   1.122
 2601SOL    HW2 7808   3.724   3.079   0.984
 2602SOL     OW 7809   4.412   3.524   1.716
 2602SOL    HW1 7810   4.356   3.605   1.725
 2602SOL    HW2 7811   4.464   3.528   1.630
 2603SOL     OW 7812   3.854   3.656   1.851
 2603SOL    HW1 7813   3.813   3.582   1.904
 2603SOL    HW2 7814   3.918   3.707   1.909
 2604SOL     OW 7815   3.987   2.188   0.720
 2604SOL    HW1 7816   3.908   2.239   0.686
 2604SOL    HW2 7817   3.978   2.173   0.818
 2605SOL     OW 7818   4.096   3.150   1.490
 2605SOL    HW1 7819   4.083   3.243   1.456
 2605SOL    HW2 7820   4.012   3.098   1.477
 2606SOL     OW 7821   4.314   3.349   0.491
 2606SOL    HW1 7822   4.356   3.291   0.421
 2606SOL    HW2 7823   4.270   3.428   0.447
 2607SOL     OW 7824   3.979   3.210   0.290
 2607SOL    HW1 7825   3.883   3.211   0.263
 2607SOL    HW2 7826   3.991   3.263   0.374
 2608SOL     OW 7827   3.829   2.875   1.726
 2608SOL    HW1 7828   3.752   2.842   1.780
 2608SOL    HW2 7829   3.914   2.845   1.768
 2609SOL     OW 7830   4.396   2.065   1.489
 2609SOL    HW1 7831   4.486   2.049   1.449
 2609SOL    HW2 7832   4.404   2.070   1.588
 2610SOL     OW 7833   3.799   2.207   0.033
 2610SOL    HW1 7834   3.707   2.179   0.004
 2610SOL    HW2 7835   3.830   2.284  -0.023
 2611SOL     OW 7836   3.796   2.028   0.318
 2611SOL    HW1 7837   3.779   2.111   0.264
 2611SOL    HW2 7838   3.886   1.991   0.296
 2612SOL     OW 7839   4.337   2.704   1.431
 2612SOL    HW1 7840   4.393   2.785   1.414
 2612SOL    HW2 7841   4.396   2.624   1.434
 2613SOL     OW 7842   4.114   3.603   1.560
 2613SOL    HW1 7843   4.023   3.644   1.558
 2613SOL    HW2 7844   4.107   3.509   1.592
 2614SOL     OW 7845   4.318   2.607   0.652
 2614SOL    HW1 7846   4.368   2.692   0.633
 2614SOL    HW2 7847   4.230   2.609   0.604
 2615SOL     OW 7848   3.945   3.176   1.844
 2615SOL    HW1 7849   3.880   3.103   1.823
 2615SOL    HW2 7850   3.949   3.190   1.942
 2616SOL     OW 7851   3.803   3.102   0.653
 2616SOL    HW1 7852   3.802   3.055   0.741
 2616SOL    HW2 7853   3.885   3.074   0.602
 2617SOL     OW 7854   4.396   3.253   1.624
 2617SOL    HW1 7855   4.318   3.203   1.662
 2617SOL    HW2 7856   4.393   3.348   1.655
 2618SOL     OW 7857   4.152   2.286   0.520
 2618SOL    HW1 7858   4.182   2.214   0.458
 2618SOL    HW2 7859   4.113   2.246   0.603
 2619SOL     OW 7860   4.041   2.409   1.280
 2619SOL    HW1 7861   4.079   2.350   1.352
 2619SOL    HW2 7862   4.081   2.383   1.192
 2620SOL     OW 7863   3.763   2.939   0.300
 2620SOL    HW1 7864   3.862   2.928   0.291
 2620SOL    HW2 7865   3.723   2.853   0.332
 2621SOL     OW 7866   3.954   2.490   1.975
 2621SOL    HW1 7867   3.861   2.488   2.012
 2621SOL    HW2 7868   3.955   2.451   1.883
 2622SOL     OW 7869   3.949   2.137   2.858
 2622SOL    HW1 7870   3.984   2.120   2.950
 2622SOL    HW2 7871   3.861   2.092   2.846
 2623SOL     OW 7872   3.743   2.230   2.509
 2623SOL    HW1 7873   3.661   2.273   2.548
 2623SOL    HW2 7874   3.715   2.157   2.446
 2624SOL     OW 7875   4.293   3.137   3.027
 2624SOL    HW1 7876   4.200   3.130   2.990
 2624SOL    HW2 7877   4.304   3.226   3.071
 2625SOL     OW 7878   4.574   2.660   3.685
 2625SOL    HW1 7879   4.570   2.736   3.750
 2625SOL    HW2 7880   4.596   2.696   3.594
 2626SOL     OW 7881   4.059   3.297   2.923
 2626SOL    HW1 7882   3.981   3.266   2.870
 2626SOL    HW2 7883   4.117   3.355   2.866
 2627SOL     OW 7884   4.162   2.254   3.361
 2627SOL    HW1 7885   4.244   2.198   3.370
 2627SOL    HW2 7886   4.081   2.196   3.365
 2628SOL     OW 7887   3.955   3.575   2.345
 2628SOL    HW1 7888   3.989   3.652   2.399
 2628SOL    HW2 7889   3.999   3.575   2.255
 2629SOL     OW 7890   3.954   3.296   2.400
 2629SOL    HW1 7891   3.928   3.392   2.400
 2629SOL    HW2 7892   3.883   3.242   2.445
 2630SOL     OW 7893   3.964   2.953   2.748
 2630SOL    HW1 7894   3.978   2.869   2.800
 2630SOL    HW2 7895   3.909   3.017   2.803
 2631SOL     OW 7896   3.846   2.505   2.425
 2631SOL    HW1 7897   3.801   2.417   2.442
 2631SOL    HW2 7898   3.845   2.559   2.509
 2632SOL     OW 7899   3.751   3.458   1.979
 2632SOL    HW1 7900   3.732   3.362   2.000
 2632SOL    HW2 7901   3.718   3.516   2.054
 2633SOL     OW 7902   3.837   2.599   3.459
 2633SOL    HW1 7903   3.925   2.586   3.504
 2633SOL    HW2 7904   3.824   2.696   3.437
 2634SOL     OW 7905   4.337   3.227   2.588
 2634SOL    HW1 7906   4.288   3.140   2.597
 2634SOL    HW2 7907   4.314   3.270   2.501
 2635SOL     OW 7908   4.533   1.866   2.364
 2635SOL    HW1 7909   4.573   1.957   2.355
 2635SOL    HW2 7910   4.433   1.874   2.370
 2636SOL     OW 7911   3.921   2.838   3.126
 2636SOL    HW1 7912   4.010   2.793   3.112
 2636SOL    HW2 7913   3.848   2.773   3.107
 2637SOL     OW 7914   4.041   2.113   3.663
 2637SOL    HW1 7915   4.112   2.184   3.669
 2637SOL    HW2 7916   3.953   2.152   3.691
 2638SOL     OW 7917   4.322   2.591   2.132
 2638SOL    HW1 7918   4.346   2.660   2.064
 2638SOL    HW2 7919   4.244   2.624   2.186
 2639SOL     OW 7920   3.800   2.673   2.651
 2639SOL    HW1 7921   3.899   2.661   2.660
 2639SOL    HW2 7922   3.776   2.768   2.672
 2640SOL     OW 7923   3.854   3.683   3.433
 2640SOL    HW1 7924   3.844   3.668   3.532
 2640SOL    HW2 7925   3.768   3.719   3.397
 2641SOL     OW 7926   4.589   2.210   2.057
 2641SOL    HW1 7927   4.648   2.273   2.008
 2641SOL    HW2 7928   4.608   2.116   2.028
 2642SOL     OW 7929   4.274   2.058   2.747
 2642SOL    HW1 7930   4.269   2.053   2.847
 2642SOL    HW2 7931   4.276   2.154   2.718
 2643SOL     OW 7932   4.075   3.663   2.715
 2643SOL    HW1 7933   4.125   3.577   2.721
 2643SOL    HW2 7934   4.140   3.740   2.712
 2644SOL     OW 7935   4.045   2.805   2.104
 2644SOL    HW1 7936   4.127   2.844   2.062
 2644SOL    HW2 7937   4.018   2.723   2.055
 2645SOL     OW 7938   4.185   3.128   3.589
 2645SOL    HW1 7939   4.135   3.129   3.503
 2645SOL    HW2 7940   4.122   3.110   3.665
 2646SOL     OW 7941   3.926   2.147   3.360
 2646SOL    HW1 7942   3.846   2.207   3.347
 2646SOL    HW2 7943   3.916   2.098   3.446
 2647SOL     OW 7944   4.188   3.605   2.185
 2647SOL    HW1 7945   4.221   3.644   2.271
 2647SOL    HW2 7946   4.264   3.598   2.120
 2648SOL     OW 7947   3.973   3.647   3.103
 2648SOL    HW1 7948   4.030   3.582   3.153
 2648SOL    HW2 7949   3.957   3.614   3.010
 2649SOL     OW 7950   4.106   2.562   2.342
 2649SOL    HW1 7951   4.151   2.472   2.339
 2649SOL    HW2 7952   4.012   2.551   2.375
 2650SOL     OW 7953   4.338   1.984   1.979
 2650SOL    HW1 7954   4.436   1.962   1.986
 2650SOL    HW2 7955   4.307   1.967   1.886
 2651SOL     OW 7956   4.263   1.926   2.374
 2651SOL    HW1 7957   4.182   1.927   2.432
 2651SOL    HW2 7958   4.266   2.009   2.319
 2652SOL     OW 7959   4.021   1.897   2.033
 2652SOL    HW1 7960   4.070   1.981   2.012
 2652SOL    HW2 7961   4.083   1.832   2.078
 2653SOL     OW 7962   4.659   2.098   2.342
 2653SOL    HW1 7963   4.611   2.139   2.264
 2653SOL    HW2 7964   4.758   2.096   2.323
 2654SOL     OW 7965   4.183   3.014   2.603
 2654SOL    HW1 7966   4.112   2.987   2.668
 2654SOL    HW2 7967   4.157   2.986   2.510
 2655SOL     OW 7968   3.802   2.418   3.248
 2655SOL    HW1 7969   3.894   2.417   3.207
 2655SOL    HW2 7970   3.796   2.492   3.315
 2656SOL     OW 7971   4.285   2.084   3.009
 2656SOL    HW1 7972   4.323   2.000   3.046
 2656SOL    HW2 7973   4.197   2.103   3.053
 2657SOL     OW 7974   4.251   2.118   2.190
 2657SOL    HW1 7975   4.278   2.059   2.115
 2657SOL    HW2 7976   4.251   2.213   2.159
 2658SOL     OW 7977   4.134   2.675   3.113
 2658SOL    HW1 7978   4.220   2.687   3.163
 2658SOL    HW2 7979   4.092   2.588   3.140
 2659SOL     OW 7980   3.788   3.426   3.193
 2659SOL    HW1 7981   3.742   3.508   3.159
 2659SOL    HW2 7982   3.886   3.445   3.202
 2660SOL     OW 7983   4.091   2.962   2.363
 2660SOL    HW1 7984   4.084   3.045   2.307
 2660SOL    HW2 7985   4.095   2.882   2.303
 2661SOL     OW 7986   4.290   2.399   2.727
 2661SOL    HW1 7987   4.302   2.465   2.653
 2661SOL    HW2 7988   4.336   2.433   2.810
 2662SOL     OW 7989   4.078   3.372   3.191
 2662SOL    HW1 7990   4.057   3.328   3.104
 2662SOL    HW2 7991   4.175   3.398   3.194
 2663SOL     OW 7992   4.126   2.613   3.460
 2663SOL    HW1 7993   4.194   2.668   3.413
 2663SOL    HW2 7994   4.166   2.525   3.487
 2664SOL     OW 7995   4.228   1.912   3.602
 2664SOL    HW1 7996   4.186   1.855   3.532
 2664SOL    HW2 7997   4.162   1.981   3.634
 2665SOL     OW 7998   4.297   2.732   2.891
 2665SOL    HW1 7999   4.341   2.821   2.882
 2665SOL    HW2 8000   4.234   2.732   2.968
 2666SOL     OW 8001   4.031   2.075   3.093
 2666SOL    HW1 8002   4.008   2.112   3.183
 2666SOL    HW2 8003   4.001   1.980   3.087
 2667SOL     OW 8004   3.761   3.172   3.144
 2667SOL    HW1 8005   3.814   3.123   3.212
 2667SOL    HW2 8006   3.783   3.270   3.149
 2668SOL     OW 8007   4.031   1.925   2.480
 2668SOL    HW1 8008   4.020   2.019   2.513
 2668SOL    HW2 8009   4.026   1.862   2.557
 2669SOL     OW 8010   4.074   2.760   3.666
 2669SOL    HW1 8011   4.150   2.804   3.714
 2669SOL    HW2 8012   4.109   2.713   3.584
 2670SOL     OW 8013   4.043   2.672   2.811
 2670SOL    HW1 8014   4.136   2.708   2.816
 2670SOL    HW2 8015   4.037   2.587   2.863
 2671SOL     OW 8016   4.063   2.371   2.868
 2671SOL    HW1 8017   4.011   2.288   2.851
 2671SOL    HW2 8018   4.140   2.376   2.804
 2672SOL     OW 8019   3.732   3.188   2.062
 2672SOL    HW1 8020   3.639   3.209   2.031
 2672SOL    HW2 8021   3.742   3.089   2.075
 2673SOL     OW 8022   3.812   3.663   2.789
 2673SOL    HW1 8023   3.770   3.577   2.762
 2673SOL    HW2 8024   3.906   3.666   2.755
 2674SOL     OW 8025   4.228   3.430   2.772
 2674SOL    HW1 8026   4.294   3.504   2.781
 2674SOL    HW2 8027   4.272   3.351   2.730
 2675SOL     OW 8028   3.764   2.406   2.976
 2675SOL    HW1 8029   3.849   2.373   2.935
 2675SOL    HW2 8030   3.777   2.421   3.074
 2676SOL     OW 8031   3.913   2.382   3.584
 2676SOL    HW1 8032   3.972   2.342   3.514
 2676SOL    HW2 8033   3.855   2.453   3.543
 2677SOL     OW 8034   4.539   2.434   2.187
 2677SOL    HW1 8035   4.546   2.345   2.141
 2677SOL    HW2 8036   4.445   2.468   2.179
 2678SOL     OW 8037   3.976   3.426   3.606
 2678SOL    HW1 8038   3.946   3.483   3.682
 2678SOL    HW2 8039   3.969   3.329   3.632
 2679SOL     OW 8040   4.197   2.362   2.053
 2679SOL    HW1 8041   4.258   2.442   2.057
 2679SOL    HW2 8042   4.102   2.393   2.060
 2680SOL     OW 8043   3.883   2.999   3.328
 2680SOL    HW1 8044   3.905   2.938   3.404
 2680SOL    HW2 8045   3.893   2.950   3.242
 2681SOL     OW 8046   3.807   3.120   2.884
 2681SOL    HW1 8047   3.802   3.119   2.984
 2681SOL    HW2 8048   3.724   3.079   2.846
 2682SOL     OW 8049   4.412   3.524   3.578
 2682SOL    HW1 8050   4.356   3.605   3.587
 2682SOL    HW2 8051   4.464   3.528   3.492
 2683SOL     OW 8052   3.854   3.656   3.713
 2683SOL    HW1 8053   3.813   3.582   3.766
 2683SOL    HW2 8054   3.918   3.707   3.771
 2684SOL     OW 8055   3.987   2.188   2.582
 2684SOL    HW1 8056   3.908   2.239   2.548
 2684SOL    HW2 8057   3.978   2.173   2.680
 2685SOL     OW 8058   4.096   3.150   3.352
 2685SOL    HW1 8059   4.083   3.243   3.318
 2685SOL    HW2 8060   4.012   3.098   3.339
 2686SOL     OW 8061   4.314   3.349   2.353
 2686SOL    HW1 8062   4.356   3.291   2.283
 2686SOL    HW2 8063   4.270   3.428   2.309
 2687SOL     OW 8064   3.979   3.210   2.152
 2687SOL    HW1 8065   3.883   3.211   2.125
 2687SOL    HW2 8066   3.991   3.263   2.236
 2688SOL     OW 8067   3.829   2.875   3.588
 2688SOL    HW1 8068   3.752   2.842   3.642
 2688SOL    HW2 8069   3.914   2.845   3.630
 2689SOL     OW 8070   4.396   2.065   3.351
 2689SOL    HW1 8071   4.486   2.049   3.311
 2689SOL    HW2 8072   4.404   2.070   3.450
 2690SOL     OW 8073   3.799   2.207   1.895
 2690SOL    HW1 8074   3.707   2.179   1.866
 2690SOL    HW2 8075   3.830   2.284   1.839
 2691SOL     OW 8076   3.796   2.028   2.180
 2691SOL    HW1 8077   3.779   2.111   2.126
 2691SOL    HW2 8078   3.886   1.991   2.158
 2692SOL     OW 8079   4.337   2.704   3.293
 2692SOL    HW1 8080   4.393   2.785   3.276
 2692SOL    HW2 8081   4.396   2.624   3.296
 2693SOL     OW 8082   4.114   3.603   3.422
 2693SOL    HW1 8083   4.023   3.644   3.420
 2693SOL    HW2 8084   4.107   3.509   3.454
 2694SOL     OW 8085   4.318   2.607   2.514
 2694SOL    HW1 8086   4.368   2.692   2.495
 2694SOL    HW2 8087   4.230   2.609   2.466
 2695SOL     OW 8088   3.945   3.176   3.706
 2695SOL    HW1 8089   3.880   3.103   3.685
 2695SOL    HW2 8090   3.949   3.190   3.804
 2696SOL     OW 8091   3.803   3.102   2.515
 2696SOL    HW1 8092   3.802   3.055   2.603
 2696SOL    HW2 8093   3.885   3.074   2.464
 2697SOL     OW 8094   4.396   3.253   3.486
 2697SOL    HW1 8095   4.318   3.203   3.524
 2697SOL    HW2 8096   4.393   3.348   3.517
 2698SOL     OW 8097   4.152   2.286   2.382
 2698SOL    HW1 8098   4.182   2.214   2.320
 2698SOL    HW2 8099   4.113   2.246   2.465
 2699SOL     OW 8100   4.041   2.409   3.142
 2699SOL    HW1 8101   4.079   2.350   3.214
 2699SOL    HW2 8102   4.081   2.383   3.054
 2700SOL     OW 8103   3.763   2.939   2.162
 2700SOL    HW1 8104   3.862   2.928   2.153
 2700SOL    HW2 8105   3.723   2.853   2.194
 2701SOL     OW 8106   3.954   2.490   3.837
 2701SOL    HW1 8107   3.861   2.488   3.874
 2701SOL    HW2 8108   3.955   2.451   3.745
 2702SOL     OW 8109   3.955   3.575   4.207
 2702SOL    HW1 8110   3.989   3.652   4.261
 2702SOL    HW2 8111   3.999   3.575   4.117
 2703SOL     OW 8112   3.954   3.296   4.262
 2703SOL    HW1 8113   3.928   3.392   4.262
 2703SOL    HW2 8114   3.883   3.242   4.307
 2704SOL     OW 8115   3.846   2.505   4.287
 2704SOL    HW1 8116   3.801   2.417   4.304
 2704SOL    HW2 8117   3.845   2.559   4.371
 2705SOL     OW 8118   3.751   3.458   3.841
 2705SOL    HW1 8119   3.732   3.362   3.862
 2705SOL    HW2 8120   3.718   3.516   3.916
 2706SOL     OW 8121   4.533   1.866   4.226
 2706SOL    HW1 8122   4.573   1.957   4.217
 2706SOL    HW2 8123   4.433   1.874   4.232
 2707SOL     OW 8124   4.322   2.591   3.994
 2707SOL    HW1 8125   4.346   2.660   3.926
 2707SOL    HW2 8126   4.244   2.624   4.048
 2708SOL     OW 8127   3.800   2.673   4.513
 2708SOL    HW1 8128   3.899   2.661   4.522
 2708SOL    HW2 8129   3.776   2.768   4.534
 2709SOL     OW 8130   4.589   2.210   3.919
 2709SOL    HW1 8131   4.648   2.273   3.870
 2709SOL    HW2 8132   4.608   2.116   3.890
 2710SOL     OW 8133   4.075   3.663   4.577
 2710SOL    HW1 8134   4.125   3.577   4.583
 2710SOL    HW2 8135   4.140   3.740   4.574
 2711SOL     OW 8136   4.045   2.805   3.966
 2711SOL    HW1 8137   4.127   2.844   3.924
 2711SOL    HW2 8138   4.018   2.723   3.917
 2712SOL     OW 8139   4.188   3.605   4.047
 2712SOL    HW1 8140   4.221   3.644   4.133
 2712SOL    HW2 8141   4.264   3.598   3.982
 2713SOL     OW 8142   4.106   2.562   4.204
 2713SOL    HW1 8143   4.151   2.472   4.201
 2713SOL    HW2 8144   4.012   2.551   4.237
 2714SOL     OW 8145   4.338   1.984   3.841
 2714SOL    HW1 8146   4.436   1.962   3.848
 2714SOL    HW2 8147   4.307   1.967   3.748
 2715SOL     OW 8148   4.263   1.926   4.236
 2715SOL    HW1 8149   4.182   1.927   4.294
 2715SOL    HW2 8150   4.266   2.009   4.181
 2716SOL     OW 8151   4.021   1.897   3.895
 2716SOL    HW1 8152   4.070   1.981   3.874
 2716SOL    HW2 8153   4.083   1.832   3.940
 2717SOL     OW 8154   4.659   2.098   4.204
 2717SOL    HW1 8155   4.611   2.139   4.126
 2717SOL    HW2 8156   4.758   2.096   4.185
 2718SOL     OW 8157   4.183   3.014   4.465
 2718SOL    HW1 8158   4.112   2.987   4.530
 2718SOL    HW2 8159   4.157   2.986   4.372
 2719SOL     OW 8160   4.251   2.118   4.052
 2719SOL    HW1 8161   4.278   2.059   3.977
 2719SOL    HW2 8162   4.251   2.213   4.021
 2720SOL     OW 8163   4.091   2.962   4.225
 2720SOL    HW1 8164   4.084   3.045   4.169
 2720SOL    HW2 8165   4.095   2.882   4.165
 2721SOL     OW 8166   4.031   1.925   4.342
 2721SOL    HW1 8167   4.020   2.019   4.375
 2721SOL    HW2 8168   4.026   1.862   4.419
 2722SOL     OW 8169   3.732   3.188   3.924
 2722SOL    HW1 8170   3.639   3.209   3.893
 2722SOL    HW2 8171   3.742   3.089   3.937
 2723SOL     OW 8172   4.539   2.434   4.049
 2723SOL    HW1 8173   4.546   2.345   4.003
 2723SOL    HW2 8174   4.445   2.468   4.041
 2724SOL     OW 8175   4.197   2.362   3.915
 2724SOL    HW1 8176   4.258   2.442   3.919
 2724SOL    HW2 8177   4.102   2.393   3.922
 2725SOL     OW 8178   4.314   3.349   4.215
 2725SOL    HW1 8179   4.356   3.291   4.145
 2725SOL    HW2 8180   4.270   3.428   4.171
 2726SOL     OW 8181   3.979   3.210   4.014
 2726SOL    HW1 8182   3.883   3.211   3.987
 2726SOL    HW2 8183   3.991   3.263   4.098
 2727SOL     OW 8184   3.799   2.207   3.757
 2727SOL    HW1 8185   3.707   2.179   3.728
 2727SOL    HW2 8186   3.830   2.284   3.701
 2728SOL     OW 8187   3.796   2.028   4.042
 2728SOL    HW1 8188   3.779   2.111   3.988
 2728SOL    HW2 8189   3.886   1.991   4.020
 2729SOL     OW 8190   4.318   2.607   4.376
 2729SOL    HW1 8191   4.368   2.692   4.357
 2729SOL    HW2 8192   4.230   2.609   4.328
 2730SOL     OW 8193   3.803   3.102   4.377
 2730SOL    HW1 8194   3.802   3.055   4.465
 2730SOL    HW2 8195   3.885   3.074   4.326
 2731SOL     OW 8196   4.152   2.286   4.244
 2731SOL    HW1 8197   4.182   2.214   4.182
 2731SOL    HW2 8198   4.113   2.246   4.327
 2732SOL     OW 8199   3.763   2.939   4.024
 2732SOL    HW1 8200   3.862   2.928   4.015
 2732SOL    HW2 8201   3.723   2.853   4.056
 2733SOL     OW 8202   3.949   3.999   0.996
 2733SOL    HW1 8203   3.984   3.982   1.088
 2733SOL    HW2 8204   3.861   3.954   0.984
 2734SOL     OW 8205   3.743   4.092   0.647
 2734SOL    HW1 8206   3.661   4.135   0.686
 2734SOL    HW2 8207   3.715   4.019   0.584
 2735SOL     OW 8208   4.162   4.116   1.499
 2735SOL    HW1 8209   4.244   4.060   1.508
 2735SOL    HW2 8210   4.081   4.058   1.503
 2736SOL     OW 8211   3.846   4.367   0.563
 2736SOL    HW1 8212   3.801   4.279   0.580
 2736SOL    HW2 8213   3.845   4.421   0.647
 2737SOL     OW 8214   4.533   3.728   0.502
 2737SOL    HW1 8215   4.573   3.819   0.493
 2737SOL    HW2 8216   4.433   3.736   0.508
 2738SOL     OW 8217   4.041   3.975   1.801
 2738SOL    HW1 8218   4.112   4.046   1.807
 2738SOL    HW2 8219   3.953   4.014   1.829
 2739SOL     OW 8220   4.589   4.072   0.195
 2739SOL    HW1 8221   4.648   4.135   0.146
 2739SOL    HW2 8222   4.608   3.978   0.166
 2740SOL     OW 8223   4.274   3.920   0.885
 2740SOL    HW1 8224   4.269   3.915   0.985
 2740SOL    HW2 8225   4.276   4.016   0.856
 2741SOL     OW 8226   3.926   4.009   1.498
 2741SOL    HW1 8227   3.846   4.069   1.485
 2741SOL    HW2 8228   3.916   3.960   1.584
 2742SOL     OW 8229   4.338   3.846   0.117
 2742SOL    HW1 8230   4.436   3.824   0.124
 2742SOL    HW2 8231   4.307   3.829   0.024
 2743SOL     OW 8232   4.263   3.788   0.512
 2743SOL    HW1 8233   4.182   3.789   0.570
 2743SOL    HW2 8234   4.266   3.871   0.457
 2744SOL     OW 8235   4.659   3.960   0.480
 2744SOL    HW1 8236   4.611   4.001   0.402
 2744SOL    HW2 8237   4.758   3.958   0.461
 2745SOL     OW 8238   3.802   4.280   1.386
 2745SOL    HW1 8239   3.894   4.279   1.345
 2745SOL    HW2 8240   3.796   4.354   1.453
 2746SOL     OW 8241   4.285   3.946   1.147
 2746SOL    HW1 8242   4.323   3.862   1.184
 2746SOL    HW2 8243   4.197   3.965   1.191
 2747SOL     OW 8244   4.251   3.980   0.328
 2747SOL    HW1 8245   4.278   3.921   0.253
 2747SOL    HW2 8246   4.251   4.075   0.297
 2748SOL     OW 8247   4.290   4.261   0.865
 2748SOL    HW1 8248   4.302   4.327   0.791
 2748SOL    HW2 8249   4.336   4.295   0.948
 2749SOL     OW 8250   4.228   3.774   1.740
 2749SOL    HW1 8251   4.186   3.717   1.670
 2749SOL    HW2 8252   4.162   3.843   1.772
 2750SOL     OW 8253   4.031   3.937   1.231
 2750SOL    HW1 8254   4.008   3.974   1.321
 2750SOL    HW2 8255   4.001   3.842   1.225
 2751SOL     OW 8256   4.031   3.787   0.618
 2751SOL    HW1 8257   4.020   3.881   0.651
 2751SOL    HW2 8258   4.026   3.724   0.695
 2752SOL     OW 8259   4.043   4.534   0.949
 2752SOL    HW1 8260   4.136   4.570   0.954
 2752SOL    HW2 8261   4.037   4.449   1.001
 2753SOL     OW 8262   4.063   4.233   1.006
 2753SOL    HW1 8263   4.011   4.150   0.989
 2753SOL    HW2 8264   4.140   4.238   0.942
 2754SOL     OW 8265   3.764   4.268   1.114
 2754SOL    HW1 8266   3.849   4.235   1.073
 2754SOL    HW2 8267   3.777   4.283   1.212
 2755SOL     OW 8268   3.913   4.244   1.722
 2755SOL    HW1 8269   3.972   4.204   1.652
 2755SOL    HW2 8270   3.855   4.315   1.681
 2756SOL     OW 8271   4.539   4.296   0.325
 2756SOL    HW1 8272   4.546   4.207   0.279
 2756SOL    HW2 8273   4.445   4.330   0.317
 2757SOL     OW 8274   3.987   4.050   0.720
 2757SOL    HW1 8275   3.908   4.101   0.686
 2757SOL    HW2 8276   3.978   4.035   0.818
 2758SOL     OW 8277   4.396   3.927   1.489
 2758SOL    HW1 8278   4.486   3.911   1.449
 2758SOL    HW2 8279   4.404   3.932   1.588
 2759SOL     OW 8280   3.799   4.069   0.033
 2759SOL    HW1 8281   3.707   4.041   0.004
 2759SOL    HW2 8282   3.830   4.146  -0.023
 2760SOL     OW 8283   3.796   3.890   0.318
 2760SOL    HW1 8284   3.779   3.973   0.264
 2760SOL    HW2 8285   3.886   3.853   0.296
 2761SOL     OW 8286   4.152   4.148   0.520
 2761SOL    HW1 8287   4.182   4.076   0.458
 2761SOL    HW2 8288   4.113   4.108   0.603
 2762SOL     OW 8289   4.041   4.271   1.280
 2762SOL    HW1 8290   4.079   4.212   1.352
 2762SOL    HW2 8291   4.081   4.245   1.192
 2763SOL     OW 8292   3.949   3.999   2.858
 2763SOL    HW1 8293   3.984   3.982   2.950
 2763SOL    HW2 8294   3.861   3.954   2.846
 2764SOL     OW 8295   3.743   4.092   2.509
 2764SOL    HW1 8296   3.661   4.135   2.548
 2764SOL    HW2 8297   3.715   4.019   2.446
 2765SOL     OW 8298   4.162   4.116   3.361
 2765SOL    HW1 8299   4.244   4.060   3.370
 2765SOL    HW2 8300   4.081   4.058   3.365
 2766SOL     OW 8301   3.846   4.367   2.425
 2766SOL    HW1 8302   3.801   4.279   2.442
 2766SOL    HW2 8303   3.845   4.421   2.509
 2767SOL     OW 8304   4.533   3.728   2.364
 2767SOL    HW1 8305   4.573   3.819   2.355
 2767SOL    HW2 8306   4.433   3.736   2.370
 2768SOL     OW 8307   4.041   3.975   3.663
 2768SOL    HW1 8308   4.112   4.046   3.669
 2768SOL    HW2 8309   3.953   4.014   3.691
 2769SOL     OW 8310   4.589   4.072   2.057
 2769SOL    HW1 8311   4.648   4.135   2.008
 2769SOL    HW2 8312   4.608   3.978   2.028
 2770SOL     OW 8313   4.274   3.920   2.747
 2770SOL    HW1 8314   4.269   3.915   2.847
 2770SOL    HW2 8315   4.276   4.016   2.718
 2771SOL     OW 8316   3.926   4.009   3.360
 2771SOL    HW1 8317   3.846   4.069   3.347
 2771SOL    HW2 8318   3.916   3.960   3.446
 2772SOL     OW 8319   4.338   3.846   1.979
 2772SOL    HW1 8320   4.436   3.824   1.986
 2772SOL    HW2 8321   4.307   3.829   1.886
 2773SOL     OW 8322   4.263   3.788   2.374
 2773SOL    HW1 8323   4.182   3.789   2.432
 2773SOL    HW2 8324   4.266   3.871   2.319
 2774SOL     OW 8325   4.021   3.759   2.033
 2774SOL    HW1 8326   4.070   3.843   2.012
 2774SOL    HW2 8327   4.083   3.694   2.078
 2775SOL     OW 8328   4.659   3.960   2.342
 2775SOL    HW1 8329   4.611   4.001   2.264
 2775SOL    HW2 8330   4.758   3.958   2.323
 2776SOL     OW 8331   3.802   4.280   3.248
 2776SOL    HW1 8332   3.894   4.279   3.207
 2776SOL    HW2 8333   3.796   4.354   3.315
 2777SOL     OW 8334   4.285   3.946   3.009
 2777SOL    HW1 8335   4.323   3.862   3.046
 2777SOL    HW2 8336   4.197   3.965   3.053
 2778SOL     OW 8337   4.251   3.980   2.190
 2778SOL    HW1 8338   4.278   3.921   2.115
 2778SOL    HW2 8339   4.251   4.075   2.159
 2779SOL     OW 8340   4.290   4.261   2.727
 2779SOL    HW1 8341   4.302   4.327   2.653
 2779SOL    HW2 8342   4.336   4.295   2.810
 2780SOL     OW 8343   4.228   3.774   3.602
 2780SOL    HW1 8344   4.186   3.717   3.532
 2780SOL    HW2 8345   4.162   3.843   3.634
 2781SOL     OW 8346   4.031   3.937   3.093
 2781SOL    HW1 8347   4.008   3.974   3.183
 2781SOL    HW2 8348   4.001   3.842   3.087
 2782SOL     OW 8349   4.031   3.787   2.480
 2782SOL    HW1 8350   4.020   3.881   2.513
 2782SOL    HW2 8351   4.026   3.724   2.557
 2783SOL     OW 8352   4.043   4.534   2.811
 2783SOL    HW1 8353   4.136   4.570   2.816
 2783SOL    HW2 8354   4.037   4.449   2.863
 2784SOL     OW 8355   4.063   4.233   2.868
 2784SOL    HW1 8356   4.011   4.150   2.851
 2784SOL    HW2 8357   4.140   4.238   2.804
 2785SOL     OW 8358   3.764   4.268   2.976
 2785SOL    HW1 8359   3.849   4.235   2.935
 2785SOL    HW2 8360   3.777   4.283   3.074
 2786SOL     OW 8361   3.913   4.244   3.584
 2786SOL    HW1 8362   3.972   4.204   3.514
 2786SOL    HW2 8363   3.855   4.315   3.543
 2787SOL     OW 8364   4.539   4.296   2.187
 2787SOL    HW1 8365   4.546   4.207   2.141
 2787SOL    HW2 8366   4.445   4.330   2.179
 2788SOL     OW 8367   3.987   4.050   2.582
 2788SOL    HW1 8368   3.908   4.101   2.548
 2788SOL    HW2 8369   3.978   4.035   2.680
 2789SOL     OW 8370   4.396   3.927   3.351
 2789SOL    HW1 8371   4.486   3.911   3.311
 2789SOL    HW2 8372   4.404   3.932   3.450
 2790SOL     OW 8373   3.799   4.069   1.895
 2790SOL    HW1 8374   3.707   4.041   1.866
 2790SOL    HW2 8375   3.830   4.146   1.839
 2791SOL     OW 8376   3.796   3.890   2.180
 2791SOL    HW1 8377   3.779   3.973   2.126
 2791SOL    HW2 8378   3.886   3.853   2.158
 2792SOL     OW 8379   4.152   4.148   2.382
 2792SOL    HW1 8380   4.182   4.076   2.320
 2792SOL    HW2 8381   4.113   4.108   2.465
 2793SOL     OW 8382   4.041   4.271   3.142
 2793SOL    HW1 8383   4.079   4.212   3.214
 2793SOL    HW2 8384   4.081   4.245   3.054
 2794SOL     OW 8385   3.846   4.367   4.287
 2794SOL    HW1 8386   3.801   4.279   4.304
 2794SOL    HW2 8387   3.845   4.421   4.371
 2795SOL     OW 8388   4.533   3.728   4.226
 2795SOL    HW1 8389   4.573   3.819   4.217
 2795SOL    HW2 8390   4.433   3.736   4.232
 2796SOL     OW 8391   4.589   4.072   3.919
 2796SOL    HW1 8392   4.648   4.135   3.870
 2796SOL    HW2 8393   4.608   3.978   3.890
 2797SOL     OW 8394   4.338   3.846   3.841
 2797SOL    HW1 8395   4.436   3.824   3.848
 2797SOL    HW2 8396   4.307   3.829   3.748
 2798SOL     OW 8397   4.263   3.788   4.236
 2798SOL    HW1 8398   4.182   3.789   4.294
 2798SOL    HW2 8399   4.266   3.871   4.181
 2799SOL     OW 8400   4.021   3.759   3.895
 2799SOL    HW1 8401   4.070   3.843   3.874
 2799SOL    HW2 8402   4.083   3.694   3.940
 2800SOL     OW 8403   4.659   3.960   4.204
 2800SOL    HW1 8404   4.611   4.001   4.126
 2800SOL    HW2 8405   4.758   3.958   4.185
 2801SOL     OW 8406   4.251   3.980   4.052
 2801SOL    HW1 8407   4.278   3.921   3.977
 2801SOL    HW2 8408   4.251   4.075   4.021
 2802SOL     OW 8409   4.031   3.787   4.342
 2802SOL    HW1 8410   4.020   3.881   4.375
 2802SOL    HW2 8411   4.026   3.724   4.419
 2803SOL     OW 8412   4.063   4.233   4.730
 2803SOL    HW1 8413   4.011   4.150   4.713
 2803SOL    HW2 8414   4.140   4.238   4.666
 2804SOL     OW 8415   4.539   4.296   4.049
 2804SOL    HW1 8416   4.546   4.207   4.003
 2804SOL    HW2 8417   4.445   4.330   4.041
 2805SOL     OW 8418   3.799   4.069   3.757
 2805SOL    HW1 8419   3.707   4.041   3.728
 2805SOL    HW2 8420   3.830   4.146   3.701
 2806SOL     OW 8421   3.796   3.890   4.042
 2806SOL    HW1 8422   3.779   3.973   3.988
 2806SOL    HW2 8423   3.886   3.853   4.020
 2807SOL     OW 8424   4.152   4.148   4.244
 2807SOL    HW1 8425   4.182   4.076   4.182
 2807SOL    HW2 8426   4.113   4.108   4.327
   4.40831   4.40831   4.40831
