mobley_8558116_GMX.gro created by acpype (v: 2023.10.27) on Wed May 20 23:58:03 2026
   18
    1MOL     C1    1   2.347   2.339   2.340
    1MOL     C2    2   2.190   2.190   2.234
    1MOL     C3    3   2.266   2.457   2.287
    1MOL     C4    4   2.113   2.311   2.184
    1MOL     C5    5   2.408   2.109   2.300
    1MOL     N1    6   2.333   2.224   2.250
    1MOL     O1    7   2.129   2.421   2.274
    1MOL     H1    8   2.453   2.368   2.347
    1MOL     H2    9   2.312   2.313   2.441
    1MOL     H3   10   2.149   2.157   2.331
    1MOL     H4   11   2.179   2.107   2.163
    1MOL     H5   12   2.272   2.541   2.357
    1MOL     H6   13   2.305   2.492   2.190
    1MOL     H7   14   2.146   2.341   2.083
    1MOL     H8   15   2.007   2.288   2.178
    1MOL     H9   16   2.393   2.096   2.407
    1MOL    H10   17   2.515   2.123   2.281
    1MOL    H11   18   2.376   2.018   2.249
   4.54407   4.54407   4.54407
