mobley_4395315_GMX.gro created by acpype (v: 2023.10.27) on Thu May 21 00:02:31 2026
   16
    1MOL     C1    1   2.155   2.399   2.225
    1MOL     C2    2   2.153   2.402   2.365
    1MOL     C3    3   2.367   2.283   2.231
    1MOL     C4    4   2.365   2.286   2.370
    1MOL     C5    5   2.262   2.340   2.158
    1MOL     C6    6   2.258   2.346   2.437
    1MOL     C7    7   2.479   2.225   2.444
    1MOL     O1    8   2.264   2.336   2.022
    1MOL    CL1    9   2.252   2.352   2.610
    1MOL     H1   10   2.073   2.443   2.170
    1MOL     H2   11   2.069   2.449   2.415
    1MOL     H3   12   2.450   2.237   2.178
    1MOL     H4   13   2.529   2.301   2.506
    1MOL     H5   14   2.445   2.144   2.510
    1MOL     H6   15   2.553   2.182   2.375
    1MOL     H7   16   2.341   2.284   1.993
   4.62708   4.62708   4.62708
