; mobley_6358463_GMX_OPLS.top created by acpype (v: 2023.10.27) on Wed May 20 23:51:10 2026

; Include forcefield parameters
#include "ffoplsaa.itp"

; Include mobley_6358463_GMX.itp topology
#include "mobley_6358463_GMX.itp"

; Ligand position restraints
#ifdef POSRES_LIG
#include "posre_mobley_6358463.itp"
#endif

[ system ]
 mobley_6358463

[ molecules ]
; Compound        nmols
 mobley_6358463   1     
