%VERSION  VERSION_STAMP = V0001.000  DATE = 05/20/26  23:51:12                  
%FLAG TITLE                                                                     
%FORMAT(20a4)                                                                   
m_bis_trifluoromethyl__benzene                                                  
%FLAG POINTERS                                                                  
%FORMAT(10I8)                                                                   
      18       4       4      14       8      22      17      25       0       0
      85       1      14      22      25       4       5       3       4       0
       0       0       0       0       0       0       0       0      18       0
       0
%FLAG ATOM_NAME                                                                 
%FORMAT(20a4)                                                                   
C1  C2  C3  C4  C5  C6  C7  C8  F1  F2  F3  F4  F5  F6  H1  H2  H3  H4  
%FLAG CHARGE                                                                    
%FORMAT(5E16.8)                                                                 
 -1.93156380E+00 -1.93156380E+00 -1.69467390E+00 -1.69467390E+00 -2.15569809E+00
 -2.15569809E+00  1.24676977E+01  1.24676977E+01 -4.13586076E+00 -4.13586076E+00
 -4.13586076E+00 -4.13586076E+00 -4.13586076E+00 -4.13586076E+00  2.73334500E+00
  2.73334500E+00  2.95201260E+00  2.95201260E+00
%FLAG ATOMIC_NUMBER                                                             
%FORMAT(10I8)                                                                   
       6       6       6       6       6       6       6       6       9       9
       9       9       9       9       1       1       1       1
%FLAG MASS                                                                      
%FORMAT(5E16.8)                                                                 
  1.20100000E+01  1.20100000E+01  1.20100000E+01  1.20100000E+01  1.20100000E+01
  1.20100000E+01  1.20100000E+01  1.20100000E+01  1.90000000E+01  1.90000000E+01
  1.90000000E+01  1.90000000E+01  1.90000000E+01  1.90000000E+01  1.00800000E+00
  1.00800000E+00  1.00800000E+00  1.00800000E+00
%FLAG ATOM_TYPE_INDEX                                                           
%FORMAT(10I8)                                                                   
       1       1       1       1       1       1       2       2       3       3
       3       3       3       3       4       4       4       4
%FLAG NUMBER_EXCLUDED_ATOMS                                                     
%FORMAT(10I8)                                                                   
      10       9      11      10      12      11       5       4       2       1
       1       2       1       1       2       1       1       1
%FLAG NONBONDED_PARM_INDEX                                                      
%FORMAT(10I8)                                                                   
       1       2       4       7       2       3       5       8       4       5
       6       9       7       8       9      10
%FLAG RESIDUE_LABEL                                                             
%FORMAT(20a4)                                                                   
MOL 
%FLAG RESIDUE_POINTER                                                           
%FORMAT(10I8)                                                                   
       1
%FLAG BOND_FORCE_CONSTANT                                                       
%FORMAT(5E16.8)                                                                 
  3.54250000E+02  3.60690000E+02  2.43910000E+02  3.34280000E+02
%FLAG BOND_EQUIL_VALUE                                                          
%FORMAT(5E16.8)                                                                 
  1.39860000E+00  1.08600000E+00  1.51470000E+00  1.35120000E+00
%FLAG ANGLE_FORCE_CONSTANT                                                      
%FORMAT(5E16.8)                                                                 
  6.36700000E+01  4.49000000E+01  6.07400000E+01  7.92400000E+01  1.06880000E+02
%FLAG ANGLE_EQUIL_VALUE                                                         
%FORMAT(5E16.8)                                                                 
  2.09474507E+00  2.09230160E+00  2.10888224E+00  1.95092987E+00  1.87396082E+00
%FLAG DIHEDRAL_FORCE_CONSTANT                                                   
%FORMAT(5E16.8)                                                                 
  3.62500000E+00  0.00000000E+00  1.10000000E+00
%FLAG DIHEDRAL_PERIODICITY                                                      
%FORMAT(5E16.8)                                                                 
  2.00000000E+00  2.00000000E+00  2.00000000E+00
%FLAG DIHEDRAL_PHASE                                                            
%FORMAT(5E16.8)                                                                 
  3.14159400E+00  0.00000000E+00  3.14159400E+00
%FLAG SCEE_SCALE_FACTOR                                                         
%FORMAT(5E16.8)                                                                 
  1.20000000E+00  1.20000000E+00  0.00000000E+00
%FLAG SCNB_SCALE_FACTOR                                                         
%FORMAT(5E16.8)                                                                 
  2.00000000E+00  2.00000000E+00  0.00000000E+00
%FLAG SOLTY                                                                     
%FORMAT(5E16.8)                                                                 
  0.00000000E+00  0.00000000E+00  0.00000000E+00  0.00000000E+00
%FLAG LENNARD_JONES_ACOEF                                                       
%FORMAT(5E16.8)                                                                 
  6.96551276E+05  8.43969952E+05  1.02073671E+06  3.80155513E+05  4.63627012E+05
  2.02652992E+05  7.52549148E+04  9.27554496E+04  3.86097375E+04  6.90855956E+03
%FLAG LENNARD_JONES_BCOEF                                                       
%FORMAT(5E16.8)                                                                 
  5.24668528E+02  5.90251928E+02  6.63431737E+02  3.71304925E+02  4.19082844E+02
  2.59697739E+02  1.09570372E+02  1.24325688E+02  7.51823196E+01  2.10929191E+01
%FLAG BONDS_INC_HYDROGEN                                                        
%FORMAT(10I8)                                                                   
       0      42       2       3      45       2       6      48       2       9
      51       2
%FLAG BONDS_WITHOUT_HYDROGEN                                                    
%FORMAT(10I8)                                                                   
       0       3       1       0       6       1       3       9       1       6
      12       1       9      15       1      12      15       1      12      18
       3      15      21       3      18      24       4      18      27       4
      18      30       4      21      33       4      21      36       4      21
      39       4
%FLAG ANGLES_INC_HYDROGEN                                                       
%FORMAT(10I8)                                                                   
       0       3      45       2       0       6      48       2       3       0
      42       2       3       9      51       2       6       0      42       2
       9       3      45       2      12       6      48       2      15       9
      51       2
%FLAG ANGLES_WITHOUT_HYDROGEN                                                   
%FORMAT(10I8)                                                                   
       0       3       9       1       0       6      12       1       3       0
       6       1       3       9      15       1       6      12      15       1
       6      12      18       3       9      15      12       1       9      15
      21       3      12      15      21       3      12      18      24       4
      12      18      27       4      12      18      30       4      15      12
      18       3      15      21      33       4      15      21      36       4
      15      21      39       4      24      18      27       5      24      18
      30       5      27      18      30       5      33      21      36       5
      33      21      39       5      36      21      39       5
%FLAG DIHEDRALS_INC_HYDROGEN                                                    
%FORMAT(10I8)                                                                   
       0       3       9      51       1       3       0       6      48       1
       6       0       3      45       1      42       0       3       9       1
      42       0       6      12       1      12      15       9      51       1
      15       9       3      45       1      15      12       6      48       1
      18      12       6      48       1      21      15       9      51       1
      42       0       3      45       1      42       0       6      48       1
      45       3       9      51       1      42       0      -6      -3       3
       0       9      -3     -45       3       0      12      -6     -48       3
       3      15      -9     -51       3
%FLAG DIHEDRALS_WITHOUT_HYDROGEN                                                
%FORMAT(10I8)                                                                   
       0       3       9      15       1       0       6     -12      15       1
       0       6      12      18       1       3       0       6      12       1
       3       9     -15      12       1       3       9      15      21       1
       6       0       3       9       1       6      12     -15       9       1
       6      12      15      21       1       6      12      18      24       2
       6      12      18      27       2       6      12      18      30       2
       9      15      12      18       1       9      15      21      33       2
       9      15      21      36       2       9      15      21      39       2
      12      15      21      33       2      12      15      21      36       2
      12      15      21      39       2      15      12      18      24       2
      15      12      18      27       2      15      12      18      30       2
      18      12      15      21       1       6      15     -12     -18       3
      21       9     -15     -12       3
%FLAG EXCLUDED_ATOMS_LIST                                                       
%FORMAT(10I8)                                                                   
       2       3       4       5       6       7      15      16      17      18
       3       4       5       6       8      15      16      17      18       4
       5       6       7       8       9      10      11      15      16      17
       5       6       7       8      12      13      14      15      16      18
       6       7       8       9      10      11      12      13      14      15
      17      18       7       8       9      10      11      12      13      14
      16      17      18       8       9      10      11      17      12      13
      14      18      10      11      11       0      13      14      14       0
      16      17      18       0       0
%FLAG HBOND_ACOEF                                                               
%FORMAT(5E16.8)                                                                 

%FLAG HBOND_BCOEF                                                               
%FORMAT(5E16.8)                                                                 

%FLAG HBCUT                                                                     
%FORMAT(5E16.8)                                                                 

%FLAG AMBER_ATOM_TYPE                                                           
%FORMAT(20a4)                                                                   
ca  ca  ca  ca  ca  ca  c3  c3  f   f   f   f   f   f   ha  ha  ha  ha  
%FLAG TREE_CHAIN_CLASSIFICATION                                                 
%FORMAT(20a4)                                                                   
BLA BLA BLA BLA BLA BLA BLA BLA BLA BLA BLA BLA BLA BLA BLA BLA BLA BLA 
%FLAG JOIN_ARRAY                                                                
%FORMAT(10I8)                                                                   
       0       0       0       0       0       0       0       0       0       0
       0       0       0       0       0       0       0       0
%FLAG IROTAT                                                                    
%FORMAT(10I8)                                                                   
       0       0       0       0       0       0       0       0       0       0
       0       0       0       0       0       0       0       0
%FLAG RADIUS_SET                                                                
%FORMAT(1a80)                                                                   
modified Bondi radii (mbondi)                                                   
%FLAG RADII                                                                     
%FORMAT(5E16.8)                                                                 
  1.70000000E+00  1.70000000E+00  1.70000000E+00  1.70000000E+00  1.70000000E+00
  1.70000000E+00  1.70000000E+00  1.70000000E+00  1.50000000E+00  1.50000000E+00
  1.50000000E+00  1.50000000E+00  1.50000000E+00  1.50000000E+00  1.30000000E+00
  1.30000000E+00  1.30000000E+00  1.30000000E+00
%FLAG SCREEN                                                                    
%FORMAT(5E16.8)                                                                 
  7.20000000E-01  7.20000000E-01  7.20000000E-01  7.20000000E-01  7.20000000E-01
  7.20000000E-01  7.20000000E-01  7.20000000E-01  8.80000000E-01  8.80000000E-01
  8.80000000E-01  8.80000000E-01  8.80000000E-01  8.80000000E-01  8.50000000E-01
  8.50000000E-01  8.50000000E-01  8.50000000E-01
%FLAG IPOL                                                                      
%FORMAT(1I8)                                                                    
       0
