; mobley_6358463_GMX_OPLS.itp created by acpype (v: 2023.10.27) on Wed May 20 23:51:10 2026

; For OPLS atomtypes manual fine tuning
; AC_at:OPLS_at:OPLScode: Possible_Alternatives (see ffoplsaa.atp and ffoplsaanb.itp)
; ca:CA:opls_145: ['166', '501', '502']
; c3:CT:opls_135: ['136', '137', '149', '157', '158', '206', '209', '210', '223B', '224B', '245', '246', '274', '283', '284', '285', '292', '292B', '293B', '296', '307', '308', '505']
; f:x:opls_x: []
; ha:HA:opls_146: []

[ moleculetype ]
;name            nrexcl
 mobley_6358463   3

[ atoms ]
;   nr  type  resi  res  atom  cgnr     charge      mass       ; qtot   bond_type
     1 opls_145     1   MOL    C1    1    -0.106000     12.01100 ; qtot -0.106  CA  
     2 opls_145     1   MOL    C2    2    -0.106000     12.01100 ; qtot -0.212  CA  
     3 opls_145     1   MOL    C3    3    -0.093000     12.01100 ; qtot -0.305  CA  
     4 opls_145     1   MOL    C4    4    -0.093000     12.01100 ; qtot -0.398  CA  
     5 opls_145     1   MOL    C5    5    -0.118300     12.01100 ; qtot -0.516  CA  
     6 opls_145     1   MOL    C6    6    -0.118300     12.01100 ; qtot -0.635  CA  
     7 opls_135     1   MOL    C7    7     0.686201     12.01100 ; qtot  0.052  CT  
     8 opls_135     1   MOL    C8    8     0.686201     12.01100 ; qtot  0.738  CT  
     9 opls_x     1   MOL    F1    9    -0.226967      0.00000 ; qtot  0.511  x   
    10 opls_x     1   MOL    F2   10    -0.226967      0.00000 ; qtot  0.284  x   
    11 opls_x     1   MOL    F3   11    -0.226967      0.00000 ; qtot  0.057  x   
    12 opls_x     1   MOL    F4   12    -0.226967      0.00000 ; qtot -0.170  x   
    13 opls_x     1   MOL    F5   13    -0.226967      0.00000 ; qtot -0.397  x   
    14 opls_x     1   MOL    F6   14    -0.226967      0.00000 ; qtot -0.624  x   
    15 opls_146     1   MOL    H1   15     0.150000      1.00800 ; qtot -0.474  HA  
    16 opls_146     1   MOL    H2   16     0.150000      1.00800 ; qtot -0.324  HA  
    17 opls_146     1   MOL    H3   17     0.162000      1.00800 ; qtot -0.162  HA  
    18 opls_146     1   MOL    H4   18     0.162000      1.00800 ; qtot -0.000  HA  

[ bonds ]
;   ai     aj funct   r             k
     1      2   1 ;    1.3986e-01    2.9644e+05 ;     C1 - C2         CA - CA    
     1      3   1 ;    1.3986e-01    2.9644e+05 ;     C1 - C3         CA - CA    
     1     15   1 ;    1.0860e-01    3.0183e+05 ;     C1 - H1         CA - HA    
     2      4   1 ;    1.3986e-01    2.9644e+05 ;     C2 - C4         CA - CA    
     2     16   1 ;    1.0860e-01    3.0183e+05 ;     C2 - H2         CA - HA    
     3      5   1 ;    1.3986e-01    2.9644e+05 ;     C3 - C5         CA - CA    
     3     17   1 ;    1.0860e-01    3.0183e+05 ;     C3 - H3         CA - HA    
     4      6   1 ;    1.3986e-01    2.9644e+05 ;     C4 - C6         CA - CA    
     4     18   1 ;    1.0860e-01    3.0183e+05 ;     C4 - H4         CA - HA    
     5      6   1 ;    1.3986e-01    2.9644e+05 ;     C5 - C6         CA - CA    
     5      7   1 ;    1.5147e-01    2.0410e+05 ;     C5 - C7         CA - CT    
     6      8   1 ;    1.5147e-01    2.0410e+05 ;     C6 - C8         CA - CT    
     7      9   1 ;    1.3512e-01    2.7973e+05 ;     C7 - F1         CT - x     
     7     10   1 ;    1.3512e-01    2.7973e+05 ;     C7 - F2         CT - x     
     7     11   1 ;    1.3512e-01    2.7973e+05 ;     C7 - F3         CT - x     
     8     12   1 ;    1.3512e-01    2.7973e+05 ;     C8 - F4         CT - x     
     8     13   1 ;    1.3512e-01    2.7973e+05 ;     C8 - F5         CT - x     
     8     14   1 ;    1.3512e-01    2.7973e+05 ;     C8 - F6         CT - x     

[ pairs ]
;   ai     aj    funct
     1      6      1 ;     C1 - C6    
     1      7      1 ;     C1 - C7    
     1     18      1 ;     C1 - H4    
     2      5      1 ;     C2 - C5    
     2      8      1 ;     C2 - C8    
     2     17      1 ;     C2 - H3    
     3      4      1 ;     C3 - C4    
     3      8      1 ;     C3 - C8    
     3      9      1 ;     C3 - F1    
     3     10      1 ;     C3 - F2    
     3     11      1 ;     C3 - F3    
     3     16      1 ;     C3 - H2    
     4      7      1 ;     C4 - C7    
     4     12      1 ;     C4 - F4    
     4     13      1 ;     C4 - F5    
     4     14      1 ;     C4 - F6    
     5     12      1 ;     C5 - F4    
     5     13      1 ;     C5 - F5    
     5     14      1 ;     C5 - F6    
     5     18      1 ;     C5 - H4    
     6      9      1 ;     C6 - F1    
     6     10      1 ;     C6 - F2    
     6     11      1 ;     C6 - F3    
     6     16      1 ;     C6 - H2    
     6     17      1 ;     C6 - H3    
     7      8      1 ;     C7 - C8    
     7     17      1 ;     C7 - H3    
     8     18      1 ;     C8 - H4    
    15      4      1 ;     H1 - C4    
    15      5      1 ;     H1 - C5    
    15     16      1 ;     H1 - H2    
    15     17      1 ;     H1 - H3    
    16     18      1 ;     H2 - H4    

[ angles ]
;   ai     aj     ak    funct   theta         cth
     1      2      4      1 ;    1.2002e+02    5.3279e+02 ;     C1 - C2   - C4       CA -   CA - CA  
     1      2     16      1 ;    1.1988e+02    3.7572e+02 ;     C1 - C2   - H2       CA -   CA - HA  
     1      3      5      1 ;    1.2002e+02    5.3279e+02 ;     C1 - C3   - C5       CA -   CA - CA  
     1      3     17      1 ;    1.1988e+02    3.7572e+02 ;     C1 - C3   - H3       CA -   CA - HA  
     2      1      3      1 ;    1.2002e+02    5.3279e+02 ;     C2 - C1   - C3       CA -   CA - CA  
     2      1     15      1 ;    1.1988e+02    3.7572e+02 ;     C2 - C1   - H1       CA -   CA - HA  
     2      4      6      1 ;    1.2002e+02    5.3279e+02 ;     C2 - C4   - C6       CA -   CA - CA  
     2      4     18      1 ;    1.1988e+02    3.7572e+02 ;     C2 - C4   - H4       CA -   CA - HA  
     3      1     15      1 ;    1.1988e+02    3.7572e+02 ;     C3 - C1   - H1       CA -   CA - HA  
     3      5      6      1 ;    1.2002e+02    5.3279e+02 ;     C3 - C5   - C6       CA -   CA - CA  
     3      5      7      1 ;    1.2083e+02    5.0827e+02 ;     C3 - C5   - C7       CA -   CA - CT  
     4      2     16      1 ;    1.1988e+02    3.7572e+02 ;     C4 - C2   - H2       CA -   CA - HA  
     4      6      5      1 ;    1.2002e+02    5.3279e+02 ;     C4 - C6   - C5       CA -   CA - CA  
     4      6      8      1 ;    1.2083e+02    5.0827e+02 ;     C4 - C6   - C8       CA -   CA - CT  
     5      3     17      1 ;    1.1988e+02    3.7572e+02 ;     C5 - C3   - H3       CA -   CA - HA  
     5      6      8      1 ;    1.2083e+02    5.0827e+02 ;     C5 - C6   - C8       CA -   CA - CT  
     5      7      9      1 ;    1.1178e+02    6.6308e+02 ;     C5 - C7   - F1       CA -   CT - x   
     5      7     10      1 ;    1.1178e+02    6.6308e+02 ;     C5 - C7   - F2       CA -   CT - x   
     5      7     11      1 ;    1.1178e+02    6.6308e+02 ;     C5 - C7   - F3       CA -   CT - x   
     6      4     18      1 ;    1.1988e+02    3.7572e+02 ;     C6 - C4   - H4       CA -   CA - HA  
     6      5      7      1 ;    1.2083e+02    5.0827e+02 ;     C6 - C5   - C7       CA -   CA - CT  
     6      8     12      1 ;    1.1178e+02    6.6308e+02 ;     C6 - C8   - F4       CA -   CT - x   
     6      8     13      1 ;    1.1178e+02    6.6308e+02 ;     C6 - C8   - F5       CA -   CT - x   
     6      8     14      1 ;    1.1178e+02    6.6308e+02 ;     C6 - C8   - F6       CA -   CT - x   
     9      7     10      1 ;    1.0737e+02    8.9437e+02 ;     F1 - C7   - F2        x -   CT - x   
     9      7     11      1 ;    1.0737e+02    8.9437e+02 ;     F1 - C7   - F3        x -   CT - x   
    10      7     11      1 ;    1.0737e+02    8.9437e+02 ;     F2 - C7   - F3        x -   CT - x   
    12      8     13      1 ;    1.0737e+02    8.9437e+02 ;     F4 - C8   - F5        x -   CT - x   
    12      8     14      1 ;    1.0737e+02    8.9437e+02 ;     F4 - C8   - F6        x -   CT - x   
    13      8     14      1 ;    1.0737e+02    8.9437e+02 ;     F5 - C8   - F6        x -   CT - x   

[ dihedrals ] ; propers
; for gromacs 4.5 or higher, using funct 9
;    i      j      k      l   func   phase     kd      pn
     1      2      4      6      9 ;   180.00  15.16700   2 ;     C1-    C2-    C4-    C6
     1      2      4     18      9 ;   180.00  15.16700   2 ;     C1-    C2-    C4-    H4
     1      3      5      6      9 ;   180.00  15.16700   2 ;     C1-    C3-    C5-    C6
     1      3      5      7      9 ;   180.00  15.16700   2 ;     C1-    C3-    C5-    C7
     2      1      3      5      9 ;   180.00  15.16700   2 ;     C2-    C1-    C3-    C5
     2      1      3     17      9 ;   180.00  15.16700   2 ;     C2-    C1-    C3-    H3
     2      4      6      5      9 ;   180.00  15.16700   2 ;     C2-    C4-    C6-    C5
     2      4      6      8      9 ;   180.00  15.16700   2 ;     C2-    C4-    C6-    C8
     3      1      2      4      9 ;   180.00  15.16700   2 ;     C3-    C1-    C2-    C4
     3      1      2     16      9 ;   180.00  15.16700   2 ;     C3-    C1-    C2-    H2
     3      5      6      4      9 ;   180.00  15.16700   2 ;     C3-    C5-    C6-    C4
     3      5      6      8      9 ;   180.00  15.16700   2 ;     C3-    C5-    C6-    C8
     3      5      7      9      9 ;     0.00   0.00000   0 ;     C3-    C5-    C7-    F1
     3      5      7     10      9 ;     0.00   0.00000   0 ;     C3-    C5-    C7-    F2
     3      5      7     11      9 ;     0.00   0.00000   0 ;     C3-    C5-    C7-    F3
     4      6      5      7      9 ;   180.00  15.16700   2 ;     C4-    C6-    C5-    C7
     4      6      8     12      9 ;     0.00   0.00000   0 ;     C4-    C6-    C8-    F4
     4      6      8     13      9 ;     0.00   0.00000   0 ;     C4-    C6-    C8-    F5
     4      6      8     14      9 ;     0.00   0.00000   0 ;     C4-    C6-    C8-    F6
     5      6      4     18      9 ;   180.00  15.16700   2 ;     C5-    C6-    C4-    H4
     5      6      8     12      9 ;     0.00   0.00000   0 ;     C5-    C6-    C8-    F4
     5      6      8     13      9 ;     0.00   0.00000   0 ;     C5-    C6-    C8-    F5
     5      6      8     14      9 ;     0.00   0.00000   0 ;     C5-    C6-    C8-    F6
     6      4      2     16      9 ;   180.00  15.16700   2 ;     C6-    C4-    C2-    H2
     6      5      3     17      9 ;   180.00  15.16700   2 ;     C6-    C5-    C3-    H3
     6      5      7      9      9 ;     0.00   0.00000   0 ;     C6-    C5-    C7-    F1
     6      5      7     10      9 ;     0.00   0.00000   0 ;     C6-    C5-    C7-    F2
     6      5      7     11      9 ;     0.00   0.00000   0 ;     C6-    C5-    C7-    F3
     7      5      3     17      9 ;   180.00  15.16700   2 ;     C7-    C5-    C3-    H3
     7      5      6      8      9 ;   180.00  15.16700   2 ;     C7-    C5-    C6-    C8
     8      6      4     18      9 ;   180.00  15.16700   2 ;     C8-    C6-    C4-    H4
    15      1      2      4      9 ;   180.00  15.16700   2 ;     H1-    C1-    C2-    C4
    15      1      2     16      9 ;   180.00  15.16700   2 ;     H1-    C1-    C2-    H2
    15      1      3      5      9 ;   180.00  15.16700   2 ;     H1-    C1-    C3-    C5
    15      1      3     17      9 ;   180.00  15.16700   2 ;     H1-    C1-    C3-    H3
    16      2      4     18      9 ;   180.00  15.16700   2 ;     H2-    C2-    C4-    H4

[ dihedrals ] ; impropers
; treated as propers in GROMACS to use correct AMBER analytical function
;    i      j      k      l   func   phase     kd      pn
     1      4      2     16      4 ;   180.00   4.60240   2 ;     C1-    C4-    C2-    H2
     1      5      3     17      4 ;   180.00   4.60240   2 ;     C1-    C5-    C3-    H3
     2      6      4     18      4 ;   180.00   4.60240   2 ;     C2-    C6-    C4-    H4
     3      6      5      7      4 ;   180.00   4.60240   2 ;     C3-    C6-    C5-    C7
     8      4      6      5      4 ;   180.00   4.60240   2 ;     C8-    C4-    C6-    C5
    15      1      3      2      4 ;   180.00   4.60240   2 ;     H1-    C1-    C3-    C2
