m_bis_trifluoromethyl__benzene
    18
   1.8850000  -1.0380000  -0.1090000   0.8180000  -0.4410000   0.5630000
   2.9350000  -1.6040000   0.6140000   0.8010000  -0.4100000   1.9570000
   2.9180000  -1.5730000   2.0080000   1.8510000  -0.9770000   2.6800000
   4.0540000  -2.1850000   2.7600000   1.8110000  -0.9320000   4.1720000
   5.0140000  -2.7240000   1.9540000   4.7150000  -1.3010000   3.5620000
   3.6530000  -3.1980000   3.5820000   0.7000000  -0.3140000   4.6700000
   1.8240000  -2.1670000   4.7550000   2.8740000  -0.2630000   4.7040000
   1.8970000  -1.0620000  -1.1940000  -0.0000000  -0.0010000  -0.0010000
   3.7610000  -2.0670000   0.0810000  -0.0350000   0.0570000   2.4710000
