mobley_6358463_GMX.gro created by acpype (v: 2023.10.27) on Wed May 20 23:51:10 2026
 18
    1  MOL   C1    1   0.189  -0.104  -0.011
    1  MOL   C2    2   0.082  -0.044   0.056
    1  MOL   C3    3   0.294  -0.160   0.061
    1  MOL   C4    4   0.080  -0.041   0.196
    1  MOL   C5    5   0.292  -0.157   0.201
    1  MOL   C6    6   0.185  -0.098   0.268
    1  MOL   C7    7   0.405  -0.219   0.276
    1  MOL   C8    8   0.181  -0.093   0.417
    1  MOL   F1    9   0.501  -0.272   0.195
    1  MOL   F2   10   0.472  -0.130   0.356
    1  MOL   F3   11   0.365  -0.320   0.358
    1  MOL   F4   12   0.070  -0.031   0.467
    1  MOL   F5   13   0.182  -0.217   0.476
    1  MOL   F6   14   0.287  -0.026   0.470
    1  MOL   H1   15   0.190  -0.106  -0.119
    1  MOL   H2   16  -0.000  -0.000  -0.000
    1  MOL   H3   17   0.376  -0.207   0.008
    1  MOL   H4   18  -0.004   0.006   0.247
   10.09800     6.51000    11.89800
