mobley_7176248_GMX.gro created by acpype (v: 2023.10.27) on Wed May 20 23:57:05 2026
12522
    1MOL     C1    1   2.698   2.290   2.588
    1MOL     C2    2   2.481   2.234   2.503
    1MOL     C3    3   2.604   2.192   2.554
    1MOL     C4    4   2.669   2.427   2.571
    1MOL     C5    5   2.455   2.372   2.487
    1MOL     C6    6   2.546   2.474   2.521
    1MOL     C7    7   2.392   2.736   2.847
    1MOL     C8    8   2.521   2.818   2.185
    1MOL     C9    9   2.402   2.643   2.727
    1MOL    C10   10   2.464   2.756   2.311
    1MOL    C11   11   2.504   2.694   2.625
    1MOL    C12   12   2.569   2.672   2.384
    1MOL    C13   13   2.633   2.045   2.575
    1MOL     N1   14   2.509   2.608   2.504
    1MOL     N2   15   2.776   2.518   2.605
    1MOL     N3   16   2.325   2.406   2.432
    1MOL     O1   17   2.838   2.570   2.511
    1MOL     O2   18   2.800   2.533   2.725
    1MOL     O3   19   2.230   2.410   2.511
    1MOL     O4   20   2.319   2.421   2.309
    1MOL     F1   21   2.765   2.015   2.558
    1MOL     F2   22   2.601   2.004   2.701
    1MOL     F3   23   2.565   1.965   2.490
    1MOL     H1   24   2.795   2.259   2.629
    1MOL     H2   25   2.405   2.161   2.476
    1MOL     H3   26   2.489   2.744   2.898
    1MOL     H4   27   2.360   2.836   2.816
    1MOL     H5   28   2.319   2.698   2.918
    1MOL     H6   29   2.605   2.884   2.208
    1MOL     H7   30   2.556   2.741   2.115
    1MOL     H8   31   2.444   2.877   2.134
    1MOL     H9   32   2.304   2.634   2.680
    1MOL    H10   33   2.430   2.543   2.762
    1MOL    H11   34   2.378   2.693   2.284
    1MOL    H12   35   2.426   2.835   2.376
    1MOL    H13   36   2.474   2.795   2.595
    1MOL    H14   37   2.603   2.704   2.670
    1MOL    H15   38   2.607   2.596   2.315
    1MOL    H16   39   2.653   2.735   2.414
    2SOL     OW   40   0.230   0.628   0.113
    2SOL    HW1   41   0.137   0.626   0.150
    2SOL    HW2   42   0.231   0.589   0.021
    3SOL     OW   43   0.225   0.275   0.996
    3SOL    HW1   44   0.260   0.258   1.088
    3SOL    HW2   45   0.137   0.230   0.984
    4SOL     OW   46   0.019   0.368   0.647
    4SOL    HW1   47  -0.063   0.411   0.686
    4SOL    HW2   48  -0.009   0.295   0.584
    5SOL     OW   49   0.569   1.275   1.165
    5SOL    HW1   50   0.476   1.268   1.128
    5SOL    HW2   51   0.580   1.364   1.209
    6SOL     OW   52   1.555   1.511   0.703
    6SOL    HW1   53   1.498   1.495   0.784
    6SOL    HW2   54   1.496   1.521   0.623
    7SOL     OW   55   1.135   0.703   0.717
    7SOL    HW1   56   1.192   0.781   0.692
    7SOL    HW2   57   1.075   0.729   0.793
    8SOL     OW   58   1.755   0.607   0.231
    8SOL    HW1   59   1.743   0.594   0.132
    8SOL    HW2   60   1.725   0.526   0.280
    9SOL     OW   61   0.768   1.144   1.023
    9SOL    HW1   62   0.690   1.161   1.083
    9SOL    HW2   63   0.802   1.231   0.987
   10SOL     OW   64   0.850   0.798   1.823
   10SOL    HW1   65   0.846   0.874   1.888
   10SOL    HW2   66   0.872   0.834   1.732
   11SOL     OW   67   0.685   1.012   0.665
   11SOL    HW1   68   0.754   0.996   0.735
   11SOL    HW2   69   0.612   1.069   0.703
   12SOL     OW   70   0.686   1.161   1.803
   12SOL    HW1   71   0.746   1.240   1.817
   12SOL    HW2   72   0.600   1.192   1.762
   13SOL     OW   73   0.335   1.435   1.061
   13SOL    HW1   74   0.257   1.404   1.008
   13SOL    HW2   75   0.393   1.493   1.004
   14SOL     OW   76   1.460   1.505   1.339
   14SOL    HW1   77   1.484   1.599   1.365
   14SOL    HW2   78   1.444   1.451   1.421
   15SOL     OW   79   0.438   0.392   1.499
   15SOL    HW1   80   0.520   0.336   1.508
   15SOL    HW2   81   0.357   0.334   1.503
   16SOL     OW   82   1.603   0.447   0.737
   16SOL    HW1   83   1.529   0.493   0.687
   16SOL    HW2   84   1.654   0.515   0.790
   17SOL     OW   85   0.231   1.713   0.483
   17SOL    HW1   86   0.265   1.790   0.537
   17SOL    HW2   87   0.275   1.713   0.393
   18SOL     OW   88   1.127   1.341   1.690
   18SOL    HW1   89   1.174   1.341   1.778
   18SOL    HW2   90   1.079   1.254   1.679
   19SOL     OW   91   0.230   1.434   0.538
   19SOL    HW1   92   0.204   1.530   0.538
   19SOL    HW2   93   0.159   1.380   0.583
   20SOL     OW   94   0.240   1.091   0.886
   20SOL    HW1   95   0.254   1.007   0.938
   20SOL    HW2   96   0.185   1.155   0.941
   21SOL     OW   97   0.620   1.786   1.439
   21SOL    HW1   98   0.528   1.769   1.474
   21SOL    HW2   99   0.648   1.878   1.465
   22SOL     OW  100   0.606   0.964   0.123
   22SOL    HW1  101   0.613   1.048   0.069
   22SOL    HW2  102   0.652   0.977   0.211
   23SOL     OW  103   1.594   0.114   1.480
   23SOL    HW1  104   1.576   0.181   1.408
   23SOL    HW2  105   1.591   0.160   1.569
   24SOL     OW  106   0.122   0.643   0.563
   24SOL    HW1  107   0.077   0.555   0.580
   24SOL    HW2  108   0.121   0.697   0.647
   25SOL     OW  109   1.842   1.767   0.359
   25SOL    HW1  110   1.896   1.738   0.439
   25SOL    HW2  111   1.872   1.857   0.330
   26SOL     OW  112   0.027   1.596   0.117
   26SOL    HW1  113   0.008   1.500   0.138
   26SOL    HW2  114  -0.006   1.654   0.192
   27SOL     OW  115   1.689   0.922   0.612
   27SOL    HW1  116   1.784   0.893   0.620
   27SOL    HW2  117   1.681   0.987   0.537
   28SOL     OW  118   1.641   1.108   0.432
   28SOL    HW1  119   1.727   1.110   0.380
   28SOL    HW2  120   1.655   1.155   0.520
   29SOL     OW  121   0.113   0.737   1.597
   29SOL    HW1  122   0.201   0.724   1.642
   29SOL    HW2  123   0.100   0.834   1.575
   30SOL     OW  124   0.613   1.365   0.726
   30SOL    HW1  125   0.564   1.278   0.735
   30SOL    HW2  126   0.590   1.408   0.639
   31SOL     OW  127   1.293   1.228   1.423
   31SOL    HW1  128   1.330   1.155   1.365
   31SOL    HW2  129   1.345   1.233   1.508
   32SOL     OW  130   0.809   0.004   0.502
   32SOL    HW1  131   0.849   0.095   0.493
   32SOL    HW2  132   0.709   0.012   0.508
   33SOL     OW  133   0.197   0.976   1.264
   33SOL    HW1  134   0.286   0.931   1.250
   33SOL    HW2  135   0.124   0.911   1.245
   34SOL     OW  136   1.525   0.999   0.190
   34SOL    HW1  137   1.462   0.923   0.203
   34SOL    HW2  138   1.573   1.017   0.276
   35SOL     OW  139   1.187   1.792   1.616
   35SOL    HW1  140   1.211   1.852   1.540
   35SOL    HW2  141   1.194   1.697   1.586
   36SOL     OW  142   0.317   0.251   1.801
   36SOL    HW1  143   0.388   0.322   1.807
   36SOL    HW2  144   0.229   0.290   1.829
   37SOL     OW  145   1.466   1.417   0.953
   37SOL    HW1  146   1.407   1.423   1.033
   37SOL    HW2  147   1.451   1.329   0.907
   38SOL     OW  148   1.667   1.714   0.572
   38SOL    HW1  149   1.626   1.691   0.484
   38SOL    HW2  150   1.649   1.640   0.637
   39SOL     OW  151   0.598   0.729   0.270
   39SOL    HW1  152   0.622   0.798   0.202
   39SOL    HW2  153   0.520   0.762   0.324
   40SOL     OW  154   1.281   0.345   0.944
   40SOL    HW1  155   1.195   0.295   0.931
   40SOL    HW2  156   1.343   0.291   1.000
   41SOL     OW  157   1.576   1.662   0.307
   41SOL    HW1  158   1.665   1.708   0.310
   41SOL    HW2  159   1.555   1.638   0.212
   42SOL     OW  160   0.807   0.605   1.465
   42SOL    HW1  161   0.760   0.602   1.554
   42SOL    HW2  162   0.756   0.550   1.399
   43SOL     OW  163   1.394   0.469   1.674
   43SOL    HW1  164   1.374   0.512   1.762
   43SOL    HW2  165   1.472   0.407   1.683
   44SOL     OW  166   0.973   0.890   1.572
   44SOL    HW1  167   1.019   0.806   1.543
   44SOL    HW2  168   0.917   0.924   1.497
   45SOL     OW  169   0.991   0.410   1.242
   45SOL    HW1  170   0.914   0.444   1.296
   45SOL    HW2  171   0.957   0.359   1.163
   46SOL     OW  172   1.041   0.701   0.429
   46SOL    HW1  173   1.067   0.697   0.525
   46SOL    HW2  174   0.956   0.650   0.415
   47SOL     OW  175   0.076   0.811   0.789
   47SOL    HW1  176   0.175   0.799   0.798
   47SOL    HW2  177   0.052   0.906   0.810
   48SOL     OW  178   0.130   1.821   1.571
   48SOL    HW1  179   0.120   1.806   1.670
   48SOL    HW2  180   0.044   1.857   1.535
   49SOL     OW  181   0.865   0.348   0.195
   49SOL    HW1  182   0.924   0.411   0.146
   49SOL    HW2  183   0.884   0.254   0.166
   50SOL     OW  184   1.719   0.585   1.831
   50SOL    HW1  185   1.693   0.674   1.795
   50SOL    HW2  186   1.717   0.517   1.758
   51SOL     OW  187   1.362   1.144   0.545
   51SOL    HW1  188   1.445   1.115   0.497
   51SOL    HW2  189   1.313   1.211   0.489
   52SOL     OW  190   0.550   0.196   0.885
   52SOL    HW1  191   0.545   0.191   0.985
   52SOL    HW2  192   0.552   0.292   0.856
   53SOL     OW  193   1.008   1.456   0.477
   53SOL    HW1  194   0.962   1.528   0.425
   53SOL    HW2  195   1.004   1.476   0.575
   54SOL     OW  196   0.351   1.801   0.853
   54SOL    HW1  197   0.401   1.715   0.859
   54SOL    HW2  198   0.416   1.878   0.850
   55SOL     OW  199   1.795   1.066   0.873
   55SOL    HW1  200   1.733   1.051   0.797
   55SOL    HW2  201   1.743   1.077   0.958
   56SOL     OW  202   1.227   1.550   1.506
   56SOL    HW1  203   1.233   1.473   1.570
   56SOL    HW2  204   1.175   1.524   1.426
   57SOL     OW  205   0.321   0.943   0.242
   57SOL    HW1  206   0.403   0.982   0.200
   57SOL    HW2  207   0.294   0.861   0.193
   58SOL     OW  208   1.458   0.735   0.728
   58SOL    HW1  209   1.453   0.670   0.803
   58SOL    HW2  210   1.538   0.794   0.741
   59SOL     OW  211   0.461   1.266   1.727
   59SOL    HW1  212   0.411   1.267   1.641
   59SOL    HW2  213   0.398   1.248   1.803
   60SOL     OW  214   1.111   1.776   0.237
   60SOL    HW1  215   1.051   1.714   0.287
   60SOL    HW2  216   1.142   1.732   0.152
   61SOL     OW  217   0.202   0.285   1.498
   61SOL    HW1  218   0.122   0.345   1.485
   61SOL    HW2  219   0.192   0.236   1.584
   62SOL     OW  220   1.632   1.377   0.081
   62SOL    HW1  221   1.600   1.471   0.071
   62SOL    HW2  222   1.556   1.314   0.069
   63SOL     OW  223   0.464   1.743   0.323
   63SOL    HW1  224   0.497   1.782   0.409
   63SOL    HW2  225   0.540   1.736   0.258
   64SOL     OW  226   1.400   0.107   0.426
   64SOL    HW1  227   1.376   0.070   0.336
   64SOL    HW2  228   1.499   0.123   0.430
   65SOL     OW  229   0.249   1.785   1.241
   65SOL    HW1  230   0.306   1.720   1.291
   65SOL    HW2  231   0.233   1.752   1.148
   66SOL     OW  232   0.940   1.698   0.904
   66SOL    HW1  233   1.020   1.641   0.925
   66SOL    HW2  234   0.891   1.658   0.827
   67SOL     OW  235   0.382   0.700   0.480
   67SOL    HW1  236   0.427   0.610   0.477
   67SOL    HW2  237   0.288   0.689   0.513
   68SOL     OW  238   1.547   0.222   1.729
   68SOL    HW1  239   1.542   0.259   1.821
   68SOL    HW2  240   1.475   0.153   1.717
   69SOL     OW  241   0.614   0.122   0.117
   69SOL    HW1  242   0.712   0.100   0.124
   69SOL    HW2  243   0.583   0.105   0.024
   70SOL     OW  244   0.781   0.264   1.749
   70SOL    HW1  245   0.848   0.203   1.792
   70SOL    HW2  246   0.708   0.283   1.814
   71SOL     OW  247   0.888   1.514   1.195
   71SOL    HW1  248   0.865   1.489   1.101
   71SOL    HW2  249   0.949   1.445   1.234
   72SOL     OW  250   1.351   0.590   1.433
   72SOL    HW1  251   1.379   0.547   1.518
   72SOL    HW2  252   1.376   0.686   1.434
   73SOL     OW  253   0.803   1.402   0.924
   73SOL    HW1  254   0.893   1.416   0.882
   73SOL    HW2  255   0.732   1.404   0.853
   74SOL     OW  256   0.922   0.503   0.899
   74SOL    HW1  257   0.897   0.494   0.803
   74SOL    HW2  258   0.970   0.421   0.930
   75SOL     OW  259   0.539   0.064   0.512
   75SOL    HW1  260   0.458   0.065   0.570
   75SOL    HW2  261   0.542   0.147   0.457
   76SOL     OW  262   1.434   1.188   0.041
   76SOL    HW1  263   1.466   1.112   0.098
   76SOL    HW2  264   1.342   1.215   0.071
   77SOL     OW  265   0.297   0.035   0.171
   77SOL    HW1  266   0.346   0.119   0.150
   77SOL    HW2  267   0.359  -0.030   0.216
   78SOL     OW  268   0.935   0.236   0.480
   78SOL    HW1  269   0.887   0.277   0.402
   78SOL    HW2  270   1.034   0.234   0.461
   79SOL     OW  271   1.076   0.683   1.464
   79SOL    HW1  272   0.996   0.622   1.467
   79SOL    HW2  273   1.157   0.630   1.440
   80SOL     OW  274   1.227   1.570   0.793
   80SOL    HW1  275   1.248   1.644   0.728
   80SOL    HW2  276   1.295   1.570   0.866
   81SOL     OW  277   0.459   1.152   0.741
   81SOL    HW1  278   0.388   1.125   0.806
   81SOL    HW2  279   0.433   1.124   0.648
   82SOL     OW  280   1.271   1.797   0.591
   82SOL    HW1  281   1.315   1.861   0.527
   82SOL    HW2  282   1.221   1.849   0.661
   83SOL     OW  283   1.032   0.549   0.016
   83SOL    HW1  284   0.991   0.631  -0.023
   83SOL    HW2  285   1.096   0.575   0.089
   84SOL     OW  286   0.078   0.556   1.386
   84SOL    HW1  287   0.170   0.555   1.345
   84SOL    HW2  288   0.072   0.630   1.453
   85SOL     OW  289   0.561   0.222   1.147
   85SOL    HW1  290   0.599   0.138   1.184
   85SOL    HW2  291   0.473   0.241   1.191
   86SOL     OW  292   0.866   0.454   0.642
   86SOL    HW1  293   0.834   0.526   0.580
   86SOL    HW2  294   0.890   0.373   0.589
   87SOL     OW  295   1.017   0.039   0.753
   87SOL    HW1  296   0.945   0.044   0.684
   87SOL    HW2  297   0.993  -0.030   0.822
   88SOL     OW  298   1.429   1.173   0.867
   88SOL    HW1  299   1.374   1.089   0.860
   88SOL    HW2  300   1.455   1.202   0.775
   89SOL     OW  301   1.466   0.590   0.992
   89SOL    HW1  302   1.436   0.495   0.999
   89SOL    HW2  303   1.539   0.606   1.058
   90SOL     OW  304   1.857   0.833   0.377
   90SOL    HW1  305   1.899   0.769   0.441
   90SOL    HW2  306   1.819   0.782   0.299
   91SOL     OW  307   0.488   1.385   0.174
   91SOL    HW1  308   0.401   1.370   0.221
   91SOL    HW2  309   0.471   1.411   0.079
   92SOL     OW  310   1.664   1.280   0.657
   92SOL    HW1  311   1.763   1.288   0.671
   92SOL    HW2  312   1.619   1.364   0.688
   93SOL     OW  313   1.390   0.575   0.078
   93SOL    HW1  314   1.336   0.554   0.159
   93SOL    HW2  315   1.481   0.534   0.087
   94SOL     OW  316   0.527   0.256   0.328
   94SOL    HW1  317   0.554   0.197   0.253
   94SOL    HW2  318   0.527   0.351   0.297
   95SOL     OW  319   1.754   1.223   1.588
   95SOL    HW1  320   1.845   1.184   1.575
   95SOL    HW2  321   1.762   1.319   1.612
   96SOL     OW  322   1.064   1.347   1.340
   96SOL    HW1  323   0.984   1.324   1.395
   96SOL    HW2  324   1.147   1.321   1.389
   97SOL     OW  325   1.592   1.629   1.625
   97SOL    HW1  326   1.619   1.663   1.535
   97SOL    HW2  327   1.671   1.591   1.671
   98SOL     OW  328   1.111   1.195   1.100
   98SOL    HW1  329   1.071   1.239   1.181
   98SOL    HW2  330   1.070   1.232   1.017
   99SOL     OW  331   1.638   1.099   1.079
   99SOL    HW1  332   1.643   1.180   1.138
   99SOL    HW2  333   1.552   1.101   1.028
  100SOL     OW  334   0.915   0.089   1.402
  100SOL    HW1  335   0.940   0.069   1.307
  100SOL    HW2  336   0.987   0.145   1.444
  101SOL     OW  337   0.980   1.116   1.719
  101SOL    HW1  338   0.881   1.122   1.729
  101SOL    HW2  339   1.003   1.036   1.663
  102SOL     OW  340   0.705   1.050   0.368
  102SOL    HW1  341   0.691   1.057   0.467
  102SOL    HW2  342   0.789   0.999   0.350
  103SOL     OW  343   0.410   0.813   1.251
  103SOL    HW1  344   0.496   0.825   1.301
  103SOL    HW2  345   0.368   0.726   1.278
  104SOL     OW  346   1.274   0.386   1.262
  104SOL    HW1  347   1.295   0.460   1.326
  104SOL    HW2  348   1.185   0.403   1.219
  105SOL     OW  349   0.064   1.564   1.331
  105SOL    HW1  350   0.018   1.646   1.297
  105SOL    HW2  351   0.162   1.583   1.340
  106SOL     OW  352   0.367   1.100   0.501
  106SOL    HW1  353   0.360   1.183   0.445
  106SOL    HW2  354   0.371   1.020   0.441
  107SOL     OW  355   0.566   0.537   0.865
  107SOL    HW1  356   0.578   0.603   0.791
  107SOL    HW2  357   0.612   0.571   0.948
  108SOL     OW  358   1.252   1.348   0.388
  108SOL    HW1  359   1.302   1.425   0.428
  108SOL    HW2  360   1.157   1.350   0.420
  109SOL     OW  361   1.272   1.445   1.142
  109SOL    HW1  362   1.319   1.458   1.229
  109SOL    HW2  363   1.206   1.371   1.151
  110SOL     OW  364   1.582   0.639   0.472
  110SOL    HW1  365   1.551   0.700   0.545
  110SOL    HW2  366   1.632   0.691   0.403
  111SOL     OW  367   0.354   1.510   1.329
  111SOL    HW1  368   0.333   1.466   1.242
  111SOL    HW2  369   0.451   1.536   1.332
  112SOL     OW  370   0.402   0.751   1.598
  112SOL    HW1  371   0.470   0.806   1.551
  112SOL    HW2  372   0.442   0.663   1.625
  113SOL     OW  373   1.587   0.779   1.670
  113SOL    HW1  374   1.495   0.817   1.665
  113SOL    HW2  375   1.647   0.826   1.605
  114SOL     OW  376   1.013   0.105   1.770
  114SOL    HW1  377   1.019   0.190   1.718
  114SOL    HW2  378   1.045   0.029   1.713
  115SOL     OW  379   0.504   0.050   1.740
  115SOL    HW1  380   0.462  -0.007   1.670
  115SOL    HW2  381   0.438   0.119   1.772
  116SOL     OW  382   0.573   0.870   1.029
  116SOL    HW1  383   0.617   0.959   1.020
  116SOL    HW2  384   0.510   0.870   1.106
  117SOL     OW  385   1.360   0.862   1.045
  117SOL    HW1  386   1.285   0.862   0.979
  117SOL    HW2  387   1.397   0.770   1.054
  118SOL     OW  388   1.209   0.525   0.275
  118SOL    HW1  389   1.222   0.441   0.329
  118SOL    HW2  390   1.180   0.599   0.335
  119SOL     OW  391   0.307   0.213   1.231
  119SOL    HW1  392   0.284   0.250   1.321
  119SOL    HW2  393   0.277   0.118   1.225
  120SOL     OW  394   0.037   1.310   1.282
  120SOL    HW1  395   0.090   1.261   1.350
  120SOL    HW2  396   0.059   1.408   1.287
  121SOL     OW  397   0.732   0.634   1.064
  121SOL    HW1  398   0.791   0.608   0.988
  121SOL    HW2  399   0.704   0.730   1.053
  122SOL     OW  400   1.728   0.935   1.854
  122SOL    HW1  401   1.682   0.928   1.765
  122SOL    HW2  402   1.666   0.979   1.920
  123SOL     OW  403   0.307   0.063   0.618
  123SOL    HW1  404   0.296   0.157   0.651
  123SOL    HW2  405   0.302   0.000   0.695
  124SOL     OW  406   1.622   0.367   0.374
  124SOL    HW1  407   1.624   0.291   0.438
  124SOL    HW2  408   1.574   0.444   0.414
  125SOL     OW  409   1.023   0.766   0.966
  125SOL    HW1  410   1.038   0.787   1.062
  125SOL    HW2  411   0.993   0.671   0.957
  126SOL     OW  412   0.980   1.573   1.700
  126SOL    HW1  413   0.960   1.617   1.612
  126SOL    HW2  414   1.019   1.482   1.684
  127SOL     OW  415   1.859   1.518   1.605
  127SOL    HW1  416   1.873   1.545   1.510
  127SOL    HW2  417   1.942   1.540   1.658
  128SOL     OW  418   0.350   0.898   1.804
  128SOL    HW1  419   0.426   0.942   1.852
  128SOL    HW2  420   0.385   0.851   1.722
  129SOL     OW  421   1.540   0.274   0.125
  129SOL    HW1  422   1.479   0.199   0.148
  129SOL    HW2  423   1.562   0.326   0.208
  130SOL     OW  424   1.303   0.838   0.042
  130SOL    HW1  425   1.337   0.745   0.057
  130SOL    HW2  426   1.321   0.865  -0.053
  131SOL     OW  427   1.068   1.333   0.849
  131SOL    HW1  428   1.075   1.249   0.794
  131SOL    HW2  429   1.130   1.402   0.813
  132SOL     OW  430   0.319   0.810   0.949
  132SOL    HW1  431   0.412   0.846   0.954
  132SOL    HW2  432   0.313   0.725   1.001
  133SOL     OW  433   0.339   0.509   1.006
  133SOL    HW1  434   0.287   0.426   0.989
  133SOL    HW2  435   0.416   0.514   0.942
  134SOL     OW  436   1.138   0.380   1.678
  134SOL    HW1  437   1.093   0.443   1.742
  134SOL    HW2  438   1.231   0.411   1.661
  135SOL     OW  439   1.160   0.207   1.477
  135SOL    HW1  440   1.160   0.271   1.554
  135SOL    HW2  441   1.188   0.255   1.394
  136SOL     OW  442   0.008   1.326   0.200
  136SOL    HW1  443  -0.085   1.347   0.169
  136SOL    HW2  444   0.018   1.227   0.213
  137SOL     OW  445   0.088   1.801   0.927
  137SOL    HW1  446   0.046   1.715   0.900
  137SOL    HW2  447   0.182   1.804   0.893
  138SOL     OW  448   0.504   1.568   0.910
  138SOL    HW1  449   0.570   1.642   0.919
  138SOL    HW2  450   0.548   1.489   0.868
  139SOL     OW  451   1.002   0.796   1.238
  139SOL    HW1  452   1.043   0.764   1.324
  139SOL    HW2  453   0.906   0.769   1.235
  140SOL     OW  454   0.040   0.544   1.114
  140SOL    HW1  455   0.125   0.511   1.073
  140SOL    HW2  456   0.053   0.559   1.212
  141SOL     OW  457   0.189   0.520   1.722
  141SOL    HW1  458   0.248   0.480   1.652
  141SOL    HW2  459   0.131   0.591   1.681
  142SOL     OW  460   1.369   0.950   1.660
  142SOL    HW1  461   1.408   1.039   1.680
  142SOL    HW2  462   1.379   0.930   1.563
  143SOL     OW  463   0.815   0.572   0.325
  143SOL    HW1  464   0.822   0.483   0.279
  143SOL    HW2  465   0.721   0.606   0.317
  144SOL     OW  466   1.657   0.604   1.206
  144SOL    HW1  467   1.619   0.535   1.268
  144SOL    HW2  468   1.739   0.568   1.162
  145SOL     OW  469   0.252   1.564   1.744
  145SOL    HW1  470   0.222   1.621   1.820
  145SOL    HW2  471   0.245   1.467   1.770
  146SOL     OW  472   0.671   0.464   1.269
  146SOL    HW1  473   0.637   0.375   1.239
  146SOL    HW2  474   0.697   0.518   1.189
  147SOL     OW  475   0.930   1.678   1.465
  147SOL    HW1  476   0.906   1.660   1.370
  147SOL    HW2  477   0.960   1.772   1.475
  148SOL     OW  478   0.473   0.500   0.191
  148SOL    HW1  479   0.534   0.580   0.195
  148SOL    HW2  480   0.378   0.531   0.198
  149SOL     OW  481   0.159   1.137   1.466
  149SOL    HW1  482   0.181   1.076   1.542
  149SOL    HW2  483   0.169   1.088   1.380
  150SOL     OW  484   1.347   1.059   1.234
  150SOL    HW1  485   1.371   0.996   1.160
  150SOL    HW2  486   1.257   1.099   1.216
  151SOL     OW  487   1.302   0.855   0.309
  151SOL    HW1  488   1.216   0.824   0.351
  151SOL    HW2  489   1.298   0.841   0.210
  152SOL     OW  490   1.759   1.747   1.154
  152SOL    HW1  491   1.820   1.777   1.081
  152SOL    HW2  492   1.721   1.658   1.132
  153SOL     OW  493   1.252   1.731   1.128
  153SOL    HW1  494   1.336   1.736   1.074
  153SOL    HW2  495   1.229   1.635   1.146
  154SOL     OW  496   0.083   1.258   1.022
  154SOL    HW1  497   0.078   1.257   1.122
  154SOL    HW2  498   0.000   1.217   0.984
  155SOL     OW  499   0.688   1.662   1.716
  155SOL    HW1  500   0.632   1.743   1.725
  155SOL    HW2  501   0.740   1.666   1.630
  156SOL     OW  502   0.903   0.086   0.133
  156SOL    HW1  503   0.954   0.087   0.047
  156SOL    HW2  504   0.959   0.044   0.204
  157SOL     OW  505   1.726   0.135   0.523
  157SOL    HW1  506   1.799   0.118   0.456
  157SOL    HW2  507   1.695   0.048   0.561
  158SOL     OW  508   1.388   1.573   0.477
  158SOL    HW1  509   1.455   1.585   0.403
  158SOL    HW2  510   1.348   1.662   0.500
  159SOL     OW  511   0.130   1.794   1.851
  159SOL    HW1  512   0.089   1.720   1.904
  159SOL    HW2  513   0.194   1.845   1.909
  160SOL     OW  514   1.280   0.927   0.672
  160SOL    HW1  515   1.340   0.846   0.674
  160SOL    HW2  516   1.320   0.996   0.612
  161SOL     OW  517   0.830   1.273   1.422
  161SOL    HW1  518   0.825   1.306   1.517
  161SOL    HW2  519   0.744   1.292   1.376
  162SOL     OW  520   0.672   1.616   0.154
  162SOL    HW1  521   0.681   1.626   0.055
  162SOL    HW2  522   0.632   1.527   0.175
  163SOL     OW  523   1.650   1.720   1.394
  163SOL    HW1  524   1.703   1.730   1.310
  163SOL    HW2  525   1.623   1.810   1.428
  164SOL     OW  526   1.841   0.175   0.963
  164SOL    HW1  527   1.880   0.090   0.927
  164SOL    HW2  528   1.743   0.177   0.944
  165SOL     OW  529   0.263   0.326   0.720
  165SOL    HW1  530   0.184   0.377   0.686
  165SOL    HW2  531   0.254   0.311   0.818
  166SOL     OW  532   1.194   1.612   0.031
  166SOL    HW1  533   1.200   1.519   0.068
  166SOL    HW2  534   1.135   1.612  -0.049
  167SOL     OW  535   0.822   1.002   1.372
  167SOL    HW1  536   0.862   1.001   1.280
  167SOL    HW2  537   0.832   1.094   1.412
  168SOL     OW  538   0.916   0.910   0.291
  168SOL    HW1  539   0.979   0.948   0.223
  168SOL    HW2  540   0.956   0.827   0.330
  169SOL     OW  541   1.504   1.607   0.044
  169SOL    HW1  542   1.412   1.644   0.051
  169SOL    HW2  543   1.542   1.627  -0.046
  170SOL     OW  544   0.372   1.288   1.490
  170SOL    HW1  545   0.359   1.381   1.456
  170SOL    HW2  546   0.288   1.236   1.477
  171SOL     OW  547   1.614   1.292   1.289
  171SOL    HW1  548   1.674   1.295   1.369
  171SOL    HW2  549   1.539   1.356   1.302
  172SOL     OW  550   1.039   1.098   0.696
  172SOL    HW1  551   0.969   1.051   0.750
  172SOL    HW2  552   1.098   1.030   0.653
  173SOL     OW  553   1.014   0.236   0.971
  173SOL    HW1  554   1.006   0.200   0.878
  173SOL    HW2  555   1.012   0.160   1.036
  174SOL     OW  556   0.590   1.487   0.491
  174SOL    HW1  557   0.632   1.429   0.421
  174SOL    HW2  558   0.546   1.566   0.447
  175SOL     OW  559   1.709   0.385   1.381
  175SOL    HW1  560   1.782   0.454   1.385
  175SOL    HW2  561   1.737   0.310   1.322
  176SOL     OW  562   0.255   1.348   0.290
  176SOL    HW1  563   0.159   1.349   0.263
  176SOL    HW2  564   0.267   1.401   0.374
  177SOL     OW  565   0.105   1.013   1.726
  177SOL    HW1  566   0.028   0.980   1.780
  177SOL    HW2  567   0.190   0.983   1.768
  178SOL     OW  568   0.672   0.203   1.489
  178SOL    HW1  569   0.762   0.187   1.449
  178SOL    HW2  570   0.680   0.208   1.588
  179SOL     OW  571   0.075   0.345   0.033
  179SOL    HW1  572  -0.017   0.317   0.004
  179SOL    HW2  573   0.106   0.422  -0.023
  180SOL     OW  574   1.440   0.856   1.398
  180SOL    HW1  575   1.383   0.908   1.335
  180SOL    HW2  576   1.536   0.868   1.374
  181SOL     OW  577   0.072   0.166   0.318
  181SOL    HW1  578   0.055   0.249   0.264
  181SOL    HW2  579   0.162   0.129   0.296
  182SOL     OW  580   1.183   1.335   0.119
  182SOL    HW1  581   1.084   1.324   0.121
  182SOL    HW2  582   1.217   1.350   0.212
  183SOL     OW  583   0.613   0.842   1.431
  183SOL    HW1  584   0.669   0.923   1.414
  183SOL    HW2  585   0.672   0.762   1.434
  184SOL     OW  586   1.493   1.767   0.959
  184SOL    HW1  587   1.526   1.831   0.890
  184SOL    HW2  588   1.559   1.761   1.034
  185SOL     OW  589   0.716   0.565   1.708
  185SOL    HW1  590   0.735   0.630   1.782
  185SOL    HW2  591   0.776   0.485   1.717
  186SOL     OW  592   1.450   1.220   1.633
  186SOL    HW1  593   1.441   1.210   1.732
  186SOL    HW2  594   1.546   1.213   1.607
  187SOL     OW  595   0.390   1.741   1.560
  187SOL    HW1  596   0.299   1.782   1.558
  187SOL    HW2  597   0.383   1.647   1.592
  188SOL     OW  598   1.674   0.883   1.254
  188SOL    HW1  599   1.647   0.794   1.217
  188SOL    HW2  600   1.675   0.951   1.181
  189SOL     OW  601   1.225   0.325   0.449
  189SOL    HW1  602   1.290   0.251   0.438
  189SOL    HW2  603   1.245   0.375   0.533
  190SOL     OW  604   0.594   0.745   0.652
  190SOL    HW1  605   0.644   0.830   0.633
  190SOL    HW2  606   0.506   0.747   0.604
  191SOL     OW  607   1.777   0.342   1.642
  191SOL    HW1  608   1.760   0.373   1.548
  191SOL    HW2  609   1.693   0.305   1.680
  192SOL     OW  610   1.730   0.934   1.517
  192SOL    HW1  611   1.768   1.025   1.532
  192SOL    HW2  612   1.722   0.917   1.418
  193SOL     OW  613   0.859   1.374   0.016
  193SOL    HW1  614   0.813   1.389   0.104
  193SOL    HW2  615   0.903   1.459  -0.014
  194SOL     OW  616   0.661   1.790   0.953
  194SOL    HW1  617   0.615   1.878   0.940
  194SOL    HW2  618   0.760   1.802   0.946
  195SOL     OW  619   0.859   0.956   0.861
  195SOL    HW1  620   0.913   0.887   0.909
  195SOL    HW2  621   0.827   1.025   0.927
  196SOL     OW  622   1.083   0.984   0.087
  196SOL    HW1  623   1.060   1.037   0.005
  196SOL    HW2  624   1.164   0.928   0.068
  197SOL     OW  625   1.861   1.569   0.851
  197SOL    HW1  626   1.790   1.557   0.781
  197SOL    HW2  627   1.862   1.490   0.911
  198SOL     OW  628   0.221   1.314   1.844
  198SOL    HW1  629   0.156   1.241   1.823
  198SOL    HW2  630   0.225   1.328   1.942
  199SOL     OW  631   0.079   1.240   0.653
  199SOL    HW1  632   0.078   1.193   0.741
  199SOL    HW2  633   0.161   1.212   0.602
  200SOL     OW  634   0.672   1.391   1.624
  200SOL    HW1  635   0.594   1.341   1.662
  200SOL    HW2  636   0.669   1.486   1.655
  201SOL     OW  637   1.824   0.192   1.227
  201SOL    HW1  638   1.820   0.102   1.271
  201SOL    HW2  639   1.827   0.181   1.128
  202SOL     OW  640   0.428   0.424   0.520
  202SOL    HW1  641   0.458   0.352   0.458
  202SOL    HW2  642   0.389   0.384   0.603
  203SOL     OW  643   1.705   1.487   1.104
  203SOL    HW1  644   1.612   1.462   1.077
  203SOL    HW2  645   1.731   1.437   1.186
  204SOL     OW  646   0.317   0.547   1.280
  204SOL    HW1  647   0.355   0.488   1.352
  204SOL    HW2  648   0.357   0.521   1.192
  205SOL     OW  649   0.812   1.586   0.687
  205SOL    HW1  650   0.844   1.596   0.593
  205SOL    HW2  651   0.733   1.524   0.689
  206SOL     OW  652   1.424   0.214   1.112
  206SOL    HW1  653   1.476   0.149   1.167
  206SOL    HW2  654   1.375   0.277   1.173
  207SOL     OW  655   1.001   0.034   1.154
  207SOL    HW1  656   0.938  -0.038   1.123
  207SOL    HW2  657   1.094  -0.002   1.154
  208SOL     OW  658   0.770   1.330   0.301
  208SOL    HW1  659   0.724   1.243   0.318
  208SOL    HW2  660   0.861   1.327   0.342
  209SOL     OW  661   0.618   1.567   1.284
  209SOL    HW1  662   0.613   1.649   1.341
  209SOL    HW2  663   0.707   1.564   1.239
  210SOL     OW  664   1.352   0.052   0.168
  210SOL    HW1  665   1.387   0.011   0.084
  210SOL    HW2  666   1.262   0.014   0.188
  211SOL     OW  667   1.300   0.453   0.691
  211SOL    HW1  668   1.241   0.533   0.695
  211SOL    HW2  669   1.315   0.418   0.784
  212SOL     OW  670   1.593   0.221   0.882
  212SOL    HW1  671   1.509   0.220   0.936
  212SOL    HW2  672   1.595   0.304   0.826
  213SOL     OW  673   0.039   1.077   0.300
  213SOL    HW1  674   0.138   1.066   0.291
  213SOL    HW2  675  -0.001   0.991   0.332
  214SOL     OW  676   0.875   1.646   0.337
  214SOL    HW1  677   0.798   1.611   0.283
  214SOL    HW2  678   0.843   1.717   0.399
  215SOL     OW  679   0.230   0.628   1.975
  215SOL    HW1  680   0.137   0.626   2.012
  215SOL    HW2  681   0.231   0.589   1.883
  216SOL     OW  682   0.225   0.275   2.858
  216SOL    HW1  683   0.260   0.258   2.950
  216SOL    HW2  684   0.137   0.230   2.846
  217SOL     OW  685   0.019   0.368   2.509
  217SOL    HW1  686  -0.063   0.411   2.548
  217SOL    HW2  687  -0.009   0.295   2.446
  218SOL     OW  688   0.569   1.275   3.027
  218SOL    HW1  689   0.476   1.268   2.990
  218SOL    HW2  690   0.580   1.364   3.071
  219SOL     OW  691   1.555   1.511   2.565
  219SOL    HW1  692   1.498   1.495   2.646
  219SOL    HW2  693   1.496   1.521   2.485
  220SOL     OW  694   1.135   0.703   2.579
  220SOL    HW1  695   1.192   0.781   2.554
  220SOL    HW2  696   1.075   0.729   2.655
  221SOL     OW  697   1.755   0.607   2.093
  221SOL    HW1  698   1.743   0.594   1.994
  221SOL    HW2  699   1.725   0.526   2.142
  222SOL     OW  700   0.768   1.144   2.885
  222SOL    HW1  701   0.690   1.161   2.945
  222SOL    HW2  702   0.802   1.231   2.849
  223SOL     OW  703   0.850   0.798   3.685
  223SOL    HW1  704   0.846   0.874   3.750
  223SOL    HW2  705   0.872   0.834   3.594
  224SOL     OW  706   0.685   1.012   2.527
  224SOL    HW1  707   0.754   0.996   2.597
  224SOL    HW2  708   0.612   1.069   2.565
  225SOL     OW  709   0.686   1.161   3.665
  225SOL    HW1  710   0.746   1.240   3.679
  225SOL    HW2  711   0.600   1.192   3.624
  226SOL     OW  712   0.335   1.435   2.923
  226SOL    HW1  713   0.257   1.404   2.870
  226SOL    HW2  714   0.393   1.493   2.866
  227SOL     OW  715   1.460   1.505   3.201
  227SOL    HW1  716   1.484   1.599   3.227
  227SOL    HW2  717   1.444   1.451   3.283
  228SOL     OW  718   0.438   0.392   3.361
  228SOL    HW1  719   0.520   0.336   3.370
  228SOL    HW2  720   0.357   0.334   3.365
  229SOL     OW  721   1.603   0.447   2.599
  229SOL    HW1  722   1.529   0.493   2.549
  229SOL    HW2  723   1.654   0.515   2.652
  230SOL     OW  724   0.231   1.713   2.345
  230SOL    HW1  725   0.265   1.790   2.399
  230SOL    HW2  726   0.275   1.713   2.255
  231SOL     OW  727   1.127   1.341   3.552
  231SOL    HW1  728   1.174   1.341   3.640
  231SOL    HW2  729   1.079   1.254   3.541
  232SOL     OW  730   0.230   1.434   2.400
  232SOL    HW1  731   0.204   1.530   2.400
  232SOL    HW2  732   0.159   1.380   2.445
  233SOL     OW  733   0.240   1.091   2.748
  233SOL    HW1  734   0.254   1.007   2.800
  233SOL    HW2  735   0.185   1.155   2.803
  234SOL     OW  736   0.620   1.786   3.301
  234SOL    HW1  737   0.528   1.769   3.336
  234SOL    HW2  738   0.648   1.878   3.327
  235SOL     OW  739   0.606   0.964   1.985
  235SOL    HW1  740   0.613   1.048   1.931
  235SOL    HW2  741   0.652   0.977   2.073
  236SOL     OW  742   1.594   0.114   3.342
  236SOL    HW1  743   1.576   0.181   3.270
  236SOL    HW2  744   1.591   0.160   3.431
  237SOL     OW  745   0.122   0.643   2.425
  237SOL    HW1  746   0.077   0.555   2.442
  237SOL    HW2  747   0.121   0.697   2.509
  238SOL     OW  748   1.842   1.767   2.221
  238SOL    HW1  749   1.896   1.738   2.301
  238SOL    HW2  750   1.872   1.857   2.192
  239SOL     OW  751   0.027   1.596   1.979
  239SOL    HW1  752   0.008   1.500   2.000
  239SOL    HW2  753  -0.006   1.654   2.054
  240SOL     OW  754   1.689   0.922   2.474
  240SOL    HW1  755   1.784   0.893   2.482
  240SOL    HW2  756   1.681   0.987   2.399
  241SOL     OW  757   1.641   1.108   2.294
  241SOL    HW1  758   1.727   1.110   2.242
  241SOL    HW2  759   1.655   1.155   2.382
  242SOL     OW  760   0.113   0.737   3.459
  242SOL    HW1  761   0.201   0.724   3.504
  242SOL    HW2  762   0.100   0.834   3.437
  243SOL     OW  763   0.613   1.365   2.588
  243SOL    HW1  764   0.564   1.278   2.597
  243SOL    HW2  765   0.590   1.408   2.501
  244SOL     OW  766   1.293   1.228   3.285
  244SOL    HW1  767   1.330   1.155   3.227
  244SOL    HW2  768   1.345   1.233   3.370
  245SOL     OW  769   0.809   0.004   2.364
  245SOL    HW1  770   0.849   0.095   2.355
  245SOL    HW2  771   0.709   0.012   2.370
  246SOL     OW  772   0.197   0.976   3.126
  246SOL    HW1  773   0.286   0.931   3.112
  246SOL    HW2  774   0.124   0.911   3.107
  247SOL     OW  775   1.525   0.999   2.052
  247SOL    HW1  776   1.462   0.923   2.065
  247SOL    HW2  777   1.573   1.017   2.138
  248SOL     OW  778   1.187   1.792   3.478
  248SOL    HW1  779   1.211   1.852   3.402
  248SOL    HW2  780   1.194   1.697   3.448
  249SOL     OW  781   0.317   0.251   3.663
  249SOL    HW1  782   0.388   0.322   3.669
  249SOL    HW2  783   0.229   0.290   3.691
  250SOL     OW  784   1.466   1.417   2.815
  250SOL    HW1  785   1.407   1.423   2.895
  250SOL    HW2  786   1.451   1.329   2.769
  251SOL     OW  787   1.667   1.714   2.434
  251SOL    HW1  788   1.626   1.691   2.346
  251SOL    HW2  789   1.649   1.640   2.499
  252SOL     OW  790   0.598   0.729   2.132
  252SOL    HW1  791   0.622   0.798   2.064
  252SOL    HW2  792   0.520   0.762   2.186
  253SOL     OW  793   1.281   0.345   2.806
  253SOL    HW1  794   1.195   0.295   2.793
  253SOL    HW2  795   1.343   0.291   2.862
  254SOL     OW  796   1.576   1.662   2.169
  254SOL    HW1  797   1.665   1.708   2.172
  254SOL    HW2  798   1.555   1.638   2.074
  255SOL     OW  799   0.807   0.605   3.327
  255SOL    HW1  800   0.760   0.602   3.416
  255SOL    HW2  801   0.756   0.550   3.261
  256SOL     OW  802   1.394   0.469   3.536
  256SOL    HW1  803   1.374   0.512   3.624
  256SOL    HW2  804   1.472   0.407   3.545
  257SOL     OW  805   0.973   0.890   3.434
  257SOL    HW1  806   1.019   0.806   3.405
  257SOL    HW2  807   0.917   0.924   3.359
  258SOL     OW  808   0.991   0.410   3.104
  258SOL    HW1  809   0.914   0.444   3.158
  258SOL    HW2  810   0.957   0.359   3.025
  259SOL     OW  811   1.041   0.701   2.291
  259SOL    HW1  812   1.067   0.697   2.387
  259SOL    HW2  813   0.956   0.650   2.277
  260SOL     OW  814   0.076   0.811   2.651
  260SOL    HW1  815   0.175   0.799   2.660
  260SOL    HW2  816   0.052   0.906   2.672
  261SOL     OW  817   0.130   1.821   3.433
  261SOL    HW1  818   0.120   1.806   3.532
  261SOL    HW2  819   0.044   1.857   3.397
  262SOL     OW  820   0.865   0.348   2.057
  262SOL    HW1  821   0.924   0.411   2.008
  262SOL    HW2  822   0.884   0.254   2.028
  263SOL     OW  823   1.719   0.585   3.693
  263SOL    HW1  824   1.693   0.674   3.657
  263SOL    HW2  825   1.717   0.517   3.620
  264SOL     OW  826   1.362   1.144   2.407
  264SOL    HW1  827   1.445   1.115   2.359
  264SOL    HW2  828   1.313   1.211   2.351
  265SOL     OW  829   0.550   0.196   2.747
  265SOL    HW1  830   0.545   0.191   2.847
  265SOL    HW2  831   0.552   0.292   2.718
  266SOL     OW  832   1.008   1.456   2.339
  266SOL    HW1  833   0.962   1.528   2.287
  266SOL    HW2  834   1.004   1.476   2.437
  267SOL     OW  835   0.351   1.801   2.715
  267SOL    HW1  836   0.401   1.715   2.721
  267SOL    HW2  837   0.416   1.878   2.712
  268SOL     OW  838   1.795   1.066   2.735
  268SOL    HW1  839   1.733   1.051   2.659
  268SOL    HW2  840   1.743   1.077   2.820
  269SOL     OW  841   1.227   1.550   3.368
  269SOL    HW1  842   1.233   1.473   3.432
  269SOL    HW2  843   1.175   1.524   3.288
  270SOL     OW  844   0.321   0.943   2.104
  270SOL    HW1  845   0.403   0.982   2.062
  270SOL    HW2  846   0.294   0.861   2.055
  271SOL     OW  847   1.458   0.735   2.590
  271SOL    HW1  848   1.453   0.670   2.665
  271SOL    HW2  849   1.538   0.794   2.603
  272SOL     OW  850   0.461   1.266   3.589
  272SOL    HW1  851   0.411   1.267   3.503
  272SOL    HW2  852   0.398   1.248   3.665
  273SOL     OW  853   1.111   1.776   2.099
  273SOL    HW1  854   1.051   1.714   2.149
  273SOL    HW2  855   1.142   1.732   2.014
  274SOL     OW  856   0.202   0.285   3.360
  274SOL    HW1  857   0.122   0.345   3.347
  274SOL    HW2  858   0.192   0.236   3.446
  275SOL     OW  859   1.632   1.377   1.943
  275SOL    HW1  860   1.600   1.471   1.933
  275SOL    HW2  861   1.556   1.314   1.931
  276SOL     OW  862   0.464   1.743   2.185
  276SOL    HW1  863   0.497   1.782   2.271
  276SOL    HW2  864   0.540   1.736   2.120
  277SOL     OW  865   1.400   0.107   2.288
  277SOL    HW1  866   1.376   0.070   2.198
  277SOL    HW2  867   1.499   0.123   2.292
  278SOL     OW  868   0.249   1.785   3.103
  278SOL    HW1  869   0.306   1.720   3.153
  278SOL    HW2  870   0.233   1.752   3.010
  279SOL     OW  871   0.940   1.698   2.766
  279SOL    HW1  872   1.020   1.641   2.787
  279SOL    HW2  873   0.891   1.658   2.689
  280SOL     OW  874   0.382   0.700   2.342
  280SOL    HW1  875   0.427   0.610   2.339
  280SOL    HW2  876   0.288   0.689   2.375
  281SOL     OW  877   1.547   0.222   3.591
  281SOL    HW1  878   1.542   0.259   3.683
  281SOL    HW2  879   1.475   0.153   3.579
  282SOL     OW  880   0.614   0.122   1.979
  282SOL    HW1  881   0.712   0.100   1.986
  282SOL    HW2  882   0.583   0.105   1.886
  283SOL     OW  883   0.781   0.264   3.611
  283SOL    HW1  884   0.848   0.203   3.654
  283SOL    HW2  885   0.708   0.283   3.676
  284SOL     OW  886   0.888   1.514   3.057
  284SOL    HW1  887   0.865   1.489   2.963
  284SOL    HW2  888   0.949   1.445   3.096
  285SOL     OW  889   1.351   0.590   3.295
  285SOL    HW1  890   1.379   0.547   3.380
  285SOL    HW2  891   1.376   0.686   3.296
  286SOL     OW  892   0.803   1.402   2.786
  286SOL    HW1  893   0.893   1.416   2.744
  286SOL    HW2  894   0.732   1.404   2.715
  287SOL     OW  895   0.922   0.503   2.761
  287SOL    HW1  896   0.897   0.494   2.665
  287SOL    HW2  897   0.970   0.421   2.792
  288SOL     OW  898   0.539   0.064   2.374
  288SOL    HW1  899   0.458   0.065   2.432
  288SOL    HW2  900   0.542   0.147   2.319
  289SOL     OW  901   1.434   1.188   1.903
  289SOL    HW1  902   1.466   1.112   1.960
  289SOL    HW2  903   1.342   1.215   1.933
  290SOL     OW  904   0.297   0.035   2.033
  290SOL    HW1  905   0.346   0.119   2.012
  290SOL    HW2  906   0.359  -0.030   2.078
  291SOL     OW  907   0.935   0.236   2.342
  291SOL    HW1  908   0.887   0.277   2.264
  291SOL    HW2  909   1.034   0.234   2.323
  292SOL     OW  910   1.076   0.683   3.326
  292SOL    HW1  911   0.996   0.622   3.329
  292SOL    HW2  912   1.157   0.630   3.302
  293SOL     OW  913   1.227   1.570   2.655
  293SOL    HW1  914   1.248   1.644   2.590
  293SOL    HW2  915   1.295   1.570   2.728
  294SOL     OW  916   0.459   1.152   2.603
  294SOL    HW1  917   0.388   1.125   2.668
  294SOL    HW2  918   0.433   1.124   2.510
  295SOL     OW  919   1.271   1.797   2.453
  295SOL    HW1  920   1.315   1.861   2.389
  295SOL    HW2  921   1.221   1.849   2.523
  296SOL     OW  922   1.032   0.549   1.878
  296SOL    HW1  923   0.991   0.631   1.839
  296SOL    HW2  924   1.096   0.575   1.951
  297SOL     OW  925   0.078   0.556   3.248
  297SOL    HW1  926   0.170   0.555   3.207
  297SOL    HW2  927   0.072   0.630   3.315
  298SOL     OW  928   0.561   0.222   3.009
  298SOL    HW1  929   0.599   0.138   3.046
  298SOL    HW2  930   0.473   0.241   3.053
  299SOL     OW  931   0.866   0.454   2.504
  299SOL    HW1  932   0.834   0.526   2.442
  299SOL    HW2  933   0.890   0.373   2.451
  300SOL     OW  934   1.017   0.039   2.615
  300SOL    HW1  935   0.945   0.044   2.546
  300SOL    HW2  936   0.993  -0.030   2.684
  301SOL     OW  937   1.429   1.173   2.729
  301SOL    HW1  938   1.374   1.089   2.722
  301SOL    HW2  939   1.455   1.202   2.637
  302SOL     OW  940   1.466   0.590   2.854
  302SOL    HW1  941   1.436   0.495   2.861
  302SOL    HW2  942   1.539   0.606   2.920
  303SOL     OW  943   1.857   0.833   2.239
  303SOL    HW1  944   1.899   0.769   2.303
  303SOL    HW2  945   1.819   0.782   2.161
  304SOL     OW  946   0.488   1.385   2.036
  304SOL    HW1  947   0.401   1.370   2.083
  304SOL    HW2  948   0.471   1.411   1.941
  305SOL     OW  949   1.664   1.280   2.519
  305SOL    HW1  950   1.763   1.288   2.533
  305SOL    HW2  951   1.619   1.364   2.550
  306SOL     OW  952   1.390   0.575   1.940
  306SOL    HW1  953   1.336   0.554   2.021
  306SOL    HW2  954   1.481   0.534   1.949
  307SOL     OW  955   0.527   0.256   2.190
  307SOL    HW1  956   0.554   0.197   2.115
  307SOL    HW2  957   0.527   0.351   2.159
  308SOL     OW  958   1.754   1.223   3.450
  308SOL    HW1  959   1.845   1.184   3.437
  308SOL    HW2  960   1.762   1.319   3.474
  309SOL     OW  961   1.064   1.347   3.202
  309SOL    HW1  962   0.984   1.324   3.257
  309SOL    HW2  963   1.147   1.321   3.251
  310SOL     OW  964   1.592   1.629   3.487
  310SOL    HW1  965   1.619   1.663   3.397
  310SOL    HW2  966   1.671   1.591   3.533
  311SOL     OW  967   1.111   1.195   2.962
  311SOL    HW1  968   1.071   1.239   3.043
  311SOL    HW2  969   1.070   1.232   2.879
  312SOL     OW  970   1.638   1.099   2.941
  312SOL    HW1  971   1.643   1.180   3.000
  312SOL    HW2  972   1.552   1.101   2.890
  313SOL     OW  973   0.915   0.089   3.264
  313SOL    HW1  974   0.940   0.069   3.169
  313SOL    HW2  975   0.987   0.145   3.306
  314SOL     OW  976   0.980   1.116   3.581
  314SOL    HW1  977   0.881   1.122   3.591
  314SOL    HW2  978   1.003   1.036   3.525
  315SOL     OW  979   0.705   1.050   2.230
  315SOL    HW1  980   0.691   1.057   2.329
  315SOL    HW2  981   0.789   0.999   2.212
  316SOL     OW  982   0.410   0.813   3.113
  316SOL    HW1  983   0.496   0.825   3.163
  316SOL    HW2  984   0.368   0.726   3.140
  317SOL     OW  985   1.274   0.386   3.124
  317SOL    HW1  986   1.295   0.460   3.188
  317SOL    HW2  987   1.185   0.403   3.081
  318SOL     OW  988   0.064   1.564   3.193
  318SOL    HW1  989   0.018   1.646   3.159
  318SOL    HW2  990   0.162   1.583   3.202
  319SOL     OW  991   0.367   1.100   2.363
  319SOL    HW1  992   0.360   1.183   2.307
  319SOL    HW2  993   0.371   1.020   2.303
  320SOL     OW  994   0.566   0.537   2.727
  320SOL    HW1  995   0.578   0.603   2.653
  320SOL    HW2  996   0.612   0.571   2.810
  321SOL     OW  997   1.252   1.348   2.250
  321SOL    HW1  998   1.302   1.425   2.290
  321SOL    HW2  999   1.157   1.350   2.282
  322SOL     OW 1000   1.272   1.445   3.004
  322SOL    HW1 1001   1.319   1.458   3.091
  322SOL    HW2 1002   1.206   1.371   3.013
  323SOL     OW 1003   1.582   0.639   2.334
  323SOL    HW1 1004   1.551   0.700   2.407
  323SOL    HW2 1005   1.632   0.691   2.265
  324SOL     OW 1006   0.354   1.510   3.191
  324SOL    HW1 1007   0.333   1.466   3.104
  324SOL    HW2 1008   0.451   1.536   3.194
  325SOL     OW 1009   0.402   0.751   3.460
  325SOL    HW1 1010   0.470   0.806   3.413
  325SOL    HW2 1011   0.442   0.663   3.487
  326SOL     OW 1012   1.587   0.779   3.532
  326SOL    HW1 1013   1.495   0.817   3.527
  326SOL    HW2 1014   1.647   0.826   3.467
  327SOL     OW 1015   1.013   0.105   3.632
  327SOL    HW1 1016   1.019   0.190   3.580
  327SOL    HW2 1017   1.045   0.029   3.575
  328SOL     OW 1018   0.504   0.050   3.602
  328SOL    HW1 1019   0.462  -0.007   3.532
  328SOL    HW2 1020   0.438   0.119   3.634
  329SOL     OW 1021   0.573   0.870   2.891
  329SOL    HW1 1022   0.617   0.959   2.882
  329SOL    HW2 1023   0.510   0.870   2.968
  330SOL     OW 1024   1.360   0.862   2.907
  330SOL    HW1 1025   1.285   0.862   2.841
  330SOL    HW2 1026   1.397   0.770   2.916
  331SOL     OW 1027   1.209   0.525   2.137
  331SOL    HW1 1028   1.222   0.441   2.191
  331SOL    HW2 1029   1.180   0.599   2.197
  332SOL     OW 1030   0.307   0.213   3.093
  332SOL    HW1 1031   0.284   0.250   3.183
  332SOL    HW2 1032   0.277   0.118   3.087
  333SOL     OW 1033   0.037   1.310   3.144
  333SOL    HW1 1034   0.090   1.261   3.212
  333SOL    HW2 1035   0.059   1.408   3.149
  334SOL     OW 1036   0.732   0.634   2.926
  334SOL    HW1 1037   0.791   0.608   2.850
  334SOL    HW2 1038   0.704   0.730   2.915
  335SOL     OW 1039   1.728   0.935   3.716
  335SOL    HW1 1040   1.682   0.928   3.627
  335SOL    HW2 1041   1.666   0.979   3.782
  336SOL     OW 1042   0.307   0.063   2.480
  336SOL    HW1 1043   0.296   0.157   2.513
  336SOL    HW2 1044   0.302   0.000   2.557
  337SOL     OW 1045   1.622   0.367   2.236
  337SOL    HW1 1046   1.624   0.291   2.300
  337SOL    HW2 1047   1.574   0.444   2.276
  338SOL     OW 1048   1.023   0.766   2.828
  338SOL    HW1 1049   1.038   0.787   2.924
  338SOL    HW2 1050   0.993   0.671   2.819
  339SOL     OW 1051   0.980   1.573   3.562
  339SOL    HW1 1052   0.960   1.617   3.474
  339SOL    HW2 1053   1.019   1.482   3.546
  340SOL     OW 1054   1.859   1.518   3.467
  340SOL    HW1 1055   1.873   1.545   3.372
  340SOL    HW2 1056   1.942   1.540   3.520
  341SOL     OW 1057   0.350   0.898   3.666
  341SOL    HW1 1058   0.426   0.942   3.714
  341SOL    HW2 1059   0.385   0.851   3.584
  342SOL     OW 1060   1.540   0.274   1.987
  342SOL    HW1 1061   1.479   0.199   2.010
  342SOL    HW2 1062   1.562   0.326   2.070
  343SOL     OW 1063   1.303   0.838   1.904
  343SOL    HW1 1064   1.337   0.745   1.919
  343SOL    HW2 1065   1.321   0.865   1.809
  344SOL     OW 1066   1.068   1.333   2.711
  344SOL    HW1 1067   1.075   1.249   2.656
  344SOL    HW2 1068   1.130   1.402   2.675
  345SOL     OW 1069   0.319   0.810   2.811
  345SOL    HW1 1070   0.412   0.846   2.816
  345SOL    HW2 1071   0.313   0.725   2.863
  346SOL     OW 1072   0.339   0.509   2.868
  346SOL    HW1 1073   0.287   0.426   2.851
  346SOL    HW2 1074   0.416   0.514   2.804
  347SOL     OW 1075   1.138   0.380   3.540
  347SOL    HW1 1076   1.093   0.443   3.604
  347SOL    HW2 1077   1.231   0.411   3.523
  348SOL     OW 1078   1.160   0.207   3.339
  348SOL    HW1 1079   1.160   0.271   3.416
  348SOL    HW2 1080   1.188   0.255   3.256
  349SOL     OW 1081   0.008   1.326   2.062
  349SOL    HW1 1082  -0.085   1.347   2.031
  349SOL    HW2 1083   0.018   1.227   2.075
  350SOL     OW 1084   0.088   1.801   2.789
  350SOL    HW1 1085   0.046   1.715   2.762
  350SOL    HW2 1086   0.182   1.804   2.755
  351SOL     OW 1087   0.504   1.568   2.772
  351SOL    HW1 1088   0.570   1.642   2.781
  351SOL    HW2 1089   0.548   1.489   2.730
  352SOL     OW 1090   1.002   0.796   3.100
  352SOL    HW1 1091   1.043   0.764   3.186
  352SOL    HW2 1092   0.906   0.769   3.097
  353SOL     OW 1093   0.040   0.544   2.976
  353SOL    HW1 1094   0.125   0.511   2.935
  353SOL    HW2 1095   0.053   0.559   3.074
  354SOL     OW 1096   0.189   0.520   3.584
  354SOL    HW1 1097   0.248   0.480   3.514
  354SOL    HW2 1098   0.131   0.591   3.543
  355SOL     OW 1099   1.369   0.950   3.522
  355SOL    HW1 1100   1.408   1.039   3.542
  355SOL    HW2 1101   1.379   0.930   3.425
  356SOL     OW 1102   0.815   0.572   2.187
  356SOL    HW1 1103   0.822   0.483   2.141
  356SOL    HW2 1104   0.721   0.606   2.179
  357SOL     OW 1105   1.657   0.604   3.068
  357SOL    HW1 1106   1.619   0.535   3.130
  357SOL    HW2 1107   1.739   0.568   3.024
  358SOL     OW 1108   0.252   1.564   3.606
  358SOL    HW1 1109   0.222   1.621   3.682
  358SOL    HW2 1110   0.245   1.467   3.632
  359SOL     OW 1111   0.671   0.464   3.131
  359SOL    HW1 1112   0.637   0.375   3.101
  359SOL    HW2 1113   0.697   0.518   3.051
  360SOL     OW 1114   0.930   1.678   3.327
  360SOL    HW1 1115   0.906   1.660   3.232
  360SOL    HW2 1116   0.960   1.772   3.337
  361SOL     OW 1117   0.473   0.500   2.053
  361SOL    HW1 1118   0.534   0.580   2.057
  361SOL    HW2 1119   0.378   0.531   2.060
  362SOL     OW 1120   0.159   1.137   3.328
  362SOL    HW1 1121   0.181   1.076   3.404
  362SOL    HW2 1122   0.169   1.088   3.242
  363SOL     OW 1123   1.347   1.059   3.096
  363SOL    HW1 1124   1.371   0.996   3.022
  363SOL    HW2 1125   1.257   1.099   3.078
  364SOL     OW 1126   1.302   0.855   2.171
  364SOL    HW1 1127   1.216   0.824   2.213
  364SOL    HW2 1128   1.298   0.841   2.072
  365SOL     OW 1129   1.759   1.747   3.016
  365SOL    HW1 1130   1.820   1.777   2.943
  365SOL    HW2 1131   1.721   1.658   2.994
  366SOL     OW 1132   1.252   1.731   2.990
  366SOL    HW1 1133   1.336   1.736   2.936
  366SOL    HW2 1134   1.229   1.635   3.008
  367SOL     OW 1135   0.083   1.258   2.884
  367SOL    HW1 1136   0.078   1.257   2.984
  367SOL    HW2 1137   0.000   1.217   2.846
  368SOL     OW 1138   0.688   1.662   3.578
  368SOL    HW1 1139   0.632   1.743   3.587
  368SOL    HW2 1140   0.740   1.666   3.492
  369SOL     OW 1141   1.726   0.135   2.385
  369SOL    HW1 1142   1.799   0.118   2.318
  369SOL    HW2 1143   1.695   0.048   2.423
  370SOL     OW 1144   1.388   1.573   2.339
  370SOL    HW1 1145   1.455   1.585   2.265
  370SOL    HW2 1146   1.348   1.662   2.362
  371SOL     OW 1147   0.130   1.794   3.713
  371SOL    HW1 1148   0.089   1.720   3.766
  371SOL    HW2 1149   0.194   1.845   3.771
  372SOL     OW 1150   1.280   0.927   2.534
  372SOL    HW1 1151   1.340   0.846   2.536
  372SOL    HW2 1152   1.320   0.996   2.474
  373SOL     OW 1153   0.830   1.273   3.284
  373SOL    HW1 1154   0.825   1.306   3.379
  373SOL    HW2 1155   0.744   1.292   3.238
  374SOL     OW 1156   0.672   1.616   2.016
  374SOL    HW1 1157   0.681   1.626   1.917
  374SOL    HW2 1158   0.632   1.527   2.037
  375SOL     OW 1159   1.650   1.720   3.256
  375SOL    HW1 1160   1.703   1.730   3.172
  375SOL    HW2 1161   1.623   1.810   3.290
  376SOL     OW 1162   1.841   0.175   2.825
  376SOL    HW1 1163   1.880   0.090   2.789
  376SOL    HW2 1164   1.743   0.177   2.806
  377SOL     OW 1165   0.263   0.326   2.582
  377SOL    HW1 1166   0.184   0.377   2.548
  377SOL    HW2 1167   0.254   0.311   2.680
  378SOL     OW 1168   1.194   1.612   1.893
  378SOL    HW1 1169   1.200   1.519   1.930
  378SOL    HW2 1170   1.135   1.612   1.813
  379SOL     OW 1171   0.822   1.002   3.234
  379SOL    HW1 1172   0.862   1.001   3.142
  379SOL    HW2 1173   0.832   1.094   3.274
  380SOL     OW 1174   0.916   0.910   2.153
  380SOL    HW1 1175   0.979   0.948   2.085
  380SOL    HW2 1176   0.956   0.827   2.192
  381SOL     OW 1177   1.504   1.607   1.906
  381SOL    HW1 1178   1.412   1.644   1.913
  381SOL    HW2 1179   1.542   1.627   1.816
  382SOL     OW 1180   0.372   1.288   3.352
  382SOL    HW1 1181   0.359   1.381   3.318
  382SOL    HW2 1182   0.288   1.236   3.339
  383SOL     OW 1183   1.614   1.292   3.151
  383SOL    HW1 1184   1.674   1.295   3.231
  383SOL    HW2 1185   1.539   1.356   3.164
  384SOL     OW 1186   1.039   1.098   2.558
  384SOL    HW1 1187   0.969   1.051   2.612
  384SOL    HW2 1188   1.098   1.030   2.515
  385SOL     OW 1189   1.014   0.236   2.833
  385SOL    HW1 1190   1.006   0.200   2.740
  385SOL    HW2 1191   1.012   0.160   2.898
  386SOL     OW 1192   0.590   1.487   2.353
  386SOL    HW1 1193   0.632   1.429   2.283
  386SOL    HW2 1194   0.546   1.566   2.309
  387SOL     OW 1195   1.709   0.385   3.243
  387SOL    HW1 1196   1.782   0.454   3.247
  387SOL    HW2 1197   1.737   0.310   3.184
  388SOL     OW 1198   0.255   1.348   2.152
  388SOL    HW1 1199   0.159   1.349   2.125
  388SOL    HW2 1200   0.267   1.401   2.236
  389SOL     OW 1201   0.105   1.013   3.588
  389SOL    HW1 1202   0.028   0.980   3.642
  389SOL    HW2 1203   0.190   0.983   3.630
  390SOL     OW 1204   0.672   0.203   3.351
  390SOL    HW1 1205   0.762   0.187   3.311
  390SOL    HW2 1206   0.680   0.208   3.450
  391SOL     OW 1207   0.075   0.345   1.895
  391SOL    HW1 1208  -0.017   0.317   1.866
  391SOL    HW2 1209   0.106   0.422   1.839
  392SOL     OW 1210   1.440   0.856   3.260
  392SOL    HW1 1211   1.383   0.908   3.197
  392SOL    HW2 1212   1.536   0.868   3.236
  393SOL     OW 1213   0.072   0.166   2.180
  393SOL    HW1 1214   0.055   0.249   2.126
  393SOL    HW2 1215   0.162   0.129   2.158
  394SOL     OW 1216   1.183   1.335   1.981
  394SOL    HW1 1217   1.084   1.324   1.983
  394SOL    HW2 1218   1.217   1.350   2.074
  395SOL     OW 1219   0.613   0.842   3.293
  395SOL    HW1 1220   0.669   0.923   3.276
  395SOL    HW2 1221   0.672   0.762   3.296
  396SOL     OW 1222   1.493   1.767   2.821
  396SOL    HW1 1223   1.526   1.831   2.752
  396SOL    HW2 1224   1.559   1.761   2.896
  397SOL     OW 1225   0.716   0.565   3.570
  397SOL    HW1 1226   0.735   0.630   3.644
  397SOL    HW2 1227   0.776   0.485   3.579
  398SOL     OW 1228   1.450   1.220   3.495
  398SOL    HW1 1229   1.441   1.210   3.594
  398SOL    HW2 1230   1.546   1.213   3.469
  399SOL     OW 1231   0.390   1.741   3.422
  399SOL    HW1 1232   0.299   1.782   3.420
  399SOL    HW2 1233   0.383   1.647   3.454
  400SOL     OW 1234   1.674   0.883   3.116
  400SOL    HW1 1235   1.647   0.794   3.079
  400SOL    HW2 1236   1.675   0.951   3.043
  401SOL     OW 1237   1.225   0.325   2.311
  401SOL    HW1 1238   1.290   0.251   2.300
  401SOL    HW2 1239   1.245   0.375   2.395
  402SOL     OW 1240   0.594   0.745   2.514
  402SOL    HW1 1241   0.644   0.830   2.495
  402SOL    HW2 1242   0.506   0.747   2.466
  403SOL     OW 1243   1.777   0.342   3.504
  403SOL    HW1 1244   1.760   0.373   3.410
  403SOL    HW2 1245   1.693   0.305   3.542
  404SOL     OW 1246   1.730   0.934   3.379
  404SOL    HW1 1247   1.768   1.025   3.394
  404SOL    HW2 1248   1.722   0.917   3.280
  405SOL     OW 1249   0.859   1.374   1.878
  405SOL    HW1 1250   0.813   1.389   1.966
  405SOL    HW2 1251   0.903   1.459   1.848
  406SOL     OW 1252   0.661   1.790   2.815
  406SOL    HW1 1253   0.615   1.878   2.802
  406SOL    HW2 1254   0.760   1.802   2.808
  407SOL     OW 1255   0.859   0.956   2.723
  407SOL    HW1 1256   0.913   0.887   2.771
  407SOL    HW2 1257   0.827   1.025   2.789
  408SOL     OW 1258   1.083   0.984   1.949
  408SOL    HW1 1259   1.060   1.037   1.867
  408SOL    HW2 1260   1.164   0.928   1.930
  409SOL     OW 1261   1.861   1.569   2.713
  409SOL    HW1 1262   1.790   1.557   2.643
  409SOL    HW2 1263   1.862   1.490   2.773
  410SOL     OW 1264   0.221   1.314   3.706
  410SOL    HW1 1265   0.156   1.241   3.685
  410SOL    HW2 1266   0.225   1.328   3.804
  411SOL     OW 1267   0.079   1.240   2.515
  411SOL    HW1 1268   0.078   1.193   2.603
  411SOL    HW2 1269   0.161   1.212   2.464
  412SOL     OW 1270   0.672   1.391   3.486
  412SOL    HW1 1271   0.594   1.341   3.524
  412SOL    HW2 1272   0.669   1.486   3.517
  413SOL     OW 1273   1.824   0.192   3.089
  413SOL    HW1 1274   1.820   0.102   3.133
  413SOL    HW2 1275   1.827   0.181   2.990
  414SOL     OW 1276   0.428   0.424   2.382
  414SOL    HW1 1277   0.458   0.352   2.320
  414SOL    HW2 1278   0.389   0.384   2.465
  415SOL     OW 1279   1.705   1.487   2.966
  415SOL    HW1 1280   1.612   1.462   2.939
  415SOL    HW2 1281   1.731   1.437   3.048
  416SOL     OW 1282   0.317   0.547   3.142
  416SOL    HW1 1283   0.355   0.488   3.214
  416SOL    HW2 1284   0.357   0.521   3.054
  417SOL     OW 1285   0.812   1.586   2.549
  417SOL    HW1 1286   0.844   1.596   2.455
  417SOL    HW2 1287   0.733   1.524   2.551
  418SOL     OW 1288   1.424   0.214   2.974
  418SOL    HW1 1289   1.476   0.149   3.029
  418SOL    HW2 1290   1.375   0.277   3.035
  419SOL     OW 1291   1.001   0.034   3.016
  419SOL    HW1 1292   0.938  -0.038   2.985
  419SOL    HW2 1293   1.094  -0.002   3.016
  420SOL     OW 1294   0.770   1.330   2.163
  420SOL    HW1 1295   0.724   1.243   2.180
  420SOL    HW2 1296   0.861   1.327   2.204
  421SOL     OW 1297   0.618   1.567   3.146
  421SOL    HW1 1298   0.613   1.649   3.203
  421SOL    HW2 1299   0.707   1.564   3.101
  422SOL     OW 1300   1.352   0.052   2.030
  422SOL    HW1 1301   1.387   0.011   1.946
  422SOL    HW2 1302   1.262   0.014   2.050
  423SOL     OW 1303   1.300   0.453   2.553
  423SOL    HW1 1304   1.241   0.533   2.557
  423SOL    HW2 1305   1.315   0.418   2.646
  424SOL     OW 1306   1.593   0.221   2.744
  424SOL    HW1 1307   1.509   0.220   2.798
  424SOL    HW2 1308   1.595   0.304   2.688
  425SOL     OW 1309   0.039   1.077   2.162
  425SOL    HW1 1310   0.138   1.066   2.153
  425SOL    HW2 1311  -0.001   0.991   2.194
  426SOL     OW 1312   0.875   1.646   2.199
  426SOL    HW1 1313   0.798   1.611   2.145
  426SOL    HW2 1314   0.843   1.717   2.261
  427SOL     OW 1315   0.230   0.628   3.837
  427SOL    HW1 1316   0.137   0.626   3.874
  427SOL    HW2 1317   0.231   0.589   3.745
  428SOL     OW 1318   0.225   0.275   4.720
  428SOL    HW1 1319   0.260   0.258   4.812
  428SOL    HW2 1320   0.137   0.230   4.708
  429SOL     OW 1321   0.019   0.368   4.371
  429SOL    HW1 1322  -0.063   0.411   4.410
  429SOL    HW2 1323  -0.009   0.295   4.308
  430SOL     OW 1324   0.569   1.275   4.889
  430SOL    HW1 1325   0.476   1.268   4.852
  430SOL    HW2 1326   0.580   1.364   4.933
  431SOL     OW 1327   1.555   1.511   4.427
  431SOL    HW1 1328   1.498   1.495   4.508
  431SOL    HW2 1329   1.496   1.521   4.347
  432SOL     OW 1330   1.135   0.703   4.441
  432SOL    HW1 1331   1.192   0.781   4.416
  432SOL    HW2 1332   1.075   0.729   4.517
  433SOL     OW 1333   1.755   0.607   3.955
  433SOL    HW1 1334   1.743   0.594   3.856
  433SOL    HW2 1335   1.725   0.526   4.004
  434SOL     OW 1336   0.768   1.144   4.747
  434SOL    HW1 1337   0.690   1.161   4.807
  434SOL    HW2 1338   0.802   1.231   4.711
  435SOL     OW 1339   0.685   1.012   4.389
  435SOL    HW1 1340   0.754   0.996   4.459
  435SOL    HW2 1341   0.612   1.069   4.427
  436SOL     OW 1342   0.335   1.435   4.785
  436SOL    HW1 1343   0.257   1.404   4.732
  436SOL    HW2 1344   0.393   1.493   4.728
  437SOL     OW 1345   1.603   0.447   4.461
  437SOL    HW1 1346   1.529   0.493   4.411
  437SOL    HW2 1347   1.654   0.515   4.514
  438SOL     OW 1348   0.231   1.713   4.207
  438SOL    HW1 1349   0.265   1.790   4.261
  438SOL    HW2 1350   0.275   1.713   4.117
  439SOL     OW 1351   0.230   1.434   4.262
  439SOL    HW1 1352   0.204   1.530   4.262
  439SOL    HW2 1353   0.159   1.380   4.307
  440SOL     OW 1354   0.240   1.091   4.610
  440SOL    HW1 1355   0.254   1.007   4.662
  440SOL    HW2 1356   0.185   1.155   4.665
  441SOL     OW 1357   0.606   0.964   3.847
  441SOL    HW1 1358   0.613   1.048   3.793
  441SOL    HW2 1359   0.652   0.977   3.935
  442SOL     OW 1360   0.122   0.643   4.287
  442SOL    HW1 1361   0.077   0.555   4.304
  442SOL    HW2 1362   0.121   0.697   4.371
  443SOL     OW 1363   1.842   1.767   4.083
  443SOL    HW1 1364   1.896   1.738   4.163
  443SOL    HW2 1365   1.872   1.857   4.054
  444SOL     OW 1366   0.027   1.596   3.841
  444SOL    HW1 1367   0.008   1.500   3.862
  444SOL    HW2 1368  -0.006   1.654   3.916
  445SOL     OW 1369   1.689   0.922   4.336
  445SOL    HW1 1370   1.784   0.893   4.344
  445SOL    HW2 1371   1.681   0.987   4.261
  446SOL     OW 1372   1.641   1.108   4.156
  446SOL    HW1 1373   1.727   1.110   4.104
  446SOL    HW2 1374   1.655   1.155   4.244
  447SOL     OW 1375   0.113   0.737   5.321
  447SOL    HW1 1376   0.201   0.724   5.366
  447SOL    HW2 1377   0.100   0.834   5.299
  448SOL     OW 1378   0.613   1.365   4.450
  448SOL    HW1 1379   0.564   1.278   4.459
  448SOL    HW2 1380   0.590   1.408   4.363
  449SOL     OW 1381   0.809   0.004   4.226
  449SOL    HW1 1382   0.849   0.095   4.217
  449SOL    HW2 1383   0.709   0.012   4.232
  450SOL     OW 1384   0.197   0.976   4.988
  450SOL    HW1 1385   0.286   0.931   4.974
  450SOL    HW2 1386   0.124   0.911   4.969
  451SOL     OW 1387   1.525   0.999   3.914
  451SOL    HW1 1388   1.462   0.923   3.927
  451SOL    HW2 1389   1.573   1.017   4.000
  452SOL     OW 1390   1.466   1.417   4.677
  452SOL    HW1 1391   1.407   1.423   4.757
  452SOL    HW2 1392   1.451   1.329   4.631
  453SOL     OW 1393   1.667   1.714   4.296
  453SOL    HW1 1394   1.626   1.691   4.208
  453SOL    HW2 1395   1.649   1.640   4.361
  454SOL     OW 1396   0.598   0.729   3.994
  454SOL    HW1 1397   0.622   0.798   3.926
  454SOL    HW2 1398   0.520   0.762   4.048
  455SOL     OW 1399   1.281   0.345   4.668
  455SOL    HW1 1400   1.195   0.295   4.655
  455SOL    HW2 1401   1.343   0.291   4.724
  456SOL     OW 1402   1.576   1.662   4.031
  456SOL    HW1 1403   1.665   1.708   4.034
  456SOL    HW2 1404   1.555   1.638   3.936
  457SOL     OW 1405   0.991   0.410   4.966
  457SOL    HW1 1406   0.914   0.444   5.020
  457SOL    HW2 1407   0.957   0.359   4.887
  458SOL     OW 1408   1.041   0.701   4.153
  458SOL    HW1 1409   1.067   0.697   4.249
  458SOL    HW2 1410   0.956   0.650   4.139
  459SOL     OW 1411   0.076   0.811   4.513
  459SOL    HW1 1412   0.175   0.799   4.522
  459SOL    HW2 1413   0.052   0.906   4.534
  460SOL     OW 1414   0.130   1.821   5.295
  460SOL    HW1 1415   0.120   1.806   5.394
  460SOL    HW2 1416   0.044   1.857   5.259
  461SOL     OW 1417   0.865   0.348   3.919
  461SOL    HW1 1418   0.924   0.411   3.870
  461SOL    HW2 1419   0.884   0.254   3.890
  462SOL     OW 1420   1.362   1.144   4.269
  462SOL    HW1 1421   1.445   1.115   4.221
  462SOL    HW2 1422   1.313   1.211   4.213
  463SOL     OW 1423   0.550   0.196   4.609
  463SOL    HW1 1424   0.545   0.191   4.709
  463SOL    HW2 1425   0.552   0.292   4.580
  464SOL     OW 1426   1.008   1.456   4.201
  464SOL    HW1 1427   0.962   1.528   4.149
  464SOL    HW2 1428   1.004   1.476   4.299
  465SOL     OW 1429   0.351   1.801   4.577
  465SOL    HW1 1430   0.401   1.715   4.583
  465SOL    HW2 1431   0.416   1.878   4.574
  466SOL     OW 1432   1.795   1.066   4.597
  466SOL    HW1 1433   1.733   1.051   4.521
  466SOL    HW2 1434   1.743   1.077   4.682
  467SOL     OW 1435   0.321   0.943   3.966
  467SOL    HW1 1436   0.403   0.982   3.924
  467SOL    HW2 1437   0.294   0.861   3.917
  468SOL     OW 1438   1.458   0.735   4.452
  468SOL    HW1 1439   1.453   0.670   4.527
  468SOL    HW2 1440   1.538   0.794   4.465
  469SOL     OW 1441   1.111   1.776   3.961
  469SOL    HW1 1442   1.051   1.714   4.011
  469SOL    HW2 1443   1.142   1.732   3.876
  470SOL     OW 1444   1.632   1.377   3.805
  470SOL    HW1 1445   1.600   1.471   3.795
  470SOL    HW2 1446   1.556   1.314   3.793
  471SOL     OW 1447   0.464   1.743   4.047
  471SOL    HW1 1448   0.497   1.782   4.133
  471SOL    HW2 1449   0.540   1.736   3.982
  472SOL     OW 1450   1.400   0.107   4.150
  472SOL    HW1 1451   1.376   0.070   4.060
  472SOL    HW2 1452   1.499   0.123   4.154
  473SOL     OW 1453   0.249   1.785   4.965
  473SOL    HW1 1454   0.306   1.720   5.015
  473SOL    HW2 1455   0.233   1.752   4.872
  474SOL     OW 1456   0.940   1.698   4.628
  474SOL    HW1 1457   1.020   1.641   4.649
  474SOL    HW2 1458   0.891   1.658   4.551
  475SOL     OW 1459   0.382   0.700   4.204
  475SOL    HW1 1460   0.427   0.610   4.201
  475SOL    HW2 1461   0.288   0.689   4.237
  476SOL     OW 1462   0.614   0.122   3.841
  476SOL    HW1 1463   0.712   0.100   3.848
  476SOL    HW2 1464   0.583   0.105   3.748
  477SOL     OW 1465   0.803   1.402   4.648
  477SOL    HW1 1466   0.893   1.416   4.606
  477SOL    HW2 1467   0.732   1.404   4.577
  478SOL     OW 1468   0.922   0.503   4.623
  478SOL    HW1 1469   0.897   0.494   4.527
  478SOL    HW2 1470   0.970   0.421   4.654
  479SOL     OW 1471   0.539   0.064   4.236
  479SOL    HW1 1472   0.458   0.065   4.294
  479SOL    HW2 1473   0.542   0.147   4.181
  480SOL     OW 1474   1.434   1.188   3.765
  480SOL    HW1 1475   1.466   1.112   3.822
  480SOL    HW2 1476   1.342   1.215   3.795
  481SOL     OW 1477   0.297   0.035   3.895
  481SOL    HW1 1478   0.346   0.119   3.874
  481SOL    HW2 1479   0.359  -0.030   3.940
  482SOL     OW 1480   0.935   0.236   4.204
  482SOL    HW1 1481   0.887   0.277   4.126
  482SOL    HW2 1482   1.034   0.234   4.185
  483SOL     OW 1483   1.227   1.570   4.517
  483SOL    HW1 1484   1.248   1.644   4.452
  483SOL    HW2 1485   1.295   1.570   4.590
  484SOL     OW 1486   0.459   1.152   4.465
  484SOL    HW1 1487   0.388   1.125   4.530
  484SOL    HW2 1488   0.433   1.124   4.372
  485SOL     OW 1489   1.271   1.797   4.315
  485SOL    HW1 1490   1.315   1.861   4.251
  485SOL    HW2 1491   1.221   1.849   4.385
  486SOL     OW 1492   1.032   0.549   3.740
  486SOL    HW1 1493   0.991   0.631   3.701
  486SOL    HW2 1494   1.096   0.575   3.813
  487SOL     OW 1495   0.561   0.222   4.871
  487SOL    HW1 1496   0.599   0.138   4.908
  487SOL    HW2 1497   0.473   0.241   4.915
  488SOL     OW 1498   0.866   0.454   4.366
  488SOL    HW1 1499   0.834   0.526   4.304
  488SOL    HW2 1500   0.890   0.373   4.313
  489SOL     OW 1501   1.017   0.039   4.477
  489SOL    HW1 1502   0.945   0.044   4.408
  489SOL    HW2 1503   0.993  -0.030   4.546
  490SOL     OW 1504   1.429   1.173   4.591
  490SOL    HW1 1505   1.374   1.089   4.584
  490SOL    HW2 1506   1.455   1.202   4.499
  491SOL     OW 1507   1.466   0.590   4.716
  491SOL    HW1 1508   1.436   0.495   4.723
  491SOL    HW2 1509   1.539   0.606   4.782
  492SOL     OW 1510   1.857   0.833   4.101
  492SOL    HW1 1511   1.899   0.769   4.165
  492SOL    HW2 1512   1.819   0.782   4.023
  493SOL     OW 1513   0.488   1.385   3.898
  493SOL    HW1 1514   0.401   1.370   3.945
  493SOL    HW2 1515   0.471   1.411   3.803
  494SOL     OW 1516   1.664   1.280   4.381
  494SOL    HW1 1517   1.763   1.288   4.395
  494SOL    HW2 1518   1.619   1.364   4.412
  495SOL     OW 1519   1.390   0.575   3.802
  495SOL    HW1 1520   1.336   0.554   3.883
  495SOL    HW2 1521   1.481   0.534   3.811
  496SOL     OW 1522   0.527   0.256   4.052
  496SOL    HW1 1523   0.554   0.197   3.977
  496SOL    HW2 1524   0.527   0.351   4.021
  497SOL     OW 1525   1.111   1.195   4.824
  497SOL    HW1 1526   1.071   1.239   4.905
  497SOL    HW2 1527   1.070   1.232   4.741
  498SOL     OW 1528   1.638   1.099   4.803
  498SOL    HW1 1529   1.643   1.180   4.862
  498SOL    HW2 1530   1.552   1.101   4.752
  499SOL     OW 1531   0.705   1.050   4.092
  499SOL    HW1 1532   0.691   1.057   4.191
  499SOL    HW2 1533   0.789   0.999   4.074
  500SOL     OW 1534   0.410   0.813   4.975
  500SOL    HW1 1535   0.496   0.825   5.025
  500SOL    HW2 1536   0.368   0.726   5.002
  501SOL     OW 1537   1.274   0.386   4.986
  501SOL    HW1 1538   1.295   0.460   5.050
  501SOL    HW2 1539   1.185   0.403   4.943
  502SOL     OW 1540   0.367   1.100   4.225
  502SOL    HW1 1541   0.360   1.183   4.169
  502SOL    HW2 1542   0.371   1.020   4.165
  503SOL     OW 1543   0.566   0.537   4.589
  503SOL    HW1 1544   0.578   0.603   4.515
  503SOL    HW2 1545   0.612   0.571   4.672
  504SOL     OW 1546   1.252   1.348   4.112
  504SOL    HW1 1547   1.302   1.425   4.152
  504SOL    HW2 1548   1.157   1.350   4.144
  505SOL     OW 1549   1.272   1.445   4.866
  505SOL    HW1 1550   1.319   1.458   4.953
  505SOL    HW2 1551   1.206   1.371   4.875
  506SOL     OW 1552   1.582   0.639   4.196
  506SOL    HW1 1553   1.551   0.700   4.269
  506SOL    HW2 1554   1.632   0.691   4.127
  507SOL     OW 1555   0.354   1.510   5.053
  507SOL    HW1 1556   0.333   1.466   4.966
  507SOL    HW2 1557   0.451   1.536   5.056
  508SOL     OW 1558   0.573   0.870   4.753
  508SOL    HW1 1559   0.617   0.959   4.744
  508SOL    HW2 1560   0.510   0.870   4.830
  509SOL     OW 1561   1.360   0.862   4.769
  509SOL    HW1 1562   1.285   0.862   4.703
  509SOL    HW2 1563   1.397   0.770   4.778
  510SOL     OW 1564   1.209   0.525   3.999
  510SOL    HW1 1565   1.222   0.441   4.053
  510SOL    HW2 1566   1.180   0.599   4.059
  511SOL     OW 1567   0.307   0.213   4.955
  511SOL    HW1 1568   0.284   0.250   5.045
  511SOL    HW2 1569   0.277   0.118   4.949
  512SOL     OW 1570   0.037   1.310   5.006
  512SOL    HW1 1571   0.090   1.261   5.074
  512SOL    HW2 1572   0.059   1.408   5.011
  513SOL     OW 1573   0.732   0.634   4.788
  513SOL    HW1 1574   0.791   0.608   4.712
  513SOL    HW2 1575   0.704   0.730   4.777
  514SOL     OW 1576   0.307   0.063   4.342
  514SOL    HW1 1577   0.296   0.157   4.375
  514SOL    HW2 1578   0.302   0.000   4.419
  515SOL     OW 1579   1.622   0.367   4.098
  515SOL    HW1 1580   1.624   0.291   4.162
  515SOL    HW2 1581   1.574   0.444   4.138
  516SOL     OW 1582   1.023   0.766   4.690
  516SOL    HW1 1583   1.038   0.787   4.786
  516SOL    HW2 1584   0.993   0.671   4.681
  517SOL     OW 1585   1.540   0.274   3.849
  517SOL    HW1 1586   1.479   0.199   3.872
  517SOL    HW2 1587   1.562   0.326   3.932
  518SOL     OW 1588   1.303   0.838   3.766
  518SOL    HW1 1589   1.337   0.745   3.781
  518SOL    HW2 1590   1.321   0.865   3.671
  519SOL     OW 1591   1.068   1.333   4.573
  519SOL    HW1 1592   1.075   1.249   4.518
  519SOL    HW2 1593   1.130   1.402   4.537
  520SOL     OW 1594   0.319   0.810   4.673
  520SOL    HW1 1595   0.412   0.846   4.678
  520SOL    HW2 1596   0.313   0.725   4.725
  521SOL     OW 1597   0.339   0.509   4.730
  521SOL    HW1 1598   0.287   0.426   4.713
  521SOL    HW2 1599   0.416   0.514   4.666
  522SOL     OW 1600   1.160   0.207   5.201
  522SOL    HW1 1601   1.160   0.271   5.278
  522SOL    HW2 1602   1.188   0.255   5.118
  523SOL     OW 1603   0.008   1.326   3.924
  523SOL    HW1 1604  -0.085   1.347   3.893
  523SOL    HW2 1605   0.018   1.227   3.937
  524SOL     OW 1606   0.088   1.801   4.651
  524SOL    HW1 1607   0.046   1.715   4.624
  524SOL    HW2 1608   0.182   1.804   4.617
  525SOL     OW 1609   0.504   1.568   4.634
  525SOL    HW1 1610   0.570   1.642   4.643
  525SOL    HW2 1611   0.548   1.489   4.592
  526SOL     OW 1612   1.002   0.796   4.962
  526SOL    HW1 1613   1.043   0.764   5.048
  526SOL    HW2 1614   0.906   0.769   4.959
  527SOL     OW 1615   0.040   0.544   4.838
  527SOL    HW1 1616   0.125   0.511   4.797
  527SOL    HW2 1617   0.053   0.559   4.936
  528SOL     OW 1618   0.815   0.572   4.049
  528SOL    HW1 1619   0.822   0.483   4.003
  528SOL    HW2 1620   0.721   0.606   4.041
  529SOL     OW 1621   1.657   0.604   4.930
  529SOL    HW1 1622   1.619   0.535   4.992
  529SOL    HW2 1623   1.739   0.568   4.886
  530SOL     OW 1624   0.671   0.464   4.993
  530SOL    HW1 1625   0.637   0.375   4.963
  530SOL    HW2 1626   0.697   0.518   4.913
  531SOL     OW 1627   0.930   1.678   5.189
  531SOL    HW1 1628   0.906   1.660   5.094
  531SOL    HW2 1629   0.960   1.772   5.199
  532SOL     OW 1630   0.473   0.500   3.915
  532SOL    HW1 1631   0.534   0.580   3.919
  532SOL    HW2 1632   0.378   0.531   3.922
  533SOL     OW 1633   1.347   1.059   4.958
  533SOL    HW1 1634   1.371   0.996   4.884
  533SOL    HW2 1635   1.257   1.099   4.940
  534SOL     OW 1636   1.302   0.855   4.033
  534SOL    HW1 1637   1.216   0.824   4.075
  534SOL    HW2 1638   1.298   0.841   3.934
  535SOL     OW 1639   1.759   1.747   4.878
  535SOL    HW1 1640   1.820   1.777   4.805
  535SOL    HW2 1641   1.721   1.658   4.856
  536SOL     OW 1642   1.252   1.731   4.852
  536SOL    HW1 1643   1.336   1.736   4.798
  536SOL    HW2 1644   1.229   1.635   4.870
  537SOL     OW 1645   0.083   1.258   4.746
  537SOL    HW1 1646   0.078   1.257   4.846
  537SOL    HW2 1647   0.000   1.217   4.708
  538SOL     OW 1648   1.726   0.135   4.247
  538SOL    HW1 1649   1.799   0.118   4.180
  538SOL    HW2 1650   1.695   0.048   4.285
  539SOL     OW 1651   1.388   1.573   4.201
  539SOL    HW1 1652   1.455   1.585   4.127
  539SOL    HW2 1653   1.348   1.662   4.224
  540SOL     OW 1654   1.280   0.927   4.396
  540SOL    HW1 1655   1.340   0.846   4.398
  540SOL    HW2 1656   1.320   0.996   4.336
  541SOL     OW 1657   0.672   1.616   3.878
  541SOL    HW1 1658   0.681   1.626   3.779
  541SOL    HW2 1659   0.632   1.527   3.899
  542SOL     OW 1660   1.650   1.720   5.118
  542SOL    HW1 1661   1.703   1.730   5.034
  542SOL    HW2 1662   1.623   1.810   5.152
  543SOL     OW 1663   1.841   0.175   4.687
  543SOL    HW1 1664   1.880   0.090   4.651
  543SOL    HW2 1665   1.743   0.177   4.668
  544SOL     OW 1666   0.263   0.326   4.444
  544SOL    HW1 1667   0.184   0.377   4.410
  544SOL    HW2 1668   0.254   0.311   4.542
  545SOL     OW 1669   1.194   1.612   3.755
  545SOL    HW1 1670   1.200   1.519   3.792
  545SOL    HW2 1671   1.135   1.612   3.675
  546SOL     OW 1672   0.822   1.002   5.096
  546SOL    HW1 1673   0.862   1.001   5.004
  546SOL    HW2 1674   0.832   1.094   5.136
  547SOL     OW 1675   0.916   0.910   4.015
  547SOL    HW1 1676   0.979   0.948   3.947
  547SOL    HW2 1677   0.956   0.827   4.054
  548SOL     OW 1678   1.504   1.607   3.768
  548SOL    HW1 1679   1.412   1.644   3.775
  548SOL    HW2 1680   1.542   1.627   3.678
  549SOL     OW 1681   1.039   1.098   4.420
  549SOL    HW1 1682   0.969   1.051   4.474
  549SOL    HW2 1683   1.098   1.030   4.377
  550SOL     OW 1684   1.014   0.236   4.695
  550SOL    HW1 1685   1.006   0.200   4.602
  550SOL    HW2 1686   1.012   0.160   4.760
  551SOL     OW 1687   0.590   1.487   4.215
  551SOL    HW1 1688   0.632   1.429   4.145
  551SOL    HW2 1689   0.546   1.566   4.171
  552SOL     OW 1690   1.709   0.385   5.105
  552SOL    HW1 1691   1.782   0.454   5.109
  552SOL    HW2 1692   1.737   0.310   5.046
  553SOL     OW 1693   0.255   1.348   4.014
  553SOL    HW1 1694   0.159   1.349   3.987
  553SOL    HW2 1695   0.267   1.401   4.098
  554SOL     OW 1696   0.075   0.345   3.757
  554SOL    HW1 1697  -0.017   0.317   3.728
  554SOL    HW2 1698   0.106   0.422   3.701
  555SOL     OW 1699   0.072   0.166   4.042
  555SOL    HW1 1700   0.055   0.249   3.988
  555SOL    HW2 1701   0.162   0.129   4.020
  556SOL     OW 1702   1.183   1.335   3.843
  556SOL    HW1 1703   1.084   1.324   3.845
  556SOL    HW2 1704   1.217   1.350   3.936
  557SOL     OW 1705   1.493   1.767   4.683
  557SOL    HW1 1706   1.526   1.831   4.614
  557SOL    HW2 1707   1.559   1.761   4.758
  558SOL     OW 1708   1.674   0.883   4.978
  558SOL    HW1 1709   1.647   0.794   4.941
  558SOL    HW2 1710   1.675   0.951   4.905
  559SOL     OW 1711   1.225   0.325   4.173
  559SOL    HW1 1712   1.290   0.251   4.162
  559SOL    HW2 1713   1.245   0.375   4.257
  560SOL     OW 1714   0.594   0.745   4.376
  560SOL    HW1 1715   0.644   0.830   4.357
  560SOL    HW2 1716   0.506   0.747   4.328
  561SOL     OW 1717   1.730   0.934   5.241
  561SOL    HW1 1718   1.768   1.025   5.256
  561SOL    HW2 1719   1.722   0.917   5.142
  562SOL     OW 1720   0.859   1.374   3.740
  562SOL    HW1 1721   0.813   1.389   3.828
  562SOL    HW2 1722   0.903   1.459   3.710
  563SOL     OW 1723   0.661   1.790   4.677
  563SOL    HW1 1724   0.615   1.878   4.664
  563SOL    HW2 1725   0.760   1.802   4.670
  564SOL     OW 1726   0.859   0.956   4.585
  564SOL    HW1 1727   0.913   0.887   4.633
  564SOL    HW2 1728   0.827   1.025   4.651
  565SOL     OW 1729   1.083   0.984   3.811
  565SOL    HW1 1730   1.060   1.037   3.729
  565SOL    HW2 1731   1.164   0.928   3.792
  566SOL     OW 1732   1.861   1.569   4.575
  566SOL    HW1 1733   1.790   1.557   4.505
  566SOL    HW2 1734   1.862   1.490   4.635
  567SOL     OW 1735   0.079   1.240   4.377
  567SOL    HW1 1736   0.078   1.193   4.465
  567SOL    HW2 1737   0.161   1.212   4.326
  568SOL     OW 1738   1.824   0.192   4.951
  568SOL    HW1 1739   1.820   0.102   4.995
  568SOL    HW2 1740   1.827   0.181   4.852
  569SOL     OW 1741   0.428   0.424   4.244
  569SOL    HW1 1742   0.458   0.352   4.182
  569SOL    HW2 1743   0.389   0.384   4.327
  570SOL     OW 1744   1.705   1.487   4.828
  570SOL    HW1 1745   1.612   1.462   4.801
  570SOL    HW2 1746   1.731   1.437   4.910
  571SOL     OW 1747   0.812   1.586   4.411
  571SOL    HW1 1748   0.844   1.596   4.317
  571SOL    HW2 1749   0.733   1.524   4.413
  572SOL     OW 1750   1.424   0.214   4.836
  572SOL    HW1 1751   1.476   0.149   4.891
  572SOL    HW2 1752   1.375   0.277   4.897
  573SOL     OW 1753   1.001   0.034   4.878
  573SOL    HW1 1754   0.938  -0.038   4.847
  573SOL    HW2 1755   1.094  -0.002   4.878
  574SOL     OW 1756   0.770   1.330   4.025
  574SOL    HW1 1757   0.724   1.243   4.042
  574SOL    HW2 1758   0.861   1.327   4.066
  575SOL     OW 1759   1.352   0.052   3.892
  575SOL    HW1 1760   1.387   0.011   3.808
  575SOL    HW2 1761   1.262   0.014   3.912
  576SOL     OW 1762   1.300   0.453   4.415
  576SOL    HW1 1763   1.241   0.533   4.419
  576SOL    HW2 1764   1.315   0.418   4.508
  577SOL     OW 1765   1.593   0.221   4.606
  577SOL    HW1 1766   1.509   0.220   4.660
  577SOL    HW2 1767   1.595   0.304   4.550
  578SOL     OW 1768   0.039   1.077   4.024
  578SOL    HW1 1769   0.138   1.066   4.015
  578SOL    HW2 1770  -0.001   0.991   4.056
  579SOL     OW 1771   0.875   1.646   4.061
  579SOL    HW1 1772   0.798   1.611   4.007
  579SOL    HW2 1773   0.843   1.717   4.123
  580SOL     OW 1774   0.230   2.490   0.113
  580SOL    HW1 1775   0.137   2.488   0.150
  580SOL    HW2 1776   0.231   2.451   0.021
  581SOL     OW 1777   0.225   2.137   0.996
  581SOL    HW1 1778   0.260   2.120   1.088
  581SOL    HW2 1779   0.137   2.092   0.984
  582SOL     OW 1780   0.019   2.230   0.647
  582SOL    HW1 1781  -0.063   2.273   0.686
  582SOL    HW2 1782  -0.009   2.157   0.584
  583SOL     OW 1783   0.569   3.137   1.165
  583SOL    HW1 1784   0.476   3.130   1.128
  583SOL    HW2 1785   0.580   3.226   1.209
  584SOL     OW 1786   1.555   3.373   0.703
  584SOL    HW1 1787   1.498   3.357   0.784
  584SOL    HW2 1788   1.496   3.383   0.623
  585SOL     OW 1789   1.135   2.565   0.717
  585SOL    HW1 1790   1.192   2.643   0.692
  585SOL    HW2 1791   1.075   2.591   0.793
  586SOL     OW 1792   1.755   2.469   0.231
  586SOL    HW1 1793   1.743   2.456   0.132
  586SOL    HW2 1794   1.725   2.388   0.280
  587SOL     OW 1795   0.768   3.006   1.023
  587SOL    HW1 1796   0.690   3.023   1.083
  587SOL    HW2 1797   0.802   3.093   0.987
  588SOL     OW 1798   0.850   2.660   1.823
  588SOL    HW1 1799   0.846   2.736   1.888
  588SOL    HW2 1800   0.872   2.696   1.732
  589SOL     OW 1801   0.685   2.874   0.665
  589SOL    HW1 1802   0.754   2.858   0.735
  589SOL    HW2 1803   0.612   2.931   0.703
  590SOL     OW 1804   0.686   3.023   1.803
  590SOL    HW1 1805   0.746   3.102   1.817
  590SOL    HW2 1806   0.600   3.054   1.762
  591SOL     OW 1807   0.335   3.297   1.061
  591SOL    HW1 1808   0.257   3.266   1.008
  591SOL    HW2 1809   0.393   3.355   1.004
  592SOL     OW 1810   1.460   3.367   1.339
  592SOL    HW1 1811   1.484   3.461   1.365
  592SOL    HW2 1812   1.444   3.313   1.421
  593SOL     OW 1813   0.438   2.254   1.499
  593SOL    HW1 1814   0.520   2.198   1.508
  593SOL    HW2 1815   0.357   2.196   1.503
  594SOL     OW 1816   1.603   2.309   0.737
  594SOL    HW1 1817   1.529   2.355   0.687
  594SOL    HW2 1818   1.654   2.377   0.790
  595SOL     OW 1819   0.231   3.575   0.483
  595SOL    HW1 1820   0.265   3.652   0.537
  595SOL    HW2 1821   0.275   3.575   0.393
  596SOL     OW 1822   1.127   3.203   1.690
  596SOL    HW1 1823   1.174   3.203   1.778
  596SOL    HW2 1824   1.079   3.116   1.679
  597SOL     OW 1825   0.230   3.296   0.538
  597SOL    HW1 1826   0.204   3.392   0.538
  597SOL    HW2 1827   0.159   3.242   0.583
  598SOL     OW 1828   0.240   2.953   0.886
  598SOL    HW1 1829   0.254   2.869   0.938
  598SOL    HW2 1830   0.185   3.017   0.941
  599SOL     OW 1831   0.620   3.648   1.439
  599SOL    HW1 1832   0.528   3.631   1.474
  599SOL    HW2 1833   0.648   3.740   1.465
  600SOL     OW 1834   0.606   2.826   0.123
  600SOL    HW1 1835   0.613   2.910   0.069
  600SOL    HW2 1836   0.652   2.839   0.211
  601SOL     OW 1837   1.594   1.976   1.480
  601SOL    HW1 1838   1.576   2.043   1.408
  601SOL    HW2 1839   1.591   2.022   1.569
  602SOL     OW 1840   0.122   2.505   0.563
  602SOL    HW1 1841   0.077   2.417   0.580
  602SOL    HW2 1842   0.121   2.559   0.647
  603SOL     OW 1843   1.842   3.629   0.359
  603SOL    HW1 1844   1.896   3.600   0.439
  603SOL    HW2 1845   1.872   3.719   0.330
  604SOL     OW 1846   0.027   3.458   0.117
  604SOL    HW1 1847   0.008   3.362   0.138
  604SOL    HW2 1848  -0.006   3.516   0.192
  605SOL     OW 1849   1.689   2.784   0.612
  605SOL    HW1 1850   1.784   2.755   0.620
  605SOL    HW2 1851   1.681   2.849   0.537
  606SOL     OW 1852   1.641   2.970   0.432
  606SOL    HW1 1853   1.727   2.972   0.380
  606SOL    HW2 1854   1.655   3.017   0.520
  607SOL     OW 1855   0.113   2.599   1.597
  607SOL    HW1 1856   0.201   2.586   1.642
  607SOL    HW2 1857   0.100   2.696   1.575
  608SOL     OW 1858   0.613   3.227   0.726
  608SOL    HW1 1859   0.564   3.140   0.735
  608SOL    HW2 1860   0.590   3.270   0.639
  609SOL     OW 1861   1.293   3.090   1.423
  609SOL    HW1 1862   1.330   3.017   1.365
  609SOL    HW2 1863   1.345   3.095   1.508
  610SOL     OW 1864   0.809   1.866   0.502
  610SOL    HW1 1865   0.849   1.957   0.493
  610SOL    HW2 1866   0.709   1.874   0.508
  611SOL     OW 1867   0.197   2.838   1.264
  611SOL    HW1 1868   0.286   2.793   1.250
  611SOL    HW2 1869   0.124   2.773   1.245
  612SOL     OW 1870   1.525   2.861   0.190
  612SOL    HW1 1871   1.462   2.785   0.203
  612SOL    HW2 1872   1.573   2.879   0.276
  613SOL     OW 1873   1.187   3.654   1.616
  613SOL    HW1 1874   1.211   3.714   1.540
  613SOL    HW2 1875   1.194   3.559   1.586
  614SOL     OW 1876   0.317   2.113   1.801
  614SOL    HW1 1877   0.388   2.184   1.807
  614SOL    HW2 1878   0.229   2.152   1.829
  615SOL     OW 1879   1.466   3.279   0.953
  615SOL    HW1 1880   1.407   3.285   1.033
  615SOL    HW2 1881   1.451   3.191   0.907
  616SOL     OW 1882   1.667   3.576   0.572
  616SOL    HW1 1883   1.626   3.553   0.484
  616SOL    HW2 1884   1.649   3.502   0.637
  617SOL     OW 1885   0.598   2.591   0.270
  617SOL    HW1 1886   0.622   2.660   0.202
  617SOL    HW2 1887   0.520   2.624   0.324
  618SOL     OW 1888   1.281   2.207   0.944
  618SOL    HW1 1889   1.195   2.157   0.931
  618SOL    HW2 1890   1.343   2.153   1.000
  619SOL     OW 1891   1.576   3.524   0.307
  619SOL    HW1 1892   1.665   3.570   0.310
  619SOL    HW2 1893   1.555   3.500   0.212
  620SOL     OW 1894   0.807   2.467   1.465
  620SOL    HW1 1895   0.760   2.464   1.554
  620SOL    HW2 1896   0.756   2.412   1.399
  621SOL     OW 1897   1.394   2.331   1.674
  621SOL    HW1 1898   1.374   2.374   1.762
  621SOL    HW2 1899   1.472   2.269   1.683
  622SOL     OW 1900   0.973   2.752   1.572
  622SOL    HW1 1901   1.019   2.668   1.543
  622SOL    HW2 1902   0.917   2.786   1.497
  623SOL     OW 1903   0.991   2.272   1.242
  623SOL    HW1 1904   0.914   2.306   1.296
  623SOL    HW2 1905   0.957   2.221   1.163
  624SOL     OW 1906   1.041   2.563   0.429
  624SOL    HW1 1907   1.067   2.559   0.525
  624SOL    HW2 1908   0.956   2.512   0.415
  625SOL     OW 1909   0.076   2.673   0.789
  625SOL    HW1 1910   0.175   2.661   0.798
  625SOL    HW2 1911   0.052   2.768   0.810
  626SOL     OW 1912   0.130   3.683   1.571
  626SOL    HW1 1913   0.120   3.668   1.670
  626SOL    HW2 1914   0.044   3.719   1.535
  627SOL     OW 1915   0.865   2.210   0.195
  627SOL    HW1 1916   0.924   2.273   0.146
  627SOL    HW2 1917   0.884   2.116   0.166
  628SOL     OW 1918   1.719   2.447   1.831
  628SOL    HW1 1919   1.693   2.536   1.795
  628SOL    HW2 1920   1.717   2.379   1.758
  629SOL     OW 1921   1.362   3.006   0.545
  629SOL    HW1 1922   1.445   2.977   0.497
  629SOL    HW2 1923   1.313   3.073   0.489
  630SOL     OW 1924   0.550   2.058   0.885
  630SOL    HW1 1925   0.545   2.053   0.985
  630SOL    HW2 1926   0.552   2.154   0.856
  631SOL     OW 1927   1.008   3.318   0.477
  631SOL    HW1 1928   0.962   3.390   0.425
  631SOL    HW2 1929   1.004   3.338   0.575
  632SOL     OW 1930   0.351   3.663   0.853
  632SOL    HW1 1931   0.401   3.577   0.859
  632SOL    HW2 1932   0.416   3.740   0.850
  633SOL     OW 1933   1.795   2.928   0.873
  633SOL    HW1 1934   1.733   2.913   0.797
  633SOL    HW2 1935   1.743   2.939   0.958
  634SOL     OW 1936   1.227   3.412   1.506
  634SOL    HW1 1937   1.233   3.335   1.570
  634SOL    HW2 1938   1.175   3.386   1.426
  635SOL     OW 1939   0.321   2.805   0.242
  635SOL    HW1 1940   0.403   2.844   0.200
  635SOL    HW2 1941   0.294   2.723   0.193
  636SOL     OW 1942   1.458   2.597   0.728
  636SOL    HW1 1943   1.453   2.532   0.803
  636SOL    HW2 1944   1.538   2.656   0.741
  637SOL     OW 1945   0.461   3.128   1.727
  637SOL    HW1 1946   0.411   3.129   1.641
  637SOL    HW2 1947   0.398   3.110   1.803
  638SOL     OW 1948   1.111   3.638   0.237
  638SOL    HW1 1949   1.051   3.576   0.287
  638SOL    HW2 1950   1.142   3.594   0.152
  639SOL     OW 1951   0.202   2.147   1.498
  639SOL    HW1 1952   0.122   2.207   1.485
  639SOL    HW2 1953   0.192   2.098   1.584
  640SOL     OW 1954   1.632   3.239   0.081
  640SOL    HW1 1955   1.600   3.333   0.071
  640SOL    HW2 1956   1.556   3.176   0.069
  641SOL     OW 1957   0.464   3.605   0.323
  641SOL    HW1 1958   0.497   3.644   0.409
  641SOL    HW2 1959   0.540   3.598   0.258
  642SOL     OW 1960   1.400   1.969   0.426
  642SOL    HW1 1961   1.376   1.932   0.336
  642SOL    HW2 1962   1.499   1.985   0.430
  643SOL     OW 1963   0.249   3.647   1.241
  643SOL    HW1 1964   0.306   3.582   1.291
  643SOL    HW2 1965   0.233   3.614   1.148
  644SOL     OW 1966   0.940   3.560   0.904
  644SOL    HW1 1967   1.020   3.503   0.925
  644SOL    HW2 1968   0.891   3.520   0.827
  645SOL     OW 1969   0.382   2.562   0.480
  645SOL    HW1 1970   0.427   2.472   0.477
  645SOL    HW2 1971   0.288   2.551   0.513
  646SOL     OW 1972   1.547   2.084   1.729
  646SOL    HW1 1973   1.542   2.121   1.821
  646SOL    HW2 1974   1.475   2.015   1.717
  647SOL     OW 1975   0.614   1.984   0.117
  647SOL    HW1 1976   0.712   1.962   0.124
  647SOL    HW2 1977   0.583   1.967   0.024
  648SOL     OW 1978   0.781   2.126   1.749
  648SOL    HW1 1979   0.848   2.065   1.792
  648SOL    HW2 1980   0.708   2.145   1.814
  649SOL     OW 1981   0.888   3.376   1.195
  649SOL    HW1 1982   0.865   3.351   1.101
  649SOL    HW2 1983   0.949   3.307   1.234
  650SOL     OW 1984   1.351   2.452   1.433
  650SOL    HW1 1985   1.379   2.409   1.518
  650SOL    HW2 1986   1.376   2.548   1.434
  651SOL     OW 1987   0.803   3.264   0.924
  651SOL    HW1 1988   0.893   3.278   0.882
  651SOL    HW2 1989   0.732   3.266   0.853
  652SOL     OW 1990   0.922   2.365   0.899
  652SOL    HW1 1991   0.897   2.356   0.803
  652SOL    HW2 1992   0.970   2.283   0.930
  653SOL     OW 1993   0.539   1.926   0.512
  653SOL    HW1 1994   0.458   1.927   0.570
  653SOL    HW2 1995   0.542   2.009   0.457
  654SOL     OW 1996   1.434   3.050   0.041
  654SOL    HW1 1997   1.466   2.974   0.098
  654SOL    HW2 1998   1.342   3.077   0.071
  655SOL     OW 1999   0.297   1.897   0.171
  655SOL    HW1 2000   0.346   1.981   0.150
  655SOL    HW2 2001   0.359   1.832   0.216
  656SOL     OW 2002   0.935   2.098   0.480
  656SOL    HW1 2003   0.887   2.139   0.402
  656SOL    HW2 2004   1.034   2.096   0.461
  657SOL     OW 2005   1.076   2.545   1.464
  657SOL    HW1 2006   0.996   2.484   1.467
  657SOL    HW2 2007   1.157   2.492   1.440
  658SOL     OW 2008   1.227   3.432   0.793
  658SOL    HW1 2009   1.248   3.506   0.728
  658SOL    HW2 2010   1.295   3.432   0.866
  659SOL     OW 2011   0.459   3.014   0.741
  659SOL    HW1 2012   0.388   2.987   0.806
  659SOL    HW2 2013   0.433   2.986   0.648
  660SOL     OW 2014   1.271   3.659   0.591
  660SOL    HW1 2015   1.315   3.723   0.527
  660SOL    HW2 2016   1.221   3.711   0.661
  661SOL     OW 2017   1.032   2.411   0.016
  661SOL    HW1 2018   0.991   2.493  -0.023
  661SOL    HW2 2019   1.096   2.437   0.089
  662SOL     OW 2020   0.078   2.418   1.386
  662SOL    HW1 2021   0.170   2.417   1.345
  662SOL    HW2 2022   0.072   2.492   1.453
  663SOL     OW 2023   0.561   2.084   1.147
  663SOL    HW1 2024   0.599   2.000   1.184
  663SOL    HW2 2025   0.473   2.103   1.191
  664SOL     OW 2026   0.866   2.316   0.642
  664SOL    HW1 2027   0.834   2.388   0.580
  664SOL    HW2 2028   0.890   2.235   0.589
  665SOL     OW 2029   1.017   1.901   0.753
  665SOL    HW1 2030   0.945   1.906   0.684
  665SOL    HW2 2031   0.993   1.832   0.822
  666SOL     OW 2032   1.429   3.035   0.867
  666SOL    HW1 2033   1.374   2.951   0.860
  666SOL    HW2 2034   1.455   3.064   0.775
  667SOL     OW 2035   1.466   2.452   0.992
  667SOL    HW1 2036   1.436   2.357   0.999
  667SOL    HW2 2037   1.539   2.468   1.058
  668SOL     OW 2038   1.857   2.695   0.377
  668SOL    HW1 2039   1.899   2.631   0.441
  668SOL    HW2 2040   1.819   2.644   0.299
  669SOL     OW 2041   0.488   3.247   0.174
  669SOL    HW1 2042   0.401   3.232   0.221
  669SOL    HW2 2043   0.471   3.273   0.079
  670SOL     OW 2044   1.664   3.142   0.657
  670SOL    HW1 2045   1.763   3.150   0.671
  670SOL    HW2 2046   1.619   3.226   0.688
  671SOL     OW 2047   1.390   2.437   0.078
  671SOL    HW1 2048   1.336   2.416   0.159
  671SOL    HW2 2049   1.481   2.396   0.087
  672SOL     OW 2050   0.527   2.118   0.328
  672SOL    HW1 2051   0.554   2.059   0.253
  672SOL    HW2 2052   0.527   2.213   0.297
  673SOL     OW 2053   1.754   3.085   1.588
  673SOL    HW1 2054   1.845   3.046   1.575
  673SOL    HW2 2055   1.762   3.181   1.612
  674SOL     OW 2056   1.064   3.209   1.340
  674SOL    HW1 2057   0.984   3.186   1.395
  674SOL    HW2 2058   1.147   3.183   1.389
  675SOL     OW 2059   1.592   3.491   1.625
  675SOL    HW1 2060   1.619   3.525   1.535
  675SOL    HW2 2061   1.671   3.453   1.671
  676SOL     OW 2062   1.111   3.057   1.100
  676SOL    HW1 2063   1.071   3.101   1.181
  676SOL    HW2 2064   1.070   3.094   1.017
  677SOL     OW 2065   1.638   2.961   1.079
  677SOL    HW1 2066   1.643   3.042   1.138
  677SOL    HW2 2067   1.552   2.963   1.028
  678SOL     OW 2068   0.915   1.951   1.402
  678SOL    HW1 2069   0.940   1.931   1.307
  678SOL    HW2 2070   0.987   2.007   1.444
  679SOL     OW 2071   0.980   2.978   1.719
  679SOL    HW1 2072   0.881   2.984   1.729
  679SOL    HW2 2073   1.003   2.898   1.663
  680SOL     OW 2074   0.705   2.912   0.368
  680SOL    HW1 2075   0.691   2.919   0.467
  680SOL    HW2 2076   0.789   2.861   0.350
  681SOL     OW 2077   0.410   2.675   1.251
  681SOL    HW1 2078   0.496   2.687   1.301
  681SOL    HW2 2079   0.368   2.588   1.278
  682SOL     OW 2080   1.274   2.248   1.262
  682SOL    HW1 2081   1.295   2.322   1.326
  682SOL    HW2 2082   1.185   2.265   1.219
  683SOL     OW 2083   0.064   3.426   1.331
  683SOL    HW1 2084   0.018   3.508   1.297
  683SOL    HW2 2085   0.162   3.445   1.340
  684SOL     OW 2086   0.367   2.962   0.501
  684SOL    HW1 2087   0.360   3.045   0.445
  684SOL    HW2 2088   0.371   2.882   0.441
  685SOL     OW 2089   0.566   2.399   0.865
  685SOL    HW1 2090   0.578   2.465   0.791
  685SOL    HW2 2091   0.612   2.433   0.948
  686SOL     OW 2092   1.252   3.210   0.388
  686SOL    HW1 2093   1.302   3.287   0.428
  686SOL    HW2 2094   1.157   3.212   0.420
  687SOL     OW 2095   1.272   3.307   1.142
  687SOL    HW1 2096   1.319   3.320   1.229
  687SOL    HW2 2097   1.206   3.233   1.151
  688SOL     OW 2098   1.582   2.501   0.472
  688SOL    HW1 2099   1.551   2.562   0.545
  688SOL    HW2 2100   1.632   2.553   0.403
  689SOL     OW 2101   0.354   3.372   1.329
  689SOL    HW1 2102   0.333   3.328   1.242
  689SOL    HW2 2103   0.451   3.398   1.332
  690SOL     OW 2104   0.402   2.613   1.598
  690SOL    HW1 2105   0.470   2.668   1.551
  690SOL    HW2 2106   0.442   2.525   1.625
  691SOL     OW 2107   1.587   2.641   1.670
  691SOL    HW1 2108   1.495   2.679   1.665
  691SOL    HW2 2109   1.647   2.688   1.605
  692SOL     OW 2110   1.013   1.967   1.770
  692SOL    HW1 2111   1.019   2.052   1.718
  692SOL    HW2 2112   1.045   1.891   1.713
  693SOL     OW 2113   0.504   1.912   1.740
  693SOL    HW1 2114   0.462   1.855   1.670
  693SOL    HW2 2115   0.438   1.981   1.772
  694SOL     OW 2116   0.573   2.732   1.029
  694SOL    HW1 2117   0.617   2.821   1.020
  694SOL    HW2 2118   0.510   2.732   1.106
  695SOL     OW 2119   1.360   2.724   1.045
  695SOL    HW1 2120   1.285   2.724   0.979
  695SOL    HW2 2121   1.397   2.632   1.054
  696SOL     OW 2122   1.209   2.387   0.275
  696SOL    HW1 2123   1.222   2.303   0.329
  696SOL    HW2 2124   1.180   2.461   0.335
  697SOL     OW 2125   0.307   2.075   1.231
  697SOL    HW1 2126   0.284   2.112   1.321
  697SOL    HW2 2127   0.277   1.980   1.225
  698SOL     OW 2128   0.037   3.172   1.282
  698SOL    HW1 2129   0.090   3.123   1.350
  698SOL    HW2 2130   0.059   3.270   1.287
  699SOL     OW 2131   0.732   2.496   1.064
  699SOL    HW1 2132   0.791   2.470   0.988
  699SOL    HW2 2133   0.704   2.592   1.053
  700SOL     OW 2134   1.728   2.797   1.854
  700SOL    HW1 2135   1.682   2.790   1.765
  700SOL    HW2 2136   1.666   2.841   1.920
  701SOL     OW 2137   0.307   1.925   0.618
  701SOL    HW1 2138   0.296   2.019   0.651
  701SOL    HW2 2139   0.302   1.862   0.695
  702SOL     OW 2140   1.622   2.229   0.374
  702SOL    HW1 2141   1.624   2.153   0.438
  702SOL    HW2 2142   1.574   2.306   0.414
  703SOL     OW 2143   1.023   2.628   0.966
  703SOL    HW1 2144   1.038   2.649   1.062
  703SOL    HW2 2145   0.993   2.533   0.957
  704SOL     OW 2146   0.980   3.435   1.700
  704SOL    HW1 2147   0.960   3.479   1.612
  704SOL    HW2 2148   1.019   3.344   1.684
  705SOL     OW 2149   1.859   3.380   1.605
  705SOL    HW1 2150   1.873   3.407   1.510
  705SOL    HW2 2151   1.942   3.402   1.658
  706SOL     OW 2152   0.350   2.760   1.804
  706SOL    HW1 2153   0.426   2.804   1.852
  706SOL    HW2 2154   0.385   2.713   1.722
  707SOL     OW 2155   1.540   2.136   0.125
  707SOL    HW1 2156   1.479   2.061   0.148
  707SOL    HW2 2157   1.562   2.188   0.208
  708SOL     OW 2158   1.303   2.700   0.042
  708SOL    HW1 2159   1.337   2.607   0.057
  708SOL    HW2 2160   1.321   2.727  -0.053
  709SOL     OW 2161   1.068   3.195   0.849
  709SOL    HW1 2162   1.075   3.111   0.794
  709SOL    HW2 2163   1.130   3.264   0.813
  710SOL     OW 2164   0.319   2.672   0.949
  710SOL    HW1 2165   0.412   2.708   0.954
  710SOL    HW2 2166   0.313   2.587   1.001
  711SOL     OW 2167   0.339   2.371   1.006
  711SOL    HW1 2168   0.287   2.288   0.989
  711SOL    HW2 2169   0.416   2.376   0.942
  712SOL     OW 2170   1.138   2.242   1.678
  712SOL    HW1 2171   1.093   2.305   1.742
  712SOL    HW2 2172   1.231   2.273   1.661
  713SOL     OW 2173   1.160   2.069   1.477
  713SOL    HW1 2174   1.160   2.133   1.554
  713SOL    HW2 2175   1.188   2.117   1.394
  714SOL     OW 2176   0.008   3.188   0.200
  714SOL    HW1 2177  -0.085   3.209   0.169
  714SOL    HW2 2178   0.018   3.089   0.213
  715SOL     OW 2179   0.088   3.663   0.927
  715SOL    HW1 2180   0.046   3.577   0.900
  715SOL    HW2 2181   0.182   3.666   0.893
  716SOL     OW 2182   0.504   3.430   0.910
  716SOL    HW1 2183   0.570   3.504   0.919
  716SOL    HW2 2184   0.548   3.351   0.868
  717SOL     OW 2185   1.002   2.658   1.238
  717SOL    HW1 2186   1.043   2.626   1.324
  717SOL    HW2 2187   0.906   2.631   1.235
  718SOL     OW 2188   0.040   2.406   1.114
  718SOL    HW1 2189   0.125   2.373   1.073
  718SOL    HW2 2190   0.053   2.421   1.212
  719SOL     OW 2191   0.189   2.382   1.722
  719SOL    HW1 2192   0.248   2.342   1.652
  719SOL    HW2 2193   0.131   2.453   1.681
  720SOL     OW 2194   1.369   2.812   1.660
  720SOL    HW1 2195   1.408   2.901   1.680
  720SOL    HW2 2196   1.379   2.792   1.563
  721SOL     OW 2197   0.815   2.434   0.325
  721SOL    HW1 2198   0.822   2.345   0.279
  721SOL    HW2 2199   0.721   2.468   0.317
  722SOL     OW 2200   1.657   2.466   1.206
  722SOL    HW1 2201   1.619   2.397   1.268
  722SOL    HW2 2202   1.739   2.430   1.162
  723SOL     OW 2203   0.252   3.426   1.744
  723SOL    HW1 2204   0.222   3.483   1.820
  723SOL    HW2 2205   0.245   3.329   1.770
  724SOL     OW 2206   0.671   2.326   1.269
  724SOL    HW1 2207   0.637   2.237   1.239
  724SOL    HW2 2208   0.697   2.380   1.189
  725SOL     OW 2209   0.930   3.540   1.465
  725SOL    HW1 2210   0.906   3.522   1.370
  725SOL    HW2 2211   0.960   3.634   1.475
  726SOL     OW 2212   0.473   2.362   0.191
  726SOL    HW1 2213   0.534   2.442   0.195
  726SOL    HW2 2214   0.378   2.393   0.198
  727SOL     OW 2215   0.159   2.999   1.466
  727SOL    HW1 2216   0.181   2.938   1.542
  727SOL    HW2 2217   0.169   2.950   1.380
  728SOL     OW 2218   1.347   2.921   1.234
  728SOL    HW1 2219   1.371   2.858   1.160
  728SOL    HW2 2220   1.257   2.961   1.216
  729SOL     OW 2221   1.302   2.717   0.309
  729SOL    HW1 2222   1.216   2.686   0.351
  729SOL    HW2 2223   1.298   2.703   0.210
  730SOL     OW 2224   1.759   3.609   1.154
  730SOL    HW1 2225   1.820   3.639   1.081
  730SOL    HW2 2226   1.721   3.520   1.132
  731SOL     OW 2227   1.252   3.593   1.128
  731SOL    HW1 2228   1.336   3.598   1.074
  731SOL    HW2 2229   1.229   3.497   1.146
  732SOL     OW 2230   0.083   3.120   1.022
  732SOL    HW1 2231   0.078   3.119   1.122
  732SOL    HW2 2232   0.000   3.079   0.984
  733SOL     OW 2233   0.688   3.524   1.716
  733SOL    HW1 2234   0.632   3.605   1.725
  733SOL    HW2 2235   0.740   3.528   1.630
  734SOL     OW 2236   0.903   1.948   0.133
  734SOL    HW1 2237   0.954   1.949   0.047
  734SOL    HW2 2238   0.959   1.906   0.204
  735SOL     OW 2239   1.726   1.997   0.523
  735SOL    HW1 2240   1.799   1.980   0.456
  735SOL    HW2 2241   1.695   1.910   0.561
  736SOL     OW 2242   1.388   3.435   0.477
  736SOL    HW1 2243   1.455   3.447   0.403
  736SOL    HW2 2244   1.348   3.524   0.500
  737SOL     OW 2245   0.130   3.656   1.851
  737SOL    HW1 2246   0.089   3.582   1.904
  737SOL    HW2 2247   0.194   3.707   1.909
  738SOL     OW 2248   1.280   2.789   0.672
  738SOL    HW1 2249   1.340   2.708   0.674
  738SOL    HW2 2250   1.320   2.858   0.612
  739SOL     OW 2251   0.830   3.135   1.422
  739SOL    HW1 2252   0.825   3.168   1.517
  739SOL    HW2 2253   0.744   3.154   1.376
  740SOL     OW 2254   0.672   3.478   0.154
  740SOL    HW1 2255   0.681   3.488   0.055
  740SOL    HW2 2256   0.632   3.389   0.175
  741SOL     OW 2257   1.650   3.582   1.394
  741SOL    HW1 2258   1.703   3.592   1.310
  741SOL    HW2 2259   1.623   3.672   1.428
  742SOL     OW 2260   1.841   2.037   0.963
  742SOL    HW1 2261   1.880   1.952   0.927
  742SOL    HW2 2262   1.743   2.039   0.944
  743SOL     OW 2263   0.263   2.188   0.720
  743SOL    HW1 2264   0.184   2.239   0.686
  743SOL    HW2 2265   0.254   2.173   0.818
  744SOL     OW 2266   1.194   3.474   0.031
  744SOL    HW1 2267   1.200   3.381   0.068
  744SOL    HW2 2268   1.135   3.474  -0.049
  745SOL     OW 2269   0.822   2.864   1.372
  745SOL    HW1 2270   0.862   2.863   1.280
  745SOL    HW2 2271   0.832   2.956   1.412
  746SOL     OW 2272   0.916   2.772   0.291
  746SOL    HW1 2273   0.979   2.810   0.223
  746SOL    HW2 2274   0.956   2.689   0.330
  747SOL     OW 2275   1.504   3.469   0.044
  747SOL    HW1 2276   1.412   3.506   0.051
  747SOL    HW2 2277   1.542   3.489  -0.046
  748SOL     OW 2278   0.372   3.150   1.490
  748SOL    HW1 2279   0.359   3.243   1.456
  748SOL    HW2 2280   0.288   3.098   1.477
  749SOL     OW 2281   1.614   3.154   1.289
  749SOL    HW1 2282   1.674   3.157   1.369
  749SOL    HW2 2283   1.539   3.218   1.302
  750SOL     OW 2284   1.039   2.960   0.696
  750SOL    HW1 2285   0.969   2.913   0.750
  750SOL    HW2 2286   1.098   2.892   0.653
  751SOL     OW 2287   1.014   2.098   0.971
  751SOL    HW1 2288   1.006   2.062   0.878
  751SOL    HW2 2289   1.012   2.022   1.036
  752SOL     OW 2290   0.590   3.349   0.491
  752SOL    HW1 2291   0.632   3.291   0.421
  752SOL    HW2 2292   0.546   3.428   0.447
  753SOL     OW 2293   1.709   2.247   1.381
  753SOL    HW1 2294   1.782   2.316   1.385
  753SOL    HW2 2295   1.737   2.172   1.322
  754SOL     OW 2296   0.255   3.210   0.290
  754SOL    HW1 2297   0.159   3.211   0.263
  754SOL    HW2 2298   0.267   3.263   0.374
  755SOL     OW 2299   0.105   2.875   1.726
  755SOL    HW1 2300   0.028   2.842   1.780
  755SOL    HW2 2301   0.190   2.845   1.768
  756SOL     OW 2302   0.672   2.065   1.489
  756SOL    HW1 2303   0.762   2.049   1.449
  756SOL    HW2 2304   0.680   2.070   1.588
  757SOL     OW 2305   0.075   2.207   0.033
  757SOL    HW1 2306  -0.017   2.179   0.004
  757SOL    HW2 2307   0.106   2.284  -0.023
  758SOL     OW 2308   1.440   2.718   1.398
  758SOL    HW1 2309   1.383   2.770   1.335
  758SOL    HW2 2310   1.536   2.730   1.374
  759SOL     OW 2311   0.072   2.028   0.318
  759SOL    HW1 2312   0.055   2.111   0.264
  759SOL    HW2 2313   0.162   1.991   0.296
  760SOL     OW 2314   1.183   3.197   0.119
  760SOL    HW1 2315   1.084   3.186   0.121
  760SOL    HW2 2316   1.217   3.212   0.212
  761SOL     OW 2317   0.613   2.704   1.431
  761SOL    HW1 2318   0.669   2.785   1.414
  761SOL    HW2 2319   0.672   2.624   1.434
  762SOL     OW 2320   1.493   3.629   0.959
  762SOL    HW1 2321   1.526   3.693   0.890
  762SOL    HW2 2322   1.559   3.623   1.034
  763SOL     OW 2323   0.716   2.427   1.708
  763SOL    HW1 2324   0.735   2.492   1.782
  763SOL    HW2 2325   0.776   2.347   1.717
  764SOL     OW 2326   1.450   3.082   1.633
  764SOL    HW1 2327   1.441   3.072   1.732
  764SOL    HW2 2328   1.546   3.075   1.607
  765SOL     OW 2329   0.390   3.603   1.560
  765SOL    HW1 2330   0.299   3.644   1.558
  765SOL    HW2 2331   0.383   3.509   1.592
  766SOL     OW 2332   1.674   2.745   1.254
  766SOL    HW1 2333   1.647   2.656   1.217
  766SOL    HW2 2334   1.675   2.813   1.181
  767SOL     OW 2335   1.225   2.187   0.449
  767SOL    HW1 2336   1.290   2.113   0.438
  767SOL    HW2 2337   1.245   2.237   0.533
  768SOL     OW 2338   0.594   2.607   0.652
  768SOL    HW1 2339   0.644   2.692   0.633
  768SOL    HW2 2340   0.506   2.609   0.604
  769SOL     OW 2341   1.777   2.204   1.642
  769SOL    HW1 2342   1.760   2.235   1.548
  769SOL    HW2 2343   1.693   2.167   1.680
  770SOL     OW 2344   1.730   2.796   1.517
  770SOL    HW1 2345   1.768   2.887   1.532
  770SOL    HW2 2346   1.722   2.779   1.418
  771SOL     OW 2347   0.859   3.236   0.016
  771SOL    HW1 2348   0.813   3.251   0.104
  771SOL    HW2 2349   0.903   3.321  -0.014
  772SOL     OW 2350   0.661   3.652   0.953
  772SOL    HW1 2351   0.615   3.740   0.940
  772SOL    HW2 2352   0.760   3.664   0.946
  773SOL     OW 2353   0.859   2.818   0.861
  773SOL    HW1 2354   0.913   2.749   0.909
  773SOL    HW2 2355   0.827   2.887   0.927
  774SOL     OW 2356   1.083   2.846   0.087
  774SOL    HW1 2357   1.060   2.899   0.005
  774SOL    HW2 2358   1.164   2.790   0.068
  775SOL     OW 2359   1.861   3.431   0.851
  775SOL    HW1 2360   1.790   3.419   0.781
  775SOL    HW2 2361   1.862   3.352   0.911
  776SOL     OW 2362   0.221   3.176   1.844
  776SOL    HW1 2363   0.156   3.103   1.823
  776SOL    HW2 2364   0.225   3.190   1.942
  777SOL     OW 2365   0.079   3.102   0.653
  777SOL    HW1 2366   0.078   3.055   0.741
  777SOL    HW2 2367   0.161   3.074   0.602
  778SOL     OW 2368   0.672   3.253   1.624
  778SOL    HW1 2369   0.594   3.203   1.662
  778SOL    HW2 2370   0.669   3.348   1.655
  779SOL     OW 2371   1.824   2.054   1.227
  779SOL    HW1 2372   1.820   1.964   1.271
  779SOL    HW2 2373   1.827   2.043   1.128
  780SOL     OW 2374   0.428   2.286   0.520
  780SOL    HW1 2375   0.458   2.214   0.458
  780SOL    HW2 2376   0.389   2.246   0.603
  781SOL     OW 2377   1.705   3.349   1.104
  781SOL    HW1 2378   1.612   3.324   1.077
  781SOL    HW2 2379   1.731   3.299   1.186
  782SOL     OW 2380   0.317   2.409   1.280
  782SOL    HW1 2381   0.355   2.350   1.352
  782SOL    HW2 2382   0.357   2.383   1.192
  783SOL     OW 2383   0.812   3.448   0.687
  783SOL    HW1 2384   0.844   3.458   0.593
  783SOL    HW2 2385   0.733   3.386   0.689
  784SOL     OW 2386   1.424   2.076   1.112
  784SOL    HW1 2387   1.476   2.011   1.167
  784SOL    HW2 2388   1.375   2.139   1.173
  785SOL     OW 2389   1.001   1.896   1.154
  785SOL    HW1 2390   0.938   1.824   1.123
  785SOL    HW2 2391   1.094   1.860   1.154
  786SOL     OW 2392   0.770   3.192   0.301
  786SOL    HW1 2393   0.724   3.105   0.318
  786SOL    HW2 2394   0.861   3.189   0.342
  787SOL     OW 2395   0.618   3.429   1.284
  787SOL    HW1 2396   0.613   3.511   1.341
  787SOL    HW2 2397   0.707   3.426   1.239
  788SOL     OW 2398   1.352   1.914   0.168
  788SOL    HW1 2399   1.387   1.873   0.084
  788SOL    HW2 2400   1.262   1.876   0.188
  789SOL     OW 2401   1.300   2.315   0.691
  789SOL    HW1 2402   1.241   2.395   0.695
  789SOL    HW2 2403   1.315   2.280   0.784
  790SOL     OW 2404   1.593   2.083   0.882
  790SOL    HW1 2405   1.509   2.082   0.936
  790SOL    HW2 2406   1.595   2.166   0.826
  791SOL     OW 2407   0.039   2.939   0.300
  791SOL    HW1 2408   0.138   2.928   0.291
  791SOL    HW2 2409  -0.001   2.853   0.332
  792SOL     OW 2410   0.875   3.508   0.337
  792SOL    HW1 2411   0.798   3.473   0.283
  792SOL    HW2 2412   0.843   3.579   0.399
  793SOL     OW 2413   0.230   2.490   1.975
  793SOL    HW1 2414   0.137   2.488   2.012
  793SOL    HW2 2415   0.231   2.451   1.883
  794SOL     OW 2416   0.225   2.137   2.858
  794SOL    HW1 2417   0.260   2.120   2.950
  794SOL    HW2 2418   0.137   2.092   2.846
  795SOL     OW 2419   0.019   2.230   2.509
  795SOL    HW1 2420  -0.063   2.273   2.548
  795SOL    HW2 2421  -0.009   2.157   2.446
  796SOL     OW 2422   0.569   3.137   3.027
  796SOL    HW1 2423   0.476   3.130   2.990
  796SOL    HW2 2424   0.580   3.226   3.071
  797SOL     OW 2425   1.555   3.373   2.565
  797SOL    HW1 2426   1.498   3.357   2.646
  797SOL    HW2 2427   1.496   3.383   2.485
  798SOL     OW 2428   1.135   2.565   2.579
  798SOL    HW1 2429   1.192   2.643   2.554
  798SOL    HW2 2430   1.075   2.591   2.655
  799SOL     OW 2431   1.755   2.469   2.093
  799SOL    HW1 2432   1.743   2.456   1.994
  799SOL    HW2 2433   1.725   2.388   2.142
  800SOL     OW 2434   0.768   3.006   2.885
  800SOL    HW1 2435   0.690   3.023   2.945
  800SOL    HW2 2436   0.802   3.093   2.849
  801SOL     OW 2437   0.850   2.660   3.685
  801SOL    HW1 2438   0.846   2.736   3.750
  801SOL    HW2 2439   0.872   2.696   3.594
  802SOL     OW 2440   0.685   2.874   2.527
  802SOL    HW1 2441   0.754   2.858   2.597
  802SOL    HW2 2442   0.612   2.931   2.565
  803SOL     OW 2443   0.686   3.023   3.665
  803SOL    HW1 2444   0.746   3.102   3.679
  803SOL    HW2 2445   0.600   3.054   3.624
  804SOL     OW 2446   0.335   3.297   2.923
  804SOL    HW1 2447   0.257   3.266   2.870
  804SOL    HW2 2448   0.393   3.355   2.866
  805SOL     OW 2449   1.460   3.367   3.201
  805SOL    HW1 2450   1.484   3.461   3.227
  805SOL    HW2 2451   1.444   3.313   3.283
  806SOL     OW 2452   0.438   2.254   3.361
  806SOL    HW1 2453   0.520   2.198   3.370
  806SOL    HW2 2454   0.357   2.196   3.365
  807SOL     OW 2455   1.603   2.309   2.599
  807SOL    HW1 2456   1.529   2.355   2.549
  807SOL    HW2 2457   1.654   2.377   2.652
  808SOL     OW 2458   0.231   3.575   2.345
  808SOL    HW1 2459   0.265   3.652   2.399
  808SOL    HW2 2460   0.275   3.575   2.255
  809SOL     OW 2461   1.127   3.203   3.552
  809SOL    HW1 2462   1.174   3.203   3.640
  809SOL    HW2 2463   1.079   3.116   3.541
  810SOL     OW 2464   0.230   3.296   2.400
  810SOL    HW1 2465   0.204   3.392   2.400
  810SOL    HW2 2466   0.159   3.242   2.445
  811SOL     OW 2467   0.240   2.953   2.748
  811SOL    HW1 2468   0.254   2.869   2.800
  811SOL    HW2 2469   0.185   3.017   2.803
  812SOL     OW 2470   0.620   3.648   3.301
  812SOL    HW1 2471   0.528   3.631   3.336
  812SOL    HW2 2472   0.648   3.740   3.327
  813SOL     OW 2473   0.606   2.826   1.985
  813SOL    HW1 2474   0.613   2.910   1.931
  813SOL    HW2 2475   0.652   2.839   2.073
  814SOL     OW 2476   1.594   1.976   3.342
  814SOL    HW1 2477   1.576   2.043   3.270
  814SOL    HW2 2478   1.591   2.022   3.431
  815SOL     OW 2479   0.122   2.505   2.425
  815SOL    HW1 2480   0.077   2.417   2.442
  815SOL    HW2 2481   0.121   2.559   2.509
  816SOL     OW 2482   1.842   3.629   2.221
  816SOL    HW1 2483   1.896   3.600   2.301
  816SOL    HW2 2484   1.872   3.719   2.192
  817SOL     OW 2485   0.027   3.458   1.979
  817SOL    HW1 2486   0.008   3.362   2.000
  817SOL    HW2 2487  -0.006   3.516   2.054
  818SOL     OW 2488   1.689   2.784   2.474
  818SOL    HW1 2489   1.784   2.755   2.482
  818SOL    HW2 2490   1.681   2.849   2.399
  819SOL     OW 2491   1.641   2.970   2.294
  819SOL    HW1 2492   1.727   2.972   2.242
  819SOL    HW2 2493   1.655   3.017   2.382
  820SOL     OW 2494   0.113   2.599   3.459
  820SOL    HW1 2495   0.201   2.586   3.504
  820SOL    HW2 2496   0.100   2.696   3.437
  821SOL     OW 2497   0.613   3.227   2.588
  821SOL    HW1 2498   0.564   3.140   2.597
  821SOL    HW2 2499   0.590   3.270   2.501
  822SOL     OW 2500   1.293   3.090   3.285
  822SOL    HW1 2501   1.330   3.017   3.227
  822SOL    HW2 2502   1.345   3.095   3.370
  823SOL     OW 2503   0.809   1.866   2.364
  823SOL    HW1 2504   0.849   1.957   2.355
  823SOL    HW2 2505   0.709   1.874   2.370
  824SOL     OW 2506   0.197   2.838   3.126
  824SOL    HW1 2507   0.286   2.793   3.112
  824SOL    HW2 2508   0.124   2.773   3.107
  825SOL     OW 2509   1.525   2.861   2.052
  825SOL    HW1 2510   1.462   2.785   2.065
  825SOL    HW2 2511   1.573   2.879   2.138
  826SOL     OW 2512   1.187   3.654   3.478
  826SOL    HW1 2513   1.211   3.714   3.402
  826SOL    HW2 2514   1.194   3.559   3.448
  827SOL     OW 2515   0.317   2.113   3.663
  827SOL    HW1 2516   0.388   2.184   3.669
  827SOL    HW2 2517   0.229   2.152   3.691
  828SOL     OW 2518   1.466   3.279   2.815
  828SOL    HW1 2519   1.407   3.285   2.895
  828SOL    HW2 2520   1.451   3.191   2.769
  829SOL     OW 2521   1.667   3.576   2.434
  829SOL    HW1 2522   1.626   3.553   2.346
  829SOL    HW2 2523   1.649   3.502   2.499
  830SOL     OW 2524   0.598   2.591   2.132
  830SOL    HW1 2525   0.622   2.660   2.064
  830SOL    HW2 2526   0.520   2.624   2.186
  831SOL     OW 2527   1.281   2.207   2.806
  831SOL    HW1 2528   1.195   2.157   2.793
  831SOL    HW2 2529   1.343   2.153   2.862
  832SOL     OW 2530   1.576   3.524   2.169
  832SOL    HW1 2531   1.665   3.570   2.172
  832SOL    HW2 2532   1.555   3.500   2.074
  833SOL     OW 2533   0.807   2.467   3.327
  833SOL    HW1 2534   0.760   2.464   3.416
  833SOL    HW2 2535   0.756   2.412   3.261
  834SOL     OW 2536   1.394   2.331   3.536
  834SOL    HW1 2537   1.374   2.374   3.624
  834SOL    HW2 2538   1.472   2.269   3.545
  835SOL     OW 2539   0.973   2.752   3.434
  835SOL    HW1 2540   1.019   2.668   3.405
  835SOL    HW2 2541   0.917   2.786   3.359
  836SOL     OW 2542   0.991   2.272   3.104
  836SOL    HW1 2543   0.914   2.306   3.158
  836SOL    HW2 2544   0.957   2.221   3.025
  837SOL     OW 2545   1.041   2.563   2.291
  837SOL    HW1 2546   1.067   2.559   2.387
  837SOL    HW2 2547   0.956   2.512   2.277
  838SOL     OW 2548   0.076   2.673   2.651
  838SOL    HW1 2549   0.175   2.661   2.660
  838SOL    HW2 2550   0.052   2.768   2.672
  839SOL     OW 2551   0.130   3.683   3.433
  839SOL    HW1 2552   0.120   3.668   3.532
  839SOL    HW2 2553   0.044   3.719   3.397
  840SOL     OW 2554   0.865   2.210   2.057
  840SOL    HW1 2555   0.924   2.273   2.008
  840SOL    HW2 2556   0.884   2.116   2.028
  841SOL     OW 2557   1.719   2.447   3.693
  841SOL    HW1 2558   1.693   2.536   3.657
  841SOL    HW2 2559   1.717   2.379   3.620
  842SOL     OW 2560   1.362   3.006   2.407
  842SOL    HW1 2561   1.445   2.977   2.359
  842SOL    HW2 2562   1.313   3.073   2.351
  843SOL     OW 2563   0.550   2.058   2.747
  843SOL    HW1 2564   0.545   2.053   2.847
  843SOL    HW2 2565   0.552   2.154   2.718
  844SOL     OW 2566   1.008   3.318   2.339
  844SOL    HW1 2567   0.962   3.390   2.287
  844SOL    HW2 2568   1.004   3.338   2.437
  845SOL     OW 2569   0.351   3.663   2.715
  845SOL    HW1 2570   0.401   3.577   2.721
  845SOL    HW2 2571   0.416   3.740   2.712
  846SOL     OW 2572   1.795   2.928   2.735
  846SOL    HW1 2573   1.733   2.913   2.659
  846SOL    HW2 2574   1.743   2.939   2.820
  847SOL     OW 2575   1.227   3.412   3.368
  847SOL    HW1 2576   1.233   3.335   3.432
  847SOL    HW2 2577   1.175   3.386   3.288
  848SOL     OW 2578   0.321   2.805   2.104
  848SOL    HW1 2579   0.403   2.844   2.062
  848SOL    HW2 2580   0.294   2.723   2.055
  849SOL     OW 2581   1.458   2.597   2.590
  849SOL    HW1 2582   1.453   2.532   2.665
  849SOL    HW2 2583   1.538   2.656   2.603
  850SOL     OW 2584   0.461   3.128   3.589
  850SOL    HW1 2585   0.411   3.129   3.503
  850SOL    HW2 2586   0.398   3.110   3.665
  851SOL     OW 2587   1.111   3.638   2.099
  851SOL    HW1 2588   1.051   3.576   2.149
  851SOL    HW2 2589   1.142   3.594   2.014
  852SOL     OW 2590   0.202   2.147   3.360
  852SOL    HW1 2591   0.122   2.207   3.347
  852SOL    HW2 2592   0.192   2.098   3.446
  853SOL     OW 2593   1.632   3.239   1.943
  853SOL    HW1 2594   1.600   3.333   1.933
  853SOL    HW2 2595   1.556   3.176   1.931
  854SOL     OW 2596   0.464   3.605   2.185
  854SOL    HW1 2597   0.497   3.644   2.271
  854SOL    HW2 2598   0.540   3.598   2.120
  855SOL     OW 2599   1.400   1.969   2.288
  855SOL    HW1 2600   1.376   1.932   2.198
  855SOL    HW2 2601   1.499   1.985   2.292
  856SOL     OW 2602   0.249   3.647   3.103
  856SOL    HW1 2603   0.306   3.582   3.153
  856SOL    HW2 2604   0.233   3.614   3.010
  857SOL     OW 2605   0.940   3.560   2.766
  857SOL    HW1 2606   1.020   3.503   2.787
  857SOL    HW2 2607   0.891   3.520   2.689
  858SOL     OW 2608   0.382   2.562   2.342
  858SOL    HW1 2609   0.427   2.472   2.339
  858SOL    HW2 2610   0.288   2.551   2.375
  859SOL     OW 2611   1.547   2.084   3.591
  859SOL    HW1 2612   1.542   2.121   3.683
  859SOL    HW2 2613   1.475   2.015   3.579
  860SOL     OW 2614   0.614   1.984   1.979
  860SOL    HW1 2615   0.712   1.962   1.986
  860SOL    HW2 2616   0.583   1.967   1.886
  861SOL     OW 2617   0.781   2.126   3.611
  861SOL    HW1 2618   0.848   2.065   3.654
  861SOL    HW2 2619   0.708   2.145   3.676
  862SOL     OW 2620   0.888   3.376   3.057
  862SOL    HW1 2621   0.865   3.351   2.963
  862SOL    HW2 2622   0.949   3.307   3.096
  863SOL     OW 2623   1.351   2.452   3.295
  863SOL    HW1 2624   1.379   2.409   3.380
  863SOL    HW2 2625   1.376   2.548   3.296
  864SOL     OW 2626   0.803   3.264   2.786
  864SOL    HW1 2627   0.893   3.278   2.744
  864SOL    HW2 2628   0.732   3.266   2.715
  865SOL     OW 2629   0.922   2.365   2.761
  865SOL    HW1 2630   0.897   2.356   2.665
  865SOL    HW2 2631   0.970   2.283   2.792
  866SOL     OW 2632   0.539   1.926   2.374
  866SOL    HW1 2633   0.458   1.927   2.432
  866SOL    HW2 2634   0.542   2.009   2.319
  867SOL     OW 2635   1.434   3.050   1.903
  867SOL    HW1 2636   1.466   2.974   1.960
  867SOL    HW2 2637   1.342   3.077   1.933
  868SOL     OW 2638   0.297   1.897   2.033
  868SOL    HW1 2639   0.346   1.981   2.012
  868SOL    HW2 2640   0.359   1.832   2.078
  869SOL     OW 2641   0.935   2.098   2.342
  869SOL    HW1 2642   0.887   2.139   2.264
  869SOL    HW2 2643   1.034   2.096   2.323
  870SOL     OW 2644   1.076   2.545   3.326
  870SOL    HW1 2645   0.996   2.484   3.329
  870SOL    HW2 2646   1.157   2.492   3.302
  871SOL     OW 2647   1.227   3.432   2.655
  871SOL    HW1 2648   1.248   3.506   2.590
  871SOL    HW2 2649   1.295   3.432   2.728
  872SOL     OW 2650   0.459   3.014   2.603
  872SOL    HW1 2651   0.388   2.987   2.668
  872SOL    HW2 2652   0.433   2.986   2.510
  873SOL     OW 2653   1.271   3.659   2.453
  873SOL    HW1 2654   1.315   3.723   2.389
  873SOL    HW2 2655   1.221   3.711   2.523
  874SOL     OW 2656   1.032   2.411   1.878
  874SOL    HW1 2657   0.991   2.493   1.839
  874SOL    HW2 2658   1.096   2.437   1.951
  875SOL     OW 2659   0.078   2.418   3.248
  875SOL    HW1 2660   0.170   2.417   3.207
  875SOL    HW2 2661   0.072   2.492   3.315
  876SOL     OW 2662   0.561   2.084   3.009
  876SOL    HW1 2663   0.599   2.000   3.046
  876SOL    HW2 2664   0.473   2.103   3.053
  877SOL     OW 2665   0.866   2.316   2.504
  877SOL    HW1 2666   0.834   2.388   2.442
  877SOL    HW2 2667   0.890   2.235   2.451
  878SOL     OW 2668   1.017   1.901   2.615
  878SOL    HW1 2669   0.945   1.906   2.546
  878SOL    HW2 2670   0.993   1.832   2.684
  879SOL     OW 2671   1.429   3.035   2.729
  879SOL    HW1 2672   1.374   2.951   2.722
  879SOL    HW2 2673   1.455   3.064   2.637
  880SOL     OW 2674   1.466   2.452   2.854
  880SOL    HW1 2675   1.436   2.357   2.861
  880SOL    HW2 2676   1.539   2.468   2.920
  881SOL     OW 2677   1.857   2.695   2.239
  881SOL    HW1 2678   1.899   2.631   2.303
  881SOL    HW2 2679   1.819   2.644   2.161
  882SOL     OW 2680   0.488   3.247   2.036
  882SOL    HW1 2681   0.401   3.232   2.083
  882SOL    HW2 2682   0.471   3.273   1.941
  883SOL     OW 2683   1.664   3.142   2.519
  883SOL    HW1 2684   1.763   3.150   2.533
  883SOL    HW2 2685   1.619   3.226   2.550
  884SOL     OW 2686   1.390   2.437   1.940
  884SOL    HW1 2687   1.336   2.416   2.021
  884SOL    HW2 2688   1.481   2.396   1.949
  885SOL     OW 2689   0.527   2.118   2.190
  885SOL    HW1 2690   0.554   2.059   2.115
  885SOL    HW2 2691   0.527   2.213   2.159
  886SOL     OW 2692   1.754   3.085   3.450
  886SOL    HW1 2693   1.845   3.046   3.437
  886SOL    HW2 2694   1.762   3.181   3.474
  887SOL     OW 2695   1.064   3.209   3.202
  887SOL    HW1 2696   0.984   3.186   3.257
  887SOL    HW2 2697   1.147   3.183   3.251
  888SOL     OW 2698   1.592   3.491   3.487
  888SOL    HW1 2699   1.619   3.525   3.397
  888SOL    HW2 2700   1.671   3.453   3.533
  889SOL     OW 2701   1.111   3.057   2.962
  889SOL    HW1 2702   1.071   3.101   3.043
  889SOL    HW2 2703   1.070   3.094   2.879
  890SOL     OW 2704   1.638   2.961   2.941
  890SOL    HW1 2705   1.643   3.042   3.000
  890SOL    HW2 2706   1.552   2.963   2.890
  891SOL     OW 2707   0.915   1.951   3.264
  891SOL    HW1 2708   0.940   1.931   3.169
  891SOL    HW2 2709   0.987   2.007   3.306
  892SOL     OW 2710   0.980   2.978   3.581
  892SOL    HW1 2711   0.881   2.984   3.591
  892SOL    HW2 2712   1.003   2.898   3.525
  893SOL     OW 2713   0.705   2.912   2.230
  893SOL    HW1 2714   0.691   2.919   2.329
  893SOL    HW2 2715   0.789   2.861   2.212
  894SOL     OW 2716   0.410   2.675   3.113
  894SOL    HW1 2717   0.496   2.687   3.163
  894SOL    HW2 2718   0.368   2.588   3.140
  895SOL     OW 2719   1.274   2.248   3.124
  895SOL    HW1 2720   1.295   2.322   3.188
  895SOL    HW2 2721   1.185   2.265   3.081
  896SOL     OW 2722   0.064   3.426   3.193
  896SOL    HW1 2723   0.018   3.508   3.159
  896SOL    HW2 2724   0.162   3.445   3.202
  897SOL     OW 2725   0.367   2.962   2.363
  897SOL    HW1 2726   0.360   3.045   2.307
  897SOL    HW2 2727   0.371   2.882   2.303
  898SOL     OW 2728   0.566   2.399   2.727
  898SOL    HW1 2729   0.578   2.465   2.653
  898SOL    HW2 2730   0.612   2.433   2.810
  899SOL     OW 2731   1.252   3.210   2.250
  899SOL    HW1 2732   1.302   3.287   2.290
  899SOL    HW2 2733   1.157   3.212   2.282
  900SOL     OW 2734   1.272   3.307   3.004
  900SOL    HW1 2735   1.319   3.320   3.091
  900SOL    HW2 2736   1.206   3.233   3.013
  901SOL     OW 2737   1.582   2.501   2.334
  901SOL    HW1 2738   1.551   2.562   2.407
  901SOL    HW2 2739   1.632   2.553   2.265
  902SOL     OW 2740   0.354   3.372   3.191
  902SOL    HW1 2741   0.333   3.328   3.104
  902SOL    HW2 2742   0.451   3.398   3.194
  903SOL     OW 2743   0.402   2.613   3.460
  903SOL    HW1 2744   0.470   2.668   3.413
  903SOL    HW2 2745   0.442   2.525   3.487
  904SOL     OW 2746   1.587   2.641   3.532
  904SOL    HW1 2747   1.495   2.679   3.527
  904SOL    HW2 2748   1.647   2.688   3.467
  905SOL     OW 2749   1.013   1.967   3.632
  905SOL    HW1 2750   1.019   2.052   3.580
  905SOL    HW2 2751   1.045   1.891   3.575
  906SOL     OW 2752   0.504   1.912   3.602
  906SOL    HW1 2753   0.462   1.855   3.532
  906SOL    HW2 2754   0.438   1.981   3.634
  907SOL     OW 2755   0.573   2.732   2.891
  907SOL    HW1 2756   0.617   2.821   2.882
  907SOL    HW2 2757   0.510   2.732   2.968
  908SOL     OW 2758   1.360   2.724   2.907
  908SOL    HW1 2759   1.285   2.724   2.841
  908SOL    HW2 2760   1.397   2.632   2.916
  909SOL     OW 2761   1.209   2.387   2.137
  909SOL    HW1 2762   1.222   2.303   2.191
  909SOL    HW2 2763   1.180   2.461   2.197
  910SOL     OW 2764   0.307   2.075   3.093
  910SOL    HW1 2765   0.284   2.112   3.183
  910SOL    HW2 2766   0.277   1.980   3.087
  911SOL     OW 2767   0.037   3.172   3.144
  911SOL    HW1 2768   0.090   3.123   3.212
  911SOL    HW2 2769   0.059   3.270   3.149
  912SOL     OW 2770   0.732   2.496   2.926
  912SOL    HW1 2771   0.791   2.470   2.850
  912SOL    HW2 2772   0.704   2.592   2.915
  913SOL     OW 2773   1.728   2.797   3.716
  913SOL    HW1 2774   1.682   2.790   3.627
  913SOL    HW2 2775   1.666   2.841   3.782
  914SOL     OW 2776   0.307   1.925   2.480
  914SOL    HW1 2777   0.296   2.019   2.513
  914SOL    HW2 2778   0.302   1.862   2.557
  915SOL     OW 2779   1.622   2.229   2.236
  915SOL    HW1 2780   1.624   2.153   2.300
  915SOL    HW2 2781   1.574   2.306   2.276
  916SOL     OW 2782   1.023   2.628   2.828
  916SOL    HW1 2783   1.038   2.649   2.924
  916SOL    HW2 2784   0.993   2.533   2.819
  917SOL     OW 2785   0.980   3.435   3.562
  917SOL    HW1 2786   0.960   3.479   3.474
  917SOL    HW2 2787   1.019   3.344   3.546
  918SOL     OW 2788   1.859   3.380   3.467
  918SOL    HW1 2789   1.873   3.407   3.372
  918SOL    HW2 2790   1.942   3.402   3.520
  919SOL     OW 2791   0.350   2.760   3.666
  919SOL    HW1 2792   0.426   2.804   3.714
  919SOL    HW2 2793   0.385   2.713   3.584
  920SOL     OW 2794   1.540   2.136   1.987
  920SOL    HW1 2795   1.479   2.061   2.010
  920SOL    HW2 2796   1.562   2.188   2.070
  921SOL     OW 2797   1.303   2.700   1.904
  921SOL    HW1 2798   1.337   2.607   1.919
  921SOL    HW2 2799   1.321   2.727   1.809
  922SOL     OW 2800   1.068   3.195   2.711
  922SOL    HW1 2801   1.075   3.111   2.656
  922SOL    HW2 2802   1.130   3.264   2.675
  923SOL     OW 2803   0.319   2.672   2.811
  923SOL    HW1 2804   0.412   2.708   2.816
  923SOL    HW2 2805   0.313   2.587   2.863
  924SOL     OW 2806   0.339   2.371   2.868
  924SOL    HW1 2807   0.287   2.288   2.851
  924SOL    HW2 2808   0.416   2.376   2.804
  925SOL     OW 2809   1.138   2.242   3.540
  925SOL    HW1 2810   1.093   2.305   3.604
  925SOL    HW2 2811   1.231   2.273   3.523
  926SOL     OW 2812   1.160   2.069   3.339
  926SOL    HW1 2813   1.160   2.133   3.416
  926SOL    HW2 2814   1.188   2.117   3.256
  927SOL     OW 2815   0.008   3.188   2.062
  927SOL    HW1 2816  -0.085   3.209   2.031
  927SOL    HW2 2817   0.018   3.089   2.075
  928SOL     OW 2818   0.088   3.663   2.789
  928SOL    HW1 2819   0.046   3.577   2.762
  928SOL    HW2 2820   0.182   3.666   2.755
  929SOL     OW 2821   0.504   3.430   2.772
  929SOL    HW1 2822   0.570   3.504   2.781
  929SOL    HW2 2823   0.548   3.351   2.730
  930SOL     OW 2824   1.002   2.658   3.100
  930SOL    HW1 2825   1.043   2.626   3.186
  930SOL    HW2 2826   0.906   2.631   3.097
  931SOL     OW 2827   0.040   2.406   2.976
  931SOL    HW1 2828   0.125   2.373   2.935
  931SOL    HW2 2829   0.053   2.421   3.074
  932SOL     OW 2830   0.189   2.382   3.584
  932SOL    HW1 2831   0.248   2.342   3.514
  932SOL    HW2 2832   0.131   2.453   3.543
  933SOL     OW 2833   1.369   2.812   3.522
  933SOL    HW1 2834   1.408   2.901   3.542
  933SOL    HW2 2835   1.379   2.792   3.425
  934SOL     OW 2836   0.815   2.434   2.187
  934SOL    HW1 2837   0.822   2.345   2.141
  934SOL    HW2 2838   0.721   2.468   2.179
  935SOL     OW 2839   1.657   2.466   3.068
  935SOL    HW1 2840   1.619   2.397   3.130
  935SOL    HW2 2841   1.739   2.430   3.024
  936SOL     OW 2842   0.252   3.426   3.606
  936SOL    HW1 2843   0.222   3.483   3.682
  936SOL    HW2 2844   0.245   3.329   3.632
  937SOL     OW 2845   0.671   2.326   3.131
  937SOL    HW1 2846   0.637   2.237   3.101
  937SOL    HW2 2847   0.697   2.380   3.051
  938SOL     OW 2848   0.930   3.540   3.327
  938SOL    HW1 2849   0.906   3.522   3.232
  938SOL    HW2 2850   0.960   3.634   3.337
  939SOL     OW 2851   0.473   2.362   2.053
  939SOL    HW1 2852   0.534   2.442   2.057
  939SOL    HW2 2853   0.378   2.393   2.060
  940SOL     OW 2854   0.159   2.999   3.328
  940SOL    HW1 2855   0.181   2.938   3.404
  940SOL    HW2 2856   0.169   2.950   3.242
  941SOL     OW 2857   1.347   2.921   3.096
  941SOL    HW1 2858   1.371   2.858   3.022
  941SOL    HW2 2859   1.257   2.961   3.078
  942SOL     OW 2860   1.302   2.717   2.171
  942SOL    HW1 2861   1.216   2.686   2.213
  942SOL    HW2 2862   1.298   2.703   2.072
  943SOL     OW 2863   1.759   3.609   3.016
  943SOL    HW1 2864   1.820   3.639   2.943
  943SOL    HW2 2865   1.721   3.520   2.994
  944SOL     OW 2866   1.252   3.593   2.990
  944SOL    HW1 2867   1.336   3.598   2.936
  944SOL    HW2 2868   1.229   3.497   3.008
  945SOL     OW 2869   0.083   3.120   2.884
  945SOL    HW1 2870   0.078   3.119   2.984
  945SOL    HW2 2871   0.000   3.079   2.846
  946SOL     OW 2872   0.688   3.524   3.578
  946SOL    HW1 2873   0.632   3.605   3.587
  946SOL    HW2 2874   0.740   3.528   3.492
  947SOL     OW 2875   1.726   1.997   2.385
  947SOL    HW1 2876   1.799   1.980   2.318
  947SOL    HW2 2877   1.695   1.910   2.423
  948SOL     OW 2878   1.388   3.435   2.339
  948SOL    HW1 2879   1.455   3.447   2.265
  948SOL    HW2 2880   1.348   3.524   2.362
  949SOL     OW 2881   0.130   3.656   3.713
  949SOL    HW1 2882   0.089   3.582   3.766
  949SOL    HW2 2883   0.194   3.707   3.771
  950SOL     OW 2884   1.280   2.789   2.534
  950SOL    HW1 2885   1.340   2.708   2.536
  950SOL    HW2 2886   1.320   2.858   2.474
  951SOL     OW 2887   0.830   3.135   3.284
  951SOL    HW1 2888   0.825   3.168   3.379
  951SOL    HW2 2889   0.744   3.154   3.238
  952SOL     OW 2890   0.672   3.478   2.016
  952SOL    HW1 2891   0.681   3.488   1.917
  952SOL    HW2 2892   0.632   3.389   2.037
  953SOL     OW 2893   1.650   3.582   3.256
  953SOL    HW1 2894   1.703   3.592   3.172
  953SOL    HW2 2895   1.623   3.672   3.290
  954SOL     OW 2896   1.841   2.037   2.825
  954SOL    HW1 2897   1.880   1.952   2.789
  954SOL    HW2 2898   1.743   2.039   2.806
  955SOL     OW 2899   0.263   2.188   2.582
  955SOL    HW1 2900   0.184   2.239   2.548
  955SOL    HW2 2901   0.254   2.173   2.680
  956SOL     OW 2902   1.194   3.474   1.893
  956SOL    HW1 2903   1.200   3.381   1.930
  956SOL    HW2 2904   1.135   3.474   1.813
  957SOL     OW 2905   0.822   2.864   3.234
  957SOL    HW1 2906   0.862   2.863   3.142
  957SOL    HW2 2907   0.832   2.956   3.274
  958SOL     OW 2908   0.916   2.772   2.153
  958SOL    HW1 2909   0.979   2.810   2.085
  958SOL    HW2 2910   0.956   2.689   2.192
  959SOL     OW 2911   1.504   3.469   1.906
  959SOL    HW1 2912   1.412   3.506   1.913
  959SOL    HW2 2913   1.542   3.489   1.816
  960SOL     OW 2914   0.372   3.150   3.352
  960SOL    HW1 2915   0.359   3.243   3.318
  960SOL    HW2 2916   0.288   3.098   3.339
  961SOL     OW 2917   1.614   3.154   3.151
  961SOL    HW1 2918   1.674   3.157   3.231
  961SOL    HW2 2919   1.539   3.218   3.164
  962SOL     OW 2920   1.039   2.960   2.558
  962SOL    HW1 2921   0.969   2.913   2.612
  962SOL    HW2 2922   1.098   2.892   2.515
  963SOL     OW 2923   1.014   2.098   2.833
  963SOL    HW1 2924   1.006   2.062   2.740
  963SOL    HW2 2925   1.012   2.022   2.898
  964SOL     OW 2926   0.590   3.349   2.353
  964SOL    HW1 2927   0.632   3.291   2.283
  964SOL    HW2 2928   0.546   3.428   2.309
  965SOL     OW 2929   1.709   2.247   3.243
  965SOL    HW1 2930   1.782   2.316   3.247
  965SOL    HW2 2931   1.737   2.172   3.184
  966SOL     OW 2932   0.255   3.210   2.152
  966SOL    HW1 2933   0.159   3.211   2.125
  966SOL    HW2 2934   0.267   3.263   2.236
  967SOL     OW 2935   0.105   2.875   3.588
  967SOL    HW1 2936   0.028   2.842   3.642
  967SOL    HW2 2937   0.190   2.845   3.630
  968SOL     OW 2938   0.672   2.065   3.351
  968SOL    HW1 2939   0.762   2.049   3.311
  968SOL    HW2 2940   0.680   2.070   3.450
  969SOL     OW 2941   0.075   2.207   1.895
  969SOL    HW1 2942  -0.017   2.179   1.866
  969SOL    HW2 2943   0.106   2.284   1.839
  970SOL     OW 2944   1.440   2.718   3.260
  970SOL    HW1 2945   1.383   2.770   3.197
  970SOL    HW2 2946   1.536   2.730   3.236
  971SOL     OW 2947   0.072   2.028   2.180
  971SOL    HW1 2948   0.055   2.111   2.126
  971SOL    HW2 2949   0.162   1.991   2.158
  972SOL     OW 2950   1.183   3.197   1.981
  972SOL    HW1 2951   1.084   3.186   1.983
  972SOL    HW2 2952   1.217   3.212   2.074
  973SOL     OW 2953   0.613   2.704   3.293
  973SOL    HW1 2954   0.669   2.785   3.276
  973SOL    HW2 2955   0.672   2.624   3.296
  974SOL     OW 2956   1.493   3.629   2.821
  974SOL    HW1 2957   1.526   3.693   2.752
  974SOL    HW2 2958   1.559   3.623   2.896
  975SOL     OW 2959   0.716   2.427   3.570
  975SOL    HW1 2960   0.735   2.492   3.644
  975SOL    HW2 2961   0.776   2.347   3.579
  976SOL     OW 2962   1.450   3.082   3.495
  976SOL    HW1 2963   1.441   3.072   3.594
  976SOL    HW2 2964   1.546   3.075   3.469
  977SOL     OW 2965   0.390   3.603   3.422
  977SOL    HW1 2966   0.299   3.644   3.420
  977SOL    HW2 2967   0.383   3.509   3.454
  978SOL     OW 2968   1.674   2.745   3.116
  978SOL    HW1 2969   1.647   2.656   3.079
  978SOL    HW2 2970   1.675   2.813   3.043
  979SOL     OW 2971   1.225   2.187   2.311
  979SOL    HW1 2972   1.290   2.113   2.300
  979SOL    HW2 2973   1.245   2.237   2.395
  980SOL     OW 2974   0.594   2.607   2.514
  980SOL    HW1 2975   0.644   2.692   2.495
  980SOL    HW2 2976   0.506   2.609   2.466
  981SOL     OW 2977   1.777   2.204   3.504
  981SOL    HW1 2978   1.760   2.235   3.410
  981SOL    HW2 2979   1.693   2.167   3.542
  982SOL     OW 2980   1.730   2.796   3.379
  982SOL    HW1 2981   1.768   2.887   3.394
  982SOL    HW2 2982   1.722   2.779   3.280
  983SOL     OW 2983   0.859   3.236   1.878
  983SOL    HW1 2984   0.813   3.251   1.966
  983SOL    HW2 2985   0.903   3.321   1.848
  984SOL     OW 2986   0.661   3.652   2.815
  984SOL    HW1 2987   0.615   3.740   2.802
  984SOL    HW2 2988   0.760   3.664   2.808
  985SOL     OW 2989   0.859   2.818   2.723
  985SOL    HW1 2990   0.913   2.749   2.771
  985SOL    HW2 2991   0.827   2.887   2.789
  986SOL     OW 2992   1.083   2.846   1.949
  986SOL    HW1 2993   1.060   2.899   1.867
  986SOL    HW2 2994   1.164   2.790   1.930
  987SOL     OW 2995   1.861   3.431   2.713
  987SOL    HW1 2996   1.790   3.419   2.643
  987SOL    HW2 2997   1.862   3.352   2.773
  988SOL     OW 2998   0.221   3.176   3.706
  988SOL    HW1 2999   0.156   3.103   3.685
  988SOL    HW2 3000   0.225   3.190   3.804
  989SOL     OW 3001   0.079   3.102   2.515
  989SOL    HW1 3002   0.078   3.055   2.603
  989SOL    HW2 3003   0.161   3.074   2.464
  990SOL     OW 3004   0.672   3.253   3.486
  990SOL    HW1 3005   0.594   3.203   3.524
  990SOL    HW2 3006   0.669   3.348   3.517
  991SOL     OW 3007   1.824   2.054   3.089
  991SOL    HW1 3008   1.820   1.964   3.133
  991SOL    HW2 3009   1.827   2.043   2.990
  992SOL     OW 3010   0.428   2.286   2.382
  992SOL    HW1 3011   0.458   2.214   2.320
  992SOL    HW2 3012   0.389   2.246   2.465
  993SOL     OW 3013   1.705   3.349   2.966
  993SOL    HW1 3014   1.612   3.324   2.939
  993SOL    HW2 3015   1.731   3.299   3.048
  994SOL     OW 3016   0.317   2.409   3.142
  994SOL    HW1 3017   0.355   2.350   3.214
  994SOL    HW2 3018   0.357   2.383   3.054
  995SOL     OW 3019   0.812   3.448   2.549
  995SOL    HW1 3020   0.844   3.458   2.455
  995SOL    HW2 3021   0.733   3.386   2.551
  996SOL     OW 3022   1.424   2.076   2.974
  996SOL    HW1 3023   1.476   2.011   3.029
  996SOL    HW2 3024   1.375   2.139   3.035
  997SOL     OW 3025   1.001   1.896   3.016
  997SOL    HW1 3026   0.938   1.824   2.985
  997SOL    HW2 3027   1.094   1.860   3.016
  998SOL     OW 3028   0.770   3.192   2.163
  998SOL    HW1 3029   0.724   3.105   2.180
  998SOL    HW2 3030   0.861   3.189   2.204
  999SOL     OW 3031   0.618   3.429   3.146
  999SOL    HW1 3032   0.613   3.511   3.203
  999SOL    HW2 3033   0.707   3.426   3.101
 1000SOL     OW 3034   1.352   1.914   2.030
 1000SOL    HW1 3035   1.387   1.873   1.946
 1000SOL    HW2 3036   1.262   1.876   2.050
 1001SOL     OW 3037   1.300   2.315   2.553
 1001SOL    HW1 3038   1.241   2.395   2.557
 1001SOL    HW2 3039   1.315   2.280   2.646
 1002SOL     OW 3040   1.593   2.083   2.744
 1002SOL    HW1 3041   1.509   2.082   2.798
 1002SOL    HW2 3042   1.595   2.166   2.688
 1003SOL     OW 3043   0.039   2.939   2.162
 1003SOL    HW1 3044   0.138   2.928   2.153
 1003SOL    HW2 3045  -0.001   2.853   2.194
 1004SOL     OW 3046   0.875   3.508   2.199
 1004SOL    HW1 3047   0.798   3.473   2.145
 1004SOL    HW2 3048   0.843   3.579   2.261
 1005SOL     OW 3049   0.230   2.490   3.837
 1005SOL    HW1 3050   0.137   2.488   3.874
 1005SOL    HW2 3051   0.231   2.451   3.745
 1006SOL     OW 3052   0.225   2.137   4.720
 1006SOL    HW1 3053   0.260   2.120   4.812
 1006SOL    HW2 3054   0.137   2.092   4.708
 1007SOL     OW 3055   0.019   2.230   4.371
 1007SOL    HW1 3056  -0.063   2.273   4.410
 1007SOL    HW2 3057  -0.009   2.157   4.308
 1008SOL     OW 3058   0.569   3.137   4.889
 1008SOL    HW1 3059   0.476   3.130   4.852
 1008SOL    HW2 3060   0.580   3.226   4.933
 1009SOL     OW 3061   1.555   3.373   4.427
 1009SOL    HW1 3062   1.498   3.357   4.508
 1009SOL    HW2 3063   1.496   3.383   4.347
 1010SOL     OW 3064   1.135   2.565   4.441
 1010SOL    HW1 3065   1.192   2.643   4.416
 1010SOL    HW2 3066   1.075   2.591   4.517
 1011SOL     OW 3067   1.755   2.469   3.955
 1011SOL    HW1 3068   1.743   2.456   3.856
 1011SOL    HW2 3069   1.725   2.388   4.004
 1012SOL     OW 3070   0.768   3.006   4.747
 1012SOL    HW1 3071   0.690   3.023   4.807
 1012SOL    HW2 3072   0.802   3.093   4.711
 1013SOL     OW 3073   0.685   2.874   4.389
 1013SOL    HW1 3074   0.754   2.858   4.459
 1013SOL    HW2 3075   0.612   2.931   4.427
 1014SOL     OW 3076   0.335   3.297   4.785
 1014SOL    HW1 3077   0.257   3.266   4.732
 1014SOL    HW2 3078   0.393   3.355   4.728
 1015SOL     OW 3079   1.603   2.309   4.461
 1015SOL    HW1 3080   1.529   2.355   4.411
 1015SOL    HW2 3081   1.654   2.377   4.514
 1016SOL     OW 3082   0.231   3.575   4.207
 1016SOL    HW1 3083   0.265   3.652   4.261
 1016SOL    HW2 3084   0.275   3.575   4.117
 1017SOL     OW 3085   0.230   3.296   4.262
 1017SOL    HW1 3086   0.204   3.392   4.262
 1017SOL    HW2 3087   0.159   3.242   4.307
 1018SOL     OW 3088   0.240   2.953   4.610
 1018SOL    HW1 3089   0.254   2.869   4.662
 1018SOL    HW2 3090   0.185   3.017   4.665
 1019SOL     OW 3091   0.606   2.826   3.847
 1019SOL    HW1 3092   0.613   2.910   3.793
 1019SOL    HW2 3093   0.652   2.839   3.935
 1020SOL     OW 3094   0.122   2.505   4.287
 1020SOL    HW1 3095   0.077   2.417   4.304
 1020SOL    HW2 3096   0.121   2.559   4.371
 1021SOL     OW 3097   1.842   3.629   4.083
 1021SOL    HW1 3098   1.896   3.600   4.163
 1021SOL    HW2 3099   1.872   3.719   4.054
 1022SOL     OW 3100   0.027   3.458   3.841
 1022SOL    HW1 3101   0.008   3.362   3.862
 1022SOL    HW2 3102  -0.006   3.516   3.916
 1023SOL     OW 3103   1.689   2.784   4.336
 1023SOL    HW1 3104   1.784   2.755   4.344
 1023SOL    HW2 3105   1.681   2.849   4.261
 1024SOL     OW 3106   1.641   2.970   4.156
 1024SOL    HW1 3107   1.727   2.972   4.104
 1024SOL    HW2 3108   1.655   3.017   4.244
 1025SOL     OW 3109   0.113   2.599   5.321
 1025SOL    HW1 3110   0.201   2.586   5.366
 1025SOL    HW2 3111   0.100   2.696   5.299
 1026SOL     OW 3112   0.613   3.227   4.450
 1026SOL    HW1 3113   0.564   3.140   4.459
 1026SOL    HW2 3114   0.590   3.270   4.363
 1027SOL     OW 3115   0.809   1.866   4.226
 1027SOL    HW1 3116   0.849   1.957   4.217
 1027SOL    HW2 3117   0.709   1.874   4.232
 1028SOL     OW 3118   0.197   2.838   4.988
 1028SOL    HW1 3119   0.286   2.793   4.974
 1028SOL    HW2 3120   0.124   2.773   4.969
 1029SOL     OW 3121   1.525   2.861   3.914
 1029SOL    HW1 3122   1.462   2.785   3.927
 1029SOL    HW2 3123   1.573   2.879   4.000
 1030SOL     OW 3124   1.466   3.279   4.677
 1030SOL    HW1 3125   1.407   3.285   4.757
 1030SOL    HW2 3126   1.451   3.191   4.631
 1031SOL     OW 3127   1.667   3.576   4.296
 1031SOL    HW1 3128   1.626   3.553   4.208
 1031SOL    HW2 3129   1.649   3.502   4.361
 1032SOL     OW 3130   0.598   2.591   3.994
 1032SOL    HW1 3131   0.622   2.660   3.926
 1032SOL    HW2 3132   0.520   2.624   4.048
 1033SOL     OW 3133   1.281   2.207   4.668
 1033SOL    HW1 3134   1.195   2.157   4.655
 1033SOL    HW2 3135   1.343   2.153   4.724
 1034SOL     OW 3136   1.576   3.524   4.031
 1034SOL    HW1 3137   1.665   3.570   4.034
 1034SOL    HW2 3138   1.555   3.500   3.936
 1035SOL     OW 3139   0.991   2.272   4.966
 1035SOL    HW1 3140   0.914   2.306   5.020
 1035SOL    HW2 3141   0.957   2.221   4.887
 1036SOL     OW 3142   1.041   2.563   4.153
 1036SOL    HW1 3143   1.067   2.559   4.249
 1036SOL    HW2 3144   0.956   2.512   4.139
 1037SOL     OW 3145   0.076   2.673   4.513
 1037SOL    HW1 3146   0.175   2.661   4.522
 1037SOL    HW2 3147   0.052   2.768   4.534
 1038SOL     OW 3148   0.130   3.683   5.295
 1038SOL    HW1 3149   0.120   3.668   5.394
 1038SOL    HW2 3150   0.044   3.719   5.259
 1039SOL     OW 3151   0.865   2.210   3.919
 1039SOL    HW1 3152   0.924   2.273   3.870
 1039SOL    HW2 3153   0.884   2.116   3.890
 1040SOL     OW 3154   1.362   3.006   4.269
 1040SOL    HW1 3155   1.445   2.977   4.221
 1040SOL    HW2 3156   1.313   3.073   4.213
 1041SOL     OW 3157   0.550   2.058   4.609
 1041SOL    HW1 3158   0.545   2.053   4.709
 1041SOL    HW2 3159   0.552   2.154   4.580
 1042SOL     OW 3160   1.008   3.318   4.201
 1042SOL    HW1 3161   0.962   3.390   4.149
 1042SOL    HW2 3162   1.004   3.338   4.299
 1043SOL     OW 3163   0.351   3.663   4.577
 1043SOL    HW1 3164   0.401   3.577   4.583
 1043SOL    HW2 3165   0.416   3.740   4.574
 1044SOL     OW 3166   1.795   2.928   4.597
 1044SOL    HW1 3167   1.733   2.913   4.521
 1044SOL    HW2 3168   1.743   2.939   4.682
 1045SOL     OW 3169   0.321   2.805   3.966
 1045SOL    HW1 3170   0.403   2.844   3.924
 1045SOL    HW2 3171   0.294   2.723   3.917
 1046SOL     OW 3172   1.458   2.597   4.452
 1046SOL    HW1 3173   1.453   2.532   4.527
 1046SOL    HW2 3174   1.538   2.656   4.465
 1047SOL     OW 3175   1.111   3.638   3.961
 1047SOL    HW1 3176   1.051   3.576   4.011
 1047SOL    HW2 3177   1.142   3.594   3.876
 1048SOL     OW 3178   1.632   3.239   3.805
 1048SOL    HW1 3179   1.600   3.333   3.795
 1048SOL    HW2 3180   1.556   3.176   3.793
 1049SOL     OW 3181   0.464   3.605   4.047
 1049SOL    HW1 3182   0.497   3.644   4.133
 1049SOL    HW2 3183   0.540   3.598   3.982
 1050SOL     OW 3184   1.400   1.969   4.150
 1050SOL    HW1 3185   1.376   1.932   4.060
 1050SOL    HW2 3186   1.499   1.985   4.154
 1051SOL     OW 3187   0.249   3.647   4.965
 1051SOL    HW1 3188   0.306   3.582   5.015
 1051SOL    HW2 3189   0.233   3.614   4.872
 1052SOL     OW 3190   0.940   3.560   4.628
 1052SOL    HW1 3191   1.020   3.503   4.649
 1052SOL    HW2 3192   0.891   3.520   4.551
 1053SOL     OW 3193   0.382   2.562   4.204
 1053SOL    HW1 3194   0.427   2.472   4.201
 1053SOL    HW2 3195   0.288   2.551   4.237
 1054SOL     OW 3196   0.614   1.984   3.841
 1054SOL    HW1 3197   0.712   1.962   3.848
 1054SOL    HW2 3198   0.583   1.967   3.748
 1055SOL     OW 3199   0.803   3.264   4.648
 1055SOL    HW1 3200   0.893   3.278   4.606
 1055SOL    HW2 3201   0.732   3.266   4.577
 1056SOL     OW 3202   0.922   2.365   4.623
 1056SOL    HW1 3203   0.897   2.356   4.527
 1056SOL    HW2 3204   0.970   2.283   4.654
 1057SOL     OW 3205   0.539   1.926   4.236
 1057SOL    HW1 3206   0.458   1.927   4.294
 1057SOL    HW2 3207   0.542   2.009   4.181
 1058SOL     OW 3208   1.434   3.050   3.765
 1058SOL    HW1 3209   1.466   2.974   3.822
 1058SOL    HW2 3210   1.342   3.077   3.795
 1059SOL     OW 3211   0.297   1.897   3.895
 1059SOL    HW1 3212   0.346   1.981   3.874
 1059SOL    HW2 3213   0.359   1.832   3.940
 1060SOL     OW 3214   0.935   2.098   4.204
 1060SOL    HW1 3215   0.887   2.139   4.126
 1060SOL    HW2 3216   1.034   2.096   4.185
 1061SOL     OW 3217   1.227   3.432   4.517
 1061SOL    HW1 3218   1.248   3.506   4.452
 1061SOL    HW2 3219   1.295   3.432   4.590
 1062SOL     OW 3220   0.459   3.014   4.465
 1062SOL    HW1 3221   0.388   2.987   4.530
 1062SOL    HW2 3222   0.433   2.986   4.372
 1063SOL     OW 3223   1.271   3.659   4.315
 1063SOL    HW1 3224   1.315   3.723   4.251
 1063SOL    HW2 3225   1.221   3.711   4.385
 1064SOL     OW 3226   1.032   2.411   3.740
 1064SOL    HW1 3227   0.991   2.493   3.701
 1064SOL    HW2 3228   1.096   2.437   3.813
 1065SOL     OW 3229   0.561   2.084   4.871
 1065SOL    HW1 3230   0.599   2.000   4.908
 1065SOL    HW2 3231   0.473   2.103   4.915
 1066SOL     OW 3232   0.866   2.316   4.366
 1066SOL    HW1 3233   0.834   2.388   4.304
 1066SOL    HW2 3234   0.890   2.235   4.313
 1067SOL     OW 3235   1.017   1.901   4.477
 1067SOL    HW1 3236   0.945   1.906   4.408
 1067SOL    HW2 3237   0.993   1.832   4.546
 1068SOL     OW 3238   1.429   3.035   4.591
 1068SOL    HW1 3239   1.374   2.951   4.584
 1068SOL    HW2 3240   1.455   3.064   4.499
 1069SOL     OW 3241   1.466   2.452   4.716
 1069SOL    HW1 3242   1.436   2.357   4.723
 1069SOL    HW2 3243   1.539   2.468   4.782
 1070SOL     OW 3244   1.857   2.695   4.101
 1070SOL    HW1 3245   1.899   2.631   4.165
 1070SOL    HW2 3246   1.819   2.644   4.023
 1071SOL     OW 3247   0.488   3.247   3.898
 1071SOL    HW1 3248   0.401   3.232   3.945
 1071SOL    HW2 3249   0.471   3.273   3.803
 1072SOL     OW 3250   1.664   3.142   4.381
 1072SOL    HW1 3251   1.763   3.150   4.395
 1072SOL    HW2 3252   1.619   3.226   4.412
 1073SOL     OW 3253   1.390   2.437   3.802
 1073SOL    HW1 3254   1.336   2.416   3.883
 1073SOL    HW2 3255   1.481   2.396   3.811
 1074SOL     OW 3256   0.527   2.118   4.052
 1074SOL    HW1 3257   0.554   2.059   3.977
 1074SOL    HW2 3258   0.527   2.213   4.021
 1075SOL     OW 3259   1.111   3.057   4.824
 1075SOL    HW1 3260   1.071   3.101   4.905
 1075SOL    HW2 3261   1.070   3.094   4.741
 1076SOL     OW 3262   1.638   2.961   4.803
 1076SOL    HW1 3263   1.643   3.042   4.862
 1076SOL    HW2 3264   1.552   2.963   4.752
 1077SOL     OW 3265   0.705   2.912   4.092
 1077SOL    HW1 3266   0.691   2.919   4.191
 1077SOL    HW2 3267   0.789   2.861   4.074
 1078SOL     OW 3268   0.410   2.675   4.975
 1078SOL    HW1 3269   0.496   2.687   5.025
 1078SOL    HW2 3270   0.368   2.588   5.002
 1079SOL     OW 3271   1.274   2.248   4.986
 1079SOL    HW1 3272   1.295   2.322   5.050
 1079SOL    HW2 3273   1.185   2.265   4.943
 1080SOL     OW 3274   0.367   2.962   4.225
 1080SOL    HW1 3275   0.360   3.045   4.169
 1080SOL    HW2 3276   0.371   2.882   4.165
 1081SOL     OW 3277   0.566   2.399   4.589
 1081SOL    HW1 3278   0.578   2.465   4.515
 1081SOL    HW2 3279   0.612   2.433   4.672
 1082SOL     OW 3280   1.252   3.210   4.112
 1082SOL    HW1 3281   1.302   3.287   4.152
 1082SOL    HW2 3282   1.157   3.212   4.144
 1083SOL     OW 3283   1.272   3.307   4.866
 1083SOL    HW1 3284   1.319   3.320   4.953
 1083SOL    HW2 3285   1.206   3.233   4.875
 1084SOL     OW 3286   1.582   2.501   4.196
 1084SOL    HW1 3287   1.551   2.562   4.269
 1084SOL    HW2 3288   1.632   2.553   4.127
 1085SOL     OW 3289   0.354   3.372   5.053
 1085SOL    HW1 3290   0.333   3.328   4.966
 1085SOL    HW2 3291   0.451   3.398   5.056
 1086SOL     OW 3292   0.573   2.732   4.753
 1086SOL    HW1 3293   0.617   2.821   4.744
 1086SOL    HW2 3294   0.510   2.732   4.830
 1087SOL     OW 3295   1.360   2.724   4.769
 1087SOL    HW1 3296   1.285   2.724   4.703
 1087SOL    HW2 3297   1.397   2.632   4.778
 1088SOL     OW 3298   1.209   2.387   3.999
 1088SOL    HW1 3299   1.222   2.303   4.053
 1088SOL    HW2 3300   1.180   2.461   4.059
 1089SOL     OW 3301   0.307   2.075   4.955
 1089SOL    HW1 3302   0.284   2.112   5.045
 1089SOL    HW2 3303   0.277   1.980   4.949
 1090SOL     OW 3304   0.037   3.172   5.006
 1090SOL    HW1 3305   0.090   3.123   5.074
 1090SOL    HW2 3306   0.059   3.270   5.011
 1091SOL     OW 3307   0.732   2.496   4.788
 1091SOL    HW1 3308   0.791   2.470   4.712
 1091SOL    HW2 3309   0.704   2.592   4.777
 1092SOL     OW 3310   0.307   1.925   4.342
 1092SOL    HW1 3311   0.296   2.019   4.375
 1092SOL    HW2 3312   0.302   1.862   4.419
 1093SOL     OW 3313   1.622   2.229   4.098
 1093SOL    HW1 3314   1.624   2.153   4.162
 1093SOL    HW2 3315   1.574   2.306   4.138
 1094SOL     OW 3316   1.023   2.628   4.690
 1094SOL    HW1 3317   1.038   2.649   4.786
 1094SOL    HW2 3318   0.993   2.533   4.681
 1095SOL     OW 3319   1.540   2.136   3.849
 1095SOL    HW1 3320   1.479   2.061   3.872
 1095SOL    HW2 3321   1.562   2.188   3.932
 1096SOL     OW 3322   1.303   2.700   3.766
 1096SOL    HW1 3323   1.337   2.607   3.781
 1096SOL    HW2 3324   1.321   2.727   3.671
 1097SOL     OW 3325   1.068   3.195   4.573
 1097SOL    HW1 3326   1.075   3.111   4.518
 1097SOL    HW2 3327   1.130   3.264   4.537
 1098SOL     OW 3328   0.319   2.672   4.673
 1098SOL    HW1 3329   0.412   2.708   4.678
 1098SOL    HW2 3330   0.313   2.587   4.725
 1099SOL     OW 3331   0.339   2.371   4.730
 1099SOL    HW1 3332   0.287   2.288   4.713
 1099SOL    HW2 3333   0.416   2.376   4.666
 1100SOL     OW 3334   1.160   2.069   5.201
 1100SOL    HW1 3335   1.160   2.133   5.278
 1100SOL    HW2 3336   1.188   2.117   5.118
 1101SOL     OW 3337   0.008   3.188   3.924
 1101SOL    HW1 3338  -0.085   3.209   3.893
 1101SOL    HW2 3339   0.018   3.089   3.937
 1102SOL     OW 3340   0.088   3.663   4.651
 1102SOL    HW1 3341   0.046   3.577   4.624
 1102SOL    HW2 3342   0.182   3.666   4.617
 1103SOL     OW 3343   0.504   3.430   4.634
 1103SOL    HW1 3344   0.570   3.504   4.643
 1103SOL    HW2 3345   0.548   3.351   4.592
 1104SOL     OW 3346   1.002   2.658   4.962
 1104SOL    HW1 3347   1.043   2.626   5.048
 1104SOL    HW2 3348   0.906   2.631   4.959
 1105SOL     OW 3349   0.040   2.406   4.838
 1105SOL    HW1 3350   0.125   2.373   4.797
 1105SOL    HW2 3351   0.053   2.421   4.936
 1106SOL     OW 3352   0.815   2.434   4.049
 1106SOL    HW1 3353   0.822   2.345   4.003
 1106SOL    HW2 3354   0.721   2.468   4.041
 1107SOL     OW 3355   1.657   2.466   4.930
 1107SOL    HW1 3356   1.619   2.397   4.992
 1107SOL    HW2 3357   1.739   2.430   4.886
 1108SOL     OW 3358   0.671   2.326   4.993
 1108SOL    HW1 3359   0.637   2.237   4.963
 1108SOL    HW2 3360   0.697   2.380   4.913
 1109SOL     OW 3361   0.930   3.540   5.189
 1109SOL    HW1 3362   0.906   3.522   5.094
 1109SOL    HW2 3363   0.960   3.634   5.199
 1110SOL     OW 3364   0.473   2.362   3.915
 1110SOL    HW1 3365   0.534   2.442   3.919
 1110SOL    HW2 3366   0.378   2.393   3.922
 1111SOL     OW 3367   1.347   2.921   4.958
 1111SOL    HW1 3368   1.371   2.858   4.884
 1111SOL    HW2 3369   1.257   2.961   4.940
 1112SOL     OW 3370   1.302   2.717   4.033
 1112SOL    HW1 3371   1.216   2.686   4.075
 1112SOL    HW2 3372   1.298   2.703   3.934
 1113SOL     OW 3373   1.759   3.609   4.878
 1113SOL    HW1 3374   1.820   3.639   4.805
 1113SOL    HW2 3375   1.721   3.520   4.856
 1114SOL     OW 3376   1.252   3.593   4.852
 1114SOL    HW1 3377   1.336   3.598   4.798
 1114SOL    HW2 3378   1.229   3.497   4.870
 1115SOL     OW 3379   0.083   3.120   4.746
 1115SOL    HW1 3380   0.078   3.119   4.846
 1115SOL    HW2 3381   0.000   3.079   4.708
 1116SOL     OW 3382   1.726   1.997   4.247
 1116SOL    HW1 3383   1.799   1.980   4.180
 1116SOL    HW2 3384   1.695   1.910   4.285
 1117SOL     OW 3385   1.388   3.435   4.201
 1117SOL    HW1 3386   1.455   3.447   4.127
 1117SOL    HW2 3387   1.348   3.524   4.224
 1118SOL     OW 3388   1.280   2.789   4.396
 1118SOL    HW1 3389   1.340   2.708   4.398
 1118SOL    HW2 3390   1.320   2.858   4.336
 1119SOL     OW 3391   0.672   3.478   3.878
 1119SOL    HW1 3392   0.681   3.488   3.779
 1119SOL    HW2 3393   0.632   3.389   3.899
 1120SOL     OW 3394   1.650   3.582   5.118
 1120SOL    HW1 3395   1.703   3.592   5.034
 1120SOL    HW2 3396   1.623   3.672   5.152
 1121SOL     OW 3397   1.841   2.037   4.687
 1121SOL    HW1 3398   1.880   1.952   4.651
 1121SOL    HW2 3399   1.743   2.039   4.668
 1122SOL     OW 3400   0.263   2.188   4.444
 1122SOL    HW1 3401   0.184   2.239   4.410
 1122SOL    HW2 3402   0.254   2.173   4.542
 1123SOL     OW 3403   1.194   3.474   3.755
 1123SOL    HW1 3404   1.200   3.381   3.792
 1123SOL    HW2 3405   1.135   3.474   3.675
 1124SOL     OW 3406   0.822   2.864   5.096
 1124SOL    HW1 3407   0.862   2.863   5.004
 1124SOL    HW2 3408   0.832   2.956   5.136
 1125SOL     OW 3409   0.916   2.772   4.015
 1125SOL    HW1 3410   0.979   2.810   3.947
 1125SOL    HW2 3411   0.956   2.689   4.054
 1126SOL     OW 3412   1.504   3.469   3.768
 1126SOL    HW1 3413   1.412   3.506   3.775
 1126SOL    HW2 3414   1.542   3.489   3.678
 1127SOL     OW 3415   1.039   2.960   4.420
 1127SOL    HW1 3416   0.969   2.913   4.474
 1127SOL    HW2 3417   1.098   2.892   4.377
 1128SOL     OW 3418   1.014   2.098   4.695
 1128SOL    HW1 3419   1.006   2.062   4.602
 1128SOL    HW2 3420   1.012   2.022   4.760
 1129SOL     OW 3421   0.590   3.349   4.215
 1129SOL    HW1 3422   0.632   3.291   4.145
 1129SOL    HW2 3423   0.546   3.428   4.171
 1130SOL     OW 3424   1.709   2.247   5.105
 1130SOL    HW1 3425   1.782   2.316   5.109
 1130SOL    HW2 3426   1.737   2.172   5.046
 1131SOL     OW 3427   0.255   3.210   4.014
 1131SOL    HW1 3428   0.159   3.211   3.987
 1131SOL    HW2 3429   0.267   3.263   4.098
 1132SOL     OW 3430   0.075   2.207   3.757
 1132SOL    HW1 3431  -0.017   2.179   3.728
 1132SOL    HW2 3432   0.106   2.284   3.701
 1133SOL     OW 3433   0.072   2.028   4.042
 1133SOL    HW1 3434   0.055   2.111   3.988
 1133SOL    HW2 3435   0.162   1.991   4.020
 1134SOL     OW 3436   1.183   3.197   3.843
 1134SOL    HW1 3437   1.084   3.186   3.845
 1134SOL    HW2 3438   1.217   3.212   3.936
 1135SOL     OW 3439   1.493   3.629   4.683
 1135SOL    HW1 3440   1.526   3.693   4.614
 1135SOL    HW2 3441   1.559   3.623   4.758
 1136SOL     OW 3442   1.674   2.745   4.978
 1136SOL    HW1 3443   1.647   2.656   4.941
 1136SOL    HW2 3444   1.675   2.813   4.905
 1137SOL     OW 3445   1.225   2.187   4.173
 1137SOL    HW1 3446   1.290   2.113   4.162
 1137SOL    HW2 3447   1.245   2.237   4.257
 1138SOL     OW 3448   0.594   2.607   4.376
 1138SOL    HW1 3449   0.644   2.692   4.357
 1138SOL    HW2 3450   0.506   2.609   4.328
 1139SOL     OW 3451   1.730   2.796   5.241
 1139SOL    HW1 3452   1.768   2.887   5.256
 1139SOL    HW2 3453   1.722   2.779   5.142
 1140SOL     OW 3454   0.859   3.236   3.740
 1140SOL    HW1 3455   0.813   3.251   3.828
 1140SOL    HW2 3456   0.903   3.321   3.710
 1141SOL     OW 3457   0.661   3.652   4.677
 1141SOL    HW1 3458   0.615   3.740   4.664
 1141SOL    HW2 3459   0.760   3.664   4.670
 1142SOL     OW 3460   0.859   2.818   4.585
 1142SOL    HW1 3461   0.913   2.749   4.633
 1142SOL    HW2 3462   0.827   2.887   4.651
 1143SOL     OW 3463   1.083   2.846   3.811
 1143SOL    HW1 3464   1.060   2.899   3.729
 1143SOL    HW2 3465   1.164   2.790   3.792
 1144SOL     OW 3466   1.861   3.431   4.575
 1144SOL    HW1 3467   1.790   3.419   4.505
 1144SOL    HW2 3468   1.862   3.352   4.635
 1145SOL     OW 3469   0.079   3.102   4.377
 1145SOL    HW1 3470   0.078   3.055   4.465
 1145SOL    HW2 3471   0.161   3.074   4.326
 1146SOL     OW 3472   1.824   2.054   4.951
 1146SOL    HW1 3473   1.820   1.964   4.995
 1146SOL    HW2 3474   1.827   2.043   4.852
 1147SOL     OW 3475   0.428   2.286   4.244
 1147SOL    HW1 3476   0.458   2.214   4.182
 1147SOL    HW2 3477   0.389   2.246   4.327
 1148SOL     OW 3478   1.705   3.349   4.828
 1148SOL    HW1 3479   1.612   3.324   4.801
 1148SOL    HW2 3480   1.731   3.299   4.910
 1149SOL     OW 3481   0.812   3.448   4.411
 1149SOL    HW1 3482   0.844   3.458   4.317
 1149SOL    HW2 3483   0.733   3.386   4.413
 1150SOL     OW 3484   1.424   2.076   4.836
 1150SOL    HW1 3485   1.476   2.011   4.891
 1150SOL    HW2 3486   1.375   2.139   4.897
 1151SOL     OW 3487   1.001   1.896   4.878
 1151SOL    HW1 3488   0.938   1.824   4.847
 1151SOL    HW2 3489   1.094   1.860   4.878
 1152SOL     OW 3490   0.770   3.192   4.025
 1152SOL    HW1 3491   0.724   3.105   4.042
 1152SOL    HW2 3492   0.861   3.189   4.066
 1153SOL     OW 3493   1.352   1.914   3.892
 1153SOL    HW1 3494   1.387   1.873   3.808
 1153SOL    HW2 3495   1.262   1.876   3.912
 1154SOL     OW 3496   1.300   2.315   4.415
 1154SOL    HW1 3497   1.241   2.395   4.419
 1154SOL    HW2 3498   1.315   2.280   4.508
 1155SOL     OW 3499   1.593   2.083   4.606
 1155SOL    HW1 3500   1.509   2.082   4.660
 1155SOL    HW2 3501   1.595   2.166   4.550
 1156SOL     OW 3502   0.039   2.939   4.024
 1156SOL    HW1 3503   0.138   2.928   4.015
 1156SOL    HW2 3504  -0.001   2.853   4.056
 1157SOL     OW 3505   0.875   3.508   4.061
 1157SOL    HW1 3506   0.798   3.473   4.007
 1157SOL    HW2 3507   0.843   3.579   4.123
 1158SOL     OW 3508   0.230   4.352   0.113
 1158SOL    HW1 3509   0.137   4.350   0.150
 1158SOL    HW2 3510   0.231   4.313   0.021
 1159SOL     OW 3511   0.225   3.999   0.996
 1159SOL    HW1 3512   0.260   3.982   1.088
 1159SOL    HW2 3513   0.137   3.954   0.984
 1160SOL     OW 3514   0.019   4.092   0.647
 1160SOL    HW1 3515  -0.063   4.135   0.686
 1160SOL    HW2 3516  -0.009   4.019   0.584
 1161SOL     OW 3517   1.135   4.427   0.717
 1161SOL    HW1 3518   1.192   4.505   0.692
 1161SOL    HW2 3519   1.075   4.453   0.793
 1162SOL     OW 3520   1.755   4.331   0.231
 1162SOL    HW1 3521   1.743   4.318   0.132
 1162SOL    HW2 3522   1.725   4.250   0.280
 1163SOL     OW 3523   0.768   4.868   1.023
 1163SOL    HW1 3524   0.690   4.885   1.083
 1163SOL    HW2 3525   0.802   4.955   0.987
 1164SOL     OW 3526   0.850   4.522   1.823
 1164SOL    HW1 3527   0.846   4.598   1.888
 1164SOL    HW2 3528   0.872   4.558   1.732
 1165SOL     OW 3529   0.685   4.736   0.665
 1165SOL    HW1 3530   0.754   4.720   0.735
 1165SOL    HW2 3531   0.612   4.793   0.703
 1166SOL     OW 3532   0.686   4.885   1.803
 1166SOL    HW1 3533   0.746   4.964   1.817
 1166SOL    HW2 3534   0.600   4.916   1.762
 1167SOL     OW 3535   0.335   5.159   1.061
 1167SOL    HW1 3536   0.257   5.128   1.008
 1167SOL    HW2 3537   0.393   5.217   1.004
 1168SOL     OW 3538   0.438   4.116   1.499
 1168SOL    HW1 3539   0.520   4.060   1.508
 1168SOL    HW2 3540   0.357   4.058   1.503
 1169SOL     OW 3541   1.603   4.171   0.737
 1169SOL    HW1 3542   1.529   4.217   0.687
 1169SOL    HW2 3543   1.654   4.239   0.790
 1170SOL     OW 3544   0.240   4.815   0.886
 1170SOL    HW1 3545   0.254   4.731   0.938
 1170SOL    HW2 3546   0.185   4.879   0.941
 1171SOL     OW 3547   0.606   4.688   0.123
 1171SOL    HW1 3548   0.613   4.772   0.069
 1171SOL    HW2 3549   0.652   4.701   0.211
 1172SOL     OW 3550   1.594   3.838   1.480
 1172SOL    HW1 3551   1.576   3.905   1.408
 1172SOL    HW2 3552   1.591   3.884   1.569
 1173SOL     OW 3553   0.122   4.367   0.563
 1173SOL    HW1 3554   0.077   4.279   0.580
 1173SOL    HW2 3555   0.121   4.421   0.647
 1174SOL     OW 3556   1.689   4.646   0.612
 1174SOL    HW1 3557   1.784   4.617   0.620
 1174SOL    HW2 3558   1.681   4.711   0.537
 1175SOL     OW 3559   1.641   4.832   0.432
 1175SOL    HW1 3560   1.727   4.834   0.380
 1175SOL    HW2 3561   1.655   4.879   0.520
 1176SOL     OW 3562   0.113   4.461   1.597
 1176SOL    HW1 3563   0.201   4.448   1.642
 1176SOL    HW2 3564   0.100   4.558   1.575
 1177SOL     OW 3565   1.293   4.952   1.423
 1177SOL    HW1 3566   1.330   4.879   1.365
 1177SOL    HW2 3567   1.345   4.957   1.508
 1178SOL     OW 3568   0.809   3.728   0.502
 1178SOL    HW1 3569   0.849   3.819   0.493
 1178SOL    HW2 3570   0.709   3.736   0.508
 1179SOL     OW 3571   0.197   4.700   1.264
 1179SOL    HW1 3572   0.286   4.655   1.250
 1179SOL    HW2 3573   0.124   4.635   1.245
 1180SOL     OW 3574   1.525   4.723   0.190
 1180SOL    HW1 3575   1.462   4.647   0.203
 1180SOL    HW2 3576   1.573   4.741   0.276
 1181SOL     OW 3577   0.317   3.975   1.801
 1181SOL    HW1 3578   0.388   4.046   1.807
 1181SOL    HW2 3579   0.229   4.014   1.829
 1182SOL     OW 3580   0.598   4.453   0.270
 1182SOL    HW1 3581   0.622   4.522   0.202
 1182SOL    HW2 3582   0.520   4.486   0.324
 1183SOL     OW 3583   1.281   4.069   0.944
 1183SOL    HW1 3584   1.195   4.019   0.931
 1183SOL    HW2 3585   1.343   4.015   1.000
 1184SOL     OW 3586   0.807   4.329   1.465
 1184SOL    HW1 3587   0.760   4.326   1.554
 1184SOL    HW2 3588   0.756   4.274   1.399
 1185SOL     OW 3589   1.394   4.193   1.674
 1185SOL    HW1 3590   1.374   4.236   1.762
 1185SOL    HW2 3591   1.472   4.131   1.683
 1186SOL     OW 3592   0.973   4.614   1.572
 1186SOL    HW1 3593   1.019   4.530   1.543
 1186SOL    HW2 3594   0.917   4.648   1.497
 1187SOL     OW 3595   0.991   4.134   1.242
 1187SOL    HW1 3596   0.914   4.168   1.296
 1187SOL    HW2 3597   0.957   4.083   1.163
 1188SOL     OW 3598   1.041   4.425   0.429
 1188SOL    HW1 3599   1.067   4.421   0.525
 1188SOL    HW2 3600   0.956   4.374   0.415
 1189SOL     OW 3601   0.076   4.535   0.789
 1189SOL    HW1 3602   0.175   4.523   0.798
 1189SOL    HW2 3603   0.052   4.630   0.810
 1190SOL     OW 3604   0.865   4.072   0.195
 1190SOL    HW1 3605   0.924   4.135   0.146
 1190SOL    HW2 3606   0.884   3.978   0.166
 1191SOL     OW 3607   1.719   4.309   1.831
 1191SOL    HW1 3608   1.693   4.398   1.795
 1191SOL    HW2 3609   1.717   4.241   1.758
 1192SOL     OW 3610   1.362   4.868   0.545
 1192SOL    HW1 3611   1.445   4.839   0.497
 1192SOL    HW2 3612   1.313   4.935   0.489
 1193SOL     OW 3613   0.550   3.920   0.885
 1193SOL    HW1 3614   0.545   3.915   0.985
 1193SOL    HW2 3615   0.552   4.016   0.856
 1194SOL     OW 3616   1.795   4.790   0.873
 1194SOL    HW1 3617   1.733   4.775   0.797
 1194SOL    HW2 3618   1.743   4.801   0.958
 1195SOL     OW 3619   0.321   4.667   0.242
 1195SOL    HW1 3620   0.403   4.706   0.200
 1195SOL    HW2 3621   0.294   4.585   0.193
 1196SOL     OW 3622   1.458   4.459   0.728
 1196SOL    HW1 3623   1.453   4.394   0.803
 1196SOL    HW2 3624   1.538   4.518   0.741
 1197SOL     OW 3625   0.202   4.009   1.498
 1197SOL    HW1 3626   0.122   4.069   1.485
 1197SOL    HW2 3627   0.192   3.960   1.584
 1198SOL     OW 3628   1.400   3.831   0.426
 1198SOL    HW1 3629   1.376   3.794   0.336
 1198SOL    HW2 3630   1.499   3.847   0.430
 1199SOL     OW 3631   0.382   4.424   0.480
 1199SOL    HW1 3632   0.427   4.334   0.477
 1199SOL    HW2 3633   0.288   4.413   0.513
 1200SOL     OW 3634   1.547   3.946   1.729
 1200SOL    HW1 3635   1.542   3.983   1.821
 1200SOL    HW2 3636   1.475   3.877   1.717
 1201SOL     OW 3637   0.614   3.846   0.117
 1201SOL    HW1 3638   0.712   3.824   0.124
 1201SOL    HW2 3639   0.583   3.829   0.024
 1202SOL     OW 3640   0.781   3.988   1.749
 1202SOL    HW1 3641   0.848   3.927   1.792
 1202SOL    HW2 3642   0.708   4.007   1.814
 1203SOL     OW 3643   1.351   4.314   1.433
 1203SOL    HW1 3644   1.379   4.271   1.518
 1203SOL    HW2 3645   1.376   4.410   1.434
 1204SOL     OW 3646   0.803   5.126   0.924
 1204SOL    HW1 3647   0.893   5.140   0.882
 1204SOL    HW2 3648   0.732   5.128   0.853
 1205SOL     OW 3649   0.922   4.227   0.899
 1205SOL    HW1 3650   0.897   4.218   0.803
 1205SOL    HW2 3651   0.970   4.145   0.930
 1206SOL     OW 3652   0.539   3.788   0.512
 1206SOL    HW1 3653   0.458   3.789   0.570
 1206SOL    HW2 3654   0.542   3.871   0.457
 1207SOL     OW 3655   0.297   3.759   0.171
 1207SOL    HW1 3656   0.346   3.843   0.150
 1207SOL    HW2 3657   0.359   3.694   0.216
 1208SOL     OW 3658   0.935   3.960   0.480
 1208SOL    HW1 3659   0.887   4.001   0.402
 1208SOL    HW2 3660   1.034   3.958   0.461
 1209SOL     OW 3661   1.076   4.407   1.464
 1209SOL    HW1 3662   0.996   4.346   1.467
 1209SOL    HW2 3663   1.157   4.354   1.440
 1210SOL     OW 3664   0.459   4.876   0.741
 1210SOL    HW1 3665   0.388   4.849   0.806
 1210SOL    HW2 3666   0.433   4.848   0.648
 1211SOL     OW 3667   1.032   4.273   0.016
 1211SOL    HW1 3668   0.991   4.355  -0.023
 1211SOL    HW2 3669   1.096   4.299   0.089
 1212SOL     OW 3670   0.078   4.280   1.386
 1212SOL    HW1 3671   0.170   4.279   1.345
 1212SOL    HW2 3672   0.072   4.354   1.453
 1213SOL     OW 3673   0.561   3.946   1.147
 1213SOL    HW1 3674   0.599   3.862   1.184
 1213SOL    HW2 3675   0.473   3.965   1.191
 1214SOL     OW 3676   0.866   4.178   0.642
 1214SOL    HW1 3677   0.834   4.250   0.580
 1214SOL    HW2 3678   0.890   4.097   0.589
 1215SOL     OW 3679   1.017   3.763   0.753
 1215SOL    HW1 3680   0.945   3.768   0.684
 1215SOL    HW2 3681   0.993   3.694   0.822
 1216SOL     OW 3682   1.429   4.897   0.867
 1216SOL    HW1 3683   1.374   4.813   0.860
 1216SOL    HW2 3684   1.455   4.926   0.775
 1217SOL     OW 3685   1.466   4.314   0.992
 1217SOL    HW1 3686   1.436   4.219   0.999
 1217SOL    HW2 3687   1.539   4.330   1.058
 1218SOL     OW 3688   1.857   4.557   0.377
 1218SOL    HW1 3689   1.899   4.493   0.441
 1218SOL    HW2 3690   1.819   4.506   0.299
 1219SOL     OW 3691   1.390   4.299   0.078
 1219SOL    HW1 3692   1.336   4.278   0.159
 1219SOL    HW2 3693   1.481   4.258   0.087
 1220SOL     OW 3694   0.527   3.980   0.328
 1220SOL    HW1 3695   0.554   3.921   0.253
 1220SOL    HW2 3696   0.527   4.075   0.297
 1221SOL     OW 3697   1.754   4.947   1.588
 1221SOL    HW1 3698   1.845   4.908   1.575
 1221SOL    HW2 3699   1.762   5.043   1.612
 1222SOL     OW 3700   1.638   4.823   1.079
 1222SOL    HW1 3701   1.643   4.904   1.138
 1222SOL    HW2 3702   1.552   4.825   1.028
 1223SOL     OW 3703   0.915   3.813   1.402
 1223SOL    HW1 3704   0.940   3.793   1.307
 1223SOL    HW2 3705   0.987   3.869   1.444
 1224SOL     OW 3706   0.980   4.840   1.719
 1224SOL    HW1 3707   0.881   4.846   1.729
 1224SOL    HW2 3708   1.003   4.760   1.663
 1225SOL     OW 3709   0.705   4.774   0.368
 1225SOL    HW1 3710   0.691   4.781   0.467
 1225SOL    HW2 3711   0.789   4.723   0.350
 1226SOL     OW 3712   0.410   4.537   1.251
 1226SOL    HW1 3713   0.496   4.549   1.301
 1226SOL    HW2 3714   0.368   4.450   1.278
 1227SOL     OW 3715   1.274   4.110   1.262
 1227SOL    HW1 3716   1.295   4.184   1.326
 1227SOL    HW2 3717   1.185   4.127   1.219
 1228SOL     OW 3718   0.367   4.824   0.501
 1228SOL    HW1 3719   0.360   4.907   0.445
 1228SOL    HW2 3720   0.371   4.744   0.441
 1229SOL     OW 3721   0.566   4.261   0.865
 1229SOL    HW1 3722   0.578   4.327   0.791
 1229SOL    HW2 3723   0.612   4.295   0.948
 1230SOL     OW 3724   1.582   4.363   0.472
 1230SOL    HW1 3725   1.551   4.424   0.545
 1230SOL    HW2 3726   1.632   4.415   0.403
 1231SOL     OW 3727   0.402   4.475   1.598
 1231SOL    HW1 3728   0.470   4.530   1.551
 1231SOL    HW2 3729   0.442   4.387   1.625
 1232SOL     OW 3730   1.587   4.503   1.670
 1232SOL    HW1 3731   1.495   4.541   1.665
 1232SOL    HW2 3732   1.647   4.550   1.605
 1233SOL     OW 3733   1.013   3.829   1.770
 1233SOL    HW1 3734   1.019   3.914   1.718
 1233SOL    HW2 3735   1.045   3.753   1.713
 1234SOL     OW 3736   0.504   3.774   1.740
 1234SOL    HW1 3737   0.462   3.717   1.670
 1234SOL    HW2 3738   0.438   3.843   1.772
 1235SOL     OW 3739   0.573   4.594   1.029
 1235SOL    HW1 3740   0.617   4.683   1.020
 1235SOL    HW2 3741   0.510   4.594   1.106
 1236SOL     OW 3742   1.360   4.586   1.045
 1236SOL    HW1 3743   1.285   4.586   0.979
 1236SOL    HW2 3744   1.397   4.494   1.054
 1237SOL     OW 3745   1.209   4.249   0.275
 1237SOL    HW1 3746   1.222   4.165   0.329
 1237SOL    HW2 3747   1.180   4.323   0.335
 1238SOL     OW 3748   0.307   3.937   1.231
 1238SOL    HW1 3749   0.284   3.974   1.321
 1238SOL    HW2 3750   0.277   3.842   1.225
 1239SOL     OW 3751   0.037   5.034   1.282
 1239SOL    HW1 3752   0.090   4.985   1.350
 1239SOL    HW2 3753   0.059   5.132   1.287
 1240SOL     OW 3754   0.732   4.358   1.064
 1240SOL    HW1 3755   0.791   4.332   0.988
 1240SOL    HW2 3756   0.704   4.454   1.053
 1241SOL     OW 3757   1.728   4.659   1.854
 1241SOL    HW1 3758   1.682   4.652   1.765
 1241SOL    HW2 3759   1.666   4.703   1.920
 1242SOL     OW 3760   0.307   3.787   0.618
 1242SOL    HW1 3761   0.296   3.881   0.651
 1242SOL    HW2 3762   0.302   3.724   0.695
 1243SOL     OW 3763   1.622   4.091   0.374
 1243SOL    HW1 3764   1.624   4.015   0.438
 1243SOL    HW2 3765   1.574   4.168   0.414
 1244SOL     OW 3766   1.023   4.490   0.966
 1244SOL    HW1 3767   1.038   4.511   1.062
 1244SOL    HW2 3768   0.993   4.395   0.957
 1245SOL     OW 3769   1.859   5.242   1.605
 1245SOL    HW1 3770   1.873   5.269   1.510
 1245SOL    HW2 3771   1.942   5.264   1.658
 1246SOL     OW 3772   0.350   4.622   1.804
 1246SOL    HW1 3773   0.426   4.666   1.852
 1246SOL    HW2 3774   0.385   4.575   1.722
 1247SOL     OW 3775   1.540   3.998   0.125
 1247SOL    HW1 3776   1.479   3.923   0.148
 1247SOL    HW2 3777   1.562   4.050   0.208
 1248SOL     OW 3778   1.303   4.562   0.042
 1248SOL    HW1 3779   1.337   4.469   0.057
 1248SOL    HW2 3780   1.321   4.589  -0.053
 1249SOL     OW 3781   0.319   4.534   0.949
 1249SOL    HW1 3782   0.412   4.570   0.954
 1249SOL    HW2 3783   0.313   4.449   1.001
 1250SOL     OW 3784   0.339   4.233   1.006
 1250SOL    HW1 3785   0.287   4.150   0.989
 1250SOL    HW2 3786   0.416   4.238   0.942
 1251SOL     OW 3787   1.138   4.104   1.678
 1251SOL    HW1 3788   1.093   4.167   1.742
 1251SOL    HW2 3789   1.231   4.135   1.661
 1252SOL     OW 3790   1.160   3.931   1.477
 1252SOL    HW1 3791   1.160   3.995   1.554
 1252SOL    HW2 3792   1.188   3.979   1.394
 1253SOL     OW 3793   0.008   5.050   0.200
 1253SOL    HW1 3794  -0.085   5.071   0.169
 1253SOL    HW2 3795   0.018   4.951   0.213
 1254SOL     OW 3796   1.002   4.520   1.238
 1254SOL    HW1 3797   1.043   4.488   1.324
 1254SOL    HW2 3798   0.906   4.493   1.235
 1255SOL     OW 3799   0.040   4.268   1.114
 1255SOL    HW1 3800   0.125   4.235   1.073
 1255SOL    HW2 3801   0.053   4.283   1.212
 1256SOL     OW 3802   0.189   4.244   1.722
 1256SOL    HW1 3803   0.248   4.204   1.652
 1256SOL    HW2 3804   0.131   4.315   1.681
 1257SOL     OW 3805   1.369   4.674   1.660
 1257SOL    HW1 3806   1.408   4.763   1.680
 1257SOL    HW2 3807   1.379   4.654   1.563
 1258SOL     OW 3808   0.815   4.296   0.325
 1258SOL    HW1 3809   0.822   4.207   0.279
 1258SOL    HW2 3810   0.721   4.330   0.317
 1259SOL     OW 3811   1.657   4.328   1.206
 1259SOL    HW1 3812   1.619   4.259   1.268
 1259SOL    HW2 3813   1.739   4.292   1.162
 1260SOL     OW 3814   0.671   4.188   1.269
 1260SOL    HW1 3815   0.637   4.099   1.239
 1260SOL    HW2 3816   0.697   4.242   1.189
 1261SOL     OW 3817   0.473   4.224   0.191
 1261SOL    HW1 3818   0.534   4.304   0.195
 1261SOL    HW2 3819   0.378   4.255   0.198
 1262SOL     OW 3820   0.159   4.861   1.466
 1262SOL    HW1 3821   0.181   4.800   1.542
 1262SOL    HW2 3822   0.169   4.812   1.380
 1263SOL     OW 3823   1.347   4.783   1.234
 1263SOL    HW1 3824   1.371   4.720   1.160
 1263SOL    HW2 3825   1.257   4.823   1.216
 1264SOL     OW 3826   1.302   4.579   0.309
 1264SOL    HW1 3827   1.216   4.548   0.351
 1264SOL    HW2 3828   1.298   4.565   0.210
 1265SOL     OW 3829   0.083   4.982   1.022
 1265SOL    HW1 3830   0.078   4.981   1.122
 1265SOL    HW2 3831   0.000   4.941   0.984
 1266SOL     OW 3832   0.903   3.810   0.133
 1266SOL    HW1 3833   0.954   3.811   0.047
 1266SOL    HW2 3834   0.959   3.768   0.204
 1267SOL     OW 3835   1.726   3.859   0.523
 1267SOL    HW1 3836   1.799   3.842   0.456
 1267SOL    HW2 3837   1.695   3.772   0.561
 1268SOL     OW 3838   1.280   4.651   0.672
 1268SOL    HW1 3839   1.340   4.570   0.674
 1268SOL    HW2 3840   1.320   4.720   0.612
 1269SOL     OW 3841   1.841   3.899   0.963
 1269SOL    HW1 3842   1.880   3.814   0.927
 1269SOL    HW2 3843   1.743   3.901   0.944
 1270SOL     OW 3844   0.263   4.050   0.720
 1270SOL    HW1 3845   0.184   4.101   0.686
 1270SOL    HW2 3846   0.254   4.035   0.818
 1271SOL     OW 3847   0.822   4.726   1.372
 1271SOL    HW1 3848   0.862   4.725   1.280
 1271SOL    HW2 3849   0.832   4.818   1.412
 1272SOL     OW 3850   0.916   4.634   0.291
 1272SOL    HW1 3851   0.979   4.672   0.223
 1272SOL    HW2 3852   0.956   4.551   0.330
 1273SOL     OW 3853   0.372   5.012   1.490
 1273SOL    HW1 3854   0.359   5.105   1.456
 1273SOL    HW2 3855   0.288   4.960   1.477
 1274SOL     OW 3856   1.614   5.016   1.289
 1274SOL    HW1 3857   1.674   5.019   1.369
 1274SOL    HW2 3858   1.539   5.080   1.302
 1275SOL     OW 3859   1.039   4.822   0.696
 1275SOL    HW1 3860   0.969   4.775   0.750
 1275SOL    HW2 3861   1.098   4.754   0.653
 1276SOL     OW 3862   1.014   3.960   0.971
 1276SOL    HW1 3863   1.006   3.924   0.878
 1276SOL    HW2 3864   1.012   3.884   1.036
 1277SOL     OW 3865   1.709   4.109   1.381
 1277SOL    HW1 3866   1.782   4.178   1.385
 1277SOL    HW2 3867   1.737   4.034   1.322
 1278SOL     OW 3868   0.105   4.737   1.726
 1278SOL    HW1 3869   0.028   4.704   1.780
 1278SOL    HW2 3870   0.190   4.707   1.768
 1279SOL     OW 3871   0.672   3.927   1.489
 1279SOL    HW1 3872   0.762   3.911   1.449
 1279SOL    HW2 3873   0.680   3.932   1.588
 1280SOL     OW 3874   0.075   4.069   0.033
 1280SOL    HW1 3875  -0.017   4.041   0.004
 1280SOL    HW2 3876   0.106   4.146  -0.023
 1281SOL     OW 3877   1.440   4.580   1.398
 1281SOL    HW1 3878   1.383   4.632   1.335
 1281SOL    HW2 3879   1.536   4.592   1.374
 1282SOL     OW 3880   0.072   3.890   0.318
 1282SOL    HW1 3881   0.055   3.973   0.264
 1282SOL    HW2 3882   0.162   3.853   0.296
 1283SOL     OW 3883   0.613   4.566   1.431
 1283SOL    HW1 3884   0.669   4.647   1.414
 1283SOL    HW2 3885   0.672   4.486   1.434
 1284SOL     OW 3886   0.716   4.289   1.708
 1284SOL    HW1 3887   0.735   4.354   1.782
 1284SOL    HW2 3888   0.776   4.209   1.717
 1285SOL     OW 3889   1.450   4.944   1.633
 1285SOL    HW1 3890   1.441   4.934   1.732
 1285SOL    HW2 3891   1.546   4.937   1.607
 1286SOL     OW 3892   1.674   4.607   1.254
 1286SOL    HW1 3893   1.647   4.518   1.217
 1286SOL    HW2 3894   1.675   4.675   1.181
 1287SOL     OW 3895   1.225   4.049   0.449
 1287SOL    HW1 3896   1.290   3.975   0.438
 1287SOL    HW2 3897   1.245   4.099   0.533
 1288SOL     OW 3898   0.594   4.469   0.652
 1288SOL    HW1 3899   0.644   4.554   0.633
 1288SOL    HW2 3900   0.506   4.471   0.604
 1289SOL     OW 3901   1.777   4.066   1.642
 1289SOL    HW1 3902   1.760   4.097   1.548
 1289SOL    HW2 3903   1.693   4.029   1.680
 1290SOL     OW 3904   1.730   4.658   1.517
 1290SOL    HW1 3905   1.768   4.749   1.532
 1290SOL    HW2 3906   1.722   4.641   1.418
 1291SOL     OW 3907   0.859   4.680   0.861
 1291SOL    HW1 3908   0.913   4.611   0.909
 1291SOL    HW2 3909   0.827   4.749   0.927
 1292SOL     OW 3910   1.083   4.708   0.087
 1292SOL    HW1 3911   1.060   4.761   0.005
 1292SOL    HW2 3912   1.164   4.652   0.068
 1293SOL     OW 3913   0.079   4.964   0.653
 1293SOL    HW1 3914   0.078   4.917   0.741
 1293SOL    HW2 3915   0.161   4.936   0.602
 1294SOL     OW 3916   1.824   3.916   1.227
 1294SOL    HW1 3917   1.820   3.826   1.271
 1294SOL    HW2 3918   1.827   3.905   1.128
 1295SOL     OW 3919   0.428   4.148   0.520
 1295SOL    HW1 3920   0.458   4.076   0.458
 1295SOL    HW2 3921   0.389   4.108   0.603
 1296SOL     OW 3922   0.317   4.271   1.280
 1296SOL    HW1 3923   0.355   4.212   1.352
 1296SOL    HW2 3924   0.357   4.245   1.192
 1297SOL     OW 3925   1.424   3.938   1.112
 1297SOL    HW1 3926   1.476   3.873   1.167
 1297SOL    HW2 3927   1.375   4.001   1.173
 1298SOL     OW 3928   1.001   3.758   1.154
 1298SOL    HW1 3929   0.938   3.686   1.123
 1298SOL    HW2 3930   1.094   3.722   1.154
 1299SOL     OW 3931   0.770   5.054   0.301
 1299SOL    HW1 3932   0.724   4.967   0.318
 1299SOL    HW2 3933   0.861   5.051   0.342
 1300SOL     OW 3934   1.352   3.776   0.168
 1300SOL    HW1 3935   1.387   3.735   0.084
 1300SOL    HW2 3936   1.262   3.738   0.188
 1301SOL     OW 3937   1.300   4.177   0.691
 1301SOL    HW1 3938   1.241   4.257   0.695
 1301SOL    HW2 3939   1.315   4.142   0.784
 1302SOL     OW 3940   1.593   3.945   0.882
 1302SOL    HW1 3941   1.509   3.944   0.936
 1302SOL    HW2 3942   1.595   4.028   0.826
 1303SOL     OW 3943   0.039   4.801   0.300
 1303SOL    HW1 3944   0.138   4.790   0.291
 1303SOL    HW2 3945  -0.001   4.715   0.332
 1304SOL     OW 3946   0.230   4.352   1.975
 1304SOL    HW1 3947   0.137   4.350   2.012
 1304SOL    HW2 3948   0.231   4.313   1.883
 1305SOL     OW 3949   0.225   3.999   2.858
 1305SOL    HW1 3950   0.260   3.982   2.950
 1305SOL    HW2 3951   0.137   3.954   2.846
 1306SOL     OW 3952   0.019   4.092   2.509
 1306SOL    HW1 3953  -0.063   4.135   2.548
 1306SOL    HW2 3954  -0.009   4.019   2.446
 1307SOL     OW 3955   1.135   4.427   2.579
 1307SOL    HW1 3956   1.192   4.505   2.554
 1307SOL    HW2 3957   1.075   4.453   2.655
 1308SOL     OW 3958   1.755   4.331   2.093
 1308SOL    HW1 3959   1.743   4.318   1.994
 1308SOL    HW2 3960   1.725   4.250   2.142
 1309SOL     OW 3961   0.768   4.868   2.885
 1309SOL    HW1 3962   0.690   4.885   2.945
 1309SOL    HW2 3963   0.802   4.955   2.849
 1310SOL     OW 3964   0.850   4.522   3.685
 1310SOL    HW1 3965   0.846   4.598   3.750
 1310SOL    HW2 3966   0.872   4.558   3.594
 1311SOL     OW 3967   0.685   4.736   2.527
 1311SOL    HW1 3968   0.754   4.720   2.597
 1311SOL    HW2 3969   0.612   4.793   2.565
 1312SOL     OW 3970   0.686   4.885   3.665
 1312SOL    HW1 3971   0.746   4.964   3.679
 1312SOL    HW2 3972   0.600   4.916   3.624
 1313SOL     OW 3973   0.335   5.159   2.923
 1313SOL    HW1 3974   0.257   5.128   2.870
 1313SOL    HW2 3975   0.393   5.217   2.866
 1314SOL     OW 3976   0.438   4.116   3.361
 1314SOL    HW1 3977   0.520   4.060   3.370
 1314SOL    HW2 3978   0.357   4.058   3.365
 1315SOL     OW 3979   1.603   4.171   2.599
 1315SOL    HW1 3980   1.529   4.217   2.549
 1315SOL    HW2 3981   1.654   4.239   2.652
 1316SOL     OW 3982   0.240   4.815   2.748
 1316SOL    HW1 3983   0.254   4.731   2.800
 1316SOL    HW2 3984   0.185   4.879   2.803
 1317SOL     OW 3985   0.606   4.688   1.985
 1317SOL    HW1 3986   0.613   4.772   1.931
 1317SOL    HW2 3987   0.652   4.701   2.073
 1318SOL     OW 3988   1.594   3.838   3.342
 1318SOL    HW1 3989   1.576   3.905   3.270
 1318SOL    HW2 3990   1.591   3.884   3.431
 1319SOL     OW 3991   0.122   4.367   2.425
 1319SOL    HW1 3992   0.077   4.279   2.442
 1319SOL    HW2 3993   0.121   4.421   2.509
 1320SOL     OW 3994   1.689   4.646   2.474
 1320SOL    HW1 3995   1.784   4.617   2.482
 1320SOL    HW2 3996   1.681   4.711   2.399
 1321SOL     OW 3997   1.641   4.832   2.294
 1321SOL    HW1 3998   1.727   4.834   2.242
 1321SOL    HW2 3999   1.655   4.879   2.382
 1322SOL     OW 4000   0.113   4.461   3.459
 1322SOL    HW1 4001   0.201   4.448   3.504
 1322SOL    HW2 4002   0.100   4.558   3.437
 1323SOL     OW 4003   1.293   4.952   3.285
 1323SOL    HW1 4004   1.330   4.879   3.227
 1323SOL    HW2 4005   1.345   4.957   3.370
 1324SOL     OW 4006   0.809   3.728   2.364
 1324SOL    HW1 4007   0.849   3.819   2.355
 1324SOL    HW2 4008   0.709   3.736   2.370
 1325SOL     OW 4009   0.197   4.700   3.126
 1325SOL    HW1 4010   0.286   4.655   3.112
 1325SOL    HW2 4011   0.124   4.635   3.107
 1326SOL     OW 4012   1.525   4.723   2.052
 1326SOL    HW1 4013   1.462   4.647   2.065
 1326SOL    HW2 4014   1.573   4.741   2.138
 1327SOL     OW 4015   0.317   3.975   3.663
 1327SOL    HW1 4016   0.388   4.046   3.669
 1327SOL    HW2 4017   0.229   4.014   3.691
 1328SOL     OW 4018   0.598   4.453   2.132
 1328SOL    HW1 4019   0.622   4.522   2.064
 1328SOL    HW2 4020   0.520   4.486   2.186
 1329SOL     OW 4021   1.281   4.069   2.806
 1329SOL    HW1 4022   1.195   4.019   2.793
 1329SOL    HW2 4023   1.343   4.015   2.862
 1330SOL     OW 4024   0.807   4.329   3.327
 1330SOL    HW1 4025   0.760   4.326   3.416
 1330SOL    HW2 4026   0.756   4.274   3.261
 1331SOL     OW 4027   1.394   4.193   3.536
 1331SOL    HW1 4028   1.374   4.236   3.624
 1331SOL    HW2 4029   1.472   4.131   3.545
 1332SOL     OW 4030   0.973   4.614   3.434
 1332SOL    HW1 4031   1.019   4.530   3.405
 1332SOL    HW2 4032   0.917   4.648   3.359
 1333SOL     OW 4033   0.991   4.134   3.104
 1333SOL    HW1 4034   0.914   4.168   3.158
 1333SOL    HW2 4035   0.957   4.083   3.025
 1334SOL     OW 4036   1.041   4.425   2.291
 1334SOL    HW1 4037   1.067   4.421   2.387
 1334SOL    HW2 4038   0.956   4.374   2.277
 1335SOL     OW 4039   0.076   4.535   2.651
 1335SOL    HW1 4040   0.175   4.523   2.660
 1335SOL    HW2 4041   0.052   4.630   2.672
 1336SOL     OW 4042   0.865   4.072   2.057
 1336SOL    HW1 4043   0.924   4.135   2.008
 1336SOL    HW2 4044   0.884   3.978   2.028
 1337SOL     OW 4045   1.719   4.309   3.693
 1337SOL    HW1 4046   1.693   4.398   3.657
 1337SOL    HW2 4047   1.717   4.241   3.620
 1338SOL     OW 4048   1.362   4.868   2.407
 1338SOL    HW1 4049   1.445   4.839   2.359
 1338SOL    HW2 4050   1.313   4.935   2.351
 1339SOL     OW 4051   0.550   3.920   2.747
 1339SOL    HW1 4052   0.545   3.915   2.847
 1339SOL    HW2 4053   0.552   4.016   2.718
 1340SOL     OW 4054   1.795   4.790   2.735
 1340SOL    HW1 4055   1.733   4.775   2.659
 1340SOL    HW2 4056   1.743   4.801   2.820
 1341SOL     OW 4057   0.321   4.667   2.104
 1341SOL    HW1 4058   0.403   4.706   2.062
 1341SOL    HW2 4059   0.294   4.585   2.055
 1342SOL     OW 4060   1.458   4.459   2.590
 1342SOL    HW1 4061   1.453   4.394   2.665
 1342SOL    HW2 4062   1.538   4.518   2.603
 1343SOL     OW 4063   0.202   4.009   3.360
 1343SOL    HW1 4064   0.122   4.069   3.347
 1343SOL    HW2 4065   0.192   3.960   3.446
 1344SOL     OW 4066   1.400   3.831   2.288
 1344SOL    HW1 4067   1.376   3.794   2.198
 1344SOL    HW2 4068   1.499   3.847   2.292
 1345SOL     OW 4069   0.382   4.424   2.342
 1345SOL    HW1 4070   0.427   4.334   2.339
 1345SOL    HW2 4071   0.288   4.413   2.375
 1346SOL     OW 4072   1.547   3.946   3.591
 1346SOL    HW1 4073   1.542   3.983   3.683
 1346SOL    HW2 4074   1.475   3.877   3.579
 1347SOL     OW 4075   0.614   3.846   1.979
 1347SOL    HW1 4076   0.712   3.824   1.986
 1347SOL    HW2 4077   0.583   3.829   1.886
 1348SOL     OW 4078   0.781   3.988   3.611
 1348SOL    HW1 4079   0.848   3.927   3.654
 1348SOL    HW2 4080   0.708   4.007   3.676
 1349SOL     OW 4081   1.351   4.314   3.295
 1349SOL    HW1 4082   1.379   4.271   3.380
 1349SOL    HW2 4083   1.376   4.410   3.296
 1350SOL     OW 4084   0.803   5.126   2.786
 1350SOL    HW1 4085   0.893   5.140   2.744
 1350SOL    HW2 4086   0.732   5.128   2.715
 1351SOL     OW 4087   0.922   4.227   2.761
 1351SOL    HW1 4088   0.897   4.218   2.665
 1351SOL    HW2 4089   0.970   4.145   2.792
 1352SOL     OW 4090   0.539   3.788   2.374
 1352SOL    HW1 4091   0.458   3.789   2.432
 1352SOL    HW2 4092   0.542   3.871   2.319
 1353SOL     OW 4093   0.297   3.759   2.033
 1353SOL    HW1 4094   0.346   3.843   2.012
 1353SOL    HW2 4095   0.359   3.694   2.078
 1354SOL     OW 4096   0.935   3.960   2.342
 1354SOL    HW1 4097   0.887   4.001   2.264
 1354SOL    HW2 4098   1.034   3.958   2.323
 1355SOL     OW 4099   1.076   4.407   3.326
 1355SOL    HW1 4100   0.996   4.346   3.329
 1355SOL    HW2 4101   1.157   4.354   3.302
 1356SOL     OW 4102   0.459   4.876   2.603
 1356SOL    HW1 4103   0.388   4.849   2.668
 1356SOL    HW2 4104   0.433   4.848   2.510
 1357SOL     OW 4105   1.032   4.273   1.878
 1357SOL    HW1 4106   0.991   4.355   1.839
 1357SOL    HW2 4107   1.096   4.299   1.951
 1358SOL     OW 4108   0.078   4.280   3.248
 1358SOL    HW1 4109   0.170   4.279   3.207
 1358SOL    HW2 4110   0.072   4.354   3.315
 1359SOL     OW 4111   0.561   3.946   3.009
 1359SOL    HW1 4112   0.599   3.862   3.046
 1359SOL    HW2 4113   0.473   3.965   3.053
 1360SOL     OW 4114   0.866   4.178   2.504
 1360SOL    HW1 4115   0.834   4.250   2.442
 1360SOL    HW2 4116   0.890   4.097   2.451
 1361SOL     OW 4117   1.017   3.763   2.615
 1361SOL    HW1 4118   0.945   3.768   2.546
 1361SOL    HW2 4119   0.993   3.694   2.684
 1362SOL     OW 4120   1.429   4.897   2.729
 1362SOL    HW1 4121   1.374   4.813   2.722
 1362SOL    HW2 4122   1.455   4.926   2.637
 1363SOL     OW 4123   1.466   4.314   2.854
 1363SOL    HW1 4124   1.436   4.219   2.861
 1363SOL    HW2 4125   1.539   4.330   2.920
 1364SOL     OW 4126   1.857   4.557   2.239
 1364SOL    HW1 4127   1.899   4.493   2.303
 1364SOL    HW2 4128   1.819   4.506   2.161
 1365SOL     OW 4129   1.390   4.299   1.940
 1365SOL    HW1 4130   1.336   4.278   2.021
 1365SOL    HW2 4131   1.481   4.258   1.949
 1366SOL     OW 4132   0.527   3.980   2.190
 1366SOL    HW1 4133   0.554   3.921   2.115
 1366SOL    HW2 4134   0.527   4.075   2.159
 1367SOL     OW 4135   1.754   4.947   3.450
 1367SOL    HW1 4136   1.845   4.908   3.437
 1367SOL    HW2 4137   1.762   5.043   3.474
 1368SOL     OW 4138   1.638   4.823   2.941
 1368SOL    HW1 4139   1.643   4.904   3.000
 1368SOL    HW2 4140   1.552   4.825   2.890
 1369SOL     OW 4141   0.915   3.813   3.264
 1369SOL    HW1 4142   0.940   3.793   3.169
 1369SOL    HW2 4143   0.987   3.869   3.306
 1370SOL     OW 4144   0.980   4.840   3.581
 1370SOL    HW1 4145   0.881   4.846   3.591
 1370SOL    HW2 4146   1.003   4.760   3.525
 1371SOL     OW 4147   0.705   4.774   2.230
 1371SOL    HW1 4148   0.691   4.781   2.329
 1371SOL    HW2 4149   0.789   4.723   2.212
 1372SOL     OW 4150   0.410   4.537   3.113
 1372SOL    HW1 4151   0.496   4.549   3.163
 1372SOL    HW2 4152   0.368   4.450   3.140
 1373SOL     OW 4153   1.274   4.110   3.124
 1373SOL    HW1 4154   1.295   4.184   3.188
 1373SOL    HW2 4155   1.185   4.127   3.081
 1374SOL     OW 4156   0.367   4.824   2.363
 1374SOL    HW1 4157   0.360   4.907   2.307
 1374SOL    HW2 4158   0.371   4.744   2.303
 1375SOL     OW 4159   0.566   4.261   2.727
 1375SOL    HW1 4160   0.578   4.327   2.653
 1375SOL    HW2 4161   0.612   4.295   2.810
 1376SOL     OW 4162   1.582   4.363   2.334
 1376SOL    HW1 4163   1.551   4.424   2.407
 1376SOL    HW2 4164   1.632   4.415   2.265
 1377SOL     OW 4165   0.402   4.475   3.460
 1377SOL    HW1 4166   0.470   4.530   3.413
 1377SOL    HW2 4167   0.442   4.387   3.487
 1378SOL     OW 4168   1.587   4.503   3.532
 1378SOL    HW1 4169   1.495   4.541   3.527
 1378SOL    HW2 4170   1.647   4.550   3.467
 1379SOL     OW 4171   1.013   3.829   3.632
 1379SOL    HW1 4172   1.019   3.914   3.580
 1379SOL    HW2 4173   1.045   3.753   3.575
 1380SOL     OW 4174   0.504   3.774   3.602
 1380SOL    HW1 4175   0.462   3.717   3.532
 1380SOL    HW2 4176   0.438   3.843   3.634
 1381SOL     OW 4177   0.573   4.594   2.891
 1381SOL    HW1 4178   0.617   4.683   2.882
 1381SOL    HW2 4179   0.510   4.594   2.968
 1382SOL     OW 4180   1.360   4.586   2.907
 1382SOL    HW1 4181   1.285   4.586   2.841
 1382SOL    HW2 4182   1.397   4.494   2.916
 1383SOL     OW 4183   1.209   4.249   2.137
 1383SOL    HW1 4184   1.222   4.165   2.191
 1383SOL    HW2 4185   1.180   4.323   2.197
 1384SOL     OW 4186   0.307   3.937   3.093
 1384SOL    HW1 4187   0.284   3.974   3.183
 1384SOL    HW2 4188   0.277   3.842   3.087
 1385SOL     OW 4189   0.037   5.034   3.144
 1385SOL    HW1 4190   0.090   4.985   3.212
 1385SOL    HW2 4191   0.059   5.132   3.149
 1386SOL     OW 4192   0.732   4.358   2.926
 1386SOL    HW1 4193   0.791   4.332   2.850
 1386SOL    HW2 4194   0.704   4.454   2.915
 1387SOL     OW 4195   1.728   4.659   3.716
 1387SOL    HW1 4196   1.682   4.652   3.627
 1387SOL    HW2 4197   1.666   4.703   3.782
 1388SOL     OW 4198   0.307   3.787   2.480
 1388SOL    HW1 4199   0.296   3.881   2.513
 1388SOL    HW2 4200   0.302   3.724   2.557
 1389SOL     OW 4201   1.622   4.091   2.236
 1389SOL    HW1 4202   1.624   4.015   2.300
 1389SOL    HW2 4203   1.574   4.168   2.276
 1390SOL     OW 4204   1.023   4.490   2.828
 1390SOL    HW1 4205   1.038   4.511   2.924
 1390SOL    HW2 4206   0.993   4.395   2.819
 1391SOL     OW 4207   1.859   5.242   3.467
 1391SOL    HW1 4208   1.873   5.269   3.372
 1391SOL    HW2 4209   1.942   5.264   3.520
 1392SOL     OW 4210   0.350   4.622   3.666
 1392SOL    HW1 4211   0.426   4.666   3.714
 1392SOL    HW2 4212   0.385   4.575   3.584
 1393SOL     OW 4213   1.540   3.998   1.987
 1393SOL    HW1 4214   1.479   3.923   2.010
 1393SOL    HW2 4215   1.562   4.050   2.070
 1394SOL     OW 4216   1.303   4.562   1.904
 1394SOL    HW1 4217   1.337   4.469   1.919
 1394SOL    HW2 4218   1.321   4.589   1.809
 1395SOL     OW 4219   0.319   4.534   2.811
 1395SOL    HW1 4220   0.412   4.570   2.816
 1395SOL    HW2 4221   0.313   4.449   2.863
 1396SOL     OW 4222   0.339   4.233   2.868
 1396SOL    HW1 4223   0.287   4.150   2.851
 1396SOL    HW2 4224   0.416   4.238   2.804
 1397SOL     OW 4225   1.138   4.104   3.540
 1397SOL    HW1 4226   1.093   4.167   3.604
 1397SOL    HW2 4227   1.231   4.135   3.523
 1398SOL     OW 4228   1.160   3.931   3.339
 1398SOL    HW1 4229   1.160   3.995   3.416
 1398SOL    HW2 4230   1.188   3.979   3.256
 1399SOL     OW 4231   0.008   5.050   2.062
 1399SOL    HW1 4232  -0.085   5.071   2.031
 1399SOL    HW2 4233   0.018   4.951   2.075
 1400SOL     OW 4234   1.002   4.520   3.100
 1400SOL    HW1 4235   1.043   4.488   3.186
 1400SOL    HW2 4236   0.906   4.493   3.097
 1401SOL     OW 4237   0.040   4.268   2.976
 1401SOL    HW1 4238   0.125   4.235   2.935
 1401SOL    HW2 4239   0.053   4.283   3.074
 1402SOL     OW 4240   0.189   4.244   3.584
 1402SOL    HW1 4241   0.248   4.204   3.514
 1402SOL    HW2 4242   0.131   4.315   3.543
 1403SOL     OW 4243   1.369   4.674   3.522
 1403SOL    HW1 4244   1.408   4.763   3.542
 1403SOL    HW2 4245   1.379   4.654   3.425
 1404SOL     OW 4246   0.815   4.296   2.187
 1404SOL    HW1 4247   0.822   4.207   2.141
 1404SOL    HW2 4248   0.721   4.330   2.179
 1405SOL     OW 4249   1.657   4.328   3.068
 1405SOL    HW1 4250   1.619   4.259   3.130
 1405SOL    HW2 4251   1.739   4.292   3.024
 1406SOL     OW 4252   0.671   4.188   3.131
 1406SOL    HW1 4253   0.637   4.099   3.101
 1406SOL    HW2 4254   0.697   4.242   3.051
 1407SOL     OW 4255   0.473   4.224   2.053
 1407SOL    HW1 4256   0.534   4.304   2.057
 1407SOL    HW2 4257   0.378   4.255   2.060
 1408SOL     OW 4258   0.159   4.861   3.328
 1408SOL    HW1 4259   0.181   4.800   3.404
 1408SOL    HW2 4260   0.169   4.812   3.242
 1409SOL     OW 4261   1.347   4.783   3.096
 1409SOL    HW1 4262   1.371   4.720   3.022
 1409SOL    HW2 4263   1.257   4.823   3.078
 1410SOL     OW 4264   1.302   4.579   2.171
 1410SOL    HW1 4265   1.216   4.548   2.213
 1410SOL    HW2 4266   1.298   4.565   2.072
 1411SOL     OW 4267   0.083   4.982   2.884
 1411SOL    HW1 4268   0.078   4.981   2.984
 1411SOL    HW2 4269   0.000   4.941   2.846
 1412SOL     OW 4270   1.726   3.859   2.385
 1412SOL    HW1 4271   1.799   3.842   2.318
 1412SOL    HW2 4272   1.695   3.772   2.423
 1413SOL     OW 4273   1.280   4.651   2.534
 1413SOL    HW1 4274   1.340   4.570   2.536
 1413SOL    HW2 4275   1.320   4.720   2.474
 1414SOL     OW 4276   1.841   3.899   2.825
 1414SOL    HW1 4277   1.880   3.814   2.789
 1414SOL    HW2 4278   1.743   3.901   2.806
 1415SOL     OW 4279   0.263   4.050   2.582
 1415SOL    HW1 4280   0.184   4.101   2.548
 1415SOL    HW2 4281   0.254   4.035   2.680
 1416SOL     OW 4282   1.194   5.336   1.893
 1416SOL    HW1 4283   1.200   5.243   1.930
 1416SOL    HW2 4284   1.135   5.336   1.813
 1417SOL     OW 4285   0.822   4.726   3.234
 1417SOL    HW1 4286   0.862   4.725   3.142
 1417SOL    HW2 4287   0.832   4.818   3.274
 1418SOL     OW 4288   0.916   4.634   2.153
 1418SOL    HW1 4289   0.979   4.672   2.085
 1418SOL    HW2 4290   0.956   4.551   2.192
 1419SOL     OW 4291   0.372   5.012   3.352
 1419SOL    HW1 4292   0.359   5.105   3.318
 1419SOL    HW2 4293   0.288   4.960   3.339
 1420SOL     OW 4294   1.614   5.016   3.151
 1420SOL    HW1 4295   1.674   5.019   3.231
 1420SOL    HW2 4296   1.539   5.080   3.164
 1421SOL     OW 4297   1.039   4.822   2.558
 1421SOL    HW1 4298   0.969   4.775   2.612
 1421SOL    HW2 4299   1.098   4.754   2.515
 1422SOL     OW 4300   1.014   3.960   2.833
 1422SOL    HW1 4301   1.006   3.924   2.740
 1422SOL    HW2 4302   1.012   3.884   2.898
 1423SOL     OW 4303   1.709   4.109   3.243
 1423SOL    HW1 4304   1.782   4.178   3.247
 1423SOL    HW2 4305   1.737   4.034   3.184
 1424SOL     OW 4306   0.105   4.737   3.588
 1424SOL    HW1 4307   0.028   4.704   3.642
 1424SOL    HW2 4308   0.190   4.707   3.630
 1425SOL     OW 4309   0.672   3.927   3.351
 1425SOL    HW1 4310   0.762   3.911   3.311
 1425SOL    HW2 4311   0.680   3.932   3.450
 1426SOL     OW 4312   0.075   4.069   1.895
 1426SOL    HW1 4313  -0.017   4.041   1.866
 1426SOL    HW2 4314   0.106   4.146   1.839
 1427SOL     OW 4315   1.440   4.580   3.260
 1427SOL    HW1 4316   1.383   4.632   3.197
 1427SOL    HW2 4317   1.536   4.592   3.236
 1428SOL     OW 4318   0.072   3.890   2.180
 1428SOL    HW1 4319   0.055   3.973   2.126
 1428SOL    HW2 4320   0.162   3.853   2.158
 1429SOL     OW 4321   0.613   4.566   3.293
 1429SOL    HW1 4322   0.669   4.647   3.276
 1429SOL    HW2 4323   0.672   4.486   3.296
 1430SOL     OW 4324   0.716   4.289   3.570
 1430SOL    HW1 4325   0.735   4.354   3.644
 1430SOL    HW2 4326   0.776   4.209   3.579
 1431SOL     OW 4327   1.450   4.944   3.495
 1431SOL    HW1 4328   1.441   4.934   3.594
 1431SOL    HW2 4329   1.546   4.937   3.469
 1432SOL     OW 4330   1.674   4.607   3.116
 1432SOL    HW1 4331   1.647   4.518   3.079
 1432SOL    HW2 4332   1.675   4.675   3.043
 1433SOL     OW 4333   1.225   4.049   2.311
 1433SOL    HW1 4334   1.290   3.975   2.300
 1433SOL    HW2 4335   1.245   4.099   2.395
 1434SOL     OW 4336   0.594   4.469   2.514
 1434SOL    HW1 4337   0.644   4.554   2.495
 1434SOL    HW2 4338   0.506   4.471   2.466
 1435SOL     OW 4339   1.777   4.066   3.504
 1435SOL    HW1 4340   1.760   4.097   3.410
 1435SOL    HW2 4341   1.693   4.029   3.542
 1436SOL     OW 4342   1.730   4.658   3.379
 1436SOL    HW1 4343   1.768   4.749   3.394
 1436SOL    HW2 4344   1.722   4.641   3.280
 1437SOL     OW 4345   0.859   4.680   2.723
 1437SOL    HW1 4346   0.913   4.611   2.771
 1437SOL    HW2 4347   0.827   4.749   2.789
 1438SOL     OW 4348   1.083   4.708   1.949
 1438SOL    HW1 4349   1.060   4.761   1.867
 1438SOL    HW2 4350   1.164   4.652   1.930
 1439SOL     OW 4351   0.079   4.964   2.515
 1439SOL    HW1 4352   0.078   4.917   2.603
 1439SOL    HW2 4353   0.161   4.936   2.464
 1440SOL     OW 4354   1.824   3.916   3.089
 1440SOL    HW1 4355   1.820   3.826   3.133
 1440SOL    HW2 4356   1.827   3.905   2.990
 1441SOL     OW 4357   0.428   4.148   2.382
 1441SOL    HW1 4358   0.458   4.076   2.320
 1441SOL    HW2 4359   0.389   4.108   2.465
 1442SOL     OW 4360   0.317   4.271   3.142
 1442SOL    HW1 4361   0.355   4.212   3.214
 1442SOL    HW2 4362   0.357   4.245   3.054
 1443SOL     OW 4363   1.424   3.938   2.974
 1443SOL    HW1 4364   1.476   3.873   3.029
 1443SOL    HW2 4365   1.375   4.001   3.035
 1444SOL     OW 4366   1.001   3.758   3.016
 1444SOL    HW1 4367   0.938   3.686   2.985
 1444SOL    HW2 4368   1.094   3.722   3.016
 1445SOL     OW 4369   0.770   5.054   2.163
 1445SOL    HW1 4370   0.724   4.967   2.180
 1445SOL    HW2 4371   0.861   5.051   2.204
 1446SOL     OW 4372   1.352   3.776   2.030
 1446SOL    HW1 4373   1.387   3.735   1.946
 1446SOL    HW2 4374   1.262   3.738   2.050
 1447SOL     OW 4375   1.300   4.177   2.553
 1447SOL    HW1 4376   1.241   4.257   2.557
 1447SOL    HW2 4377   1.315   4.142   2.646
 1448SOL     OW 4378   1.593   3.945   2.744
 1448SOL    HW1 4379   1.509   3.944   2.798
 1448SOL    HW2 4380   1.595   4.028   2.688
 1449SOL     OW 4381   0.039   4.801   2.162
 1449SOL    HW1 4382   0.138   4.790   2.153
 1449SOL    HW2 4383  -0.001   4.715   2.194
 1450SOL     OW 4384   0.230   4.352   3.837
 1450SOL    HW1 4385   0.137   4.350   3.874
 1450SOL    HW2 4386   0.231   4.313   3.745
 1451SOL     OW 4387   0.225   3.999   4.720
 1451SOL    HW1 4388   0.260   3.982   4.812
 1451SOL    HW2 4389   0.137   3.954   4.708
 1452SOL     OW 4390   0.019   4.092   4.371
 1452SOL    HW1 4391  -0.063   4.135   4.410
 1452SOL    HW2 4392  -0.009   4.019   4.308
 1453SOL     OW 4393   1.135   4.427   4.441
 1453SOL    HW1 4394   1.192   4.505   4.416
 1453SOL    HW2 4395   1.075   4.453   4.517
 1454SOL     OW 4396   1.755   4.331   3.955
 1454SOL    HW1 4397   1.743   4.318   3.856
 1454SOL    HW2 4398   1.725   4.250   4.004
 1455SOL     OW 4399   0.768   4.868   4.747
 1455SOL    HW1 4400   0.690   4.885   4.807
 1455SOL    HW2 4401   0.802   4.955   4.711
 1456SOL     OW 4402   0.685   4.736   4.389
 1456SOL    HW1 4403   0.754   4.720   4.459
 1456SOL    HW2 4404   0.612   4.793   4.427
 1457SOL     OW 4405   0.335   5.159   4.785
 1457SOL    HW1 4406   0.257   5.128   4.732
 1457SOL    HW2 4407   0.393   5.217   4.728
 1458SOL     OW 4408   1.603   4.171   4.461
 1458SOL    HW1 4409   1.529   4.217   4.411
 1458SOL    HW2 4410   1.654   4.239   4.514
 1459SOL     OW 4411   0.240   4.815   4.610
 1459SOL    HW1 4412   0.254   4.731   4.662
 1459SOL    HW2 4413   0.185   4.879   4.665
 1460SOL     OW 4414   0.606   4.688   3.847
 1460SOL    HW1 4415   0.613   4.772   3.793
 1460SOL    HW2 4416   0.652   4.701   3.935
 1461SOL     OW 4417   0.122   4.367   4.287
 1461SOL    HW1 4418   0.077   4.279   4.304
 1461SOL    HW2 4419   0.121   4.421   4.371
 1462SOL     OW 4420   1.689   4.646   4.336
 1462SOL    HW1 4421   1.784   4.617   4.344
 1462SOL    HW2 4422   1.681   4.711   4.261
 1463SOL     OW 4423   1.641   4.832   4.156
 1463SOL    HW1 4424   1.727   4.834   4.104
 1463SOL    HW2 4425   1.655   4.879   4.244
 1464SOL     OW 4426   0.113   4.461   5.321
 1464SOL    HW1 4427   0.201   4.448   5.366
 1464SOL    HW2 4428   0.100   4.558   5.299
 1465SOL     OW 4429   0.809   3.728   4.226
 1465SOL    HW1 4430   0.849   3.819   4.217
 1465SOL    HW2 4431   0.709   3.736   4.232
 1466SOL     OW 4432   0.197   4.700   4.988
 1466SOL    HW1 4433   0.286   4.655   4.974
 1466SOL    HW2 4434   0.124   4.635   4.969
 1467SOL     OW 4435   1.525   4.723   3.914
 1467SOL    HW1 4436   1.462   4.647   3.927
 1467SOL    HW2 4437   1.573   4.741   4.000
 1468SOL     OW 4438   0.598   4.453   3.994
 1468SOL    HW1 4439   0.622   4.522   3.926
 1468SOL    HW2 4440   0.520   4.486   4.048
 1469SOL     OW 4441   1.281   4.069   4.668
 1469SOL    HW1 4442   1.195   4.019   4.655
 1469SOL    HW2 4443   1.343   4.015   4.724
 1470SOL     OW 4444   0.991   4.134   4.966
 1470SOL    HW1 4445   0.914   4.168   5.020
 1470SOL    HW2 4446   0.957   4.083   4.887
 1471SOL     OW 4447   1.041   4.425   4.153
 1471SOL    HW1 4448   1.067   4.421   4.249
 1471SOL    HW2 4449   0.956   4.374   4.139
 1472SOL     OW 4450   0.076   4.535   4.513
 1472SOL    HW1 4451   0.175   4.523   4.522
 1472SOL    HW2 4452   0.052   4.630   4.534
 1473SOL     OW 4453   0.865   4.072   3.919
 1473SOL    HW1 4454   0.924   4.135   3.870
 1473SOL    HW2 4455   0.884   3.978   3.890
 1474SOL     OW 4456   1.362   4.868   4.269
 1474SOL    HW1 4457   1.445   4.839   4.221
 1474SOL    HW2 4458   1.313   4.935   4.213
 1475SOL     OW 4459   0.550   3.920   4.609
 1475SOL    HW1 4460   0.545   3.915   4.709
 1475SOL    HW2 4461   0.552   4.016   4.580
 1476SOL     OW 4462   1.795   4.790   4.597
 1476SOL    HW1 4463   1.733   4.775   4.521
 1476SOL    HW2 4464   1.743   4.801   4.682
 1477SOL     OW 4465   0.321   4.667   3.966
 1477SOL    HW1 4466   0.403   4.706   3.924
 1477SOL    HW2 4467   0.294   4.585   3.917
 1478SOL     OW 4468   1.458   4.459   4.452
 1478SOL    HW1 4469   1.453   4.394   4.527
 1478SOL    HW2 4470   1.538   4.518   4.465
 1479SOL     OW 4471   1.400   3.831   4.150
 1479SOL    HW1 4472   1.376   3.794   4.060
 1479SOL    HW2 4473   1.499   3.847   4.154
 1480SOL     OW 4474   0.382   4.424   4.204
 1480SOL    HW1 4475   0.427   4.334   4.201
 1480SOL    HW2 4476   0.288   4.413   4.237
 1481SOL     OW 4477   0.614   3.846   3.841
 1481SOL    HW1 4478   0.712   3.824   3.848
 1481SOL    HW2 4479   0.583   3.829   3.748
 1482SOL     OW 4480   0.803   5.126   4.648
 1482SOL    HW1 4481   0.893   5.140   4.606
 1482SOL    HW2 4482   0.732   5.128   4.577
 1483SOL     OW 4483   0.922   4.227   4.623
 1483SOL    HW1 4484   0.897   4.218   4.527
 1483SOL    HW2 4485   0.970   4.145   4.654
 1484SOL     OW 4486   0.539   3.788   4.236
 1484SOL    HW1 4487   0.458   3.789   4.294
 1484SOL    HW2 4488   0.542   3.871   4.181
 1485SOL     OW 4489   0.297   3.759   3.895
 1485SOL    HW1 4490   0.346   3.843   3.874
 1485SOL    HW2 4491   0.359   3.694   3.940
 1486SOL     OW 4492   0.935   3.960   4.204
 1486SOL    HW1 4493   0.887   4.001   4.126
 1486SOL    HW2 4494   1.034   3.958   4.185
 1487SOL     OW 4495   0.459   4.876   4.465
 1487SOL    HW1 4496   0.388   4.849   4.530
 1487SOL    HW2 4497   0.433   4.848   4.372
 1488SOL     OW 4498   1.032   4.273   3.740
 1488SOL    HW1 4499   0.991   4.355   3.701
 1488SOL    HW2 4500   1.096   4.299   3.813
 1489SOL     OW 4501   0.561   3.946   4.871
 1489SOL    HW1 4502   0.599   3.862   4.908
 1489SOL    HW2 4503   0.473   3.965   4.915
 1490SOL     OW 4504   0.866   4.178   4.366
 1490SOL    HW1 4505   0.834   4.250   4.304
 1490SOL    HW2 4506   0.890   4.097   4.313
 1491SOL     OW 4507   1.017   3.763   4.477
 1491SOL    HW1 4508   0.945   3.768   4.408
 1491SOL    HW2 4509   0.993   3.694   4.546
 1492SOL     OW 4510   1.429   4.897   4.591
 1492SOL    HW1 4511   1.374   4.813   4.584
 1492SOL    HW2 4512   1.455   4.926   4.499
 1493SOL     OW 4513   1.466   4.314   4.716
 1493SOL    HW1 4514   1.436   4.219   4.723
 1493SOL    HW2 4515   1.539   4.330   4.782
 1494SOL     OW 4516   1.857   4.557   4.101
 1494SOL    HW1 4517   1.899   4.493   4.165
 1494SOL    HW2 4518   1.819   4.506   4.023
 1495SOL     OW 4519   1.390   4.299   3.802
 1495SOL    HW1 4520   1.336   4.278   3.883
 1495SOL    HW2 4521   1.481   4.258   3.811
 1496SOL     OW 4522   0.527   3.980   4.052
 1496SOL    HW1 4523   0.554   3.921   3.977
 1496SOL    HW2 4524   0.527   4.075   4.021
 1497SOL     OW 4525   1.638   4.823   4.803
 1497SOL    HW1 4526   1.643   4.904   4.862
 1497SOL    HW2 4527   1.552   4.825   4.752
 1498SOL     OW 4528   0.705   4.774   4.092
 1498SOL    HW1 4529   0.691   4.781   4.191
 1498SOL    HW2 4530   0.789   4.723   4.074
 1499SOL     OW 4531   0.410   4.537   4.975
 1499SOL    HW1 4532   0.496   4.549   5.025
 1499SOL    HW2 4533   0.368   4.450   5.002
 1500SOL     OW 4534   1.274   4.110   4.986
 1500SOL    HW1 4535   1.295   4.184   5.050
 1500SOL    HW2 4536   1.185   4.127   4.943
 1501SOL     OW 4537   0.367   4.824   4.225
 1501SOL    HW1 4538   0.360   4.907   4.169
 1501SOL    HW2 4539   0.371   4.744   4.165
 1502SOL     OW 4540   0.566   4.261   4.589
 1502SOL    HW1 4541   0.578   4.327   4.515
 1502SOL    HW2 4542   0.612   4.295   4.672
 1503SOL     OW 4543   1.582   4.363   4.196
 1503SOL    HW1 4544   1.551   4.424   4.269
 1503SOL    HW2 4545   1.632   4.415   4.127
 1504SOL     OW 4546   0.573   4.594   4.753
 1504SOL    HW1 4547   0.617   4.683   4.744
 1504SOL    HW2 4548   0.510   4.594   4.830
 1505SOL     OW 4549   1.360   4.586   4.769
 1505SOL    HW1 4550   1.285   4.586   4.703
 1505SOL    HW2 4551   1.397   4.494   4.778
 1506SOL     OW 4552   1.209   4.249   3.999
 1506SOL    HW1 4553   1.222   4.165   4.053
 1506SOL    HW2 4554   1.180   4.323   4.059
 1507SOL     OW 4555   0.307   3.937   4.955
 1507SOL    HW1 4556   0.284   3.974   5.045
 1507SOL    HW2 4557   0.277   3.842   4.949
 1508SOL     OW 4558   0.037   5.034   5.006
 1508SOL    HW1 4559   0.090   4.985   5.074
 1508SOL    HW2 4560   0.059   5.132   5.011
 1509SOL     OW 4561   0.732   4.358   4.788
 1509SOL    HW1 4562   0.791   4.332   4.712
 1509SOL    HW2 4563   0.704   4.454   4.777
 1510SOL     OW 4564   0.307   3.787   4.342
 1510SOL    HW1 4565   0.296   3.881   4.375
 1510SOL    HW2 4566   0.302   3.724   4.419
 1511SOL     OW 4567   1.622   4.091   4.098
 1511SOL    HW1 4568   1.624   4.015   4.162
 1511SOL    HW2 4569   1.574   4.168   4.138
 1512SOL     OW 4570   1.023   4.490   4.690
 1512SOL    HW1 4571   1.038   4.511   4.786
 1512SOL    HW2 4572   0.993   4.395   4.681
 1513SOL     OW 4573   1.540   3.998   3.849
 1513SOL    HW1 4574   1.479   3.923   3.872
 1513SOL    HW2 4575   1.562   4.050   3.932
 1514SOL     OW 4576   1.303   4.562   3.766
 1514SOL    HW1 4577   1.337   4.469   3.781
 1514SOL    HW2 4578   1.321   4.589   3.671
 1515SOL     OW 4579   0.319   4.534   4.673
 1515SOL    HW1 4580   0.412   4.570   4.678
 1515SOL    HW2 4581   0.313   4.449   4.725
 1516SOL     OW 4582   0.339   4.233   4.730
 1516SOL    HW1 4583   0.287   4.150   4.713
 1516SOL    HW2 4584   0.416   4.238   4.666
 1517SOL     OW 4585   1.160   3.931   5.201
 1517SOL    HW1 4586   1.160   3.995   5.278
 1517SOL    HW2 4587   1.188   3.979   5.118
 1518SOL     OW 4588   0.008   5.050   3.924
 1518SOL    HW1 4589  -0.085   5.071   3.893
 1518SOL    HW2 4590   0.018   4.951   3.937
 1519SOL     OW 4591   1.002   4.520   4.962
 1519SOL    HW1 4592   1.043   4.488   5.048
 1519SOL    HW2 4593   0.906   4.493   4.959
 1520SOL     OW 4594   0.040   4.268   4.838
 1520SOL    HW1 4595   0.125   4.235   4.797
 1520SOL    HW2 4596   0.053   4.283   4.936
 1521SOL     OW 4597   0.815   4.296   4.049
 1521SOL    HW1 4598   0.822   4.207   4.003
 1521SOL    HW2 4599   0.721   4.330   4.041
 1522SOL     OW 4600   1.657   4.328   4.930
 1522SOL    HW1 4601   1.619   4.259   4.992
 1522SOL    HW2 4602   1.739   4.292   4.886
 1523SOL     OW 4603   0.671   4.188   4.993
 1523SOL    HW1 4604   0.637   4.099   4.963
 1523SOL    HW2 4605   0.697   4.242   4.913
 1524SOL     OW 4606   0.473   4.224   3.915
 1524SOL    HW1 4607   0.534   4.304   3.919
 1524SOL    HW2 4608   0.378   4.255   3.922
 1525SOL     OW 4609   1.347   4.783   4.958
 1525SOL    HW1 4610   1.371   4.720   4.884
 1525SOL    HW2 4611   1.257   4.823   4.940
 1526SOL     OW 4612   1.302   4.579   4.033
 1526SOL    HW1 4613   1.216   4.548   4.075
 1526SOL    HW2 4614   1.298   4.565   3.934
 1527SOL     OW 4615   0.083   4.982   4.746
 1527SOL    HW1 4616   0.078   4.981   4.846
 1527SOL    HW2 4617   0.000   4.941   4.708
 1528SOL     OW 4618   1.726   3.859   4.247
 1528SOL    HW1 4619   1.799   3.842   4.180
 1528SOL    HW2 4620   1.695   3.772   4.285
 1529SOL     OW 4621   1.280   4.651   4.396
 1529SOL    HW1 4622   1.340   4.570   4.398
 1529SOL    HW2 4623   1.320   4.720   4.336
 1530SOL     OW 4624   1.841   3.899   4.687
 1530SOL    HW1 4625   1.880   3.814   4.651
 1530SOL    HW2 4626   1.743   3.901   4.668
 1531SOL     OW 4627   0.263   4.050   4.444
 1531SOL    HW1 4628   0.184   4.101   4.410
 1531SOL    HW2 4629   0.254   4.035   4.542
 1532SOL     OW 4630   1.194   5.336   3.755
 1532SOL    HW1 4631   1.200   5.243   3.792
 1532SOL    HW2 4632   1.135   5.336   3.675
 1533SOL     OW 4633   0.822   4.726   5.096
 1533SOL    HW1 4634   0.862   4.725   5.004
 1533SOL    HW2 4635   0.832   4.818   5.136
 1534SOL     OW 4636   0.916   4.634   4.015
 1534SOL    HW1 4637   0.979   4.672   3.947
 1534SOL    HW2 4638   0.956   4.551   4.054
 1535SOL     OW 4639   1.614   5.016   5.013
 1535SOL    HW1 4640   1.674   5.019   5.093
 1535SOL    HW2 4641   1.539   5.080   5.026
 1536SOL     OW 4642   1.039   4.822   4.420
 1536SOL    HW1 4643   0.969   4.775   4.474
 1536SOL    HW2 4644   1.098   4.754   4.377
 1537SOL     OW 4645   1.014   3.960   4.695
 1537SOL    HW1 4646   1.006   3.924   4.602
 1537SOL    HW2 4647   1.012   3.884   4.760
 1538SOL     OW 4648   1.709   4.109   5.105
 1538SOL    HW1 4649   1.782   4.178   5.109
 1538SOL    HW2 4650   1.737   4.034   5.046
 1539SOL     OW 4651   0.075   4.069   3.757
 1539SOL    HW1 4652  -0.017   4.041   3.728
 1539SOL    HW2 4653   0.106   4.146   3.701
 1540SOL     OW 4654   0.072   3.890   4.042
 1540SOL    HW1 4655   0.055   3.973   3.988
 1540SOL    HW2 4656   0.162   3.853   4.020
 1541SOL     OW 4657   1.674   4.607   4.978
 1541SOL    HW1 4658   1.647   4.518   4.941
 1541SOL    HW2 4659   1.675   4.675   4.905
 1542SOL     OW 4660   1.225   4.049   4.173
 1542SOL    HW1 4661   1.290   3.975   4.162
 1542SOL    HW2 4662   1.245   4.099   4.257
 1543SOL     OW 4663   0.594   4.469   4.376
 1543SOL    HW1 4664   0.644   4.554   4.357
 1543SOL    HW2 4665   0.506   4.471   4.328
 1544SOL     OW 4666   1.730   4.658   5.241
 1544SOL    HW1 4667   1.768   4.749   5.256
 1544SOL    HW2 4668   1.722   4.641   5.142
 1545SOL     OW 4669   0.859   4.680   4.585
 1545SOL    HW1 4670   0.913   4.611   4.633
 1545SOL    HW2 4671   0.827   4.749   4.651
 1546SOL     OW 4672   1.083   4.708   3.811
 1546SOL    HW1 4673   1.060   4.761   3.729
 1546SOL    HW2 4674   1.164   4.652   3.792
 1547SOL     OW 4675   0.079   4.964   4.377
 1547SOL    HW1 4676   0.078   4.917   4.465
 1547SOL    HW2 4677   0.161   4.936   4.326
 1548SOL     OW 4678   1.824   3.916   4.951
 1548SOL    HW1 4679   1.820   3.826   4.995
 1548SOL    HW2 4680   1.827   3.905   4.852
 1549SOL     OW 4681   0.428   4.148   4.244
 1549SOL    HW1 4682   0.458   4.076   4.182
 1549SOL    HW2 4683   0.389   4.108   4.327
 1550SOL     OW 4684   1.424   3.938   4.836
 1550SOL    HW1 4685   1.476   3.873   4.891
 1550SOL    HW2 4686   1.375   4.001   4.897
 1551SOL     OW 4687   1.001   3.758   4.878
 1551SOL    HW1 4688   0.938   3.686   4.847
 1551SOL    HW2 4689   1.094   3.722   4.878
 1552SOL     OW 4690   0.770   5.054   4.025
 1552SOL    HW1 4691   0.724   4.967   4.042
 1552SOL    HW2 4692   0.861   5.051   4.066
 1553SOL     OW 4693   1.352   3.776   3.892
 1553SOL    HW1 4694   1.387   3.735   3.808
 1553SOL    HW2 4695   1.262   3.738   3.912
 1554SOL     OW 4696   1.300   4.177   4.415
 1554SOL    HW1 4697   1.241   4.257   4.419
 1554SOL    HW2 4698   1.315   4.142   4.508
 1555SOL     OW 4699   1.593   3.945   4.606
 1555SOL    HW1 4700   1.509   3.944   4.660
 1555SOL    HW2 4701   1.595   4.028   4.550
 1556SOL     OW 4702   0.039   4.801   4.024
 1556SOL    HW1 4703   0.138   4.790   4.015
 1556SOL    HW2 4704  -0.001   4.715   4.056
 1557SOL     OW 4705   2.092   0.628   0.113
 1557SOL    HW1 4706   1.999   0.626   0.150
 1557SOL    HW2 4707   2.093   0.589   0.021
 1558SOL     OW 4708   2.087   0.275   0.996
 1558SOL    HW1 4709   2.122   0.258   1.088
 1558SOL    HW2 4710   1.999   0.230   0.984
 1559SOL     OW 4711   1.881   0.368   0.647
 1559SOL    HW1 4712   1.799   0.411   0.686
 1559SOL    HW2 4713   1.853   0.295   0.584
 1560SOL     OW 4714   2.431   1.275   1.165
 1560SOL    HW1 4715   2.338   1.268   1.128
 1560SOL    HW2 4716   2.442   1.364   1.209
 1561SOL     OW 4717   3.417   1.511   0.703
 1561SOL    HW1 4718   3.360   1.495   0.784
 1561SOL    HW2 4719   3.358   1.521   0.623
 1562SOL     OW 4720   2.997   0.703   0.717
 1562SOL    HW1 4721   3.054   0.781   0.692
 1562SOL    HW2 4722   2.937   0.729   0.793
 1563SOL     OW 4723   3.617   0.607   0.231
 1563SOL    HW1 4724   3.605   0.594   0.132
 1563SOL    HW2 4725   3.587   0.526   0.280
 1564SOL     OW 4726   2.630   1.144   1.023
 1564SOL    HW1 4727   2.552   1.161   1.083
 1564SOL    HW2 4728   2.664   1.231   0.987
 1565SOL     OW 4729   2.712   0.798   1.823
 1565SOL    HW1 4730   2.708   0.874   1.888
 1565SOL    HW2 4731   2.734   0.834   1.732
 1566SOL     OW 4732   2.547   1.012   0.665
 1566SOL    HW1 4733   2.616   0.996   0.735
 1566SOL    HW2 4734   2.474   1.069   0.703
 1567SOL     OW 4735   2.548   1.161   1.803
 1567SOL    HW1 4736   2.608   1.240   1.817
 1567SOL    HW2 4737   2.462   1.192   1.762
 1568SOL     OW 4738   2.197   1.435   1.061
 1568SOL    HW1 4739   2.119   1.404   1.008
 1568SOL    HW2 4740   2.255   1.493   1.004
 1569SOL     OW 4741   3.322   1.505   1.339
 1569SOL    HW1 4742   3.346   1.599   1.365
 1569SOL    HW2 4743   3.306   1.451   1.421
 1570SOL     OW 4744   2.300   0.392   1.499
 1570SOL    HW1 4745   2.382   0.336   1.508
 1570SOL    HW2 4746   2.219   0.334   1.503
 1571SOL     OW 4747   3.465   0.447   0.737
 1571SOL    HW1 4748   3.391   0.493   0.687
 1571SOL    HW2 4749   3.516   0.515   0.790
 1572SOL     OW 4750   2.093   1.713   0.483
 1572SOL    HW1 4751   2.127   1.790   0.537
 1572SOL    HW2 4752   2.137   1.713   0.393
 1573SOL     OW 4753   2.989   1.341   1.690
 1573SOL    HW1 4754   3.036   1.341   1.778
 1573SOL    HW2 4755   2.941   1.254   1.679
 1574SOL     OW 4756   2.092   1.434   0.538
 1574SOL    HW1 4757   2.066   1.530   0.538
 1574SOL    HW2 4758   2.021   1.380   0.583
 1575SOL     OW 4759   2.102   1.091   0.886
 1575SOL    HW1 4760   2.116   1.007   0.938
 1575SOL    HW2 4761   2.047   1.155   0.941
 1576SOL     OW 4762   2.482   1.786   1.439
 1576SOL    HW1 4763   2.390   1.769   1.474
 1576SOL    HW2 4764   2.510   1.878   1.465
 1577SOL     OW 4765   2.468   0.964   0.123
 1577SOL    HW1 4766   2.475   1.048   0.069
 1577SOL    HW2 4767   2.514   0.977   0.211
 1578SOL     OW 4768   3.456   0.114   1.480
 1578SOL    HW1 4769   3.438   0.181   1.408
 1578SOL    HW2 4770   3.453   0.160   1.569
 1579SOL     OW 4771   1.984   0.643   0.563
 1579SOL    HW1 4772   1.939   0.555   0.580
 1579SOL    HW2 4773   1.983   0.697   0.647
 1580SOL     OW 4774   3.704   1.767   0.359
 1580SOL    HW1 4775   3.758   1.738   0.439
 1580SOL    HW2 4776   3.734   1.857   0.330
 1581SOL     OW 4777   1.889   1.596   0.117
 1581SOL    HW1 4778   1.870   1.500   0.138
 1581SOL    HW2 4779   1.856   1.654   0.192
 1582SOL     OW 4780   3.551   0.922   0.612
 1582SOL    HW1 4781   3.646   0.893   0.620
 1582SOL    HW2 4782   3.543   0.987   0.537
 1583SOL     OW 4783   3.503   1.108   0.432
 1583SOL    HW1 4784   3.589   1.110   0.380
 1583SOL    HW2 4785   3.517   1.155   0.520
 1584SOL     OW 4786   1.975   0.737   1.597
 1584SOL    HW1 4787   2.063   0.724   1.642
 1584SOL    HW2 4788   1.962   0.834   1.575
 1585SOL     OW 4789   2.475   1.365   0.726
 1585SOL    HW1 4790   2.426   1.278   0.735
 1585SOL    HW2 4791   2.452   1.408   0.639
 1586SOL     OW 4792   3.155   1.228   1.423
 1586SOL    HW1 4793   3.192   1.155   1.365
 1586SOL    HW2 4794   3.207   1.233   1.508
 1587SOL     OW 4795   2.671   0.004   0.502
 1587SOL    HW1 4796   2.711   0.095   0.493
 1587SOL    HW2 4797   2.571   0.012   0.508
 1588SOL     OW 4798   2.059   0.976   1.264
 1588SOL    HW1 4799   2.148   0.931   1.250
 1588SOL    HW2 4800   1.986   0.911   1.245
 1589SOL     OW 4801   3.387   0.999   0.190
 1589SOL    HW1 4802   3.324   0.923   0.203
 1589SOL    HW2 4803   3.435   1.017   0.276
 1590SOL     OW 4804   3.049   1.792   1.616
 1590SOL    HW1 4805   3.073   1.852   1.540
 1590SOL    HW2 4806   3.056   1.697   1.586
 1591SOL     OW 4807   2.179   0.251   1.801
 1591SOL    HW1 4808   2.250   0.322   1.807
 1591SOL    HW2 4809   2.091   0.290   1.829
 1592SOL     OW 4810   3.328   1.417   0.953
 1592SOL    HW1 4811   3.269   1.423   1.033
 1592SOL    HW2 4812   3.313   1.329   0.907
 1593SOL     OW 4813   3.529   1.714   0.572
 1593SOL    HW1 4814   3.488   1.691   0.484
 1593SOL    HW2 4815   3.511   1.640   0.637
 1594SOL     OW 4816   2.460   0.729   0.270
 1594SOL    HW1 4817   2.484   0.798   0.202
 1594SOL    HW2 4818   2.382   0.762   0.324
 1595SOL     OW 4819   3.143   0.345   0.944
 1595SOL    HW1 4820   3.057   0.295   0.931
 1595SOL    HW2 4821   3.205   0.291   1.000
 1596SOL     OW 4822   3.438   1.662   0.307
 1596SOL    HW1 4823   3.527   1.708   0.310
 1596SOL    HW2 4824   3.417   1.638   0.212
 1597SOL     OW 4825   2.669   0.605   1.465
 1597SOL    HW1 4826   2.622   0.602   1.554
 1597SOL    HW2 4827   2.618   0.550   1.399
 1598SOL     OW 4828   3.256   0.469   1.674
 1598SOL    HW1 4829   3.236   0.512   1.762
 1598SOL    HW2 4830   3.334   0.407   1.683
 1599SOL     OW 4831   2.835   0.890   1.572
 1599SOL    HW1 4832   2.881   0.806   1.543
 1599SOL    HW2 4833   2.779   0.924   1.497
 1600SOL     OW 4834   2.853   0.410   1.242
 1600SOL    HW1 4835   2.776   0.444   1.296
 1600SOL    HW2 4836   2.819   0.359   1.163
 1601SOL     OW 4837   2.903   0.701   0.429
 1601SOL    HW1 4838   2.929   0.697   0.525
 1601SOL    HW2 4839   2.818   0.650   0.415
 1602SOL     OW 4840   1.938   0.811   0.789
 1602SOL    HW1 4841   2.037   0.799   0.798
 1602SOL    HW2 4842   1.914   0.906   0.810
 1603SOL     OW 4843   1.992   1.821   1.571
 1603SOL    HW1 4844   1.982   1.806   1.670
 1603SOL    HW2 4845   1.906   1.857   1.535
 1604SOL     OW 4846   2.727   0.348   0.195
 1604SOL    HW1 4847   2.786   0.411   0.146
 1604SOL    HW2 4848   2.746   0.254   0.166
 1605SOL     OW 4849   3.581   0.585   1.831
 1605SOL    HW1 4850   3.555   0.674   1.795
 1605SOL    HW2 4851   3.579   0.517   1.758
 1606SOL     OW 4852   3.224   1.144   0.545
 1606SOL    HW1 4853   3.307   1.115   0.497
 1606SOL    HW2 4854   3.175   1.211   0.489
 1607SOL     OW 4855   2.412   0.196   0.885
 1607SOL    HW1 4856   2.407   0.191   0.985
 1607SOL    HW2 4857   2.414   0.292   0.856
 1608SOL     OW 4858   2.870   1.456   0.477
 1608SOL    HW1 4859   2.824   1.528   0.425
 1608SOL    HW2 4860   2.866   1.476   0.575
 1609SOL     OW 4861   2.213   1.801   0.853
 1609SOL    HW1 4862   2.263   1.715   0.859
 1609SOL    HW2 4863   2.278   1.878   0.850
 1610SOL     OW 4864   3.657   1.066   0.873
 1610SOL    HW1 4865   3.595   1.051   0.797
 1610SOL    HW2 4866   3.605   1.077   0.958
 1611SOL     OW 4867   3.089   1.550   1.506
 1611SOL    HW1 4868   3.095   1.473   1.570
 1611SOL    HW2 4869   3.037   1.524   1.426
 1612SOL     OW 4870   2.183   0.943   0.242
 1612SOL    HW1 4871   2.265   0.982   0.200
 1612SOL    HW2 4872   2.156   0.861   0.193
 1613SOL     OW 4873   3.320   0.735   0.728
 1613SOL    HW1 4874   3.315   0.670   0.803
 1613SOL    HW2 4875   3.400   0.794   0.741
 1614SOL     OW 4876   2.323   1.266   1.727
 1614SOL    HW1 4877   2.273   1.267   1.641
 1614SOL    HW2 4878   2.260   1.248   1.803
 1615SOL     OW 4879   2.973   1.776   0.237
 1615SOL    HW1 4880   2.913   1.714   0.287
 1615SOL    HW2 4881   3.004   1.732   0.152
 1616SOL     OW 4882   3.494   1.377   0.081
 1616SOL    HW1 4883   3.462   1.471   0.071
 1616SOL    HW2 4884   3.418   1.314   0.069
 1617SOL     OW 4885   2.326   1.743   0.323
 1617SOL    HW1 4886   2.359   1.782   0.409
 1617SOL    HW2 4887   2.402   1.736   0.258
 1618SOL     OW 4888   3.262   0.107   0.426
 1618SOL    HW1 4889   3.238   0.070   0.336
 1618SOL    HW2 4890   3.361   0.123   0.430
 1619SOL     OW 4891   2.111   1.785   1.241
 1619SOL    HW1 4892   2.168   1.720   1.291
 1619SOL    HW2 4893   2.095   1.752   1.148
 1620SOL     OW 4894   2.802   1.698   0.904
 1620SOL    HW1 4895   2.882   1.641   0.925
 1620SOL    HW2 4896   2.753   1.658   0.827
 1621SOL     OW 4897   2.244   0.700   0.480
 1621SOL    HW1 4898   2.289   0.610   0.477
 1621SOL    HW2 4899   2.150   0.689   0.513
 1622SOL     OW 4900   3.409   0.222   1.729
 1622SOL    HW1 4901   3.404   0.259   1.821
 1622SOL    HW2 4902   3.337   0.153   1.717
 1623SOL     OW 4903   2.476   0.122   0.117
 1623SOL    HW1 4904   2.574   0.100   0.124
 1623SOL    HW2 4905   2.445   0.105   0.024
 1624SOL     OW 4906   2.643   0.264   1.749
 1624SOL    HW1 4907   2.710   0.203   1.792
 1624SOL    HW2 4908   2.570   0.283   1.814
 1625SOL     OW 4909   2.750   1.514   1.195
 1625SOL    HW1 4910   2.727   1.489   1.101
 1625SOL    HW2 4911   2.811   1.445   1.234
 1626SOL     OW 4912   3.213   0.590   1.433
 1626SOL    HW1 4913   3.241   0.547   1.518
 1626SOL    HW2 4914   3.238   0.686   1.434
 1627SOL     OW 4915   2.665   1.402   0.924
 1627SOL    HW1 4916   2.755   1.416   0.882
 1627SOL    HW2 4917   2.594   1.404   0.853
 1628SOL     OW 4918   2.784   0.503   0.899
 1628SOL    HW1 4919   2.759   0.494   0.803
 1628SOL    HW2 4920   2.832   0.421   0.930
 1629SOL     OW 4921   2.401   0.064   0.512
 1629SOL    HW1 4922   2.320   0.065   0.570
 1629SOL    HW2 4923   2.404   0.147   0.457
 1630SOL     OW 4924   3.296   1.188   0.041
 1630SOL    HW1 4925   3.328   1.112   0.098
 1630SOL    HW2 4926   3.204   1.215   0.071
 1631SOL     OW 4927   2.159   0.035   0.171
 1631SOL    HW1 4928   2.208   0.119   0.150
 1631SOL    HW2 4929   2.221  -0.030   0.216
 1632SOL     OW 4930   2.797   0.236   0.480
 1632SOL    HW1 4931   2.749   0.277   0.402
 1632SOL    HW2 4932   2.896   0.234   0.461
 1633SOL     OW 4933   2.938   0.683   1.464
 1633SOL    HW1 4934   2.858   0.622   1.467
 1633SOL    HW2 4935   3.019   0.630   1.440
 1634SOL     OW 4936   3.089   1.570   0.793
 1634SOL    HW1 4937   3.110   1.644   0.728
 1634SOL    HW2 4938   3.157   1.570   0.866
 1635SOL     OW 4939   2.321   1.152   0.741
 1635SOL    HW1 4940   2.250   1.125   0.806
 1635SOL    HW2 4941   2.295   1.124   0.648
 1636SOL     OW 4942   3.133   1.797   0.591
 1636SOL    HW1 4943   3.177   1.861   0.527
 1636SOL    HW2 4944   3.083   1.849   0.661
 1637SOL     OW 4945   2.894   0.549   0.016
 1637SOL    HW1 4946   2.853   0.631  -0.023
 1637SOL    HW2 4947   2.958   0.575   0.089
 1638SOL     OW 4948   1.940   0.556   1.386
 1638SOL    HW1 4949   2.032   0.555   1.345
 1638SOL    HW2 4950   1.934   0.630   1.453
 1639SOL     OW 4951   2.423   0.222   1.147
 1639SOL    HW1 4952   2.461   0.138   1.184
 1639SOL    HW2 4953   2.335   0.241   1.191
 1640SOL     OW 4954   2.728   0.454   0.642
 1640SOL    HW1 4955   2.696   0.526   0.580
 1640SOL    HW2 4956   2.752   0.373   0.589
 1641SOL     OW 4957   2.879   0.039   0.753
 1641SOL    HW1 4958   2.807   0.044   0.684
 1641SOL    HW2 4959   2.855  -0.030   0.822
 1642SOL     OW 4960   3.291   1.173   0.867
 1642SOL    HW1 4961   3.236   1.089   0.860
 1642SOL    HW2 4962   3.317   1.202   0.775
 1643SOL     OW 4963   3.328   0.590   0.992
 1643SOL    HW1 4964   3.298   0.495   0.999
 1643SOL    HW2 4965   3.401   0.606   1.058
 1644SOL     OW 4966   3.719   0.833   0.377
 1644SOL    HW1 4967   3.761   0.769   0.441
 1644SOL    HW2 4968   3.681   0.782   0.299
 1645SOL     OW 4969   2.350   1.385   0.174
 1645SOL    HW1 4970   2.263   1.370   0.221
 1645SOL    HW2 4971   2.333   1.411   0.079
 1646SOL     OW 4972   3.526   1.280   0.657
 1646SOL    HW1 4973   3.625   1.288   0.671
 1646SOL    HW2 4974   3.481   1.364   0.688
 1647SOL     OW 4975   3.252   0.575   0.078
 1647SOL    HW1 4976   3.198   0.554   0.159
 1647SOL    HW2 4977   3.343   0.534   0.087
 1648SOL     OW 4978   2.389   0.256   0.328
 1648SOL    HW1 4979   2.416   0.197   0.253
 1648SOL    HW2 4980   2.389   0.351   0.297
 1649SOL     OW 4981   3.616   1.223   1.588
 1649SOL    HW1 4982   3.707   1.184   1.575
 1649SOL    HW2 4983   3.624   1.319   1.612
 1650SOL     OW 4984   2.926   1.347   1.340
 1650SOL    HW1 4985   2.846   1.324   1.395
 1650SOL    HW2 4986   3.009   1.321   1.389
 1651SOL     OW 4987   3.454   1.629   1.625
 1651SOL    HW1 4988   3.481   1.663   1.535
 1651SOL    HW2 4989   3.533   1.591   1.671
 1652SOL     OW 4990   2.973   1.195   1.100
 1652SOL    HW1 4991   2.933   1.239   1.181
 1652SOL    HW2 4992   2.932   1.232   1.017
 1653SOL     OW 4993   3.500   1.099   1.079
 1653SOL    HW1 4994   3.505   1.180   1.138
 1653SOL    HW2 4995   3.414   1.101   1.028
 1654SOL     OW 4996   2.777   0.089   1.402
 1654SOL    HW1 4997   2.802   0.069   1.307
 1654SOL    HW2 4998   2.849   0.145   1.444
 1655SOL     OW 4999   2.842   1.116   1.719
 1655SOL    HW1 5000   2.743   1.122   1.729
 1655SOL    HW2 5001   2.865   1.036   1.663
 1656SOL     OW 5002   2.567   1.050   0.368
 1656SOL    HW1 5003   2.553   1.057   0.467
 1656SOL    HW2 5004   2.651   0.999   0.350
 1657SOL     OW 5005   2.272   0.813   1.251
 1657SOL    HW1 5006   2.358   0.825   1.301
 1657SOL    HW2 5007   2.230   0.726   1.278
 1658SOL     OW 5008   3.136   0.386   1.262
 1658SOL    HW1 5009   3.157   0.460   1.326
 1658SOL    HW2 5010   3.047   0.403   1.219
 1659SOL     OW 5011   1.926   1.564   1.331
 1659SOL    HW1 5012   1.880   1.646   1.297
 1659SOL    HW2 5013   2.024   1.583   1.340
 1660SOL     OW 5014   2.229   1.100   0.501
 1660SOL    HW1 5015   2.222   1.183   0.445
 1660SOL    HW2 5016   2.233   1.020   0.441
 1661SOL     OW 5017   2.428   0.537   0.865
 1661SOL    HW1 5018   2.440   0.603   0.791
 1661SOL    HW2 5019   2.474   0.571   0.948
 1662SOL     OW 5020   3.114   1.348   0.388
 1662SOL    HW1 5021   3.164   1.425   0.428
 1662SOL    HW2 5022   3.019   1.350   0.420
 1663SOL     OW 5023   3.134   1.445   1.142
 1663SOL    HW1 5024   3.181   1.458   1.229
 1663SOL    HW2 5025   3.068   1.371   1.151
 1664SOL     OW 5026   3.444   0.639   0.472
 1664SOL    HW1 5027   3.413   0.700   0.545
 1664SOL    HW2 5028   3.494   0.691   0.403
 1665SOL     OW 5029   2.216   1.510   1.329
 1665SOL    HW1 5030   2.195   1.466   1.242
 1665SOL    HW2 5031   2.313   1.536   1.332
 1666SOL     OW 5032   2.264   0.751   1.598
 1666SOL    HW1 5033   2.332   0.806   1.551
 1666SOL    HW2 5034   2.304   0.663   1.625
 1667SOL     OW 5035   3.449   0.779   1.670
 1667SOL    HW1 5036   3.357   0.817   1.665
 1667SOL    HW2 5037   3.509   0.826   1.605
 1668SOL     OW 5038   2.875   0.105   1.770
 1668SOL    HW1 5039   2.881   0.190   1.718
 1668SOL    HW2 5040   2.907   0.029   1.713
 1669SOL     OW 5041   2.366   0.050   1.740
 1669SOL    HW1 5042   2.324  -0.007   1.670
 1669SOL    HW2 5043   2.300   0.119   1.772
 1670SOL     OW 5044   2.435   0.870   1.029
 1670SOL    HW1 5045   2.479   0.959   1.020
 1670SOL    HW2 5046   2.372   0.870   1.106
 1671SOL     OW 5047   3.222   0.862   1.045
 1671SOL    HW1 5048   3.147   0.862   0.979
 1671SOL    HW2 5049   3.259   0.770   1.054
 1672SOL     OW 5050   3.071   0.525   0.275
 1672SOL    HW1 5051   3.084   0.441   0.329
 1672SOL    HW2 5052   3.042   0.599   0.335
 1673SOL     OW 5053   2.169   0.213   1.231
 1673SOL    HW1 5054   2.146   0.250   1.321
 1673SOL    HW2 5055   2.139   0.118   1.225
 1674SOL     OW 5056   1.899   1.310   1.282
 1674SOL    HW1 5057   1.952   1.261   1.350
 1674SOL    HW2 5058   1.921   1.408   1.287
 1675SOL     OW 5059   2.594   0.634   1.064
 1675SOL    HW1 5060   2.653   0.608   0.988
 1675SOL    HW2 5061   2.566   0.730   1.053
 1676SOL     OW 5062   3.590   0.935   1.854
 1676SOL    HW1 5063   3.544   0.928   1.765
 1676SOL    HW2 5064   3.528   0.979   1.920
 1677SOL     OW 5065   2.169   0.063   0.618
 1677SOL    HW1 5066   2.158   0.157   0.651
 1677SOL    HW2 5067   2.164   0.000   0.695
 1678SOL     OW 5068   3.484   0.367   0.374
 1678SOL    HW1 5069   3.486   0.291   0.438
 1678SOL    HW2 5070   3.436   0.444   0.414
 1679SOL     OW 5071   2.885   0.766   0.966
 1679SOL    HW1 5072   2.900   0.787   1.062
 1679SOL    HW2 5073   2.855   0.671   0.957
 1680SOL     OW 5074   2.842   1.573   1.700
 1680SOL    HW1 5075   2.822   1.617   1.612
 1680SOL    HW2 5076   2.881   1.482   1.684
 1681SOL     OW 5077   3.721   1.518   1.605
 1681SOL    HW1 5078   3.735   1.545   1.510
 1681SOL    HW2 5079   3.804   1.540   1.658
 1682SOL     OW 5080   2.212   0.898   1.804
 1682SOL    HW1 5081   2.288   0.942   1.852
 1682SOL    HW2 5082   2.247   0.851   1.722
 1683SOL     OW 5083   3.402   0.274   0.125
 1683SOL    HW1 5084   3.341   0.199   0.148
 1683SOL    HW2 5085   3.424   0.326   0.208
 1684SOL     OW 5086   3.165   0.838   0.042
 1684SOL    HW1 5087   3.199   0.745   0.057
 1684SOL    HW2 5088   3.183   0.865  -0.053
 1685SOL     OW 5089   2.930   1.333   0.849
 1685SOL    HW1 5090   2.937   1.249   0.794
 1685SOL    HW2 5091   2.992   1.402   0.813
 1686SOL     OW 5092   2.181   0.810   0.949
 1686SOL    HW1 5093   2.274   0.846   0.954
 1686SOL    HW2 5094   2.175   0.725   1.001
 1687SOL     OW 5095   2.201   0.509   1.006
 1687SOL    HW1 5096   2.149   0.426   0.989
 1687SOL    HW2 5097   2.278   0.514   0.942
 1688SOL     OW 5098   3.000   0.380   1.678
 1688SOL    HW1 5099   2.955   0.443   1.742
 1688SOL    HW2 5100   3.093   0.411   1.661
 1689SOL     OW 5101   3.022   0.207   1.477
 1689SOL    HW1 5102   3.022   0.271   1.554
 1689SOL    HW2 5103   3.050   0.255   1.394
 1690SOL     OW 5104   1.950   1.801   0.927
 1690SOL    HW1 5105   1.908   1.715   0.900
 1690SOL    HW2 5106   2.044   1.804   0.893
 1691SOL     OW 5107   2.366   1.568   0.910
 1691SOL    HW1 5108   2.432   1.642   0.919
 1691SOL    HW2 5109   2.410   1.489   0.868
 1692SOL     OW 5110   2.864   0.796   1.238
 1692SOL    HW1 5111   2.905   0.764   1.324
 1692SOL    HW2 5112   2.768   0.769   1.235
 1693SOL     OW 5113   1.902   0.544   1.114
 1693SOL    HW1 5114   1.987   0.511   1.073
 1693SOL    HW2 5115   1.915   0.559   1.212
 1694SOL     OW 5116   2.051   0.520   1.722
 1694SOL    HW1 5117   2.110   0.480   1.652
 1694SOL    HW2 5118   1.993   0.591   1.681
 1695SOL     OW 5119   3.231   0.950   1.660
 1695SOL    HW1 5120   3.270   1.039   1.680
 1695SOL    HW2 5121   3.241   0.930   1.563
 1696SOL     OW 5122   2.677   0.572   0.325
 1696SOL    HW1 5123   2.684   0.483   0.279
 1696SOL    HW2 5124   2.583   0.606   0.317
 1697SOL     OW 5125   3.519   0.604   1.206
 1697SOL    HW1 5126   3.481   0.535   1.268
 1697SOL    HW2 5127   3.601   0.568   1.162
 1698SOL     OW 5128   2.114   1.564   1.744
 1698SOL    HW1 5129   2.084   1.621   1.820
 1698SOL    HW2 5130   2.107   1.467   1.770
 1699SOL     OW 5131   2.533   0.464   1.269
 1699SOL    HW1 5132   2.499   0.375   1.239
 1699SOL    HW2 5133   2.559   0.518   1.189
 1700SOL     OW 5134   2.792   1.678   1.465
 1700SOL    HW1 5135   2.768   1.660   1.370
 1700SOL    HW2 5136   2.822   1.772   1.475
 1701SOL     OW 5137   2.335   0.500   0.191
 1701SOL    HW1 5138   2.396   0.580   0.195
 1701SOL    HW2 5139   2.240   0.531   0.198
 1702SOL     OW 5140   2.021   1.137   1.466
 1702SOL    HW1 5141   2.043   1.076   1.542
 1702SOL    HW2 5142   2.031   1.088   1.380
 1703SOL     OW 5143   3.209   1.059   1.234
 1703SOL    HW1 5144   3.233   0.996   1.160
 1703SOL    HW2 5145   3.119   1.099   1.216
 1704SOL     OW 5146   3.164   0.855   0.309
 1704SOL    HW1 5147   3.078   0.824   0.351
 1704SOL    HW2 5148   3.160   0.841   0.210
 1705SOL     OW 5149   3.621   1.747   1.154
 1705SOL    HW1 5150   3.682   1.777   1.081
 1705SOL    HW2 5151   3.583   1.658   1.132
 1706SOL     OW 5152   3.114   1.731   1.128
 1706SOL    HW1 5153   3.198   1.736   1.074
 1706SOL    HW2 5154   3.091   1.635   1.146
 1707SOL     OW 5155   1.945   1.258   1.022
 1707SOL    HW1 5156   1.940   1.257   1.122
 1707SOL    HW2 5157   1.862   1.217   0.984
 1708SOL     OW 5158   2.550   1.662   1.716
 1708SOL    HW1 5159   2.494   1.743   1.725
 1708SOL    HW2 5160   2.602   1.666   1.630
 1709SOL     OW 5161   2.765   0.086   0.133
 1709SOL    HW1 5162   2.816   0.087   0.047
 1709SOL    HW2 5163   2.821   0.044   0.204
 1710SOL     OW 5164   3.588   0.135   0.523
 1710SOL    HW1 5165   3.661   0.118   0.456
 1710SOL    HW2 5166   3.557   0.048   0.561
 1711SOL     OW 5167   3.250   1.573   0.477
 1711SOL    HW1 5168   3.317   1.585   0.403
 1711SOL    HW2 5169   3.210   1.662   0.500
 1712SOL     OW 5170   1.992   1.794   1.851
 1712SOL    HW1 5171   1.951   1.720   1.904
 1712SOL    HW2 5172   2.056   1.845   1.909
 1713SOL     OW 5173   3.142   0.927   0.672
 1713SOL    HW1 5174   3.202   0.846   0.674
 1713SOL    HW2 5175   3.182   0.996   0.612
 1714SOL     OW 5176   2.692   1.273   1.422
 1714SOL    HW1 5177   2.687   1.306   1.517
 1714SOL    HW2 5178   2.606   1.292   1.376
 1715SOL     OW 5179   2.534   1.616   0.154
 1715SOL    HW1 5180   2.543   1.626   0.055
 1715SOL    HW2 5181   2.494   1.527   0.175
 1716SOL     OW 5182   3.512   1.720   1.394
 1716SOL    HW1 5183   3.565   1.730   1.310
 1716SOL    HW2 5184   3.485   1.810   1.428
 1717SOL     OW 5185   3.703   0.175   0.963
 1717SOL    HW1 5186   3.742   0.090   0.927
 1717SOL    HW2 5187   3.605   0.177   0.944
 1718SOL     OW 5188   2.125   0.326   0.720
 1718SOL    HW1 5189   2.046   0.377   0.686
 1718SOL    HW2 5190   2.116   0.311   0.818
 1719SOL     OW 5191   3.056   1.612   0.031
 1719SOL    HW1 5192   3.062   1.519   0.068
 1719SOL    HW2 5193   2.997   1.612  -0.049
 1720SOL     OW 5194   2.684   1.002   1.372
 1720SOL    HW1 5195   2.724   1.001   1.280
 1720SOL    HW2 5196   2.694   1.094   1.412
 1721SOL     OW 5197   2.778   0.910   0.291
 1721SOL    HW1 5198   2.841   0.948   0.223
 1721SOL    HW2 5199   2.818   0.827   0.330
 1722SOL     OW 5200   3.366   1.607   0.044
 1722SOL    HW1 5201   3.274   1.644   0.051
 1722SOL    HW2 5202   3.404   1.627  -0.046
 1723SOL     OW 5203   2.234   1.288   1.490
 1723SOL    HW1 5204   2.221   1.381   1.456
 1723SOL    HW2 5205   2.150   1.236   1.477
 1724SOL     OW 5206   3.476   1.292   1.289
 1724SOL    HW1 5207   3.536   1.295   1.369
 1724SOL    HW2 5208   3.401   1.356   1.302
 1725SOL     OW 5209   2.901   1.098   0.696
 1725SOL    HW1 5210   2.831   1.051   0.750
 1725SOL    HW2 5211   2.960   1.030   0.653
 1726SOL     OW 5212   2.876   0.236   0.971
 1726SOL    HW1 5213   2.868   0.200   0.878
 1726SOL    HW2 5214   2.874   0.160   1.036
 1727SOL     OW 5215   2.452   1.487   0.491
 1727SOL    HW1 5216   2.494   1.429   0.421
 1727SOL    HW2 5217   2.408   1.566   0.447
 1728SOL     OW 5218   3.571   0.385   1.381
 1728SOL    HW1 5219   3.644   0.454   1.385
 1728SOL    HW2 5220   3.599   0.310   1.322
 1729SOL     OW 5221   2.117   1.348   0.290
 1729SOL    HW1 5222   2.021   1.349   0.263
 1729SOL    HW2 5223   2.129   1.401   0.374
 1730SOL     OW 5224   1.967   1.013   1.726
 1730SOL    HW1 5225   1.890   0.980   1.780
 1730SOL    HW2 5226   2.052   0.983   1.768
 1731SOL     OW 5227   2.534   0.203   1.489
 1731SOL    HW1 5228   2.624   0.187   1.449
 1731SOL    HW2 5229   2.542   0.208   1.588
 1732SOL     OW 5230   3.302   0.856   1.398
 1732SOL    HW1 5231   3.245   0.908   1.335
 1732SOL    HW2 5232   3.398   0.868   1.374
 1733SOL     OW 5233   1.934   0.166   0.318
 1733SOL    HW1 5234   1.917   0.249   0.264
 1733SOL    HW2 5235   2.024   0.129   0.296
 1734SOL     OW 5236   3.045   1.335   0.119
 1734SOL    HW1 5237   2.946   1.324   0.121
 1734SOL    HW2 5238   3.079   1.350   0.212
 1735SOL     OW 5239   2.475   0.842   1.431
 1735SOL    HW1 5240   2.531   0.923   1.414
 1735SOL    HW2 5241   2.534   0.762   1.434
 1736SOL     OW 5242   3.355   1.767   0.959
 1736SOL    HW1 5243   3.388   1.831   0.890
 1736SOL    HW2 5244   3.421   1.761   1.034
 1737SOL     OW 5245   2.578   0.565   1.708
 1737SOL    HW1 5246   2.597   0.630   1.782
 1737SOL    HW2 5247   2.638   0.485   1.717
 1738SOL     OW 5248   3.312   1.220   1.633
 1738SOL    HW1 5249   3.303   1.210   1.732
 1738SOL    HW2 5250   3.408   1.213   1.607
 1739SOL     OW 5251   2.252   1.741   1.560
 1739SOL    HW1 5252   2.161   1.782   1.558
 1739SOL    HW2 5253   2.245   1.647   1.592
 1740SOL     OW 5254   3.536   0.883   1.254
 1740SOL    HW1 5255   3.509   0.794   1.217
 1740SOL    HW2 5256   3.537   0.951   1.181
 1741SOL     OW 5257   3.087   0.325   0.449
 1741SOL    HW1 5258   3.152   0.251   0.438
 1741SOL    HW2 5259   3.107   0.375   0.533
 1742SOL     OW 5260   2.456   0.745   0.652
 1742SOL    HW1 5261   2.506   0.830   0.633
 1742SOL    HW2 5262   2.368   0.747   0.604
 1743SOL     OW 5263   3.639   0.342   1.642
 1743SOL    HW1 5264   3.622   0.373   1.548
 1743SOL    HW2 5265   3.555   0.305   1.680
 1744SOL     OW 5266   3.592   0.934   1.517
 1744SOL    HW1 5267   3.630   1.025   1.532
 1744SOL    HW2 5268   3.584   0.917   1.418
 1745SOL     OW 5269   2.721   1.374   0.016
 1745SOL    HW1 5270   2.675   1.389   0.104
 1745SOL    HW2 5271   2.765   1.459  -0.014
 1746SOL     OW 5272   2.523   1.790   0.953
 1746SOL    HW1 5273   2.477   1.878   0.940
 1746SOL    HW2 5274   2.622   1.802   0.946
 1747SOL     OW 5275   2.721   0.956   0.861
 1747SOL    HW1 5276   2.775   0.887   0.909
 1747SOL    HW2 5277   2.689   1.025   0.927
 1748SOL     OW 5278   2.945   0.984   0.087
 1748SOL    HW1 5279   2.922   1.037   0.005
 1748SOL    HW2 5280   3.026   0.928   0.068
 1749SOL     OW 5281   3.723   1.569   0.851
 1749SOL    HW1 5282   3.652   1.557   0.781
 1749SOL    HW2 5283   3.724   1.490   0.911
 1750SOL     OW 5284   2.083   1.314   1.844
 1750SOL    HW1 5285   2.018   1.241   1.823
 1750SOL    HW2 5286   2.087   1.328   1.942
 1751SOL     OW 5287   1.941   1.240   0.653
 1751SOL    HW1 5288   1.940   1.193   0.741
 1751SOL    HW2 5289   2.023   1.212   0.602
 1752SOL     OW 5290   2.534   1.391   1.624
 1752SOL    HW1 5291   2.456   1.341   1.662
 1752SOL    HW2 5292   2.531   1.486   1.655
 1753SOL     OW 5293   3.686   0.192   1.227
 1753SOL    HW1 5294   3.682   0.102   1.271
 1753SOL    HW2 5295   3.689   0.181   1.128
 1754SOL     OW 5296   2.290   0.424   0.520
 1754SOL    HW1 5297   2.320   0.352   0.458
 1754SOL    HW2 5298   2.251   0.384   0.603
 1755SOL     OW 5299   3.567   1.487   1.104
 1755SOL    HW1 5300   3.474   1.462   1.077
 1755SOL    HW2 5301   3.593   1.437   1.186
 1756SOL     OW 5302   2.179   0.547   1.280
 1756SOL    HW1 5303   2.217   0.488   1.352
 1756SOL    HW2 5304   2.219   0.521   1.192
 1757SOL     OW 5305   2.674   1.586   0.687
 1757SOL    HW1 5306   2.706   1.596   0.593
 1757SOL    HW2 5307   2.595   1.524   0.689
 1758SOL     OW 5308   3.286   0.214   1.112
 1758SOL    HW1 5309   3.338   0.149   1.167
 1758SOL    HW2 5310   3.237   0.277   1.173
 1759SOL     OW 5311   2.863   0.034   1.154
 1759SOL    HW1 5312   2.800  -0.038   1.123
 1759SOL    HW2 5313   2.956  -0.002   1.154
 1760SOL     OW 5314   2.632   1.330   0.301
 1760SOL    HW1 5315   2.586   1.243   0.318
 1760SOL    HW2 5316   2.723   1.327   0.342
 1761SOL     OW 5317   2.480   1.567   1.284
 1761SOL    HW1 5318   2.475   1.649   1.341
 1761SOL    HW2 5319   2.569   1.564   1.239
 1762SOL     OW 5320   3.214   0.052   0.168
 1762SOL    HW1 5321   3.249   0.011   0.084
 1762SOL    HW2 5322   3.124   0.014   0.188
 1763SOL     OW 5323   3.162   0.453   0.691
 1763SOL    HW1 5324   3.103   0.533   0.695
 1763SOL    HW2 5325   3.177   0.418   0.784
 1764SOL     OW 5326   3.455   0.221   0.882
 1764SOL    HW1 5327   3.371   0.220   0.936
 1764SOL    HW2 5328   3.457   0.304   0.826
 1765SOL     OW 5329   1.901   1.077   0.300
 1765SOL    HW1 5330   2.000   1.066   0.291
 1765SOL    HW2 5331   1.861   0.991   0.332
 1766SOL     OW 5332   2.737   1.646   0.337
 1766SOL    HW1 5333   2.660   1.611   0.283
 1766SOL    HW2 5334   2.705   1.717   0.399
 1767SOL     OW 5335   2.092   0.628   1.975
 1767SOL    HW1 5336   1.999   0.626   2.012
 1767SOL    HW2 5337   2.093   0.589   1.883
 1768SOL     OW 5338   2.087   0.275   2.858
 1768SOL    HW1 5339   2.122   0.258   2.950
 1768SOL    HW2 5340   1.999   0.230   2.846
 1769SOL     OW 5341   1.881   0.368   2.509
 1769SOL    HW1 5342   1.799   0.411   2.548
 1769SOL    HW2 5343   1.853   0.295   2.446
 1770SOL     OW 5344   2.431   1.275   3.027
 1770SOL    HW1 5345   2.338   1.268   2.990
 1770SOL    HW2 5346   2.442   1.364   3.071
 1771SOL     OW 5347   3.417   1.511   2.565
 1771SOL    HW1 5348   3.360   1.495   2.646
 1771SOL    HW2 5349   3.358   1.521   2.485
 1772SOL     OW 5350   2.997   0.703   2.579
 1772SOL    HW1 5351   3.054   0.781   2.554
 1772SOL    HW2 5352   2.937   0.729   2.655
 1773SOL     OW 5353   3.617   0.607   2.093
 1773SOL    HW1 5354   3.605   0.594   1.994
 1773SOL    HW2 5355   3.587   0.526   2.142
 1774SOL     OW 5356   2.630   1.144   2.885
 1774SOL    HW1 5357   2.552   1.161   2.945
 1774SOL    HW2 5358   2.664   1.231   2.849
 1775SOL     OW 5359   2.712   0.798   3.685
 1775SOL    HW1 5360   2.708   0.874   3.750
 1775SOL    HW2 5361   2.734   0.834   3.594
 1776SOL     OW 5362   2.547   1.012   2.527
 1776SOL    HW1 5363   2.616   0.996   2.597
 1776SOL    HW2 5364   2.474   1.069   2.565
 1777SOL     OW 5365   2.548   1.161   3.665
 1777SOL    HW1 5366   2.608   1.240   3.679
 1777SOL    HW2 5367   2.462   1.192   3.624
 1778SOL     OW 5368   2.197   1.435   2.923
 1778SOL    HW1 5369   2.119   1.404   2.870
 1778SOL    HW2 5370   2.255   1.493   2.866
 1779SOL     OW 5371   3.322   1.505   3.201
 1779SOL    HW1 5372   3.346   1.599   3.227
 1779SOL    HW2 5373   3.306   1.451   3.283
 1780SOL     OW 5374   2.300   0.392   3.361
 1780SOL    HW1 5375   2.382   0.336   3.370
 1780SOL    HW2 5376   2.219   0.334   3.365
 1781SOL     OW 5377   3.465   0.447   2.599
 1781SOL    HW1 5378   3.391   0.493   2.549
 1781SOL    HW2 5379   3.516   0.515   2.652
 1782SOL     OW 5380   2.093   1.713   2.345
 1782SOL    HW1 5381   2.127   1.790   2.399
 1782SOL    HW2 5382   2.137   1.713   2.255
 1783SOL     OW 5383   2.989   1.341   3.552
 1783SOL    HW1 5384   3.036   1.341   3.640
 1783SOL    HW2 5385   2.941   1.254   3.541
 1784SOL     OW 5386   2.092   1.434   2.400
 1784SOL    HW1 5387   2.066   1.530   2.400
 1784SOL    HW2 5388   2.021   1.380   2.445
 1785SOL     OW 5389   2.102   1.091   2.748
 1785SOL    HW1 5390   2.116   1.007   2.800
 1785SOL    HW2 5391   2.047   1.155   2.803
 1786SOL     OW 5392   2.482   1.786   3.301
 1786SOL    HW1 5393   2.390   1.769   3.336
 1786SOL    HW2 5394   2.510   1.878   3.327
 1787SOL     OW 5395   2.468   0.964   1.985
 1787SOL    HW1 5396   2.475   1.048   1.931
 1787SOL    HW2 5397   2.514   0.977   2.073
 1788SOL     OW 5398   3.456   0.114   3.342
 1788SOL    HW1 5399   3.438   0.181   3.270
 1788SOL    HW2 5400   3.453   0.160   3.431
 1789SOL     OW 5401   1.984   0.643   2.425
 1789SOL    HW1 5402   1.939   0.555   2.442
 1789SOL    HW2 5403   1.983   0.697   2.509
 1790SOL     OW 5404   3.704   1.767   2.221
 1790SOL    HW1 5405   3.758   1.738   2.301
 1790SOL    HW2 5406   3.734   1.857   2.192
 1791SOL     OW 5407   1.889   1.596   1.979
 1791SOL    HW1 5408   1.870   1.500   2.000
 1791SOL    HW2 5409   1.856   1.654   2.054
 1792SOL     OW 5410   3.551   0.922   2.474
 1792SOL    HW1 5411   3.646   0.893   2.482
 1792SOL    HW2 5412   3.543   0.987   2.399
 1793SOL     OW 5413   3.503   1.108   2.294
 1793SOL    HW1 5414   3.589   1.110   2.242
 1793SOL    HW2 5415   3.517   1.155   2.382
 1794SOL     OW 5416   1.975   0.737   3.459
 1794SOL    HW1 5417   2.063   0.724   3.504
 1794SOL    HW2 5418   1.962   0.834   3.437
 1795SOL     OW 5419   2.475   1.365   2.588
 1795SOL    HW1 5420   2.426   1.278   2.597
 1795SOL    HW2 5421   2.452   1.408   2.501
 1796SOL     OW 5422   3.155   1.228   3.285
 1796SOL    HW1 5423   3.192   1.155   3.227
 1796SOL    HW2 5424   3.207   1.233   3.370
 1797SOL     OW 5425   2.671   0.004   2.364
 1797SOL    HW1 5426   2.711   0.095   2.355
 1797SOL    HW2 5427   2.571   0.012   2.370
 1798SOL     OW 5428   2.059   0.976   3.126
 1798SOL    HW1 5429   2.148   0.931   3.112
 1798SOL    HW2 5430   1.986   0.911   3.107
 1799SOL     OW 5431   3.387   0.999   2.052
 1799SOL    HW1 5432   3.324   0.923   2.065
 1799SOL    HW2 5433   3.435   1.017   2.138
 1800SOL     OW 5434   3.049   1.792   3.478
 1800SOL    HW1 5435   3.073   1.852   3.402
 1800SOL    HW2 5436   3.056   1.697   3.448
 1801SOL     OW 5437   2.179   0.251   3.663
 1801SOL    HW1 5438   2.250   0.322   3.669
 1801SOL    HW2 5439   2.091   0.290   3.691
 1802SOL     OW 5440   3.328   1.417   2.815
 1802SOL    HW1 5441   3.269   1.423   2.895
 1802SOL    HW2 5442   3.313   1.329   2.769
 1803SOL     OW 5443   3.529   1.714   2.434
 1803SOL    HW1 5444   3.488   1.691   2.346
 1803SOL    HW2 5445   3.511   1.640   2.499
 1804SOL     OW 5446   2.460   0.729   2.132
 1804SOL    HW1 5447   2.484   0.798   2.064
 1804SOL    HW2 5448   2.382   0.762   2.186
 1805SOL     OW 5449   3.143   0.345   2.806
 1805SOL    HW1 5450   3.057   0.295   2.793
 1805SOL    HW2 5451   3.205   0.291   2.862
 1806SOL     OW 5452   3.438   1.662   2.169
 1806SOL    HW1 5453   3.527   1.708   2.172
 1806SOL    HW2 5454   3.417   1.638   2.074
 1807SOL     OW 5455   2.669   0.605   3.327
 1807SOL    HW1 5456   2.622   0.602   3.416
 1807SOL    HW2 5457   2.618   0.550   3.261
 1808SOL     OW 5458   3.256   0.469   3.536
 1808SOL    HW1 5459   3.236   0.512   3.624
 1808SOL    HW2 5460   3.334   0.407   3.545
 1809SOL     OW 5461   2.835   0.890   3.434
 1809SOL    HW1 5462   2.881   0.806   3.405
 1809SOL    HW2 5463   2.779   0.924   3.359
 1810SOL     OW 5464   2.853   0.410   3.104
 1810SOL    HW1 5465   2.776   0.444   3.158
 1810SOL    HW2 5466   2.819   0.359   3.025
 1811SOL     OW 5467   2.903   0.701   2.291
 1811SOL    HW1 5468   2.929   0.697   2.387
 1811SOL    HW2 5469   2.818   0.650   2.277
 1812SOL     OW 5470   1.938   0.811   2.651
 1812SOL    HW1 5471   2.037   0.799   2.660
 1812SOL    HW2 5472   1.914   0.906   2.672
 1813SOL     OW 5473   1.992   1.821   3.433
 1813SOL    HW1 5474   1.982   1.806   3.532
 1813SOL    HW2 5475   1.906   1.857   3.397
 1814SOL     OW 5476   2.727   0.348   2.057
 1814SOL    HW1 5477   2.786   0.411   2.008
 1814SOL    HW2 5478   2.746   0.254   2.028
 1815SOL     OW 5479   3.581   0.585   3.693
 1815SOL    HW1 5480   3.555   0.674   3.657
 1815SOL    HW2 5481   3.579   0.517   3.620
 1816SOL     OW 5482   3.224   1.144   2.407
 1816SOL    HW1 5483   3.307   1.115   2.359
 1816SOL    HW2 5484   3.175   1.211   2.351
 1817SOL     OW 5485   2.412   0.196   2.747
 1817SOL    HW1 5486   2.407   0.191   2.847
 1817SOL    HW2 5487   2.414   0.292   2.718
 1818SOL     OW 5488   2.870   1.456   2.339
 1818SOL    HW1 5489   2.824   1.528   2.287
 1818SOL    HW2 5490   2.866   1.476   2.437
 1819SOL     OW 5491   2.213   1.801   2.715
 1819SOL    HW1 5492   2.263   1.715   2.721
 1819SOL    HW2 5493   2.278   1.878   2.712
 1820SOL     OW 5494   3.657   1.066   2.735
 1820SOL    HW1 5495   3.595   1.051   2.659
 1820SOL    HW2 5496   3.605   1.077   2.820
 1821SOL     OW 5497   3.089   1.550   3.368
 1821SOL    HW1 5498   3.095   1.473   3.432
 1821SOL    HW2 5499   3.037   1.524   3.288
 1822SOL     OW 5500   2.183   0.943   2.104
 1822SOL    HW1 5501   2.265   0.982   2.062
 1822SOL    HW2 5502   2.156   0.861   2.055
 1823SOL     OW 5503   3.320   0.735   2.590
 1823SOL    HW1 5504   3.315   0.670   2.665
 1823SOL    HW2 5505   3.400   0.794   2.603
 1824SOL     OW 5506   2.323   1.266   3.589
 1824SOL    HW1 5507   2.273   1.267   3.503
 1824SOL    HW2 5508   2.260   1.248   3.665
 1825SOL     OW 5509   2.973   1.776   2.099
 1825SOL    HW1 5510   2.913   1.714   2.149
 1825SOL    HW2 5511   3.004   1.732   2.014
 1826SOL     OW 5512   3.494   1.377   1.943
 1826SOL    HW1 5513   3.462   1.471   1.933
 1826SOL    HW2 5514   3.418   1.314   1.931
 1827SOL     OW 5515   2.326   1.743   2.185
 1827SOL    HW1 5516   2.359   1.782   2.271
 1827SOL    HW2 5517   2.402   1.736   2.120
 1828SOL     OW 5518   3.262   0.107   2.288
 1828SOL    HW1 5519   3.238   0.070   2.198
 1828SOL    HW2 5520   3.361   0.123   2.292
 1829SOL     OW 5521   2.111   1.785   3.103
 1829SOL    HW1 5522   2.168   1.720   3.153
 1829SOL    HW2 5523   2.095   1.752   3.010
 1830SOL     OW 5524   2.802   1.698   2.766
 1830SOL    HW1 5525   2.882   1.641   2.787
 1830SOL    HW2 5526   2.753   1.658   2.689
 1831SOL     OW 5527   2.244   0.700   2.342
 1831SOL    HW1 5528   2.289   0.610   2.339
 1831SOL    HW2 5529   2.150   0.689   2.375
 1832SOL     OW 5530   3.409   0.222   3.591
 1832SOL    HW1 5531   3.404   0.259   3.683
 1832SOL    HW2 5532   3.337   0.153   3.579
 1833SOL     OW 5533   2.476   0.122   1.979
 1833SOL    HW1 5534   2.574   0.100   1.986
 1833SOL    HW2 5535   2.445   0.105   1.886
 1834SOL     OW 5536   2.643   0.264   3.611
 1834SOL    HW1 5537   2.710   0.203   3.654
 1834SOL    HW2 5538   2.570   0.283   3.676
 1835SOL     OW 5539   2.750   1.514   3.057
 1835SOL    HW1 5540   2.727   1.489   2.963
 1835SOL    HW2 5541   2.811   1.445   3.096
 1836SOL     OW 5542   3.213   0.590   3.295
 1836SOL    HW1 5543   3.241   0.547   3.380
 1836SOL    HW2 5544   3.238   0.686   3.296
 1837SOL     OW 5545   2.665   1.402   2.786
 1837SOL    HW1 5546   2.755   1.416   2.744
 1837SOL    HW2 5547   2.594   1.404   2.715
 1838SOL     OW 5548   2.784   0.503   2.761
 1838SOL    HW1 5549   2.759   0.494   2.665
 1838SOL    HW2 5550   2.832   0.421   2.792
 1839SOL     OW 5551   2.401   0.064   2.374
 1839SOL    HW1 5552   2.320   0.065   2.432
 1839SOL    HW2 5553   2.404   0.147   2.319
 1840SOL     OW 5554   3.296   1.188   1.903
 1840SOL    HW1 5555   3.328   1.112   1.960
 1840SOL    HW2 5556   3.204   1.215   1.933
 1841SOL     OW 5557   2.159   0.035   2.033
 1841SOL    HW1 5558   2.208   0.119   2.012
 1841SOL    HW2 5559   2.221  -0.030   2.078
 1842SOL     OW 5560   2.797   0.236   2.342
 1842SOL    HW1 5561   2.749   0.277   2.264
 1842SOL    HW2 5562   2.896   0.234   2.323
 1843SOL     OW 5563   2.938   0.683   3.326
 1843SOL    HW1 5564   2.858   0.622   3.329
 1843SOL    HW2 5565   3.019   0.630   3.302
 1844SOL     OW 5566   3.089   1.570   2.655
 1844SOL    HW1 5567   3.110   1.644   2.590
 1844SOL    HW2 5568   3.157   1.570   2.728
 1845SOL     OW 5569   2.321   1.152   2.603
 1845SOL    HW1 5570   2.250   1.125   2.668
 1845SOL    HW2 5571   2.295   1.124   2.510
 1846SOL     OW 5572   3.133   1.797   2.453
 1846SOL    HW1 5573   3.177   1.861   2.389
 1846SOL    HW2 5574   3.083   1.849   2.523
 1847SOL     OW 5575   2.894   0.549   1.878
 1847SOL    HW1 5576   2.853   0.631   1.839
 1847SOL    HW2 5577   2.958   0.575   1.951
 1848SOL     OW 5578   1.940   0.556   3.248
 1848SOL    HW1 5579   2.032   0.555   3.207
 1848SOL    HW2 5580   1.934   0.630   3.315
 1849SOL     OW 5581   2.423   0.222   3.009
 1849SOL    HW1 5582   2.461   0.138   3.046
 1849SOL    HW2 5583   2.335   0.241   3.053
 1850SOL     OW 5584   2.728   0.454   2.504
 1850SOL    HW1 5585   2.696   0.526   2.442
 1850SOL    HW2 5586   2.752   0.373   2.451
 1851SOL     OW 5587   2.879   0.039   2.615
 1851SOL    HW1 5588   2.807   0.044   2.546
 1851SOL    HW2 5589   2.855  -0.030   2.684
 1852SOL     OW 5590   3.291   1.173   2.729
 1852SOL    HW1 5591   3.236   1.089   2.722
 1852SOL    HW2 5592   3.317   1.202   2.637
 1853SOL     OW 5593   3.328   0.590   2.854
 1853SOL    HW1 5594   3.298   0.495   2.861
 1853SOL    HW2 5595   3.401   0.606   2.920
 1854SOL     OW 5596   3.719   0.833   2.239
 1854SOL    HW1 5597   3.761   0.769   2.303
 1854SOL    HW2 5598   3.681   0.782   2.161
 1855SOL     OW 5599   2.350   1.385   2.036
 1855SOL    HW1 5600   2.263   1.370   2.083
 1855SOL    HW2 5601   2.333   1.411   1.941
 1856SOL     OW 5602   3.526   1.280   2.519
 1856SOL    HW1 5603   3.625   1.288   2.533
 1856SOL    HW2 5604   3.481   1.364   2.550
 1857SOL     OW 5605   3.252   0.575   1.940
 1857SOL    HW1 5606   3.198   0.554   2.021
 1857SOL    HW2 5607   3.343   0.534   1.949
 1858SOL     OW 5608   2.389   0.256   2.190
 1858SOL    HW1 5609   2.416   0.197   2.115
 1858SOL    HW2 5610   2.389   0.351   2.159
 1859SOL     OW 5611   3.616   1.223   3.450
 1859SOL    HW1 5612   3.707   1.184   3.437
 1859SOL    HW2 5613   3.624   1.319   3.474
 1860SOL     OW 5614   2.926   1.347   3.202
 1860SOL    HW1 5615   2.846   1.324   3.257
 1860SOL    HW2 5616   3.009   1.321   3.251
 1861SOL     OW 5617   3.454   1.629   3.487
 1861SOL    HW1 5618   3.481   1.663   3.397
 1861SOL    HW2 5619   3.533   1.591   3.533
 1862SOL     OW 5620   2.973   1.195   2.962
 1862SOL    HW1 5621   2.933   1.239   3.043
 1862SOL    HW2 5622   2.932   1.232   2.879
 1863SOL     OW 5623   3.500   1.099   2.941
 1863SOL    HW1 5624   3.505   1.180   3.000
 1863SOL    HW2 5625   3.414   1.101   2.890
 1864SOL     OW 5626   2.777   0.089   3.264
 1864SOL    HW1 5627   2.802   0.069   3.169
 1864SOL    HW2 5628   2.849   0.145   3.306
 1865SOL     OW 5629   2.842   1.116   3.581
 1865SOL    HW1 5630   2.743   1.122   3.591
 1865SOL    HW2 5631   2.865   1.036   3.525
 1866SOL     OW 5632   2.567   1.050   2.230
 1866SOL    HW1 5633   2.553   1.057   2.329
 1866SOL    HW2 5634   2.651   0.999   2.212
 1867SOL     OW 5635   2.272   0.813   3.113
 1867SOL    HW1 5636   2.358   0.825   3.163
 1867SOL    HW2 5637   2.230   0.726   3.140
 1868SOL     OW 5638   3.136   0.386   3.124
 1868SOL    HW1 5639   3.157   0.460   3.188
 1868SOL    HW2 5640   3.047   0.403   3.081
 1869SOL     OW 5641   1.926   1.564   3.193
 1869SOL    HW1 5642   1.880   1.646   3.159
 1869SOL    HW2 5643   2.024   1.583   3.202
 1870SOL     OW 5644   2.229   1.100   2.363
 1870SOL    HW1 5645   2.222   1.183   2.307
 1870SOL    HW2 5646   2.233   1.020   2.303
 1871SOL     OW 5647   2.428   0.537   2.727
 1871SOL    HW1 5648   2.440   0.603   2.653
 1871SOL    HW2 5649   2.474   0.571   2.810
 1872SOL     OW 5650   3.114   1.348   2.250
 1872SOL    HW1 5651   3.164   1.425   2.290
 1872SOL    HW2 5652   3.019   1.350   2.282
 1873SOL     OW 5653   3.134   1.445   3.004
 1873SOL    HW1 5654   3.181   1.458   3.091
 1873SOL    HW2 5655   3.068   1.371   3.013
 1874SOL     OW 5656   3.444   0.639   2.334
 1874SOL    HW1 5657   3.413   0.700   2.407
 1874SOL    HW2 5658   3.494   0.691   2.265
 1875SOL     OW 5659   2.216   1.510   3.191
 1875SOL    HW1 5660   2.195   1.466   3.104
 1875SOL    HW2 5661   2.313   1.536   3.194
 1876SOL     OW 5662   2.264   0.751   3.460
 1876SOL    HW1 5663   2.332   0.806   3.413
 1876SOL    HW2 5664   2.304   0.663   3.487
 1877SOL     OW 5665   3.449   0.779   3.532
 1877SOL    HW1 5666   3.357   0.817   3.527
 1877SOL    HW2 5667   3.509   0.826   3.467
 1878SOL     OW 5668   2.875   0.105   3.632
 1878SOL    HW1 5669   2.881   0.190   3.580
 1878SOL    HW2 5670   2.907   0.029   3.575
 1879SOL     OW 5671   2.366   0.050   3.602
 1879SOL    HW1 5672   2.324  -0.007   3.532
 1879SOL    HW2 5673   2.300   0.119   3.634
 1880SOL     OW 5674   2.435   0.870   2.891
 1880SOL    HW1 5675   2.479   0.959   2.882
 1880SOL    HW2 5676   2.372   0.870   2.968
 1881SOL     OW 5677   3.222   0.862   2.907
 1881SOL    HW1 5678   3.147   0.862   2.841
 1881SOL    HW2 5679   3.259   0.770   2.916
 1882SOL     OW 5680   3.071   0.525   2.137
 1882SOL    HW1 5681   3.084   0.441   2.191
 1882SOL    HW2 5682   3.042   0.599   2.197
 1883SOL     OW 5683   2.169   0.213   3.093
 1883SOL    HW1 5684   2.146   0.250   3.183
 1883SOL    HW2 5685   2.139   0.118   3.087
 1884SOL     OW 5686   1.899   1.310   3.144
 1884SOL    HW1 5687   1.952   1.261   3.212
 1884SOL    HW2 5688   1.921   1.408   3.149
 1885SOL     OW 5689   2.594   0.634   2.926
 1885SOL    HW1 5690   2.653   0.608   2.850
 1885SOL    HW2 5691   2.566   0.730   2.915
 1886SOL     OW 5692   3.590   0.935   3.716
 1886SOL    HW1 5693   3.544   0.928   3.627
 1886SOL    HW2 5694   3.528   0.979   3.782
 1887SOL     OW 5695   2.169   0.063   2.480
 1887SOL    HW1 5696   2.158   0.157   2.513
 1887SOL    HW2 5697   2.164   0.000   2.557
 1888SOL     OW 5698   3.484   0.367   2.236
 1888SOL    HW1 5699   3.486   0.291   2.300
 1888SOL    HW2 5700   3.436   0.444   2.276
 1889SOL     OW 5701   2.885   0.766   2.828
 1889SOL    HW1 5702   2.900   0.787   2.924
 1889SOL    HW2 5703   2.855   0.671   2.819
 1890SOL     OW 5704   2.842   1.573   3.562
 1890SOL    HW1 5705   2.822   1.617   3.474
 1890SOL    HW2 5706   2.881   1.482   3.546
 1891SOL     OW 5707   3.721   1.518   3.467
 1891SOL    HW1 5708   3.735   1.545   3.372
 1891SOL    HW2 5709   3.804   1.540   3.520
 1892SOL     OW 5710   2.212   0.898   3.666
 1892SOL    HW1 5711   2.288   0.942   3.714
 1892SOL    HW2 5712   2.247   0.851   3.584
 1893SOL     OW 5713   3.402   0.274   1.987
 1893SOL    HW1 5714   3.341   0.199   2.010
 1893SOL    HW2 5715   3.424   0.326   2.070
 1894SOL     OW 5716   3.165   0.838   1.904
 1894SOL    HW1 5717   3.199   0.745   1.919
 1894SOL    HW2 5718   3.183   0.865   1.809
 1895SOL     OW 5719   2.930   1.333   2.711
 1895SOL    HW1 5720   2.937   1.249   2.656
 1895SOL    HW2 5721   2.992   1.402   2.675
 1896SOL     OW 5722   2.181   0.810   2.811
 1896SOL    HW1 5723   2.274   0.846   2.816
 1896SOL    HW2 5724   2.175   0.725   2.863
 1897SOL     OW 5725   2.201   0.509   2.868
 1897SOL    HW1 5726   2.149   0.426   2.851
 1897SOL    HW2 5727   2.278   0.514   2.804
 1898SOL     OW 5728   3.000   0.380   3.540
 1898SOL    HW1 5729   2.955   0.443   3.604
 1898SOL    HW2 5730   3.093   0.411   3.523
 1899SOL     OW 5731   3.022   0.207   3.339
 1899SOL    HW1 5732   3.022   0.271   3.416
 1899SOL    HW2 5733   3.050   0.255   3.256
 1900SOL     OW 5734   1.870   1.326   2.062
 1900SOL    HW1 5735   1.777   1.347   2.031
 1900SOL    HW2 5736   1.880   1.227   2.075
 1901SOL     OW 5737   1.950   1.801   2.789
 1901SOL    HW1 5738   1.908   1.715   2.762
 1901SOL    HW2 5739   2.044   1.804   2.755
 1902SOL     OW 5740   2.366   1.568   2.772
 1902SOL    HW1 5741   2.432   1.642   2.781
 1902SOL    HW2 5742   2.410   1.489   2.730
 1903SOL     OW 5743   2.864   0.796   3.100
 1903SOL    HW1 5744   2.905   0.764   3.186
 1903SOL    HW2 5745   2.768   0.769   3.097
 1904SOL     OW 5746   1.902   0.544   2.976
 1904SOL    HW1 5747   1.987   0.511   2.935
 1904SOL    HW2 5748   1.915   0.559   3.074
 1905SOL     OW 5749   2.051   0.520   3.584
 1905SOL    HW1 5750   2.110   0.480   3.514
 1905SOL    HW2 5751   1.993   0.591   3.543
 1906SOL     OW 5752   3.231   0.950   3.522
 1906SOL    HW1 5753   3.270   1.039   3.542
 1906SOL    HW2 5754   3.241   0.930   3.425
 1907SOL     OW 5755   2.677   0.572   2.187
 1907SOL    HW1 5756   2.684   0.483   2.141
 1907SOL    HW2 5757   2.583   0.606   2.179
 1908SOL     OW 5758   3.519   0.604   3.068
 1908SOL    HW1 5759   3.481   0.535   3.130
 1908SOL    HW2 5760   3.601   0.568   3.024
 1909SOL     OW 5761   2.114   1.564   3.606
 1909SOL    HW1 5762   2.084   1.621   3.682
 1909SOL    HW2 5763   2.107   1.467   3.632
 1910SOL     OW 5764   2.533   0.464   3.131
 1910SOL    HW1 5765   2.499   0.375   3.101
 1910SOL    HW2 5766   2.559   0.518   3.051
 1911SOL     OW 5767   2.792   1.678   3.327
 1911SOL    HW1 5768   2.768   1.660   3.232
 1911SOL    HW2 5769   2.822   1.772   3.337
 1912SOL     OW 5770   2.335   0.500   2.053
 1912SOL    HW1 5771   2.396   0.580   2.057
 1912SOL    HW2 5772   2.240   0.531   2.060
 1913SOL     OW 5773   2.021   1.137   3.328
 1913SOL    HW1 5774   2.043   1.076   3.404
 1913SOL    HW2 5775   2.031   1.088   3.242
 1914SOL     OW 5776   3.209   1.059   3.096
 1914SOL    HW1 5777   3.233   0.996   3.022
 1914SOL    HW2 5778   3.119   1.099   3.078
 1915SOL     OW 5779   3.164   0.855   2.171
 1915SOL    HW1 5780   3.078   0.824   2.213
 1915SOL    HW2 5781   3.160   0.841   2.072
 1916SOL     OW 5782   3.621   1.747   3.016
 1916SOL    HW1 5783   3.682   1.777   2.943
 1916SOL    HW2 5784   3.583   1.658   2.994
 1917SOL     OW 5785   3.114   1.731   2.990
 1917SOL    HW1 5786   3.198   1.736   2.936
 1917SOL    HW2 5787   3.091   1.635   3.008
 1918SOL     OW 5788   1.945   1.258   2.884
 1918SOL    HW1 5789   1.940   1.257   2.984
 1918SOL    HW2 5790   1.862   1.217   2.846
 1919SOL     OW 5791   2.550   1.662   3.578
 1919SOL    HW1 5792   2.494   1.743   3.587
 1919SOL    HW2 5793   2.602   1.666   3.492
 1920SOL     OW 5794   3.588   0.135   2.385
 1920SOL    HW1 5795   3.661   0.118   2.318
 1920SOL    HW2 5796   3.557   0.048   2.423
 1921SOL     OW 5797   3.250   1.573   2.339
 1921SOL    HW1 5798   3.317   1.585   2.265
 1921SOL    HW2 5799   3.210   1.662   2.362
 1922SOL     OW 5800   1.992   1.794   3.713
 1922SOL    HW1 5801   1.951   1.720   3.766
 1922SOL    HW2 5802   2.056   1.845   3.771
 1923SOL     OW 5803   3.142   0.927   2.534
 1923SOL    HW1 5804   3.202   0.846   2.536
 1923SOL    HW2 5805   3.182   0.996   2.474
 1924SOL     OW 5806   2.692   1.273   3.284
 1924SOL    HW1 5807   2.687   1.306   3.379
 1924SOL    HW2 5808   2.606   1.292   3.238
 1925SOL     OW 5809   2.534   1.616   2.016
 1925SOL    HW1 5810   2.543   1.626   1.917
 1925SOL    HW2 5811   2.494   1.527   2.037
 1926SOL     OW 5812   3.512   1.720   3.256
 1926SOL    HW1 5813   3.565   1.730   3.172
 1926SOL    HW2 5814   3.485   1.810   3.290
 1927SOL     OW 5815   3.703   0.175   2.825
 1927SOL    HW1 5816   3.742   0.090   2.789
 1927SOL    HW2 5817   3.605   0.177   2.806
 1928SOL     OW 5818   2.125   0.326   2.582
 1928SOL    HW1 5819   2.046   0.377   2.548
 1928SOL    HW2 5820   2.116   0.311   2.680
 1929SOL     OW 5821   3.056   1.612   1.893
 1929SOL    HW1 5822   3.062   1.519   1.930
 1929SOL    HW2 5823   2.997   1.612   1.813
 1930SOL     OW 5824   2.684   1.002   3.234
 1930SOL    HW1 5825   2.724   1.001   3.142
 1930SOL    HW2 5826   2.694   1.094   3.274
 1931SOL     OW 5827   2.778   0.910   2.153
 1931SOL    HW1 5828   2.841   0.948   2.085
 1931SOL    HW2 5829   2.818   0.827   2.192
 1932SOL     OW 5830   3.366   1.607   1.906
 1932SOL    HW1 5831   3.274   1.644   1.913
 1932SOL    HW2 5832   3.404   1.627   1.816
 1933SOL     OW 5833   2.234   1.288   3.352
 1933SOL    HW1 5834   2.221   1.381   3.318
 1933SOL    HW2 5835   2.150   1.236   3.339
 1934SOL     OW 5836   3.476   1.292   3.151
 1934SOL    HW1 5837   3.536   1.295   3.231
 1934SOL    HW2 5838   3.401   1.356   3.164
 1935SOL     OW 5839   2.901   1.098   2.558
 1935SOL    HW1 5840   2.831   1.051   2.612
 1935SOL    HW2 5841   2.960   1.030   2.515
 1936SOL     OW 5842   2.876   0.236   2.833
 1936SOL    HW1 5843   2.868   0.200   2.740
 1936SOL    HW2 5844   2.874   0.160   2.898
 1937SOL     OW 5845   2.452   1.487   2.353
 1937SOL    HW1 5846   2.494   1.429   2.283
 1937SOL    HW2 5847   2.408   1.566   2.309
 1938SOL     OW 5848   3.571   0.385   3.243
 1938SOL    HW1 5849   3.644   0.454   3.247
 1938SOL    HW2 5850   3.599   0.310   3.184
 1939SOL     OW 5851   2.117   1.348   2.152
 1939SOL    HW1 5852   2.021   1.349   2.125
 1939SOL    HW2 5853   2.129   1.401   2.236
 1940SOL     OW 5854   1.967   1.013   3.588
 1940SOL    HW1 5855   1.890   0.980   3.642
 1940SOL    HW2 5856   2.052   0.983   3.630
 1941SOL     OW 5857   2.534   0.203   3.351
 1941SOL    HW1 5858   2.624   0.187   3.311
 1941SOL    HW2 5859   2.542   0.208   3.450
 1942SOL     OW 5860   1.937   0.345   1.895
 1942SOL    HW1 5861   1.845   0.317   1.866
 1942SOL    HW2 5862   1.968   0.422   1.839
 1943SOL     OW 5863   3.302   0.856   3.260
 1943SOL    HW1 5864   3.245   0.908   3.197
 1943SOL    HW2 5865   3.398   0.868   3.236
 1944SOL     OW 5866   1.934   0.166   2.180
 1944SOL    HW1 5867   1.917   0.249   2.126
 1944SOL    HW2 5868   2.024   0.129   2.158
 1945SOL     OW 5869   3.045   1.335   1.981
 1945SOL    HW1 5870   2.946   1.324   1.983
 1945SOL    HW2 5871   3.079   1.350   2.074
 1946SOL     OW 5872   2.475   0.842   3.293
 1946SOL    HW1 5873   2.531   0.923   3.276
 1946SOL    HW2 5874   2.534   0.762   3.296
 1947SOL     OW 5875   3.355   1.767   2.821
 1947SOL    HW1 5876   3.388   1.831   2.752
 1947SOL    HW2 5877   3.421   1.761   2.896
 1948SOL     OW 5878   2.578   0.565   3.570
 1948SOL    HW1 5879   2.597   0.630   3.644
 1948SOL    HW2 5880   2.638   0.485   3.579
 1949SOL     OW 5881   3.312   1.220   3.495
 1949SOL    HW1 5882   3.303   1.210   3.594
 1949SOL    HW2 5883   3.408   1.213   3.469
 1950SOL     OW 5884   2.252   1.741   3.422
 1950SOL    HW1 5885   2.161   1.782   3.420
 1950SOL    HW2 5886   2.245   1.647   3.454
 1951SOL     OW 5887   3.536   0.883   3.116
 1951SOL    HW1 5888   3.509   0.794   3.079
 1951SOL    HW2 5889   3.537   0.951   3.043
 1952SOL     OW 5890   3.087   0.325   2.311
 1952SOL    HW1 5891   3.152   0.251   2.300
 1952SOL    HW2 5892   3.107   0.375   2.395
 1953SOL     OW 5893   2.456   0.745   2.514
 1953SOL    HW1 5894   2.506   0.830   2.495
 1953SOL    HW2 5895   2.368   0.747   2.466
 1954SOL     OW 5896   3.639   0.342   3.504
 1954SOL    HW1 5897   3.622   0.373   3.410
 1954SOL    HW2 5898   3.555   0.305   3.542
 1955SOL     OW 5899   3.592   0.934   3.379
 1955SOL    HW1 5900   3.630   1.025   3.394
 1955SOL    HW2 5901   3.584   0.917   3.280
 1956SOL     OW 5902   2.721   1.374   1.878
 1956SOL    HW1 5903   2.675   1.389   1.966
 1956SOL    HW2 5904   2.765   1.459   1.848
 1957SOL     OW 5905   2.523   1.790   2.815
 1957SOL    HW1 5906   2.477   1.878   2.802
 1957SOL    HW2 5907   2.622   1.802   2.808
 1958SOL     OW 5908   2.721   0.956   2.723
 1958SOL    HW1 5909   2.775   0.887   2.771
 1958SOL    HW2 5910   2.689   1.025   2.789
 1959SOL     OW 5911   2.945   0.984   1.949
 1959SOL    HW1 5912   2.922   1.037   1.867
 1959SOL    HW2 5913   3.026   0.928   1.930
 1960SOL     OW 5914   3.723   1.569   2.713
 1960SOL    HW1 5915   3.652   1.557   2.643
 1960SOL    HW2 5916   3.724   1.490   2.773
 1961SOL     OW 5917   2.083   1.314   3.706
 1961SOL    HW1 5918   2.018   1.241   3.685
 1961SOL    HW2 5919   2.087   1.328   3.804
 1962SOL     OW 5920   1.941   1.240   2.515
 1962SOL    HW1 5921   1.940   1.193   2.603
 1962SOL    HW2 5922   2.023   1.212   2.464
 1963SOL     OW 5923   2.534   1.391   3.486
 1963SOL    HW1 5924   2.456   1.341   3.524
 1963SOL    HW2 5925   2.531   1.486   3.517
 1964SOL     OW 5926   3.686   0.192   3.089
 1964SOL    HW1 5927   3.682   0.102   3.133
 1964SOL    HW2 5928   3.689   0.181   2.990
 1965SOL     OW 5929   2.290   0.424   2.382
 1965SOL    HW1 5930   2.320   0.352   2.320
 1965SOL    HW2 5931   2.251   0.384   2.465
 1966SOL     OW 5932   3.567   1.487   2.966
 1966SOL    HW1 5933   3.474   1.462   2.939
 1966SOL    HW2 5934   3.593   1.437   3.048
 1967SOL     OW 5935   2.179   0.547   3.142
 1967SOL    HW1 5936   2.217   0.488   3.214
 1967SOL    HW2 5937   2.219   0.521   3.054
 1968SOL     OW 5938   2.674   1.586   2.549
 1968SOL    HW1 5939   2.706   1.596   2.455
 1968SOL    HW2 5940   2.595   1.524   2.551
 1969SOL     OW 5941   3.286   0.214   2.974
 1969SOL    HW1 5942   3.338   0.149   3.029
 1969SOL    HW2 5943   3.237   0.277   3.035
 1970SOL     OW 5944   2.863   0.034   3.016
 1970SOL    HW1 5945   2.800  -0.038   2.985
 1970SOL    HW2 5946   2.956  -0.002   3.016
 1971SOL     OW 5947   2.632   1.330   2.163
 1971SOL    HW1 5948   2.586   1.243   2.180
 1971SOL    HW2 5949   2.723   1.327   2.204
 1972SOL     OW 5950   2.480   1.567   3.146
 1972SOL    HW1 5951   2.475   1.649   3.203
 1972SOL    HW2 5952   2.569   1.564   3.101
 1973SOL     OW 5953   3.214   0.052   2.030
 1973SOL    HW1 5954   3.249   0.011   1.946
 1973SOL    HW2 5955   3.124   0.014   2.050
 1974SOL     OW 5956   3.162   0.453   2.553
 1974SOL    HW1 5957   3.103   0.533   2.557
 1974SOL    HW2 5958   3.177   0.418   2.646
 1975SOL     OW 5959   3.455   0.221   2.744
 1975SOL    HW1 5960   3.371   0.220   2.798
 1975SOL    HW2 5961   3.457   0.304   2.688
 1976SOL     OW 5962   1.901   1.077   2.162
 1976SOL    HW1 5963   2.000   1.066   2.153
 1976SOL    HW2 5964   1.861   0.991   2.194
 1977SOL     OW 5965   2.737   1.646   2.199
 1977SOL    HW1 5966   2.660   1.611   2.145
 1977SOL    HW2 5967   2.705   1.717   2.261
 1978SOL     OW 5968   2.092   0.628   3.837
 1978SOL    HW1 5969   1.999   0.626   3.874
 1978SOL    HW2 5970   2.093   0.589   3.745
 1979SOL     OW 5971   2.087   0.275   4.720
 1979SOL    HW1 5972   2.122   0.258   4.812
 1979SOL    HW2 5973   1.999   0.230   4.708
 1980SOL     OW 5974   1.881   0.368   4.371
 1980SOL    HW1 5975   1.799   0.411   4.410
 1980SOL    HW2 5976   1.853   0.295   4.308
 1981SOL     OW 5977   2.431   1.275   4.889
 1981SOL    HW1 5978   2.338   1.268   4.852
 1981SOL    HW2 5979   2.442   1.364   4.933
 1982SOL     OW 5980   3.417   1.511   4.427
 1982SOL    HW1 5981   3.360   1.495   4.508
 1982SOL    HW2 5982   3.358   1.521   4.347
 1983SOL     OW 5983   2.997   0.703   4.441
 1983SOL    HW1 5984   3.054   0.781   4.416
 1983SOL    HW2 5985   2.937   0.729   4.517
 1984SOL     OW 5986   3.617   0.607   3.955
 1984SOL    HW1 5987   3.605   0.594   3.856
 1984SOL    HW2 5988   3.587   0.526   4.004
 1985SOL     OW 5989   2.630   1.144   4.747
 1985SOL    HW1 5990   2.552   1.161   4.807
 1985SOL    HW2 5991   2.664   1.231   4.711
 1986SOL     OW 5992   2.547   1.012   4.389
 1986SOL    HW1 5993   2.616   0.996   4.459
 1986SOL    HW2 5994   2.474   1.069   4.427
 1987SOL     OW 5995   2.197   1.435   4.785
 1987SOL    HW1 5996   2.119   1.404   4.732
 1987SOL    HW2 5997   2.255   1.493   4.728
 1988SOL     OW 5998   3.465   0.447   4.461
 1988SOL    HW1 5999   3.391   0.493   4.411
 1988SOL    HW2 6000   3.516   0.515   4.514
 1989SOL     OW 6001   2.093   1.713   4.207
 1989SOL    HW1 6002   2.127   1.790   4.261
 1989SOL    HW2 6003   2.137   1.713   4.117
 1990SOL     OW 6004   2.092   1.434   4.262
 1990SOL    HW1 6005   2.066   1.530   4.262
 1990SOL    HW2 6006   2.021   1.380   4.307
 1991SOL     OW 6007   2.102   1.091   4.610
 1991SOL    HW1 6008   2.116   1.007   4.662
 1991SOL    HW2 6009   2.047   1.155   4.665
 1992SOL     OW 6010   2.468   0.964   3.847
 1992SOL    HW1 6011   2.475   1.048   3.793
 1992SOL    HW2 6012   2.514   0.977   3.935
 1993SOL     OW 6013   1.984   0.643   4.287
 1993SOL    HW1 6014   1.939   0.555   4.304
 1993SOL    HW2 6015   1.983   0.697   4.371
 1994SOL     OW 6016   3.704   1.767   4.083
 1994SOL    HW1 6017   3.758   1.738   4.163
 1994SOL    HW2 6018   3.734   1.857   4.054
 1995SOL     OW 6019   1.889   1.596   3.841
 1995SOL    HW1 6020   1.870   1.500   3.862
 1995SOL    HW2 6021   1.856   1.654   3.916
 1996SOL     OW 6022   3.551   0.922   4.336
 1996SOL    HW1 6023   3.646   0.893   4.344
 1996SOL    HW2 6024   3.543   0.987   4.261
 1997SOL     OW 6025   3.503   1.108   4.156
 1997SOL    HW1 6026   3.589   1.110   4.104
 1997SOL    HW2 6027   3.517   1.155   4.244
 1998SOL     OW 6028   1.975   0.737   5.321
 1998SOL    HW1 6029   2.063   0.724   5.366
 1998SOL    HW2 6030   1.962   0.834   5.299
 1999SOL     OW 6031   2.475   1.365   4.450
 1999SOL    HW1 6032   2.426   1.278   4.459
 1999SOL    HW2 6033   2.452   1.408   4.363
 2000SOL     OW 6034   2.671   0.004   4.226
 2000SOL    HW1 6035   2.711   0.095   4.217
 2000SOL    HW2 6036   2.571   0.012   4.232
 2001SOL     OW 6037   2.059   0.976   4.988
 2001SOL    HW1 6038   2.148   0.931   4.974
 2001SOL    HW2 6039   1.986   0.911   4.969
 2002SOL     OW 6040   3.387   0.999   3.914
 2002SOL    HW1 6041   3.324   0.923   3.927
 2002SOL    HW2 6042   3.435   1.017   4.000
 2003SOL     OW 6043   3.328   1.417   4.677
 2003SOL    HW1 6044   3.269   1.423   4.757
 2003SOL    HW2 6045   3.313   1.329   4.631
 2004SOL     OW 6046   3.529   1.714   4.296
 2004SOL    HW1 6047   3.488   1.691   4.208
 2004SOL    HW2 6048   3.511   1.640   4.361
 2005SOL     OW 6049   2.460   0.729   3.994
 2005SOL    HW1 6050   2.484   0.798   3.926
 2005SOL    HW2 6051   2.382   0.762   4.048
 2006SOL     OW 6052   3.143   0.345   4.668
 2006SOL    HW1 6053   3.057   0.295   4.655
 2006SOL    HW2 6054   3.205   0.291   4.724
 2007SOL     OW 6055   3.438   1.662   4.031
 2007SOL    HW1 6056   3.527   1.708   4.034
 2007SOL    HW2 6057   3.417   1.638   3.936
 2008SOL     OW 6058   2.853   0.410   4.966
 2008SOL    HW1 6059   2.776   0.444   5.020
 2008SOL    HW2 6060   2.819   0.359   4.887
 2009SOL     OW 6061   2.903   0.701   4.153
 2009SOL    HW1 6062   2.929   0.697   4.249
 2009SOL    HW2 6063   2.818   0.650   4.139
 2010SOL     OW 6064   1.938   0.811   4.513
 2010SOL    HW1 6065   2.037   0.799   4.522
 2010SOL    HW2 6066   1.914   0.906   4.534
 2011SOL     OW 6067   2.727   0.348   3.919
 2011SOL    HW1 6068   2.786   0.411   3.870
 2011SOL    HW2 6069   2.746   0.254   3.890
 2012SOL     OW 6070   3.224   1.144   4.269
 2012SOL    HW1 6071   3.307   1.115   4.221
 2012SOL    HW2 6072   3.175   1.211   4.213
 2013SOL     OW 6073   2.412   0.196   4.609
 2013SOL    HW1 6074   2.407   0.191   4.709
 2013SOL    HW2 6075   2.414   0.292   4.580
 2014SOL     OW 6076   2.870   1.456   4.201
 2014SOL    HW1 6077   2.824   1.528   4.149
 2014SOL    HW2 6078   2.866   1.476   4.299
 2015SOL     OW 6079   2.213   1.801   4.577
 2015SOL    HW1 6080   2.263   1.715   4.583
 2015SOL    HW2 6081   2.278   1.878   4.574
 2016SOL     OW 6082   3.657   1.066   4.597
 2016SOL    HW1 6083   3.595   1.051   4.521
 2016SOL    HW2 6084   3.605   1.077   4.682
 2017SOL     OW 6085   2.183   0.943   3.966
 2017SOL    HW1 6086   2.265   0.982   3.924
 2017SOL    HW2 6087   2.156   0.861   3.917
 2018SOL     OW 6088   3.320   0.735   4.452
 2018SOL    HW1 6089   3.315   0.670   4.527
 2018SOL    HW2 6090   3.400   0.794   4.465
 2019SOL     OW 6091   2.973   1.776   3.961
 2019SOL    HW1 6092   2.913   1.714   4.011
 2019SOL    HW2 6093   3.004   1.732   3.876
 2020SOL     OW 6094   3.494   1.377   3.805
 2020SOL    HW1 6095   3.462   1.471   3.795
 2020SOL    HW2 6096   3.418   1.314   3.793
 2021SOL     OW 6097   2.326   1.743   4.047
 2021SOL    HW1 6098   2.359   1.782   4.133
 2021SOL    HW2 6099   2.402   1.736   3.982
 2022SOL     OW 6100   3.262   0.107   4.150
 2022SOL    HW1 6101   3.238   0.070   4.060
 2022SOL    HW2 6102   3.361   0.123   4.154
 2023SOL     OW 6103   2.111   1.785   4.965
 2023SOL    HW1 6104   2.168   1.720   5.015
 2023SOL    HW2 6105   2.095   1.752   4.872
 2024SOL     OW 6106   2.802   1.698   4.628
 2024SOL    HW1 6107   2.882   1.641   4.649
 2024SOL    HW2 6108   2.753   1.658   4.551
 2025SOL     OW 6109   2.244   0.700   4.204
 2025SOL    HW1 6110   2.289   0.610   4.201
 2025SOL    HW2 6111   2.150   0.689   4.237
 2026SOL     OW 6112   2.476   0.122   3.841
 2026SOL    HW1 6113   2.574   0.100   3.848
 2026SOL    HW2 6114   2.445   0.105   3.748
 2027SOL     OW 6115   2.665   1.402   4.648
 2027SOL    HW1 6116   2.755   1.416   4.606
 2027SOL    HW2 6117   2.594   1.404   4.577
 2028SOL     OW 6118   2.784   0.503   4.623
 2028SOL    HW1 6119   2.759   0.494   4.527
 2028SOL    HW2 6120   2.832   0.421   4.654
 2029SOL     OW 6121   2.401   0.064   4.236
 2029SOL    HW1 6122   2.320   0.065   4.294
 2029SOL    HW2 6123   2.404   0.147   4.181
 2030SOL     OW 6124   3.296   1.188   3.765
 2030SOL    HW1 6125   3.328   1.112   3.822
 2030SOL    HW2 6126   3.204   1.215   3.795
 2031SOL     OW 6127   2.159   0.035   3.895
 2031SOL    HW1 6128   2.208   0.119   3.874
 2031SOL    HW2 6129   2.221  -0.030   3.940
 2032SOL     OW 6130   2.797   0.236   4.204
 2032SOL    HW1 6131   2.749   0.277   4.126
 2032SOL    HW2 6132   2.896   0.234   4.185
 2033SOL     OW 6133   3.089   1.570   4.517
 2033SOL    HW1 6134   3.110   1.644   4.452
 2033SOL    HW2 6135   3.157   1.570   4.590
 2034SOL     OW 6136   2.321   1.152   4.465
 2034SOL    HW1 6137   2.250   1.125   4.530
 2034SOL    HW2 6138   2.295   1.124   4.372
 2035SOL     OW 6139   3.133   1.797   4.315
 2035SOL    HW1 6140   3.177   1.861   4.251
 2035SOL    HW2 6141   3.083   1.849   4.385
 2036SOL     OW 6142   2.894   0.549   3.740
 2036SOL    HW1 6143   2.853   0.631   3.701
 2036SOL    HW2 6144   2.958   0.575   3.813
 2037SOL     OW 6145   2.423   0.222   4.871
 2037SOL    HW1 6146   2.461   0.138   4.908
 2037SOL    HW2 6147   2.335   0.241   4.915
 2038SOL     OW 6148   2.728   0.454   4.366
 2038SOL    HW1 6149   2.696   0.526   4.304
 2038SOL    HW2 6150   2.752   0.373   4.313
 2039SOL     OW 6151   2.879   0.039   4.477
 2039SOL    HW1 6152   2.807   0.044   4.408
 2039SOL    HW2 6153   2.855  -0.030   4.546
 2040SOL     OW 6154   3.291   1.173   4.591
 2040SOL    HW1 6155   3.236   1.089   4.584
 2040SOL    HW2 6156   3.317   1.202   4.499
 2041SOL     OW 6157   3.328   0.590   4.716
 2041SOL    HW1 6158   3.298   0.495   4.723
 2041SOL    HW2 6159   3.401   0.606   4.782
 2042SOL     OW 6160   3.719   0.833   4.101
 2042SOL    HW1 6161   3.761   0.769   4.165
 2042SOL    HW2 6162   3.681   0.782   4.023
 2043SOL     OW 6163   2.350   1.385   3.898
 2043SOL    HW1 6164   2.263   1.370   3.945
 2043SOL    HW2 6165   2.333   1.411   3.803
 2044SOL     OW 6166   3.526   1.280   4.381
 2044SOL    HW1 6167   3.625   1.288   4.395
 2044SOL    HW2 6168   3.481   1.364   4.412
 2045SOL     OW 6169   3.252   0.575   3.802
 2045SOL    HW1 6170   3.198   0.554   3.883
 2045SOL    HW2 6171   3.343   0.534   3.811
 2046SOL     OW 6172   2.389   0.256   4.052
 2046SOL    HW1 6173   2.416   0.197   3.977
 2046SOL    HW2 6174   2.389   0.351   4.021
 2047SOL     OW 6175   2.973   1.195   4.824
 2047SOL    HW1 6176   2.933   1.239   4.905
 2047SOL    HW2 6177   2.932   1.232   4.741
 2048SOL     OW 6178   3.500   1.099   4.803
 2048SOL    HW1 6179   3.505   1.180   4.862
 2048SOL    HW2 6180   3.414   1.101   4.752
 2049SOL     OW 6181   2.567   1.050   4.092
 2049SOL    HW1 6182   2.553   1.057   4.191
 2049SOL    HW2 6183   2.651   0.999   4.074
 2050SOL     OW 6184   2.272   0.813   4.975
 2050SOL    HW1 6185   2.358   0.825   5.025
 2050SOL    HW2 6186   2.230   0.726   5.002
 2051SOL     OW 6187   3.136   0.386   4.986
 2051SOL    HW1 6188   3.157   0.460   5.050
 2051SOL    HW2 6189   3.047   0.403   4.943
 2052SOL     OW 6190   2.229   1.100   4.225
 2052SOL    HW1 6191   2.222   1.183   4.169
 2052SOL    HW2 6192   2.233   1.020   4.165
 2053SOL     OW 6193   2.428   0.537   4.589
 2053SOL    HW1 6194   2.440   0.603   4.515
 2053SOL    HW2 6195   2.474   0.571   4.672
 2054SOL     OW 6196   3.114   1.348   4.112
 2054SOL    HW1 6197   3.164   1.425   4.152
 2054SOL    HW2 6198   3.019   1.350   4.144
 2055SOL     OW 6199   3.134   1.445   4.866
 2055SOL    HW1 6200   3.181   1.458   4.953
 2055SOL    HW2 6201   3.068   1.371   4.875
 2056SOL     OW 6202   3.444   0.639   4.196
 2056SOL    HW1 6203   3.413   0.700   4.269
 2056SOL    HW2 6204   3.494   0.691   4.127
 2057SOL     OW 6205   2.216   1.510   5.053
 2057SOL    HW1 6206   2.195   1.466   4.966
 2057SOL    HW2 6207   2.313   1.536   5.056
 2058SOL     OW 6208   2.435   0.870   4.753
 2058SOL    HW1 6209   2.479   0.959   4.744
 2058SOL    HW2 6210   2.372   0.870   4.830
 2059SOL     OW 6211   3.222   0.862   4.769
 2059SOL    HW1 6212   3.147   0.862   4.703
 2059SOL    HW2 6213   3.259   0.770   4.778
 2060SOL     OW 6214   3.071   0.525   3.999
 2060SOL    HW1 6215   3.084   0.441   4.053
 2060SOL    HW2 6216   3.042   0.599   4.059
 2061SOL     OW 6217   2.169   0.213   4.955
 2061SOL    HW1 6218   2.146   0.250   5.045
 2061SOL    HW2 6219   2.139   0.118   4.949
 2062SOL     OW 6220   1.899   1.310   5.006
 2062SOL    HW1 6221   1.952   1.261   5.074
 2062SOL    HW2 6222   1.921   1.408   5.011
 2063SOL     OW 6223   2.594   0.634   4.788
 2063SOL    HW1 6224   2.653   0.608   4.712
 2063SOL    HW2 6225   2.566   0.730   4.777
 2064SOL     OW 6226   2.169   0.063   4.342
 2064SOL    HW1 6227   2.158   0.157   4.375
 2064SOL    HW2 6228   2.164   0.000   4.419
 2065SOL     OW 6229   3.484   0.367   4.098
 2065SOL    HW1 6230   3.486   0.291   4.162
 2065SOL    HW2 6231   3.436   0.444   4.138
 2066SOL     OW 6232   2.885   0.766   4.690
 2066SOL    HW1 6233   2.900   0.787   4.786
 2066SOL    HW2 6234   2.855   0.671   4.681
 2067SOL     OW 6235   3.402   0.274   3.849
 2067SOL    HW1 6236   3.341   0.199   3.872
 2067SOL    HW2 6237   3.424   0.326   3.932
 2068SOL     OW 6238   3.165   0.838   3.766
 2068SOL    HW1 6239   3.199   0.745   3.781
 2068SOL    HW2 6240   3.183   0.865   3.671
 2069SOL     OW 6241   2.930   1.333   4.573
 2069SOL    HW1 6242   2.937   1.249   4.518
 2069SOL    HW2 6243   2.992   1.402   4.537
 2070SOL     OW 6244   2.181   0.810   4.673
 2070SOL    HW1 6245   2.274   0.846   4.678
 2070SOL    HW2 6246   2.175   0.725   4.725
 2071SOL     OW 6247   2.201   0.509   4.730
 2071SOL    HW1 6248   2.149   0.426   4.713
 2071SOL    HW2 6249   2.278   0.514   4.666
 2072SOL     OW 6250   3.022   0.207   5.201
 2072SOL    HW1 6251   3.022   0.271   5.278
 2072SOL    HW2 6252   3.050   0.255   5.118
 2073SOL     OW 6253   1.870   1.326   3.924
 2073SOL    HW1 6254   1.777   1.347   3.893
 2073SOL    HW2 6255   1.880   1.227   3.937
 2074SOL     OW 6256   1.950   1.801   4.651
 2074SOL    HW1 6257   1.908   1.715   4.624
 2074SOL    HW2 6258   2.044   1.804   4.617
 2075SOL     OW 6259   2.366   1.568   4.634
 2075SOL    HW1 6260   2.432   1.642   4.643
 2075SOL    HW2 6261   2.410   1.489   4.592
 2076SOL     OW 6262   2.864   0.796   4.962
 2076SOL    HW1 6263   2.905   0.764   5.048
 2076SOL    HW2 6264   2.768   0.769   4.959
 2077SOL     OW 6265   1.902   0.544   4.838
 2077SOL    HW1 6266   1.987   0.511   4.797
 2077SOL    HW2 6267   1.915   0.559   4.936
 2078SOL     OW 6268   2.677   0.572   4.049
 2078SOL    HW1 6269   2.684   0.483   4.003
 2078SOL    HW2 6270   2.583   0.606   4.041
 2079SOL     OW 6271   3.519   0.604   4.930
 2079SOL    HW1 6272   3.481   0.535   4.992
 2079SOL    HW2 6273   3.601   0.568   4.886
 2080SOL     OW 6274   2.533   0.464   4.993
 2080SOL    HW1 6275   2.499   0.375   4.963
 2080SOL    HW2 6276   2.559   0.518   4.913
 2081SOL     OW 6277   2.792   1.678   5.189
 2081SOL    HW1 6278   2.768   1.660   5.094
 2081SOL    HW2 6279   2.822   1.772   5.199
 2082SOL     OW 6280   2.335   0.500   3.915
 2082SOL    HW1 6281   2.396   0.580   3.919
 2082SOL    HW2 6282   2.240   0.531   3.922
 2083SOL     OW 6283   3.209   1.059   4.958
 2083SOL    HW1 6284   3.233   0.996   4.884
 2083SOL    HW2 6285   3.119   1.099   4.940
 2084SOL     OW 6286   3.164   0.855   4.033
 2084SOL    HW1 6287   3.078   0.824   4.075
 2084SOL    HW2 6288   3.160   0.841   3.934
 2085SOL     OW 6289   3.621   1.747   4.878
 2085SOL    HW1 6290   3.682   1.777   4.805
 2085SOL    HW2 6291   3.583   1.658   4.856
 2086SOL     OW 6292   3.114   1.731   4.852
 2086SOL    HW1 6293   3.198   1.736   4.798
 2086SOL    HW2 6294   3.091   1.635   4.870
 2087SOL     OW 6295   1.945   1.258   4.746
 2087SOL    HW1 6296   1.940   1.257   4.846
 2087SOL    HW2 6297   1.862   1.217   4.708
 2088SOL     OW 6298   3.588   0.135   4.247
 2088SOL    HW1 6299   3.661   0.118   4.180
 2088SOL    HW2 6300   3.557   0.048   4.285
 2089SOL     OW 6301   3.250   1.573   4.201
 2089SOL    HW1 6302   3.317   1.585   4.127
 2089SOL    HW2 6303   3.210   1.662   4.224
 2090SOL     OW 6304   3.142   0.927   4.396
 2090SOL    HW1 6305   3.202   0.846   4.398
 2090SOL    HW2 6306   3.182   0.996   4.336
 2091SOL     OW 6307   2.534   1.616   3.878
 2091SOL    HW1 6308   2.543   1.626   3.779
 2091SOL    HW2 6309   2.494   1.527   3.899
 2092SOL     OW 6310   3.512   1.720   5.118
 2092SOL    HW1 6311   3.565   1.730   5.034
 2092SOL    HW2 6312   3.485   1.810   5.152
 2093SOL     OW 6313   3.703   0.175   4.687
 2093SOL    HW1 6314   3.742   0.090   4.651
 2093SOL    HW2 6315   3.605   0.177   4.668
 2094SOL     OW 6316   2.125   0.326   4.444
 2094SOL    HW1 6317   2.046   0.377   4.410
 2094SOL    HW2 6318   2.116   0.311   4.542
 2095SOL     OW 6319   3.056   1.612   3.755
 2095SOL    HW1 6320   3.062   1.519   3.792
 2095SOL    HW2 6321   2.997   1.612   3.675
 2096SOL     OW 6322   2.684   1.002   5.096
 2096SOL    HW1 6323   2.724   1.001   5.004
 2096SOL    HW2 6324   2.694   1.094   5.136
 2097SOL     OW 6325   2.778   0.910   4.015
 2097SOL    HW1 6326   2.841   0.948   3.947
 2097SOL    HW2 6327   2.818   0.827   4.054
 2098SOL     OW 6328   3.366   1.607   3.768
 2098SOL    HW1 6329   3.274   1.644   3.775
 2098SOL    HW2 6330   3.404   1.627   3.678
 2099SOL     OW 6331   2.901   1.098   4.420
 2099SOL    HW1 6332   2.831   1.051   4.474
 2099SOL    HW2 6333   2.960   1.030   4.377
 2100SOL     OW 6334   2.876   0.236   4.695
 2100SOL    HW1 6335   2.868   0.200   4.602
 2100SOL    HW2 6336   2.874   0.160   4.760
 2101SOL     OW 6337   2.452   1.487   4.215
 2101SOL    HW1 6338   2.494   1.429   4.145
 2101SOL    HW2 6339   2.408   1.566   4.171
 2102SOL     OW 6340   3.571   0.385   5.105
 2102SOL    HW1 6341   3.644   0.454   5.109
 2102SOL    HW2 6342   3.599   0.310   5.046
 2103SOL     OW 6343   2.117   1.348   4.014
 2103SOL    HW1 6344   2.021   1.349   3.987
 2103SOL    HW2 6345   2.129   1.401   4.098
 2104SOL     OW 6346   1.937   0.345   3.757
 2104SOL    HW1 6347   1.845   0.317   3.728
 2104SOL    HW2 6348   1.968   0.422   3.701
 2105SOL     OW 6349   1.934   0.166   4.042
 2105SOL    HW1 6350   1.917   0.249   3.988
 2105SOL    HW2 6351   2.024   0.129   4.020
 2106SOL     OW 6352   3.045   1.335   3.843
 2106SOL    HW1 6353   2.946   1.324   3.845
 2106SOL    HW2 6354   3.079   1.350   3.936
 2107SOL     OW 6355   3.355   1.767   4.683
 2107SOL    HW1 6356   3.388   1.831   4.614
 2107SOL    HW2 6357   3.421   1.761   4.758
 2108SOL     OW 6358   3.536   0.883   4.978
 2108SOL    HW1 6359   3.509   0.794   4.941
 2108SOL    HW2 6360   3.537   0.951   4.905
 2109SOL     OW 6361   3.087   0.325   4.173
 2109SOL    HW1 6362   3.152   0.251   4.162
 2109SOL    HW2 6363   3.107   0.375   4.257
 2110SOL     OW 6364   2.456   0.745   4.376
 2110SOL    HW1 6365   2.506   0.830   4.357
 2110SOL    HW2 6366   2.368   0.747   4.328
 2111SOL     OW 6367   3.592   0.934   5.241
 2111SOL    HW1 6368   3.630   1.025   5.256
 2111SOL    HW2 6369   3.584   0.917   5.142
 2112SOL     OW 6370   2.721   1.374   3.740
 2112SOL    HW1 6371   2.675   1.389   3.828
 2112SOL    HW2 6372   2.765   1.459   3.710
 2113SOL     OW 6373   2.523   1.790   4.677
 2113SOL    HW1 6374   2.477   1.878   4.664
 2113SOL    HW2 6375   2.622   1.802   4.670
 2114SOL     OW 6376   2.721   0.956   4.585
 2114SOL    HW1 6377   2.775   0.887   4.633
 2114SOL    HW2 6378   2.689   1.025   4.651
 2115SOL     OW 6379   2.945   0.984   3.811
 2115SOL    HW1 6380   2.922   1.037   3.729
 2115SOL    HW2 6381   3.026   0.928   3.792
 2116SOL     OW 6382   3.723   1.569   4.575
 2116SOL    HW1 6383   3.652   1.557   4.505
 2116SOL    HW2 6384   3.724   1.490   4.635
 2117SOL     OW 6385   1.941   1.240   4.377
 2117SOL    HW1 6386   1.940   1.193   4.465
 2117SOL    HW2 6387   2.023   1.212   4.326
 2118SOL     OW 6388   3.686   0.192   4.951
 2118SOL    HW1 6389   3.682   0.102   4.995
 2118SOL    HW2 6390   3.689   0.181   4.852
 2119SOL     OW 6391   2.290   0.424   4.244
 2119SOL    HW1 6392   2.320   0.352   4.182
 2119SOL    HW2 6393   2.251   0.384   4.327
 2120SOL     OW 6394   3.567   1.487   4.828
 2120SOL    HW1 6395   3.474   1.462   4.801
 2120SOL    HW2 6396   3.593   1.437   4.910
 2121SOL     OW 6397   2.674   1.586   4.411
 2121SOL    HW1 6398   2.706   1.596   4.317
 2121SOL    HW2 6399   2.595   1.524   4.413
 2122SOL     OW 6400   3.286   0.214   4.836
 2122SOL    HW1 6401   3.338   0.149   4.891
 2122SOL    HW2 6402   3.237   0.277   4.897
 2123SOL     OW 6403   2.863   0.034   4.878
 2123SOL    HW1 6404   2.800  -0.038   4.847
 2123SOL    HW2 6405   2.956  -0.002   4.878
 2124SOL     OW 6406   2.632   1.330   4.025
 2124SOL    HW1 6407   2.586   1.243   4.042
 2124SOL    HW2 6408   2.723   1.327   4.066
 2125SOL     OW 6409   3.214   0.052   3.892
 2125SOL    HW1 6410   3.249   0.011   3.808
 2125SOL    HW2 6411   3.124   0.014   3.912
 2126SOL     OW 6412   3.162   0.453   4.415
 2126SOL    HW1 6413   3.103   0.533   4.419
 2126SOL    HW2 6414   3.177   0.418   4.508
 2127SOL     OW 6415   3.455   0.221   4.606
 2127SOL    HW1 6416   3.371   0.220   4.660
 2127SOL    HW2 6417   3.457   0.304   4.550
 2128SOL     OW 6418   1.901   1.077   4.024
 2128SOL    HW1 6419   2.000   1.066   4.015
 2128SOL    HW2 6420   1.861   0.991   4.056
 2129SOL     OW 6421   2.737   1.646   4.061
 2129SOL    HW1 6422   2.660   1.611   4.007
 2129SOL    HW2 6423   2.705   1.717   4.123
 2130SOL     OW 6424   2.092   2.490   0.113
 2130SOL    HW1 6425   1.999   2.488   0.150
 2130SOL    HW2 6426   2.093   2.451   0.021
 2131SOL     OW 6427   2.087   2.137   0.996
 2131SOL    HW1 6428   2.122   2.120   1.088
 2131SOL    HW2 6429   1.999   2.092   0.984
 2132SOL     OW 6430   1.881   2.230   0.647
 2132SOL    HW1 6431   1.799   2.273   0.686
 2132SOL    HW2 6432   1.853   2.157   0.584
 2133SOL     OW 6433   2.431   3.137   1.165
 2133SOL    HW1 6434   2.338   3.130   1.128
 2133SOL    HW2 6435   2.442   3.226   1.209
 2134SOL     OW 6436   3.417   3.373   0.703
 2134SOL    HW1 6437   3.360   3.357   0.784
 2134SOL    HW2 6438   3.358   3.383   0.623
 2135SOL     OW 6439   2.997   2.565   0.717
 2135SOL    HW1 6440   3.054   2.643   0.692
 2135SOL    HW2 6441   2.937   2.591   0.793
 2136SOL     OW 6442   3.617   2.469   0.231
 2136SOL    HW1 6443   3.605   2.456   0.132
 2136SOL    HW2 6444   3.587   2.388   0.280
 2137SOL     OW 6445   2.630   3.006   1.023
 2137SOL    HW1 6446   2.552   3.023   1.083
 2137SOL    HW2 6447   2.664   3.093   0.987
 2138SOL     OW 6448   2.712   2.660   1.823
 2138SOL    HW1 6449   2.708   2.736   1.888
 2138SOL    HW2 6450   2.734   2.696   1.732
 2139SOL     OW 6451   2.547   2.874   0.665
 2139SOL    HW1 6452   2.616   2.858   0.735
 2139SOL    HW2 6453   2.474   2.931   0.703
 2140SOL     OW 6454   2.548   3.023   1.803
 2140SOL    HW1 6455   2.608   3.102   1.817
 2140SOL    HW2 6456   2.462   3.054   1.762
 2141SOL     OW 6457   2.197   3.297   1.061
 2141SOL    HW1 6458   2.119   3.266   1.008
 2141SOL    HW2 6459   2.255   3.355   1.004
 2142SOL     OW 6460   3.322   3.367   1.339
 2142SOL    HW1 6461   3.346   3.461   1.365
 2142SOL    HW2 6462   3.306   3.313   1.421
 2143SOL     OW 6463   2.300   2.254   1.499
 2143SOL    HW1 6464   2.382   2.198   1.508
 2143SOL    HW2 6465   2.219   2.196   1.503
 2144SOL     OW 6466   3.465   2.309   0.737
 2144SOL    HW1 6467   3.391   2.355   0.687
 2144SOL    HW2 6468   3.516   2.377   0.790
 2145SOL     OW 6469   2.093   3.575   0.483
 2145SOL    HW1 6470   2.127   3.652   0.537
 2145SOL    HW2 6471   2.137   3.575   0.393
 2146SOL     OW 6472   2.989   3.203   1.690
 2146SOL    HW1 6473   3.036   3.203   1.778
 2146SOL    HW2 6474   2.941   3.116   1.679
 2147SOL     OW 6475   2.092   3.296   0.538
 2147SOL    HW1 6476   2.066   3.392   0.538
 2147SOL    HW2 6477   2.021   3.242   0.583
 2148SOL     OW 6478   2.102   2.953   0.886
 2148SOL    HW1 6479   2.116   2.869   0.938
 2148SOL    HW2 6480   2.047   3.017   0.941
 2149SOL     OW 6481   2.482   3.648   1.439
 2149SOL    HW1 6482   2.390   3.631   1.474
 2149SOL    HW2 6483   2.510   3.740   1.465
 2150SOL     OW 6484   2.468   2.826   0.123
 2150SOL    HW1 6485   2.475   2.910   0.069
 2150SOL    HW2 6486   2.514   2.839   0.211
 2151SOL     OW 6487   3.456   1.976   1.480
 2151SOL    HW1 6488   3.438   2.043   1.408
 2151SOL    HW2 6489   3.453   2.022   1.569
 2152SOL     OW 6490   1.984   2.505   0.563
 2152SOL    HW1 6491   1.939   2.417   0.580
 2152SOL    HW2 6492   1.983   2.559   0.647
 2153SOL     OW 6493   3.704   3.629   0.359
 2153SOL    HW1 6494   3.758   3.600   0.439
 2153SOL    HW2 6495   3.734   3.719   0.330
 2154SOL     OW 6496   1.889   3.458   0.117
 2154SOL    HW1 6497   1.870   3.362   0.138
 2154SOL    HW2 6498   1.856   3.516   0.192
 2155SOL     OW 6499   3.551   2.784   0.612
 2155SOL    HW1 6500   3.646   2.755   0.620
 2155SOL    HW2 6501   3.543   2.849   0.537
 2156SOL     OW 6502   3.503   2.970   0.432
 2156SOL    HW1 6503   3.589   2.972   0.380
 2156SOL    HW2 6504   3.517   3.017   0.520
 2157SOL     OW 6505   1.975   2.599   1.597
 2157SOL    HW1 6506   2.063   2.586   1.642
 2157SOL    HW2 6507   1.962   2.696   1.575
 2158SOL     OW 6508   2.475   3.227   0.726
 2158SOL    HW1 6509   2.426   3.140   0.735
 2158SOL    HW2 6510   2.452   3.270   0.639
 2159SOL     OW 6511   3.155   3.090   1.423
 2159SOL    HW1 6512   3.192   3.017   1.365
 2159SOL    HW2 6513   3.207   3.095   1.508
 2160SOL     OW 6514   2.671   1.866   0.502
 2160SOL    HW1 6515   2.711   1.957   0.493
 2160SOL    HW2 6516   2.571   1.874   0.508
 2161SOL     OW 6517   2.059   2.838   1.264
 2161SOL    HW1 6518   2.148   2.793   1.250
 2161SOL    HW2 6519   1.986   2.773   1.245
 2162SOL     OW 6520   3.387   2.861   0.190
 2162SOL    HW1 6521   3.324   2.785   0.203
 2162SOL    HW2 6522   3.435   2.879   0.276
 2163SOL     OW 6523   3.049   3.654   1.616
 2163SOL    HW1 6524   3.073   3.714   1.540
 2163SOL    HW2 6525   3.056   3.559   1.586
 2164SOL     OW 6526   2.179   2.113   1.801
 2164SOL    HW1 6527   2.250   2.184   1.807
 2164SOL    HW2 6528   2.091   2.152   1.829
 2165SOL     OW 6529   3.328   3.279   0.953
 2165SOL    HW1 6530   3.269   3.285   1.033
 2165SOL    HW2 6531   3.313   3.191   0.907
 2166SOL     OW 6532   3.529   3.576   0.572
 2166SOL    HW1 6533   3.488   3.553   0.484
 2166SOL    HW2 6534   3.511   3.502   0.637
 2167SOL     OW 6535   2.460   2.591   0.270
 2167SOL    HW1 6536   2.484   2.660   0.202
 2167SOL    HW2 6537   2.382   2.624   0.324
 2168SOL     OW 6538   3.143   2.207   0.944
 2168SOL    HW1 6539   3.057   2.157   0.931
 2168SOL    HW2 6540   3.205   2.153   1.000
 2169SOL     OW 6541   3.438   3.524   0.307
 2169SOL    HW1 6542   3.527   3.570   0.310
 2169SOL    HW2 6543   3.417   3.500   0.212
 2170SOL     OW 6544   2.669   2.467   1.465
 2170SOL    HW1 6545   2.622   2.464   1.554
 2170SOL    HW2 6546   2.618   2.412   1.399
 2171SOL     OW 6547   3.256   2.331   1.674
 2171SOL    HW1 6548   3.236   2.374   1.762
 2171SOL    HW2 6549   3.334   2.269   1.683
 2172SOL     OW 6550   2.835   2.752   1.572
 2172SOL    HW1 6551   2.881   2.668   1.543
 2172SOL    HW2 6552   2.779   2.786   1.497
 2173SOL     OW 6553   2.853   2.272   1.242
 2173SOL    HW1 6554   2.776   2.306   1.296
 2173SOL    HW2 6555   2.819   2.221   1.163
 2174SOL     OW 6556   2.903   2.563   0.429
 2174SOL    HW1 6557   2.929   2.559   0.525
 2174SOL    HW2 6558   2.818   2.512   0.415
 2175SOL     OW 6559   1.938   2.673   0.789
 2175SOL    HW1 6560   2.037   2.661   0.798
 2175SOL    HW2 6561   1.914   2.768   0.810
 2176SOL     OW 6562   1.992   3.683   1.571
 2176SOL    HW1 6563   1.982   3.668   1.670
 2176SOL    HW2 6564   1.906   3.719   1.535
 2177SOL     OW 6565   2.727   2.210   0.195
 2177SOL    HW1 6566   2.786   2.273   0.146
 2177SOL    HW2 6567   2.746   2.116   0.166
 2178SOL     OW 6568   3.581   2.447   1.831
 2178SOL    HW1 6569   3.555   2.536   1.795
 2178SOL    HW2 6570   3.579   2.379   1.758
 2179SOL     OW 6571   3.224   3.006   0.545
 2179SOL    HW1 6572   3.307   2.977   0.497
 2179SOL    HW2 6573   3.175   3.073   0.489
 2180SOL     OW 6574   2.412   2.058   0.885
 2180SOL    HW1 6575   2.407   2.053   0.985
 2180SOL    HW2 6576   2.414   2.154   0.856
 2181SOL     OW 6577   2.870   3.318   0.477
 2181SOL    HW1 6578   2.824   3.390   0.425
 2181SOL    HW2 6579   2.866   3.338   0.575
 2182SOL     OW 6580   2.213   3.663   0.853
 2182SOL    HW1 6581   2.263   3.577   0.859
 2182SOL    HW2 6582   2.278   3.740   0.850
 2183SOL     OW 6583   3.657   2.928   0.873
 2183SOL    HW1 6584   3.595   2.913   0.797
 2183SOL    HW2 6585   3.605   2.939   0.958
 2184SOL     OW 6586   3.089   3.412   1.506
 2184SOL    HW1 6587   3.095   3.335   1.570
 2184SOL    HW2 6588   3.037   3.386   1.426
 2185SOL     OW 6589   2.183   2.805   0.242
 2185SOL    HW1 6590   2.265   2.844   0.200
 2185SOL    HW2 6591   2.156   2.723   0.193
 2186SOL     OW 6592   3.320   2.597   0.728
 2186SOL    HW1 6593   3.315   2.532   0.803
 2186SOL    HW2 6594   3.400   2.656   0.741
 2187SOL     OW 6595   2.323   3.128   1.727
 2187SOL    HW1 6596   2.273   3.129   1.641
 2187SOL    HW2 6597   2.260   3.110   1.803
 2188SOL     OW 6598   2.973   3.638   0.237
 2188SOL    HW1 6599   2.913   3.576   0.287
 2188SOL    HW2 6600   3.004   3.594   0.152
 2189SOL     OW 6601   2.064   2.147   1.498
 2189SOL    HW1 6602   1.984   2.207   1.485
 2189SOL    HW2 6603   2.054   2.098   1.584
 2190SOL     OW 6604   3.494   3.239   0.081
 2190SOL    HW1 6605   3.462   3.333   0.071
 2190SOL    HW2 6606   3.418   3.176   0.069
 2191SOL     OW 6607   2.326   3.605   0.323
 2191SOL    HW1 6608   2.359   3.644   0.409
 2191SOL    HW2 6609   2.402   3.598   0.258
 2192SOL     OW 6610   3.262   1.969   0.426
 2192SOL    HW1 6611   3.238   1.932   0.336
 2192SOL    HW2 6612   3.361   1.985   0.430
 2193SOL     OW 6613   2.111   3.647   1.241
 2193SOL    HW1 6614   2.168   3.582   1.291
 2193SOL    HW2 6615   2.095   3.614   1.148
 2194SOL     OW 6616   2.802   3.560   0.904
 2194SOL    HW1 6617   2.882   3.503   0.925
 2194SOL    HW2 6618   2.753   3.520   0.827
 2195SOL     OW 6619   2.244   2.562   0.480
 2195SOL    HW1 6620   2.289   2.472   0.477
 2195SOL    HW2 6621   2.150   2.551   0.513
 2196SOL     OW 6622   3.409   2.084   1.729
 2196SOL    HW1 6623   3.404   2.121   1.821
 2196SOL    HW2 6624   3.337   2.015   1.717
 2197SOL     OW 6625   2.476   1.984   0.117
 2197SOL    HW1 6626   2.574   1.962   0.124
 2197SOL    HW2 6627   2.445   1.967   0.024
 2198SOL     OW 6628   2.643   2.126   1.749
 2198SOL    HW1 6629   2.710   2.065   1.792
 2198SOL    HW2 6630   2.570   2.145   1.814
 2199SOL     OW 6631   2.750   3.376   1.195
 2199SOL    HW1 6632   2.727   3.351   1.101
 2199SOL    HW2 6633   2.811   3.307   1.234
 2200SOL     OW 6634   3.213   2.452   1.433
 2200SOL    HW1 6635   3.241   2.409   1.518
 2200SOL    HW2 6636   3.238   2.548   1.434
 2201SOL     OW 6637   2.665   3.264   0.924
 2201SOL    HW1 6638   2.755   3.278   0.882
 2201SOL    HW2 6639   2.594   3.266   0.853
 2202SOL     OW 6640   2.784   2.365   0.899
 2202SOL    HW1 6641   2.759   2.356   0.803
 2202SOL    HW2 6642   2.832   2.283   0.930
 2203SOL     OW 6643   2.401   1.926   0.512
 2203SOL    HW1 6644   2.320   1.927   0.570
 2203SOL    HW2 6645   2.404   2.009   0.457
 2204SOL     OW 6646   3.296   3.050   0.041
 2204SOL    HW1 6647   3.328   2.974   0.098
 2204SOL    HW2 6648   3.204   3.077   0.071
 2205SOL     OW 6649   2.159   1.897   0.171
 2205SOL    HW1 6650   2.208   1.981   0.150
 2205SOL    HW2 6651   2.221   1.832   0.216
 2206SOL     OW 6652   2.797   2.098   0.480
 2206SOL    HW1 6653   2.749   2.139   0.402
 2206SOL    HW2 6654   2.896   2.096   0.461
 2207SOL     OW 6655   2.938   2.545   1.464
 2207SOL    HW1 6656   2.858   2.484   1.467
 2207SOL    HW2 6657   3.019   2.492   1.440
 2208SOL     OW 6658   3.089   3.432   0.793
 2208SOL    HW1 6659   3.110   3.506   0.728
 2208SOL    HW2 6660   3.157   3.432   0.866
 2209SOL     OW 6661   2.321   3.014   0.741
 2209SOL    HW1 6662   2.250   2.987   0.806
 2209SOL    HW2 6663   2.295   2.986   0.648
 2210SOL     OW 6664   3.133   3.659   0.591
 2210SOL    HW1 6665   3.177   3.723   0.527
 2210SOL    HW2 6666   3.083   3.711   0.661
 2211SOL     OW 6667   2.894   2.411   0.016
 2211SOL    HW1 6668   2.853   2.493  -0.023
 2211SOL    HW2 6669   2.958   2.437   0.089
 2212SOL     OW 6670   1.940   2.418   1.386
 2212SOL    HW1 6671   2.032   2.417   1.345
 2212SOL    HW2 6672   1.934   2.492   1.453
 2213SOL     OW 6673   2.423   2.084   1.147
 2213SOL    HW1 6674   2.461   2.000   1.184
 2213SOL    HW2 6675   2.335   2.103   1.191
 2214SOL     OW 6676   2.728   2.316   0.642
 2214SOL    HW1 6677   2.696   2.388   0.580
 2214SOL    HW2 6678   2.752   2.235   0.589
 2215SOL     OW 6679   2.879   1.901   0.753
 2215SOL    HW1 6680   2.807   1.906   0.684
 2215SOL    HW2 6681   2.855   1.832   0.822
 2216SOL     OW 6682   3.291   3.035   0.867
 2216SOL    HW1 6683   3.236   2.951   0.860
 2216SOL    HW2 6684   3.317   3.064   0.775
 2217SOL     OW 6685   3.328   2.452   0.992
 2217SOL    HW1 6686   3.298   2.357   0.999
 2217SOL    HW2 6687   3.401   2.468   1.058
 2218SOL     OW 6688   3.719   2.695   0.377
 2218SOL    HW1 6689   3.761   2.631   0.441
 2218SOL    HW2 6690   3.681   2.644   0.299
 2219SOL     OW 6691   2.350   3.247   0.174
 2219SOL    HW1 6692   2.263   3.232   0.221
 2219SOL    HW2 6693   2.333   3.273   0.079
 2220SOL     OW 6694   3.526   3.142   0.657
 2220SOL    HW1 6695   3.625   3.150   0.671
 2220SOL    HW2 6696   3.481   3.226   0.688
 2221SOL     OW 6697   3.252   2.437   0.078
 2221SOL    HW1 6698   3.198   2.416   0.159
 2221SOL    HW2 6699   3.343   2.396   0.087
 2222SOL     OW 6700   2.389   2.118   0.328
 2222SOL    HW1 6701   2.416   2.059   0.253
 2222SOL    HW2 6702   2.389   2.213   0.297
 2223SOL     OW 6703   3.616   3.085   1.588
 2223SOL    HW1 6704   3.707   3.046   1.575
 2223SOL    HW2 6705   3.624   3.181   1.612
 2224SOL     OW 6706   2.926   3.209   1.340
 2224SOL    HW1 6707   2.846   3.186   1.395
 2224SOL    HW2 6708   3.009   3.183   1.389
 2225SOL     OW 6709   3.454   3.491   1.625
 2225SOL    HW1 6710   3.481   3.525   1.535
 2225SOL    HW2 6711   3.533   3.453   1.671
 2226SOL     OW 6712   2.973   3.057   1.100
 2226SOL    HW1 6713   2.933   3.101   1.181
 2226SOL    HW2 6714   2.932   3.094   1.017
 2227SOL     OW 6715   3.500   2.961   1.079
 2227SOL    HW1 6716   3.505   3.042   1.138
 2227SOL    HW2 6717   3.414   2.963   1.028
 2228SOL     OW 6718   2.777   1.951   1.402
 2228SOL    HW1 6719   2.802   1.931   1.307
 2228SOL    HW2 6720   2.849   2.007   1.444
 2229SOL     OW 6721   2.842   2.978   1.719
 2229SOL    HW1 6722   2.743   2.984   1.729
 2229SOL    HW2 6723   2.865   2.898   1.663
 2230SOL     OW 6724   2.567   2.912   0.368
 2230SOL    HW1 6725   2.553   2.919   0.467
 2230SOL    HW2 6726   2.651   2.861   0.350
 2231SOL     OW 6727   2.272   2.675   1.251
 2231SOL    HW1 6728   2.358   2.687   1.301
 2231SOL    HW2 6729   2.230   2.588   1.278
 2232SOL     OW 6730   3.136   2.248   1.262
 2232SOL    HW1 6731   3.157   2.322   1.326
 2232SOL    HW2 6732   3.047   2.265   1.219
 2233SOL     OW 6733   1.926   3.426   1.331
 2233SOL    HW1 6734   1.880   3.508   1.297
 2233SOL    HW2 6735   2.024   3.445   1.340
 2234SOL     OW 6736   2.229   2.962   0.501
 2234SOL    HW1 6737   2.222   3.045   0.445
 2234SOL    HW2 6738   2.233   2.882   0.441
 2235SOL     OW 6739   2.428   2.399   0.865
 2235SOL    HW1 6740   2.440   2.465   0.791
 2235SOL    HW2 6741   2.474   2.433   0.948
 2236SOL     OW 6742   3.114   3.210   0.388
 2236SOL    HW1 6743   3.164   3.287   0.428
 2236SOL    HW2 6744   3.019   3.212   0.420
 2237SOL     OW 6745   3.134   3.307   1.142
 2237SOL    HW1 6746   3.181   3.320   1.229
 2237SOL    HW2 6747   3.068   3.233   1.151
 2238SOL     OW 6748   3.444   2.501   0.472
 2238SOL    HW1 6749   3.413   2.562   0.545
 2238SOL    HW2 6750   3.494   2.553   0.403
 2239SOL     OW 6751   2.216   3.372   1.329
 2239SOL    HW1 6752   2.195   3.328   1.242
 2239SOL    HW2 6753   2.313   3.398   1.332
 2240SOL     OW 6754   2.264   2.613   1.598
 2240SOL    HW1 6755   2.332   2.668   1.551
 2240SOL    HW2 6756   2.304   2.525   1.625
 2241SOL     OW 6757   3.449   2.641   1.670
 2241SOL    HW1 6758   3.357   2.679   1.665
 2241SOL    HW2 6759   3.509   2.688   1.605
 2242SOL     OW 6760   2.875   1.967   1.770
 2242SOL    HW1 6761   2.881   2.052   1.718
 2242SOL    HW2 6762   2.907   1.891   1.713
 2243SOL     OW 6763   2.366   1.912   1.740
 2243SOL    HW1 6764   2.324   1.855   1.670
 2243SOL    HW2 6765   2.300   1.981   1.772
 2244SOL     OW 6766   2.435   2.732   1.029
 2244SOL    HW1 6767   2.479   2.821   1.020
 2244SOL    HW2 6768   2.372   2.732   1.106
 2245SOL     OW 6769   3.222   2.724   1.045
 2245SOL    HW1 6770   3.147   2.724   0.979
 2245SOL    HW2 6771   3.259   2.632   1.054
 2246SOL     OW 6772   3.071   2.387   0.275
 2246SOL    HW1 6773   3.084   2.303   0.329
 2246SOL    HW2 6774   3.042   2.461   0.335
 2247SOL     OW 6775   2.169   2.075   1.231
 2247SOL    HW1 6776   2.146   2.112   1.321
 2247SOL    HW2 6777   2.139   1.980   1.225
 2248SOL     OW 6778   1.899   3.172   1.282
 2248SOL    HW1 6779   1.952   3.123   1.350
 2248SOL    HW2 6780   1.921   3.270   1.287
 2249SOL     OW 6781   2.594   2.496   1.064
 2249SOL    HW1 6782   2.653   2.470   0.988
 2249SOL    HW2 6783   2.566   2.592   1.053
 2250SOL     OW 6784   3.590   2.797   1.854
 2250SOL    HW1 6785   3.544   2.790   1.765
 2250SOL    HW2 6786   3.528   2.841   1.920
 2251SOL     OW 6787   2.169   1.925   0.618
 2251SOL    HW1 6788   2.158   2.019   0.651
 2251SOL    HW2 6789   2.164   1.862   0.695
 2252SOL     OW 6790   3.484   2.229   0.374
 2252SOL    HW1 6791   3.486   2.153   0.438
 2252SOL    HW2 6792   3.436   2.306   0.414
 2253SOL     OW 6793   2.885   2.628   0.966
 2253SOL    HW1 6794   2.900   2.649   1.062
 2253SOL    HW2 6795   2.855   2.533   0.957
 2254SOL     OW 6796   2.842   3.435   1.700
 2254SOL    HW1 6797   2.822   3.479   1.612
 2254SOL    HW2 6798   2.881   3.344   1.684
 2255SOL     OW 6799   3.721   3.380   1.605
 2255SOL    HW1 6800   3.735   3.407   1.510
 2255SOL    HW2 6801   3.804   3.402   1.658
 2256SOL     OW 6802   2.212   2.760   1.804
 2256SOL    HW1 6803   2.288   2.804   1.852
 2256SOL    HW2 6804   2.247   2.713   1.722
 2257SOL     OW 6805   3.402   2.136   0.125
 2257SOL    HW1 6806   3.341   2.061   0.148
 2257SOL    HW2 6807   3.424   2.188   0.208
 2258SOL     OW 6808   3.165   2.700   0.042
 2258SOL    HW1 6809   3.199   2.607   0.057
 2258SOL    HW2 6810   3.183   2.727  -0.053
 2259SOL     OW 6811   2.930   3.195   0.849
 2259SOL    HW1 6812   2.937   3.111   0.794
 2259SOL    HW2 6813   2.992   3.264   0.813
 2260SOL     OW 6814   2.181   2.672   0.949
 2260SOL    HW1 6815   2.274   2.708   0.954
 2260SOL    HW2 6816   2.175   2.587   1.001
 2261SOL     OW 6817   2.201   2.371   1.006
 2261SOL    HW1 6818   2.149   2.288   0.989
 2261SOL    HW2 6819   2.278   2.376   0.942
 2262SOL     OW 6820   3.000   2.242   1.678
 2262SOL    HW1 6821   2.955   2.305   1.742
 2262SOL    HW2 6822   3.093   2.273   1.661
 2263SOL     OW 6823   3.022   2.069   1.477
 2263SOL    HW1 6824   3.022   2.133   1.554
 2263SOL    HW2 6825   3.050   2.117   1.394
 2264SOL     OW 6826   1.950   3.663   0.927
 2264SOL    HW1 6827   1.908   3.577   0.900
 2264SOL    HW2 6828   2.044   3.666   0.893
 2265SOL     OW 6829   2.366   3.430   0.910
 2265SOL    HW1 6830   2.432   3.504   0.919
 2265SOL    HW2 6831   2.410   3.351   0.868
 2266SOL     OW 6832   2.864   2.658   1.238
 2266SOL    HW1 6833   2.905   2.626   1.324
 2266SOL    HW2 6834   2.768   2.631   1.235
 2267SOL     OW 6835   1.902   2.406   1.114
 2267SOL    HW1 6836   1.987   2.373   1.073
 2267SOL    HW2 6837   1.915   2.421   1.212
 2268SOL     OW 6838   2.051   2.382   1.722
 2268SOL    HW1 6839   2.110   2.342   1.652
 2268SOL    HW2 6840   1.993   2.453   1.681
 2269SOL     OW 6841   3.231   2.812   1.660
 2269SOL    HW1 6842   3.270   2.901   1.680
 2269SOL    HW2 6843   3.241   2.792   1.563
 2270SOL     OW 6844   2.677   2.434   0.325
 2270SOL    HW1 6845   2.684   2.345   0.279
 2270SOL    HW2 6846   2.583   2.468   0.317
 2271SOL     OW 6847   3.519   2.466   1.206
 2271SOL    HW1 6848   3.481   2.397   1.268
 2271SOL    HW2 6849   3.601   2.430   1.162
 2272SOL     OW 6850   2.114   3.426   1.744
 2272SOL    HW1 6851   2.084   3.483   1.820
 2272SOL    HW2 6852   2.107   3.329   1.770
 2273SOL     OW 6853   2.533   2.326   1.269
 2273SOL    HW1 6854   2.499   2.237   1.239
 2273SOL    HW2 6855   2.559   2.380   1.189
 2274SOL     OW 6856   2.792   3.540   1.465
 2274SOL    HW1 6857   2.768   3.522   1.370
 2274SOL    HW2 6858   2.822   3.634   1.475
 2275SOL     OW 6859   2.335   2.362   0.191
 2275SOL    HW1 6860   2.396   2.442   0.195
 2275SOL    HW2 6861   2.240   2.393   0.198
 2276SOL     OW 6862   2.021   2.999   1.466
 2276SOL    HW1 6863   2.043   2.938   1.542
 2276SOL    HW2 6864   2.031   2.950   1.380
 2277SOL     OW 6865   3.209   2.921   1.234
 2277SOL    HW1 6866   3.233   2.858   1.160
 2277SOL    HW2 6867   3.119   2.961   1.216
 2278SOL     OW 6868   3.164   2.717   0.309
 2278SOL    HW1 6869   3.078   2.686   0.351
 2278SOL    HW2 6870   3.160   2.703   0.210
 2279SOL     OW 6871   3.621   3.609   1.154
 2279SOL    HW1 6872   3.682   3.639   1.081
 2279SOL    HW2 6873   3.583   3.520   1.132
 2280SOL     OW 6874   3.114   3.593   1.128
 2280SOL    HW1 6875   3.198   3.598   1.074
 2280SOL    HW2 6876   3.091   3.497   1.146
 2281SOL     OW 6877   1.945   3.120   1.022
 2281SOL    HW1 6878   1.940   3.119   1.122
 2281SOL    HW2 6879   1.862   3.079   0.984
 2282SOL     OW 6880   2.550   3.524   1.716
 2282SOL    HW1 6881   2.494   3.605   1.725
 2282SOL    HW2 6882   2.602   3.528   1.630
 2283SOL     OW 6883   2.765   1.948   0.133
 2283SOL    HW1 6884   2.816   1.949   0.047
 2283SOL    HW2 6885   2.821   1.906   0.204
 2284SOL     OW 6886   3.588   1.997   0.523
 2284SOL    HW1 6887   3.661   1.980   0.456
 2284SOL    HW2 6888   3.557   1.910   0.561
 2285SOL     OW 6889   3.250   3.435   0.477
 2285SOL    HW1 6890   3.317   3.447   0.403
 2285SOL    HW2 6891   3.210   3.524   0.500
 2286SOL     OW 6892   1.992   3.656   1.851
 2286SOL    HW1 6893   1.951   3.582   1.904
 2286SOL    HW2 6894   2.056   3.707   1.909
 2287SOL     OW 6895   3.142   2.789   0.672
 2287SOL    HW1 6896   3.202   2.708   0.674
 2287SOL    HW2 6897   3.182   2.858   0.612
 2288SOL     OW 6898   2.692   3.135   1.422
 2288SOL    HW1 6899   2.687   3.168   1.517
 2288SOL    HW2 6900   2.606   3.154   1.376
 2289SOL     OW 6901   2.534   3.478   0.154
 2289SOL    HW1 6902   2.543   3.488   0.055
 2289SOL    HW2 6903   2.494   3.389   0.175
 2290SOL     OW 6904   3.512   3.582   1.394
 2290SOL    HW1 6905   3.565   3.592   1.310
 2290SOL    HW2 6906   3.485   3.672   1.428
 2291SOL     OW 6907   3.703   2.037   0.963
 2291SOL    HW1 6908   3.742   1.952   0.927
 2291SOL    HW2 6909   3.605   2.039   0.944
 2292SOL     OW 6910   2.125   2.188   0.720
 2292SOL    HW1 6911   2.046   2.239   0.686
 2292SOL    HW2 6912   2.116   2.173   0.818
 2293SOL     OW 6913   3.056   3.474   0.031
 2293SOL    HW1 6914   3.062   3.381   0.068
 2293SOL    HW2 6915   2.997   3.474  -0.049
 2294SOL     OW 6916   2.684   2.864   1.372
 2294SOL    HW1 6917   2.724   2.863   1.280
 2294SOL    HW2 6918   2.694   2.956   1.412
 2295SOL     OW 6919   2.778   2.772   0.291
 2295SOL    HW1 6920   2.841   2.810   0.223
 2295SOL    HW2 6921   2.818   2.689   0.330
 2296SOL     OW 6922   3.366   3.469   0.044
 2296SOL    HW1 6923   3.274   3.506   0.051
 2296SOL    HW2 6924   3.404   3.489  -0.046
 2297SOL     OW 6925   2.234   3.150   1.490
 2297SOL    HW1 6926   2.221   3.243   1.456
 2297SOL    HW2 6927   2.150   3.098   1.477
 2298SOL     OW 6928   3.476   3.154   1.289
 2298SOL    HW1 6929   3.536   3.157   1.369
 2298SOL    HW2 6930   3.401   3.218   1.302
 2299SOL     OW 6931   2.901   2.960   0.696
 2299SOL    HW1 6932   2.831   2.913   0.750
 2299SOL    HW2 6933   2.960   2.892   0.653
 2300SOL     OW 6934   2.876   2.098   0.971
 2300SOL    HW1 6935   2.868   2.062   0.878
 2300SOL    HW2 6936   2.874   2.022   1.036
 2301SOL     OW 6937   2.452   3.349   0.491
 2301SOL    HW1 6938   2.494   3.291   0.421
 2301SOL    HW2 6939   2.408   3.428   0.447
 2302SOL     OW 6940   3.571   2.247   1.381
 2302SOL    HW1 6941   3.644   2.316   1.385
 2302SOL    HW2 6942   3.599   2.172   1.322
 2303SOL     OW 6943   2.117   3.210   0.290
 2303SOL    HW1 6944   2.021   3.211   0.263
 2303SOL    HW2 6945   2.129   3.263   0.374
 2304SOL     OW 6946   1.967   2.875   1.726
 2304SOL    HW1 6947   1.890   2.842   1.780
 2304SOL    HW2 6948   2.052   2.845   1.768
 2305SOL     OW 6949   2.534   2.065   1.489
 2305SOL    HW1 6950   2.624   2.049   1.449
 2305SOL    HW2 6951   2.542   2.070   1.588
 2306SOL     OW 6952   3.302   2.718   1.398
 2306SOL    HW1 6953   3.245   2.770   1.335
 2306SOL    HW2 6954   3.398   2.730   1.374
 2307SOL     OW 6955   1.934   2.028   0.318
 2307SOL    HW1 6956   1.917   2.111   0.264
 2307SOL    HW2 6957   2.024   1.991   0.296
 2308SOL     OW 6958   3.045   3.197   0.119
 2308SOL    HW1 6959   2.946   3.186   0.121
 2308SOL    HW2 6960   3.079   3.212   0.212
 2309SOL     OW 6961   2.475   2.704   1.431
 2309SOL    HW1 6962   2.531   2.785   1.414
 2309SOL    HW2 6963   2.534   2.624   1.434
 2310SOL     OW 6964   3.355   3.629   0.959
 2310SOL    HW1 6965   3.388   3.693   0.890
 2310SOL    HW2 6966   3.421   3.623   1.034
 2311SOL     OW 6967   2.578   2.427   1.708
 2311SOL    HW1 6968   2.597   2.492   1.782
 2311SOL    HW2 6969   2.638   2.347   1.717
 2312SOL     OW 6970   3.312   3.082   1.633
 2312SOL    HW1 6971   3.303   3.072   1.732
 2312SOL    HW2 6972   3.408   3.075   1.607
 2313SOL     OW 6973   2.252   3.603   1.560
 2313SOL    HW1 6974   2.161   3.644   1.558
 2313SOL    HW2 6975   2.245   3.509   1.592
 2314SOL     OW 6976   3.536   2.745   1.254
 2314SOL    HW1 6977   3.509   2.656   1.217
 2314SOL    HW2 6978   3.537   2.813   1.181
 2315SOL     OW 6979   3.087   2.187   0.449
 2315SOL    HW1 6980   3.152   2.113   0.438
 2315SOL    HW2 6981   3.107   2.237   0.533
 2316SOL     OW 6982   2.456   2.607   0.652
 2316SOL    HW1 6983   2.506   2.692   0.633
 2316SOL    HW2 6984   2.368   2.609   0.604
 2317SOL     OW 6985   3.639   2.204   1.642
 2317SOL    HW1 6986   3.622   2.235   1.548
 2317SOL    HW2 6987   3.555   2.167   1.680
 2318SOL     OW 6988   3.592   2.796   1.517
 2318SOL    HW1 6989   3.630   2.887   1.532
 2318SOL    HW2 6990   3.584   2.779   1.418
 2319SOL     OW 6991   2.721   3.236   0.016
 2319SOL    HW1 6992   2.675   3.251   0.104
 2319SOL    HW2 6993   2.765   3.321  -0.014
 2320SOL     OW 6994   2.523   3.652   0.953
 2320SOL    HW1 6995   2.477   3.740   0.940
 2320SOL    HW2 6996   2.622   3.664   0.946
 2321SOL     OW 6997   2.721   2.818   0.861
 2321SOL    HW1 6998   2.775   2.749   0.909
 2321SOL    HW2 6999   2.689   2.887   0.927
 2322SOL     OW 7000   2.945   2.846   0.087
 2322SOL    HW1 7001   2.922   2.899   0.005
 2322SOL    HW2 7002   3.026   2.790   0.068
 2323SOL     OW 7003   3.723   3.431   0.851
 2323SOL    HW1 7004   3.652   3.419   0.781
 2323SOL    HW2 7005   3.724   3.352   0.911
 2324SOL     OW 7006   2.083   3.176   1.844
 2324SOL    HW1 7007   2.018   3.103   1.823
 2324SOL    HW2 7008   2.087   3.190   1.942
 2325SOL     OW 7009   1.941   3.102   0.653
 2325SOL    HW1 7010   1.940   3.055   0.741
 2325SOL    HW2 7011   2.023   3.074   0.602
 2326SOL     OW 7012   2.534   3.253   1.624
 2326SOL    HW1 7013   2.456   3.203   1.662
 2326SOL    HW2 7014   2.531   3.348   1.655
 2327SOL     OW 7015   3.686   2.054   1.227
 2327SOL    HW1 7016   3.682   1.964   1.271
 2327SOL    HW2 7017   3.689   2.043   1.128
 2328SOL     OW 7018   2.290   2.286   0.520
 2328SOL    HW1 7019   2.320   2.214   0.458
 2328SOL    HW2 7020   2.251   2.246   0.603
 2329SOL     OW 7021   3.567   3.349   1.104
 2329SOL    HW1 7022   3.474   3.324   1.077
 2329SOL    HW2 7023   3.593   3.299   1.186
 2330SOL     OW 7024   2.179   2.409   1.280
 2330SOL    HW1 7025   2.217   2.350   1.352
 2330SOL    HW2 7026   2.219   2.383   1.192
 2331SOL     OW 7027   2.674   3.448   0.687
 2331SOL    HW1 7028   2.706   3.458   0.593
 2331SOL    HW2 7029   2.595   3.386   0.689
 2332SOL     OW 7030   3.286   2.076   1.112
 2332SOL    HW1 7031   3.338   2.011   1.167
 2332SOL    HW2 7032   3.237   2.139   1.173
 2333SOL     OW 7033   2.863   1.896   1.154
 2333SOL    HW1 7034   2.800   1.824   1.123
 2333SOL    HW2 7035   2.956   1.860   1.154
 2334SOL     OW 7036   2.632   3.192   0.301
 2334SOL    HW1 7037   2.586   3.105   0.318
 2334SOL    HW2 7038   2.723   3.189   0.342
 2335SOL     OW 7039   2.480   3.429   1.284
 2335SOL    HW1 7040   2.475   3.511   1.341
 2335SOL    HW2 7041   2.569   3.426   1.239
 2336SOL     OW 7042   3.214   1.914   0.168
 2336SOL    HW1 7043   3.249   1.873   0.084
 2336SOL    HW2 7044   3.124   1.876   0.188
 2337SOL     OW 7045   3.162   2.315   0.691
 2337SOL    HW1 7046   3.103   2.395   0.695
 2337SOL    HW2 7047   3.177   2.280   0.784
 2338SOL     OW 7048   3.455   2.083   0.882
 2338SOL    HW1 7049   3.371   2.082   0.936
 2338SOL    HW2 7050   3.457   2.166   0.826
 2339SOL     OW 7051   1.901   2.939   0.300
 2339SOL    HW1 7052   2.000   2.928   0.291
 2339SOL    HW2 7053   1.861   2.853   0.332
 2340SOL     OW 7054   2.737   3.508   0.337
 2340SOL    HW1 7055   2.660   3.473   0.283
 2340SOL    HW2 7056   2.705   3.579   0.399
 2341SOL     OW 7057   2.092   2.490   1.975
 2341SOL    HW1 7058   1.999   2.488   2.012
 2341SOL    HW2 7059   2.093   2.451   1.883
 2342SOL     OW 7060   2.087   2.137   2.858
 2342SOL    HW1 7061   2.122   2.120   2.950
 2342SOL    HW2 7062   1.999   2.092   2.846
 2343SOL     OW 7063   1.881   2.230   2.509
 2343SOL    HW1 7064   1.799   2.273   2.548
 2343SOL    HW2 7065   1.853   2.157   2.446
 2344SOL     OW 7066   2.431   3.137   3.027
 2344SOL    HW1 7067   2.338   3.130   2.990
 2344SOL    HW2 7068   2.442   3.226   3.071
 2345SOL     OW 7069   3.417   3.373   2.565
 2345SOL    HW1 7070   3.360   3.357   2.646
 2345SOL    HW2 7071   3.358   3.383   2.485
 2346SOL     OW 7072   3.617   2.469   2.093
 2346SOL    HW1 7073   3.605   2.456   1.994
 2346SOL    HW2 7074   3.587   2.388   2.142
 2347SOL     OW 7075   2.630   3.006   2.885
 2347SOL    HW1 7076   2.552   3.023   2.945
 2347SOL    HW2 7077   2.664   3.093   2.849
 2348SOL     OW 7078   2.712   2.660   3.685
 2348SOL    HW1 7079   2.708   2.736   3.750
 2348SOL    HW2 7080   2.734   2.696   3.594
 2349SOL     OW 7081   2.548   3.023   3.665
 2349SOL    HW1 7082   2.608   3.102   3.679
 2349SOL    HW2 7083   2.462   3.054   3.624
 2350SOL     OW 7084   2.197   3.297   2.923
 2350SOL    HW1 7085   2.119   3.266   2.870
 2350SOL    HW2 7086   2.255   3.355   2.866
 2351SOL     OW 7087   3.322   3.367   3.201
 2351SOL    HW1 7088   3.346   3.461   3.227
 2351SOL    HW2 7089   3.306   3.313   3.283
 2352SOL     OW 7090   2.300   2.254   3.361
 2352SOL    HW1 7091   2.382   2.198   3.370
 2352SOL    HW2 7092   2.219   2.196   3.365
 2353SOL     OW 7093   3.465   2.309   2.599
 2353SOL    HW1 7094   3.391   2.355   2.549
 2353SOL    HW2 7095   3.516   2.377   2.652
 2354SOL     OW 7096   2.093   3.575   2.345
 2354SOL    HW1 7097   2.127   3.652   2.399
 2354SOL    HW2 7098   2.137   3.575   2.255
 2355SOL     OW 7099   2.989   3.203   3.552
 2355SOL    HW1 7100   3.036   3.203   3.640
 2355SOL    HW2 7101   2.941   3.116   3.541
 2356SOL     OW 7102   2.092   3.296   2.400
 2356SOL    HW1 7103   2.066   3.392   2.400
 2356SOL    HW2 7104   2.021   3.242   2.445
 2357SOL     OW 7105   2.102   2.953   2.748
 2357SOL    HW1 7106   2.116   2.869   2.800
 2357SOL    HW2 7107   2.047   3.017   2.803
 2358SOL     OW 7108   2.482   3.648   3.301
 2358SOL    HW1 7109   2.390   3.631   3.336
 2358SOL    HW2 7110   2.510   3.740   3.327
 2359SOL     OW 7111   3.456   1.976   3.342
 2359SOL    HW1 7112   3.438   2.043   3.270
 2359SOL    HW2 7113   3.453   2.022   3.431
 2360SOL     OW 7114   1.984   2.505   2.425
 2360SOL    HW1 7115   1.939   2.417   2.442
 2360SOL    HW2 7116   1.983   2.559   2.509
 2361SOL     OW 7117   3.704   3.629   2.221
 2361SOL    HW1 7118   3.758   3.600   2.301
 2361SOL    HW2 7119   3.734   3.719   2.192
 2362SOL     OW 7120   1.889   3.458   1.979
 2362SOL    HW1 7121   1.870   3.362   2.000
 2362SOL    HW2 7122   1.856   3.516   2.054
 2363SOL     OW 7123   3.551   2.784   2.474
 2363SOL    HW1 7124   3.646   2.755   2.482
 2363SOL    HW2 7125   3.543   2.849   2.399
 2364SOL     OW 7126   3.503   2.970   2.294
 2364SOL    HW1 7127   3.589   2.972   2.242
 2364SOL    HW2 7128   3.517   3.017   2.382
 2365SOL     OW 7129   1.975   2.599   3.459
 2365SOL    HW1 7130   2.063   2.586   3.504
 2365SOL    HW2 7131   1.962   2.696   3.437
 2366SOL     OW 7132   2.475   3.227   2.588
 2366SOL    HW1 7133   2.426   3.140   2.597
 2366SOL    HW2 7134   2.452   3.270   2.501
 2367SOL     OW 7135   3.155   3.090   3.285
 2367SOL    HW1 7136   3.192   3.017   3.227
 2367SOL    HW2 7137   3.207   3.095   3.370
 2368SOL     OW 7138   2.059   2.838   3.126
 2368SOL    HW1 7139   2.148   2.793   3.112
 2368SOL    HW2 7140   1.986   2.773   3.107
 2369SOL     OW 7141   3.387   2.861   2.052
 2369SOL    HW1 7142   3.324   2.785   2.065
 2369SOL    HW2 7143   3.435   2.879   2.138
 2370SOL     OW 7144   3.049   3.654   3.478
 2370SOL    HW1 7145   3.073   3.714   3.402
 2370SOL    HW2 7146   3.056   3.559   3.448
 2371SOL     OW 7147   2.179   2.113   3.663
 2371SOL    HW1 7148   2.250   2.184   3.669
 2371SOL    HW2 7149   2.091   2.152   3.691
 2372SOL     OW 7150   3.328   3.279   2.815
 2372SOL    HW1 7151   3.269   3.285   2.895
 2372SOL    HW2 7152   3.313   3.191   2.769
 2373SOL     OW 7153   3.529   3.576   2.434
 2373SOL    HW1 7154   3.488   3.553   2.346
 2373SOL    HW2 7155   3.511   3.502   2.499
 2374SOL     OW 7156   3.143   2.207   2.806
 2374SOL    HW1 7157   3.057   2.157   2.793
 2374SOL    HW2 7158   3.205   2.153   2.862
 2375SOL     OW 7159   3.438   3.524   2.169
 2375SOL    HW1 7160   3.527   3.570   2.172
 2375SOL    HW2 7161   3.417   3.500   2.074
 2376SOL     OW 7162   2.669   2.467   3.327
 2376SOL    HW1 7163   2.622   2.464   3.416
 2376SOL    HW2 7164   2.618   2.412   3.261
 2377SOL     OW 7165   3.256   2.331   3.536
 2377SOL    HW1 7166   3.236   2.374   3.624
 2377SOL    HW2 7167   3.334   2.269   3.545
 2378SOL     OW 7168   2.835   2.752   3.434
 2378SOL    HW1 7169   2.881   2.668   3.405
 2378SOL    HW2 7170   2.779   2.786   3.359
 2379SOL     OW 7171   2.853   2.272   3.104
 2379SOL    HW1 7172   2.776   2.306   3.158
 2379SOL    HW2 7173   2.819   2.221   3.025
 2380SOL     OW 7174   1.938   2.673   2.651
 2380SOL    HW1 7175   2.037   2.661   2.660
 2380SOL    HW2 7176   1.914   2.768   2.672
 2381SOL     OW 7177   1.992   3.683   3.433
 2381SOL    HW1 7178   1.982   3.668   3.532
 2381SOL    HW2 7179   1.906   3.719   3.397
 2382SOL     OW 7180   2.727   2.210   2.057
 2382SOL    HW1 7181   2.786   2.273   2.008
 2382SOL    HW2 7182   2.746   2.116   2.028
 2383SOL     OW 7183   3.581   2.447   3.693
 2383SOL    HW1 7184   3.555   2.536   3.657
 2383SOL    HW2 7185   3.579   2.379   3.620
 2384SOL     OW 7186   3.224   3.006   2.407
 2384SOL    HW1 7187   3.307   2.977   2.359
 2384SOL    HW2 7188   3.175   3.073   2.351
 2385SOL     OW 7189   2.412   2.058   2.747
 2385SOL    HW1 7190   2.407   2.053   2.847
 2385SOL    HW2 7191   2.414   2.154   2.718
 2386SOL     OW 7192   2.870   3.318   2.339
 2386SOL    HW1 7193   2.824   3.390   2.287
 2386SOL    HW2 7194   2.866   3.338   2.437
 2387SOL     OW 7195   2.213   3.663   2.715
 2387SOL    HW1 7196   2.263   3.577   2.721
 2387SOL    HW2 7197   2.278   3.740   2.712
 2388SOL     OW 7198   3.657   2.928   2.735
 2388SOL    HW1 7199   3.595   2.913   2.659
 2388SOL    HW2 7200   3.605   2.939   2.820
 2389SOL     OW 7201   3.089   3.412   3.368
 2389SOL    HW1 7202   3.095   3.335   3.432
 2389SOL    HW2 7203   3.037   3.386   3.288
 2390SOL     OW 7204   2.183   2.805   2.104
 2390SOL    HW1 7205   2.265   2.844   2.062
 2390SOL    HW2 7206   2.156   2.723   2.055
 2391SOL     OW 7207   3.320   2.597   2.590
 2391SOL    HW1 7208   3.315   2.532   2.665
 2391SOL    HW2 7209   3.400   2.656   2.603
 2392SOL     OW 7210   2.323   3.128   3.589
 2392SOL    HW1 7211   2.273   3.129   3.503
 2392SOL    HW2 7212   2.260   3.110   3.665
 2393SOL     OW 7213   2.973   3.638   2.099
 2393SOL    HW1 7214   2.913   3.576   2.149
 2393SOL    HW2 7215   3.004   3.594   2.014
 2394SOL     OW 7216   2.064   2.147   3.360
 2394SOL    HW1 7217   1.984   2.207   3.347
 2394SOL    HW2 7218   2.054   2.098   3.446
 2395SOL     OW 7219   3.494   3.239   1.943
 2395SOL    HW1 7220   3.462   3.333   1.933
 2395SOL    HW2 7221   3.418   3.176   1.931
 2396SOL     OW 7222   2.326   3.605   2.185
 2396SOL    HW1 7223   2.359   3.644   2.271
 2396SOL    HW2 7224   2.402   3.598   2.120
 2397SOL     OW 7225   3.262   1.969   2.288
 2397SOL    HW1 7226   3.238   1.932   2.198
 2397SOL    HW2 7227   3.361   1.985   2.292
 2398SOL     OW 7228   2.111   3.647   3.103
 2398SOL    HW1 7229   2.168   3.582   3.153
 2398SOL    HW2 7230   2.095   3.614   3.010
 2399SOL     OW 7231   2.802   3.560   2.766
 2399SOL    HW1 7232   2.882   3.503   2.787
 2399SOL    HW2 7233   2.753   3.520   2.689
 2400SOL     OW 7234   3.409   2.084   3.591
 2400SOL    HW1 7235   3.404   2.121   3.683
 2400SOL    HW2 7236   3.337   2.015   3.579
 2401SOL     OW 7237   2.476   1.984   1.979
 2401SOL    HW1 7238   2.574   1.962   1.986
 2401SOL    HW2 7239   2.445   1.967   1.886
 2402SOL     OW 7240   2.643   2.126   3.611
 2402SOL    HW1 7241   2.710   2.065   3.654
 2402SOL    HW2 7242   2.570   2.145   3.676
 2403SOL     OW 7243   2.750   3.376   3.057
 2403SOL    HW1 7244   2.727   3.351   2.963
 2403SOL    HW2 7245   2.811   3.307   3.096
 2404SOL     OW 7246   3.213   2.452   3.295
 2404SOL    HW1 7247   3.241   2.409   3.380
 2404SOL    HW2 7248   3.238   2.548   3.296
 2405SOL     OW 7249   2.665   3.264   2.786
 2405SOL    HW1 7250   2.755   3.278   2.744
 2405SOL    HW2 7251   2.594   3.266   2.715
 2406SOL     OW 7252   2.401   1.926   2.374
 2406SOL    HW1 7253   2.320   1.927   2.432
 2406SOL    HW2 7254   2.404   2.009   2.319
 2407SOL     OW 7255   3.296   3.050   1.903
 2407SOL    HW1 7256   3.328   2.974   1.960
 2407SOL    HW2 7257   3.204   3.077   1.933
 2408SOL     OW 7258   2.159   1.897   2.033
 2408SOL    HW1 7259   2.208   1.981   2.012
 2408SOL    HW2 7260   2.221   1.832   2.078
 2409SOL     OW 7261   2.797   2.098   2.342
 2409SOL    HW1 7262   2.749   2.139   2.264
 2409SOL    HW2 7263   2.896   2.096   2.323
 2410SOL     OW 7264   2.938   2.545   3.326
 2410SOL    HW1 7265   2.858   2.484   3.329
 2410SOL    HW2 7266   3.019   2.492   3.302
 2411SOL     OW 7267   3.089   3.432   2.655
 2411SOL    HW1 7268   3.110   3.506   2.590
 2411SOL    HW2 7269   3.157   3.432   2.728
 2412SOL     OW 7270   2.321   3.014   2.603
 2412SOL    HW1 7271   2.250   2.987   2.668
 2412SOL    HW2 7272   2.295   2.986   2.510
 2413SOL     OW 7273   3.133   3.659   2.453
 2413SOL    HW1 7274   3.177   3.723   2.389
 2413SOL    HW2 7275   3.083   3.711   2.523
 2414SOL     OW 7276   2.894   2.411   1.878
 2414SOL    HW1 7277   2.853   2.493   1.839
 2414SOL    HW2 7278   2.958   2.437   1.951
 2415SOL     OW 7279   1.940   2.418   3.248
 2415SOL    HW1 7280   2.032   2.417   3.207
 2415SOL    HW2 7281   1.934   2.492   3.315
 2416SOL     OW 7282   2.423   2.084   3.009
 2416SOL    HW1 7283   2.461   2.000   3.046
 2416SOL    HW2 7284   2.335   2.103   3.053
 2417SOL     OW 7285   3.291   3.035   2.729
 2417SOL    HW1 7286   3.236   2.951   2.722
 2417SOL    HW2 7287   3.317   3.064   2.637
 2418SOL     OW 7288   3.328   2.452   2.854
 2418SOL    HW1 7289   3.298   2.357   2.861
 2418SOL    HW2 7290   3.401   2.468   2.920
 2419SOL     OW 7291   3.719   2.695   2.239
 2419SOL    HW1 7292   3.761   2.631   2.303
 2419SOL    HW2 7293   3.681   2.644   2.161
 2420SOL     OW 7294   2.350   3.247   2.036
 2420SOL    HW1 7295   2.263   3.232   2.083
 2420SOL    HW2 7296   2.333   3.273   1.941
 2421SOL     OW 7297   3.526   3.142   2.519
 2421SOL    HW1 7298   3.625   3.150   2.533
 2421SOL    HW2 7299   3.481   3.226   2.550
 2422SOL     OW 7300   3.252   2.437   1.940
 2422SOL    HW1 7301   3.198   2.416   2.021
 2422SOL    HW2 7302   3.343   2.396   1.949
 2423SOL     OW 7303   2.389   2.118   2.190
 2423SOL    HW1 7304   2.416   2.059   2.115
 2423SOL    HW2 7305   2.389   2.213   2.159
 2424SOL     OW 7306   3.616   3.085   3.450
 2424SOL    HW1 7307   3.707   3.046   3.437
 2424SOL    HW2 7308   3.624   3.181   3.474
 2425SOL     OW 7309   2.926   3.209   3.202
 2425SOL    HW1 7310   2.846   3.186   3.257
 2425SOL    HW2 7311   3.009   3.183   3.251
 2426SOL     OW 7312   3.454   3.491   3.487
 2426SOL    HW1 7313   3.481   3.525   3.397
 2426SOL    HW2 7314   3.533   3.453   3.533
 2427SOL     OW 7315   2.973   3.057   2.962
 2427SOL    HW1 7316   2.933   3.101   3.043
 2427SOL    HW2 7317   2.932   3.094   2.879
 2428SOL     OW 7318   3.500   2.961   2.941
 2428SOL    HW1 7319   3.505   3.042   3.000
 2428SOL    HW2 7320   3.414   2.963   2.890
 2429SOL     OW 7321   2.777   1.951   3.264
 2429SOL    HW1 7322   2.802   1.931   3.169
 2429SOL    HW2 7323   2.849   2.007   3.306
 2430SOL     OW 7324   2.842   2.978   3.581
 2430SOL    HW1 7325   2.743   2.984   3.591
 2430SOL    HW2 7326   2.865   2.898   3.525
 2431SOL     OW 7327   2.272   2.675   3.113
 2431SOL    HW1 7328   2.358   2.687   3.163
 2431SOL    HW2 7329   2.230   2.588   3.140
 2432SOL     OW 7330   3.136   2.248   3.124
 2432SOL    HW1 7331   3.157   2.322   3.188
 2432SOL    HW2 7332   3.047   2.265   3.081
 2433SOL     OW 7333   1.926   3.426   3.193
 2433SOL    HW1 7334   1.880   3.508   3.159
 2433SOL    HW2 7335   2.024   3.445   3.202
 2434SOL     OW 7336   2.229   2.962   2.363
 2434SOL    HW1 7337   2.222   3.045   2.307
 2434SOL    HW2 7338   2.233   2.882   2.303
 2435SOL     OW 7339   3.114   3.210   2.250
 2435SOL    HW1 7340   3.164   3.287   2.290
 2435SOL    HW2 7341   3.019   3.212   2.282
 2436SOL     OW 7342   3.134   3.307   3.004
 2436SOL    HW1 7343   3.181   3.320   3.091
 2436SOL    HW2 7344   3.068   3.233   3.013
 2437SOL     OW 7345   3.444   2.501   2.334
 2437SOL    HW1 7346   3.413   2.562   2.407
 2437SOL    HW2 7347   3.494   2.553   2.265
 2438SOL     OW 7348   2.216   3.372   3.191
 2438SOL    HW1 7349   2.195   3.328   3.104
 2438SOL    HW2 7350   2.313   3.398   3.194
 2439SOL     OW 7351   2.264   2.613   3.460
 2439SOL    HW1 7352   2.332   2.668   3.413
 2439SOL    HW2 7353   2.304   2.525   3.487
 2440SOL     OW 7354   3.449   2.641   3.532
 2440SOL    HW1 7355   3.357   2.679   3.527
 2440SOL    HW2 7356   3.509   2.688   3.467
 2441SOL     OW 7357   2.875   1.967   3.632
 2441SOL    HW1 7358   2.881   2.052   3.580
 2441SOL    HW2 7359   2.907   1.891   3.575
 2442SOL     OW 7360   2.366   1.912   3.602
 2442SOL    HW1 7361   2.324   1.855   3.532
 2442SOL    HW2 7362   2.300   1.981   3.634
 2443SOL     OW 7363   3.222   2.724   2.907
 2443SOL    HW1 7364   3.147   2.724   2.841
 2443SOL    HW2 7365   3.259   2.632   2.916
 2444SOL     OW 7366   3.071   2.387   2.137
 2444SOL    HW1 7367   3.084   2.303   2.191
 2444SOL    HW2 7368   3.042   2.461   2.197
 2445SOL     OW 7369   2.169   2.075   3.093
 2445SOL    HW1 7370   2.146   2.112   3.183
 2445SOL    HW2 7371   2.139   1.980   3.087
 2446SOL     OW 7372   1.899   3.172   3.144
 2446SOL    HW1 7373   1.952   3.123   3.212
 2446SOL    HW2 7374   1.921   3.270   3.149
 2447SOL     OW 7375   2.594   2.496   2.926
 2447SOL    HW1 7376   2.653   2.470   2.850
 2447SOL    HW2 7377   2.566   2.592   2.915
 2448SOL     OW 7378   3.590   2.797   3.716
 2448SOL    HW1 7379   3.544   2.790   3.627
 2448SOL    HW2 7380   3.528   2.841   3.782
 2449SOL     OW 7381   2.169   1.925   2.480
 2449SOL    HW1 7382   2.158   2.019   2.513
 2449SOL    HW2 7383   2.164   1.862   2.557
 2450SOL     OW 7384   3.484   2.229   2.236
 2450SOL    HW1 7385   3.486   2.153   2.300
 2450SOL    HW2 7386   3.436   2.306   2.276
 2451SOL     OW 7387   2.842   3.435   3.562
 2451SOL    HW1 7388   2.822   3.479   3.474
 2451SOL    HW2 7389   2.881   3.344   3.546
 2452SOL     OW 7390   3.721   3.380   3.467
 2452SOL    HW1 7391   3.735   3.407   3.372
 2452SOL    HW2 7392   3.804   3.402   3.520
 2453SOL     OW 7393   2.212   2.760   3.666
 2453SOL    HW1 7394   2.288   2.804   3.714
 2453SOL    HW2 7395   2.247   2.713   3.584
 2454SOL     OW 7396   3.402   2.136   1.987
 2454SOL    HW1 7397   3.341   2.061   2.010
 2454SOL    HW2 7398   3.424   2.188   2.070
 2455SOL     OW 7399   3.165   2.700   1.904
 2455SOL    HW1 7400   3.199   2.607   1.919
 2455SOL    HW2 7401   3.183   2.727   1.809
 2456SOL     OW 7402   2.930   3.195   2.711
 2456SOL    HW1 7403   2.937   3.111   2.656
 2456SOL    HW2 7404   2.992   3.264   2.675
 2457SOL     OW 7405   2.201   2.371   2.868
 2457SOL    HW1 7406   2.149   2.288   2.851
 2457SOL    HW2 7407   2.278   2.376   2.804
 2458SOL     OW 7408   3.000   2.242   3.540
 2458SOL    HW1 7409   2.955   2.305   3.604
 2458SOL    HW2 7410   3.093   2.273   3.523
 2459SOL     OW 7411   3.022   2.069   3.339
 2459SOL    HW1 7412   3.022   2.133   3.416
 2459SOL    HW2 7413   3.050   2.117   3.256
 2460SOL     OW 7414   1.870   3.188   2.062
 2460SOL    HW1 7415   1.777   3.209   2.031
 2460SOL    HW2 7416   1.880   3.089   2.075
 2461SOL     OW 7417   1.950   3.663   2.789
 2461SOL    HW1 7418   1.908   3.577   2.762
 2461SOL    HW2 7419   2.044   3.666   2.755
 2462SOL     OW 7420   2.366   3.430   2.772
 2462SOL    HW1 7421   2.432   3.504   2.781
 2462SOL    HW2 7422   2.410   3.351   2.730
 2463SOL     OW 7423   2.864   2.658   3.100
 2463SOL    HW1 7424   2.905   2.626   3.186
 2463SOL    HW2 7425   2.768   2.631   3.097
 2464SOL     OW 7426   1.902   2.406   2.976
 2464SOL    HW1 7427   1.987   2.373   2.935
 2464SOL    HW2 7428   1.915   2.421   3.074
 2465SOL     OW 7429   2.051   2.382   3.584
 2465SOL    HW1 7430   2.110   2.342   3.514
 2465SOL    HW2 7431   1.993   2.453   3.543
 2466SOL     OW 7432   3.231   2.812   3.522
 2466SOL    HW1 7433   3.270   2.901   3.542
 2466SOL    HW2 7434   3.241   2.792   3.425
 2467SOL     OW 7435   2.677   2.434   2.187
 2467SOL    HW1 7436   2.684   2.345   2.141
 2467SOL    HW2 7437   2.583   2.468   2.179
 2468SOL     OW 7438   3.519   2.466   3.068
 2468SOL    HW1 7439   3.481   2.397   3.130
 2468SOL    HW2 7440   3.601   2.430   3.024
 2469SOL     OW 7441   2.114   3.426   3.606
 2469SOL    HW1 7442   2.084   3.483   3.682
 2469SOL    HW2 7443   2.107   3.329   3.632
 2470SOL     OW 7444   2.533   2.326   3.131
 2470SOL    HW1 7445   2.499   2.237   3.101
 2470SOL    HW2 7446   2.559   2.380   3.051
 2471SOL     OW 7447   2.792   3.540   3.327
 2471SOL    HW1 7448   2.768   3.522   3.232
 2471SOL    HW2 7449   2.822   3.634   3.337
 2472SOL     OW 7450   2.335   2.362   2.053
 2472SOL    HW1 7451   2.396   2.442   2.057
 2472SOL    HW2 7452   2.240   2.393   2.060
 2473SOL     OW 7453   2.021   2.999   3.328
 2473SOL    HW1 7454   2.043   2.938   3.404
 2473SOL    HW2 7455   2.031   2.950   3.242
 2474SOL     OW 7456   3.209   2.921   3.096
 2474SOL    HW1 7457   3.233   2.858   3.022
 2474SOL    HW2 7458   3.119   2.961   3.078
 2475SOL     OW 7459   3.164   2.717   2.171
 2475SOL    HW1 7460   3.078   2.686   2.213
 2475SOL    HW2 7461   3.160   2.703   2.072
 2476SOL     OW 7462   3.621   3.609   3.016
 2476SOL    HW1 7463   3.682   3.639   2.943
 2476SOL    HW2 7464   3.583   3.520   2.994
 2477SOL     OW 7465   3.114   3.593   2.990
 2477SOL    HW1 7466   3.198   3.598   2.936
 2477SOL    HW2 7467   3.091   3.497   3.008
 2478SOL     OW 7468   1.945   3.120   2.884
 2478SOL    HW1 7469   1.940   3.119   2.984
 2478SOL    HW2 7470   1.862   3.079   2.846
 2479SOL     OW 7471   2.550   3.524   3.578
 2479SOL    HW1 7472   2.494   3.605   3.587
 2479SOL    HW2 7473   2.602   3.528   3.492
 2480SOL     OW 7474   3.588   1.997   2.385
 2480SOL    HW1 7475   3.661   1.980   2.318
 2480SOL    HW2 7476   3.557   1.910   2.423
 2481SOL     OW 7477   3.250   3.435   2.339
 2481SOL    HW1 7478   3.317   3.447   2.265
 2481SOL    HW2 7479   3.210   3.524   2.362
 2482SOL     OW 7480   1.992   3.656   3.713
 2482SOL    HW1 7481   1.951   3.582   3.766
 2482SOL    HW2 7482   2.056   3.707   3.771
 2483SOL     OW 7483   3.142   2.789   2.534
 2483SOL    HW1 7484   3.202   2.708   2.536
 2483SOL    HW2 7485   3.182   2.858   2.474
 2484SOL     OW 7486   2.692   3.135   3.284
 2484SOL    HW1 7487   2.687   3.168   3.379
 2484SOL    HW2 7488   2.606   3.154   3.238
 2485SOL     OW 7489   2.534   3.478   2.016
 2485SOL    HW1 7490   2.543   3.488   1.917
 2485SOL    HW2 7491   2.494   3.389   2.037
 2486SOL     OW 7492   3.512   3.582   3.256
 2486SOL    HW1 7493   3.565   3.592   3.172
 2486SOL    HW2 7494   3.485   3.672   3.290
 2487SOL     OW 7495   3.703   2.037   2.825
 2487SOL    HW1 7496   3.742   1.952   2.789
 2487SOL    HW2 7497   3.605   2.039   2.806
 2488SOL     OW 7498   2.125   2.188   2.582
 2488SOL    HW1 7499   2.046   2.239   2.548
 2488SOL    HW2 7500   2.116   2.173   2.680
 2489SOL     OW 7501   3.056   3.474   1.893
 2489SOL    HW1 7502   3.062   3.381   1.930
 2489SOL    HW2 7503   2.997   3.474   1.813
 2490SOL     OW 7504   2.684   2.864   3.234
 2490SOL    HW1 7505   2.724   2.863   3.142
 2490SOL    HW2 7506   2.694   2.956   3.274
 2491SOL     OW 7507   2.778   2.772   2.153
 2491SOL    HW1 7508   2.841   2.810   2.085
 2491SOL    HW2 7509   2.818   2.689   2.192
 2492SOL     OW 7510   3.366   3.469   1.906
 2492SOL    HW1 7511   3.274   3.506   1.913
 2492SOL    HW2 7512   3.404   3.489   1.816
 2493SOL     OW 7513   2.234   3.150   3.352
 2493SOL    HW1 7514   2.221   3.243   3.318
 2493SOL    HW2 7515   2.150   3.098   3.339
 2494SOL     OW 7516   3.476   3.154   3.151
 2494SOL    HW1 7517   3.536   3.157   3.231
 2494SOL    HW2 7518   3.401   3.218   3.164
 2495SOL     OW 7519   2.901   2.960   2.558
 2495SOL    HW1 7520   2.831   2.913   2.612
 2495SOL    HW2 7521   2.960   2.892   2.515
 2496SOL     OW 7522   2.876   2.098   2.833
 2496SOL    HW1 7523   2.868   2.062   2.740
 2496SOL    HW2 7524   2.874   2.022   2.898
 2497SOL     OW 7525   2.452   3.349   2.353
 2497SOL    HW1 7526   2.494   3.291   2.283
 2497SOL    HW2 7527   2.408   3.428   2.309
 2498SOL     OW 7528   3.571   2.247   3.243
 2498SOL    HW1 7529   3.644   2.316   3.247
 2498SOL    HW2 7530   3.599   2.172   3.184
 2499SOL     OW 7531   2.117   3.210   2.152
 2499SOL    HW1 7532   2.021   3.211   2.125
 2499SOL    HW2 7533   2.129   3.263   2.236
 2500SOL     OW 7534   1.967   2.875   3.588
 2500SOL    HW1 7535   1.890   2.842   3.642
 2500SOL    HW2 7536   2.052   2.845   3.630
 2501SOL     OW 7537   2.534   2.065   3.351
 2501SOL    HW1 7538   2.624   2.049   3.311
 2501SOL    HW2 7539   2.542   2.070   3.450
 2502SOL     OW 7540   1.937   2.207   1.895
 2502SOL    HW1 7541   1.845   2.179   1.866
 2502SOL    HW2 7542   1.968   2.284   1.839
 2503SOL     OW 7543   3.302   2.718   3.260
 2503SOL    HW1 7544   3.245   2.770   3.197
 2503SOL    HW2 7545   3.398   2.730   3.236
 2504SOL     OW 7546   1.934   2.028   2.180
 2504SOL    HW1 7547   1.917   2.111   2.126
 2504SOL    HW2 7548   2.024   1.991   2.158
 2505SOL     OW 7549   3.045   3.197   1.981
 2505SOL    HW1 7550   2.946   3.186   1.983
 2505SOL    HW2 7551   3.079   3.212   2.074
 2506SOL     OW 7552   2.475   2.704   3.293
 2506SOL    HW1 7553   2.531   2.785   3.276
 2506SOL    HW2 7554   2.534   2.624   3.296
 2507SOL     OW 7555   3.355   3.629   2.821
 2507SOL    HW1 7556   3.388   3.693   2.752
 2507SOL    HW2 7557   3.421   3.623   2.896
 2508SOL     OW 7558   2.578   2.427   3.570
 2508SOL    HW1 7559   2.597   2.492   3.644
 2508SOL    HW2 7560   2.638   2.347   3.579
 2509SOL     OW 7561   3.312   3.082   3.495
 2509SOL    HW1 7562   3.303   3.072   3.594
 2509SOL    HW2 7563   3.408   3.075   3.469
 2510SOL     OW 7564   2.252   3.603   3.422
 2510SOL    HW1 7565   2.161   3.644   3.420
 2510SOL    HW2 7566   2.245   3.509   3.454
 2511SOL     OW 7567   3.536   2.745   3.116
 2511SOL    HW1 7568   3.509   2.656   3.079
 2511SOL    HW2 7569   3.537   2.813   3.043
 2512SOL     OW 7570   3.087   2.187   2.311
 2512SOL    HW1 7571   3.152   2.113   2.300
 2512SOL    HW2 7572   3.107   2.237   2.395
 2513SOL     OW 7573   3.639   2.204   3.504
 2513SOL    HW1 7574   3.622   2.235   3.410
 2513SOL    HW2 7575   3.555   2.167   3.542
 2514SOL     OW 7576   3.592   2.796   3.379
 2514SOL    HW1 7577   3.630   2.887   3.394
 2514SOL    HW2 7578   3.584   2.779   3.280
 2515SOL     OW 7579   2.721   3.236   1.878
 2515SOL    HW1 7580   2.675   3.251   1.966
 2515SOL    HW2 7581   2.765   3.321   1.848
 2516SOL     OW 7582   2.523   3.652   2.815
 2516SOL    HW1 7583   2.477   3.740   2.802
 2516SOL    HW2 7584   2.622   3.664   2.808
 2517SOL     OW 7585   2.721   2.818   2.723
 2517SOL    HW1 7586   2.775   2.749   2.771
 2517SOL    HW2 7587   2.689   2.887   2.789
 2518SOL     OW 7588   2.945   2.846   1.949
 2518SOL    HW1 7589   2.922   2.899   1.867
 2518SOL    HW2 7590   3.026   2.790   1.930
 2519SOL     OW 7591   3.723   3.431   2.713
 2519SOL    HW1 7592   3.652   3.419   2.643
 2519SOL    HW2 7593   3.724   3.352   2.773
 2520SOL     OW 7594   2.083   3.176   3.706
 2520SOL    HW1 7595   2.018   3.103   3.685
 2520SOL    HW2 7596   2.087   3.190   3.804
 2521SOL     OW 7597   1.941   3.102   2.515
 2521SOL    HW1 7598   1.940   3.055   2.603
 2521SOL    HW2 7599   2.023   3.074   2.464
 2522SOL     OW 7600   2.534   3.253   3.486
 2522SOL    HW1 7601   2.456   3.203   3.524
 2522SOL    HW2 7602   2.531   3.348   3.517
 2523SOL     OW 7603   3.686   2.054   3.089
 2523SOL    HW1 7604   3.682   1.964   3.133
 2523SOL    HW2 7605   3.689   2.043   2.990
 2524SOL     OW 7606   3.567   3.349   2.966
 2524SOL    HW1 7607   3.474   3.324   2.939
 2524SOL    HW2 7608   3.593   3.299   3.048
 2525SOL     OW 7609   2.179   2.409   3.142
 2525SOL    HW1 7610   2.217   2.350   3.214
 2525SOL    HW2 7611   2.219   2.383   3.054
 2526SOL     OW 7612   2.674   3.448   2.549
 2526SOL    HW1 7613   2.706   3.458   2.455
 2526SOL    HW2 7614   2.595   3.386   2.551
 2527SOL     OW 7615   3.286   2.076   2.974
 2527SOL    HW1 7616   3.338   2.011   3.029
 2527SOL    HW2 7617   3.237   2.139   3.035
 2528SOL     OW 7618   2.863   1.896   3.016
 2528SOL    HW1 7619   2.800   1.824   2.985
 2528SOL    HW2 7620   2.956   1.860   3.016
 2529SOL     OW 7621   2.632   3.192   2.163
 2529SOL    HW1 7622   2.586   3.105   2.180
 2529SOL    HW2 7623   2.723   3.189   2.204
 2530SOL     OW 7624   2.480   3.429   3.146
 2530SOL    HW1 7625   2.475   3.511   3.203
 2530SOL    HW2 7626   2.569   3.426   3.101
 2531SOL     OW 7627   3.214   1.914   2.030
 2531SOL    HW1 7628   3.249   1.873   1.946
 2531SOL    HW2 7629   3.124   1.876   2.050
 2532SOL     OW 7630   3.162   2.315   2.553
 2532SOL    HW1 7631   3.103   2.395   2.557
 2532SOL    HW2 7632   3.177   2.280   2.646
 2533SOL     OW 7633   3.455   2.083   2.744
 2533SOL    HW1 7634   3.371   2.082   2.798
 2533SOL    HW2 7635   3.457   2.166   2.688
 2534SOL     OW 7636   1.901   2.939   2.162
 2534SOL    HW1 7637   2.000   2.928   2.153
 2534SOL    HW2 7638   1.861   2.853   2.194
 2535SOL     OW 7639   2.737   3.508   2.199
 2535SOL    HW1 7640   2.660   3.473   2.145
 2535SOL    HW2 7641   2.705   3.579   2.261
 2536SOL     OW 7642   2.092   2.490   3.837
 2536SOL    HW1 7643   1.999   2.488   3.874
 2536SOL    HW2 7644   2.093   2.451   3.745
 2537SOL     OW 7645   2.087   2.137   4.720
 2537SOL    HW1 7646   2.122   2.120   4.812
 2537SOL    HW2 7647   1.999   2.092   4.708
 2538SOL     OW 7648   1.881   2.230   4.371
 2538SOL    HW1 7649   1.799   2.273   4.410
 2538SOL    HW2 7650   1.853   2.157   4.308
 2539SOL     OW 7651   2.431   3.137   4.889
 2539SOL    HW1 7652   2.338   3.130   4.852
 2539SOL    HW2 7653   2.442   3.226   4.933
 2540SOL     OW 7654   3.417   3.373   4.427
 2540SOL    HW1 7655   3.360   3.357   4.508
 2540SOL    HW2 7656   3.358   3.383   4.347
 2541SOL     OW 7657   2.997   2.565   4.441
 2541SOL    HW1 7658   3.054   2.643   4.416
 2541SOL    HW2 7659   2.937   2.591   4.517
 2542SOL     OW 7660   3.617   2.469   3.955
 2542SOL    HW1 7661   3.605   2.456   3.856
 2542SOL    HW2 7662   3.587   2.388   4.004
 2543SOL     OW 7663   2.630   3.006   4.747
 2543SOL    HW1 7664   2.552   3.023   4.807
 2543SOL    HW2 7665   2.664   3.093   4.711
 2544SOL     OW 7666   2.547   2.874   4.389
 2544SOL    HW1 7667   2.616   2.858   4.459
 2544SOL    HW2 7668   2.474   2.931   4.427
 2545SOL     OW 7669   2.197   3.297   4.785
 2545SOL    HW1 7670   2.119   3.266   4.732
 2545SOL    HW2 7671   2.255   3.355   4.728
 2546SOL     OW 7672   3.465   2.309   4.461
 2546SOL    HW1 7673   3.391   2.355   4.411
 2546SOL    HW2 7674   3.516   2.377   4.514
 2547SOL     OW 7675   2.093   3.575   4.207
 2547SOL    HW1 7676   2.127   3.652   4.261
 2547SOL    HW2 7677   2.137   3.575   4.117
 2548SOL     OW 7678   2.092   3.296   4.262
 2548SOL    HW1 7679   2.066   3.392   4.262
 2548SOL    HW2 7680   2.021   3.242   4.307
 2549SOL     OW 7681   2.102   2.953   4.610
 2549SOL    HW1 7682   2.116   2.869   4.662
 2549SOL    HW2 7683   2.047   3.017   4.665
 2550SOL     OW 7684   2.468   2.826   3.847
 2550SOL    HW1 7685   2.475   2.910   3.793
 2550SOL    HW2 7686   2.514   2.839   3.935
 2551SOL     OW 7687   1.984   2.505   4.287
 2551SOL    HW1 7688   1.939   2.417   4.304
 2551SOL    HW2 7689   1.983   2.559   4.371
 2552SOL     OW 7690   3.704   3.629   4.083
 2552SOL    HW1 7691   3.758   3.600   4.163
 2552SOL    HW2 7692   3.734   3.719   4.054
 2553SOL     OW 7693   1.889   3.458   3.841
 2553SOL    HW1 7694   1.870   3.362   3.862
 2553SOL    HW2 7695   1.856   3.516   3.916
 2554SOL     OW 7696   3.551   2.784   4.336
 2554SOL    HW1 7697   3.646   2.755   4.344
 2554SOL    HW2 7698   3.543   2.849   4.261
 2555SOL     OW 7699   3.503   2.970   4.156
 2555SOL    HW1 7700   3.589   2.972   4.104
 2555SOL    HW2 7701   3.517   3.017   4.244
 2556SOL     OW 7702   1.975   2.599   5.321
 2556SOL    HW1 7703   2.063   2.586   5.366
 2556SOL    HW2 7704   1.962   2.696   5.299
 2557SOL     OW 7705   2.475   3.227   4.450
 2557SOL    HW1 7706   2.426   3.140   4.459
 2557SOL    HW2 7707   2.452   3.270   4.363
 2558SOL     OW 7708   2.671   1.866   4.226
 2558SOL    HW1 7709   2.711   1.957   4.217
 2558SOL    HW2 7710   2.571   1.874   4.232
 2559SOL     OW 7711   2.059   2.838   4.988
 2559SOL    HW1 7712   2.148   2.793   4.974
 2559SOL    HW2 7713   1.986   2.773   4.969
 2560SOL     OW 7714   3.387   2.861   3.914
 2560SOL    HW1 7715   3.324   2.785   3.927
 2560SOL    HW2 7716   3.435   2.879   4.000
 2561SOL     OW 7717   3.328   3.279   4.677
 2561SOL    HW1 7718   3.269   3.285   4.757
 2561SOL    HW2 7719   3.313   3.191   4.631
 2562SOL     OW 7720   3.529   3.576   4.296
 2562SOL    HW1 7721   3.488   3.553   4.208
 2562SOL    HW2 7722   3.511   3.502   4.361
 2563SOL     OW 7723   2.460   2.591   3.994
 2563SOL    HW1 7724   2.484   2.660   3.926
 2563SOL    HW2 7725   2.382   2.624   4.048
 2564SOL     OW 7726   3.143   2.207   4.668
 2564SOL    HW1 7727   3.057   2.157   4.655
 2564SOL    HW2 7728   3.205   2.153   4.724
 2565SOL     OW 7729   3.438   3.524   4.031
 2565SOL    HW1 7730   3.527   3.570   4.034
 2565SOL    HW2 7731   3.417   3.500   3.936
 2566SOL     OW 7732   2.853   2.272   4.966
 2566SOL    HW1 7733   2.776   2.306   5.020
 2566SOL    HW2 7734   2.819   2.221   4.887
 2567SOL     OW 7735   2.903   2.563   4.153
 2567SOL    HW1 7736   2.929   2.559   4.249
 2567SOL    HW2 7737   2.818   2.512   4.139
 2568SOL     OW 7738   1.938   2.673   4.513
 2568SOL    HW1 7739   2.037   2.661   4.522
 2568SOL    HW2 7740   1.914   2.768   4.534
 2569SOL     OW 7741   2.727   2.210   3.919
 2569SOL    HW1 7742   2.786   2.273   3.870
 2569SOL    HW2 7743   2.746   2.116   3.890
 2570SOL     OW 7744   3.224   3.006   4.269
 2570SOL    HW1 7745   3.307   2.977   4.221
 2570SOL    HW2 7746   3.175   3.073   4.213
 2571SOL     OW 7747   2.412   2.058   4.609
 2571SOL    HW1 7748   2.407   2.053   4.709
 2571SOL    HW2 7749   2.414   2.154   4.580
 2572SOL     OW 7750   2.870   3.318   4.201
 2572SOL    HW1 7751   2.824   3.390   4.149
 2572SOL    HW2 7752   2.866   3.338   4.299
 2573SOL     OW 7753   2.213   3.663   4.577
 2573SOL    HW1 7754   2.263   3.577   4.583
 2573SOL    HW2 7755   2.278   3.740   4.574
 2574SOL     OW 7756   3.657   2.928   4.597
 2574SOL    HW1 7757   3.595   2.913   4.521
 2574SOL    HW2 7758   3.605   2.939   4.682
 2575SOL     OW 7759   2.183   2.805   3.966
 2575SOL    HW1 7760   2.265   2.844   3.924
 2575SOL    HW2 7761   2.156   2.723   3.917
 2576SOL     OW 7762   3.320   2.597   4.452
 2576SOL    HW1 7763   3.315   2.532   4.527
 2576SOL    HW2 7764   3.400   2.656   4.465
 2577SOL     OW 7765   2.973   3.638   3.961
 2577SOL    HW1 7766   2.913   3.576   4.011
 2577SOL    HW2 7767   3.004   3.594   3.876
 2578SOL     OW 7768   3.494   3.239   3.805
 2578SOL    HW1 7769   3.462   3.333   3.795
 2578SOL    HW2 7770   3.418   3.176   3.793
 2579SOL     OW 7771   2.326   3.605   4.047
 2579SOL    HW1 7772   2.359   3.644   4.133
 2579SOL    HW2 7773   2.402   3.598   3.982
 2580SOL     OW 7774   3.262   1.969   4.150
 2580SOL    HW1 7775   3.238   1.932   4.060
 2580SOL    HW2 7776   3.361   1.985   4.154
 2581SOL     OW 7777   2.111   3.647   4.965
 2581SOL    HW1 7778   2.168   3.582   5.015
 2581SOL    HW2 7779   2.095   3.614   4.872
 2582SOL     OW 7780   2.802   3.560   4.628
 2582SOL    HW1 7781   2.882   3.503   4.649
 2582SOL    HW2 7782   2.753   3.520   4.551
 2583SOL     OW 7783   2.244   2.562   4.204
 2583SOL    HW1 7784   2.289   2.472   4.201
 2583SOL    HW2 7785   2.150   2.551   4.237
 2584SOL     OW 7786   2.476   1.984   3.841
 2584SOL    HW1 7787   2.574   1.962   3.848
 2584SOL    HW2 7788   2.445   1.967   3.748
 2585SOL     OW 7789   2.665   3.264   4.648
 2585SOL    HW1 7790   2.755   3.278   4.606
 2585SOL    HW2 7791   2.594   3.266   4.577
 2586SOL     OW 7792   2.784   2.365   4.623
 2586SOL    HW1 7793   2.759   2.356   4.527
 2586SOL    HW2 7794   2.832   2.283   4.654
 2587SOL     OW 7795   2.401   1.926   4.236
 2587SOL    HW1 7796   2.320   1.927   4.294
 2587SOL    HW2 7797   2.404   2.009   4.181
 2588SOL     OW 7798   3.296   3.050   3.765
 2588SOL    HW1 7799   3.328   2.974   3.822
 2588SOL    HW2 7800   3.204   3.077   3.795
 2589SOL     OW 7801   2.159   1.897   3.895
 2589SOL    HW1 7802   2.208   1.981   3.874
 2589SOL    HW2 7803   2.221   1.832   3.940
 2590SOL     OW 7804   2.797   2.098   4.204
 2590SOL    HW1 7805   2.749   2.139   4.126
 2590SOL    HW2 7806   2.896   2.096   4.185
 2591SOL     OW 7807   3.089   3.432   4.517
 2591SOL    HW1 7808   3.110   3.506   4.452
 2591SOL    HW2 7809   3.157   3.432   4.590
 2592SOL     OW 7810   2.321   3.014   4.465
 2592SOL    HW1 7811   2.250   2.987   4.530
 2592SOL    HW2 7812   2.295   2.986   4.372
 2593SOL     OW 7813   3.133   3.659   4.315
 2593SOL    HW1 7814   3.177   3.723   4.251
 2593SOL    HW2 7815   3.083   3.711   4.385
 2594SOL     OW 7816   2.894   2.411   3.740
 2594SOL    HW1 7817   2.853   2.493   3.701
 2594SOL    HW2 7818   2.958   2.437   3.813
 2595SOL     OW 7819   2.423   2.084   4.871
 2595SOL    HW1 7820   2.461   2.000   4.908
 2595SOL    HW2 7821   2.335   2.103   4.915
 2596SOL     OW 7822   2.728   2.316   4.366
 2596SOL    HW1 7823   2.696   2.388   4.304
 2596SOL    HW2 7824   2.752   2.235   4.313
 2597SOL     OW 7825   2.879   1.901   4.477
 2597SOL    HW1 7826   2.807   1.906   4.408
 2597SOL    HW2 7827   2.855   1.832   4.546
 2598SOL     OW 7828   3.291   3.035   4.591
 2598SOL    HW1 7829   3.236   2.951   4.584
 2598SOL    HW2 7830   3.317   3.064   4.499
 2599SOL     OW 7831   3.328   2.452   4.716
 2599SOL    HW1 7832   3.298   2.357   4.723
 2599SOL    HW2 7833   3.401   2.468   4.782
 2600SOL     OW 7834   3.719   2.695   4.101
 2600SOL    HW1 7835   3.761   2.631   4.165
 2600SOL    HW2 7836   3.681   2.644   4.023
 2601SOL     OW 7837   2.350   3.247   3.898
 2601SOL    HW1 7838   2.263   3.232   3.945
 2601SOL    HW2 7839   2.333   3.273   3.803
 2602SOL     OW 7840   3.526   3.142   4.381
 2602SOL    HW1 7841   3.625   3.150   4.395
 2602SOL    HW2 7842   3.481   3.226   4.412
 2603SOL     OW 7843   3.252   2.437   3.802
 2603SOL    HW1 7844   3.198   2.416   3.883
 2603SOL    HW2 7845   3.343   2.396   3.811
 2604SOL     OW 7846   2.389   2.118   4.052
 2604SOL    HW1 7847   2.416   2.059   3.977
 2604SOL    HW2 7848   2.389   2.213   4.021
 2605SOL     OW 7849   2.973   3.057   4.824
 2605SOL    HW1 7850   2.933   3.101   4.905
 2605SOL    HW2 7851   2.932   3.094   4.741
 2606SOL     OW 7852   3.500   2.961   4.803
 2606SOL    HW1 7853   3.505   3.042   4.862
 2606SOL    HW2 7854   3.414   2.963   4.752
 2607SOL     OW 7855   2.567   2.912   4.092
 2607SOL    HW1 7856   2.553   2.919   4.191
 2607SOL    HW2 7857   2.651   2.861   4.074
 2608SOL     OW 7858   2.272   2.675   4.975
 2608SOL    HW1 7859   2.358   2.687   5.025
 2608SOL    HW2 7860   2.230   2.588   5.002
 2609SOL     OW 7861   3.136   2.248   4.986
 2609SOL    HW1 7862   3.157   2.322   5.050
 2609SOL    HW2 7863   3.047   2.265   4.943
 2610SOL     OW 7864   2.229   2.962   4.225
 2610SOL    HW1 7865   2.222   3.045   4.169
 2610SOL    HW2 7866   2.233   2.882   4.165
 2611SOL     OW 7867   2.428   2.399   4.589
 2611SOL    HW1 7868   2.440   2.465   4.515
 2611SOL    HW2 7869   2.474   2.433   4.672
 2612SOL     OW 7870   3.114   3.210   4.112
 2612SOL    HW1 7871   3.164   3.287   4.152
 2612SOL    HW2 7872   3.019   3.212   4.144
 2613SOL     OW 7873   3.134   3.307   4.866
 2613SOL    HW1 7874   3.181   3.320   4.953
 2613SOL    HW2 7875   3.068   3.233   4.875
 2614SOL     OW 7876   3.444   2.501   4.196
 2614SOL    HW1 7877   3.413   2.562   4.269
 2614SOL    HW2 7878   3.494   2.553   4.127
 2615SOL     OW 7879   2.216   3.372   5.053
 2615SOL    HW1 7880   2.195   3.328   4.966
 2615SOL    HW2 7881   2.313   3.398   5.056
 2616SOL     OW 7882   2.435   2.732   4.753
 2616SOL    HW1 7883   2.479   2.821   4.744
 2616SOL    HW2 7884   2.372   2.732   4.830
 2617SOL     OW 7885   3.222   2.724   4.769
 2617SOL    HW1 7886   3.147   2.724   4.703
 2617SOL    HW2 7887   3.259   2.632   4.778
 2618SOL     OW 7888   3.071   2.387   3.999
 2618SOL    HW1 7889   3.084   2.303   4.053
 2618SOL    HW2 7890   3.042   2.461   4.059
 2619SOL     OW 7891   2.169   2.075   4.955
 2619SOL    HW1 7892   2.146   2.112   5.045
 2619SOL    HW2 7893   2.139   1.980   4.949
 2620SOL     OW 7894   1.899   3.172   5.006
 2620SOL    HW1 7895   1.952   3.123   5.074
 2620SOL    HW2 7896   1.921   3.270   5.011
 2621SOL     OW 7897   2.594   2.496   4.788
 2621SOL    HW1 7898   2.653   2.470   4.712
 2621SOL    HW2 7899   2.566   2.592   4.777
 2622SOL     OW 7900   2.169   1.925   4.342
 2622SOL    HW1 7901   2.158   2.019   4.375
 2622SOL    HW2 7902   2.164   1.862   4.419
 2623SOL     OW 7903   3.484   2.229   4.098
 2623SOL    HW1 7904   3.486   2.153   4.162
 2623SOL    HW2 7905   3.436   2.306   4.138
 2624SOL     OW 7906   2.885   2.628   4.690
 2624SOL    HW1 7907   2.900   2.649   4.786
 2624SOL    HW2 7908   2.855   2.533   4.681
 2625SOL     OW 7909   3.402   2.136   3.849
 2625SOL    HW1 7910   3.341   2.061   3.872
 2625SOL    HW2 7911   3.424   2.188   3.932
 2626SOL     OW 7912   3.165   2.700   3.766
 2626SOL    HW1 7913   3.199   2.607   3.781
 2626SOL    HW2 7914   3.183   2.727   3.671
 2627SOL     OW 7915   2.930   3.195   4.573
 2627SOL    HW1 7916   2.937   3.111   4.518
 2627SOL    HW2 7917   2.992   3.264   4.537
 2628SOL     OW 7918   2.181   2.672   4.673
 2628SOL    HW1 7919   2.274   2.708   4.678
 2628SOL    HW2 7920   2.175   2.587   4.725
 2629SOL     OW 7921   2.201   2.371   4.730
 2629SOL    HW1 7922   2.149   2.288   4.713
 2629SOL    HW2 7923   2.278   2.376   4.666
 2630SOL     OW 7924   3.022   2.069   5.201
 2630SOL    HW1 7925   3.022   2.133   5.278
 2630SOL    HW2 7926   3.050   2.117   5.118
 2631SOL     OW 7927   1.870   3.188   3.924
 2631SOL    HW1 7928   1.777   3.209   3.893
 2631SOL    HW2 7929   1.880   3.089   3.937
 2632SOL     OW 7930   1.950   3.663   4.651
 2632SOL    HW1 7931   1.908   3.577   4.624
 2632SOL    HW2 7932   2.044   3.666   4.617
 2633SOL     OW 7933   2.366   3.430   4.634
 2633SOL    HW1 7934   2.432   3.504   4.643
 2633SOL    HW2 7935   2.410   3.351   4.592
 2634SOL     OW 7936   2.864   2.658   4.962
 2634SOL    HW1 7937   2.905   2.626   5.048
 2634SOL    HW2 7938   2.768   2.631   4.959
 2635SOL     OW 7939   1.902   2.406   4.838
 2635SOL    HW1 7940   1.987   2.373   4.797
 2635SOL    HW2 7941   1.915   2.421   4.936
 2636SOL     OW 7942   2.677   2.434   4.049
 2636SOL    HW1 7943   2.684   2.345   4.003
 2636SOL    HW2 7944   2.583   2.468   4.041
 2637SOL     OW 7945   3.519   2.466   4.930
 2637SOL    HW1 7946   3.481   2.397   4.992
 2637SOL    HW2 7947   3.601   2.430   4.886
 2638SOL     OW 7948   2.533   2.326   4.993
 2638SOL    HW1 7949   2.499   2.237   4.963
 2638SOL    HW2 7950   2.559   2.380   4.913
 2639SOL     OW 7951   2.792   3.540   5.189
 2639SOL    HW1 7952   2.768   3.522   5.094
 2639SOL    HW2 7953   2.822   3.634   5.199
 2640SOL     OW 7954   2.335   2.362   3.915
 2640SOL    HW1 7955   2.396   2.442   3.919
 2640SOL    HW2 7956   2.240   2.393   3.922
 2641SOL     OW 7957   3.209   2.921   4.958
 2641SOL    HW1 7958   3.233   2.858   4.884
 2641SOL    HW2 7959   3.119   2.961   4.940
 2642SOL     OW 7960   3.164   2.717   4.033
 2642SOL    HW1 7961   3.078   2.686   4.075
 2642SOL    HW2 7962   3.160   2.703   3.934
 2643SOL     OW 7963   3.621   3.609   4.878
 2643SOL    HW1 7964   3.682   3.639   4.805
 2643SOL    HW2 7965   3.583   3.520   4.856
 2644SOL     OW 7966   3.114   3.593   4.852
 2644SOL    HW1 7967   3.198   3.598   4.798
 2644SOL    HW2 7968   3.091   3.497   4.870
 2645SOL     OW 7969   1.945   3.120   4.746
 2645SOL    HW1 7970   1.940   3.119   4.846
 2645SOL    HW2 7971   1.862   3.079   4.708
 2646SOL     OW 7972   3.588   1.997   4.247
 2646SOL    HW1 7973   3.661   1.980   4.180
 2646SOL    HW2 7974   3.557   1.910   4.285
 2647SOL     OW 7975   3.250   3.435   4.201
 2647SOL    HW1 7976   3.317   3.447   4.127
 2647SOL    HW2 7977   3.210   3.524   4.224
 2648SOL     OW 7978   3.142   2.789   4.396
 2648SOL    HW1 7979   3.202   2.708   4.398
 2648SOL    HW2 7980   3.182   2.858   4.336
 2649SOL     OW 7981   2.534   3.478   3.878
 2649SOL    HW1 7982   2.543   3.488   3.779
 2649SOL    HW2 7983   2.494   3.389   3.899
 2650SOL     OW 7984   3.512   3.582   5.118
 2650SOL    HW1 7985   3.565   3.592   5.034
 2650SOL    HW2 7986   3.485   3.672   5.152
 2651SOL     OW 7987   3.703   2.037   4.687
 2651SOL    HW1 7988   3.742   1.952   4.651
 2651SOL    HW2 7989   3.605   2.039   4.668
 2652SOL     OW 7990   2.125   2.188   4.444
 2652SOL    HW1 7991   2.046   2.239   4.410
 2652SOL    HW2 7992   2.116   2.173   4.542
 2653SOL     OW 7993   3.056   3.474   3.755
 2653SOL    HW1 7994   3.062   3.381   3.792
 2653SOL    HW2 7995   2.997   3.474   3.675
 2654SOL     OW 7996   2.684   2.864   5.096
 2654SOL    HW1 7997   2.724   2.863   5.004
 2654SOL    HW2 7998   2.694   2.956   5.136
 2655SOL     OW 7999   2.778   2.772   4.015
 2655SOL    HW1 8000   2.841   2.810   3.947
 2655SOL    HW2 8001   2.818   2.689   4.054
 2656SOL     OW 8002   3.366   3.469   3.768
 2656SOL    HW1 8003   3.274   3.506   3.775
 2656SOL    HW2 8004   3.404   3.489   3.678
 2657SOL     OW 8005   2.901   2.960   4.420
 2657SOL    HW1 8006   2.831   2.913   4.474
 2657SOL    HW2 8007   2.960   2.892   4.377
 2658SOL     OW 8008   2.876   2.098   4.695
 2658SOL    HW1 8009   2.868   2.062   4.602
 2658SOL    HW2 8010   2.874   2.022   4.760
 2659SOL     OW 8011   2.452   3.349   4.215
 2659SOL    HW1 8012   2.494   3.291   4.145
 2659SOL    HW2 8013   2.408   3.428   4.171
 2660SOL     OW 8014   3.571   2.247   5.105
 2660SOL    HW1 8015   3.644   2.316   5.109
 2660SOL    HW2 8016   3.599   2.172   5.046
 2661SOL     OW 8017   2.117   3.210   4.014
 2661SOL    HW1 8018   2.021   3.211   3.987
 2661SOL    HW2 8019   2.129   3.263   4.098
 2662SOL     OW 8020   1.937   2.207   3.757
 2662SOL    HW1 8021   1.845   2.179   3.728
 2662SOL    HW2 8022   1.968   2.284   3.701
 2663SOL     OW 8023   1.934   2.028   4.042
 2663SOL    HW1 8024   1.917   2.111   3.988
 2663SOL    HW2 8025   2.024   1.991   4.020
 2664SOL     OW 8026   3.045   3.197   3.843
 2664SOL    HW1 8027   2.946   3.186   3.845
 2664SOL    HW2 8028   3.079   3.212   3.936
 2665SOL     OW 8029   3.355   3.629   4.683
 2665SOL    HW1 8030   3.388   3.693   4.614
 2665SOL    HW2 8031   3.421   3.623   4.758
 2666SOL     OW 8032   3.536   2.745   4.978
 2666SOL    HW1 8033   3.509   2.656   4.941
 2666SOL    HW2 8034   3.537   2.813   4.905
 2667SOL     OW 8035   3.087   2.187   4.173
 2667SOL    HW1 8036   3.152   2.113   4.162
 2667SOL    HW2 8037   3.107   2.237   4.257
 2668SOL     OW 8038   2.456   2.607   4.376
 2668SOL    HW1 8039   2.506   2.692   4.357
 2668SOL    HW2 8040   2.368   2.609   4.328
 2669SOL     OW 8041   3.592   2.796   5.241
 2669SOL    HW1 8042   3.630   2.887   5.256
 2669SOL    HW2 8043   3.584   2.779   5.142
 2670SOL     OW 8044   2.721   3.236   3.740
 2670SOL    HW1 8045   2.675   3.251   3.828
 2670SOL    HW2 8046   2.765   3.321   3.710
 2671SOL     OW 8047   2.523   3.652   4.677
 2671SOL    HW1 8048   2.477   3.740   4.664
 2671SOL    HW2 8049   2.622   3.664   4.670
 2672SOL     OW 8050   2.721   2.818   4.585
 2672SOL    HW1 8051   2.775   2.749   4.633
 2672SOL    HW2 8052   2.689   2.887   4.651
 2673SOL     OW 8053   2.945   2.846   3.811
 2673SOL    HW1 8054   2.922   2.899   3.729
 2673SOL    HW2 8055   3.026   2.790   3.792
 2674SOL     OW 8056   3.723   3.431   4.575
 2674SOL    HW1 8057   3.652   3.419   4.505
 2674SOL    HW2 8058   3.724   3.352   4.635
 2675SOL     OW 8059   1.941   3.102   4.377
 2675SOL    HW1 8060   1.940   3.055   4.465
 2675SOL    HW2 8061   2.023   3.074   4.326
 2676SOL     OW 8062   3.686   2.054   4.951
 2676SOL    HW1 8063   3.682   1.964   4.995
 2676SOL    HW2 8064   3.689   2.043   4.852
 2677SOL     OW 8065   2.290   2.286   4.244
 2677SOL    HW1 8066   2.320   2.214   4.182
 2677SOL    HW2 8067   2.251   2.246   4.327
 2678SOL     OW 8068   3.567   3.349   4.828
 2678SOL    HW1 8069   3.474   3.324   4.801
 2678SOL    HW2 8070   3.593   3.299   4.910
 2679SOL     OW 8071   2.674   3.448   4.411
 2679SOL    HW1 8072   2.706   3.458   4.317
 2679SOL    HW2 8073   2.595   3.386   4.413
 2680SOL     OW 8074   3.286   2.076   4.836
 2680SOL    HW1 8075   3.338   2.011   4.891
 2680SOL    HW2 8076   3.237   2.139   4.897
 2681SOL     OW 8077   2.863   1.896   4.878
 2681SOL    HW1 8078   2.800   1.824   4.847
 2681SOL    HW2 8079   2.956   1.860   4.878
 2682SOL     OW 8080   2.632   3.192   4.025
 2682SOL    HW1 8081   2.586   3.105   4.042
 2682SOL    HW2 8082   2.723   3.189   4.066
 2683SOL     OW 8083   3.214   1.914   3.892
 2683SOL    HW1 8084   3.249   1.873   3.808
 2683SOL    HW2 8085   3.124   1.876   3.912
 2684SOL     OW 8086   3.162   2.315   4.415
 2684SOL    HW1 8087   3.103   2.395   4.419
 2684SOL    HW2 8088   3.177   2.280   4.508
 2685SOL     OW 8089   3.455   2.083   4.606
 2685SOL    HW1 8090   3.371   2.082   4.660
 2685SOL    HW2 8091   3.457   2.166   4.550
 2686SOL     OW 8092   1.901   2.939   4.024
 2686SOL    HW1 8093   2.000   2.928   4.015
 2686SOL    HW2 8094   1.861   2.853   4.056
 2687SOL     OW 8095   2.737   3.508   4.061
 2687SOL    HW1 8096   2.660   3.473   4.007
 2687SOL    HW2 8097   2.705   3.579   4.123
 2688SOL     OW 8098   2.092   4.352   0.113
 2688SOL    HW1 8099   1.999   4.350   0.150
 2688SOL    HW2 8100   2.093   4.313   0.021
 2689SOL     OW 8101   2.087   3.999   0.996
 2689SOL    HW1 8102   2.122   3.982   1.088
 2689SOL    HW2 8103   1.999   3.954   0.984
 2690SOL     OW 8104   1.881   4.092   0.647
 2690SOL    HW1 8105   1.799   4.135   0.686
 2690SOL    HW2 8106   1.853   4.019   0.584
 2691SOL     OW 8107   2.997   4.427   0.717
 2691SOL    HW1 8108   3.054   4.505   0.692
 2691SOL    HW2 8109   2.937   4.453   0.793
 2692SOL     OW 8110   3.617   4.331   0.231
 2692SOL    HW1 8111   3.605   4.318   0.132
 2692SOL    HW2 8112   3.587   4.250   0.280
 2693SOL     OW 8113   2.630   4.868   1.023
 2693SOL    HW1 8114   2.552   4.885   1.083
 2693SOL    HW2 8115   2.664   4.955   0.987
 2694SOL     OW 8116   2.712   4.522   1.823
 2694SOL    HW1 8117   2.708   4.598   1.888
 2694SOL    HW2 8118   2.734   4.558   1.732
 2695SOL     OW 8119   2.547   4.736   0.665
 2695SOL    HW1 8120   2.616   4.720   0.735
 2695SOL    HW2 8121   2.474   4.793   0.703
 2696SOL     OW 8122   2.548   4.885   1.803
 2696SOL    HW1 8123   2.608   4.964   1.817
 2696SOL    HW2 8124   2.462   4.916   1.762
 2697SOL     OW 8125   2.197   5.159   1.061
 2697SOL    HW1 8126   2.119   5.128   1.008
 2697SOL    HW2 8127   2.255   5.217   1.004
 2698SOL     OW 8128   2.300   4.116   1.499
 2698SOL    HW1 8129   2.382   4.060   1.508
 2698SOL    HW2 8130   2.219   4.058   1.503
 2699SOL     OW 8131   3.465   4.171   0.737
 2699SOL    HW1 8132   3.391   4.217   0.687
 2699SOL    HW2 8133   3.516   4.239   0.790
 2700SOL     OW 8134   2.102   4.815   0.886
 2700SOL    HW1 8135   2.116   4.731   0.938
 2700SOL    HW2 8136   2.047   4.879   0.941
 2701SOL     OW 8137   2.468   4.688   0.123
 2701SOL    HW1 8138   2.475   4.772   0.069
 2701SOL    HW2 8139   2.514   4.701   0.211
 2702SOL     OW 8140   3.456   3.838   1.480
 2702SOL    HW1 8141   3.438   3.905   1.408
 2702SOL    HW2 8142   3.453   3.884   1.569
 2703SOL     OW 8143   1.984   4.367   0.563
 2703SOL    HW1 8144   1.939   4.279   0.580
 2703SOL    HW2 8145   1.983   4.421   0.647
 2704SOL     OW 8146   3.551   4.646   0.612
 2704SOL    HW1 8147   3.646   4.617   0.620
 2704SOL    HW2 8148   3.543   4.711   0.537
 2705SOL     OW 8149   3.503   4.832   0.432
 2705SOL    HW1 8150   3.589   4.834   0.380
 2705SOL    HW2 8151   3.517   4.879   0.520
 2706SOL     OW 8152   1.975   4.461   1.597
 2706SOL    HW1 8153   2.063   4.448   1.642
 2706SOL    HW2 8154   1.962   4.558   1.575
 2707SOL     OW 8155   3.155   4.952   1.423
 2707SOL    HW1 8156   3.192   4.879   1.365
 2707SOL    HW2 8157   3.207   4.957   1.508
 2708SOL     OW 8158   2.671   3.728   0.502
 2708SOL    HW1 8159   2.711   3.819   0.493
 2708SOL    HW2 8160   2.571   3.736   0.508
 2709SOL     OW 8161   2.059   4.700   1.264
 2709SOL    HW1 8162   2.148   4.655   1.250
 2709SOL    HW2 8163   1.986   4.635   1.245
 2710SOL     OW 8164   3.387   4.723   0.190
 2710SOL    HW1 8165   3.324   4.647   0.203
 2710SOL    HW2 8166   3.435   4.741   0.276
 2711SOL     OW 8167   2.179   3.975   1.801
 2711SOL    HW1 8168   2.250   4.046   1.807
 2711SOL    HW2 8169   2.091   4.014   1.829
 2712SOL     OW 8170   2.460   4.453   0.270
 2712SOL    HW1 8171   2.484   4.522   0.202
 2712SOL    HW2 8172   2.382   4.486   0.324
 2713SOL     OW 8173   3.143   4.069   0.944
 2713SOL    HW1 8174   3.057   4.019   0.931
 2713SOL    HW2 8175   3.205   4.015   1.000
 2714SOL     OW 8176   2.669   4.329   1.465
 2714SOL    HW1 8177   2.622   4.326   1.554
 2714SOL    HW2 8178   2.618   4.274   1.399
 2715SOL     OW 8179   3.256   4.193   1.674
 2715SOL    HW1 8180   3.236   4.236   1.762
 2715SOL    HW2 8181   3.334   4.131   1.683
 2716SOL     OW 8182   2.835   4.614   1.572
 2716SOL    HW1 8183   2.881   4.530   1.543
 2716SOL    HW2 8184   2.779   4.648   1.497
 2717SOL     OW 8185   2.853   4.134   1.242
 2717SOL    HW1 8186   2.776   4.168   1.296
 2717SOL    HW2 8187   2.819   4.083   1.163
 2718SOL     OW 8188   2.903   4.425   0.429
 2718SOL    HW1 8189   2.929   4.421   0.525
 2718SOL    HW2 8190   2.818   4.374   0.415
 2719SOL     OW 8191   1.938   4.535   0.789
 2719SOL    HW1 8192   2.037   4.523   0.798
 2719SOL    HW2 8193   1.914   4.630   0.810
 2720SOL     OW 8194   2.727   4.072   0.195
 2720SOL    HW1 8195   2.786   4.135   0.146
 2720SOL    HW2 8196   2.746   3.978   0.166
 2721SOL     OW 8197   3.581   4.309   1.831
 2721SOL    HW1 8198   3.555   4.398   1.795
 2721SOL    HW2 8199   3.579   4.241   1.758
 2722SOL     OW 8200   3.224   4.868   0.545
 2722SOL    HW1 8201   3.307   4.839   0.497
 2722SOL    HW2 8202   3.175   4.935   0.489
 2723SOL     OW 8203   2.412   3.920   0.885
 2723SOL    HW1 8204   2.407   3.915   0.985
 2723SOL    HW2 8205   2.414   4.016   0.856
 2724SOL     OW 8206   3.657   4.790   0.873
 2724SOL    HW1 8207   3.595   4.775   0.797
 2724SOL    HW2 8208   3.605   4.801   0.958
 2725SOL     OW 8209   2.183   4.667   0.242
 2725SOL    HW1 8210   2.265   4.706   0.200
 2725SOL    HW2 8211   2.156   4.585   0.193
 2726SOL     OW 8212   3.320   4.459   0.728
 2726SOL    HW1 8213   3.315   4.394   0.803
 2726SOL    HW2 8214   3.400   4.518   0.741
 2727SOL     OW 8215   2.064   4.009   1.498
 2727SOL    HW1 8216   1.984   4.069   1.485
 2727SOL    HW2 8217   2.054   3.960   1.584
 2728SOL     OW 8218   3.262   3.831   0.426
 2728SOL    HW1 8219   3.238   3.794   0.336
 2728SOL    HW2 8220   3.361   3.847   0.430
 2729SOL     OW 8221   2.244   4.424   0.480
 2729SOL    HW1 8222   2.289   4.334   0.477
 2729SOL    HW2 8223   2.150   4.413   0.513
 2730SOL     OW 8224   3.409   3.946   1.729
 2730SOL    HW1 8225   3.404   3.983   1.821
 2730SOL    HW2 8226   3.337   3.877   1.717
 2731SOL     OW 8227   2.476   3.846   0.117
 2731SOL    HW1 8228   2.574   3.824   0.124
 2731SOL    HW2 8229   2.445   3.829   0.024
 2732SOL     OW 8230   2.643   3.988   1.749
 2732SOL    HW1 8231   2.710   3.927   1.792
 2732SOL    HW2 8232   2.570   4.007   1.814
 2733SOL     OW 8233   3.213   4.314   1.433
 2733SOL    HW1 8234   3.241   4.271   1.518
 2733SOL    HW2 8235   3.238   4.410   1.434
 2734SOL     OW 8236   2.665   5.126   0.924
 2734SOL    HW1 8237   2.755   5.140   0.882
 2734SOL    HW2 8238   2.594   5.128   0.853
 2735SOL     OW 8239   2.784   4.227   0.899
 2735SOL    HW1 8240   2.759   4.218   0.803
 2735SOL    HW2 8241   2.832   4.145   0.930
 2736SOL     OW 8242   2.401   3.788   0.512
 2736SOL    HW1 8243   2.320   3.789   0.570
 2736SOL    HW2 8244   2.404   3.871   0.457
 2737SOL     OW 8245   2.159   3.759   0.171
 2737SOL    HW1 8246   2.208   3.843   0.150
 2737SOL    HW2 8247   2.221   3.694   0.216
 2738SOL     OW 8248   2.797   3.960   0.480
 2738SOL    HW1 8249   2.749   4.001   0.402
 2738SOL    HW2 8250   2.896   3.958   0.461
 2739SOL     OW 8251   2.938   4.407   1.464
 2739SOL    HW1 8252   2.858   4.346   1.467
 2739SOL    HW2 8253   3.019   4.354   1.440
 2740SOL     OW 8254   2.321   4.876   0.741
 2740SOL    HW1 8255   2.250   4.849   0.806
 2740SOL    HW2 8256   2.295   4.848   0.648
 2741SOL     OW 8257   2.894   4.273   0.016
 2741SOL    HW1 8258   2.853   4.355  -0.023
 2741SOL    HW2 8259   2.958   4.299   0.089
 2742SOL     OW 8260   1.940   4.280   1.386
 2742SOL    HW1 8261   2.032   4.279   1.345
 2742SOL    HW2 8262   1.934   4.354   1.453
 2743SOL     OW 8263   2.423   3.946   1.147
 2743SOL    HW1 8264   2.461   3.862   1.184
 2743SOL    HW2 8265   2.335   3.965   1.191
 2744SOL     OW 8266   2.728   4.178   0.642
 2744SOL    HW1 8267   2.696   4.250   0.580
 2744SOL    HW2 8268   2.752   4.097   0.589
 2745SOL     OW 8269   2.879   3.763   0.753
 2745SOL    HW1 8270   2.807   3.768   0.684
 2745SOL    HW2 8271   2.855   3.694   0.822
 2746SOL     OW 8272   3.291   4.897   0.867
 2746SOL    HW1 8273   3.236   4.813   0.860
 2746SOL    HW2 8274   3.317   4.926   0.775
 2747SOL     OW 8275   3.328   4.314   0.992
 2747SOL    HW1 8276   3.298   4.219   0.999
 2747SOL    HW2 8277   3.401   4.330   1.058
 2748SOL     OW 8278   3.719   4.557   0.377
 2748SOL    HW1 8279   3.761   4.493   0.441
 2748SOL    HW2 8280   3.681   4.506   0.299
 2749SOL     OW 8281   3.252   4.299   0.078
 2749SOL    HW1 8282   3.198   4.278   0.159
 2749SOL    HW2 8283   3.343   4.258   0.087
 2750SOL     OW 8284   2.389   3.980   0.328
 2750SOL    HW1 8285   2.416   3.921   0.253
 2750SOL    HW2 8286   2.389   4.075   0.297
 2751SOL     OW 8287   3.616   4.947   1.588
 2751SOL    HW1 8288   3.707   4.908   1.575
 2751SOL    HW2 8289   3.624   5.043   1.612
 2752SOL     OW 8290   3.500   4.823   1.079
 2752SOL    HW1 8291   3.505   4.904   1.138
 2752SOL    HW2 8292   3.414   4.825   1.028
 2753SOL     OW 8293   2.777   3.813   1.402
 2753SOL    HW1 8294   2.802   3.793   1.307
 2753SOL    HW2 8295   2.849   3.869   1.444
 2754SOL     OW 8296   2.842   4.840   1.719
 2754SOL    HW1 8297   2.743   4.846   1.729
 2754SOL    HW2 8298   2.865   4.760   1.663
 2755SOL     OW 8299   2.567   4.774   0.368
 2755SOL    HW1 8300   2.553   4.781   0.467
 2755SOL    HW2 8301   2.651   4.723   0.350
 2756SOL     OW 8302   2.272   4.537   1.251
 2756SOL    HW1 8303   2.358   4.549   1.301
 2756SOL    HW2 8304   2.230   4.450   1.278
 2757SOL     OW 8305   3.136   4.110   1.262
 2757SOL    HW1 8306   3.157   4.184   1.326
 2757SOL    HW2 8307   3.047   4.127   1.219
 2758SOL     OW 8308   2.229   4.824   0.501
 2758SOL    HW1 8309   2.222   4.907   0.445
 2758SOL    HW2 8310   2.233   4.744   0.441
 2759SOL     OW 8311   2.428   4.261   0.865
 2759SOL    HW1 8312   2.440   4.327   0.791
 2759SOL    HW2 8313   2.474   4.295   0.948
 2760SOL     OW 8314   3.444   4.363   0.472
 2760SOL    HW1 8315   3.413   4.424   0.545
 2760SOL    HW2 8316   3.494   4.415   0.403
 2761SOL     OW 8317   2.264   4.475   1.598
 2761SOL    HW1 8318   2.332   4.530   1.551
 2761SOL    HW2 8319   2.304   4.387   1.625
 2762SOL     OW 8320   3.449   4.503   1.670
 2762SOL    HW1 8321   3.357   4.541   1.665
 2762SOL    HW2 8322   3.509   4.550   1.605
 2763SOL     OW 8323   2.875   3.829   1.770
 2763SOL    HW1 8324   2.881   3.914   1.718
 2763SOL    HW2 8325   2.907   3.753   1.713
 2764SOL     OW 8326   2.366   3.774   1.740
 2764SOL    HW1 8327   2.324   3.717   1.670
 2764SOL    HW2 8328   2.300   3.843   1.772
 2765SOL     OW 8329   2.435   4.594   1.029
 2765SOL    HW1 8330   2.479   4.683   1.020
 2765SOL    HW2 8331   2.372   4.594   1.106
 2766SOL     OW 8332   3.222   4.586   1.045
 2766SOL    HW1 8333   3.147   4.586   0.979
 2766SOL    HW2 8334   3.259   4.494   1.054
 2767SOL     OW 8335   3.071   4.249   0.275
 2767SOL    HW1 8336   3.084   4.165   0.329
 2767SOL    HW2 8337   3.042   4.323   0.335
 2768SOL     OW 8338   2.169   3.937   1.231
 2768SOL    HW1 8339   2.146   3.974   1.321
 2768SOL    HW2 8340   2.139   3.842   1.225
 2769SOL     OW 8341   2.594   4.358   1.064
 2769SOL    HW1 8342   2.653   4.332   0.988
 2769SOL    HW2 8343   2.566   4.454   1.053
 2770SOL     OW 8344   3.590   4.659   1.854
 2770SOL    HW1 8345   3.544   4.652   1.765
 2770SOL    HW2 8346   3.528   4.703   1.920
 2771SOL     OW 8347   2.169   3.787   0.618
 2771SOL    HW1 8348   2.158   3.881   0.651
 2771SOL    HW2 8349   2.164   3.724   0.695
 2772SOL     OW 8350   3.484   4.091   0.374
 2772SOL    HW1 8351   3.486   4.015   0.438
 2772SOL    HW2 8352   3.436   4.168   0.414
 2773SOL     OW 8353   2.885   4.490   0.966
 2773SOL    HW1 8354   2.900   4.511   1.062
 2773SOL    HW2 8355   2.855   4.395   0.957
 2774SOL     OW 8356   3.721   5.242   1.605
 2774SOL    HW1 8357   3.735   5.269   1.510
 2774SOL    HW2 8358   3.804   5.264   1.658
 2775SOL     OW 8359   2.212   4.622   1.804
 2775SOL    HW1 8360   2.288   4.666   1.852
 2775SOL    HW2 8361   2.247   4.575   1.722
 2776SOL     OW 8362   3.402   3.998   0.125
 2776SOL    HW1 8363   3.341   3.923   0.148
 2776SOL    HW2 8364   3.424   4.050   0.208
 2777SOL     OW 8365   3.165   4.562   0.042
 2777SOL    HW1 8366   3.199   4.469   0.057
 2777SOL    HW2 8367   3.183   4.589  -0.053
 2778SOL     OW 8368   2.181   4.534   0.949
 2778SOL    HW1 8369   2.274   4.570   0.954
 2778SOL    HW2 8370   2.175   4.449   1.001
 2779SOL     OW 8371   2.201   4.233   1.006
 2779SOL    HW1 8372   2.149   4.150   0.989
 2779SOL    HW2 8373   2.278   4.238   0.942
 2780SOL     OW 8374   3.000   4.104   1.678
 2780SOL    HW1 8375   2.955   4.167   1.742
 2780SOL    HW2 8376   3.093   4.135   1.661
 2781SOL     OW 8377   3.022   3.931   1.477
 2781SOL    HW1 8378   3.022   3.995   1.554
 2781SOL    HW2 8379   3.050   3.979   1.394
 2782SOL     OW 8380   2.864   4.520   1.238
 2782SOL    HW1 8381   2.905   4.488   1.324
 2782SOL    HW2 8382   2.768   4.493   1.235
 2783SOL     OW 8383   1.902   4.268   1.114
 2783SOL    HW1 8384   1.987   4.235   1.073
 2783SOL    HW2 8385   1.915   4.283   1.212
 2784SOL     OW 8386   2.051   4.244   1.722
 2784SOL    HW1 8387   2.110   4.204   1.652
 2784SOL    HW2 8388   1.993   4.315   1.681
 2785SOL     OW 8389   3.231   4.674   1.660
 2785SOL    HW1 8390   3.270   4.763   1.680
 2785SOL    HW2 8391   3.241   4.654   1.563
 2786SOL     OW 8392   2.677   4.296   0.325
 2786SOL    HW1 8393   2.684   4.207   0.279
 2786SOL    HW2 8394   2.583   4.330   0.317
 2787SOL     OW 8395   3.519   4.328   1.206
 2787SOL    HW1 8396   3.481   4.259   1.268
 2787SOL    HW2 8397   3.601   4.292   1.162
 2788SOL     OW 8398   2.533   4.188   1.269
 2788SOL    HW1 8399   2.499   4.099   1.239
 2788SOL    HW2 8400   2.559   4.242   1.189
 2789SOL     OW 8401   2.335   4.224   0.191
 2789SOL    HW1 8402   2.396   4.304   0.195
 2789SOL    HW2 8403   2.240   4.255   0.198
 2790SOL     OW 8404   2.021   4.861   1.466
 2790SOL    HW1 8405   2.043   4.800   1.542
 2790SOL    HW2 8406   2.031   4.812   1.380
 2791SOL     OW 8407   3.209   4.783   1.234
 2791SOL    HW1 8408   3.233   4.720   1.160
 2791SOL    HW2 8409   3.119   4.823   1.216
 2792SOL     OW 8410   3.164   4.579   0.309
 2792SOL    HW1 8411   3.078   4.548   0.351
 2792SOL    HW2 8412   3.160   4.565   0.210
 2793SOL     OW 8413   1.945   4.982   1.022
 2793SOL    HW1 8414   1.940   4.981   1.122
 2793SOL    HW2 8415   1.862   4.941   0.984
 2794SOL     OW 8416   2.765   3.810   0.133
 2794SOL    HW1 8417   2.816   3.811   0.047
 2794SOL    HW2 8418   2.821   3.768   0.204
 2795SOL     OW 8419   3.588   3.859   0.523
 2795SOL    HW1 8420   3.661   3.842   0.456
 2795SOL    HW2 8421   3.557   3.772   0.561
 2796SOL     OW 8422   3.142   4.651   0.672
 2796SOL    HW1 8423   3.202   4.570   0.674
 2796SOL    HW2 8424   3.182   4.720   0.612
 2797SOL     OW 8425   3.703   3.899   0.963
 2797SOL    HW1 8426   3.742   3.814   0.927
 2797SOL    HW2 8427   3.605   3.901   0.944
 2798SOL     OW 8428   2.125   4.050   0.720
 2798SOL    HW1 8429   2.046   4.101   0.686
 2798SOL    HW2 8430   2.116   4.035   0.818
 2799SOL     OW 8431   2.684   4.726   1.372
 2799SOL    HW1 8432   2.724   4.725   1.280
 2799SOL    HW2 8433   2.694   4.818   1.412
 2800SOL     OW 8434   2.778   4.634   0.291
 2800SOL    HW1 8435   2.841   4.672   0.223
 2800SOL    HW2 8436   2.818   4.551   0.330
 2801SOL     OW 8437   2.234   5.012   1.490
 2801SOL    HW1 8438   2.221   5.105   1.456
 2801SOL    HW2 8439   2.150   4.960   1.477
 2802SOL     OW 8440   3.476   5.016   1.289
 2802SOL    HW1 8441   3.536   5.019   1.369
 2802SOL    HW2 8442   3.401   5.080   1.302
 2803SOL     OW 8443   2.901   4.822   0.696
 2803SOL    HW1 8444   2.831   4.775   0.750
 2803SOL    HW2 8445   2.960   4.754   0.653
 2804SOL     OW 8446   2.876   3.960   0.971
 2804SOL    HW1 8447   2.868   3.924   0.878
 2804SOL    HW2 8448   2.874   3.884   1.036
 2805SOL     OW 8449   3.571   4.109   1.381
 2805SOL    HW1 8450   3.644   4.178   1.385
 2805SOL    HW2 8451   3.599   4.034   1.322
 2806SOL     OW 8452   1.967   4.737   1.726
 2806SOL    HW1 8453   1.890   4.704   1.780
 2806SOL    HW2 8454   2.052   4.707   1.768
 2807SOL     OW 8455   2.534   3.927   1.489
 2807SOL    HW1 8456   2.624   3.911   1.449
 2807SOL    HW2 8457   2.542   3.932   1.588
 2808SOL     OW 8458   3.302   4.580   1.398
 2808SOL    HW1 8459   3.245   4.632   1.335
 2808SOL    HW2 8460   3.398   4.592   1.374
 2809SOL     OW 8461   1.934   3.890   0.318
 2809SOL    HW1 8462   1.917   3.973   0.264
 2809SOL    HW2 8463   2.024   3.853   0.296
 2810SOL     OW 8464   2.475   4.566   1.431
 2810SOL    HW1 8465   2.531   4.647   1.414
 2810SOL    HW2 8466   2.534   4.486   1.434
 2811SOL     OW 8467   2.578   4.289   1.708
 2811SOL    HW1 8468   2.597   4.354   1.782
 2811SOL    HW2 8469   2.638   4.209   1.717
 2812SOL     OW 8470   3.312   4.944   1.633
 2812SOL    HW1 8471   3.303   4.934   1.732
 2812SOL    HW2 8472   3.408   4.937   1.607
 2813SOL     OW 8473   3.536   4.607   1.254
 2813SOL    HW1 8474   3.509   4.518   1.217
 2813SOL    HW2 8475   3.537   4.675   1.181
 2814SOL     OW 8476   3.087   4.049   0.449
 2814SOL    HW1 8477   3.152   3.975   0.438
 2814SOL    HW2 8478   3.107   4.099   0.533
 2815SOL     OW 8479   2.456   4.469   0.652
 2815SOL    HW1 8480   2.506   4.554   0.633
 2815SOL    HW2 8481   2.368   4.471   0.604
 2816SOL     OW 8482   3.639   4.066   1.642
 2816SOL    HW1 8483   3.622   4.097   1.548
 2816SOL    HW2 8484   3.555   4.029   1.680
 2817SOL     OW 8485   3.592   4.658   1.517
 2817SOL    HW1 8486   3.630   4.749   1.532
 2817SOL    HW2 8487   3.584   4.641   1.418
 2818SOL     OW 8488   2.721   4.680   0.861
 2818SOL    HW1 8489   2.775   4.611   0.909
 2818SOL    HW2 8490   2.689   4.749   0.927
 2819SOL     OW 8491   2.945   4.708   0.087
 2819SOL    HW1 8492   2.922   4.761   0.005
 2819SOL    HW2 8493   3.026   4.652   0.068
 2820SOL     OW 8494   1.941   4.964   0.653
 2820SOL    HW1 8495   1.940   4.917   0.741
 2820SOL    HW2 8496   2.023   4.936   0.602
 2821SOL     OW 8497   3.686   3.916   1.227
 2821SOL    HW1 8498   3.682   3.826   1.271
 2821SOL    HW2 8499   3.689   3.905   1.128
 2822SOL     OW 8500   2.290   4.148   0.520
 2822SOL    HW1 8501   2.320   4.076   0.458
 2822SOL    HW2 8502   2.251   4.108   0.603
 2823SOL     OW 8503   2.179   4.271   1.280
 2823SOL    HW1 8504   2.217   4.212   1.352
 2823SOL    HW2 8505   2.219   4.245   1.192
 2824SOL     OW 8506   3.286   3.938   1.112
 2824SOL    HW1 8507   3.338   3.873   1.167
 2824SOL    HW2 8508   3.237   4.001   1.173
 2825SOL     OW 8509   2.863   3.758   1.154
 2825SOL    HW1 8510   2.800   3.686   1.123
 2825SOL    HW2 8511   2.956   3.722   1.154
 2826SOL     OW 8512   2.632   5.054   0.301
 2826SOL    HW1 8513   2.586   4.967   0.318
 2826SOL    HW2 8514   2.723   5.051   0.342
 2827SOL     OW 8515   3.214   3.776   0.168
 2827SOL    HW1 8516   3.249   3.735   0.084
 2827SOL    HW2 8517   3.124   3.738   0.188
 2828SOL     OW 8518   3.162   4.177   0.691
 2828SOL    HW1 8519   3.103   4.257   0.695
 2828SOL    HW2 8520   3.177   4.142   0.784
 2829SOL     OW 8521   3.455   3.945   0.882
 2829SOL    HW1 8522   3.371   3.944   0.936
 2829SOL    HW2 8523   3.457   4.028   0.826
 2830SOL     OW 8524   1.901   4.801   0.300
 2830SOL    HW1 8525   2.000   4.790   0.291
 2830SOL    HW2 8526   1.861   4.715   0.332
 2831SOL     OW 8527   2.092   4.352   1.975
 2831SOL    HW1 8528   1.999   4.350   2.012
 2831SOL    HW2 8529   2.093   4.313   1.883
 2832SOL     OW 8530   2.087   3.999   2.858
 2832SOL    HW1 8531   2.122   3.982   2.950
 2832SOL    HW2 8532   1.999   3.954   2.846
 2833SOL     OW 8533   1.881   4.092   2.509
 2833SOL    HW1 8534   1.799   4.135   2.548
 2833SOL    HW2 8535   1.853   4.019   2.446
 2834SOL     OW 8536   2.997   4.427   2.579
 2834SOL    HW1 8537   3.054   4.505   2.554
 2834SOL    HW2 8538   2.937   4.453   2.655
 2835SOL     OW 8539   3.617   4.331   2.093
 2835SOL    HW1 8540   3.605   4.318   1.994
 2835SOL    HW2 8541   3.587   4.250   2.142
 2836SOL     OW 8542   2.630   4.868   2.885
 2836SOL    HW1 8543   2.552   4.885   2.945
 2836SOL    HW2 8544   2.664   4.955   2.849
 2837SOL     OW 8545   2.712   4.522   3.685
 2837SOL    HW1 8546   2.708   4.598   3.750
 2837SOL    HW2 8547   2.734   4.558   3.594
 2838SOL     OW 8548   2.547   4.736   2.527
 2838SOL    HW1 8549   2.616   4.720   2.597
 2838SOL    HW2 8550   2.474   4.793   2.565
 2839SOL     OW 8551   2.548   4.885   3.665
 2839SOL    HW1 8552   2.608   4.964   3.679
 2839SOL    HW2 8553   2.462   4.916   3.624
 2840SOL     OW 8554   2.197   5.159   2.923
 2840SOL    HW1 8555   2.119   5.128   2.870
 2840SOL    HW2 8556   2.255   5.217   2.866
 2841SOL     OW 8557   2.300   4.116   3.361
 2841SOL    HW1 8558   2.382   4.060   3.370
 2841SOL    HW2 8559   2.219   4.058   3.365
 2842SOL     OW 8560   3.465   4.171   2.599
 2842SOL    HW1 8561   3.391   4.217   2.549
 2842SOL    HW2 8562   3.516   4.239   2.652
 2843SOL     OW 8563   2.102   4.815   2.748
 2843SOL    HW1 8564   2.116   4.731   2.800
 2843SOL    HW2 8565   2.047   4.879   2.803
 2844SOL     OW 8566   2.468   4.688   1.985
 2844SOL    HW1 8567   2.475   4.772   1.931
 2844SOL    HW2 8568   2.514   4.701   2.073
 2845SOL     OW 8569   3.456   3.838   3.342
 2845SOL    HW1 8570   3.438   3.905   3.270
 2845SOL    HW2 8571   3.453   3.884   3.431
 2846SOL     OW 8572   1.984   4.367   2.425
 2846SOL    HW1 8573   1.939   4.279   2.442
 2846SOL    HW2 8574   1.983   4.421   2.509
 2847SOL     OW 8575   3.551   4.646   2.474
 2847SOL    HW1 8576   3.646   4.617   2.482
 2847SOL    HW2 8577   3.543   4.711   2.399
 2848SOL     OW 8578   3.503   4.832   2.294
 2848SOL    HW1 8579   3.589   4.834   2.242
 2848SOL    HW2 8580   3.517   4.879   2.382
 2849SOL     OW 8581   1.975   4.461   3.459
 2849SOL    HW1 8582   2.063   4.448   3.504
 2849SOL    HW2 8583   1.962   4.558   3.437
 2850SOL     OW 8584   3.155   4.952   3.285
 2850SOL    HW1 8585   3.192   4.879   3.227
 2850SOL    HW2 8586   3.207   4.957   3.370
 2851SOL     OW 8587   2.671   3.728   2.364
 2851SOL    HW1 8588   2.711   3.819   2.355
 2851SOL    HW2 8589   2.571   3.736   2.370
 2852SOL     OW 8590   2.059   4.700   3.126
 2852SOL    HW1 8591   2.148   4.655   3.112
 2852SOL    HW2 8592   1.986   4.635   3.107
 2853SOL     OW 8593   3.387   4.723   2.052
 2853SOL    HW1 8594   3.324   4.647   2.065
 2853SOL    HW2 8595   3.435   4.741   2.138
 2854SOL     OW 8596   2.179   3.975   3.663
 2854SOL    HW1 8597   2.250   4.046   3.669
 2854SOL    HW2 8598   2.091   4.014   3.691
 2855SOL     OW 8599   2.460   4.453   2.132
 2855SOL    HW1 8600   2.484   4.522   2.064
 2855SOL    HW2 8601   2.382   4.486   2.186
 2856SOL     OW 8602   3.143   4.069   2.806
 2856SOL    HW1 8603   3.057   4.019   2.793
 2856SOL    HW2 8604   3.205   4.015   2.862
 2857SOL     OW 8605   2.669   4.329   3.327
 2857SOL    HW1 8606   2.622   4.326   3.416
 2857SOL    HW2 8607   2.618   4.274   3.261
 2858SOL     OW 8608   3.256   4.193   3.536
 2858SOL    HW1 8609   3.236   4.236   3.624
 2858SOL    HW2 8610   3.334   4.131   3.545
 2859SOL     OW 8611   2.835   4.614   3.434
 2859SOL    HW1 8612   2.881   4.530   3.405
 2859SOL    HW2 8613   2.779   4.648   3.359
 2860SOL     OW 8614   2.853   4.134   3.104
 2860SOL    HW1 8615   2.776   4.168   3.158
 2860SOL    HW2 8616   2.819   4.083   3.025
 2861SOL     OW 8617   2.903   4.425   2.291
 2861SOL    HW1 8618   2.929   4.421   2.387
 2861SOL    HW2 8619   2.818   4.374   2.277
 2862SOL     OW 8620   1.938   4.535   2.651
 2862SOL    HW1 8621   2.037   4.523   2.660
 2862SOL    HW2 8622   1.914   4.630   2.672
 2863SOL     OW 8623   2.727   4.072   2.057
 2863SOL    HW1 8624   2.786   4.135   2.008
 2863SOL    HW2 8625   2.746   3.978   2.028
 2864SOL     OW 8626   3.581   4.309   3.693
 2864SOL    HW1 8627   3.555   4.398   3.657
 2864SOL    HW2 8628   3.579   4.241   3.620
 2865SOL     OW 8629   3.224   4.868   2.407
 2865SOL    HW1 8630   3.307   4.839   2.359
 2865SOL    HW2 8631   3.175   4.935   2.351
 2866SOL     OW 8632   2.412   3.920   2.747
 2866SOL    HW1 8633   2.407   3.915   2.847
 2866SOL    HW2 8634   2.414   4.016   2.718
 2867SOL     OW 8635   3.657   4.790   2.735
 2867SOL    HW1 8636   3.595   4.775   2.659
 2867SOL    HW2 8637   3.605   4.801   2.820
 2868SOL     OW 8638   2.183   4.667   2.104
 2868SOL    HW1 8639   2.265   4.706   2.062
 2868SOL    HW2 8640   2.156   4.585   2.055
 2869SOL     OW 8641   3.320   4.459   2.590
 2869SOL    HW1 8642   3.315   4.394   2.665
 2869SOL    HW2 8643   3.400   4.518   2.603
 2870SOL     OW 8644   2.064   4.009   3.360
 2870SOL    HW1 8645   1.984   4.069   3.347
 2870SOL    HW2 8646   2.054   3.960   3.446
 2871SOL     OW 8647   3.262   3.831   2.288
 2871SOL    HW1 8648   3.238   3.794   2.198
 2871SOL    HW2 8649   3.361   3.847   2.292
 2872SOL     OW 8650   2.244   4.424   2.342
 2872SOL    HW1 8651   2.289   4.334   2.339
 2872SOL    HW2 8652   2.150   4.413   2.375
 2873SOL     OW 8653   3.409   3.946   3.591
 2873SOL    HW1 8654   3.404   3.983   3.683
 2873SOL    HW2 8655   3.337   3.877   3.579
 2874SOL     OW 8656   2.476   3.846   1.979
 2874SOL    HW1 8657   2.574   3.824   1.986
 2874SOL    HW2 8658   2.445   3.829   1.886
 2875SOL     OW 8659   2.643   3.988   3.611
 2875SOL    HW1 8660   2.710   3.927   3.654
 2875SOL    HW2 8661   2.570   4.007   3.676
 2876SOL     OW 8662   3.213   4.314   3.295
 2876SOL    HW1 8663   3.241   4.271   3.380
 2876SOL    HW2 8664   3.238   4.410   3.296
 2877SOL     OW 8665   2.665   5.126   2.786
 2877SOL    HW1 8666   2.755   5.140   2.744
 2877SOL    HW2 8667   2.594   5.128   2.715
 2878SOL     OW 8668   2.784   4.227   2.761
 2878SOL    HW1 8669   2.759   4.218   2.665
 2878SOL    HW2 8670   2.832   4.145   2.792
 2879SOL     OW 8671   2.401   3.788   2.374
 2879SOL    HW1 8672   2.320   3.789   2.432
 2879SOL    HW2 8673   2.404   3.871   2.319
 2880SOL     OW 8674   2.159   3.759   2.033
 2880SOL    HW1 8675   2.208   3.843   2.012
 2880SOL    HW2 8676   2.221   3.694   2.078
 2881SOL     OW 8677   2.797   3.960   2.342
 2881SOL    HW1 8678   2.749   4.001   2.264
 2881SOL    HW2 8679   2.896   3.958   2.323
 2882SOL     OW 8680   2.938   4.407   3.326
 2882SOL    HW1 8681   2.858   4.346   3.329
 2882SOL    HW2 8682   3.019   4.354   3.302
 2883SOL     OW 8683   2.321   4.876   2.603
 2883SOL    HW1 8684   2.250   4.849   2.668
 2883SOL    HW2 8685   2.295   4.848   2.510
 2884SOL     OW 8686   2.894   4.273   1.878
 2884SOL    HW1 8687   2.853   4.355   1.839
 2884SOL    HW2 8688   2.958   4.299   1.951
 2885SOL     OW 8689   1.940   4.280   3.248
 2885SOL    HW1 8690   2.032   4.279   3.207
 2885SOL    HW2 8691   1.934   4.354   3.315
 2886SOL     OW 8692   2.423   3.946   3.009
 2886SOL    HW1 8693   2.461   3.862   3.046
 2886SOL    HW2 8694   2.335   3.965   3.053
 2887SOL     OW 8695   2.728   4.178   2.504
 2887SOL    HW1 8696   2.696   4.250   2.442
 2887SOL    HW2 8697   2.752   4.097   2.451
 2888SOL     OW 8698   2.879   3.763   2.615
 2888SOL    HW1 8699   2.807   3.768   2.546
 2888SOL    HW2 8700   2.855   3.694   2.684
 2889SOL     OW 8701   3.291   4.897   2.729
 2889SOL    HW1 8702   3.236   4.813   2.722
 2889SOL    HW2 8703   3.317   4.926   2.637
 2890SOL     OW 8704   3.328   4.314   2.854
 2890SOL    HW1 8705   3.298   4.219   2.861
 2890SOL    HW2 8706   3.401   4.330   2.920
 2891SOL     OW 8707   3.719   4.557   2.239
 2891SOL    HW1 8708   3.761   4.493   2.303
 2891SOL    HW2 8709   3.681   4.506   2.161
 2892SOL     OW 8710   3.252   4.299   1.940
 2892SOL    HW1 8711   3.198   4.278   2.021
 2892SOL    HW2 8712   3.343   4.258   1.949
 2893SOL     OW 8713   2.389   3.980   2.190
 2893SOL    HW1 8714   2.416   3.921   2.115
 2893SOL    HW2 8715   2.389   4.075   2.159
 2894SOL     OW 8716   3.616   4.947   3.450
 2894SOL    HW1 8717   3.707   4.908   3.437
 2894SOL    HW2 8718   3.624   5.043   3.474
 2895SOL     OW 8719   3.500   4.823   2.941
 2895SOL    HW1 8720   3.505   4.904   3.000
 2895SOL    HW2 8721   3.414   4.825   2.890
 2896SOL     OW 8722   2.777   3.813   3.264
 2896SOL    HW1 8723   2.802   3.793   3.169
 2896SOL    HW2 8724   2.849   3.869   3.306
 2897SOL     OW 8725   2.842   4.840   3.581
 2897SOL    HW1 8726   2.743   4.846   3.591
 2897SOL    HW2 8727   2.865   4.760   3.525
 2898SOL     OW 8728   2.567   4.774   2.230
 2898SOL    HW1 8729   2.553   4.781   2.329
 2898SOL    HW2 8730   2.651   4.723   2.212
 2899SOL     OW 8731   2.272   4.537   3.113
 2899SOL    HW1 8732   2.358   4.549   3.163
 2899SOL    HW2 8733   2.230   4.450   3.140
 2900SOL     OW 8734   3.136   4.110   3.124
 2900SOL    HW1 8735   3.157   4.184   3.188
 2900SOL    HW2 8736   3.047   4.127   3.081
 2901SOL     OW 8737   2.229   4.824   2.363
 2901SOL    HW1 8738   2.222   4.907   2.307
 2901SOL    HW2 8739   2.233   4.744   2.303
 2902SOL     OW 8740   2.428   4.261   2.727
 2902SOL    HW1 8741   2.440   4.327   2.653
 2902SOL    HW2 8742   2.474   4.295   2.810
 2903SOL     OW 8743   3.444   4.363   2.334
 2903SOL    HW1 8744   3.413   4.424   2.407
 2903SOL    HW2 8745   3.494   4.415   2.265
 2904SOL     OW 8746   2.264   4.475   3.460
 2904SOL    HW1 8747   2.332   4.530   3.413
 2904SOL    HW2 8748   2.304   4.387   3.487
 2905SOL     OW 8749   3.449   4.503   3.532
 2905SOL    HW1 8750   3.357   4.541   3.527
 2905SOL    HW2 8751   3.509   4.550   3.467
 2906SOL     OW 8752   2.875   3.829   3.632
 2906SOL    HW1 8753   2.881   3.914   3.580
 2906SOL    HW2 8754   2.907   3.753   3.575
 2907SOL     OW 8755   2.366   3.774   3.602
 2907SOL    HW1 8756   2.324   3.717   3.532
 2907SOL    HW2 8757   2.300   3.843   3.634
 2908SOL     OW 8758   2.435   4.594   2.891
 2908SOL    HW1 8759   2.479   4.683   2.882
 2908SOL    HW2 8760   2.372   4.594   2.968
 2909SOL     OW 8761   3.222   4.586   2.907
 2909SOL    HW1 8762   3.147   4.586   2.841
 2909SOL    HW2 8763   3.259   4.494   2.916
 2910SOL     OW 8764   3.071   4.249   2.137
 2910SOL    HW1 8765   3.084   4.165   2.191
 2910SOL    HW2 8766   3.042   4.323   2.197
 2911SOL     OW 8767   2.169   3.937   3.093
 2911SOL    HW1 8768   2.146   3.974   3.183
 2911SOL    HW2 8769   2.139   3.842   3.087
 2912SOL     OW 8770   2.594   4.358   2.926
 2912SOL    HW1 8771   2.653   4.332   2.850
 2912SOL    HW2 8772   2.566   4.454   2.915
 2913SOL     OW 8773   3.590   4.659   3.716
 2913SOL    HW1 8774   3.544   4.652   3.627
 2913SOL    HW2 8775   3.528   4.703   3.782
 2914SOL     OW 8776   2.169   3.787   2.480
 2914SOL    HW1 8777   2.158   3.881   2.513
 2914SOL    HW2 8778   2.164   3.724   2.557
 2915SOL     OW 8779   3.484   4.091   2.236
 2915SOL    HW1 8780   3.486   4.015   2.300
 2915SOL    HW2 8781   3.436   4.168   2.276
 2916SOL     OW 8782   2.885   4.490   2.828
 2916SOL    HW1 8783   2.900   4.511   2.924
 2916SOL    HW2 8784   2.855   4.395   2.819
 2917SOL     OW 8785   3.721   5.242   3.467
 2917SOL    HW1 8786   3.735   5.269   3.372
 2917SOL    HW2 8787   3.804   5.264   3.520
 2918SOL     OW 8788   2.212   4.622   3.666
 2918SOL    HW1 8789   2.288   4.666   3.714
 2918SOL    HW2 8790   2.247   4.575   3.584
 2919SOL     OW 8791   3.402   3.998   1.987
 2919SOL    HW1 8792   3.341   3.923   2.010
 2919SOL    HW2 8793   3.424   4.050   2.070
 2920SOL     OW 8794   3.165   4.562   1.904
 2920SOL    HW1 8795   3.199   4.469   1.919
 2920SOL    HW2 8796   3.183   4.589   1.809
 2921SOL     OW 8797   2.181   4.534   2.811
 2921SOL    HW1 8798   2.274   4.570   2.816
 2921SOL    HW2 8799   2.175   4.449   2.863
 2922SOL     OW 8800   2.201   4.233   2.868
 2922SOL    HW1 8801   2.149   4.150   2.851
 2922SOL    HW2 8802   2.278   4.238   2.804
 2923SOL     OW 8803   3.000   4.104   3.540
 2923SOL    HW1 8804   2.955   4.167   3.604
 2923SOL    HW2 8805   3.093   4.135   3.523
 2924SOL     OW 8806   3.022   3.931   3.339
 2924SOL    HW1 8807   3.022   3.995   3.416
 2924SOL    HW2 8808   3.050   3.979   3.256
 2925SOL     OW 8809   1.870   5.050   2.062
 2925SOL    HW1 8810   1.777   5.071   2.031
 2925SOL    HW2 8811   1.880   4.951   2.075
 2926SOL     OW 8812   2.864   4.520   3.100
 2926SOL    HW1 8813   2.905   4.488   3.186
 2926SOL    HW2 8814   2.768   4.493   3.097
 2927SOL     OW 8815   1.902   4.268   2.976
 2927SOL    HW1 8816   1.987   4.235   2.935
 2927SOL    HW2 8817   1.915   4.283   3.074
 2928SOL     OW 8818   2.051   4.244   3.584
 2928SOL    HW1 8819   2.110   4.204   3.514
 2928SOL    HW2 8820   1.993   4.315   3.543
 2929SOL     OW 8821   3.231   4.674   3.522
 2929SOL    HW1 8822   3.270   4.763   3.542
 2929SOL    HW2 8823   3.241   4.654   3.425
 2930SOL     OW 8824   2.677   4.296   2.187
 2930SOL    HW1 8825   2.684   4.207   2.141
 2930SOL    HW2 8826   2.583   4.330   2.179
 2931SOL     OW 8827   3.519   4.328   3.068
 2931SOL    HW1 8828   3.481   4.259   3.130
 2931SOL    HW2 8829   3.601   4.292   3.024
 2932SOL     OW 8830   2.533   4.188   3.131
 2932SOL    HW1 8831   2.499   4.099   3.101
 2932SOL    HW2 8832   2.559   4.242   3.051
 2933SOL     OW 8833   2.335   4.224   2.053
 2933SOL    HW1 8834   2.396   4.304   2.057
 2933SOL    HW2 8835   2.240   4.255   2.060
 2934SOL     OW 8836   2.021   4.861   3.328
 2934SOL    HW1 8837   2.043   4.800   3.404
 2934SOL    HW2 8838   2.031   4.812   3.242
 2935SOL     OW 8839   3.209   4.783   3.096
 2935SOL    HW1 8840   3.233   4.720   3.022
 2935SOL    HW2 8841   3.119   4.823   3.078
 2936SOL     OW 8842   3.164   4.579   2.171
 2936SOL    HW1 8843   3.078   4.548   2.213
 2936SOL    HW2 8844   3.160   4.565   2.072
 2937SOL     OW 8845   1.945   4.982   2.884
 2937SOL    HW1 8846   1.940   4.981   2.984
 2937SOL    HW2 8847   1.862   4.941   2.846
 2938SOL     OW 8848   3.588   3.859   2.385
 2938SOL    HW1 8849   3.661   3.842   2.318
 2938SOL    HW2 8850   3.557   3.772   2.423
 2939SOL     OW 8851   3.142   4.651   2.534
 2939SOL    HW1 8852   3.202   4.570   2.536
 2939SOL    HW2 8853   3.182   4.720   2.474
 2940SOL     OW 8854   3.703   3.899   2.825
 2940SOL    HW1 8855   3.742   3.814   2.789
 2940SOL    HW2 8856   3.605   3.901   2.806
 2941SOL     OW 8857   2.125   4.050   2.582
 2941SOL    HW1 8858   2.046   4.101   2.548
 2941SOL    HW2 8859   2.116   4.035   2.680
 2942SOL     OW 8860   3.056   5.336   1.893
 2942SOL    HW1 8861   3.062   5.243   1.930
 2942SOL    HW2 8862   2.997   5.336   1.813
 2943SOL     OW 8863   2.684   4.726   3.234
 2943SOL    HW1 8864   2.724   4.725   3.142
 2943SOL    HW2 8865   2.694   4.818   3.274
 2944SOL     OW 8866   2.778   4.634   2.153
 2944SOL    HW1 8867   2.841   4.672   2.085
 2944SOL    HW2 8868   2.818   4.551   2.192
 2945SOL     OW 8869   2.234   5.012   3.352
 2945SOL    HW1 8870   2.221   5.105   3.318
 2945SOL    HW2 8871   2.150   4.960   3.339
 2946SOL     OW 8872   3.476   5.016   3.151
 2946SOL    HW1 8873   3.536   5.019   3.231
 2946SOL    HW2 8874   3.401   5.080   3.164
 2947SOL     OW 8875   2.901   4.822   2.558
 2947SOL    HW1 8876   2.831   4.775   2.612
 2947SOL    HW2 8877   2.960   4.754   2.515
 2948SOL     OW 8878   2.876   3.960   2.833
 2948SOL    HW1 8879   2.868   3.924   2.740
 2948SOL    HW2 8880   2.874   3.884   2.898
 2949SOL     OW 8881   3.571   4.109   3.243
 2949SOL    HW1 8882   3.644   4.178   3.247
 2949SOL    HW2 8883   3.599   4.034   3.184
 2950SOL     OW 8884   1.967   4.737   3.588
 2950SOL    HW1 8885   1.890   4.704   3.642
 2950SOL    HW2 8886   2.052   4.707   3.630
 2951SOL     OW 8887   2.534   3.927   3.351
 2951SOL    HW1 8888   2.624   3.911   3.311
 2951SOL    HW2 8889   2.542   3.932   3.450
 2952SOL     OW 8890   1.937   4.069   1.895
 2952SOL    HW1 8891   1.845   4.041   1.866
 2952SOL    HW2 8892   1.968   4.146   1.839
 2953SOL     OW 8893   3.302   4.580   3.260
 2953SOL    HW1 8894   3.245   4.632   3.197
 2953SOL    HW2 8895   3.398   4.592   3.236
 2954SOL     OW 8896   1.934   3.890   2.180
 2954SOL    HW1 8897   1.917   3.973   2.126
 2954SOL    HW2 8898   2.024   3.853   2.158
 2955SOL     OW 8899   2.475   4.566   3.293
 2955SOL    HW1 8900   2.531   4.647   3.276
 2955SOL    HW2 8901   2.534   4.486   3.296
 2956SOL     OW 8902   2.578   4.289   3.570
 2956SOL    HW1 8903   2.597   4.354   3.644
 2956SOL    HW2 8904   2.638   4.209   3.579
 2957SOL     OW 8905   3.312   4.944   3.495
 2957SOL    HW1 8906   3.303   4.934   3.594
 2957SOL    HW2 8907   3.408   4.937   3.469
 2958SOL     OW 8908   3.536   4.607   3.116
 2958SOL    HW1 8909   3.509   4.518   3.079
 2958SOL    HW2 8910   3.537   4.675   3.043
 2959SOL     OW 8911   3.087   4.049   2.311
 2959SOL    HW1 8912   3.152   3.975   2.300
 2959SOL    HW2 8913   3.107   4.099   2.395
 2960SOL     OW 8914   2.456   4.469   2.514
 2960SOL    HW1 8915   2.506   4.554   2.495
 2960SOL    HW2 8916   2.368   4.471   2.466
 2961SOL     OW 8917   3.639   4.066   3.504
 2961SOL    HW1 8918   3.622   4.097   3.410
 2961SOL    HW2 8919   3.555   4.029   3.542
 2962SOL     OW 8920   3.592   4.658   3.379
 2962SOL    HW1 8921   3.630   4.749   3.394
 2962SOL    HW2 8922   3.584   4.641   3.280
 2963SOL     OW 8923   2.721   4.680   2.723
 2963SOL    HW1 8924   2.775   4.611   2.771
 2963SOL    HW2 8925   2.689   4.749   2.789
 2964SOL     OW 8926   2.945   4.708   1.949
 2964SOL    HW1 8927   2.922   4.761   1.867
 2964SOL    HW2 8928   3.026   4.652   1.930
 2965SOL     OW 8929   1.941   4.964   2.515
 2965SOL    HW1 8930   1.940   4.917   2.603
 2965SOL    HW2 8931   2.023   4.936   2.464
 2966SOL     OW 8932   3.686   3.916   3.089
 2966SOL    HW1 8933   3.682   3.826   3.133
 2966SOL    HW2 8934   3.689   3.905   2.990
 2967SOL     OW 8935   2.290   4.148   2.382
 2967SOL    HW1 8936   2.320   4.076   2.320
 2967SOL    HW2 8937   2.251   4.108   2.465
 2968SOL     OW 8938   2.179   4.271   3.142
 2968SOL    HW1 8939   2.217   4.212   3.214
 2968SOL    HW2 8940   2.219   4.245   3.054
 2969SOL     OW 8941   3.286   3.938   2.974
 2969SOL    HW1 8942   3.338   3.873   3.029
 2969SOL    HW2 8943   3.237   4.001   3.035
 2970SOL     OW 8944   2.863   3.758   3.016
 2970SOL    HW1 8945   2.800   3.686   2.985
 2970SOL    HW2 8946   2.956   3.722   3.016
 2971SOL     OW 8947   2.632   5.054   2.163
 2971SOL    HW1 8948   2.586   4.967   2.180
 2971SOL    HW2 8949   2.723   5.051   2.204
 2972SOL     OW 8950   3.214   3.776   2.030
 2972SOL    HW1 8951   3.249   3.735   1.946
 2972SOL    HW2 8952   3.124   3.738   2.050
 2973SOL     OW 8953   3.162   4.177   2.553
 2973SOL    HW1 8954   3.103   4.257   2.557
 2973SOL    HW2 8955   3.177   4.142   2.646
 2974SOL     OW 8956   3.455   3.945   2.744
 2974SOL    HW1 8957   3.371   3.944   2.798
 2974SOL    HW2 8958   3.457   4.028   2.688
 2975SOL     OW 8959   1.901   4.801   2.162
 2975SOL    HW1 8960   2.000   4.790   2.153
 2975SOL    HW2 8961   1.861   4.715   2.194
 2976SOL     OW 8962   2.092   4.352   3.837
 2976SOL    HW1 8963   1.999   4.350   3.874
 2976SOL    HW2 8964   2.093   4.313   3.745
 2977SOL     OW 8965   2.087   3.999   4.720
 2977SOL    HW1 8966   2.122   3.982   4.812
 2977SOL    HW2 8967   1.999   3.954   4.708
 2978SOL     OW 8968   1.881   4.092   4.371
 2978SOL    HW1 8969   1.799   4.135   4.410
 2978SOL    HW2 8970   1.853   4.019   4.308
 2979SOL     OW 8971   2.997   4.427   4.441
 2979SOL    HW1 8972   3.054   4.505   4.416
 2979SOL    HW2 8973   2.937   4.453   4.517
 2980SOL     OW 8974   3.617   4.331   3.955
 2980SOL    HW1 8975   3.605   4.318   3.856
 2980SOL    HW2 8976   3.587   4.250   4.004
 2981SOL     OW 8977   2.630   4.868   4.747
 2981SOL    HW1 8978   2.552   4.885   4.807
 2981SOL    HW2 8979   2.664   4.955   4.711
 2982SOL     OW 8980   2.547   4.736   4.389
 2982SOL    HW1 8981   2.616   4.720   4.459
 2982SOL    HW2 8982   2.474   4.793   4.427
 2983SOL     OW 8983   2.197   5.159   4.785
 2983SOL    HW1 8984   2.119   5.128   4.732
 2983SOL    HW2 8985   2.255   5.217   4.728
 2984SOL     OW 8986   3.465   4.171   4.461
 2984SOL    HW1 8987   3.391   4.217   4.411
 2984SOL    HW2 8988   3.516   4.239   4.514
 2985SOL     OW 8989   2.102   4.815   4.610
 2985SOL    HW1 8990   2.116   4.731   4.662
 2985SOL    HW2 8991   2.047   4.879   4.665
 2986SOL     OW 8992   2.468   4.688   3.847
 2986SOL    HW1 8993   2.475   4.772   3.793
 2986SOL    HW2 8994   2.514   4.701   3.935
 2987SOL     OW 8995   1.984   4.367   4.287
 2987SOL    HW1 8996   1.939   4.279   4.304
 2987SOL    HW2 8997   1.983   4.421   4.371
 2988SOL     OW 8998   3.551   4.646   4.336
 2988SOL    HW1 8999   3.646   4.617   4.344
 2988SOL    HW2 9000   3.543   4.711   4.261
 2989SOL     OW 9001   3.503   4.832   4.156
 2989SOL    HW1 9002   3.589   4.834   4.104
 2989SOL    HW2 9003   3.517   4.879   4.244
 2990SOL     OW 9004   1.975   4.461   5.321
 2990SOL    HW1 9005   2.063   4.448   5.366
 2990SOL    HW2 9006   1.962   4.558   5.299
 2991SOL     OW 9007   2.671   3.728   4.226
 2991SOL    HW1 9008   2.711   3.819   4.217
 2991SOL    HW2 9009   2.571   3.736   4.232
 2992SOL     OW 9010   2.059   4.700   4.988
 2992SOL    HW1 9011   2.148   4.655   4.974
 2992SOL    HW2 9012   1.986   4.635   4.969
 2993SOL     OW 9013   3.387   4.723   3.914
 2993SOL    HW1 9014   3.324   4.647   3.927
 2993SOL    HW2 9015   3.435   4.741   4.000
 2994SOL     OW 9016   2.460   4.453   3.994
 2994SOL    HW1 9017   2.484   4.522   3.926
 2994SOL    HW2 9018   2.382   4.486   4.048
 2995SOL     OW 9019   3.143   4.069   4.668
 2995SOL    HW1 9020   3.057   4.019   4.655
 2995SOL    HW2 9021   3.205   4.015   4.724
 2996SOL     OW 9022   2.853   4.134   4.966
 2996SOL    HW1 9023   2.776   4.168   5.020
 2996SOL    HW2 9024   2.819   4.083   4.887
 2997SOL     OW 9025   2.903   4.425   4.153
 2997SOL    HW1 9026   2.929   4.421   4.249
 2997SOL    HW2 9027   2.818   4.374   4.139
 2998SOL     OW 9028   1.938   4.535   4.513
 2998SOL    HW1 9029   2.037   4.523   4.522
 2998SOL    HW2 9030   1.914   4.630   4.534
 2999SOL     OW 9031   2.727   4.072   3.919
 2999SOL    HW1 9032   2.786   4.135   3.870
 2999SOL    HW2 9033   2.746   3.978   3.890
 3000SOL     OW 9034   3.224   4.868   4.269
 3000SOL    HW1 9035   3.307   4.839   4.221
 3000SOL    HW2 9036   3.175   4.935   4.213
 3001SOL     OW 9037   2.412   3.920   4.609
 3001SOL    HW1 9038   2.407   3.915   4.709
 3001SOL    HW2 9039   2.414   4.016   4.580
 3002SOL     OW 9040   3.657   4.790   4.597
 3002SOL    HW1 9041   3.595   4.775   4.521
 3002SOL    HW2 9042   3.605   4.801   4.682
 3003SOL     OW 9043   2.183   4.667   3.966
 3003SOL    HW1 9044   2.265   4.706   3.924
 3003SOL    HW2 9045   2.156   4.585   3.917
 3004SOL     OW 9046   3.320   4.459   4.452
 3004SOL    HW1 9047   3.315   4.394   4.527
 3004SOL    HW2 9048   3.400   4.518   4.465
 3005SOL     OW 9049   3.262   3.831   4.150
 3005SOL    HW1 9050   3.238   3.794   4.060
 3005SOL    HW2 9051   3.361   3.847   4.154
 3006SOL     OW 9052   2.244   4.424   4.204
 3006SOL    HW1 9053   2.289   4.334   4.201
 3006SOL    HW2 9054   2.150   4.413   4.237
 3007SOL     OW 9055   2.476   3.846   3.841
 3007SOL    HW1 9056   2.574   3.824   3.848
 3007SOL    HW2 9057   2.445   3.829   3.748
 3008SOL     OW 9058   2.665   5.126   4.648
 3008SOL    HW1 9059   2.755   5.140   4.606
 3008SOL    HW2 9060   2.594   5.128   4.577
 3009SOL     OW 9061   2.784   4.227   4.623
 3009SOL    HW1 9062   2.759   4.218   4.527
 3009SOL    HW2 9063   2.832   4.145   4.654
 3010SOL     OW 9064   2.401   3.788   4.236
 3010SOL    HW1 9065   2.320   3.789   4.294
 3010SOL    HW2 9066   2.404   3.871   4.181
 3011SOL     OW 9067   2.159   3.759   3.895
 3011SOL    HW1 9068   2.208   3.843   3.874
 3011SOL    HW2 9069   2.221   3.694   3.940
 3012SOL     OW 9070   2.797   3.960   4.204
 3012SOL    HW1 9071   2.749   4.001   4.126
 3012SOL    HW2 9072   2.896   3.958   4.185
 3013SOL     OW 9073   2.321   4.876   4.465
 3013SOL    HW1 9074   2.250   4.849   4.530
 3013SOL    HW2 9075   2.295   4.848   4.372
 3014SOL     OW 9076   2.894   4.273   3.740
 3014SOL    HW1 9077   2.853   4.355   3.701
 3014SOL    HW2 9078   2.958   4.299   3.813
 3015SOL     OW 9079   2.423   3.946   4.871
 3015SOL    HW1 9080   2.461   3.862   4.908
 3015SOL    HW2 9081   2.335   3.965   4.915
 3016SOL     OW 9082   2.728   4.178   4.366
 3016SOL    HW1 9083   2.696   4.250   4.304
 3016SOL    HW2 9084   2.752   4.097   4.313
 3017SOL     OW 9085   2.879   3.763   4.477
 3017SOL    HW1 9086   2.807   3.768   4.408
 3017SOL    HW2 9087   2.855   3.694   4.546
 3018SOL     OW 9088   3.291   4.897   4.591
 3018SOL    HW1 9089   3.236   4.813   4.584
 3018SOL    HW2 9090   3.317   4.926   4.499
 3019SOL     OW 9091   3.328   4.314   4.716
 3019SOL    HW1 9092   3.298   4.219   4.723
 3019SOL    HW2 9093   3.401   4.330   4.782
 3020SOL     OW 9094   3.719   4.557   4.101
 3020SOL    HW1 9095   3.761   4.493   4.165
 3020SOL    HW2 9096   3.681   4.506   4.023
 3021SOL     OW 9097   3.252   4.299   3.802
 3021SOL    HW1 9098   3.198   4.278   3.883
 3021SOL    HW2 9099   3.343   4.258   3.811
 3022SOL     OW 9100   2.389   3.980   4.052
 3022SOL    HW1 9101   2.416   3.921   3.977
 3022SOL    HW2 9102   2.389   4.075   4.021
 3023SOL     OW 9103   3.500   4.823   4.803
 3023SOL    HW1 9104   3.505   4.904   4.862
 3023SOL    HW2 9105   3.414   4.825   4.752
 3024SOL     OW 9106   2.567   4.774   4.092
 3024SOL    HW1 9107   2.553   4.781   4.191
 3024SOL    HW2 9108   2.651   4.723   4.074
 3025SOL     OW 9109   2.272   4.537   4.975
 3025SOL    HW1 9110   2.358   4.549   5.025
 3025SOL    HW2 9111   2.230   4.450   5.002
 3026SOL     OW 9112   3.136   4.110   4.986
 3026SOL    HW1 9113   3.157   4.184   5.050
 3026SOL    HW2 9114   3.047   4.127   4.943
 3027SOL     OW 9115   2.229   4.824   4.225
 3027SOL    HW1 9116   2.222   4.907   4.169
 3027SOL    HW2 9117   2.233   4.744   4.165
 3028SOL     OW 9118   2.428   4.261   4.589
 3028SOL    HW1 9119   2.440   4.327   4.515
 3028SOL    HW2 9120   2.474   4.295   4.672
 3029SOL     OW 9121   3.444   4.363   4.196
 3029SOL    HW1 9122   3.413   4.424   4.269
 3029SOL    HW2 9123   3.494   4.415   4.127
 3030SOL     OW 9124   2.435   4.594   4.753
 3030SOL    HW1 9125   2.479   4.683   4.744
 3030SOL    HW2 9126   2.372   4.594   4.830
 3031SOL     OW 9127   3.222   4.586   4.769
 3031SOL    HW1 9128   3.147   4.586   4.703
 3031SOL    HW2 9129   3.259   4.494   4.778
 3032SOL     OW 9130   3.071   4.249   3.999
 3032SOL    HW1 9131   3.084   4.165   4.053
 3032SOL    HW2 9132   3.042   4.323   4.059
 3033SOL     OW 9133   2.169   3.937   4.955
 3033SOL    HW1 9134   2.146   3.974   5.045
 3033SOL    HW2 9135   2.139   3.842   4.949
 3034SOL     OW 9136   2.594   4.358   4.788
 3034SOL    HW1 9137   2.653   4.332   4.712
 3034SOL    HW2 9138   2.566   4.454   4.777
 3035SOL     OW 9139   2.169   3.787   4.342
 3035SOL    HW1 9140   2.158   3.881   4.375
 3035SOL    HW2 9141   2.164   3.724   4.419
 3036SOL     OW 9142   3.484   4.091   4.098
 3036SOL    HW1 9143   3.486   4.015   4.162
 3036SOL    HW2 9144   3.436   4.168   4.138
 3037SOL     OW 9145   2.885   4.490   4.690
 3037SOL    HW1 9146   2.900   4.511   4.786
 3037SOL    HW2 9147   2.855   4.395   4.681
 3038SOL     OW 9148   3.402   3.998   3.849
 3038SOL    HW1 9149   3.341   3.923   3.872
 3038SOL    HW2 9150   3.424   4.050   3.932
 3039SOL     OW 9151   3.165   4.562   3.766
 3039SOL    HW1 9152   3.199   4.469   3.781
 3039SOL    HW2 9153   3.183   4.589   3.671
 3040SOL     OW 9154   2.181   4.534   4.673
 3040SOL    HW1 9155   2.274   4.570   4.678
 3040SOL    HW2 9156   2.175   4.449   4.725
 3041SOL     OW 9157   2.201   4.233   4.730
 3041SOL    HW1 9158   2.149   4.150   4.713
 3041SOL    HW2 9159   2.278   4.238   4.666
 3042SOL     OW 9160   3.022   3.931   5.201
 3042SOL    HW1 9161   3.022   3.995   5.278
 3042SOL    HW2 9162   3.050   3.979   5.118
 3043SOL     OW 9163   1.870   5.050   3.924
 3043SOL    HW1 9164   1.777   5.071   3.893
 3043SOL    HW2 9165   1.880   4.951   3.937
 3044SOL     OW 9166   2.864   4.520   4.962
 3044SOL    HW1 9167   2.905   4.488   5.048
 3044SOL    HW2 9168   2.768   4.493   4.959
 3045SOL     OW 9169   1.902   4.268   4.838
 3045SOL    HW1 9170   1.987   4.235   4.797
 3045SOL    HW2 9171   1.915   4.283   4.936
 3046SOL     OW 9172   2.677   4.296   4.049
 3046SOL    HW1 9173   2.684   4.207   4.003
 3046SOL    HW2 9174   2.583   4.330   4.041
 3047SOL     OW 9175   3.519   4.328   4.930
 3047SOL    HW1 9176   3.481   4.259   4.992
 3047SOL    HW2 9177   3.601   4.292   4.886
 3048SOL     OW 9178   2.533   4.188   4.993
 3048SOL    HW1 9179   2.499   4.099   4.963
 3048SOL    HW2 9180   2.559   4.242   4.913
 3049SOL     OW 9181   2.335   4.224   3.915
 3049SOL    HW1 9182   2.396   4.304   3.919
 3049SOL    HW2 9183   2.240   4.255   3.922
 3050SOL     OW 9184   3.209   4.783   4.958
 3050SOL    HW1 9185   3.233   4.720   4.884
 3050SOL    HW2 9186   3.119   4.823   4.940
 3051SOL     OW 9187   3.164   4.579   4.033
 3051SOL    HW1 9188   3.078   4.548   4.075
 3051SOL    HW2 9189   3.160   4.565   3.934
 3052SOL     OW 9190   1.945   4.982   4.746
 3052SOL    HW1 9191   1.940   4.981   4.846
 3052SOL    HW2 9192   1.862   4.941   4.708
 3053SOL     OW 9193   3.588   3.859   4.247
 3053SOL    HW1 9194   3.661   3.842   4.180
 3053SOL    HW2 9195   3.557   3.772   4.285
 3054SOL     OW 9196   3.142   4.651   4.396
 3054SOL    HW1 9197   3.202   4.570   4.398
 3054SOL    HW2 9198   3.182   4.720   4.336
 3055SOL     OW 9199   3.703   3.899   4.687
 3055SOL    HW1 9200   3.742   3.814   4.651
 3055SOL    HW2 9201   3.605   3.901   4.668
 3056SOL     OW 9202   2.125   4.050   4.444
 3056SOL    HW1 9203   2.046   4.101   4.410
 3056SOL    HW2 9204   2.116   4.035   4.542
 3057SOL     OW 9205   3.056   5.336   3.755
 3057SOL    HW1 9206   3.062   5.243   3.792
 3057SOL    HW2 9207   2.997   5.336   3.675
 3058SOL     OW 9208   2.684   4.726   5.096
 3058SOL    HW1 9209   2.724   4.725   5.004
 3058SOL    HW2 9210   2.694   4.818   5.136
 3059SOL     OW 9211   2.778   4.634   4.015
 3059SOL    HW1 9212   2.841   4.672   3.947
 3059SOL    HW2 9213   2.818   4.551   4.054
 3060SOL     OW 9214   3.476   5.016   5.013
 3060SOL    HW1 9215   3.536   5.019   5.093
 3060SOL    HW2 9216   3.401   5.080   5.026
 3061SOL     OW 9217   2.901   4.822   4.420
 3061SOL    HW1 9218   2.831   4.775   4.474
 3061SOL    HW2 9219   2.960   4.754   4.377
 3062SOL     OW 9220   2.876   3.960   4.695
 3062SOL    HW1 9221   2.868   3.924   4.602
 3062SOL    HW2 9222   2.874   3.884   4.760
 3063SOL     OW 9223   3.571   4.109   5.105
 3063SOL    HW1 9224   3.644   4.178   5.109
 3063SOL    HW2 9225   3.599   4.034   5.046
 3064SOL     OW 9226   1.937   4.069   3.757
 3064SOL    HW1 9227   1.845   4.041   3.728
 3064SOL    HW2 9228   1.968   4.146   3.701
 3065SOL     OW 9229   1.934   3.890   4.042
 3065SOL    HW1 9230   1.917   3.973   3.988
 3065SOL    HW2 9231   2.024   3.853   4.020
 3066SOL     OW 9232   3.536   4.607   4.978
 3066SOL    HW1 9233   3.509   4.518   4.941
 3066SOL    HW2 9234   3.537   4.675   4.905
 3067SOL     OW 9235   3.087   4.049   4.173
 3067SOL    HW1 9236   3.152   3.975   4.162
 3067SOL    HW2 9237   3.107   4.099   4.257
 3068SOL     OW 9238   2.456   4.469   4.376
 3068SOL    HW1 9239   2.506   4.554   4.357
 3068SOL    HW2 9240   2.368   4.471   4.328
 3069SOL     OW 9241   3.592   4.658   5.241
 3069SOL    HW1 9242   3.630   4.749   5.256
 3069SOL    HW2 9243   3.584   4.641   5.142
 3070SOL     OW 9244   2.721   4.680   4.585
 3070SOL    HW1 9245   2.775   4.611   4.633
 3070SOL    HW2 9246   2.689   4.749   4.651
 3071SOL     OW 9247   2.945   4.708   3.811
 3071SOL    HW1 9248   2.922   4.761   3.729
 3071SOL    HW2 9249   3.026   4.652   3.792
 3072SOL     OW 9250   1.941   4.964   4.377
 3072SOL    HW1 9251   1.940   4.917   4.465
 3072SOL    HW2 9252   2.023   4.936   4.326
 3073SOL     OW 9253   3.686   3.916   4.951
 3073SOL    HW1 9254   3.682   3.826   4.995
 3073SOL    HW2 9255   3.689   3.905   4.852
 3074SOL     OW 9256   2.290   4.148   4.244
 3074SOL    HW1 9257   2.320   4.076   4.182
 3074SOL    HW2 9258   2.251   4.108   4.327
 3075SOL     OW 9259   3.286   3.938   4.836
 3075SOL    HW1 9260   3.338   3.873   4.891
 3075SOL    HW2 9261   3.237   4.001   4.897
 3076SOL     OW 9262   2.863   3.758   4.878
 3076SOL    HW1 9263   2.800   3.686   4.847
 3076SOL    HW2 9264   2.956   3.722   4.878
 3077SOL     OW 9265   2.632   5.054   4.025
 3077SOL    HW1 9266   2.586   4.967   4.042
 3077SOL    HW2 9267   2.723   5.051   4.066
 3078SOL     OW 9268   3.214   3.776   3.892
 3078SOL    HW1 9269   3.249   3.735   3.808
 3078SOL    HW2 9270   3.124   3.738   3.912
 3079SOL     OW 9271   3.162   4.177   4.415
 3079SOL    HW1 9272   3.103   4.257   4.419
 3079SOL    HW2 9273   3.177   4.142   4.508
 3080SOL     OW 9274   3.455   3.945   4.606
 3080SOL    HW1 9275   3.371   3.944   4.660
 3080SOL    HW2 9276   3.457   4.028   4.550
 3081SOL     OW 9277   1.901   4.801   4.024
 3081SOL    HW1 9278   2.000   4.790   4.015
 3081SOL    HW2 9279   1.861   4.715   4.056
 3082SOL     OW 9280   3.954   0.628   0.113
 3082SOL    HW1 9281   3.861   0.626   0.150
 3082SOL    HW2 9282   3.955   0.589   0.021
 3083SOL     OW 9283   3.949   0.275   0.996
 3083SOL    HW1 9284   3.984   0.258   1.088
 3083SOL    HW2 9285   3.861   0.230   0.984
 3084SOL     OW 9286   3.743   0.368   0.647
 3084SOL    HW1 9287   3.661   0.411   0.686
 3084SOL    HW2 9288   3.715   0.295   0.584
 3085SOL     OW 9289   4.293   1.275   1.165
 3085SOL    HW1 9290   4.200   1.268   1.128
 3085SOL    HW2 9291   4.304   1.364   1.209
 3086SOL     OW 9292   4.859   0.703   0.717
 3086SOL    HW1 9293   4.916   0.781   0.692
 3086SOL    HW2 9294   4.799   0.729   0.793
 3087SOL     OW 9295   4.492   1.144   1.023
 3087SOL    HW1 9296   4.414   1.161   1.083
 3087SOL    HW2 9297   4.526   1.231   0.987
 3088SOL     OW 9298   4.574   0.798   1.823
 3088SOL    HW1 9299   4.570   0.874   1.888
 3088SOL    HW2 9300   4.596   0.834   1.732
 3089SOL     OW 9301   4.409   1.012   0.665
 3089SOL    HW1 9302   4.478   0.996   0.735
 3089SOL    HW2 9303   4.336   1.069   0.703
 3090SOL     OW 9304   4.410   1.161   1.803
 3090SOL    HW1 9305   4.470   1.240   1.817
 3090SOL    HW2 9306   4.324   1.192   1.762
 3091SOL     OW 9307   4.059   1.435   1.061
 3091SOL    HW1 9308   3.981   1.404   1.008
 3091SOL    HW2 9309   4.117   1.493   1.004
 3092SOL     OW 9310   4.162   0.392   1.499
 3092SOL    HW1 9311   4.244   0.336   1.508
 3092SOL    HW2 9312   4.081   0.334   1.503
 3093SOL     OW 9313   3.955   1.713   0.483
 3093SOL    HW1 9314   3.989   1.790   0.537
 3093SOL    HW2 9315   3.999   1.713   0.393
 3094SOL     OW 9316   4.851   1.341   1.690
 3094SOL    HW1 9317   4.898   1.341   1.778
 3094SOL    HW2 9318   4.803   1.254   1.679
 3095SOL     OW 9319   3.954   1.434   0.538
 3095SOL    HW1 9320   3.928   1.530   0.538
 3095SOL    HW2 9321   3.883   1.380   0.583
 3096SOL     OW 9322   3.964   1.091   0.886
 3096SOL    HW1 9323   3.978   1.007   0.938
 3096SOL    HW2 9324   3.909   1.155   0.941
 3097SOL     OW 9325   4.344   1.786   1.439
 3097SOL    HW1 9326   4.252   1.769   1.474
 3097SOL    HW2 9327   4.372   1.878   1.465
 3098SOL     OW 9328   4.330   0.964   0.123
 3098SOL    HW1 9329   4.337   1.048   0.069
 3098SOL    HW2 9330   4.376   0.977   0.211
 3099SOL     OW 9331   3.846   0.643   0.563
 3099SOL    HW1 9332   3.801   0.555   0.580
 3099SOL    HW2 9333   3.845   0.697   0.647
 3100SOL     OW 9334   3.751   1.596   0.117
 3100SOL    HW1 9335   3.732   1.500   0.138
 3100SOL    HW2 9336   3.718   1.654   0.192
 3101SOL     OW 9337   3.837   0.737   1.597
 3101SOL    HW1 9338   3.925   0.724   1.642
 3101SOL    HW2 9339   3.824   0.834   1.575
 3102SOL     OW 9340   4.337   1.365   0.726
 3102SOL    HW1 9341   4.288   1.278   0.735
 3102SOL    HW2 9342   4.314   1.408   0.639
 3103SOL     OW 9343   4.533   0.004   0.502
 3103SOL    HW1 9344   4.573   0.095   0.493
 3103SOL    HW2 9345   4.433   0.012   0.508
 3104SOL     OW 9346   3.921   0.976   1.264
 3104SOL    HW1 9347   4.010   0.931   1.250
 3104SOL    HW2 9348   3.848   0.911   1.245
 3105SOL     OW 9349   4.911   1.792   1.616
 3105SOL    HW1 9350   4.935   1.852   1.540
 3105SOL    HW2 9351   4.918   1.697   1.586
 3106SOL     OW 9352   4.041   0.251   1.801
 3106SOL    HW1 9353   4.112   0.322   1.807
 3106SOL    HW2 9354   3.953   0.290   1.829
 3107SOL     OW 9355   4.322   0.729   0.270
 3107SOL    HW1 9356   4.346   0.798   0.202
 3107SOL    HW2 9357   4.244   0.762   0.324
 3108SOL     OW 9358   5.005   0.345   0.944
 3108SOL    HW1 9359   4.919   0.295   0.931
 3108SOL    HW2 9360   5.067   0.291   1.000
 3109SOL     OW 9361   4.531   0.605   1.465
 3109SOL    HW1 9362   4.484   0.602   1.554
 3109SOL    HW2 9363   4.480   0.550   1.399
 3110SOL     OW 9364   4.697   0.890   1.572
 3110SOL    HW1 9365   4.743   0.806   1.543
 3110SOL    HW2 9366   4.641   0.924   1.497
 3111SOL     OW 9367   4.715   0.410   1.242
 3111SOL    HW1 9368   4.638   0.444   1.296
 3111SOL    HW2 9369   4.681   0.359   1.163
 3112SOL     OW 9370   4.765   0.701   0.429
 3112SOL    HW1 9371   4.791   0.697   0.525
 3112SOL    HW2 9372   4.680   0.650   0.415
 3113SOL     OW 9373   3.800   0.811   0.789
 3113SOL    HW1 9374   3.899   0.799   0.798
 3113SOL    HW2 9375   3.776   0.906   0.810
 3114SOL     OW 9376   3.854   1.821   1.571
 3114SOL    HW1 9377   3.844   1.806   1.670
 3114SOL    HW2 9378   3.768   1.857   1.535
 3115SOL     OW 9379   4.589   0.348   0.195
 3115SOL    HW1 9380   4.648   0.411   0.146
 3115SOL    HW2 9381   4.608   0.254   0.166
 3116SOL     OW 9382   4.274   0.196   0.885
 3116SOL    HW1 9383   4.269   0.191   0.985
 3116SOL    HW2 9384   4.276   0.292   0.856
 3117SOL     OW 9385   4.732   1.456   0.477
 3117SOL    HW1 9386   4.686   1.528   0.425
 3117SOL    HW2 9387   4.728   1.476   0.575
 3118SOL     OW 9388   4.075   1.801   0.853
 3118SOL    HW1 9389   4.125   1.715   0.859
 3118SOL    HW2 9390   4.140   1.878   0.850
 3119SOL     OW 9391   4.951   1.550   1.506
 3119SOL    HW1 9392   4.957   1.473   1.570
 3119SOL    HW2 9393   4.899   1.524   1.426
 3120SOL     OW 9394   4.045   0.943   0.242
 3120SOL    HW1 9395   4.127   0.982   0.200
 3120SOL    HW2 9396   4.018   0.861   0.193
 3121SOL     OW 9397   4.185   1.266   1.727
 3121SOL    HW1 9398   4.135   1.267   1.641
 3121SOL    HW2 9399   4.122   1.248   1.803
 3122SOL     OW 9400   4.835   1.776   0.237
 3122SOL    HW1 9401   4.775   1.714   0.287
 3122SOL    HW2 9402   4.866   1.732   0.152
 3123SOL     OW 9403   4.188   1.743   0.323
 3123SOL    HW1 9404   4.221   1.782   0.409
 3123SOL    HW2 9405   4.264   1.736   0.258
 3124SOL     OW 9406   3.973   1.785   1.241
 3124SOL    HW1 9407   4.030   1.720   1.291
 3124SOL    HW2 9408   3.957   1.752   1.148
 3125SOL     OW 9409   4.664   1.698   0.904
 3125SOL    HW1 9410   4.744   1.641   0.925
 3125SOL    HW2 9411   4.615   1.658   0.827
 3126SOL     OW 9412   4.106   0.700   0.480
 3126SOL    HW1 9413   4.151   0.610   0.477
 3126SOL    HW2 9414   4.012   0.689   0.513
 3127SOL     OW 9415   4.338   0.122   0.117
 3127SOL    HW1 9416   4.436   0.100   0.124
 3127SOL    HW2 9417   4.307   0.105   0.024
 3128SOL     OW 9418   4.505   0.264   1.749
 3128SOL    HW1 9419   4.572   0.203   1.792
 3128SOL    HW2 9420   4.432   0.283   1.814
 3129SOL     OW 9421   4.612   1.514   1.195
 3129SOL    HW1 9422   4.589   1.489   1.101
 3129SOL    HW2 9423   4.673   1.445   1.234
 3130SOL     OW 9424   4.527   1.402   0.924
 3130SOL    HW1 9425   4.617   1.416   0.882
 3130SOL    HW2 9426   4.456   1.404   0.853
 3131SOL     OW 9427   4.646   0.503   0.899
 3131SOL    HW1 9428   4.621   0.494   0.803
 3131SOL    HW2 9429   4.694   0.421   0.930
 3132SOL     OW 9430   4.263   0.064   0.512
 3132SOL    HW1 9431   4.182   0.065   0.570
 3132SOL    HW2 9432   4.266   0.147   0.457
 3133SOL     OW 9433   4.021   0.035   0.171
 3133SOL    HW1 9434   4.070   0.119   0.150
 3133SOL    HW2 9435   4.083  -0.030   0.216
 3134SOL     OW 9436   4.659   0.236   0.480
 3134SOL    HW1 9437   4.611   0.277   0.402
 3134SOL    HW2 9438   4.758   0.234   0.461
 3135SOL     OW 9439   4.800   0.683   1.464
 3135SOL    HW1 9440   4.720   0.622   1.467
 3135SOL    HW2 9441   4.881   0.630   1.440
 3136SOL     OW 9442   4.951   1.570   0.793
 3136SOL    HW1 9443   4.972   1.644   0.728
 3136SOL    HW2 9444   5.019   1.570   0.866
 3137SOL     OW 9445   4.183   1.152   0.741
 3137SOL    HW1 9446   4.112   1.125   0.806
 3137SOL    HW2 9447   4.157   1.124   0.648
 3138SOL     OW 9448   4.995   1.797   0.591
 3138SOL    HW1 9449   5.039   1.861   0.527
 3138SOL    HW2 9450   4.945   1.849   0.661
 3139SOL     OW 9451   4.756   0.549   0.016
 3139SOL    HW1 9452   4.715   0.631  -0.023
 3139SOL    HW2 9453   4.820   0.575   0.089
 3140SOL     OW 9454   3.802   0.556   1.386
 3140SOL    HW1 9455   3.894   0.555   1.345
 3140SOL    HW2 9456   3.796   0.630   1.453
 3141SOL     OW 9457   4.285   0.222   1.147
 3141SOL    HW1 9458   4.323   0.138   1.184
 3141SOL    HW2 9459   4.197   0.241   1.191
 3142SOL     OW 9460   4.590   0.454   0.642
 3142SOL    HW1 9461   4.558   0.526   0.580
 3142SOL    HW2 9462   4.614   0.373   0.589
 3143SOL     OW 9463   4.741   0.039   0.753
 3143SOL    HW1 9464   4.669   0.044   0.684
 3143SOL    HW2 9465   4.717  -0.030   0.822
 3144SOL     OW 9466   4.212   1.385   0.174
 3144SOL    HW1 9467   4.125   1.370   0.221
 3144SOL    HW2 9468   4.195   1.411   0.079
 3145SOL     OW 9469   4.251   0.256   0.328
 3145SOL    HW1 9470   4.278   0.197   0.253
 3145SOL    HW2 9471   4.251   0.351   0.297
 3146SOL     OW 9472   4.788   1.347   1.340
 3146SOL    HW1 9473   4.708   1.324   1.395
 3146SOL    HW2 9474   4.871   1.321   1.389
 3147SOL     OW 9475   4.835   1.195   1.100
 3147SOL    HW1 9476   4.795   1.239   1.181
 3147SOL    HW2 9477   4.794   1.232   1.017
 3148SOL     OW 9478   4.639   0.089   1.402
 3148SOL    HW1 9479   4.664   0.069   1.307
 3148SOL    HW2 9480   4.711   0.145   1.444
 3149SOL     OW 9481   4.704   1.116   1.719
 3149SOL    HW1 9482   4.605   1.122   1.729
 3149SOL    HW2 9483   4.727   1.036   1.663
 3150SOL     OW 9484   4.429   1.050   0.368
 3150SOL    HW1 9485   4.415   1.057   0.467
 3150SOL    HW2 9486   4.513   0.999   0.350
 3151SOL     OW 9487   4.134   0.813   1.251
 3151SOL    HW1 9488   4.220   0.825   1.301
 3151SOL    HW2 9489   4.092   0.726   1.278
 3152SOL     OW 9490   4.998   0.386   1.262
 3152SOL    HW1 9491   5.019   0.460   1.326
 3152SOL    HW2 9492   4.909   0.403   1.219
 3153SOL     OW 9493   3.788   1.564   1.331
 3153SOL    HW1 9494   3.742   1.646   1.297
 3153SOL    HW2 9495   3.886   1.583   1.340
 3154SOL     OW 9496   4.091   1.100   0.501
 3154SOL    HW1 9497   4.084   1.183   0.445
 3154SOL    HW2 9498   4.095   1.020   0.441
 3155SOL     OW 9499   4.290   0.537   0.865
 3155SOL    HW1 9500   4.302   0.603   0.791
 3155SOL    HW2 9501   4.336   0.571   0.948
 3156SOL     OW 9502   4.976   1.348   0.388
 3156SOL    HW1 9503   5.026   1.425   0.428
 3156SOL    HW2 9504   4.881   1.350   0.420
 3157SOL     OW 9505   4.078   1.510   1.329
 3157SOL    HW1 9506   4.057   1.466   1.242
 3157SOL    HW2 9507   4.175   1.536   1.332
 3158SOL     OW 9508   4.126   0.751   1.598
 3158SOL    HW1 9509   4.194   0.806   1.551
 3158SOL    HW2 9510   4.166   0.663   1.625
 3159SOL     OW 9511   4.737   0.105   1.770
 3159SOL    HW1 9512   4.743   0.190   1.718
 3159SOL    HW2 9513   4.769   0.029   1.713
 3160SOL     OW 9514   4.228   0.050   1.740
 3160SOL    HW1 9515   4.186  -0.007   1.670
 3160SOL    HW2 9516   4.162   0.119   1.772
 3161SOL     OW 9517   4.297   0.870   1.029
 3161SOL    HW1 9518   4.341   0.959   1.020
 3161SOL    HW2 9519   4.234   0.870   1.106
 3162SOL     OW 9520   5.084   0.862   1.045
 3162SOL    HW1 9521   5.009   0.862   0.979
 3162SOL    HW2 9522   5.121   0.770   1.054
 3163SOL     OW 9523   4.933   0.525   0.275
 3163SOL    HW1 9524   4.946   0.441   0.329
 3163SOL    HW2 9525   4.904   0.599   0.335
 3164SOL     OW 9526   4.031   0.213   1.231
 3164SOL    HW1 9527   4.008   0.250   1.321
 3164SOL    HW2 9528   4.001   0.118   1.225
 3165SOL     OW 9529   3.761   1.310   1.282
 3165SOL    HW1 9530   3.814   1.261   1.350
 3165SOL    HW2 9531   3.783   1.408   1.287
 3166SOL     OW 9532   4.456   0.634   1.064
 3166SOL    HW1 9533   4.515   0.608   0.988
 3166SOL    HW2 9534   4.428   0.730   1.053
 3167SOL     OW 9535   4.031   0.063   0.618
 3167SOL    HW1 9536   4.020   0.157   0.651
 3167SOL    HW2 9537   4.026   0.000   0.695
 3168SOL     OW 9538   5.346   0.367   0.374
 3168SOL    HW1 9539   5.348   0.291   0.438
 3168SOL    HW2 9540   5.298   0.444   0.414
 3169SOL     OW 9541   4.747   0.766   0.966
 3169SOL    HW1 9542   4.762   0.787   1.062
 3169SOL    HW2 9543   4.717   0.671   0.957
 3170SOL     OW 9544   4.704   1.573   1.700
 3170SOL    HW1 9545   4.684   1.617   1.612
 3170SOL    HW2 9546   4.743   1.482   1.684
 3171SOL     OW 9547   4.074   0.898   1.804
 3171SOL    HW1 9548   4.150   0.942   1.852
 3171SOL    HW2 9549   4.109   0.851   1.722
 3172SOL     OW 9550   5.027   0.838   0.042
 3172SOL    HW1 9551   5.061   0.745   0.057
 3172SOL    HW2 9552   5.045   0.865  -0.053
 3173SOL     OW 9553   4.792   1.333   0.849
 3173SOL    HW1 9554   4.799   1.249   0.794
 3173SOL    HW2 9555   4.854   1.402   0.813
 3174SOL     OW 9556   4.043   0.810   0.949
 3174SOL    HW1 9557   4.136   0.846   0.954
 3174SOL    HW2 9558   4.037   0.725   1.001
 3175SOL     OW 9559   4.063   0.509   1.006
 3175SOL    HW1 9560   4.011   0.426   0.989
 3175SOL    HW2 9561   4.140   0.514   0.942
 3176SOL     OW 9562   4.862   0.380   1.678
 3176SOL    HW1 9563   4.817   0.443   1.742
 3176SOL    HW2 9564   4.955   0.411   1.661
 3177SOL     OW 9565   4.884   0.207   1.477
 3177SOL    HW1 9566   4.884   0.271   1.554
 3177SOL    HW2 9567   4.912   0.255   1.394
 3178SOL     OW 9568   3.812   1.801   0.927
 3178SOL    HW1 9569   3.770   1.715   0.900
 3178SOL    HW2 9570   3.906   1.804   0.893
 3179SOL     OW 9571   4.228   1.568   0.910
 3179SOL    HW1 9572   4.294   1.642   0.919
 3179SOL    HW2 9573   4.272   1.489   0.868
 3180SOL     OW 9574   4.726   0.796   1.238
 3180SOL    HW1 9575   4.767   0.764   1.324
 3180SOL    HW2 9576   4.630   0.769   1.235
 3181SOL     OW 9577   3.764   0.544   1.114
 3181SOL    HW1 9578   3.849   0.511   1.073
 3181SOL    HW2 9579   3.777   0.559   1.212
 3182SOL     OW 9580   3.913   0.520   1.722
 3182SOL    HW1 9581   3.972   0.480   1.652
 3182SOL    HW2 9582   3.855   0.591   1.681
 3183SOL     OW 9583   4.539   0.572   0.325
 3183SOL    HW1 9584   4.546   0.483   0.279
 3183SOL    HW2 9585   4.445   0.606   0.317
 3184SOL     OW 9586   3.976   1.564   1.744
 3184SOL    HW1 9587   3.946   1.621   1.820
 3184SOL    HW2 9588   3.969   1.467   1.770
 3185SOL     OW 9589   4.395   0.464   1.269
 3185SOL    HW1 9590   4.361   0.375   1.239
 3185SOL    HW2 9591   4.421   0.518   1.189
 3186SOL     OW 9592   4.654   1.678   1.465
 3186SOL    HW1 9593   4.630   1.660   1.370
 3186SOL    HW2 9594   4.684   1.772   1.475
 3187SOL     OW 9595   4.197   0.500   0.191
 3187SOL    HW1 9596   4.258   0.580   0.195
 3187SOL    HW2 9597   4.102   0.531   0.198
 3188SOL     OW 9598   3.883   1.137   1.466
 3188SOL    HW1 9599   3.905   1.076   1.542
 3188SOL    HW2 9600   3.893   1.088   1.380
 3189SOL     OW 9601   5.071   1.059   1.234
 3189SOL    HW1 9602   5.095   0.996   1.160
 3189SOL    HW2 9603   4.981   1.099   1.216
 3190SOL     OW 9604   4.976   1.731   1.128
 3190SOL    HW1 9605   5.060   1.736   1.074
 3190SOL    HW2 9606   4.953   1.635   1.146
 3191SOL     OW 9607   3.807   1.258   1.022
 3191SOL    HW1 9608   3.802   1.257   1.122
 3191SOL    HW2 9609   3.724   1.217   0.984
 3192SOL     OW 9610   4.412   1.662   1.716
 3192SOL    HW1 9611   4.356   1.743   1.725
 3192SOL    HW2 9612   4.464   1.666   1.630
 3193SOL     OW 9613   4.627   0.086   0.133
 3193SOL    HW1 9614   4.678   0.087   0.047
 3193SOL    HW2 9615   4.683   0.044   0.204
 3194SOL     OW 9616   5.112   1.573   0.477
 3194SOL    HW1 9617   5.179   1.585   0.403
 3194SOL    HW2 9618   5.072   1.662   0.500
 3195SOL     OW 9619   3.854   1.794   1.851
 3195SOL    HW1 9620   3.813   1.720   1.904
 3195SOL    HW2 9621   3.918   1.845   1.909
 3196SOL     OW 9622   4.554   1.273   1.422
 3196SOL    HW1 9623   4.549   1.306   1.517
 3196SOL    HW2 9624   4.468   1.292   1.376
 3197SOL     OW 9625   4.396   1.616   0.154
 3197SOL    HW1 9626   4.405   1.626   0.055
 3197SOL    HW2 9627   4.356   1.527   0.175
 3198SOL     OW 9628   3.987   0.326   0.720
 3198SOL    HW1 9629   3.908   0.377   0.686
 3198SOL    HW2 9630   3.978   0.311   0.818
 3199SOL     OW 9631   4.918   1.612   0.031
 3199SOL    HW1 9632   4.924   1.519   0.068
 3199SOL    HW2 9633   4.859   1.612  -0.049
 3200SOL     OW 9634   4.546   1.002   1.372
 3200SOL    HW1 9635   4.586   1.001   1.280
 3200SOL    HW2 9636   4.556   1.094   1.412
 3201SOL     OW 9637   4.640   0.910   0.291
 3201SOL    HW1 9638   4.703   0.948   0.223
 3201SOL    HW2 9639   4.680   0.827   0.330
 3202SOL     OW 9640   4.096   1.288   1.490
 3202SOL    HW1 9641   4.083   1.381   1.456
 3202SOL    HW2 9642   4.012   1.236   1.477
 3203SOL     OW 9643   4.763   1.098   0.696
 3203SOL    HW1 9644   4.693   1.051   0.750
 3203SOL    HW2 9645   4.822   1.030   0.653
 3204SOL     OW 9646   4.738   0.236   0.971
 3204SOL    HW1 9647   4.730   0.200   0.878
 3204SOL    HW2 9648   4.736   0.160   1.036
 3205SOL     OW 9649   4.314   1.487   0.491
 3205SOL    HW1 9650   4.356   1.429   0.421
 3205SOL    HW2 9651   4.270   1.566   0.447
 3206SOL     OW 9652   3.979   1.348   0.290
 3206SOL    HW1 9653   3.883   1.349   0.263
 3206SOL    HW2 9654   3.991   1.401   0.374
 3207SOL     OW 9655   3.829   1.013   1.726
 3207SOL    HW1 9656   3.752   0.980   1.780
 3207SOL    HW2 9657   3.914   0.983   1.768
 3208SOL     OW 9658   4.396   0.203   1.489
 3208SOL    HW1 9659   4.486   0.187   1.449
 3208SOL    HW2 9660   4.404   0.208   1.588
 3209SOL     OW 9661   3.796   0.166   0.318
 3209SOL    HW1 9662   3.779   0.249   0.264
 3209SOL    HW2 9663   3.886   0.129   0.296
 3210SOL     OW 9664   4.337   0.842   1.431
 3210SOL    HW1 9665   4.393   0.923   1.414
 3210SOL    HW2 9666   4.396   0.762   1.434
 3211SOL     OW 9667   4.440   0.565   1.708
 3211SOL    HW1 9668   4.459   0.630   1.782
 3211SOL    HW2 9669   4.500   0.485   1.717
 3212SOL     OW 9670   4.114   1.741   1.560
 3212SOL    HW1 9671   4.023   1.782   1.558
 3212SOL    HW2 9672   4.107   1.647   1.592
 3213SOL     OW 9673   4.318   0.745   0.652
 3213SOL    HW1 9674   4.368   0.830   0.633
 3213SOL    HW2 9675   4.230   0.747   0.604
 3214SOL     OW 9676   4.583   1.374   0.016
 3214SOL    HW1 9677   4.537   1.389   0.104
 3214SOL    HW2 9678   4.627   1.459  -0.014
 3215SOL     OW 9679   4.385   1.790   0.953
 3215SOL    HW1 9680   4.339   1.878   0.940
 3215SOL    HW2 9681   4.484   1.802   0.946
 3216SOL     OW 9682   4.583   0.956   0.861
 3216SOL    HW1 9683   4.637   0.887   0.909
 3216SOL    HW2 9684   4.551   1.025   0.927
 3217SOL     OW 9685   4.807   0.984   0.087
 3217SOL    HW1 9686   4.784   1.037   0.005
 3217SOL    HW2 9687   4.888   0.928   0.068
 3218SOL     OW 9688   3.945   1.314   1.844
 3218SOL    HW1 9689   3.880   1.241   1.823
 3218SOL    HW2 9690   3.949   1.328   1.942
 3219SOL     OW 9691   3.803   1.240   0.653
 3219SOL    HW1 9692   3.802   1.193   0.741
 3219SOL    HW2 9693   3.885   1.212   0.602
 3220SOL     OW 9694   4.396   1.391   1.624
 3220SOL    HW1 9695   4.318   1.341   1.662
 3220SOL    HW2 9696   4.393   1.486   1.655
 3221SOL     OW 9697   4.152   0.424   0.520
 3221SOL    HW1 9698   4.182   0.352   0.458
 3221SOL    HW2 9699   4.113   0.384   0.603
 3222SOL     OW 9700   4.041   0.547   1.280
 3222SOL    HW1 9701   4.079   0.488   1.352
 3222SOL    HW2 9702   4.081   0.521   1.192
 3223SOL     OW 9703   4.536   1.586   0.687
 3223SOL    HW1 9704   4.568   1.596   0.593
 3223SOL    HW2 9705   4.457   1.524   0.689
 3224SOL     OW 9706   4.725   0.034   1.154
 3224SOL    HW1 9707   4.662  -0.038   1.123
 3224SOL    HW2 9708   4.818  -0.002   1.154
 3225SOL     OW 9709   4.494   1.330   0.301
 3225SOL    HW1 9710   4.448   1.243   0.318
 3225SOL    HW2 9711   4.585   1.327   0.342
 3226SOL     OW 9712   4.342   1.567   1.284
 3226SOL    HW1 9713   4.337   1.649   1.341
 3226SOL    HW2 9714   4.431   1.564   1.239
 3227SOL     OW 9715   3.763   1.077   0.300
 3227SOL    HW1 9716   3.862   1.066   0.291
 3227SOL    HW2 9717   3.723   0.991   0.332
 3228SOL     OW 9718   4.599   1.646   0.337
 3228SOL    HW1 9719   4.522   1.611   0.283
 3228SOL    HW2 9720   4.567   1.717   0.399
 3229SOL     OW 9721   3.954   0.628   1.975
 3229SOL    HW1 9722   3.861   0.626   2.012
 3229SOL    HW2 9723   3.955   0.589   1.883
 3230SOL     OW 9724   3.949   0.275   2.858
 3230SOL    HW1 9725   3.984   0.258   2.950
 3230SOL    HW2 9726   3.861   0.230   2.846
 3231SOL     OW 9727   3.743   0.368   2.509
 3231SOL    HW1 9728   3.661   0.411   2.548
 3231SOL    HW2 9729   3.715   0.295   2.446
 3232SOL     OW 9730   4.293   1.275   3.027
 3232SOL    HW1 9731   4.200   1.268   2.990
 3232SOL    HW2 9732   4.304   1.364   3.071
 3233SOL     OW 9733   4.859   0.703   2.579
 3233SOL    HW1 9734   4.916   0.781   2.554
 3233SOL    HW2 9735   4.799   0.729   2.655
 3234SOL     OW 9736   4.492   1.144   2.885
 3234SOL    HW1 9737   4.414   1.161   2.945
 3234SOL    HW2 9738   4.526   1.231   2.849
 3235SOL     OW 9739   4.574   0.798   3.685
 3235SOL    HW1 9740   4.570   0.874   3.750
 3235SOL    HW2 9741   4.596   0.834   3.594
 3236SOL     OW 9742   4.409   1.012   2.527
 3236SOL    HW1 9743   4.478   0.996   2.597
 3236SOL    HW2 9744   4.336   1.069   2.565
 3237SOL     OW 9745   4.410   1.161   3.665
 3237SOL    HW1 9746   4.470   1.240   3.679
 3237SOL    HW2 9747   4.324   1.192   3.624
 3238SOL     OW 9748   4.059   1.435   2.923
 3238SOL    HW1 9749   3.981   1.404   2.870
 3238SOL    HW2 9750   4.117   1.493   2.866
 3239SOL     OW 9751   4.162   0.392   3.361
 3239SOL    HW1 9752   4.244   0.336   3.370
 3239SOL    HW2 9753   4.081   0.334   3.365
 3240SOL     OW 9754   3.955   1.713   2.345
 3240SOL    HW1 9755   3.989   1.790   2.399
 3240SOL    HW2 9756   3.999   1.713   2.255
 3241SOL     OW 9757   4.851   1.341   3.552
 3241SOL    HW1 9758   4.898   1.341   3.640
 3241SOL    HW2 9759   4.803   1.254   3.541
 3242SOL     OW 9760   3.954   1.434   2.400
 3242SOL    HW1 9761   3.928   1.530   2.400
 3242SOL    HW2 9762   3.883   1.380   2.445
 3243SOL     OW 9763   3.964   1.091   2.748
 3243SOL    HW1 9764   3.978   1.007   2.800
 3243SOL    HW2 9765   3.909   1.155   2.803
 3244SOL     OW 9766   4.344   1.786   3.301
 3244SOL    HW1 9767   4.252   1.769   3.336
 3244SOL    HW2 9768   4.372   1.878   3.327
 3245SOL     OW 9769   4.330   0.964   1.985
 3245SOL    HW1 9770   4.337   1.048   1.931
 3245SOL    HW2 9771   4.376   0.977   2.073
 3246SOL     OW 9772   3.846   0.643   2.425
 3246SOL    HW1 9773   3.801   0.555   2.442
 3246SOL    HW2 9774   3.845   0.697   2.509
 3247SOL     OW 9775   3.751   1.596   1.979
 3247SOL    HW1 9776   3.732   1.500   2.000
 3247SOL    HW2 9777   3.718   1.654   2.054
 3248SOL     OW 9778   3.837   0.737   3.459
 3248SOL    HW1 9779   3.925   0.724   3.504
 3248SOL    HW2 9780   3.824   0.834   3.437
 3249SOL     OW 9781   4.337   1.365   2.588
 3249SOL    HW1 9782   4.288   1.278   2.597
 3249SOL    HW2 9783   4.314   1.408   2.501
 3250SOL     OW 9784   4.533   0.004   2.364
 3250SOL    HW1 9785   4.573   0.095   2.355
 3250SOL    HW2 9786   4.433   0.012   2.370
 3251SOL     OW 9787   3.921   0.976   3.126
 3251SOL    HW1 9788   4.010   0.931   3.112
 3251SOL    HW2 9789   3.848   0.911   3.107
 3252SOL     OW 9790   4.911   1.792   3.478
 3252SOL    HW1 9791   4.935   1.852   3.402
 3252SOL    HW2 9792   4.918   1.697   3.448
 3253SOL     OW 9793   4.041   0.251   3.663
 3253SOL    HW1 9794   4.112   0.322   3.669
 3253SOL    HW2 9795   3.953   0.290   3.691
 3254SOL     OW 9796   4.322   0.729   2.132
 3254SOL    HW1 9797   4.346   0.798   2.064
 3254SOL    HW2 9798   4.244   0.762   2.186
 3255SOL     OW 9799   5.005   0.345   2.806
 3255SOL    HW1 9800   4.919   0.295   2.793
 3255SOL    HW2 9801   5.067   0.291   2.862
 3256SOL     OW 9802   4.531   0.605   3.327
 3256SOL    HW1 9803   4.484   0.602   3.416
 3256SOL    HW2 9804   4.480   0.550   3.261
 3257SOL     OW 9805   4.697   0.890   3.434
 3257SOL    HW1 9806   4.743   0.806   3.405
 3257SOL    HW2 9807   4.641   0.924   3.359
 3258SOL     OW 9808   4.715   0.410   3.104
 3258SOL    HW1 9809   4.638   0.444   3.158
 3258SOL    HW2 9810   4.681   0.359   3.025
 3259SOL     OW 9811   4.765   0.701   2.291
 3259SOL    HW1 9812   4.791   0.697   2.387
 3259SOL    HW2 9813   4.680   0.650   2.277
 3260SOL     OW 9814   3.800   0.811   2.651
 3260SOL    HW1 9815   3.899   0.799   2.660
 3260SOL    HW2 9816   3.776   0.906   2.672
 3261SOL     OW 9817   3.854   1.821   3.433
 3261SOL    HW1 9818   3.844   1.806   3.532
 3261SOL    HW2 9819   3.768   1.857   3.397
 3262SOL     OW 9820   4.589   0.348   2.057
 3262SOL    HW1 9821   4.648   0.411   2.008
 3262SOL    HW2 9822   4.608   0.254   2.028
 3263SOL     OW 9823   4.274   0.196   2.747
 3263SOL    HW1 9824   4.269   0.191   2.847
 3263SOL    HW2 9825   4.276   0.292   2.718
 3264SOL     OW 9826   4.732   1.456   2.339
 3264SOL    HW1 9827   4.686   1.528   2.287
 3264SOL    HW2 9828   4.728   1.476   2.437
 3265SOL     OW 9829   4.075   1.801   2.715
 3265SOL    HW1 9830   4.125   1.715   2.721
 3265SOL    HW2 9831   4.140   1.878   2.712
 3266SOL     OW 9832   4.951   1.550   3.368
 3266SOL    HW1 9833   4.957   1.473   3.432
 3266SOL    HW2 9834   4.899   1.524   3.288
 3267SOL     OW 9835   4.045   0.943   2.104
 3267SOL    HW1 9836   4.127   0.982   2.062
 3267SOL    HW2 9837   4.018   0.861   2.055
 3268SOL     OW 9838   4.185   1.266   3.589
 3268SOL    HW1 9839   4.135   1.267   3.503
 3268SOL    HW2 9840   4.122   1.248   3.665
 3269SOL     OW 9841   4.835   1.776   2.099
 3269SOL    HW1 9842   4.775   1.714   2.149
 3269SOL    HW2 9843   4.866   1.732   2.014
 3270SOL     OW 9844   4.188   1.743   2.185
 3270SOL    HW1 9845   4.221   1.782   2.271
 3270SOL    HW2 9846   4.264   1.736   2.120
 3271SOL     OW 9847   3.973   1.785   3.103
 3271SOL    HW1 9848   4.030   1.720   3.153
 3271SOL    HW2 9849   3.957   1.752   3.010
 3272SOL     OW 9850   4.664   1.698   2.766
 3272SOL    HW1 9851   4.744   1.641   2.787
 3272SOL    HW2 9852   4.615   1.658   2.689
 3273SOL     OW 9853   4.106   0.700   2.342
 3273SOL    HW1 9854   4.151   0.610   2.339
 3273SOL    HW2 9855   4.012   0.689   2.375
 3274SOL     OW 9856   4.338   0.122   1.979
 3274SOL    HW1 9857   4.436   0.100   1.986
 3274SOL    HW2 9858   4.307   0.105   1.886
 3275SOL     OW 9859   4.505   0.264   3.611
 3275SOL    HW1 9860   4.572   0.203   3.654
 3275SOL    HW2 9861   4.432   0.283   3.676
 3276SOL     OW 9862   4.612   1.514   3.057
 3276SOL    HW1 9863   4.589   1.489   2.963
 3276SOL    HW2 9864   4.673   1.445   3.096
 3277SOL     OW 9865   4.527   1.402   2.786
 3277SOL    HW1 9866   4.617   1.416   2.744
 3277SOL    HW2 9867   4.456   1.404   2.715
 3278SOL     OW 9868   4.646   0.503   2.761
 3278SOL    HW1 9869   4.621   0.494   2.665
 3278SOL    HW2 9870   4.694   0.421   2.792
 3279SOL     OW 9871   4.263   0.064   2.374
 3279SOL    HW1 9872   4.182   0.065   2.432
 3279SOL    HW2 9873   4.266   0.147   2.319
 3280SOL     OW 9874   4.021   0.035   2.033
 3280SOL    HW1 9875   4.070   0.119   2.012
 3280SOL    HW2 9876   4.083  -0.030   2.078
 3281SOL     OW 9877   4.659   0.236   2.342
 3281SOL    HW1 9878   4.611   0.277   2.264
 3281SOL    HW2 9879   4.758   0.234   2.323
 3282SOL     OW 9880   4.800   0.683   3.326
 3282SOL    HW1 9881   4.720   0.622   3.329
 3282SOL    HW2 9882   4.881   0.630   3.302
 3283SOL     OW 9883   4.951   1.570   2.655
 3283SOL    HW1 9884   4.972   1.644   2.590
 3283SOL    HW2 9885   5.019   1.570   2.728
 3284SOL     OW 9886   4.183   1.152   2.603
 3284SOL    HW1 9887   4.112   1.125   2.668
 3284SOL    HW2 9888   4.157   1.124   2.510
 3285SOL     OW 9889   4.995   1.797   2.453
 3285SOL    HW1 9890   5.039   1.861   2.389
 3285SOL    HW2 9891   4.945   1.849   2.523
 3286SOL     OW 9892   4.756   0.549   1.878
 3286SOL    HW1 9893   4.715   0.631   1.839
 3286SOL    HW2 9894   4.820   0.575   1.951
 3287SOL     OW 9895   3.802   0.556   3.248
 3287SOL    HW1 9896   3.894   0.555   3.207
 3287SOL    HW2 9897   3.796   0.630   3.315
 3288SOL     OW 9898   4.285   0.222   3.009
 3288SOL    HW1 9899   4.323   0.138   3.046
 3288SOL    HW2 9900   4.197   0.241   3.053
 3289SOL     OW 9901   4.590   0.454   2.504
 3289SOL    HW1 9902   4.558   0.526   2.442
 3289SOL    HW2 9903   4.614   0.373   2.451
 3290SOL     OW 9904   4.741   0.039   2.615
 3290SOL    HW1 9905   4.669   0.044   2.546
 3290SOL    HW2 9906   4.717  -0.030   2.684
 3291SOL     OW 9907   4.212   1.385   2.036
 3291SOL    HW1 9908   4.125   1.370   2.083
 3291SOL    HW2 9909   4.195   1.411   1.941
 3292SOL     OW 9910   4.251   0.256   2.190
 3292SOL    HW1 9911   4.278   0.197   2.115
 3292SOL    HW2 9912   4.251   0.351   2.159
 3293SOL     OW 9913   4.788   1.347   3.202
 3293SOL    HW1 9914   4.708   1.324   3.257
 3293SOL    HW2 9915   4.871   1.321   3.251
 3294SOL     OW 9916   4.835   1.195   2.962
 3294SOL    HW1 9917   4.795   1.239   3.043
 3294SOL    HW2 9918   4.794   1.232   2.879
 3295SOL     OW 9919   4.639   0.089   3.264
 3295SOL    HW1 9920   4.664   0.069   3.169
 3295SOL    HW2 9921   4.711   0.145   3.306
 3296SOL     OW 9922   4.704   1.116   3.581
 3296SOL    HW1 9923   4.605   1.122   3.591
 3296SOL    HW2 9924   4.727   1.036   3.525
 3297SOL     OW 9925   4.429   1.050   2.230
 3297SOL    HW1 9926   4.415   1.057   2.329
 3297SOL    HW2 9927   4.513   0.999   2.212
 3298SOL     OW 9928   4.134   0.813   3.113
 3298SOL    HW1 9929   4.220   0.825   3.163
 3298SOL    HW2 9930   4.092   0.726   3.140
 3299SOL     OW 9931   4.998   0.386   3.124
 3299SOL    HW1 9932   5.019   0.460   3.188
 3299SOL    HW2 9933   4.909   0.403   3.081
 3300SOL     OW 9934   3.788   1.564   3.193
 3300SOL    HW1 9935   3.742   1.646   3.159
 3300SOL    HW2 9936   3.886   1.583   3.202
 3301SOL     OW 9937   4.091   1.100   2.363
 3301SOL    HW1 9938   4.084   1.183   2.307
 3301SOL    HW2 9939   4.095   1.020   2.303
 3302SOL     OW 9940   4.290   0.537   2.727
 3302SOL    HW1 9941   4.302   0.603   2.653
 3302SOL    HW2 9942   4.336   0.571   2.810
 3303SOL     OW 9943   4.976   1.348   2.250
 3303SOL    HW1 9944   5.026   1.425   2.290
 3303SOL    HW2 9945   4.881   1.350   2.282
 3304SOL     OW 9946   4.078   1.510   3.191
 3304SOL    HW1 9947   4.057   1.466   3.104
 3304SOL    HW2 9948   4.175   1.536   3.194
 3305SOL     OW 9949   4.126   0.751   3.460
 3305SOL    HW1 9950   4.194   0.806   3.413
 3305SOL    HW2 9951   4.166   0.663   3.487
 3306SOL     OW 9952   4.737   0.105   3.632
 3306SOL    HW1 9953   4.743   0.190   3.580
 3306SOL    HW2 9954   4.769   0.029   3.575
 3307SOL     OW 9955   4.228   0.050   3.602
 3307SOL    HW1 9956   4.186  -0.007   3.532
 3307SOL    HW2 9957   4.162   0.119   3.634
 3308SOL     OW 9958   4.297   0.870   2.891
 3308SOL    HW1 9959   4.341   0.959   2.882
 3308SOL    HW2 9960   4.234   0.870   2.968
 3309SOL     OW 9961   5.084   0.862   2.907
 3309SOL    HW1 9962   5.009   0.862   2.841
 3309SOL    HW2 9963   5.121   0.770   2.916
 3310SOL     OW 9964   4.933   0.525   2.137
 3310SOL    HW1 9965   4.946   0.441   2.191
 3310SOL    HW2 9966   4.904   0.599   2.197
 3311SOL     OW 9967   4.031   0.213   3.093
 3311SOL    HW1 9968   4.008   0.250   3.183
 3311SOL    HW2 9969   4.001   0.118   3.087
 3312SOL     OW 9970   3.761   1.310   3.144
 3312SOL    HW1 9971   3.814   1.261   3.212
 3312SOL    HW2 9972   3.783   1.408   3.149
 3313SOL     OW 9973   4.456   0.634   2.926
 3313SOL    HW1 9974   4.515   0.608   2.850
 3313SOL    HW2 9975   4.428   0.730   2.915
 3314SOL     OW 9976   4.031   0.063   2.480
 3314SOL    HW1 9977   4.020   0.157   2.513
 3314SOL    HW2 9978   4.026   0.000   2.557
 3315SOL     OW 9979   5.346   0.367   2.236
 3315SOL    HW1 9980   5.348   0.291   2.300
 3315SOL    HW2 9981   5.298   0.444   2.276
 3316SOL     OW 9982   4.747   0.766   2.828
 3316SOL    HW1 9983   4.762   0.787   2.924
 3316SOL    HW2 9984   4.717   0.671   2.819
 3317SOL     OW 9985   4.704   1.573   3.562
 3317SOL    HW1 9986   4.684   1.617   3.474
 3317SOL    HW2 9987   4.743   1.482   3.546
 3318SOL     OW 9988   4.074   0.898   3.666
 3318SOL    HW1 9989   4.150   0.942   3.714
 3318SOL    HW2 9990   4.109   0.851   3.584
 3319SOL     OW 9991   5.264   0.274   1.987
 3319SOL    HW1 9992   5.203   0.199   2.010
 3319SOL    HW2 9993   5.286   0.326   2.070
 3320SOL     OW 9994   4.792   1.333   2.711
 3320SOL    HW1 9995   4.799   1.249   2.656
 3320SOL    HW2 9996   4.854   1.402   2.675
 3321SOL     OW 9997   4.043   0.810   2.811
 3321SOL    HW1 9998   4.136   0.846   2.816
 3321SOL    HW2 9999   4.037   0.725   2.863
 3322SOL     OW10000   4.063   0.509   2.868
 3322SOL    HW110001   4.011   0.426   2.851
 3322SOL    HW210002   4.140   0.514   2.804
 3323SOL     OW10003   4.862   0.380   3.540
 3323SOL    HW110004   4.817   0.443   3.604
 3323SOL    HW210005   4.955   0.411   3.523
 3324SOL     OW10006   4.884   0.207   3.339
 3324SOL    HW110007   4.884   0.271   3.416
 3324SOL    HW210008   4.912   0.255   3.256
 3325SOL     OW10009   3.732   1.326   2.062
 3325SOL    HW110010   3.639   1.347   2.031
 3325SOL    HW210011   3.742   1.227   2.075
 3326SOL     OW10012   3.812   1.801   2.789
 3326SOL    HW110013   3.770   1.715   2.762
 3326SOL    HW210014   3.906   1.804   2.755
 3327SOL     OW10015   4.228   1.568   2.772
 3327SOL    HW110016   4.294   1.642   2.781
 3327SOL    HW210017   4.272   1.489   2.730
 3328SOL     OW10018   4.726   0.796   3.100
 3328SOL    HW110019   4.767   0.764   3.186
 3328SOL    HW210020   4.630   0.769   3.097
 3329SOL     OW10021   3.764   0.544   2.976
 3329SOL    HW110022   3.849   0.511   2.935
 3329SOL    HW210023   3.777   0.559   3.074
 3330SOL     OW10024   3.913   0.520   3.584
 3330SOL    HW110025   3.972   0.480   3.514
 3330SOL    HW210026   3.855   0.591   3.543
 3331SOL     OW10027   4.539   0.572   2.187
 3331SOL    HW110028   4.546   0.483   2.141
 3331SOL    HW210029   4.445   0.606   2.179
 3332SOL     OW10030   3.976   1.564   3.606
 3332SOL    HW110031   3.946   1.621   3.682
 3332SOL    HW210032   3.969   1.467   3.632
 3333SOL     OW10033   4.395   0.464   3.131
 3333SOL    HW110034   4.361   0.375   3.101
 3333SOL    HW210035   4.421   0.518   3.051
 3334SOL     OW10036   4.654   1.678   3.327
 3334SOL    HW110037   4.630   1.660   3.232
 3334SOL    HW210038   4.684   1.772   3.337
 3335SOL     OW10039   4.197   0.500   2.053
 3335SOL    HW110040   4.258   0.580   2.057
 3335SOL    HW210041   4.102   0.531   2.060
 3336SOL     OW10042   3.883   1.137   3.328
 3336SOL    HW110043   3.905   1.076   3.404
 3336SOL    HW210044   3.893   1.088   3.242
 3337SOL     OW10045   5.071   1.059   3.096
 3337SOL    HW110046   5.095   0.996   3.022
 3337SOL    HW210047   4.981   1.099   3.078
 3338SOL     OW10048   4.976   1.731   2.990
 3338SOL    HW110049   5.060   1.736   2.936
 3338SOL    HW210050   4.953   1.635   3.008
 3339SOL     OW10051   3.807   1.258   2.884
 3339SOL    HW110052   3.802   1.257   2.984
 3339SOL    HW210053   3.724   1.217   2.846
 3340SOL     OW10054   4.412   1.662   3.578
 3340SOL    HW110055   4.356   1.743   3.587
 3340SOL    HW210056   4.464   1.666   3.492
 3341SOL     OW10057   5.112   1.573   2.339
 3341SOL    HW110058   5.179   1.585   2.265
 3341SOL    HW210059   5.072   1.662   2.362
 3342SOL     OW10060   3.854   1.794   3.713
 3342SOL    HW110061   3.813   1.720   3.766
 3342SOL    HW210062   3.918   1.845   3.771
 3343SOL     OW10063   4.554   1.273   3.284
 3343SOL    HW110064   4.549   1.306   3.379
 3343SOL    HW210065   4.468   1.292   3.238
 3344SOL     OW10066   4.396   1.616   2.016
 3344SOL    HW110067   4.405   1.626   1.917
 3344SOL    HW210068   4.356   1.527   2.037
 3345SOL     OW10069   3.987   0.326   2.582
 3345SOL    HW110070   3.908   0.377   2.548
 3345SOL    HW210071   3.978   0.311   2.680
 3346SOL     OW10072   4.918   1.612   1.893
 3346SOL    HW110073   4.924   1.519   1.930
 3346SOL    HW210074   4.859   1.612   1.813
 3347SOL     OW10075   4.546   1.002   3.234
 3347SOL    HW110076   4.586   1.001   3.142
 3347SOL    HW210077   4.556   1.094   3.274
 3348SOL     OW10078   4.640   0.910   2.153
 3348SOL    HW110079   4.703   0.948   2.085
 3348SOL    HW210080   4.680   0.827   2.192
 3349SOL     OW10081   4.096   1.288   3.352
 3349SOL    HW110082   4.083   1.381   3.318
 3349SOL    HW210083   4.012   1.236   3.339
 3350SOL     OW10084   4.763   1.098   2.558
 3350SOL    HW110085   4.693   1.051   2.612
 3350SOL    HW210086   4.822   1.030   2.515
 3351SOL     OW10087   4.738   0.236   2.833
 3351SOL    HW110088   4.730   0.200   2.740
 3351SOL    HW210089   4.736   0.160   2.898
 3352SOL     OW10090   4.314   1.487   2.353
 3352SOL    HW110091   4.356   1.429   2.283
 3352SOL    HW210092   4.270   1.566   2.309
 3353SOL     OW10093   3.979   1.348   2.152
 3353SOL    HW110094   3.883   1.349   2.125
 3353SOL    HW210095   3.991   1.401   2.236
 3354SOL     OW10096   3.829   1.013   3.588
 3354SOL    HW110097   3.752   0.980   3.642
 3354SOL    HW210098   3.914   0.983   3.630
 3355SOL     OW10099   4.396   0.203   3.351
 3355SOL    HW110100   4.486   0.187   3.311
 3355SOL    HW210101   4.404   0.208   3.450
 3356SOL     OW10102   3.799   0.345   1.895
 3356SOL    HW110103   3.707   0.317   1.866
 3356SOL    HW210104   3.830   0.422   1.839
 3357SOL     OW10105   3.796   0.166   2.180
 3357SOL    HW110106   3.779   0.249   2.126
 3357SOL    HW210107   3.886   0.129   2.158
 3358SOL     OW10108   4.337   0.842   3.293
 3358SOL    HW110109   4.393   0.923   3.276
 3358SOL    HW210110   4.396   0.762   3.296
 3359SOL     OW10111   4.440   0.565   3.570
 3359SOL    HW110112   4.459   0.630   3.644
 3359SOL    HW210113   4.500   0.485   3.579
 3360SOL     OW10114   4.114   1.741   3.422
 3360SOL    HW110115   4.023   1.782   3.420
 3360SOL    HW210116   4.107   1.647   3.454
 3361SOL     OW10117   4.318   0.745   2.514
 3361SOL    HW110118   4.368   0.830   2.495
 3361SOL    HW210119   4.230   0.747   2.466
 3362SOL     OW10120   4.583   1.374   1.878
 3362SOL    HW110121   4.537   1.389   1.966
 3362SOL    HW210122   4.627   1.459   1.848
 3363SOL     OW10123   4.385   1.790   2.815
 3363SOL    HW110124   4.339   1.878   2.802
 3363SOL    HW210125   4.484   1.802   2.808
 3364SOL     OW10126   4.583   0.956   2.723
 3364SOL    HW110127   4.637   0.887   2.771
 3364SOL    HW210128   4.551   1.025   2.789
 3365SOL     OW10129   4.807   0.984   1.949
 3365SOL    HW110130   4.784   1.037   1.867
 3365SOL    HW210131   4.888   0.928   1.930
 3366SOL     OW10132   3.945   1.314   3.706
 3366SOL    HW110133   3.880   1.241   3.685
 3366SOL    HW210134   3.949   1.328   3.804
 3367SOL     OW10135   3.803   1.240   2.515
 3367SOL    HW110136   3.802   1.193   2.603
 3367SOL    HW210137   3.885   1.212   2.464
 3368SOL     OW10138   4.396   1.391   3.486
 3368SOL    HW110139   4.318   1.341   3.524
 3368SOL    HW210140   4.393   1.486   3.517
 3369SOL     OW10141   4.152   0.424   2.382
 3369SOL    HW110142   4.182   0.352   2.320
 3369SOL    HW210143   4.113   0.384   2.465
 3370SOL     OW10144   4.041   0.547   3.142
 3370SOL    HW110145   4.079   0.488   3.214
 3370SOL    HW210146   4.081   0.521   3.054
 3371SOL     OW10147   4.536   1.586   2.549
 3371SOL    HW110148   4.568   1.596   2.455
 3371SOL    HW210149   4.457   1.524   2.551
 3372SOL     OW10150   4.725   0.034   3.016
 3372SOL    HW110151   4.662  -0.038   2.985
 3372SOL    HW210152   4.818  -0.002   3.016
 3373SOL     OW10153   4.494   1.330   2.163
 3373SOL    HW110154   4.448   1.243   2.180
 3373SOL    HW210155   4.585   1.327   2.204
 3374SOL     OW10156   4.342   1.567   3.146
 3374SOL    HW110157   4.337   1.649   3.203
 3374SOL    HW210158   4.431   1.564   3.101
 3375SOL     OW10159   3.763   1.077   2.162
 3375SOL    HW110160   3.862   1.066   2.153
 3375SOL    HW210161   3.723   0.991   2.194
 3376SOL     OW10162   4.599   1.646   2.199
 3376SOL    HW110163   4.522   1.611   2.145
 3376SOL    HW210164   4.567   1.717   2.261
 3377SOL     OW10165   3.954   0.628   3.837
 3377SOL    HW110166   3.861   0.626   3.874
 3377SOL    HW210167   3.955   0.589   3.745
 3378SOL     OW10168   3.949   0.275   4.720
 3378SOL    HW110169   3.984   0.258   4.812
 3378SOL    HW210170   3.861   0.230   4.708
 3379SOL     OW10171   3.743   0.368   4.371
 3379SOL    HW110172   3.661   0.411   4.410
 3379SOL    HW210173   3.715   0.295   4.308
 3380SOL     OW10174   4.293   1.275   4.889
 3380SOL    HW110175   4.200   1.268   4.852
 3380SOL    HW210176   4.304   1.364   4.933
 3381SOL     OW10177   4.859   0.703   4.441
 3381SOL    HW110178   4.916   0.781   4.416
 3381SOL    HW210179   4.799   0.729   4.517
 3382SOL     OW10180   4.492   1.144   4.747
 3382SOL    HW110181   4.414   1.161   4.807
 3382SOL    HW210182   4.526   1.231   4.711
 3383SOL     OW10183   4.409   1.012   4.389
 3383SOL    HW110184   4.478   0.996   4.459
 3383SOL    HW210185   4.336   1.069   4.427
 3384SOL     OW10186   4.059   1.435   4.785
 3384SOL    HW110187   3.981   1.404   4.732
 3384SOL    HW210188   4.117   1.493   4.728
 3385SOL     OW10189   3.955   1.713   4.207
 3385SOL    HW110190   3.989   1.790   4.261
 3385SOL    HW210191   3.999   1.713   4.117
 3386SOL     OW10192   3.954   1.434   4.262
 3386SOL    HW110193   3.928   1.530   4.262
 3386SOL    HW210194   3.883   1.380   4.307
 3387SOL     OW10195   3.964   1.091   4.610
 3387SOL    HW110196   3.978   1.007   4.662
 3387SOL    HW210197   3.909   1.155   4.665
 3388SOL     OW10198   4.330   0.964   3.847
 3388SOL    HW110199   4.337   1.048   3.793
 3388SOL    HW210200   4.376   0.977   3.935
 3389SOL     OW10201   3.846   0.643   4.287
 3389SOL    HW110202   3.801   0.555   4.304
 3389SOL    HW210203   3.845   0.697   4.371
 3390SOL     OW10204   3.751   1.596   3.841
 3390SOL    HW110205   3.732   1.500   3.862
 3390SOL    HW210206   3.718   1.654   3.916
 3391SOL     OW10207   3.837   0.737   5.321
 3391SOL    HW110208   3.925   0.724   5.366
 3391SOL    HW210209   3.824   0.834   5.299
 3392SOL     OW10210   4.337   1.365   4.450
 3392SOL    HW110211   4.288   1.278   4.459
 3392SOL    HW210212   4.314   1.408   4.363
 3393SOL     OW10213   4.533   0.004   4.226
 3393SOL    HW110214   4.573   0.095   4.217
 3393SOL    HW210215   4.433   0.012   4.232
 3394SOL     OW10216   3.921   0.976   4.988
 3394SOL    HW110217   4.010   0.931   4.974
 3394SOL    HW210218   3.848   0.911   4.969
 3395SOL     OW10219   4.322   0.729   3.994
 3395SOL    HW110220   4.346   0.798   3.926
 3395SOL    HW210221   4.244   0.762   4.048
 3396SOL     OW10222   5.005   0.345   4.668
 3396SOL    HW110223   4.919   0.295   4.655
 3396SOL    HW210224   5.067   0.291   4.724
 3397SOL     OW10225   4.715   0.410   4.966
 3397SOL    HW110226   4.638   0.444   5.020
 3397SOL    HW210227   4.681   0.359   4.887
 3398SOL     OW10228   4.765   0.701   4.153
 3398SOL    HW110229   4.791   0.697   4.249
 3398SOL    HW210230   4.680   0.650   4.139
 3399SOL     OW10231   3.800   0.811   4.513
 3399SOL    HW110232   3.899   0.799   4.522
 3399SOL    HW210233   3.776   0.906   4.534
 3400SOL     OW10234   4.589   0.348   3.919
 3400SOL    HW110235   4.648   0.411   3.870
 3400SOL    HW210236   4.608   0.254   3.890
 3401SOL     OW10237   4.274   0.196   4.609
 3401SOL    HW110238   4.269   0.191   4.709
 3401SOL    HW210239   4.276   0.292   4.580
 3402SOL     OW10240   4.732   1.456   4.201
 3402SOL    HW110241   4.686   1.528   4.149
 3402SOL    HW210242   4.728   1.476   4.299
 3403SOL     OW10243   4.075   1.801   4.577
 3403SOL    HW110244   4.125   1.715   4.583
 3403SOL    HW210245   4.140   1.878   4.574
 3404SOL     OW10246   4.045   0.943   3.966
 3404SOL    HW110247   4.127   0.982   3.924
 3404SOL    HW210248   4.018   0.861   3.917
 3405SOL     OW10249   4.835   1.776   3.961
 3405SOL    HW110250   4.775   1.714   4.011
 3405SOL    HW210251   4.866   1.732   3.876
 3406SOL     OW10252   4.188   1.743   4.047
 3406SOL    HW110253   4.221   1.782   4.133
 3406SOL    HW210254   4.264   1.736   3.982
 3407SOL     OW10255   3.973   1.785   4.965
 3407SOL    HW110256   4.030   1.720   5.015
 3407SOL    HW210257   3.957   1.752   4.872
 3408SOL     OW10258   4.664   1.698   4.628
 3408SOL    HW110259   4.744   1.641   4.649
 3408SOL    HW210260   4.615   1.658   4.551
 3409SOL     OW10261   4.106   0.700   4.204
 3409SOL    HW110262   4.151   0.610   4.201
 3409SOL    HW210263   4.012   0.689   4.237
 3410SOL     OW10264   4.338   0.122   3.841
 3410SOL    HW110265   4.436   0.100   3.848
 3410SOL    HW210266   4.307   0.105   3.748
 3411SOL     OW10267   4.527   1.402   4.648
 3411SOL    HW110268   4.617   1.416   4.606
 3411SOL    HW210269   4.456   1.404   4.577
 3412SOL     OW10270   4.646   0.503   4.623
 3412SOL    HW110271   4.621   0.494   4.527
 3412SOL    HW210272   4.694   0.421   4.654
 3413SOL     OW10273   4.263   0.064   4.236
 3413SOL    HW110274   4.182   0.065   4.294
 3413SOL    HW210275   4.266   0.147   4.181
 3414SOL     OW10276   4.021   0.035   3.895
 3414SOL    HW110277   4.070   0.119   3.874
 3414SOL    HW210278   4.083  -0.030   3.940
 3415SOL     OW10279   4.659   0.236   4.204
 3415SOL    HW110280   4.611   0.277   4.126
 3415SOL    HW210281   4.758   0.234   4.185
 3416SOL     OW10282   4.951   1.570   4.517
 3416SOL    HW110283   4.972   1.644   4.452
 3416SOL    HW210284   5.019   1.570   4.590
 3417SOL     OW10285   4.183   1.152   4.465
 3417SOL    HW110286   4.112   1.125   4.530
 3417SOL    HW210287   4.157   1.124   4.372
 3418SOL     OW10288   4.995   1.797   4.315
 3418SOL    HW110289   5.039   1.861   4.251
 3418SOL    HW210290   4.945   1.849   4.385
 3419SOL     OW10291   4.756   0.549   3.740
 3419SOL    HW110292   4.715   0.631   3.701
 3419SOL    HW210293   4.820   0.575   3.813
 3420SOL     OW10294   4.285   0.222   4.871
 3420SOL    HW110295   4.323   0.138   4.908
 3420SOL    HW210296   4.197   0.241   4.915
 3421SOL     OW10297   4.590   0.454   4.366
 3421SOL    HW110298   4.558   0.526   4.304
 3421SOL    HW210299   4.614   0.373   4.313
 3422SOL     OW10300   4.741   0.039   4.477
 3422SOL    HW110301   4.669   0.044   4.408
 3422SOL    HW210302   4.717  -0.030   4.546
 3423SOL     OW10303   4.212   1.385   3.898
 3423SOL    HW110304   4.125   1.370   3.945
 3423SOL    HW210305   4.195   1.411   3.803
 3424SOL     OW10306   4.251   0.256   4.052
 3424SOL    HW110307   4.278   0.197   3.977
 3424SOL    HW210308   4.251   0.351   4.021
 3425SOL     OW10309   4.835   1.195   4.824
 3425SOL    HW110310   4.795   1.239   4.905
 3425SOL    HW210311   4.794   1.232   4.741
 3426SOL     OW10312   4.429   1.050   4.092
 3426SOL    HW110313   4.415   1.057   4.191
 3426SOL    HW210314   4.513   0.999   4.074
 3427SOL     OW10315   4.134   0.813   4.975
 3427SOL    HW110316   4.220   0.825   5.025
 3427SOL    HW210317   4.092   0.726   5.002
 3428SOL     OW10318   4.091   1.100   4.225
 3428SOL    HW110319   4.084   1.183   4.169
 3428SOL    HW210320   4.095   1.020   4.165
 3429SOL     OW10321   4.290   0.537   4.589
 3429SOL    HW110322   4.302   0.603   4.515
 3429SOL    HW210323   4.336   0.571   4.672
 3430SOL     OW10324   4.976   1.348   4.112
 3430SOL    HW110325   5.026   1.425   4.152
 3430SOL    HW210326   4.881   1.350   4.144
 3431SOL     OW10327   4.078   1.510   5.053
 3431SOL    HW110328   4.057   1.466   4.966
 3431SOL    HW210329   4.175   1.536   5.056
 3432SOL     OW10330   4.297   0.870   4.753
 3432SOL    HW110331   4.341   0.959   4.744
 3432SOL    HW210332   4.234   0.870   4.830
 3433SOL     OW10333   5.084   0.862   4.769
 3433SOL    HW110334   5.009   0.862   4.703
 3433SOL    HW210335   5.121   0.770   4.778
 3434SOL     OW10336   4.933   0.525   3.999
 3434SOL    HW110337   4.946   0.441   4.053
 3434SOL    HW210338   4.904   0.599   4.059
 3435SOL     OW10339   4.031   0.213   4.955
 3435SOL    HW110340   4.008   0.250   5.045
 3435SOL    HW210341   4.001   0.118   4.949
 3436SOL     OW10342   3.761   1.310   5.006
 3436SOL    HW110343   3.814   1.261   5.074
 3436SOL    HW210344   3.783   1.408   5.011
 3437SOL     OW10345   4.456   0.634   4.788
 3437SOL    HW110346   4.515   0.608   4.712
 3437SOL    HW210347   4.428   0.730   4.777
 3438SOL     OW10348   4.031   0.063   4.342
 3438SOL    HW110349   4.020   0.157   4.375
 3438SOL    HW210350   4.026   0.000   4.419
 3439SOL     OW10351   5.346   0.367   4.098
 3439SOL    HW110352   5.348   0.291   4.162
 3439SOL    HW210353   5.298   0.444   4.138
 3440SOL     OW10354   4.747   0.766   4.690
 3440SOL    HW110355   4.762   0.787   4.786
 3440SOL    HW210356   4.717   0.671   4.681
 3441SOL     OW10357   5.264   0.274   3.849
 3441SOL    HW110358   5.203   0.199   3.872
 3441SOL    HW210359   5.286   0.326   3.932
 3442SOL     OW10360   4.792   1.333   4.573
 3442SOL    HW110361   4.799   1.249   4.518
 3442SOL    HW210362   4.854   1.402   4.537
 3443SOL     OW10363   4.043   0.810   4.673
 3443SOL    HW110364   4.136   0.846   4.678
 3443SOL    HW210365   4.037   0.725   4.725
 3444SOL     OW10366   4.063   0.509   4.730
 3444SOL    HW110367   4.011   0.426   4.713
 3444SOL    HW210368   4.140   0.514   4.666
 3445SOL     OW10369   4.884   0.207   5.201
 3445SOL    HW110370   4.884   0.271   5.278
 3445SOL    HW210371   4.912   0.255   5.118
 3446SOL     OW10372   3.732   1.326   3.924
 3446SOL    HW110373   3.639   1.347   3.893
 3446SOL    HW210374   3.742   1.227   3.937
 3447SOL     OW10375   3.812   1.801   4.651
 3447SOL    HW110376   3.770   1.715   4.624
 3447SOL    HW210377   3.906   1.804   4.617
 3448SOL     OW10378   4.228   1.568   4.634
 3448SOL    HW110379   4.294   1.642   4.643
 3448SOL    HW210380   4.272   1.489   4.592
 3449SOL     OW10381   4.726   0.796   4.962
 3449SOL    HW110382   4.767   0.764   5.048
 3449SOL    HW210383   4.630   0.769   4.959
 3450SOL     OW10384   3.764   0.544   4.838
 3450SOL    HW110385   3.849   0.511   4.797
 3450SOL    HW210386   3.777   0.559   4.936
 3451SOL     OW10387   4.539   0.572   4.049
 3451SOL    HW110388   4.546   0.483   4.003
 3451SOL    HW210389   4.445   0.606   4.041
 3452SOL     OW10390   4.395   0.464   4.993
 3452SOL    HW110391   4.361   0.375   4.963
 3452SOL    HW210392   4.421   0.518   4.913
 3453SOL     OW10393   4.654   1.678   5.189
 3453SOL    HW110394   4.630   1.660   5.094
 3453SOL    HW210395   4.684   1.772   5.199
 3454SOL     OW10396   4.197   0.500   3.915
 3454SOL    HW110397   4.258   0.580   3.919
 3454SOL    HW210398   4.102   0.531   3.922
 3455SOL     OW10399   5.071   1.059   4.958
 3455SOL    HW110400   5.095   0.996   4.884
 3455SOL    HW210401   4.981   1.099   4.940
 3456SOL     OW10402   4.976   1.731   4.852
 3456SOL    HW110403   5.060   1.736   4.798
 3456SOL    HW210404   4.953   1.635   4.870
 3457SOL     OW10405   3.807   1.258   4.746
 3457SOL    HW110406   3.802   1.257   4.846
 3457SOL    HW210407   3.724   1.217   4.708
 3458SOL     OW10408   5.112   1.573   4.201
 3458SOL    HW110409   5.179   1.585   4.127
 3458SOL    HW210410   5.072   1.662   4.224
 3459SOL     OW10411   4.396   1.616   3.878
 3459SOL    HW110412   4.405   1.626   3.779
 3459SOL    HW210413   4.356   1.527   3.899
 3460SOL     OW10414   3.987   0.326   4.444
 3460SOL    HW110415   3.908   0.377   4.410
 3460SOL    HW210416   3.978   0.311   4.542
 3461SOL     OW10417   4.918   1.612   3.755
 3461SOL    HW110418   4.924   1.519   3.792
 3461SOL    HW210419   4.859   1.612   3.675
 3462SOL     OW10420   4.546   1.002   5.096
 3462SOL    HW110421   4.586   1.001   5.004
 3462SOL    HW210422   4.556   1.094   5.136
 3463SOL     OW10423   4.640   0.910   4.015
 3463SOL    HW110424   4.703   0.948   3.947
 3463SOL    HW210425   4.680   0.827   4.054
 3464SOL     OW10426   5.338   1.292   5.013
 3464SOL    HW110427   5.398   1.295   5.093
 3464SOL    HW210428   5.263   1.356   5.026
 3465SOL     OW10429   4.763   1.098   4.420
 3465SOL    HW110430   4.693   1.051   4.474
 3465SOL    HW210431   4.822   1.030   4.377
 3466SOL     OW10432   4.738   0.236   4.695
 3466SOL    HW110433   4.730   0.200   4.602
 3466SOL    HW210434   4.736   0.160   4.760
 3467SOL     OW10435   4.314   1.487   4.215
 3467SOL    HW110436   4.356   1.429   4.145
 3467SOL    HW210437   4.270   1.566   4.171
 3468SOL     OW10438   3.979   1.348   4.014
 3468SOL    HW110439   3.883   1.349   3.987
 3468SOL    HW210440   3.991   1.401   4.098
 3469SOL     OW10441   3.799   0.345   3.757
 3469SOL    HW110442   3.707   0.317   3.728
 3469SOL    HW210443   3.830   0.422   3.701
 3470SOL     OW10444   3.796   0.166   4.042
 3470SOL    HW110445   3.779   0.249   3.988
 3470SOL    HW210446   3.886   0.129   4.020
 3471SOL     OW10447   4.318   0.745   4.376
 3471SOL    HW110448   4.368   0.830   4.357
 3471SOL    HW210449   4.230   0.747   4.328
 3472SOL     OW10450   4.583   1.374   3.740
 3472SOL    HW110451   4.537   1.389   3.828
 3472SOL    HW210452   4.627   1.459   3.710
 3473SOL     OW10453   4.385   1.790   4.677
 3473SOL    HW110454   4.339   1.878   4.664
 3473SOL    HW210455   4.484   1.802   4.670
 3474SOL     OW10456   4.583   0.956   4.585
 3474SOL    HW110457   4.637   0.887   4.633
 3474SOL    HW210458   4.551   1.025   4.651
 3475SOL     OW10459   4.807   0.984   3.811
 3475SOL    HW110460   4.784   1.037   3.729
 3475SOL    HW210461   4.888   0.928   3.792
 3476SOL     OW10462   3.803   1.240   4.377
 3476SOL    HW110463   3.802   1.193   4.465
 3476SOL    HW210464   3.885   1.212   4.326
 3477SOL     OW10465   4.152   0.424   4.244
 3477SOL    HW110466   4.182   0.352   4.182
 3477SOL    HW210467   4.113   0.384   4.327
 3478SOL     OW10468   4.536   1.586   4.411
 3478SOL    HW110469   4.568   1.596   4.317
 3478SOL    HW210470   4.457   1.524   4.413
 3479SOL     OW10471   4.725   0.034   4.878
 3479SOL    HW110472   4.662  -0.038   4.847
 3479SOL    HW210473   4.818  -0.002   4.878
 3480SOL     OW10474   4.494   1.330   4.025
 3480SOL    HW110475   4.448   1.243   4.042
 3480SOL    HW210476   4.585   1.327   4.066
 3481SOL     OW10477   3.763   1.077   4.024
 3481SOL    HW110478   3.862   1.066   4.015
 3481SOL    HW210479   3.723   0.991   4.056
 3482SOL     OW10480   4.599   1.646   4.061
 3482SOL    HW110481   4.522   1.611   4.007
 3482SOL    HW210482   4.567   1.717   4.123
 3483SOL     OW10483   3.954   2.490   0.113
 3483SOL    HW110484   3.861   2.488   0.150
 3483SOL    HW210485   3.955   2.451   0.021
 3484SOL     OW10486   3.949   2.137   0.996
 3484SOL    HW110487   3.984   2.120   1.088
 3484SOL    HW210488   3.861   2.092   0.984
 3485SOL     OW10489   3.743   2.230   0.647
 3485SOL    HW110490   3.661   2.273   0.686
 3485SOL    HW210491   3.715   2.157   0.584
 3486SOL     OW10492   4.293   3.137   1.165
 3486SOL    HW110493   4.200   3.130   1.128
 3486SOL    HW210494   4.304   3.226   1.209
 3487SOL     OW10495   4.859   2.565   0.717
 3487SOL    HW110496   4.916   2.643   0.692
 3487SOL    HW210497   4.799   2.591   0.793
 3488SOL     OW10498   4.492   3.006   1.023
 3488SOL    HW110499   4.414   3.023   1.083
 3488SOL    HW210500   4.526   3.093   0.987
 3489SOL     OW10501   4.574   2.660   1.823
 3489SOL    HW110502   4.570   2.736   1.888
 3489SOL    HW210503   4.596   2.696   1.732
 3490SOL     OW10504   4.409   2.874   0.665
 3490SOL    HW110505   4.478   2.858   0.735
 3490SOL    HW210506   4.336   2.931   0.703
 3491SOL     OW10507   4.410   3.023   1.803
 3491SOL    HW110508   4.470   3.102   1.817
 3491SOL    HW210509   4.324   3.054   1.762
 3492SOL     OW10510   4.059   3.297   1.061
 3492SOL    HW110511   3.981   3.266   1.008
 3492SOL    HW210512   4.117   3.355   1.004
 3493SOL     OW10513   4.162   2.254   1.499
 3493SOL    HW110514   4.244   2.198   1.508
 3493SOL    HW210515   4.081   2.196   1.503
 3494SOL     OW10516   3.955   3.575   0.483
 3494SOL    HW110517   3.989   3.652   0.537
 3494SOL    HW210518   3.999   3.575   0.393
 3495SOL     OW10519   4.851   3.203   1.690
 3495SOL    HW110520   4.898   3.203   1.778
 3495SOL    HW210521   4.803   3.116   1.679
 3496SOL     OW10522   3.954   3.296   0.538
 3496SOL    HW110523   3.928   3.392   0.538
 3496SOL    HW210524   3.883   3.242   0.583
 3497SOL     OW10525   3.964   2.953   0.886
 3497SOL    HW110526   3.978   2.869   0.938
 3497SOL    HW210527   3.909   3.017   0.941
 3498SOL     OW10528   4.344   3.648   1.439
 3498SOL    HW110529   4.252   3.631   1.474
 3498SOL    HW210530   4.372   3.740   1.465
 3499SOL     OW10531   4.330   2.826   0.123
 3499SOL    HW110532   4.337   2.910   0.069
 3499SOL    HW210533   4.376   2.839   0.211
 3500SOL     OW10534   3.846   2.505   0.563
 3500SOL    HW110535   3.801   2.417   0.580
 3500SOL    HW210536   3.845   2.559   0.647
 3501SOL     OW10537   3.751   3.458   0.117
 3501SOL    HW110538   3.732   3.362   0.138
 3501SOL    HW210539   3.718   3.516   0.192
 3502SOL     OW10540   3.837   2.599   1.597
 3502SOL    HW110541   3.925   2.586   1.642
 3502SOL    HW210542   3.824   2.696   1.575
 3503SOL     OW10543   4.337   3.227   0.726
 3503SOL    HW110544   4.288   3.140   0.735
 3503SOL    HW210545   4.314   3.270   0.639
 3504SOL     OW10546   4.533   1.866   0.502
 3504SOL    HW110547   4.573   1.957   0.493
 3504SOL    HW210548   4.433   1.874   0.508
 3505SOL     OW10549   3.921   2.838   1.264
 3505SOL    HW110550   4.010   2.793   1.250
 3505SOL    HW210551   3.848   2.773   1.245
 3506SOL     OW10552   4.911   3.654   1.616
 3506SOL    HW110553   4.935   3.714   1.540
 3506SOL    HW210554   4.918   3.559   1.586
 3507SOL     OW10555   4.041   2.113   1.801
 3507SOL    HW110556   4.112   2.184   1.807
 3507SOL    HW210557   3.953   2.152   1.829
 3508SOL     OW10558   4.322   2.591   0.270
 3508SOL    HW110559   4.346   2.660   0.202
 3508SOL    HW210560   4.244   2.624   0.324
 3509SOL     OW10561   5.005   2.207   0.944
 3509SOL    HW110562   4.919   2.157   0.931
 3509SOL    HW210563   5.067   2.153   1.000
 3510SOL     OW10564   4.531   2.467   1.465
 3510SOL    HW110565   4.484   2.464   1.554
 3510SOL    HW210566   4.480   2.412   1.399
 3511SOL     OW10567   4.697   2.752   1.572
 3511SOL    HW110568   4.743   2.668   1.543
 3511SOL    HW210569   4.641   2.786   1.497
 3512SOL     OW10570   4.715   2.272   1.242
 3512SOL    HW110571   4.638   2.306   1.296
 3512SOL    HW210572   4.681   2.221   1.163
 3513SOL     OW10573   4.765   2.563   0.429
 3513SOL    HW110574   4.791   2.559   0.525
 3513SOL    HW210575   4.680   2.512   0.415
 3514SOL     OW10576   3.800   2.673   0.789
 3514SOL    HW110577   3.899   2.661   0.798
 3514SOL    HW210578   3.776   2.768   0.810
 3515SOL     OW10579   3.854   3.683   1.571
 3515SOL    HW110580   3.844   3.668   1.670
 3515SOL    HW210581   3.768   3.719   1.535
 3516SOL     OW10582   4.589   2.210   0.195
 3516SOL    HW110583   4.648   2.273   0.146
 3516SOL    HW210584   4.608   2.116   0.166
 3517SOL     OW10585   4.274   2.058   0.885
 3517SOL    HW110586   4.269   2.053   0.985
 3517SOL    HW210587   4.276   2.154   0.856
 3518SOL     OW10588   4.732   3.318   0.477
 3518SOL    HW110589   4.686   3.390   0.425
 3518SOL    HW210590   4.728   3.338   0.575
 3519SOL     OW10591   4.075   3.663   0.853
 3519SOL    HW110592   4.125   3.577   0.859
 3519SOL    HW210593   4.140   3.740   0.850
 3520SOL     OW10594   4.951   3.412   1.506
 3520SOL    HW110595   4.957   3.335   1.570
 3520SOL    HW210596   4.899   3.386   1.426
 3521SOL     OW10597   4.045   2.805   0.242
 3521SOL    HW110598   4.127   2.844   0.200
 3521SOL    HW210599   4.018   2.723   0.193
 3522SOL     OW10600   4.185   3.128   1.727
 3522SOL    HW110601   4.135   3.129   1.641
 3522SOL    HW210602   4.122   3.110   1.803
 3523SOL     OW10603   4.835   3.638   0.237
 3523SOL    HW110604   4.775   3.576   0.287
 3523SOL    HW210605   4.866   3.594   0.152
 3524SOL     OW10606   3.926   2.147   1.498
 3524SOL    HW110607   3.846   2.207   1.485
 3524SOL    HW210608   3.916   2.098   1.584
 3525SOL     OW10609   4.188   3.605   0.323
 3525SOL    HW110610   4.221   3.644   0.409
 3525SOL    HW210611   4.264   3.598   0.258
 3526SOL     OW10612   3.973   3.647   1.241
 3526SOL    HW110613   4.030   3.582   1.291
 3526SOL    HW210614   3.957   3.614   1.148
 3527SOL     OW10615   4.664   3.560   0.904
 3527SOL    HW110616   4.744   3.503   0.925
 3527SOL    HW210617   4.615   3.520   0.827
 3528SOL     OW10618   4.106   2.562   0.480
 3528SOL    HW110619   4.151   2.472   0.477
 3528SOL    HW210620   4.012   2.551   0.513
 3529SOL     OW10621   4.338   1.984   0.117
 3529SOL    HW110622   4.436   1.962   0.124
 3529SOL    HW210623   4.307   1.967   0.024
 3530SOL     OW10624   4.505   2.126   1.749
 3530SOL    HW110625   4.572   2.065   1.792
 3530SOL    HW210626   4.432   2.145   1.814
 3531SOL     OW10627   4.612   3.376   1.195
 3531SOL    HW110628   4.589   3.351   1.101
 3531SOL    HW210629   4.673   3.307   1.234
 3532SOL     OW10630   4.527   3.264   0.924
 3532SOL    HW110631   4.617   3.278   0.882
 3532SOL    HW210632   4.456   3.266   0.853
 3533SOL     OW10633   4.646   2.365   0.899
 3533SOL    HW110634   4.621   2.356   0.803
 3533SOL    HW210635   4.694   2.283   0.930
 3534SOL     OW10636   4.263   1.926   0.512
 3534SOL    HW110637   4.182   1.927   0.570
 3534SOL    HW210638   4.266   2.009   0.457
 3535SOL     OW10639   4.021   1.897   0.171
 3535SOL    HW110640   4.070   1.981   0.150
 3535SOL    HW210641   4.083   1.832   0.216
 3536SOL     OW10642   4.659   2.098   0.480
 3536SOL    HW110643   4.611   2.139   0.402
 3536SOL    HW210644   4.758   2.096   0.461
 3537SOL     OW10645   4.800   2.545   1.464
 3537SOL    HW110646   4.720   2.484   1.467
 3537SOL    HW210647   4.881   2.492   1.440
 3538SOL     OW10648   4.951   3.432   0.793
 3538SOL    HW110649   4.972   3.506   0.728
 3538SOL    HW210650   5.019   3.432   0.866
 3539SOL     OW10651   4.183   3.014   0.741
 3539SOL    HW110652   4.112   2.987   0.806
 3539SOL    HW210653   4.157   2.986   0.648
 3540SOL     OW10654   4.995   3.659   0.591
 3540SOL    HW110655   5.039   3.723   0.527
 3540SOL    HW210656   4.945   3.711   0.661
 3541SOL     OW10657   4.756   2.411   0.016
 3541SOL    HW110658   4.715   2.493  -0.023
 3541SOL    HW210659   4.820   2.437   0.089
 3542SOL     OW10660   3.802   2.418   1.386
 3542SOL    HW110661   3.894   2.417   1.345
 3542SOL    HW210662   3.796   2.492   1.453
 3543SOL     OW10663   4.285   2.084   1.147
 3543SOL    HW110664   4.323   2.000   1.184
 3543SOL    HW210665   4.197   2.103   1.191
 3544SOL     OW10666   4.590   2.316   0.642
 3544SOL    HW110667   4.558   2.388   0.580
 3544SOL    HW210668   4.614   2.235   0.589
 3545SOL     OW10669   4.741   1.901   0.753
 3545SOL    HW110670   4.669   1.906   0.684
 3545SOL    HW210671   4.717   1.832   0.822
 3546SOL     OW10672   4.212   3.247   0.174
 3546SOL    HW110673   4.125   3.232   0.221
 3546SOL    HW210674   4.195   3.273   0.079
 3547SOL     OW10675   4.251   2.118   0.328
 3547SOL    HW110676   4.278   2.059   0.253
 3547SOL    HW210677   4.251   2.213   0.297
 3548SOL     OW10678   4.788   3.209   1.340
 3548SOL    HW110679   4.708   3.186   1.395
 3548SOL    HW210680   4.871   3.183   1.389
 3549SOL     OW10681   4.835   3.057   1.100
 3549SOL    HW110682   4.795   3.101   1.181
 3549SOL    HW210683   4.794   3.094   1.017
 3550SOL     OW10684   4.639   1.951   1.402
 3550SOL    HW110685   4.664   1.931   1.307
 3550SOL    HW210686   4.711   2.007   1.444
 3551SOL     OW10687   4.704   2.978   1.719
 3551SOL    HW110688   4.605   2.984   1.729
 3551SOL    HW210689   4.727   2.898   1.663
 3552SOL     OW10690   4.429   2.912   0.368
 3552SOL    HW110691   4.415   2.919   0.467
 3552SOL    HW210692   4.513   2.861   0.350
 3553SOL     OW10693   4.134   2.675   1.251
 3553SOL    HW110694   4.220   2.687   1.301
 3553SOL    HW210695   4.092   2.588   1.278
 3554SOL     OW10696   4.998   2.248   1.262
 3554SOL    HW110697   5.019   2.322   1.326
 3554SOL    HW210698   4.909   2.265   1.219
 3555SOL     OW10699   3.788   3.426   1.331
 3555SOL    HW110700   3.742   3.508   1.297
 3555SOL    HW210701   3.886   3.445   1.340
 3556SOL     OW10702   4.091   2.962   0.501
 3556SOL    HW110703   4.084   3.045   0.445
 3556SOL    HW210704   4.095   2.882   0.441
 3557SOL     OW10705   4.290   2.399   0.865
 3557SOL    HW110706   4.302   2.465   0.791
 3557SOL    HW210707   4.336   2.433   0.948
 3558SOL     OW10708   4.976   3.210   0.388
 3558SOL    HW110709   5.026   3.287   0.428
 3558SOL    HW210710   4.881   3.212   0.420
 3559SOL     OW10711   4.078   3.372   1.329
 3559SOL    HW110712   4.057   3.328   1.242
 3559SOL    HW210713   4.175   3.398   1.332
 3560SOL     OW10714   4.126   2.613   1.598
 3560SOL    HW110715   4.194   2.668   1.551
 3560SOL    HW210716   4.166   2.525   1.625
 3561SOL     OW10717   4.737   1.967   1.770
 3561SOL    HW110718   4.743   2.052   1.718
 3561SOL    HW210719   4.769   1.891   1.713
 3562SOL     OW10720   4.228   1.912   1.740
 3562SOL    HW110721   4.186   1.855   1.670
 3562SOL    HW210722   4.162   1.981   1.772
 3563SOL     OW10723   4.297   2.732   1.029
 3563SOL    HW110724   4.341   2.821   1.020
 3563SOL    HW210725   4.234   2.732   1.106
 3564SOL     OW10726   5.084   2.724   1.045
 3564SOL    HW110727   5.009   2.724   0.979
 3564SOL    HW210728   5.121   2.632   1.054
 3565SOL     OW10729   4.933   2.387   0.275
 3565SOL    HW110730   4.946   2.303   0.329
 3565SOL    HW210731   4.904   2.461   0.335
 3566SOL     OW10732   4.031   2.075   1.231
 3566SOL    HW110733   4.008   2.112   1.321
 3566SOL    HW210734   4.001   1.980   1.225
 3567SOL     OW10735   3.761   3.172   1.282
 3567SOL    HW110736   3.814   3.123   1.350
 3567SOL    HW210737   3.783   3.270   1.287
 3568SOL     OW10738   4.456   2.496   1.064
 3568SOL    HW110739   4.515   2.470   0.988
 3568SOL    HW210740   4.428   2.592   1.053
 3569SOL     OW10741   4.031   1.925   0.618
 3569SOL    HW110742   4.020   2.019   0.651
 3569SOL    HW210743   4.026   1.862   0.695
 3570SOL     OW10744   5.346   2.229   0.374
 3570SOL    HW110745   5.348   2.153   0.438
 3570SOL    HW210746   5.298   2.306   0.414
 3571SOL     OW10747   4.747   2.628   0.966
 3571SOL    HW110748   4.762   2.649   1.062
 3571SOL    HW210749   4.717   2.533   0.957
 3572SOL     OW10750   4.704   3.435   1.700
 3572SOL    HW110751   4.684   3.479   1.612
 3572SOL    HW210752   4.743   3.344   1.684
 3573SOL     OW10753   4.074   2.760   1.804
 3573SOL    HW110754   4.150   2.804   1.852
 3573SOL    HW210755   4.109   2.713   1.722
 3574SOL     OW10756   5.027   2.700   0.042
 3574SOL    HW110757   5.061   2.607   0.057
 3574SOL    HW210758   5.045   2.727  -0.053
 3575SOL     OW10759   4.792   3.195   0.849
 3575SOL    HW110760   4.799   3.111   0.794
 3575SOL    HW210761   4.854   3.264   0.813
 3576SOL     OW10762   4.043   2.672   0.949
 3576SOL    HW110763   4.136   2.708   0.954
 3576SOL    HW210764   4.037   2.587   1.001
 3577SOL     OW10765   4.063   2.371   1.006
 3577SOL    HW110766   4.011   2.288   0.989
 3577SOL    HW210767   4.140   2.376   0.942
 3578SOL     OW10768   4.862   2.242   1.678
 3578SOL    HW110769   4.817   2.305   1.742
 3578SOL    HW210770   4.955   2.273   1.661
 3579SOL     OW10771   4.884   2.069   1.477
 3579SOL    HW110772   4.884   2.133   1.554
 3579SOL    HW210773   4.912   2.117   1.394
 3580SOL     OW10774   3.812   3.663   0.927
 3580SOL    HW110775   3.770   3.577   0.900
 3580SOL    HW210776   3.906   3.666   0.893
 3581SOL     OW10777   4.228   3.430   0.910
 3581SOL    HW110778   4.294   3.504   0.919
 3581SOL    HW210779   4.272   3.351   0.868
 3582SOL     OW10780   4.726   2.658   1.238
 3582SOL    HW110781   4.767   2.626   1.324
 3582SOL    HW210782   4.630   2.631   1.235
 3583SOL     OW10783   3.764   2.406   1.114
 3583SOL    HW110784   3.849   2.373   1.073
 3583SOL    HW210785   3.777   2.421   1.212
 3584SOL     OW10786   3.913   2.382   1.722
 3584SOL    HW110787   3.972   2.342   1.652
 3584SOL    HW210788   3.855   2.453   1.681
 3585SOL     OW10789   4.539   2.434   0.325
 3585SOL    HW110790   4.546   2.345   0.279
 3585SOL    HW210791   4.445   2.468   0.317
 3586SOL     OW10792   3.976   3.426   1.744
 3586SOL    HW110793   3.946   3.483   1.820
 3586SOL    HW210794   3.969   3.329   1.770
 3587SOL     OW10795   4.395   2.326   1.269
 3587SOL    HW110796   4.361   2.237   1.239
 3587SOL    HW210797   4.421   2.380   1.189
 3588SOL     OW10798   4.654   3.540   1.465
 3588SOL    HW110799   4.630   3.522   1.370
 3588SOL    HW210800   4.684   3.634   1.475
 3589SOL     OW10801   4.197   2.362   0.191
 3589SOL    HW110802   4.258   2.442   0.195
 3589SOL    HW210803   4.102   2.393   0.198
 3590SOL     OW10804   3.883   2.999   1.466
 3590SOL    HW110805   3.905   2.938   1.542
 3590SOL    HW210806   3.893   2.950   1.380
 3591SOL     OW10807   5.071   2.921   1.234
 3591SOL    HW110808   5.095   2.858   1.160
 3591SOL    HW210809   4.981   2.961   1.216
 3592SOL     OW10810   4.976   3.593   1.128
 3592SOL    HW110811   5.060   3.598   1.074
 3592SOL    HW210812   4.953   3.497   1.146
 3593SOL     OW10813   3.807   3.120   1.022
 3593SOL    HW110814   3.802   3.119   1.122
 3593SOL    HW210815   3.724   3.079   0.984
 3594SOL     OW10816   4.412   3.524   1.716
 3594SOL    HW110817   4.356   3.605   1.725
 3594SOL    HW210818   4.464   3.528   1.630
 3595SOL     OW10819   4.627   1.948   0.133
 3595SOL    HW110820   4.678   1.949   0.047
 3595SOL    HW210821   4.683   1.906   0.204
 3596SOL     OW10822   5.112   3.435   0.477
 3596SOL    HW110823   5.179   3.447   0.403
 3596SOL    HW210824   5.072   3.524   0.500
 3597SOL     OW10825   3.854   3.656   1.851
 3597SOL    HW110826   3.813   3.582   1.904
 3597SOL    HW210827   3.918   3.707   1.909
 3598SOL     OW10828   4.554   3.135   1.422
 3598SOL    HW110829   4.549   3.168   1.517
 3598SOL    HW210830   4.468   3.154   1.376
 3599SOL     OW10831   4.396   3.478   0.154
 3599SOL    HW110832   4.405   3.488   0.055
 3599SOL    HW210833   4.356   3.389   0.175
 3600SOL     OW10834   3.987   2.188   0.720
 3600SOL    HW110835   3.908   2.239   0.686
 3600SOL    HW210836   3.978   2.173   0.818
 3601SOL     OW10837   4.918   3.474   0.031
 3601SOL    HW110838   4.924   3.381   0.068
 3601SOL    HW210839   4.859   3.474  -0.049
 3602SOL     OW10840   4.546   2.864   1.372
 3602SOL    HW110841   4.586   2.863   1.280
 3602SOL    HW210842   4.556   2.956   1.412
 3603SOL     OW10843   4.640   2.772   0.291
 3603SOL    HW110844   4.703   2.810   0.223
 3603SOL    HW210845   4.680   2.689   0.330
 3604SOL     OW10846   4.096   3.150   1.490
 3604SOL    HW110847   4.083   3.243   1.456
 3604SOL    HW210848   4.012   3.098   1.477
 3605SOL     OW10849   4.763   2.960   0.696
 3605SOL    HW110850   4.693   2.913   0.750
 3605SOL    HW210851   4.822   2.892   0.653
 3606SOL     OW10852   4.738   2.098   0.971
 3606SOL    HW110853   4.730   2.062   0.878
 3606SOL    HW210854   4.736   2.022   1.036
 3607SOL     OW10855   4.314   3.349   0.491
 3607SOL    HW110856   4.356   3.291   0.421
 3607SOL    HW210857   4.270   3.428   0.447
 3608SOL     OW10858   3.979   3.210   0.290
 3608SOL    HW110859   3.883   3.211   0.263
 3608SOL    HW210860   3.991   3.263   0.374
 3609SOL     OW10861   3.829   2.875   1.726
 3609SOL    HW110862   3.752   2.842   1.780
 3609SOL    HW210863   3.914   2.845   1.768
 3610SOL     OW10864   4.396   2.065   1.489
 3610SOL    HW110865   4.486   2.049   1.449
 3610SOL    HW210866   4.404   2.070   1.588
 3611SOL     OW10867   3.796   2.028   0.318
 3611SOL    HW110868   3.779   2.111   0.264
 3611SOL    HW210869   3.886   1.991   0.296
 3612SOL     OW10870   4.337   2.704   1.431
 3612SOL    HW110871   4.393   2.785   1.414
 3612SOL    HW210872   4.396   2.624   1.434
 3613SOL     OW10873   4.440   2.427   1.708
 3613SOL    HW110874   4.459   2.492   1.782
 3613SOL    HW210875   4.500   2.347   1.717
 3614SOL     OW10876   4.114   3.603   1.560
 3614SOL    HW110877   4.023   3.644   1.558
 3614SOL    HW210878   4.107   3.509   1.592
 3615SOL     OW10879   4.318   2.607   0.652
 3615SOL    HW110880   4.368   2.692   0.633
 3615SOL    HW210881   4.230   2.609   0.604
 3616SOL     OW10882   4.583   3.236   0.016
 3616SOL    HW110883   4.537   3.251   0.104
 3616SOL    HW210884   4.627   3.321  -0.014
 3617SOL     OW10885   4.385   3.652   0.953
 3617SOL    HW110886   4.339   3.740   0.940
 3617SOL    HW210887   4.484   3.664   0.946
 3618SOL     OW10888   4.583   2.818   0.861
 3618SOL    HW110889   4.637   2.749   0.909
 3618SOL    HW210890   4.551   2.887   0.927
 3619SOL     OW10891   4.807   2.846   0.087
 3619SOL    HW110892   4.784   2.899   0.005
 3619SOL    HW210893   4.888   2.790   0.068
 3620SOL     OW10894   3.945   3.176   1.844
 3620SOL    HW110895   3.880   3.103   1.823
 3620SOL    HW210896   3.949   3.190   1.942
 3621SOL     OW10897   3.803   3.102   0.653
 3621SOL    HW110898   3.802   3.055   0.741
 3621SOL    HW210899   3.885   3.074   0.602
 3622SOL     OW10900   4.396   3.253   1.624
 3622SOL    HW110901   4.318   3.203   1.662
 3622SOL    HW210902   4.393   3.348   1.655
 3623SOL     OW10903   4.152   2.286   0.520
 3623SOL    HW110904   4.182   2.214   0.458
 3623SOL    HW210905   4.113   2.246   0.603
 3624SOL     OW10906   4.041   2.409   1.280
 3624SOL    HW110907   4.079   2.350   1.352
 3624SOL    HW210908   4.081   2.383   1.192
 3625SOL     OW10909   4.536   3.448   0.687
 3625SOL    HW110910   4.568   3.458   0.593
 3625SOL    HW210911   4.457   3.386   0.689
 3626SOL     OW10912   4.725   1.896   1.154
 3626SOL    HW110913   4.662   1.824   1.123
 3626SOL    HW210914   4.818   1.860   1.154
 3627SOL     OW10915   4.494   3.192   0.301
 3627SOL    HW110916   4.448   3.105   0.318
 3627SOL    HW210917   4.585   3.189   0.342
 3628SOL     OW10918   4.342   3.429   1.284
 3628SOL    HW110919   4.337   3.511   1.341
 3628SOL    HW210920   4.431   3.426   1.239
 3629SOL     OW10921   3.763   2.939   0.300
 3629SOL    HW110922   3.862   2.928   0.291
 3629SOL    HW210923   3.723   2.853   0.332
 3630SOL     OW10924   4.599   3.508   0.337
 3630SOL    HW110925   4.522   3.473   0.283
 3630SOL    HW210926   4.567   3.579   0.399
 3631SOL     OW10927   3.954   2.490   1.975
 3631SOL    HW110928   3.861   2.488   2.012
 3631SOL    HW210929   3.955   2.451   1.883
 3632SOL     OW10930   3.949   2.137   2.858
 3632SOL    HW110931   3.984   2.120   2.950
 3632SOL    HW210932   3.861   2.092   2.846
 3633SOL     OW10933   3.743   2.230   2.509
 3633SOL    HW110934   3.661   2.273   2.548
 3633SOL    HW210935   3.715   2.157   2.446
 3634SOL     OW10936   4.293   3.137   3.027
 3634SOL    HW110937   4.200   3.130   2.990
 3634SOL    HW210938   4.304   3.226   3.071
 3635SOL     OW10939   4.859   2.565   2.579
 3635SOL    HW110940   4.916   2.643   2.554
 3635SOL    HW210941   4.799   2.591   2.655
 3636SOL     OW10942   4.492   3.006   2.885
 3636SOL    HW110943   4.414   3.023   2.945
 3636SOL    HW210944   4.526   3.093   2.849
 3637SOL     OW10945   4.574   2.660   3.685
 3637SOL    HW110946   4.570   2.736   3.750
 3637SOL    HW210947   4.596   2.696   3.594
 3638SOL     OW10948   4.409   2.874   2.527
 3638SOL    HW110949   4.478   2.858   2.597
 3638SOL    HW210950   4.336   2.931   2.565
 3639SOL     OW10951   4.410   3.023   3.665
 3639SOL    HW110952   4.470   3.102   3.679
 3639SOL    HW210953   4.324   3.054   3.624
 3640SOL     OW10954   4.059   3.297   2.923
 3640SOL    HW110955   3.981   3.266   2.870
 3640SOL    HW210956   4.117   3.355   2.866
 3641SOL     OW10957   4.162   2.254   3.361
 3641SOL    HW110958   4.244   2.198   3.370
 3641SOL    HW210959   4.081   2.196   3.365
 3642SOL     OW10960   3.955   3.575   2.345
 3642SOL    HW110961   3.989   3.652   2.399
 3642SOL    HW210962   3.999   3.575   2.255
 3643SOL     OW10963   4.851   3.203   3.552
 3643SOL    HW110964   4.898   3.203   3.640
 3643SOL    HW210965   4.803   3.116   3.541
 3644SOL     OW10966   3.954   3.296   2.400
 3644SOL    HW110967   3.928   3.392   2.400
 3644SOL    HW210968   3.883   3.242   2.445
 3645SOL     OW10969   3.964   2.953   2.748
 3645SOL    HW110970   3.978   2.869   2.800
 3645SOL    HW210971   3.909   3.017   2.803
 3646SOL     OW10972   4.344   3.648   3.301
 3646SOL    HW110973   4.252   3.631   3.336
 3646SOL    HW210974   4.372   3.740   3.327
 3647SOL     OW10975   4.330   2.826   1.985
 3647SOL    HW110976   4.337   2.910   1.931
 3647SOL    HW210977   4.376   2.839   2.073
 3648SOL     OW10978   3.846   2.505   2.425
 3648SOL    HW110979   3.801   2.417   2.442
 3648SOL    HW210980   3.845   2.559   2.509
 3649SOL     OW10981   3.751   3.458   1.979
 3649SOL    HW110982   3.732   3.362   2.000
 3649SOL    HW210983   3.718   3.516   2.054
 3650SOL     OW10984   3.837   2.599   3.459
 3650SOL    HW110985   3.925   2.586   3.504
 3650SOL    HW210986   3.824   2.696   3.437
 3651SOL     OW10987   4.337   3.227   2.588
 3651SOL    HW110988   4.288   3.140   2.597
 3651SOL    HW210989   4.314   3.270   2.501
 3652SOL     OW10990   4.533   1.866   2.364
 3652SOL    HW110991   4.573   1.957   2.355
 3652SOL    HW210992   4.433   1.874   2.370
 3653SOL     OW10993   3.921   2.838   3.126
 3653SOL    HW110994   4.010   2.793   3.112
 3653SOL    HW210995   3.848   2.773   3.107
 3654SOL     OW10996   4.911   3.654   3.478
 3654SOL    HW110997   4.935   3.714   3.402
 3654SOL    HW210998   4.918   3.559   3.448
 3655SOL     OW10999   4.041   2.113   3.663
 3655SOL    HW111000   4.112   2.184   3.669
 3655SOL    HW211001   3.953   2.152   3.691
 3656SOL     OW11002   4.322   2.591   2.132
 3656SOL    HW111003   4.346   2.660   2.064
 3656SOL    HW211004   4.244   2.624   2.186
 3657SOL     OW11005   5.005   2.207   2.806
 3657SOL    HW111006   4.919   2.157   2.793
 3657SOL    HW211007   5.067   2.153   2.862
 3658SOL     OW11008   4.531   2.467   3.327
 3658SOL    HW111009   4.484   2.464   3.416
 3658SOL    HW211010   4.480   2.412   3.261
 3659SOL     OW11011   4.697   2.752   3.434
 3659SOL    HW111012   4.743   2.668   3.405
 3659SOL    HW211013   4.641   2.786   3.359
 3660SOL     OW11014   4.715   2.272   3.104
 3660SOL    HW111015   4.638   2.306   3.158
 3660SOL    HW211016   4.681   2.221   3.025
 3661SOL     OW11017   4.765   2.563   2.291
 3661SOL    HW111018   4.791   2.559   2.387
 3661SOL    HW211019   4.680   2.512   2.277
 3662SOL     OW11020   3.800   2.673   2.651
 3662SOL    HW111021   3.899   2.661   2.660
 3662SOL    HW211022   3.776   2.768   2.672
 3663SOL     OW11023   3.854   3.683   3.433
 3663SOL    HW111024   3.844   3.668   3.532
 3663SOL    HW211025   3.768   3.719   3.397
 3664SOL     OW11026   4.589   2.210   2.057
 3664SOL    HW111027   4.648   2.273   2.008
 3664SOL    HW211028   4.608   2.116   2.028
 3665SOL     OW11029   4.274   2.058   2.747
 3665SOL    HW111030   4.269   2.053   2.847
 3665SOL    HW211031   4.276   2.154   2.718
 3666SOL     OW11032   4.732   3.318   2.339
 3666SOL    HW111033   4.686   3.390   2.287
 3666SOL    HW211034   4.728   3.338   2.437
 3667SOL     OW11035   4.075   3.663   2.715
 3667SOL    HW111036   4.125   3.577   2.721
 3667SOL    HW211037   4.140   3.740   2.712
 3668SOL     OW11038   4.951   3.412   3.368
 3668SOL    HW111039   4.957   3.335   3.432
 3668SOL    HW211040   4.899   3.386   3.288
 3669SOL     OW11041   4.045   2.805   2.104
 3669SOL    HW111042   4.127   2.844   2.062
 3669SOL    HW211043   4.018   2.723   2.055
 3670SOL     OW11044   4.185   3.128   3.589
 3670SOL    HW111045   4.135   3.129   3.503
 3670SOL    HW211046   4.122   3.110   3.665
 3671SOL     OW11047   4.835   3.638   2.099
 3671SOL    HW111048   4.775   3.576   2.149
 3671SOL    HW211049   4.866   3.594   2.014
 3672SOL     OW11050   3.926   2.147   3.360
 3672SOL    HW111051   3.846   2.207   3.347
 3672SOL    HW211052   3.916   2.098   3.446
 3673SOL     OW11053   4.188   3.605   2.185
 3673SOL    HW111054   4.221   3.644   2.271
 3673SOL    HW211055   4.264   3.598   2.120
 3674SOL     OW11056   3.973   3.647   3.103
 3674SOL    HW111057   4.030   3.582   3.153
 3674SOL    HW211058   3.957   3.614   3.010
 3675SOL     OW11059   4.664   3.560   2.766
 3675SOL    HW111060   4.744   3.503   2.787
 3675SOL    HW211061   4.615   3.520   2.689
 3676SOL     OW11062   4.106   2.562   2.342
 3676SOL    HW111063   4.151   2.472   2.339
 3676SOL    HW211064   4.012   2.551   2.375
 3677SOL     OW11065   4.338   1.984   1.979
 3677SOL    HW111066   4.436   1.962   1.986
 3677SOL    HW211067   4.307   1.967   1.886
 3678SOL     OW11068   4.505   2.126   3.611
 3678SOL    HW111069   4.572   2.065   3.654
 3678SOL    HW211070   4.432   2.145   3.676
 3679SOL     OW11071   4.612   3.376   3.057
 3679SOL    HW111072   4.589   3.351   2.963
 3679SOL    HW211073   4.673   3.307   3.096
 3680SOL     OW11074   4.527   3.264   2.786
 3680SOL    HW111075   4.617   3.278   2.744
 3680SOL    HW211076   4.456   3.266   2.715
 3681SOL     OW11077   4.646   2.365   2.761
 3681SOL    HW111078   4.621   2.356   2.665
 3681SOL    HW211079   4.694   2.283   2.792
 3682SOL     OW11080   4.263   1.926   2.374
 3682SOL    HW111081   4.182   1.927   2.432
 3682SOL    HW211082   4.266   2.009   2.319
 3683SOL     OW11083   4.021   1.897   2.033
 3683SOL    HW111084   4.070   1.981   2.012
 3683SOL    HW211085   4.083   1.832   2.078
 3684SOL     OW11086   4.659   2.098   2.342
 3684SOL    HW111087   4.611   2.139   2.264
 3684SOL    HW211088   4.758   2.096   2.323
 3685SOL     OW11089   4.800   2.545   3.326
 3685SOL    HW111090   4.720   2.484   3.329
 3685SOL    HW211091   4.881   2.492   3.302
 3686SOL     OW11092   4.951   3.432   2.655
 3686SOL    HW111093   4.972   3.506   2.590
 3686SOL    HW211094   5.019   3.432   2.728
 3687SOL     OW11095   4.183   3.014   2.603
 3687SOL    HW111096   4.112   2.987   2.668
 3687SOL    HW211097   4.157   2.986   2.510
 3688SOL     OW11098   4.995   3.659   2.453
 3688SOL    HW111099   5.039   3.723   2.389
 3688SOL    HW211100   4.945   3.711   2.523
 3689SOL     OW11101   4.756   2.411   1.878
 3689SOL    HW111102   4.715   2.493   1.839
 3689SOL    HW211103   4.820   2.437   1.951
 3690SOL     OW11104   3.802   2.418   3.248
 3690SOL    HW111105   3.894   2.417   3.207
 3690SOL    HW211106   3.796   2.492   3.315
 3691SOL     OW11107   4.285   2.084   3.009
 3691SOL    HW111108   4.323   2.000   3.046
 3691SOL    HW211109   4.197   2.103   3.053
 3692SOL     OW11110   4.590   2.316   2.504
 3692SOL    HW111111   4.558   2.388   2.442
 3692SOL    HW211112   4.614   2.235   2.451
 3693SOL     OW11113   4.741   1.901   2.615
 3693SOL    HW111114   4.669   1.906   2.546
 3693SOL    HW211115   4.717   1.832   2.684
 3694SOL     OW11116   4.212   3.247   2.036
 3694SOL    HW111117   4.125   3.232   2.083
 3694SOL    HW211118   4.195   3.273   1.941
 3695SOL     OW11119   4.251   2.118   2.190
 3695SOL    HW111120   4.278   2.059   2.115
 3695SOL    HW211121   4.251   2.213   2.159
 3696SOL     OW11122   4.788   3.209   3.202
 3696SOL    HW111123   4.708   3.186   3.257
 3696SOL    HW211124   4.871   3.183   3.251
 3697SOL     OW11125   4.835   3.057   2.962
 3697SOL    HW111126   4.795   3.101   3.043
 3697SOL    HW211127   4.794   3.094   2.879
 3698SOL     OW11128   4.639   1.951   3.264
 3698SOL    HW111129   4.664   1.931   3.169
 3698SOL    HW211130   4.711   2.007   3.306
 3699SOL     OW11131   4.704   2.978   3.581
 3699SOL    HW111132   4.605   2.984   3.591
 3699SOL    HW211133   4.727   2.898   3.525
 3700SOL     OW11134   4.429   2.912   2.230
 3700SOL    HW111135   4.415   2.919   2.329
 3700SOL    HW211136   4.513   2.861   2.212
 3701SOL     OW11137   4.134   2.675   3.113
 3701SOL    HW111138   4.220   2.687   3.163
 3701SOL    HW211139   4.092   2.588   3.140
 3702SOL     OW11140   4.998   2.248   3.124
 3702SOL    HW111141   5.019   2.322   3.188
 3702SOL    HW211142   4.909   2.265   3.081
 3703SOL     OW11143   3.788   3.426   3.193
 3703SOL    HW111144   3.742   3.508   3.159
 3703SOL    HW211145   3.886   3.445   3.202
 3704SOL     OW11146   4.091   2.962   2.363
 3704SOL    HW111147   4.084   3.045   2.307
 3704SOL    HW211148   4.095   2.882   2.303
 3705SOL     OW11149   4.290   2.399   2.727
 3705SOL    HW111150   4.302   2.465   2.653
 3705SOL    HW211151   4.336   2.433   2.810
 3706SOL     OW11152   4.976   3.210   2.250
 3706SOL    HW111153   5.026   3.287   2.290
 3706SOL    HW211154   4.881   3.212   2.282
 3707SOL     OW11155   4.078   3.372   3.191
 3707SOL    HW111156   4.057   3.328   3.104
 3707SOL    HW211157   4.175   3.398   3.194
 3708SOL     OW11158   4.126   2.613   3.460
 3708SOL    HW111159   4.194   2.668   3.413
 3708SOL    HW211160   4.166   2.525   3.487
 3709SOL     OW11161   4.737   1.967   3.632
 3709SOL    HW111162   4.743   2.052   3.580
 3709SOL    HW211163   4.769   1.891   3.575
 3710SOL     OW11164   4.228   1.912   3.602
 3710SOL    HW111165   4.186   1.855   3.532
 3710SOL    HW211166   4.162   1.981   3.634
 3711SOL     OW11167   4.297   2.732   2.891
 3711SOL    HW111168   4.341   2.821   2.882
 3711SOL    HW211169   4.234   2.732   2.968
 3712SOL     OW11170   5.084   2.724   2.907
 3712SOL    HW111171   5.009   2.724   2.841
 3712SOL    HW211172   5.121   2.632   2.916
 3713SOL     OW11173   4.933   2.387   2.137
 3713SOL    HW111174   4.946   2.303   2.191
 3713SOL    HW211175   4.904   2.461   2.197
 3714SOL     OW11176   4.031   2.075   3.093
 3714SOL    HW111177   4.008   2.112   3.183
 3714SOL    HW211178   4.001   1.980   3.087
 3715SOL     OW11179   3.761   3.172   3.144
 3715SOL    HW111180   3.814   3.123   3.212
 3715SOL    HW211181   3.783   3.270   3.149
 3716SOL     OW11182   4.456   2.496   2.926
 3716SOL    HW111183   4.515   2.470   2.850
 3716SOL    HW211184   4.428   2.592   2.915
 3717SOL     OW11185   4.031   1.925   2.480
 3717SOL    HW111186   4.020   2.019   2.513
 3717SOL    HW211187   4.026   1.862   2.557
 3718SOL     OW11188   5.346   2.229   2.236
 3718SOL    HW111189   5.348   2.153   2.300
 3718SOL    HW211190   5.298   2.306   2.276
 3719SOL     OW11191   4.747   2.628   2.828
 3719SOL    HW111192   4.762   2.649   2.924
 3719SOL    HW211193   4.717   2.533   2.819
 3720SOL     OW11194   4.704   3.435   3.562
 3720SOL    HW111195   4.684   3.479   3.474
 3720SOL    HW211196   4.743   3.344   3.546
 3721SOL     OW11197   4.074   2.760   3.666
 3721SOL    HW111198   4.150   2.804   3.714
 3721SOL    HW211199   4.109   2.713   3.584
 3722SOL     OW11200   5.264   2.136   1.987
 3722SOL    HW111201   5.203   2.061   2.010
 3722SOL    HW211202   5.286   2.188   2.070
 3723SOL     OW11203   4.792   3.195   2.711
 3723SOL    HW111204   4.799   3.111   2.656
 3723SOL    HW211205   4.854   3.264   2.675
 3724SOL     OW11206   4.043   2.672   2.811
 3724SOL    HW111207   4.136   2.708   2.816
 3724SOL    HW211208   4.037   2.587   2.863
 3725SOL     OW11209   4.063   2.371   2.868
 3725SOL    HW111210   4.011   2.288   2.851
 3725SOL    HW211211   4.140   2.376   2.804
 3726SOL     OW11212   4.862   2.242   3.540
 3726SOL    HW111213   4.817   2.305   3.604
 3726SOL    HW211214   4.955   2.273   3.523
 3727SOL     OW11215   4.884   2.069   3.339
 3727SOL    HW111216   4.884   2.133   3.416
 3727SOL    HW211217   4.912   2.117   3.256
 3728SOL     OW11218   3.732   3.188   2.062
 3728SOL    HW111219   3.639   3.209   2.031
 3728SOL    HW211220   3.742   3.089   2.075
 3729SOL     OW11221   3.812   3.663   2.789
 3729SOL    HW111222   3.770   3.577   2.762
 3729SOL    HW211223   3.906   3.666   2.755
 3730SOL     OW11224   4.228   3.430   2.772
 3730SOL    HW111225   4.294   3.504   2.781
 3730SOL    HW211226   4.272   3.351   2.730
 3731SOL     OW11227   4.726   2.658   3.100
 3731SOL    HW111228   4.767   2.626   3.186
 3731SOL    HW211229   4.630   2.631   3.097
 3732SOL     OW11230   3.764   2.406   2.976
 3732SOL    HW111231   3.849   2.373   2.935
 3732SOL    HW211232   3.777   2.421   3.074
 3733SOL     OW11233   3.913   2.382   3.584
 3733SOL    HW111234   3.972   2.342   3.514
 3733SOL    HW211235   3.855   2.453   3.543
 3734SOL     OW11236   4.539   2.434   2.187
 3734SOL    HW111237   4.546   2.345   2.141
 3734SOL    HW211238   4.445   2.468   2.179
 3735SOL     OW11239   3.976   3.426   3.606
 3735SOL    HW111240   3.946   3.483   3.682
 3735SOL    HW211241   3.969   3.329   3.632
 3736SOL     OW11242   4.395   2.326   3.131
 3736SOL    HW111243   4.361   2.237   3.101
 3736SOL    HW211244   4.421   2.380   3.051
 3737SOL     OW11245   4.654   3.540   3.327
 3737SOL    HW111246   4.630   3.522   3.232
 3737SOL    HW211247   4.684   3.634   3.337
 3738SOL     OW11248   4.197   2.362   2.053
 3738SOL    HW111249   4.258   2.442   2.057
 3738SOL    HW211250   4.102   2.393   2.060
 3739SOL     OW11251   3.883   2.999   3.328
 3739SOL    HW111252   3.905   2.938   3.404
 3739SOL    HW211253   3.893   2.950   3.242
 3740SOL     OW11254   5.071   2.921   3.096
 3740SOL    HW111255   5.095   2.858   3.022
 3740SOL    HW211256   4.981   2.961   3.078
 3741SOL     OW11257   4.976   3.593   2.990
 3741SOL    HW111258   5.060   3.598   2.936
 3741SOL    HW211259   4.953   3.497   3.008
 3742SOL     OW11260   3.807   3.120   2.884
 3742SOL    HW111261   3.802   3.119   2.984
 3742SOL    HW211262   3.724   3.079   2.846
 3743SOL     OW11263   4.412   3.524   3.578
 3743SOL    HW111264   4.356   3.605   3.587
 3743SOL    HW211265   4.464   3.528   3.492
 3744SOL     OW11266   5.112   3.435   2.339
 3744SOL    HW111267   5.179   3.447   2.265
 3744SOL    HW211268   5.072   3.524   2.362
 3745SOL     OW11269   3.854   3.656   3.713
 3745SOL    HW111270   3.813   3.582   3.766
 3745SOL    HW211271   3.918   3.707   3.771
 3746SOL     OW11272   4.554   3.135   3.284
 3746SOL    HW111273   4.549   3.168   3.379
 3746SOL    HW211274   4.468   3.154   3.238
 3747SOL     OW11275   4.396   3.478   2.016
 3747SOL    HW111276   4.405   3.488   1.917
 3747SOL    HW211277   4.356   3.389   2.037
 3748SOL     OW11278   3.987   2.188   2.582
 3748SOL    HW111279   3.908   2.239   2.548
 3748SOL    HW211280   3.978   2.173   2.680
 3749SOL     OW11281   4.918   3.474   1.893
 3749SOL    HW111282   4.924   3.381   1.930
 3749SOL    HW211283   4.859   3.474   1.813
 3750SOL     OW11284   4.546   2.864   3.234
 3750SOL    HW111285   4.586   2.863   3.142
 3750SOL    HW211286   4.556   2.956   3.274
 3751SOL     OW11287   4.640   2.772   2.153
 3751SOL    HW111288   4.703   2.810   2.085
 3751SOL    HW211289   4.680   2.689   2.192
 3752SOL     OW11290   4.096   3.150   3.352
 3752SOL    HW111291   4.083   3.243   3.318
 3752SOL    HW211292   4.012   3.098   3.339
 3753SOL     OW11293   4.763   2.960   2.558
 3753SOL    HW111294   4.693   2.913   2.612
 3753SOL    HW211295   4.822   2.892   2.515
 3754SOL     OW11296   4.738   2.098   2.833
 3754SOL    HW111297   4.730   2.062   2.740
 3754SOL    HW211298   4.736   2.022   2.898
 3755SOL     OW11299   4.314   3.349   2.353
 3755SOL    HW111300   4.356   3.291   2.283
 3755SOL    HW211301   4.270   3.428   2.309
 3756SOL     OW11302   3.979   3.210   2.152
 3756SOL    HW111303   3.883   3.211   2.125
 3756SOL    HW211304   3.991   3.263   2.236
 3757SOL     OW11305   3.829   2.875   3.588
 3757SOL    HW111306   3.752   2.842   3.642
 3757SOL    HW211307   3.914   2.845   3.630
 3758SOL     OW11308   4.396   2.065   3.351
 3758SOL    HW111309   4.486   2.049   3.311
 3758SOL    HW211310   4.404   2.070   3.450
 3759SOL     OW11311   3.799   2.207   1.895
 3759SOL    HW111312   3.707   2.179   1.866
 3759SOL    HW211313   3.830   2.284   1.839
 3760SOL     OW11314   3.796   2.028   2.180
 3760SOL    HW111315   3.779   2.111   2.126
 3760SOL    HW211316   3.886   1.991   2.158
 3761SOL     OW11317   4.337   2.704   3.293
 3761SOL    HW111318   4.393   2.785   3.276
 3761SOL    HW211319   4.396   2.624   3.296
 3762SOL     OW11320   4.440   2.427   3.570
 3762SOL    HW111321   4.459   2.492   3.644
 3762SOL    HW211322   4.500   2.347   3.579
 3763SOL     OW11323   4.114   3.603   3.422
 3763SOL    HW111324   4.023   3.644   3.420
 3763SOL    HW211325   4.107   3.509   3.454
 3764SOL     OW11326   4.318   2.607   2.514
 3764SOL    HW111327   4.368   2.692   2.495
 3764SOL    HW211328   4.230   2.609   2.466
 3765SOL     OW11329   4.583   3.236   1.878
 3765SOL    HW111330   4.537   3.251   1.966
 3765SOL    HW211331   4.627   3.321   1.848
 3766SOL     OW11332   4.385   3.652   2.815
 3766SOL    HW111333   4.339   3.740   2.802
 3766SOL    HW211334   4.484   3.664   2.808
 3767SOL     OW11335   4.583   2.818   2.723
 3767SOL    HW111336   4.637   2.749   2.771
 3767SOL    HW211337   4.551   2.887   2.789
 3768SOL     OW11338   4.807   2.846   1.949
 3768SOL    HW111339   4.784   2.899   1.867
 3768SOL    HW211340   4.888   2.790   1.930
 3769SOL     OW11341   3.945   3.176   3.706
 3769SOL    HW111342   3.880   3.103   3.685
 3769SOL    HW211343   3.949   3.190   3.804
 3770SOL     OW11344   3.803   3.102   2.515
 3770SOL    HW111345   3.802   3.055   2.603
 3770SOL    HW211346   3.885   3.074   2.464
 3771SOL     OW11347   4.396   3.253   3.486
 3771SOL    HW111348   4.318   3.203   3.524
 3771SOL    HW211349   4.393   3.348   3.517
 3772SOL     OW11350   4.152   2.286   2.382
 3772SOL    HW111351   4.182   2.214   2.320
 3772SOL    HW211352   4.113   2.246   2.465
 3773SOL     OW11353   4.041   2.409   3.142
 3773SOL    HW111354   4.079   2.350   3.214
 3773SOL    HW211355   4.081   2.383   3.054
 3774SOL     OW11356   4.536   3.448   2.549
 3774SOL    HW111357   4.568   3.458   2.455
 3774SOL    HW211358   4.457   3.386   2.551
 3775SOL     OW11359   4.725   1.896   3.016
 3775SOL    HW111360   4.662   1.824   2.985
 3775SOL    HW211361   4.818   1.860   3.016
 3776SOL     OW11362   4.494   3.192   2.163
 3776SOL    HW111363   4.448   3.105   2.180
 3776SOL    HW211364   4.585   3.189   2.204
 3777SOL     OW11365   4.342   3.429   3.146
 3777SOL    HW111366   4.337   3.511   3.203
 3777SOL    HW211367   4.431   3.426   3.101
 3778SOL     OW11368   3.763   2.939   2.162
 3778SOL    HW111369   3.862   2.928   2.153
 3778SOL    HW211370   3.723   2.853   2.194
 3779SOL     OW11371   4.599   3.508   2.199
 3779SOL    HW111372   4.522   3.473   2.145
 3779SOL    HW211373   4.567   3.579   2.261
 3780SOL     OW11374   3.954   2.490   3.837
 3780SOL    HW111375   3.861   2.488   3.874
 3780SOL    HW211376   3.955   2.451   3.745
 3781SOL     OW11377   3.949   2.137   4.720
 3781SOL    HW111378   3.984   2.120   4.812
 3781SOL    HW211379   3.861   2.092   4.708
 3782SOL     OW11380   3.743   2.230   4.371
 3782SOL    HW111381   3.661   2.273   4.410
 3782SOL    HW211382   3.715   2.157   4.308
 3783SOL     OW11383   4.293   3.137   4.889
 3783SOL    HW111384   4.200   3.130   4.852
 3783SOL    HW211385   4.304   3.226   4.933
 3784SOL     OW11386   4.859   2.565   4.441
 3784SOL    HW111387   4.916   2.643   4.416
 3784SOL    HW211388   4.799   2.591   4.517
 3785SOL     OW11389   4.492   3.006   4.747
 3785SOL    HW111390   4.414   3.023   4.807
 3785SOL    HW211391   4.526   3.093   4.711
 3786SOL     OW11392   4.409   2.874   4.389
 3786SOL    HW111393   4.478   2.858   4.459
 3786SOL    HW211394   4.336   2.931   4.427
 3787SOL     OW11395   4.059   3.297   4.785
 3787SOL    HW111396   3.981   3.266   4.732
 3787SOL    HW211397   4.117   3.355   4.728
 3788SOL     OW11398   3.955   3.575   4.207
 3788SOL    HW111399   3.989   3.652   4.261
 3788SOL    HW211400   3.999   3.575   4.117
 3789SOL     OW11401   3.954   3.296   4.262
 3789SOL    HW111402   3.928   3.392   4.262
 3789SOL    HW211403   3.883   3.242   4.307
 3790SOL     OW11404   3.964   2.953   4.610
 3790SOL    HW111405   3.978   2.869   4.662
 3790SOL    HW211406   3.909   3.017   4.665
 3791SOL     OW11407   4.330   2.826   3.847
 3791SOL    HW111408   4.337   2.910   3.793
 3791SOL    HW211409   4.376   2.839   3.935
 3792SOL     OW11410   3.846   2.505   4.287
 3792SOL    HW111411   3.801   2.417   4.304
 3792SOL    HW211412   3.845   2.559   4.371
 3793SOL     OW11413   3.751   3.458   3.841
 3793SOL    HW111414   3.732   3.362   3.862
 3793SOL    HW211415   3.718   3.516   3.916
 3794SOL     OW11416   3.837   2.599   5.321
 3794SOL    HW111417   3.925   2.586   5.366
 3794SOL    HW211418   3.824   2.696   5.299
 3795SOL     OW11419   4.337   3.227   4.450
 3795SOL    HW111420   4.288   3.140   4.459
 3795SOL    HW211421   4.314   3.270   4.363
 3796SOL     OW11422   4.533   1.866   4.226
 3796SOL    HW111423   4.573   1.957   4.217
 3796SOL    HW211424   4.433   1.874   4.232
 3797SOL     OW11425   3.921   2.838   4.988
 3797SOL    HW111426   4.010   2.793   4.974
 3797SOL    HW211427   3.848   2.773   4.969
 3798SOL     OW11428   4.322   2.591   3.994
 3798SOL    HW111429   4.346   2.660   3.926
 3798SOL    HW211430   4.244   2.624   4.048
 3799SOL     OW11431   5.005   2.207   4.668
 3799SOL    HW111432   4.919   2.157   4.655
 3799SOL    HW211433   5.067   2.153   4.724
 3800SOL     OW11434   4.715   2.272   4.966
 3800SOL    HW111435   4.638   2.306   5.020
 3800SOL    HW211436   4.681   2.221   4.887
 3801SOL     OW11437   4.765   2.563   4.153
 3801SOL    HW111438   4.791   2.559   4.249
 3801SOL    HW211439   4.680   2.512   4.139
 3802SOL     OW11440   3.800   2.673   4.513
 3802SOL    HW111441   3.899   2.661   4.522
 3802SOL    HW211442   3.776   2.768   4.534
 3803SOL     OW11443   4.589   2.210   3.919
 3803SOL    HW111444   4.648   2.273   3.870
 3803SOL    HW211445   4.608   2.116   3.890
 3804SOL     OW11446   4.274   2.058   4.609
 3804SOL    HW111447   4.269   2.053   4.709
 3804SOL    HW211448   4.276   2.154   4.580
 3805SOL     OW11449   4.732   3.318   4.201
 3805SOL    HW111450   4.686   3.390   4.149
 3805SOL    HW211451   4.728   3.338   4.299
 3806SOL     OW11452   4.075   3.663   4.577
 3806SOL    HW111453   4.125   3.577   4.583
 3806SOL    HW211454   4.140   3.740   4.574
 3807SOL     OW11455   4.045   2.805   3.966
 3807SOL    HW111456   4.127   2.844   3.924
 3807SOL    HW211457   4.018   2.723   3.917
 3808SOL     OW11458   4.835   3.638   3.961
 3808SOL    HW111459   4.775   3.576   4.011
 3808SOL    HW211460   4.866   3.594   3.876
 3809SOL     OW11461   4.188   3.605   4.047
 3809SOL    HW111462   4.221   3.644   4.133
 3809SOL    HW211463   4.264   3.598   3.982
 3810SOL     OW11464   3.973   3.647   4.965
 3810SOL    HW111465   4.030   3.582   5.015
 3810SOL    HW211466   3.957   3.614   4.872
 3811SOL     OW11467   4.664   3.560   4.628
 3811SOL    HW111468   4.744   3.503   4.649
 3811SOL    HW211469   4.615   3.520   4.551
 3812SOL     OW11470   4.106   2.562   4.204
 3812SOL    HW111471   4.151   2.472   4.201
 3812SOL    HW211472   4.012   2.551   4.237
 3813SOL     OW11473   4.338   1.984   3.841
 3813SOL    HW111474   4.436   1.962   3.848
 3813SOL    HW211475   4.307   1.967   3.748
 3814SOL     OW11476   4.527   3.264   4.648
 3814SOL    HW111477   4.617   3.278   4.606
 3814SOL    HW211478   4.456   3.266   4.577
 3815SOL     OW11479   4.646   2.365   4.623
 3815SOL    HW111480   4.621   2.356   4.527
 3815SOL    HW211481   4.694   2.283   4.654
 3816SOL     OW11482   4.263   1.926   4.236
 3816SOL    HW111483   4.182   1.927   4.294
 3816SOL    HW211484   4.266   2.009   4.181
 3817SOL     OW11485   4.021   1.897   3.895
 3817SOL    HW111486   4.070   1.981   3.874
 3817SOL    HW211487   4.083   1.832   3.940
 3818SOL     OW11488   4.659   2.098   4.204
 3818SOL    HW111489   4.611   2.139   4.126
 3818SOL    HW211490   4.758   2.096   4.185
 3819SOL     OW11491   4.951   3.432   4.517
 3819SOL    HW111492   4.972   3.506   4.452
 3819SOL    HW211493   5.019   3.432   4.590
 3820SOL     OW11494   4.183   3.014   4.465
 3820SOL    HW111495   4.112   2.987   4.530
 3820SOL    HW211496   4.157   2.986   4.372
 3821SOL     OW11497   4.995   3.659   4.315
 3821SOL    HW111498   5.039   3.723   4.251
 3821SOL    HW211499   4.945   3.711   4.385
 3822SOL     OW11500   4.756   2.411   3.740
 3822SOL    HW111501   4.715   2.493   3.701
 3822SOL    HW211502   4.820   2.437   3.813
 3823SOL     OW11503   4.285   2.084   4.871
 3823SOL    HW111504   4.323   2.000   4.908
 3823SOL    HW211505   4.197   2.103   4.915
 3824SOL     OW11506   4.590   2.316   4.366
 3824SOL    HW111507   4.558   2.388   4.304
 3824SOL    HW211508   4.614   2.235   4.313
 3825SOL     OW11509   4.741   1.901   4.477
 3825SOL    HW111510   4.669   1.906   4.408
 3825SOL    HW211511   4.717   1.832   4.546
 3826SOL     OW11512   4.212   3.247   3.898
 3826SOL    HW111513   4.125   3.232   3.945
 3826SOL    HW211514   4.195   3.273   3.803
 3827SOL     OW11515   4.251   2.118   4.052
 3827SOL    HW111516   4.278   2.059   3.977
 3827SOL    HW211517   4.251   2.213   4.021
 3828SOL     OW11518   4.835   3.057   4.824
 3828SOL    HW111519   4.795   3.101   4.905
 3828SOL    HW211520   4.794   3.094   4.741
 3829SOL     OW11521   4.429   2.912   4.092
 3829SOL    HW111522   4.415   2.919   4.191
 3829SOL    HW211523   4.513   2.861   4.074
 3830SOL     OW11524   4.134   2.675   4.975
 3830SOL    HW111525   4.220   2.687   5.025
 3830SOL    HW211526   4.092   2.588   5.002
 3831SOL     OW11527   4.091   2.962   4.225
 3831SOL    HW111528   4.084   3.045   4.169
 3831SOL    HW211529   4.095   2.882   4.165
 3832SOL     OW11530   4.290   2.399   4.589
 3832SOL    HW111531   4.302   2.465   4.515
 3832SOL    HW211532   4.336   2.433   4.672
 3833SOL     OW11533   4.976   3.210   4.112
 3833SOL    HW111534   5.026   3.287   4.152
 3833SOL    HW211535   4.881   3.212   4.144
 3834SOL     OW11536   4.078   3.372   5.053
 3834SOL    HW111537   4.057   3.328   4.966
 3834SOL    HW211538   4.175   3.398   5.056
 3835SOL     OW11539   4.297   2.732   4.753
 3835SOL    HW111540   4.341   2.821   4.744
 3835SOL    HW211541   4.234   2.732   4.830
 3836SOL     OW11542   5.084   2.724   4.769
 3836SOL    HW111543   5.009   2.724   4.703
 3836SOL    HW211544   5.121   2.632   4.778
 3837SOL     OW11545   4.933   2.387   3.999
 3837SOL    HW111546   4.946   2.303   4.053
 3837SOL    HW211547   4.904   2.461   4.059
 3838SOL     OW11548   4.031   2.075   4.955
 3838SOL    HW111549   4.008   2.112   5.045
 3838SOL    HW211550   4.001   1.980   4.949
 3839SOL     OW11551   3.761   3.172   5.006
 3839SOL    HW111552   3.814   3.123   5.074
 3839SOL    HW211553   3.783   3.270   5.011
 3840SOL     OW11554   4.456   2.496   4.788
 3840SOL    HW111555   4.515   2.470   4.712
 3840SOL    HW211556   4.428   2.592   4.777
 3841SOL     OW11557   4.031   1.925   4.342
 3841SOL    HW111558   4.020   2.019   4.375
 3841SOL    HW211559   4.026   1.862   4.419
 3842SOL     OW11560   5.346   2.229   4.098
 3842SOL    HW111561   5.348   2.153   4.162
 3842SOL    HW211562   5.298   2.306   4.138
 3843SOL     OW11563   4.747   2.628   4.690
 3843SOL    HW111564   4.762   2.649   4.786
 3843SOL    HW211565   4.717   2.533   4.681
 3844SOL     OW11566   5.264   2.136   3.849
 3844SOL    HW111567   5.203   2.061   3.872
 3844SOL    HW211568   5.286   2.188   3.932
 3845SOL     OW11569   4.792   3.195   4.573
 3845SOL    HW111570   4.799   3.111   4.518
 3845SOL    HW211571   4.854   3.264   4.537
 3846SOL     OW11572   4.043   2.672   4.673
 3846SOL    HW111573   4.136   2.708   4.678
 3846SOL    HW211574   4.037   2.587   4.725
 3847SOL     OW11575   4.063   2.371   4.730
 3847SOL    HW111576   4.011   2.288   4.713
 3847SOL    HW211577   4.140   2.376   4.666
 3848SOL     OW11578   4.884   2.069   5.201
 3848SOL    HW111579   4.884   2.133   5.278
 3848SOL    HW211580   4.912   2.117   5.118
 3849SOL     OW11581   3.732   3.188   3.924
 3849SOL    HW111582   3.639   3.209   3.893
 3849SOL    HW211583   3.742   3.089   3.937
 3850SOL     OW11584   3.812   3.663   4.651
 3850SOL    HW111585   3.770   3.577   4.624
 3850SOL    HW211586   3.906   3.666   4.617
 3851SOL     OW11587   4.228   3.430   4.634
 3851SOL    HW111588   4.294   3.504   4.643
 3851SOL    HW211589   4.272   3.351   4.592
 3852SOL     OW11590   4.726   2.658   4.962
 3852SOL    HW111591   4.767   2.626   5.048
 3852SOL    HW211592   4.630   2.631   4.959
 3853SOL     OW11593   3.764   2.406   4.838
 3853SOL    HW111594   3.849   2.373   4.797
 3853SOL    HW211595   3.777   2.421   4.936
 3854SOL     OW11596   4.539   2.434   4.049
 3854SOL    HW111597   4.546   2.345   4.003
 3854SOL    HW211598   4.445   2.468   4.041
 3855SOL     OW11599   4.395   2.326   4.993
 3855SOL    HW111600   4.361   2.237   4.963
 3855SOL    HW211601   4.421   2.380   4.913
 3856SOL     OW11602   4.654   3.540   5.189
 3856SOL    HW111603   4.630   3.522   5.094
 3856SOL    HW211604   4.684   3.634   5.199
 3857SOL     OW11605   4.197   2.362   3.915
 3857SOL    HW111606   4.258   2.442   3.919
 3857SOL    HW211607   4.102   2.393   3.922
 3858SOL     OW11608   5.071   2.921   4.958
 3858SOL    HW111609   5.095   2.858   4.884
 3858SOL    HW211610   4.981   2.961   4.940
 3859SOL     OW11611   4.976   3.593   4.852
 3859SOL    HW111612   5.060   3.598   4.798
 3859SOL    HW211613   4.953   3.497   4.870
 3860SOL     OW11614   3.807   3.120   4.746
 3860SOL    HW111615   3.802   3.119   4.846
 3860SOL    HW211616   3.724   3.079   4.708
 3861SOL     OW11617   5.112   3.435   4.201
 3861SOL    HW111618   5.179   3.447   4.127
 3861SOL    HW211619   5.072   3.524   4.224
 3862SOL     OW11620   4.396   3.478   3.878
 3862SOL    HW111621   4.405   3.488   3.779
 3862SOL    HW211622   4.356   3.389   3.899
 3863SOL     OW11623   3.987   2.188   4.444
 3863SOL    HW111624   3.908   2.239   4.410
 3863SOL    HW211625   3.978   2.173   4.542
 3864SOL     OW11626   4.918   3.474   3.755
 3864SOL    HW111627   4.924   3.381   3.792
 3864SOL    HW211628   4.859   3.474   3.675
 3865SOL     OW11629   4.546   2.864   5.096
 3865SOL    HW111630   4.586   2.863   5.004
 3865SOL    HW211631   4.556   2.956   5.136
 3866SOL     OW11632   4.640   2.772   4.015
 3866SOL    HW111633   4.703   2.810   3.947
 3866SOL    HW211634   4.680   2.689   4.054
 3867SOL     OW11635   5.338   3.154   5.013
 3867SOL    HW111636   5.398   3.157   5.093
 3867SOL    HW211637   5.263   3.218   5.026
 3868SOL     OW11638   4.763   2.960   4.420
 3868SOL    HW111639   4.693   2.913   4.474
 3868SOL    HW211640   4.822   2.892   4.377
 3869SOL     OW11641   4.738   2.098   4.695
 3869SOL    HW111642   4.730   2.062   4.602
 3869SOL    HW211643   4.736   2.022   4.760
 3870SOL     OW11644   4.314   3.349   4.215
 3870SOL    HW111645   4.356   3.291   4.145
 3870SOL    HW211646   4.270   3.428   4.171
 3871SOL     OW11647   3.979   3.210   4.014
 3871SOL    HW111648   3.883   3.211   3.987
 3871SOL    HW211649   3.991   3.263   4.098
 3872SOL     OW11650   3.799   2.207   3.757
 3872SOL    HW111651   3.707   2.179   3.728
 3872SOL    HW211652   3.830   2.284   3.701
 3873SOL     OW11653   3.796   2.028   4.042
 3873SOL    HW111654   3.779   2.111   3.988
 3873SOL    HW211655   3.886   1.991   4.020
 3874SOL     OW11656   4.318   2.607   4.376
 3874SOL    HW111657   4.368   2.692   4.357
 3874SOL    HW211658   4.230   2.609   4.328
 3875SOL     OW11659   4.583   3.236   3.740
 3875SOL    HW111660   4.537   3.251   3.828
 3875SOL    HW211661   4.627   3.321   3.710
 3876SOL     OW11662   4.385   3.652   4.677
 3876SOL    HW111663   4.339   3.740   4.664
 3876SOL    HW211664   4.484   3.664   4.670
 3877SOL     OW11665   4.583   2.818   4.585
 3877SOL    HW111666   4.637   2.749   4.633
 3877SOL    HW211667   4.551   2.887   4.651
 3878SOL     OW11668   4.807   2.846   3.811
 3878SOL    HW111669   4.784   2.899   3.729
 3878SOL    HW211670   4.888   2.790   3.792
 3879SOL     OW11671   3.803   3.102   4.377
 3879SOL    HW111672   3.802   3.055   4.465
 3879SOL    HW211673   3.885   3.074   4.326
 3880SOL     OW11674   4.152   2.286   4.244
 3880SOL    HW111675   4.182   2.214   4.182
 3880SOL    HW211676   4.113   2.246   4.327
 3881SOL     OW11677   4.536   3.448   4.411
 3881SOL    HW111678   4.568   3.458   4.317
 3881SOL    HW211679   4.457   3.386   4.413
 3882SOL     OW11680   4.725   1.896   4.878
 3882SOL    HW111681   4.662   1.824   4.847
 3882SOL    HW211682   4.818   1.860   4.878
 3883SOL     OW11683   4.494   3.192   4.025
 3883SOL    HW111684   4.448   3.105   4.042
 3883SOL    HW211685   4.585   3.189   4.066
 3884SOL     OW11686   3.763   2.939   4.024
 3884SOL    HW111687   3.862   2.928   4.015
 3884SOL    HW211688   3.723   2.853   4.056
 3885SOL     OW11689   4.599   3.508   4.061
 3885SOL    HW111690   4.522   3.473   4.007
 3885SOL    HW211691   4.567   3.579   4.123
 3886SOL     OW11692   3.954   4.352   0.113
 3886SOL    HW111693   3.861   4.350   0.150
 3886SOL    HW211694   3.955   4.313   0.021
 3887SOL     OW11695   3.949   3.999   0.996
 3887SOL    HW111696   3.984   3.982   1.088
 3887SOL    HW211697   3.861   3.954   0.984
 3888SOL     OW11698   3.743   4.092   0.647
 3888SOL    HW111699   3.661   4.135   0.686
 3888SOL    HW211700   3.715   4.019   0.584
 3889SOL     OW11701   4.859   4.427   0.717
 3889SOL    HW111702   4.916   4.505   0.692
 3889SOL    HW211703   4.799   4.453   0.793
 3890SOL     OW11704   4.492   4.868   1.023
 3890SOL    HW111705   4.414   4.885   1.083
 3890SOL    HW211706   4.526   4.955   0.987
 3891SOL     OW11707   4.574   4.522   1.823
 3891SOL    HW111708   4.570   4.598   1.888
 3891SOL    HW211709   4.596   4.558   1.732
 3892SOL     OW11710   4.409   4.736   0.665
 3892SOL    HW111711   4.478   4.720   0.735
 3892SOL    HW211712   4.336   4.793   0.703
 3893SOL     OW11713   4.410   4.885   1.803
 3893SOL    HW111714   4.470   4.964   1.817
 3893SOL    HW211715   4.324   4.916   1.762
 3894SOL     OW11716   4.059   5.159   1.061
 3894SOL    HW111717   3.981   5.128   1.008
 3894SOL    HW211718   4.117   5.217   1.004
 3895SOL     OW11719   4.162   4.116   1.499
 3895SOL    HW111720   4.244   4.060   1.508
 3895SOL    HW211721   4.081   4.058   1.503
 3896SOL     OW11722   3.964   4.815   0.886
 3896SOL    HW111723   3.978   4.731   0.938
 3896SOL    HW211724   3.909   4.879   0.941
 3897SOL     OW11725   4.330   4.688   0.123
 3897SOL    HW111726   4.337   4.772   0.069
 3897SOL    HW211727   4.376   4.701   0.211
 3898SOL     OW11728   3.846   4.367   0.563
 3898SOL    HW111729   3.801   4.279   0.580
 3898SOL    HW211730   3.845   4.421   0.647
 3899SOL     OW11731   3.837   4.461   1.597
 3899SOL    HW111732   3.925   4.448   1.642
 3899SOL    HW211733   3.824   4.558   1.575
 3900SOL     OW11734   4.533   3.728   0.502
 3900SOL    HW111735   4.573   3.819   0.493
 3900SOL    HW211736   4.433   3.736   0.508
 3901SOL     OW11737   3.921   4.700   1.264
 3901SOL    HW111738   4.010   4.655   1.250
 3901SOL    HW211739   3.848   4.635   1.245
 3902SOL     OW11740   4.041   3.975   1.801
 3902SOL    HW111741   4.112   4.046   1.807
 3902SOL    HW211742   3.953   4.014   1.829
 3903SOL     OW11743   4.322   4.453   0.270
 3903SOL    HW111744   4.346   4.522   0.202
 3903SOL    HW211745   4.244   4.486   0.324
 3904SOL     OW11746   5.005   4.069   0.944
 3904SOL    HW111747   4.919   4.019   0.931
 3904SOL    HW211748   5.067   4.015   1.000
 3905SOL     OW11749   4.531   4.329   1.465
 3905SOL    HW111750   4.484   4.326   1.554
 3905SOL    HW211751   4.480   4.274   1.399
 3906SOL     OW11752   4.697   4.614   1.572
 3906SOL    HW111753   4.743   4.530   1.543
 3906SOL    HW211754   4.641   4.648   1.497
 3907SOL     OW11755   4.715   4.134   1.242
 3907SOL    HW111756   4.638   4.168   1.296
 3907SOL    HW211757   4.681   4.083   1.163
 3908SOL     OW11758   4.765   4.425   0.429
 3908SOL    HW111759   4.791   4.421   0.525
 3908SOL    HW211760   4.680   4.374   0.415
 3909SOL     OW11761   3.800   4.535   0.789
 3909SOL    HW111762   3.899   4.523   0.798
 3909SOL    HW211763   3.776   4.630   0.810
 3910SOL     OW11764   4.589   4.072   0.195
 3910SOL    HW111765   4.648   4.135   0.146
 3910SOL    HW211766   4.608   3.978   0.166
 3911SOL     OW11767   4.274   3.920   0.885
 3911SOL    HW111768   4.269   3.915   0.985
 3911SOL    HW211769   4.276   4.016   0.856
 3912SOL     OW11770   4.045   4.667   0.242
 3912SOL    HW111771   4.127   4.706   0.200
 3912SOL    HW211772   4.018   4.585   0.193
 3913SOL     OW11773   3.926   4.009   1.498
 3913SOL    HW111774   3.846   4.069   1.485
 3913SOL    HW211775   3.916   3.960   1.584
 3914SOL     OW11776   4.106   4.424   0.480
 3914SOL    HW111777   4.151   4.334   0.477
 3914SOL    HW211778   4.012   4.413   0.513
 3915SOL     OW11779   4.338   3.846   0.117
 3915SOL    HW111780   4.436   3.824   0.124
 3915SOL    HW211781   4.307   3.829   0.024
 3916SOL     OW11782   4.505   3.988   1.749
 3916SOL    HW111783   4.572   3.927   1.792
 3916SOL    HW211784   4.432   4.007   1.814
 3917SOL     OW11785   4.527   5.126   0.924
 3917SOL    HW111786   4.617   5.140   0.882
 3917SOL    HW211787   4.456   5.128   0.853
 3918SOL     OW11788   4.646   4.227   0.899
 3918SOL    HW111789   4.621   4.218   0.803
 3918SOL    HW211790   4.694   4.145   0.930
 3919SOL     OW11791   4.263   3.788   0.512
 3919SOL    HW111792   4.182   3.789   0.570
 3919SOL    HW211793   4.266   3.871   0.457
 3920SOL     OW11794   4.021   3.759   0.171
 3920SOL    HW111795   4.070   3.843   0.150
 3920SOL    HW211796   4.083   3.694   0.216
 3921SOL     OW11797   4.659   3.960   0.480
 3921SOL    HW111798   4.611   4.001   0.402
 3921SOL    HW211799   4.758   3.958   0.461
 3922SOL     OW11800   4.800   4.407   1.464
 3922SOL    HW111801   4.720   4.346   1.467
 3922SOL    HW211802   4.881   4.354   1.440
 3923SOL     OW11803   4.183   4.876   0.741
 3923SOL    HW111804   4.112   4.849   0.806
 3923SOL    HW211805   4.157   4.848   0.648
 3924SOL     OW11806   4.756   4.273   0.016
 3924SOL    HW111807   4.715   4.355  -0.023
 3924SOL    HW211808   4.820   4.299   0.089
 3925SOL     OW11809   3.802   4.280   1.386
 3925SOL    HW111810   3.894   4.279   1.345
 3925SOL    HW211811   3.796   4.354   1.453
 3926SOL     OW11812   4.285   3.946   1.147
 3926SOL    HW111813   4.323   3.862   1.184
 3926SOL    HW211814   4.197   3.965   1.191
 3927SOL     OW11815   4.590   4.178   0.642
 3927SOL    HW111816   4.558   4.250   0.580
 3927SOL    HW211817   4.614   4.097   0.589
 3928SOL     OW11818   4.741   3.763   0.753
 3928SOL    HW111819   4.669   3.768   0.684
 3928SOL    HW211820   4.717   3.694   0.822
 3929SOL     OW11821   4.251   3.980   0.328
 3929SOL    HW111822   4.278   3.921   0.253
 3929SOL    HW211823   4.251   4.075   0.297
 3930SOL     OW11824   4.639   3.813   1.402
 3930SOL    HW111825   4.664   3.793   1.307
 3930SOL    HW211826   4.711   3.869   1.444
 3931SOL     OW11827   4.704   4.840   1.719
 3931SOL    HW111828   4.605   4.846   1.729
 3931SOL    HW211829   4.727   4.760   1.663
 3932SOL     OW11830   4.429   4.774   0.368
 3932SOL    HW111831   4.415   4.781   0.467
 3932SOL    HW211832   4.513   4.723   0.350
 3933SOL     OW11833   4.134   4.537   1.251
 3933SOL    HW111834   4.220   4.549   1.301
 3933SOL    HW211835   4.092   4.450   1.278
 3934SOL     OW11836   4.998   4.110   1.262
 3934SOL    HW111837   5.019   4.184   1.326
 3934SOL    HW211838   4.909   4.127   1.219
 3935SOL     OW11839   4.091   4.824   0.501
 3935SOL    HW111840   4.084   4.907   0.445
 3935SOL    HW211841   4.095   4.744   0.441
 3936SOL     OW11842   4.290   4.261   0.865
 3936SOL    HW111843   4.302   4.327   0.791
 3936SOL    HW211844   4.336   4.295   0.948
 3937SOL     OW11845   4.976   5.072   0.388
 3937SOL    HW111846   5.026   5.149   0.428
 3937SOL    HW211847   4.881   5.074   0.420
 3938SOL     OW11848   4.126   4.475   1.598
 3938SOL    HW111849   4.194   4.530   1.551
 3938SOL    HW211850   4.166   4.387   1.625
 3939SOL     OW11851   4.737   3.829   1.770
 3939SOL    HW111852   4.743   3.914   1.718
 3939SOL    HW211853   4.769   3.753   1.713
 3940SOL     OW11854   4.228   3.774   1.740
 3940SOL    HW111855   4.186   3.717   1.670
 3940SOL    HW211856   4.162   3.843   1.772
 3941SOL     OW11857   4.297   4.594   1.029
 3941SOL    HW111858   4.341   4.683   1.020
 3941SOL    HW211859   4.234   4.594   1.106
 3942SOL     OW11860   5.084   4.586   1.045
 3942SOL    HW111861   5.009   4.586   0.979
 3942SOL    HW211862   5.121   4.494   1.054
 3943SOL     OW11863   4.933   4.249   0.275
 3943SOL    HW111864   4.946   4.165   0.329
 3943SOL    HW211865   4.904   4.323   0.335
 3944SOL     OW11866   4.031   3.937   1.231
 3944SOL    HW111867   4.008   3.974   1.321
 3944SOL    HW211868   4.001   3.842   1.225
 3945SOL     OW11869   4.456   4.358   1.064
 3945SOL    HW111870   4.515   4.332   0.988
 3945SOL    HW211871   4.428   4.454   1.053
 3946SOL     OW11872   4.031   3.787   0.618
 3946SOL    HW111873   4.020   3.881   0.651
 3946SOL    HW211874   4.026   3.724   0.695
 3947SOL     OW11875   5.346   4.091   0.374
 3947SOL    HW111876   5.348   4.015   0.438
 3947SOL    HW211877   5.298   4.168   0.414
 3948SOL     OW11878   4.747   4.490   0.966
 3948SOL    HW111879   4.762   4.511   1.062
 3948SOL    HW211880   4.717   4.395   0.957
 3949SOL     OW11881   4.074   4.622   1.804
 3949SOL    HW111882   4.150   4.666   1.852
 3949SOL    HW211883   4.109   4.575   1.722
 3950SOL     OW11884   5.027   4.562   0.042
 3950SOL    HW111885   5.061   4.469   0.057
 3950SOL    HW211886   5.045   4.589  -0.053
 3951SOL     OW11887   4.043   4.534   0.949
 3951SOL    HW111888   4.136   4.570   0.954
 3951SOL    HW211889   4.037   4.449   1.001
 3952SOL     OW11890   4.063   4.233   1.006
 3952SOL    HW111891   4.011   4.150   0.989
 3952SOL    HW211892   4.140   4.238   0.942
 3953SOL     OW11893   4.862   4.104   1.678
 3953SOL    HW111894   4.817   4.167   1.742
 3953SOL    HW211895   4.955   4.135   1.661
 3954SOL     OW11896   4.884   3.931   1.477
 3954SOL    HW111897   4.884   3.995   1.554
 3954SOL    HW211898   4.912   3.979   1.394
 3955SOL     OW11899   4.726   4.520   1.238
 3955SOL    HW111900   4.767   4.488   1.324
 3955SOL    HW211901   4.630   4.493   1.235
 3956SOL     OW11902   3.764   4.268   1.114
 3956SOL    HW111903   3.849   4.235   1.073
 3956SOL    HW211904   3.777   4.283   1.212
 3957SOL     OW11905   3.913   4.244   1.722
 3957SOL    HW111906   3.972   4.204   1.652
 3957SOL    HW211907   3.855   4.315   1.681
 3958SOL     OW11908   4.539   4.296   0.325
 3958SOL    HW111909   4.546   4.207   0.279
 3958SOL    HW211910   4.445   4.330   0.317
 3959SOL     OW11911   4.395   4.188   1.269
 3959SOL    HW111912   4.361   4.099   1.239
 3959SOL    HW211913   4.421   4.242   1.189
 3960SOL     OW11914   4.197   4.224   0.191
 3960SOL    HW111915   4.258   4.304   0.195
 3960SOL    HW211916   4.102   4.255   0.198
 3961SOL     OW11917   3.883   4.861   1.466
 3961SOL    HW111918   3.905   4.800   1.542
 3961SOL    HW211919   3.893   4.812   1.380
 3962SOL     OW11920   5.071   4.783   1.234
 3962SOL    HW111921   5.095   4.720   1.160
 3962SOL    HW211922   4.981   4.823   1.216
 3963SOL     OW11923   3.807   4.982   1.022
 3963SOL    HW111924   3.802   4.981   1.122
 3963SOL    HW211925   3.724   4.941   0.984
 3964SOL     OW11926   4.627   3.810   0.133
 3964SOL    HW111927   4.678   3.811   0.047
 3964SOL    HW211928   4.683   3.768   0.204
 3965SOL     OW11929   3.987   4.050   0.720
 3965SOL    HW111930   3.908   4.101   0.686
 3965SOL    HW211931   3.978   4.035   0.818
 3966SOL     OW11932   4.546   4.726   1.372
 3966SOL    HW111933   4.586   4.725   1.280
 3966SOL    HW211934   4.556   4.818   1.412
 3967SOL     OW11935   4.640   4.634   0.291
 3967SOL    HW111936   4.703   4.672   0.223
 3967SOL    HW211937   4.680   4.551   0.330
 3968SOL     OW11938   4.096   5.012   1.490
 3968SOL    HW111939   4.083   5.105   1.456
 3968SOL    HW211940   4.012   4.960   1.477
 3969SOL     OW11941   4.763   4.822   0.696
 3969SOL    HW111942   4.693   4.775   0.750
 3969SOL    HW211943   4.822   4.754   0.653
 3970SOL     OW11944   4.738   3.960   0.971
 3970SOL    HW111945   4.730   3.924   0.878
 3970SOL    HW211946   4.736   3.884   1.036
 3971SOL     OW11947   3.829   4.737   1.726
 3971SOL    HW111948   3.752   4.704   1.780
 3971SOL    HW211949   3.914   4.707   1.768
 3972SOL     OW11950   4.396   3.927   1.489
 3972SOL    HW111951   4.486   3.911   1.449
 3972SOL    HW211952   4.404   3.932   1.588
 3973SOL     OW11953   3.796   3.890   0.318
 3973SOL    HW111954   3.779   3.973   0.264
 3973SOL    HW211955   3.886   3.853   0.296
 3974SOL     OW11956   4.337   4.566   1.431
 3974SOL    HW111957   4.393   4.647   1.414
 3974SOL    HW211958   4.396   4.486   1.434
 3975SOL     OW11959   4.440   4.289   1.708
 3975SOL    HW111960   4.459   4.354   1.782
 3975SOL    HW211961   4.500   4.209   1.717
 3976SOL     OW11962   5.174   4.944   1.633
 3976SOL    HW111963   5.165   4.934   1.732
 3976SOL    HW211964   5.270   4.937   1.607
 3977SOL     OW11965   4.318   4.469   0.652
 3977SOL    HW111966   4.368   4.554   0.633
 3977SOL    HW211967   4.230   4.471   0.604
 3978SOL     OW11968   4.583   4.680   0.861
 3978SOL    HW111969   4.637   4.611   0.909
 3978SOL    HW211970   4.551   4.749   0.927
 3979SOL     OW11971   4.807   4.708   0.087
 3979SOL    HW111972   4.784   4.761   0.005
 3979SOL    HW211973   4.888   4.652   0.068
 3980SOL     OW11974   3.803   4.964   0.653
 3980SOL    HW111975   3.802   4.917   0.741
 3980SOL    HW211976   3.885   4.936   0.602
 3981SOL     OW11977   4.152   4.148   0.520
 3981SOL    HW111978   4.182   4.076   0.458
 3981SOL    HW211979   4.113   4.108   0.603
 3982SOL     OW11980   4.041   4.271   1.280
 3982SOL    HW111981   4.079   4.212   1.352
 3982SOL    HW211982   4.081   4.245   1.192
 3983SOL     OW11983   4.725   3.758   1.154
 3983SOL    HW111984   4.662   3.686   1.123
 3983SOL    HW211985   4.818   3.722   1.154
 3984SOL     OW11986   4.494   5.054   0.301
 3984SOL    HW111987   4.448   4.967   0.318
 3984SOL    HW211988   4.585   5.051   0.342
 3985SOL     OW11989   3.763   4.801   0.300
 3985SOL    HW111990   3.862   4.790   0.291
 3985SOL    HW211991   3.723   4.715   0.332
 3986SOL     OW11992   3.954   4.352   1.975
 3986SOL    HW111993   3.861   4.350   2.012
 3986SOL    HW211994   3.955   4.313   1.883
 3987SOL     OW11995   3.949   3.999   2.858
 3987SOL    HW111996   3.984   3.982   2.950
 3987SOL    HW211997   3.861   3.954   2.846
 3988SOL     OW11998   3.743   4.092   2.509
 3988SOL    HW111999   3.661   4.135   2.548
 3988SOL    HW212000   3.715   4.019   2.446
 3989SOL     OW12001   4.859   4.427   2.579
 3989SOL    HW112002   4.916   4.505   2.554
 3989SOL    HW212003   4.799   4.453   2.655
 3990SOL     OW12004   4.492   4.868   2.885
 3990SOL    HW112005   4.414   4.885   2.945
 3990SOL    HW212006   4.526   4.955   2.849
 3991SOL     OW12007   4.574   4.522   3.685
 3991SOL    HW112008   4.570   4.598   3.750
 3991SOL    HW212009   4.596   4.558   3.594
 3992SOL     OW12010   4.409   4.736   2.527
 3992SOL    HW112011   4.478   4.720   2.597
 3992SOL    HW212012   4.336   4.793   2.565
 3993SOL     OW12013   4.410   4.885   3.665
 3993SOL    HW112014   4.470   4.964   3.679
 3993SOL    HW212015   4.324   4.916   3.624
 3994SOL     OW12016   4.059   5.159   2.923
 3994SOL    HW112017   3.981   5.128   2.870
 3994SOL    HW212018   4.117   5.217   2.866
 3995SOL     OW12019   4.162   4.116   3.361
 3995SOL    HW112020   4.244   4.060   3.370
 3995SOL    HW212021   4.081   4.058   3.365
 3996SOL     OW12022   3.964   4.815   2.748
 3996SOL    HW112023   3.978   4.731   2.800
 3996SOL    HW212024   3.909   4.879   2.803
 3997SOL     OW12025   4.330   4.688   1.985
 3997SOL    HW112026   4.337   4.772   1.931
 3997SOL    HW212027   4.376   4.701   2.073
 3998SOL     OW12028   3.846   4.367   2.425
 3998SOL    HW112029   3.801   4.279   2.442
 3998SOL    HW212030   3.845   4.421   2.509
 3999SOL     OW12031   3.837   4.461   3.459
 3999SOL    HW112032   3.925   4.448   3.504
 3999SOL    HW212033   3.824   4.558   3.437
 4000SOL     OW12034   4.533   3.728   2.364
 4000SOL    HW112035   4.573   3.819   2.355
 4000SOL    HW212036   4.433   3.736   2.370
 4001SOL     OW12037   3.921   4.700   3.126
 4001SOL    HW112038   4.010   4.655   3.112
 4001SOL    HW212039   3.848   4.635   3.107
 4002SOL     OW12040   4.041   3.975   3.663
 4002SOL    HW112041   4.112   4.046   3.669
 4002SOL    HW212042   3.953   4.014   3.691
 4003SOL     OW12043   4.322   4.453   2.132
 4003SOL    HW112044   4.346   4.522   2.064
 4003SOL    HW212045   4.244   4.486   2.186
 4004SOL     OW12046   5.005   4.069   2.806
 4004SOL    HW112047   4.919   4.019   2.793
 4004SOL    HW212048   5.067   4.015   2.862
 4005SOL     OW12049   4.531   4.329   3.327
 4005SOL    HW112050   4.484   4.326   3.416
 4005SOL    HW212051   4.480   4.274   3.261
 4006SOL     OW12052   4.697   4.614   3.434
 4006SOL    HW112053   4.743   4.530   3.405
 4006SOL    HW212054   4.641   4.648   3.359
 4007SOL     OW12055   4.715   4.134   3.104
 4007SOL    HW112056   4.638   4.168   3.158
 4007SOL    HW212057   4.681   4.083   3.025
 4008SOL     OW12058   4.765   4.425   2.291
 4008SOL    HW112059   4.791   4.421   2.387
 4008SOL    HW212060   4.680   4.374   2.277
 4009SOL     OW12061   3.800   4.535   2.651
 4009SOL    HW112062   3.899   4.523   2.660
 4009SOL    HW212063   3.776   4.630   2.672
 4010SOL     OW12064   4.589   4.072   2.057
 4010SOL    HW112065   4.648   4.135   2.008
 4010SOL    HW212066   4.608   3.978   2.028
 4011SOL     OW12067   4.274   3.920   2.747
 4011SOL    HW112068   4.269   3.915   2.847
 4011SOL    HW212069   4.276   4.016   2.718
 4012SOL     OW12070   4.045   4.667   2.104
 4012SOL    HW112071   4.127   4.706   2.062
 4012SOL    HW212072   4.018   4.585   2.055
 4013SOL     OW12073   3.926   4.009   3.360
 4013SOL    HW112074   3.846   4.069   3.347
 4013SOL    HW212075   3.916   3.960   3.446
 4014SOL     OW12076   4.106   4.424   2.342
 4014SOL    HW112077   4.151   4.334   2.339
 4014SOL    HW212078   4.012   4.413   2.375
 4015SOL     OW12079   4.338   3.846   1.979
 4015SOL    HW112080   4.436   3.824   1.986
 4015SOL    HW212081   4.307   3.829   1.886
 4016SOL     OW12082   4.505   3.988   3.611
 4016SOL    HW112083   4.572   3.927   3.654
 4016SOL    HW212084   4.432   4.007   3.676
 4017SOL     OW12085   4.527   5.126   2.786
 4017SOL    HW112086   4.617   5.140   2.744
 4017SOL    HW212087   4.456   5.128   2.715
 4018SOL     OW12088   4.646   4.227   2.761
 4018SOL    HW112089   4.621   4.218   2.665
 4018SOL    HW212090   4.694   4.145   2.792
 4019SOL     OW12091   4.263   3.788   2.374
 4019SOL    HW112092   4.182   3.789   2.432
 4019SOL    HW212093   4.266   3.871   2.319
 4020SOL     OW12094   5.158   4.912   1.903
 4020SOL    HW112095   5.190   4.836   1.960
 4020SOL    HW212096   5.066   4.939   1.933
 4021SOL     OW12097   4.021   3.759   2.033
 4021SOL    HW112098   4.070   3.843   2.012
 4021SOL    HW212099   4.083   3.694   2.078
 4022SOL     OW12100   4.659   3.960   2.342
 4022SOL    HW112101   4.611   4.001   2.264
 4022SOL    HW212102   4.758   3.958   2.323
 4023SOL     OW12103   4.800   4.407   3.326
 4023SOL    HW112104   4.720   4.346   3.329
 4023SOL    HW212105   4.881   4.354   3.302
 4024SOL     OW12106   4.183   4.876   2.603
 4024SOL    HW112107   4.112   4.849   2.668
 4024SOL    HW212108   4.157   4.848   2.510
 4025SOL     OW12109   4.756   4.273   1.878
 4025SOL    HW112110   4.715   4.355   1.839
 4025SOL    HW212111   4.820   4.299   1.951
 4026SOL     OW12112   3.802   4.280   3.248
 4026SOL    HW112113   3.894   4.279   3.207
 4026SOL    HW212114   3.796   4.354   3.315
 4027SOL     OW12115   4.285   3.946   3.009
 4027SOL    HW112116   4.323   3.862   3.046
 4027SOL    HW212117   4.197   3.965   3.053
 4028SOL     OW12118   4.590   4.178   2.504
 4028SOL    HW112119   4.558   4.250   2.442
 4028SOL    HW212120   4.614   4.097   2.451
 4029SOL     OW12121   4.741   3.763   2.615
 4029SOL    HW112122   4.669   3.768   2.546
 4029SOL    HW212123   4.717   3.694   2.684
 4030SOL     OW12124   4.251   3.980   2.190
 4030SOL    HW112125   4.278   3.921   2.115
 4030SOL    HW212126   4.251   4.075   2.159
 4031SOL     OW12127   4.639   3.813   3.264
 4031SOL    HW112128   4.664   3.793   3.169
 4031SOL    HW212129   4.711   3.869   3.306
 4032SOL     OW12130   4.704   4.840   3.581
 4032SOL    HW112131   4.605   4.846   3.591
 4032SOL    HW212132   4.727   4.760   3.525
 4033SOL     OW12133   4.429   4.774   2.230
 4033SOL    HW112134   4.415   4.781   2.329
 4033SOL    HW212135   4.513   4.723   2.212
 4034SOL     OW12136   4.134   4.537   3.113
 4034SOL    HW112137   4.220   4.549   3.163
 4034SOL    HW212138   4.092   4.450   3.140
 4035SOL     OW12139   4.998   4.110   3.124
 4035SOL    HW112140   5.019   4.184   3.188
 4035SOL    HW212141   4.909   4.127   3.081
 4036SOL     OW12142   4.091   4.824   2.363
 4036SOL    HW112143   4.084   4.907   2.307
 4036SOL    HW212144   4.095   4.744   2.303
 4037SOL     OW12145   4.290   4.261   2.727
 4037SOL    HW112146   4.302   4.327   2.653
 4037SOL    HW212147   4.336   4.295   2.810
 4038SOL     OW12148   4.976   5.072   2.250
 4038SOL    HW112149   5.026   5.149   2.290
 4038SOL    HW212150   4.881   5.074   2.282
 4039SOL     OW12151   4.126   4.475   3.460
 4039SOL    HW112152   4.194   4.530   3.413
 4039SOL    HW212153   4.166   4.387   3.487
 4040SOL     OW12154   4.737   3.829   3.632
 4040SOL    HW112155   4.743   3.914   3.580
 4040SOL    HW212156   4.769   3.753   3.575
 4041SOL     OW12157   4.228   3.774   3.602
 4041SOL    HW112158   4.186   3.717   3.532
 4041SOL    HW212159   4.162   3.843   3.634
 4042SOL     OW12160   4.297   4.594   2.891
 4042SOL    HW112161   4.341   4.683   2.882
 4042SOL    HW212162   4.234   4.594   2.968
 4043SOL     OW12163   5.084   4.586   2.907
 4043SOL    HW112164   5.009   4.586   2.841
 4043SOL    HW212165   5.121   4.494   2.916
 4044SOL     OW12166   4.933   4.249   2.137
 4044SOL    HW112167   4.946   4.165   2.191
 4044SOL    HW212168   4.904   4.323   2.197
 4045SOL     OW12169   4.031   3.937   3.093
 4045SOL    HW112170   4.008   3.974   3.183
 4045SOL    HW212171   4.001   3.842   3.087
 4046SOL     OW12172   4.456   4.358   2.926
 4046SOL    HW112173   4.515   4.332   2.850
 4046SOL    HW212174   4.428   4.454   2.915
 4047SOL     OW12175   4.031   3.787   2.480
 4047SOL    HW112176   4.020   3.881   2.513
 4047SOL    HW212177   4.026   3.724   2.557
 4048SOL     OW12178   5.346   4.091   2.236
 4048SOL    HW112179   5.348   4.015   2.300
 4048SOL    HW212180   5.298   4.168   2.276
 4049SOL     OW12181   4.747   4.490   2.828
 4049SOL    HW112182   4.762   4.511   2.924
 4049SOL    HW212183   4.717   4.395   2.819
 4050SOL     OW12184   4.074   4.622   3.666
 4050SOL    HW112185   4.150   4.666   3.714
 4050SOL    HW212186   4.109   4.575   3.584
 4051SOL     OW12187   5.264   3.998   1.987
 4051SOL    HW112188   5.203   3.923   2.010
 4051SOL    HW212189   5.286   4.050   2.070
 4052SOL     OW12190   4.043   4.534   2.811
 4052SOL    HW112191   4.136   4.570   2.816
 4052SOL    HW212192   4.037   4.449   2.863
 4053SOL     OW12193   4.063   4.233   2.868
 4053SOL    HW112194   4.011   4.150   2.851
 4053SOL    HW212195   4.140   4.238   2.804
 4054SOL     OW12196   4.862   4.104   3.540
 4054SOL    HW112197   4.817   4.167   3.604
 4054SOL    HW212198   4.955   4.135   3.523
 4055SOL     OW12199   4.884   3.931   3.339
 4055SOL    HW112200   4.884   3.995   3.416
 4055SOL    HW212201   4.912   3.979   3.256
 4056SOL     OW12202   3.732   5.050   2.062
 4056SOL    HW112203   3.639   5.071   2.031
 4056SOL    HW212204   3.742   4.951   2.075
 4057SOL     OW12205   4.726   4.520   3.100
 4057SOL    HW112206   4.767   4.488   3.186
 4057SOL    HW212207   4.630   4.493   3.097
 4058SOL     OW12208   3.764   4.268   2.976
 4058SOL    HW112209   3.849   4.235   2.935
 4058SOL    HW212210   3.777   4.283   3.074
 4059SOL     OW12211   3.913   4.244   3.584
 4059SOL    HW112212   3.972   4.204   3.514
 4059SOL    HW212213   3.855   4.315   3.543
 4060SOL     OW12214   4.539   4.296   2.187
 4060SOL    HW112215   4.546   4.207   2.141
 4060SOL    HW212216   4.445   4.330   2.179
 4061SOL     OW12217   4.395   4.188   3.131
 4061SOL    HW112218   4.361   4.099   3.101
 4061SOL    HW212219   4.421   4.242   3.051
 4062SOL     OW12220   4.197   4.224   2.053
 4062SOL    HW112221   4.258   4.304   2.057
 4062SOL    HW212222   4.102   4.255   2.060
 4063SOL     OW12223   3.883   4.861   3.328
 4063SOL    HW112224   3.905   4.800   3.404
 4063SOL    HW212225   3.893   4.812   3.242
 4064SOL     OW12226   5.071   4.783   3.096
 4064SOL    HW112227   5.095   4.720   3.022
 4064SOL    HW212228   4.981   4.823   3.078
 4065SOL     OW12229   3.807   4.982   2.884
 4065SOL    HW112230   3.802   4.981   2.984
 4065SOL    HW212231   3.724   4.941   2.846
 4066SOL     OW12232   3.987   4.050   2.582
 4066SOL    HW112233   3.908   4.101   2.548
 4066SOL    HW212234   3.978   4.035   2.680
 4067SOL     OW12235   4.546   4.726   3.234
 4067SOL    HW112236   4.586   4.725   3.142
 4067SOL    HW212237   4.556   4.818   3.274
 4068SOL     OW12238   4.640   4.634   2.153
 4068SOL    HW112239   4.703   4.672   2.085
 4068SOL    HW212240   4.680   4.551   2.192
 4069SOL     OW12241   4.096   5.012   3.352
 4069SOL    HW112242   4.083   5.105   3.318
 4069SOL    HW212243   4.012   4.960   3.339
 4070SOL     OW12244   4.763   4.822   2.558
 4070SOL    HW112245   4.693   4.775   2.612
 4070SOL    HW212246   4.822   4.754   2.515
 4071SOL     OW12247   4.738   3.960   2.833
 4071SOL    HW112248   4.730   3.924   2.740
 4071SOL    HW212249   4.736   3.884   2.898
 4072SOL     OW12250   3.829   4.737   3.588
 4072SOL    HW112251   3.752   4.704   3.642
 4072SOL    HW212252   3.914   4.707   3.630
 4073SOL     OW12253   4.396   3.927   3.351
 4073SOL    HW112254   4.486   3.911   3.311
 4073SOL    HW212255   4.404   3.932   3.450
 4074SOL     OW12256   3.799   4.069   1.895
 4074SOL    HW112257   3.707   4.041   1.866
 4074SOL    HW212258   3.830   4.146   1.839
 4075SOL     OW12259   3.796   3.890   2.180
 4075SOL    HW112260   3.779   3.973   2.126
 4075SOL    HW212261   3.886   3.853   2.158
 4076SOL     OW12262   4.337   4.566   3.293
 4076SOL    HW112263   4.393   4.647   3.276
 4076SOL    HW212264   4.396   4.486   3.296
 4077SOL     OW12265   4.440   4.289   3.570
 4077SOL    HW112266   4.459   4.354   3.644
 4077SOL    HW212267   4.500   4.209   3.579
 4078SOL     OW12268   5.174   4.944   3.495
 4078SOL    HW112269   5.165   4.934   3.594
 4078SOL    HW212270   5.270   4.937   3.469
 4079SOL     OW12271   4.318   4.469   2.514
 4079SOL    HW112272   4.368   4.554   2.495
 4079SOL    HW212273   4.230   4.471   2.466
 4080SOL     OW12274   4.583   4.680   2.723
 4080SOL    HW112275   4.637   4.611   2.771
 4080SOL    HW212276   4.551   4.749   2.789
 4081SOL     OW12277   4.807   4.708   1.949
 4081SOL    HW112278   4.784   4.761   1.867
 4081SOL    HW212279   4.888   4.652   1.930
 4082SOL     OW12280   3.803   4.964   2.515
 4082SOL    HW112281   3.802   4.917   2.603
 4082SOL    HW212282   3.885   4.936   2.464
 4083SOL     OW12283   4.152   4.148   2.382
 4083SOL    HW112284   4.182   4.076   2.320
 4083SOL    HW212285   4.113   4.108   2.465
 4084SOL     OW12286   4.041   4.271   3.142
 4084SOL    HW112287   4.079   4.212   3.214
 4084SOL    HW212288   4.081   4.245   3.054
 4085SOL     OW12289   4.725   3.758   3.016
 4085SOL    HW112290   4.662   3.686   2.985
 4085SOL    HW212291   4.818   3.722   3.016
 4086SOL     OW12292   4.494   5.054   2.163
 4086SOL    HW112293   4.448   4.967   2.180
 4086SOL    HW212294   4.585   5.051   2.204
 4087SOL     OW12295   3.763   4.801   2.162
 4087SOL    HW112296   3.862   4.790   2.153
 4087SOL    HW212297   3.723   4.715   2.194
 4088SOL     OW12298   3.954   4.352   3.837
 4088SOL    HW112299   3.861   4.350   3.874
 4088SOL    HW212300   3.955   4.313   3.745
 4089SOL     OW12301   3.949   3.999   4.720
 4089SOL    HW112302   3.984   3.982   4.812
 4089SOL    HW212303   3.861   3.954   4.708
 4090SOL     OW12304   3.743   4.092   4.371
 4090SOL    HW112305   3.661   4.135   4.410
 4090SOL    HW212306   3.715   4.019   4.308
 4091SOL     OW12307   4.859   4.427   4.441
 4091SOL    HW112308   4.916   4.505   4.416
 4091SOL    HW212309   4.799   4.453   4.517
 4092SOL     OW12310   4.492   4.868   4.747
 4092SOL    HW112311   4.414   4.885   4.807
 4092SOL    HW212312   4.526   4.955   4.711
 4093SOL     OW12313   4.409   4.736   4.389
 4093SOL    HW112314   4.478   4.720   4.459
 4093SOL    HW212315   4.336   4.793   4.427
 4094SOL     OW12316   4.059   5.159   4.785
 4094SOL    HW112317   3.981   5.128   4.732
 4094SOL    HW212318   4.117   5.217   4.728
 4095SOL     OW12319   3.964   4.815   4.610
 4095SOL    HW112320   3.978   4.731   4.662
 4095SOL    HW212321   3.909   4.879   4.665
 4096SOL     OW12322   4.330   4.688   3.847
 4096SOL    HW112323   4.337   4.772   3.793
 4096SOL    HW212324   4.376   4.701   3.935
 4097SOL     OW12325   3.846   4.367   4.287
 4097SOL    HW112326   3.801   4.279   4.304
 4097SOL    HW212327   3.845   4.421   4.371
 4098SOL     OW12328   3.837   4.461   5.321
 4098SOL    HW112329   3.925   4.448   5.366
 4098SOL    HW212330   3.824   4.558   5.299
 4099SOL     OW12331   4.533   3.728   4.226
 4099SOL    HW112332   4.573   3.819   4.217
 4099SOL    HW212333   4.433   3.736   4.232
 4100SOL     OW12334   3.921   4.700   4.988
 4100SOL    HW112335   4.010   4.655   4.974
 4100SOL    HW212336   3.848   4.635   4.969
 4101SOL     OW12337   4.322   4.453   3.994
 4101SOL    HW112338   4.346   4.522   3.926
 4101SOL    HW212339   4.244   4.486   4.048
 4102SOL     OW12340   5.005   4.069   4.668
 4102SOL    HW112341   4.919   4.019   4.655
 4102SOL    HW212342   5.067   4.015   4.724
 4103SOL     OW12343   4.715   4.134   4.966
 4103SOL    HW112344   4.638   4.168   5.020
 4103SOL    HW212345   4.681   4.083   4.887
 4104SOL     OW12346   4.765   4.425   4.153
 4104SOL    HW112347   4.791   4.421   4.249
 4104SOL    HW212348   4.680   4.374   4.139
 4105SOL     OW12349   3.800   4.535   4.513
 4105SOL    HW112350   3.899   4.523   4.522
 4105SOL    HW212351   3.776   4.630   4.534
 4106SOL     OW12352   4.589   4.072   3.919
 4106SOL    HW112353   4.648   4.135   3.870
 4106SOL    HW212354   4.608   3.978   3.890
 4107SOL     OW12355   4.274   3.920   4.609
 4107SOL    HW112356   4.269   3.915   4.709
 4107SOL    HW212357   4.276   4.016   4.580
 4108SOL     OW12358   4.045   4.667   3.966
 4108SOL    HW112359   4.127   4.706   3.924
 4108SOL    HW212360   4.018   4.585   3.917
 4109SOL     OW12361   4.106   4.424   4.204
 4109SOL    HW112362   4.151   4.334   4.201
 4109SOL    HW212363   4.012   4.413   4.237
 4110SOL     OW12364   4.338   3.846   3.841
 4110SOL    HW112365   4.436   3.824   3.848
 4110SOL    HW212366   4.307   3.829   3.748
 4111SOL     OW12367   4.527   5.126   4.648
 4111SOL    HW112368   4.617   5.140   4.606
 4111SOL    HW212369   4.456   5.128   4.577
 4112SOL     OW12370   4.646   4.227   4.623
 4112SOL    HW112371   4.621   4.218   4.527
 4112SOL    HW212372   4.694   4.145   4.654
 4113SOL     OW12373   4.263   3.788   4.236
 4113SOL    HW112374   4.182   3.789   4.294
 4113SOL    HW212375   4.266   3.871   4.181
 4114SOL     OW12376   5.158   4.912   3.765
 4114SOL    HW112377   5.190   4.836   3.822
 4114SOL    HW212378   5.066   4.939   3.795
 4115SOL     OW12379   4.021   3.759   3.895
 4115SOL    HW112380   4.070   3.843   3.874
 4115SOL    HW212381   4.083   3.694   3.940
 4116SOL     OW12382   4.659   3.960   4.204
 4116SOL    HW112383   4.611   4.001   4.126
 4116SOL    HW212384   4.758   3.958   4.185
 4117SOL     OW12385   4.183   4.876   4.465
 4117SOL    HW112386   4.112   4.849   4.530
 4117SOL    HW212387   4.157   4.848   4.372
 4118SOL     OW12388   4.756   4.273   3.740
 4118SOL    HW112389   4.715   4.355   3.701
 4118SOL    HW212390   4.820   4.299   3.813
 4119SOL     OW12391   4.285   3.946   4.871
 4119SOL    HW112392   4.323   3.862   4.908
 4119SOL    HW212393   4.197   3.965   4.915
 4120SOL     OW12394   4.590   4.178   4.366
 4120SOL    HW112395   4.558   4.250   4.304
 4120SOL    HW212396   4.614   4.097   4.313
 4121SOL     OW12397   4.741   3.763   4.477
 4121SOL    HW112398   4.669   3.768   4.408
 4121SOL    HW212399   4.717   3.694   4.546
 4122SOL     OW12400   4.251   3.980   4.052
 4122SOL    HW112401   4.278   3.921   3.977
 4122SOL    HW212402   4.251   4.075   4.021
 4123SOL     OW12403   4.429   4.774   4.092
 4123SOL    HW112404   4.415   4.781   4.191
 4123SOL    HW212405   4.513   4.723   4.074
 4124SOL     OW12406   4.134   4.537   4.975
 4124SOL    HW112407   4.220   4.549   5.025
 4124SOL    HW212408   4.092   4.450   5.002
 4125SOL     OW12409   4.091   4.824   4.225
 4125SOL    HW112410   4.084   4.907   4.169
 4125SOL    HW212411   4.095   4.744   4.165
 4126SOL     OW12412   4.290   4.261   4.589
 4126SOL    HW112413   4.302   4.327   4.515
 4126SOL    HW212414   4.336   4.295   4.672
 4127SOL     OW12415   4.976   5.072   4.112
 4127SOL    HW112416   5.026   5.149   4.152
 4127SOL    HW212417   4.881   5.074   4.144
 4128SOL     OW12418   4.297   4.594   4.753
 4128SOL    HW112419   4.341   4.683   4.744
 4128SOL    HW212420   4.234   4.594   4.830
 4129SOL     OW12421   5.084   4.586   4.769
 4129SOL    HW112422   5.009   4.586   4.703
 4129SOL    HW212423   5.121   4.494   4.778
 4130SOL     OW12424   4.933   4.249   3.999
 4130SOL    HW112425   4.946   4.165   4.053
 4130SOL    HW212426   4.904   4.323   4.059
 4131SOL     OW12427   4.031   3.937   4.955
 4131SOL    HW112428   4.008   3.974   5.045
 4131SOL    HW212429   4.001   3.842   4.949
 4132SOL     OW12430   4.456   4.358   4.788
 4132SOL    HW112431   4.515   4.332   4.712
 4132SOL    HW212432   4.428   4.454   4.777
 4133SOL     OW12433   4.031   3.787   4.342
 4133SOL    HW112434   4.020   3.881   4.375
 4133SOL    HW212435   4.026   3.724   4.419
 4134SOL     OW12436   5.346   4.091   4.098
 4134SOL    HW112437   5.348   4.015   4.162
 4134SOL    HW212438   5.298   4.168   4.138
 4135SOL     OW12439   4.747   4.490   4.690
 4135SOL    HW112440   4.762   4.511   4.786
 4135SOL    HW212441   4.717   4.395   4.681
 4136SOL     OW12442   5.264   3.998   3.849
 4136SOL    HW112443   5.203   3.923   3.872
 4136SOL    HW212444   5.286   4.050   3.932
 4137SOL     OW12445   4.043   4.534   4.673
 4137SOL    HW112446   4.136   4.570   4.678
 4137SOL    HW212447   4.037   4.449   4.725
 4138SOL     OW12448   4.063   4.233   4.730
 4138SOL    HW112449   4.011   4.150   4.713
 4138SOL    HW212450   4.140   4.238   4.666
 4139SOL     OW12451   4.884   3.931   5.201
 4139SOL    HW112452   4.884   3.995   5.278
 4139SOL    HW212453   4.912   3.979   5.118
 4140SOL     OW12454   3.732   5.050   3.924
 4140SOL    HW112455   3.639   5.071   3.893
 4140SOL    HW212456   3.742   4.951   3.937
 4141SOL     OW12457   4.726   4.520   4.962
 4141SOL    HW112458   4.767   4.488   5.048
 4141SOL    HW212459   4.630   4.493   4.959
 4142SOL     OW12460   3.764   4.268   4.838
 4142SOL    HW112461   3.849   4.235   4.797
 4142SOL    HW212462   3.777   4.283   4.936
 4143SOL     OW12463   4.539   4.296   4.049
 4143SOL    HW112464   4.546   4.207   4.003
 4143SOL    HW212465   4.445   4.330   4.041
 4144SOL     OW12466   4.395   4.188   4.993
 4144SOL    HW112467   4.361   4.099   4.963
 4144SOL    HW212468   4.421   4.242   4.913
 4145SOL     OW12469   4.197   4.224   3.915
 4145SOL    HW112470   4.258   4.304   3.919
 4145SOL    HW212471   4.102   4.255   3.922
 4146SOL     OW12472   5.071   4.783   4.958
 4146SOL    HW112473   5.095   4.720   4.884
 4146SOL    HW212474   4.981   4.823   4.940
 4147SOL     OW12475   3.807   4.982   4.746
 4147SOL    HW112476   3.802   4.981   4.846
 4147SOL    HW212477   3.724   4.941   4.708
 4148SOL     OW12478   3.987   4.050   4.444
 4148SOL    HW112479   3.908   4.101   4.410
 4148SOL    HW212480   3.978   4.035   4.542
 4149SOL     OW12481   4.546   4.726   5.096
 4149SOL    HW112482   4.586   4.725   5.004
 4149SOL    HW212483   4.556   4.818   5.136
 4150SOL     OW12484   4.640   4.634   4.015
 4150SOL    HW112485   4.703   4.672   3.947
 4150SOL    HW212486   4.680   4.551   4.054
 4151SOL     OW12487   4.763   4.822   4.420
 4151SOL    HW112488   4.693   4.775   4.474
 4151SOL    HW212489   4.822   4.754   4.377
 4152SOL     OW12490   4.738   3.960   4.695
 4152SOL    HW112491   4.730   3.924   4.602
 4152SOL    HW212492   4.736   3.884   4.760
 4153SOL     OW12493   3.799   4.069   3.757
 4153SOL    HW112494   3.707   4.041   3.728
 4153SOL    HW212495   3.830   4.146   3.701
 4154SOL     OW12496   3.796   3.890   4.042
 4154SOL    HW112497   3.779   3.973   3.988
 4154SOL    HW212498   3.886   3.853   4.020
 4155SOL     OW12499   4.318   4.469   4.376
 4155SOL    HW112500   4.368   4.554   4.357
 4155SOL    HW212501   4.230   4.471   4.328
 4156SOL     OW12502   4.583   4.680   4.585
 4156SOL    HW112503   4.637   4.611   4.633
 4156SOL    HW212504   4.551   4.749   4.651
 4157SOL     OW12505   4.807   4.708   3.811
 4157SOL    HW112506   4.784   4.761   3.729
 4157SOL    HW212507   4.888   4.652   3.792
 4158SOL     OW12508   3.803   4.964   4.377
 4158SOL    HW112509   3.802   4.917   4.465
 4158SOL    HW212510   3.885   4.936   4.326
 4159SOL     OW12511   4.152   4.148   4.244
 4159SOL    HW112512   4.182   4.076   4.182
 4159SOL    HW212513   4.113   4.108   4.327
 4160SOL     OW12514   4.725   3.758   4.878
 4160SOL    HW112515   4.662   3.686   4.847
 4160SOL    HW212516   4.818   3.722   4.878
 4161SOL     OW12517   4.494   5.054   4.025
 4161SOL    HW112518   4.448   4.967   4.042
 4161SOL    HW212519   4.585   5.051   4.066
 4162SOL     OW12520   3.763   4.801   4.024
 4162SOL    HW112521   3.862   4.790   4.015
 4162SOL    HW212522   3.723   4.715   4.056
   5.05274   5.05274   5.05274
