mobley_194273_GMX.gro created by acpype (v: 2023.10.27) on Wed May 20 23:48:23 2026
 27
    1  MOL   C1    1  -0.638  -0.426  -0.557
    1  MOL   C2    2  -0.533  -0.509  -0.549
    1  MOL   C3    3  -0.635  -0.298  -0.478
    1  MOL   C4    4  -0.416  -0.363  -0.394
    1  MOL   C5    5  -0.519  -0.641  -0.621
    1  MOL   C6    6  -0.630  -0.257  -0.115
    1  MOL   C7    7  -0.505  -0.028  -0.405
    1  MOL   C8    8  -0.626  -0.140  -0.212
    1  MOL   C9    9  -0.513  -0.153  -0.317
    1  MOL   N1   10  -0.426  -0.476  -0.470
    1  MOL   N2   11  -0.523  -0.276  -0.398
    1  MOL   O1   12  -0.728  -0.218  -0.487
    1  MOL   O2   13  -0.313  -0.347  -0.328
    1  MOL  BR1   14  -0.791  -0.457  -0.661
    1  MOL   H1   15  -0.430  -0.639  -0.685
    1  MOL   H2   16  -0.604  -0.666  -0.684
    1  MOL   H3   17  -0.507  -0.722  -0.549
    1  MOL   H4   18  -0.533  -0.269  -0.064
    1  MOL   H5   19  -0.706  -0.239  -0.038
    1  MOL   H6   20  -0.655  -0.350  -0.166
    1  MOL   H7   21  -0.597  -0.008  -0.459
    1  MOL   H8   22  -0.483   0.060  -0.344
    1  MOL   H9   23  -0.424  -0.038  -0.479
    1  MOL  H10   24  -0.724  -0.129  -0.259
    1  MOL  H11   25  -0.610  -0.048  -0.154
    1  MOL  H12   26  -0.420  -0.156  -0.260
    1  MOL  H13   27  -0.346  -0.538  -0.464
    9.55600    15.64800    12.94800
