%VERSION  VERSION_STAMP = V0001.000  DATE = 05/20/26  23:48:28                  
%FLAG TITLE                                                                     
%FORMAT(20a4)                                                                   
CUP08013_AM1BCC_v1_0                                                            
%FLAG POINTERS                                                                  
%FORMAT(10I8)                                                                   
      27       9      13      14      28      20      39      39       0       0
     139       1      14      20      39      13      23      18      11       0
       0       0       0       0       0       0       0       0      27       0
       0
%FLAG ATOM_NAME                                                                 
%FORMAT(20a4)                                                                   
C1  C2  C3  C4  C5  C6  C7  C8  C9  N1  N2  O1  O2  Br1 H1  H2  H3  H4  H5  H6  
H7  H8  H9  H10 H11 H12 H13 
%FLAG CHARGE                                                                    
%FORMAT(5E16.8)                                                                 
 -4.67401995E+00  2.50374402E+00  1.33332569E+01  1.47327296E+01 -1.56529557E+00
 -1.71471843E+00 -2.04271983E+00 -1.77485202E+00  2.01720861E+00 -8.49341403E+00
 -8.69932602E+00 -1.07784905E+01 -1.16349385E+01 -2.67867810E-01  1.34298351E+00
  1.34298351E+00  1.34298351E+00  6.50536110E-01  6.50536110E-01  6.50536110E-01
  9.36024884E-01  9.36024884E-01  9.36024884E-01  1.12431591E+00  1.12431591E+00
  1.59809571E+00  6.45980535E+00
%FLAG ATOMIC_NUMBER                                                             
%FORMAT(10I8)                                                                   
       6       6       6       6       6       6       6       6       6       7
       7       8       8      35       1       1       1       1       1       1
       1       1       1       1       1       1       1
%FLAG MASS                                                                      
%FORMAT(5E16.8)                                                                 
  1.20100000E+01  1.20100000E+01  1.20100000E+01  1.20100000E+01  1.20100000E+01
  1.20100000E+01  1.20100000E+01  1.20100000E+01  1.20100000E+01  1.40100000E+01
  1.40100000E+01  1.60000000E+01  1.60000000E+01  7.99000000E+01  1.00800000E+00
  1.00800000E+00  1.00800000E+00  1.00800000E+00  1.00800000E+00  1.00800000E+00
  1.00800000E+00  1.00800000E+00  1.00800000E+00  1.00800000E+00  1.00800000E+00
  1.00800000E+00  1.00800000E+00
%FLAG ATOM_TYPE_INDEX                                                           
%FORMAT(10I8)                                                                   
       1       1       1       1       2       2       2       2       2       3
       4       5       5       6       7       7       7       7       7       7
       7       7       7       7       7       8       9
%FLAG NUMBER_EXCLUDED_ATOMS                                                     
%FORMAT(10I8)                                                                   
      13      12      11      10       6      10       9      11      13       7
      10       1       1       1       2       1       1       4       3       2
       3       2       1       2       1       1       1
%FLAG NONBONDED_PARM_INDEX                                                      
%FORMAT(10I8)                                                                   
       1       2       4       7      11      16      22      29      37       2
       3       5       8      12      17      23      30      38       4       5
       6       9      13      18      24      31      39       7       8       9
      10      14      19      25      32      40      11      12      13      14
      15      20      26      33      41      16      17      18      19      20
      21      27      34      42      22      23      24      25      26      27
      28      35      43      29      30      31      32      33      34      35
      36      44      37      38      39      40      41      42      43      44
      45
%FLAG RESIDUE_LABEL                                                             
%FORMAT(20a4)                                                                   
MOL 
%FLAG RESIDUE_POINTER                                                           
%FORMAT(10I8)                                                                   
       1
%FLAG BOND_FORCE_CONSTANT                                                       
%FORMAT(5E16.8)                                                                 
  3.86240000E+02  2.81780000E+02  1.55280000E+02  2.53870000E+02  3.39860000E+02
  3.17460000E+02  5.90600000E+02  3.36070000E+02  3.45250000E+02  2.28890000E+02
  2.54460000E+02  3.44220000E+02  4.73590000E+02
%FLAG BOND_EQUIL_VALUE                                                          
%FORMAT(5E16.8)                                                                 
  1.37300000E+00  1.46870000E+00  1.88530000E+00  1.50180000E+00  1.37650000E+00
  1.39670000E+00  1.21900000E+00  1.37980000E+00  1.09620000E+00  1.53540000E+00
  1.46430000E+00  1.09690000E+00  1.01320000E+00
%FLAG ANGLE_FORCE_CONSTANT                                                      
%FORMAT(5E16.8)                                                                 
  6.00600000E+01  6.86400000E+01  6.80100000E+01  7.83600000E+01  6.22000000E+01
  6.10000000E+01  4.39500000E+01  7.81300000E+01  5.68600000E+01  6.23200000E+01
  7.71500000E+01  7.72400000E+01  5.73700000E+01  6.64600000E+01  5.98700000E+01
  4.32700000E+01  6.49500000E+01  4.32800000E+01  7.40500000E+01  8.72100000E+01
  8.66800000E+01  4.80900000E+01  3.58000000E+01
%FLAG ANGLE_EQUIL_VALUE                                                         
%FORMAT(5E16.8)                                                                 
  2.21098404E+00  2.10242452E+00  1.96681238E+00  2.16525640E+00  2.11743436E+00
  2.16647813E+00  1.93068405E+00  2.18829475E+00  2.09282520E+00  2.03296038E+00
  2.18532769E+00  2.07397564E+00  2.04657396E+00  2.03086599E+00  1.96576518E+00
  1.91427794E+00  1.96838317E+00  1.91270715E+00  1.99613392E+00  2.14762857E+00
  2.13925098E+00  1.89822091E+00  1.88024401E+00
%FLAG DIHEDRAL_FORCE_CONSTANT                                                   
%FORMAT(5E16.8)                                                                 
  0.00000000E+00  1.65000000E+00  2.50000000E+00  2.87500000E+00  8.72500000E-01
  4.00000000E+00  2.26000000E+00  3.00000000E-02  6.50000000E-01  0.00000000E+00
  5.20000000E-01  1.00000000E-01  1.55555556E-01  1.30000000E-01  2.00000000E+00
  1.20000000E-01  1.10000000E+00  1.05000000E+01
%FLAG DIHEDRAL_PERIODICITY                                                      
%FORMAT(5E16.8)                                                                 
  3.00000000E+00  2.00000000E+00  2.00000000E+00  2.00000000E+00  2.00000000E+00
  2.00000000E+00  1.00000000E+00  3.00000000E+00  4.00000000E+00  2.00000000E+00
  3.00000000E+00  3.00000000E+00  3.00000000E+00  3.00000000E+00  1.00000000E+00
  3.00000000E+00  2.00000000E+00  2.00000000E+00
%FLAG DIHEDRAL_PHASE                                                            
%FORMAT(5E16.8)                                                                 
  0.00000000E+00  3.14159400E+00  3.14159400E+00  3.14159400E+00  3.14159400E+00
  3.14159400E+00  0.00000000E+00  3.14159400E+00  3.14159400E+00  3.14159400E+00
  0.00000000E+00  0.00000000E+00  0.00000000E+00  0.00000000E+00  0.00000000E+00
  0.00000000E+00  3.14159400E+00  3.14159400E+00
%FLAG SCEE_SCALE_FACTOR                                                         
%FORMAT(5E16.8)                                                                 
  1.20000000E+00  1.20000000E+00  1.20000000E+00  1.20000000E+00  1.20000000E+00
  1.20000000E+00  1.20000000E+00  1.20000000E+00  1.20000000E+00  1.20000000E+00
  1.20000000E+00  1.20000000E+00  1.20000000E+00  1.20000000E+00  1.20000000E+00
  1.20000000E+00  0.00000000E+00  0.00000000E+00
%FLAG SCNB_SCALE_FACTOR                                                         
%FORMAT(5E16.8)                                                                 
  2.00000000E+00  2.00000000E+00  2.00000000E+00  2.00000000E+00  2.00000000E+00
  2.00000000E+00  2.00000000E+00  2.00000000E+00  2.00000000E+00  2.00000000E+00
  2.00000000E+00  2.00000000E+00  2.00000000E+00  2.00000000E+00  2.00000000E+00
  2.00000000E+00  0.00000000E+00  0.00000000E+00
%FLAG SOLTY                                                                     
%FORMAT(5E16.8)                                                                 
  0.00000000E+00  0.00000000E+00  0.00000000E+00  0.00000000E+00  0.00000000E+00
  0.00000000E+00  0.00000000E+00  0.00000000E+00  0.00000000E+00  0.00000000E+00
  0.00000000E+00
%FLAG LENNARD_JONES_ACOEF                                                       
%FORMAT(5E16.8)                                                                 
  6.96551276E+05  8.43969952E+05  1.02073671E+06  6.99381362E+05  8.48258258E+05
  7.01825028E+05  7.01106848E+05  8.52084164E+05  7.02755693E+05  7.02078680E+05
  5.17507491E+05  6.30925504E+05  5.17814271E+05  5.15491878E+05  3.76435470E+05
  2.35252551E+06  2.83242404E+06  2.37045960E+06  2.39326074E+06  1.78599120E+06
  7.77148140E+06  8.12662403E+04  1.00235148E+05  8.07866982E+04  7.93773615E+04
  5.68021765E+04  2.92053806E+05  7.94617769E+03  5.63013422E+04  6.97998263E+04
  5.58085097E+04  5.45183252E+04  3.86646725E+04  2.05974300E+05  5.22955465E+03
  3.39005767E+03  1.71458823E+03  2.23577481E+03  1.65195713E+03  1.52360475E+03
  9.87857350E+02  7.46975714E+03  9.47421632E+01  5.24570081E+01  1.34728399E-01
%FLAG LENNARD_JONES_BCOEF                                                       
%FORMAT(5E16.8)                                                                 
  5.24668528E+02  5.90251928E+02  6.63431737E+02  5.48900066E+02  6.17825399E+02
  5.74088001E+02  5.97113873E+02  6.72777963E+02  6.24158704E+02  6.77820248E+02
  4.98871431E+02  5.62969425E+02  5.21008860E+02  5.64804067E+02  4.69350655E+02
  1.36188294E+03  1.52727485E+03  1.42730464E+03  1.55820361E+03  1.30898332E+03
  3.49613872E+03  1.21392023E+02  1.37787728E+02  1.26366740E+02  1.36094315E+02
  1.11953944E+02  3.25035384E+02  2.57122925E+01  1.01040256E+02  1.14981426E+02
  1.05029928E+02  1.12788003E+02  9.23664132E+01  2.72964220E+02  2.08590256E+01
  1.67944276E+01  1.46824710E+01  1.71355763E+01  1.50468782E+01  1.57004457E+01
  1.22938581E+01  4.32849195E+01  2.33785449E+00  1.73959275E+00  7.34107347E-02
%FLAG BONDS_INC_HYDROGEN                                                        
%FORMAT(10I8)                                                                   
      12      42       9      12      45       9      12      48       9      15
      51       9      15      54       9      15      57       9      18      60
       9      18      63       9      18      66       9      21      69       9
      21      72       9      24      75      12      27      78      13
%FLAG BONDS_WITHOUT_HYDROGEN                                                    
%FORMAT(10I8)                                                                   
       0       3       1       0       6       2       0      39       3       3
      12       4       3      27       5       6      30       6       6      33
       7       9      27       8       9      30       6       9      36       7
      15      21      10      18      24      10      21      24      10      24
      30      11
%FLAG ANGLES_INC_HYDROGEN                                                       
%FORMAT(10I8)                                                                   
       3      12      42       7       3      12      45       7       3      12
      48       7       3      27      78       9       9      27      78      13
      15      21      69      16      15      21      72      16      18      24
      75      18      21      15      51      16      21      15      54      16
      21      15      57      16      21      24      75      18      24      18
      60      16      24      18      63      16      24      18      66      16
      24      21      69      16      24      21      72      16      30      24
      75      22      42      12      45      23      42      12      48      23
      45      12      48      23      51      15      54      23      51      15
      57      23      54      15      57      23      60      18      63      23
      60      18      66      23      63      18      66      23      69      21
      72      23
%FLAG ANGLES_WITHOUT_HYDROGEN                                                   
%FORMAT(10I8)                                                                   
       0       3      12       1       0       3      27       2       0       6
      30       3       0       6      33       4       3       0       6       5
       3       0      39       6       3      27       9       8       6       0
      39      10       6      30       9      11       6      30      24      12
       9      30      24      12      12       3      27      14      15      21
      24      15      18      24      21      15      18      24      30      17
      21      24      30      17      27       9      30      19      27       9
      36      20      30       6      33      21      30       9      36      21
%FLAG DIHEDRALS_INC_HYDROGEN                                                    
%FORMAT(10I8)                                                                   
       0       3      12      42       1       0       3      12      45       1
       0       3      12      48       1       0       3      27      78       2
       6      30      24      75      10       9      30      24      75      10
      12       3      27      78       2      15      21      24      75      13
      18      24      21      69      14      18      24      21      72      14
      21      24      18      60      14      21      24      18      63      14
      21      24      18      66      14      24      21      15      51      14
      24      21      15      54      14      24      21      15      57      14
      27       3      12      42       1      27       3      12      45       1
      27       3      12      48       1      30       9      27      78       3
      30      24      18      60      13      30      24      18      63      13
      30      24      18      66      13      30      24      21      69      13
      30      24      21      72      13      36       9      27      78      15
      36       9     -27      78       3      51      15      21      69      16
      51      15      21      72      16      54      15      21      69      16
      54      15      21      72      16      57      15      21      69      16
      57      15      21      72      16      60      18      24      75      13
      63      18      24      75      13      66      18      24      75      13
      69      21      24      75      13      72      21      24      75      13
       9       3     -27     -78      17
%FLAG DIHEDRALS_WITHOUT_HYDROGEN                                                
%FORMAT(10I8)                                                                   
       0       3      27       9       2       0       6     -30       9       3
       0       6      30      24       3       3       0       6      30       4
       3       0       6      33       4       3      27      -9      30       5
       3      27       9      36       3       6       0       3      12       6
       6       0       3      27       6       6      30      -9      27       3
       6      30       9      36       3       6      30      24      18       7
       6      30     -24      18       8       6      30     -24      18       9
       6      30      24      21       7       6      30     -24      21       8
       6      30     -24      21       9       9      27       3      12       2
       9      30       6      33       3       9      30      24      18       7
       9      30     -24      18       8       9      30     -24      18       9
       9      30      24      21       7       9      30     -24      21       8
       9      30     -24      21       9      39       0       3      12       6
      15      21      24      18      11      15      21      24      30      12
      24      30       6      33       3      24      30       9      27       3
      24      30       9      36       3      39       0       3      27       6
      39       0       6      30       4      39       0       6      33       4
       3       0      -6     -39      17      12       0      -3     -27      17
       0      30      -6     -33      18      30      27      -9     -36      18
       6       9     -30     -24      17
%FLAG EXCLUDED_ATOMS_LIST                                                       
%FORMAT(10I8)                                                                   
       2       3       4       5       9      10      11      12      14      15
      16      17      27       3       4       5      10      11      12      13
      14      15      16      17      27       4       5       7       8       9
      10      11      12      13      14      26       5       7       8       9
      10      11      12      13      26      27      10      14      15      16
      17      27       7       8       9      11      18      19      20      24
      25      26       8       9      11      21      22      23      24      25
      26       9      11      18      19      20      21      22      23      24
      25      26      10      11      12      13      18      19      20      21
      22      23      24      25      26      11      13      14      15      16
      17      27      12      13      14      21      22      23      24      25
      26      27      14      27       0      16      17      17       0      19
      20      24      25      20      24      25      24      25      22      23
      26      23      26      26      25      26      26       0       0
%FLAG HBOND_ACOEF                                                               
%FORMAT(5E16.8)                                                                 

%FLAG HBOND_BCOEF                                                               
%FORMAT(5E16.8)                                                                 

%FLAG HBCUT                                                                     
%FORMAT(5E16.8)                                                                 

%FLAG AMBER_ATOM_TYPE                                                           
%FORMAT(20a4)                                                                   
cc  cd  c   c   c3  c3  c3  c3  c3  ns  n   o   o   br  hc  hc  hc  hc  hc  hc  
hc  hc  hc  hc  hc  h1  hn  
%FLAG TREE_CHAIN_CLASSIFICATION                                                 
%FORMAT(20a4)                                                                   
BLA BLA BLA BLA BLA BLA BLA BLA BLA BLA BLA BLA BLA BLA BLA BLA BLA BLA BLA BLA 
BLA BLA BLA BLA BLA BLA BLA 
%FLAG JOIN_ARRAY                                                                
%FORMAT(10I8)                                                                   
       0       0       0       0       0       0       0       0       0       0
       0       0       0       0       0       0       0       0       0       0
       0       0       0       0       0       0       0
%FLAG IROTAT                                                                    
%FORMAT(10I8)                                                                   
       0       0       0       0       0       0       0       0       0       0
       0       0       0       0       0       0       0       0       0       0
       0       0       0       0       0       0       0
%FLAG RADIUS_SET                                                                
%FORMAT(1a80)                                                                   
modified Bondi radii (mbondi)                                                   
%FLAG RADII                                                                     
%FORMAT(5E16.8)                                                                 
  1.70000000E+00  1.70000000E+00  1.70000000E+00  1.70000000E+00  1.70000000E+00
  1.70000000E+00  1.70000000E+00  1.70000000E+00  1.70000000E+00  1.55000000E+00
  1.55000000E+00  1.50000000E+00  1.50000000E+00  1.50000000E+00  1.30000000E+00
  1.30000000E+00  1.30000000E+00  1.30000000E+00  1.30000000E+00  1.30000000E+00
  1.30000000E+00  1.30000000E+00  1.30000000E+00  1.30000000E+00  1.30000000E+00
  1.30000000E+00  1.30000000E+00
%FLAG SCREEN                                                                    
%FORMAT(5E16.8)                                                                 
  7.20000000E-01  7.20000000E-01  7.20000000E-01  7.20000000E-01  7.20000000E-01
  7.20000000E-01  7.20000000E-01  7.20000000E-01  7.20000000E-01  7.90000000E-01
  7.90000000E-01  8.50000000E-01  8.50000000E-01  8.00000000E-01  8.50000000E-01
  8.50000000E-01  8.50000000E-01  8.50000000E-01  8.50000000E-01  8.50000000E-01
  8.50000000E-01  8.50000000E-01  8.50000000E-01  8.50000000E-01  8.50000000E-01
  8.50000000E-01  8.50000000E-01
%FLAG IPOL                                                                      
%FORMAT(1I8)                                                                    
       0
