; mobley_194273_GMX_OPLS.top created by acpype (v: 2023.10.27) on Wed May 20 23:48:23 2026

; Include forcefield parameters
#include "ffoplsaa.itp"

; Include mobley_194273_GMX.itp topology
#include "mobley_194273_GMX.itp"

; Ligand position restraints
#ifdef POSRES_LIG
#include "posre_mobley_194273.itp"
#endif

[ system ]
 mobley_194273

[ molecules ]
; Compound        nmols
 mobley_194273    1     
