CUP08013_AM1BCC_v1_0
    27
  -6.3830000  -4.2600000  -5.5710000  -5.3320000  -5.0930000  -5.4920000
  -6.3450000  -2.9820000  -4.7810000  -4.1550000  -3.6350000  -3.9390000
  -5.1880000  -6.4070000  -6.2110000  -6.2980000  -2.5680000  -1.1470000
  -5.0450000  -0.2790000  -4.0480000  -6.2580000  -1.3960000  -2.1190000
  -5.1350000  -1.5310000  -3.1690000  -4.2640000  -4.7630000  -4.6990000
  -5.2280000  -2.7620000  -3.9790000  -7.2790000  -2.1840000  -4.8650000
  -3.1310000  -3.4690000  -3.2780000  -7.9090000  -4.5740000  -6.6100000
  -4.3000000  -6.3880000  -6.8540000  -6.0400000  -6.6620000  -6.8450000
  -5.0660000  -7.2200000  -5.4870000  -5.3340000  -2.6940000  -0.6440000
  -7.0590000  -2.3930000  -0.3800000  -6.5470000  -3.5030000  -1.6580000
  -5.9740000  -0.0830000  -4.5910000  -4.8290000   0.6040000  -3.4370000
  -4.2420000  -0.3820000  -4.7860000  -7.2390000  -1.2910000  -2.5920000
  -6.0960000  -0.4760000  -1.5430000  -4.1960000  -1.5600000  -2.6030000
  -3.4620000  -5.3820000  -4.6390000
