mobley_8723116_GMX.gro created by acpype (v: 2023.10.27) on Wed May 20 23:43:51 2026
   14
    1MOL     C1    1   2.218   2.381   2.295
    1MOL     C2    2   2.430   2.265   2.301
    1MOL     C3    3   2.216   2.384   2.435
    1MOL     C4    4   2.428   2.268   2.440
    1MOL     C5    5   2.325   2.322   2.228
    1MOL     C6    6   2.321   2.328   2.507
    1MOL     N1    7   2.327   2.318   2.088
    1MOL    CL1    8   2.319   2.332   2.679
    1MOL     H1    9   2.135   2.425   2.240
    1MOL     H2   10   2.514   2.219   2.250
    1MOL     H3   11   2.132   2.431   2.486
    1MOL     H4   12   2.510   2.224   2.496
    1MOL     H5   13   2.253   2.364   2.037
    1MOL     H6   14   2.396   2.263   2.041
   4.64632   4.64632   4.64632
