mobley_6303022_GMX.gro created by acpype (v: 2023.10.27) on Wed May 20 23:46:03 2026
 17
    1  MOL   C1    1   0.018  -0.035   0.101
    1  MOL   C2    2   0.153  -0.041   0.300
    1  MOL   C3    3  -0.070  -0.120   0.165
    1  MOL   C4    4   0.058  -0.126   0.355
    1  MOL   C5    5   0.132   0.005   0.171
    1  MOL   C6    6   0.340   0.022   0.032
    1  MOL   C7    7   0.231   0.097   0.107
    1  MOL   N1    8  -0.053  -0.167   0.290
    1  MOL   H1    9  -0.001  -0.001  -0.000
    1  MOL   H2   10   0.240  -0.011   0.358
    1  MOL   H3   11  -0.160  -0.154   0.115
    1  MOL   H4   12   0.070  -0.164   0.456
    1  MOL   H5   13   0.395  -0.045   0.099
    1  MOL   H6   14   0.410   0.091  -0.014
    1  MOL   H7   15   0.296  -0.040  -0.048
    1  MOL   H8   16   0.180   0.166   0.038
    1  MOL   H9   17   0.278   0.162   0.183
   11.41400     6.65600    10.08000
