; mobley_6303022_GMX_OPLS.top created by acpype (v: 2023.10.27) on Wed May 20 23:46:03 2026

; Include forcefield parameters
#include "ffoplsaa.itp"

; Include mobley_6303022_GMX.itp topology
#include "mobley_6303022_GMX.itp"

; Ligand position restraints
#ifdef POSRES_LIG
#include "posre_mobley_6303022.itp"
#endif

[ system ]
 mobley_6303022

[ molecules ]
; Compound        nmols
 mobley_6303022   1     
