4_ethylpyridine
    17
   0.1830000  -0.3460000   1.0110000   1.5260000  -0.4070000   3.0050000
  -0.7040000  -1.2000000   1.6470000   0.5790000  -1.2580000   3.5520000
   1.3170000   0.0530000   1.7100000   3.3950000   0.2160000   0.3160000
   2.3050000   0.9710000   1.0730000  -0.5340000  -1.6670000   2.9040000
  -0.0080000  -0.0050000  -0.0010000   2.4010000  -0.1140000   3.5760000
  -1.6030000  -1.5410000   1.1450000   0.6960000  -1.6440000   4.5590000
   3.9540000  -0.4450000   0.9870000   4.1040000   0.9140000  -0.1410000
   2.9650000  -0.4010000  -0.4810000   1.7970000   1.6610000   0.3790000
   2.7760000   1.6160000   1.8320000
