mobley_7200804_GMX.gro created by acpype (v: 2023.10.27) on Thu May 21 00:01:19 2026
 9352
    1MOL     C1    1   2.267   2.286   2.121
    1MOL     C2    2   2.160   2.346   2.188
    1MOL     C3    3   2.372   2.230   2.193
    1MOL     C4    4   2.158   2.349   2.328
    1MOL     C5    5   2.370   2.233   2.333
    1MOL     C6    6   2.263   2.292   2.400
    1MOL     O1    7   2.472   2.177   2.403
    1MOL     F1    8   2.261   2.296   2.534
    1MOL     H1    9   2.268   2.284   2.012
    1MOL     H2   10   2.078   2.390   2.132
    1MOL     H3   11   2.454   2.183   2.141
    1MOL     H4   12   2.075   2.395   2.380
    1MOL     H5   13   2.463   2.201   2.497
    2SOL     OW   14   0.230   0.628   0.113
    2SOL    HW1   15   0.137   0.626   0.150
    2SOL    HW2   16   0.231   0.589   0.021
    3SOL     OW   17   0.225   0.275   0.996
    3SOL    HW1   18   0.260   0.258   1.088
    3SOL    HW2   19   0.137   0.230   0.984
    4SOL     OW   20   0.019   0.368   0.647
    4SOL    HW1   21  -0.063   0.411   0.686
    4SOL    HW2   22  -0.009   0.295   0.584
    5SOL     OW   23   0.569   1.275   1.165
    5SOL    HW1   24   0.476   1.268   1.128
    5SOL    HW2   25   0.580   1.364   1.209
    6SOL     OW   26   1.555   1.511   0.703
    6SOL    HW1   27   1.498   1.495   0.784
    6SOL    HW2   28   1.496   1.521   0.623
    7SOL     OW   29   1.135   0.703   0.717
    7SOL    HW1   30   1.192   0.781   0.692
    7SOL    HW2   31   1.075   0.729   0.793
    8SOL     OW   32   1.755   0.607   0.231
    8SOL    HW1   33   1.743   0.594   0.132
    8SOL    HW2   34   1.725   0.526   0.280
    9SOL     OW   35   0.768   1.144   1.023
    9SOL    HW1   36   0.690   1.161   1.083
    9SOL    HW2   37   0.802   1.231   0.987
   10SOL     OW   38   0.850   0.798   1.823
   10SOL    HW1   39   0.846   0.874   1.888
   10SOL    HW2   40   0.872   0.834   1.732
   11SOL     OW   41   0.685   1.012   0.665
   11SOL    HW1   42   0.754   0.996   0.735
   11SOL    HW2   43   0.612   1.069   0.703
   12SOL     OW   44   0.686   1.161   1.803
   12SOL    HW1   45   0.746   1.240   1.817
   12SOL    HW2   46   0.600   1.192   1.762
   13SOL     OW   47   0.335   1.435   1.061
   13SOL    HW1   48   0.257   1.404   1.008
   13SOL    HW2   49   0.393   1.493   1.004
   14SOL     OW   50   1.460   1.505   1.339
   14SOL    HW1   51   1.484   1.599   1.365
   14SOL    HW2   52   1.444   1.451   1.421
   15SOL     OW   53   0.438   0.392   1.499
   15SOL    HW1   54   0.520   0.336   1.508
   15SOL    HW2   55   0.357   0.334   1.503
   16SOL     OW   56   1.603   0.447   0.737
   16SOL    HW1   57   1.529   0.493   0.687
   16SOL    HW2   58   1.654   0.515   0.790
   17SOL     OW   59   0.231   1.713   0.483
   17SOL    HW1   60   0.265   1.790   0.537
   17SOL    HW2   61   0.275   1.713   0.393
   18SOL     OW   62   1.127   1.341   1.690
   18SOL    HW1   63   1.174   1.341   1.778
   18SOL    HW2   64   1.079   1.254   1.679
   19SOL     OW   65   0.230   1.434   0.538
   19SOL    HW1   66   0.204   1.530   0.538
   19SOL    HW2   67   0.159   1.380   0.583
   20SOL     OW   68   0.240   1.091   0.886
   20SOL    HW1   69   0.254   1.007   0.938
   20SOL    HW2   70   0.185   1.155   0.941
   21SOL     OW   71   0.620   1.786   1.439
   21SOL    HW1   72   0.528   1.769   1.474
   21SOL    HW2   73   0.648   1.878   1.465
   22SOL     OW   74   0.606   0.964   0.123
   22SOL    HW1   75   0.613   1.048   0.069
   22SOL    HW2   76   0.652   0.977   0.211
   23SOL     OW   77   1.594   0.114   1.480
   23SOL    HW1   78   1.576   0.181   1.408
   23SOL    HW2   79   1.591   0.160   1.569
   24SOL     OW   80   0.122   0.643   0.563
   24SOL    HW1   81   0.077   0.555   0.580
   24SOL    HW2   82   0.121   0.697   0.647
   25SOL     OW   83   1.842   1.767   0.359
   25SOL    HW1   84   1.896   1.738   0.439
   25SOL    HW2   85   1.872   1.857   0.330
   26SOL     OW   86   0.027   1.596   0.117
   26SOL    HW1   87   0.008   1.500   0.138
   26SOL    HW2   88  -0.006   1.654   0.192
   27SOL     OW   89   1.689   0.922   0.612
   27SOL    HW1   90   1.784   0.893   0.620
   27SOL    HW2   91   1.681   0.987   0.537
   28SOL     OW   92   1.641   1.108   0.432
   28SOL    HW1   93   1.727   1.110   0.380
   28SOL    HW2   94   1.655   1.155   0.520
   29SOL     OW   95   0.113   0.737   1.597
   29SOL    HW1   96   0.201   0.724   1.642
   29SOL    HW2   97   0.100   0.834   1.575
   30SOL     OW   98   0.613   1.365   0.726
   30SOL    HW1   99   0.564   1.278   0.735
   30SOL    HW2  100   0.590   1.408   0.639
   31SOL     OW  101   1.293   1.228   1.423
   31SOL    HW1  102   1.330   1.155   1.365
   31SOL    HW2  103   1.345   1.233   1.508
   32SOL     OW  104   0.809   0.004   0.502
   32SOL    HW1  105   0.849   0.095   0.493
   32SOL    HW2  106   0.709   0.012   0.508
   33SOL     OW  107   0.197   0.976   1.264
   33SOL    HW1  108   0.286   0.931   1.250
   33SOL    HW2  109   0.124   0.911   1.245
   34SOL     OW  110   1.525   0.999   0.190
   34SOL    HW1  111   1.462   0.923   0.203
   34SOL    HW2  112   1.573   1.017   0.276
   35SOL     OW  113   1.187   1.792   1.616
   35SOL    HW1  114   1.211   1.852   1.540
   35SOL    HW2  115   1.194   1.697   1.586
   36SOL     OW  116   0.317   0.251   1.801
   36SOL    HW1  117   0.388   0.322   1.807
   36SOL    HW2  118   0.229   0.290   1.829
   37SOL     OW  119   1.466   1.417   0.953
   37SOL    HW1  120   1.407   1.423   1.033
   37SOL    HW2  121   1.451   1.329   0.907
   38SOL     OW  122   1.667   1.714   0.572
   38SOL    HW1  123   1.626   1.691   0.484
   38SOL    HW2  124   1.649   1.640   0.637
   39SOL     OW  125   0.598   0.729   0.270
   39SOL    HW1  126   0.622   0.798   0.202
   39SOL    HW2  127   0.520   0.762   0.324
   40SOL     OW  128   1.281   0.345   0.944
   40SOL    HW1  129   1.195   0.295   0.931
   40SOL    HW2  130   1.343   0.291   1.000
   41SOL     OW  131   1.576   1.662   0.307
   41SOL    HW1  132   1.665   1.708   0.310
   41SOL    HW2  133   1.555   1.638   0.212
   42SOL     OW  134   0.807   0.605   1.465
   42SOL    HW1  135   0.760   0.602   1.554
   42SOL    HW2  136   0.756   0.550   1.399
   43SOL     OW  137   1.394   0.469   1.674
   43SOL    HW1  138   1.374   0.512   1.762
   43SOL    HW2  139   1.472   0.407   1.683
   44SOL     OW  140   0.973   0.890   1.572
   44SOL    HW1  141   1.019   0.806   1.543
   44SOL    HW2  142   0.917   0.924   1.497
   45SOL     OW  143   0.991   0.410   1.242
   45SOL    HW1  144   0.914   0.444   1.296
   45SOL    HW2  145   0.957   0.359   1.163
   46SOL     OW  146   1.041   0.701   0.429
   46SOL    HW1  147   1.067   0.697   0.525
   46SOL    HW2  148   0.956   0.650   0.415
   47SOL     OW  149   0.076   0.811   0.789
   47SOL    HW1  150   0.175   0.799   0.798
   47SOL    HW2  151   0.052   0.906   0.810
   48SOL     OW  152   0.130   1.821   1.571
   48SOL    HW1  153   0.120   1.806   1.670
   48SOL    HW2  154   0.044   1.857   1.535
   49SOL     OW  155   0.865   0.348   0.195
   49SOL    HW1  156   0.924   0.411   0.146
   49SOL    HW2  157   0.884   0.254   0.166
   50SOL     OW  158   1.719   0.585   1.831
   50SOL    HW1  159   1.693   0.674   1.795
   50SOL    HW2  160   1.717   0.517   1.758
   51SOL     OW  161   1.362   1.144   0.545
   51SOL    HW1  162   1.445   1.115   0.497
   51SOL    HW2  163   1.313   1.211   0.489
   52SOL     OW  164   0.550   0.196   0.885
   52SOL    HW1  165   0.545   0.191   0.985
   52SOL    HW2  166   0.552   0.292   0.856
   53SOL     OW  167   1.008   1.456   0.477
   53SOL    HW1  168   0.962   1.528   0.425
   53SOL    HW2  169   1.004   1.476   0.575
   54SOL     OW  170   0.351   1.801   0.853
   54SOL    HW1  171   0.401   1.715   0.859
   54SOL    HW2  172   0.416   1.878   0.850
   55SOL     OW  173   1.795   1.066   0.873
   55SOL    HW1  174   1.733   1.051   0.797
   55SOL    HW2  175   1.743   1.077   0.958
   56SOL     OW  176   1.227   1.550   1.506
   56SOL    HW1  177   1.233   1.473   1.570
   56SOL    HW2  178   1.175   1.524   1.426
   57SOL     OW  179   0.321   0.943   0.242
   57SOL    HW1  180   0.403   0.982   0.200
   57SOL    HW2  181   0.294   0.861   0.193
   58SOL     OW  182   1.458   0.735   0.728
   58SOL    HW1  183   1.453   0.670   0.803
   58SOL    HW2  184   1.538   0.794   0.741
   59SOL     OW  185   0.461   1.266   1.727
   59SOL    HW1  186   0.411   1.267   1.641
   59SOL    HW2  187   0.398   1.248   1.803
   60SOL     OW  188   1.111   1.776   0.237
   60SOL    HW1  189   1.051   1.714   0.287
   60SOL    HW2  190   1.142   1.732   0.152
   61SOL     OW  191   0.202   0.285   1.498
   61SOL    HW1  192   0.122   0.345   1.485
   61SOL    HW2  193   0.192   0.236   1.584
   62SOL     OW  194   1.632   1.377   0.081
   62SOL    HW1  195   1.600   1.471   0.071
   62SOL    HW2  196   1.556   1.314   0.069
   63SOL     OW  197   0.464   1.743   0.323
   63SOL    HW1  198   0.497   1.782   0.409
   63SOL    HW2  199   0.540   1.736   0.258
   64SOL     OW  200   1.400   0.107   0.426
   64SOL    HW1  201   1.376   0.070   0.336
   64SOL    HW2  202   1.499   0.123   0.430
   65SOL     OW  203   0.249   1.785   1.241
   65SOL    HW1  204   0.306   1.720   1.291
   65SOL    HW2  205   0.233   1.752   1.148
   66SOL     OW  206   0.940   1.698   0.904
   66SOL    HW1  207   1.020   1.641   0.925
   66SOL    HW2  208   0.891   1.658   0.827
   67SOL     OW  209   0.382   0.700   0.480
   67SOL    HW1  210   0.427   0.610   0.477
   67SOL    HW2  211   0.288   0.689   0.513
   68SOL     OW  212   1.547   0.222   1.729
   68SOL    HW1  213   1.542   0.259   1.821
   68SOL    HW2  214   1.475   0.153   1.717
   69SOL     OW  215   0.614   0.122   0.117
   69SOL    HW1  216   0.712   0.100   0.124
   69SOL    HW2  217   0.583   0.105   0.024
   70SOL     OW  218   0.781   0.264   1.749
   70SOL    HW1  219   0.848   0.203   1.792
   70SOL    HW2  220   0.708   0.283   1.814
   71SOL     OW  221   0.888   1.514   1.195
   71SOL    HW1  222   0.865   1.489   1.101
   71SOL    HW2  223   0.949   1.445   1.234
   72SOL     OW  224   1.351   0.590   1.433
   72SOL    HW1  225   1.379   0.547   1.518
   72SOL    HW2  226   1.376   0.686   1.434
   73SOL     OW  227   0.803   1.402   0.924
   73SOL    HW1  228   0.893   1.416   0.882
   73SOL    HW2  229   0.732   1.404   0.853
   74SOL     OW  230   0.922   0.503   0.899
   74SOL    HW1  231   0.897   0.494   0.803
   74SOL    HW2  232   0.970   0.421   0.930
   75SOL     OW  233   0.539   0.064   0.512
   75SOL    HW1  234   0.458   0.065   0.570
   75SOL    HW2  235   0.542   0.147   0.457
   76SOL     OW  236   1.434   1.188   0.041
   76SOL    HW1  237   1.466   1.112   0.098
   76SOL    HW2  238   1.342   1.215   0.071
   77SOL     OW  239   0.297   0.035   0.171
   77SOL    HW1  240   0.346   0.119   0.150
   77SOL    HW2  241   0.359  -0.030   0.216
   78SOL     OW  242   0.935   0.236   0.480
   78SOL    HW1  243   0.887   0.277   0.402
   78SOL    HW2  244   1.034   0.234   0.461
   79SOL     OW  245   1.076   0.683   1.464
   79SOL    HW1  246   0.996   0.622   1.467
   79SOL    HW2  247   1.157   0.630   1.440
   80SOL     OW  248   1.227   1.570   0.793
   80SOL    HW1  249   1.248   1.644   0.728
   80SOL    HW2  250   1.295   1.570   0.866
   81SOL     OW  251   0.459   1.152   0.741
   81SOL    HW1  252   0.388   1.125   0.806
   81SOL    HW2  253   0.433   1.124   0.648
   82SOL     OW  254   1.271   1.797   0.591
   82SOL    HW1  255   1.315   1.861   0.527
   82SOL    HW2  256   1.221   1.849   0.661
   83SOL     OW  257   1.032   0.549   0.016
   83SOL    HW1  258   0.991   0.631  -0.023
   83SOL    HW2  259   1.096   0.575   0.089
   84SOL     OW  260   0.078   0.556   1.386
   84SOL    HW1  261   0.170   0.555   1.345
   84SOL    HW2  262   0.072   0.630   1.453
   85SOL     OW  263   0.561   0.222   1.147
   85SOL    HW1  264   0.599   0.138   1.184
   85SOL    HW2  265   0.473   0.241   1.191
   86SOL     OW  266   0.866   0.454   0.642
   86SOL    HW1  267   0.834   0.526   0.580
   86SOL    HW2  268   0.890   0.373   0.589
   87SOL     OW  269   1.017   0.039   0.753
   87SOL    HW1  270   0.945   0.044   0.684
   87SOL    HW2  271   0.993  -0.030   0.822
   88SOL     OW  272   1.429   1.173   0.867
   88SOL    HW1  273   1.374   1.089   0.860
   88SOL    HW2  274   1.455   1.202   0.775
   89SOL     OW  275   1.466   0.590   0.992
   89SOL    HW1  276   1.436   0.495   0.999
   89SOL    HW2  277   1.539   0.606   1.058
   90SOL     OW  278   1.857   0.833   0.377
   90SOL    HW1  279   1.899   0.769   0.441
   90SOL    HW2  280   1.819   0.782   0.299
   91SOL     OW  281   0.488   1.385   0.174
   91SOL    HW1  282   0.401   1.370   0.221
   91SOL    HW2  283   0.471   1.411   0.079
   92SOL     OW  284   1.664   1.280   0.657
   92SOL    HW1  285   1.763   1.288   0.671
   92SOL    HW2  286   1.619   1.364   0.688
   93SOL     OW  287   1.390   0.575   0.078
   93SOL    HW1  288   1.336   0.554   0.159
   93SOL    HW2  289   1.481   0.534   0.087
   94SOL     OW  290   0.527   0.256   0.328
   94SOL    HW1  291   0.554   0.197   0.253
   94SOL    HW2  292   0.527   0.351   0.297
   95SOL     OW  293   1.754   1.223   1.588
   95SOL    HW1  294   1.845   1.184   1.575
   95SOL    HW2  295   1.762   1.319   1.612
   96SOL     OW  296   1.064   1.347   1.340
   96SOL    HW1  297   0.984   1.324   1.395
   96SOL    HW2  298   1.147   1.321   1.389
   97SOL     OW  299   1.592   1.629   1.625
   97SOL    HW1  300   1.619   1.663   1.535
   97SOL    HW2  301   1.671   1.591   1.671
   98SOL     OW  302   1.111   1.195   1.100
   98SOL    HW1  303   1.071   1.239   1.181
   98SOL    HW2  304   1.070   1.232   1.017
   99SOL     OW  305   1.638   1.099   1.079
   99SOL    HW1  306   1.643   1.180   1.138
   99SOL    HW2  307   1.552   1.101   1.028
  100SOL     OW  308   0.915   0.089   1.402
  100SOL    HW1  309   0.940   0.069   1.307
  100SOL    HW2  310   0.987   0.145   1.444
  101SOL     OW  311   0.980   1.116   1.719
  101SOL    HW1  312   0.881   1.122   1.729
  101SOL    HW2  313   1.003   1.036   1.663
  102SOL     OW  314   0.705   1.050   0.368
  102SOL    HW1  315   0.691   1.057   0.467
  102SOL    HW2  316   0.789   0.999   0.350
  103SOL     OW  317   0.410   0.813   1.251
  103SOL    HW1  318   0.496   0.825   1.301
  103SOL    HW2  319   0.368   0.726   1.278
  104SOL     OW  320   1.274   0.386   1.262
  104SOL    HW1  321   1.295   0.460   1.326
  104SOL    HW2  322   1.185   0.403   1.219
  105SOL     OW  323   0.064   1.564   1.331
  105SOL    HW1  324   0.018   1.646   1.297
  105SOL    HW2  325   0.162   1.583   1.340
  106SOL     OW  326   0.367   1.100   0.501
  106SOL    HW1  327   0.360   1.183   0.445
  106SOL    HW2  328   0.371   1.020   0.441
  107SOL     OW  329   0.566   0.537   0.865
  107SOL    HW1  330   0.578   0.603   0.791
  107SOL    HW2  331   0.612   0.571   0.948
  108SOL     OW  332   1.252   1.348   0.388
  108SOL    HW1  333   1.302   1.425   0.428
  108SOL    HW2  334   1.157   1.350   0.420
  109SOL     OW  335   1.272   1.445   1.142
  109SOL    HW1  336   1.319   1.458   1.229
  109SOL    HW2  337   1.206   1.371   1.151
  110SOL     OW  338   1.582   0.639   0.472
  110SOL    HW1  339   1.551   0.700   0.545
  110SOL    HW2  340   1.632   0.691   0.403
  111SOL     OW  341   0.354   1.510   1.329
  111SOL    HW1  342   0.333   1.466   1.242
  111SOL    HW2  343   0.451   1.536   1.332
  112SOL     OW  344   0.402   0.751   1.598
  112SOL    HW1  345   0.470   0.806   1.551
  112SOL    HW2  346   0.442   0.663   1.625
  113SOL     OW  347   1.587   0.779   1.670
  113SOL    HW1  348   1.495   0.817   1.665
  113SOL    HW2  349   1.647   0.826   1.605
  114SOL     OW  350   1.013   0.105   1.770
  114SOL    HW1  351   1.019   0.190   1.718
  114SOL    HW2  352   1.045   0.029   1.713
  115SOL     OW  353   0.504   0.050   1.740
  115SOL    HW1  354   0.462  -0.007   1.670
  115SOL    HW2  355   0.438   0.119   1.772
  116SOL     OW  356   0.573   0.870   1.029
  116SOL    HW1  357   0.617   0.959   1.020
  116SOL    HW2  358   0.510   0.870   1.106
  117SOL     OW  359   1.360   0.862   1.045
  117SOL    HW1  360   1.285   0.862   0.979
  117SOL    HW2  361   1.397   0.770   1.054
  118SOL     OW  362   1.209   0.525   0.275
  118SOL    HW1  363   1.222   0.441   0.329
  118SOL    HW2  364   1.180   0.599   0.335
  119SOL     OW  365   0.307   0.213   1.231
  119SOL    HW1  366   0.284   0.250   1.321
  119SOL    HW2  367   0.277   0.118   1.225
  120SOL     OW  368   0.037   1.310   1.282
  120SOL    HW1  369   0.090   1.261   1.350
  120SOL    HW2  370   0.059   1.408   1.287
  121SOL     OW  371   0.732   0.634   1.064
  121SOL    HW1  372   0.791   0.608   0.988
  121SOL    HW2  373   0.704   0.730   1.053
  122SOL     OW  374   1.728   0.935   1.854
  122SOL    HW1  375   1.682   0.928   1.765
  122SOL    HW2  376   1.666   0.979   1.920
  123SOL     OW  377   0.307   0.063   0.618
  123SOL    HW1  378   0.296   0.157   0.651
  123SOL    HW2  379   0.302   0.000   0.695
  124SOL     OW  380   1.622   0.367   0.374
  124SOL    HW1  381   1.624   0.291   0.438
  124SOL    HW2  382   1.574   0.444   0.414
  125SOL     OW  383   1.023   0.766   0.966
  125SOL    HW1  384   1.038   0.787   1.062
  125SOL    HW2  385   0.993   0.671   0.957
  126SOL     OW  386   0.980   1.573   1.700
  126SOL    HW1  387   0.960   1.617   1.612
  126SOL    HW2  388   1.019   1.482   1.684
  127SOL     OW  389   1.859   1.518   1.605
  127SOL    HW1  390   1.873   1.545   1.510
  127SOL    HW2  391   1.942   1.540   1.658
  128SOL     OW  392   0.350   0.898   1.804
  128SOL    HW1  393   0.426   0.942   1.852
  128SOL    HW2  394   0.385   0.851   1.722
  129SOL     OW  395   1.540   0.274   0.125
  129SOL    HW1  396   1.479   0.199   0.148
  129SOL    HW2  397   1.562   0.326   0.208
  130SOL     OW  398   1.303   0.838   0.042
  130SOL    HW1  399   1.337   0.745   0.057
  130SOL    HW2  400   1.321   0.865  -0.053
  131SOL     OW  401   1.068   1.333   0.849
  131SOL    HW1  402   1.075   1.249   0.794
  131SOL    HW2  403   1.130   1.402   0.813
  132SOL     OW  404   0.319   0.810   0.949
  132SOL    HW1  405   0.412   0.846   0.954
  132SOL    HW2  406   0.313   0.725   1.001
  133SOL     OW  407   0.339   0.509   1.006
  133SOL    HW1  408   0.287   0.426   0.989
  133SOL    HW2  409   0.416   0.514   0.942
  134SOL     OW  410   1.138   0.380   1.678
  134SOL    HW1  411   1.093   0.443   1.742
  134SOL    HW2  412   1.231   0.411   1.661
  135SOL     OW  413   1.160   0.207   1.477
  135SOL    HW1  414   1.160   0.271   1.554
  135SOL    HW2  415   1.188   0.255   1.394
  136SOL     OW  416   0.008   1.326   0.200
  136SOL    HW1  417  -0.085   1.347   0.169
  136SOL    HW2  418   0.018   1.227   0.213
  137SOL     OW  419   0.088   1.801   0.927
  137SOL    HW1  420   0.046   1.715   0.900
  137SOL    HW2  421   0.182   1.804   0.893
  138SOL     OW  422   0.504   1.568   0.910
  138SOL    HW1  423   0.570   1.642   0.919
  138SOL    HW2  424   0.548   1.489   0.868
  139SOL     OW  425   1.002   0.796   1.238
  139SOL    HW1  426   1.043   0.764   1.324
  139SOL    HW2  427   0.906   0.769   1.235
  140SOL     OW  428   0.040   0.544   1.114
  140SOL    HW1  429   0.125   0.511   1.073
  140SOL    HW2  430   0.053   0.559   1.212
  141SOL     OW  431   0.189   0.520   1.722
  141SOL    HW1  432   0.248   0.480   1.652
  141SOL    HW2  433   0.131   0.591   1.681
  142SOL     OW  434   1.369   0.950   1.660
  142SOL    HW1  435   1.408   1.039   1.680
  142SOL    HW2  436   1.379   0.930   1.563
  143SOL     OW  437   0.815   0.572   0.325
  143SOL    HW1  438   0.822   0.483   0.279
  143SOL    HW2  439   0.721   0.606   0.317
  144SOL     OW  440   1.657   0.604   1.206
  144SOL    HW1  441   1.619   0.535   1.268
  144SOL    HW2  442   1.739   0.568   1.162
  145SOL     OW  443   0.252   1.564   1.744
  145SOL    HW1  444   0.222   1.621   1.820
  145SOL    HW2  445   0.245   1.467   1.770
  146SOL     OW  446   0.671   0.464   1.269
  146SOL    HW1  447   0.637   0.375   1.239
  146SOL    HW2  448   0.697   0.518   1.189
  147SOL     OW  449   0.930   1.678   1.465
  147SOL    HW1  450   0.906   1.660   1.370
  147SOL    HW2  451   0.960   1.772   1.475
  148SOL     OW  452   0.473   0.500   0.191
  148SOL    HW1  453   0.534   0.580   0.195
  148SOL    HW2  454   0.378   0.531   0.198
  149SOL     OW  455   0.159   1.137   1.466
  149SOL    HW1  456   0.181   1.076   1.542
  149SOL    HW2  457   0.169   1.088   1.380
  150SOL     OW  458   1.347   1.059   1.234
  150SOL    HW1  459   1.371   0.996   1.160
  150SOL    HW2  460   1.257   1.099   1.216
  151SOL     OW  461   1.302   0.855   0.309
  151SOL    HW1  462   1.216   0.824   0.351
  151SOL    HW2  463   1.298   0.841   0.210
  152SOL     OW  464   1.759   1.747   1.154
  152SOL    HW1  465   1.820   1.777   1.081
  152SOL    HW2  466   1.721   1.658   1.132
  153SOL     OW  467   1.252   1.731   1.128
  153SOL    HW1  468   1.336   1.736   1.074
  153SOL    HW2  469   1.229   1.635   1.146
  154SOL     OW  470   0.083   1.258   1.022
  154SOL    HW1  471   0.078   1.257   1.122
  154SOL    HW2  472   0.000   1.217   0.984
  155SOL     OW  473   0.688   1.662   1.716
  155SOL    HW1  474   0.632   1.743   1.725
  155SOL    HW2  475   0.740   1.666   1.630
  156SOL     OW  476   0.903   0.086   0.133
  156SOL    HW1  477   0.954   0.087   0.047
  156SOL    HW2  478   0.959   0.044   0.204
  157SOL     OW  479   1.726   0.135   0.523
  157SOL    HW1  480   1.799   0.118   0.456
  157SOL    HW2  481   1.695   0.048   0.561
  158SOL     OW  482   1.388   1.573   0.477
  158SOL    HW1  483   1.455   1.585   0.403
  158SOL    HW2  484   1.348   1.662   0.500
  159SOL     OW  485   0.130   1.794   1.851
  159SOL    HW1  486   0.089   1.720   1.904
  159SOL    HW2  487   0.194   1.845   1.909
  160SOL     OW  488   1.280   0.927   0.672
  160SOL    HW1  489   1.340   0.846   0.674
  160SOL    HW2  490   1.320   0.996   0.612
  161SOL     OW  491   0.830   1.273   1.422
  161SOL    HW1  492   0.825   1.306   1.517
  161SOL    HW2  493   0.744   1.292   1.376
  162SOL     OW  494   0.672   1.616   0.154
  162SOL    HW1  495   0.681   1.626   0.055
  162SOL    HW2  496   0.632   1.527   0.175
  163SOL     OW  497   1.650   1.720   1.394
  163SOL    HW1  498   1.703   1.730   1.310
  163SOL    HW2  499   1.623   1.810   1.428
  164SOL     OW  500   1.841   0.175   0.963
  164SOL    HW1  501   1.880   0.090   0.927
  164SOL    HW2  502   1.743   0.177   0.944
  165SOL     OW  503   0.263   0.326   0.720
  165SOL    HW1  504   0.184   0.377   0.686
  165SOL    HW2  505   0.254   0.311   0.818
  166SOL     OW  506   1.194   1.612   0.031
  166SOL    HW1  507   1.200   1.519   0.068
  166SOL    HW2  508   1.135   1.612  -0.049
  167SOL     OW  509   0.822   1.002   1.372
  167SOL    HW1  510   0.862   1.001   1.280
  167SOL    HW2  511   0.832   1.094   1.412
  168SOL     OW  512   0.916   0.910   0.291
  168SOL    HW1  513   0.979   0.948   0.223
  168SOL    HW2  514   0.956   0.827   0.330
  169SOL     OW  515   1.504   1.607   0.044
  169SOL    HW1  516   1.412   1.644   0.051
  169SOL    HW2  517   1.542   1.627  -0.046
  170SOL     OW  518   0.372   1.288   1.490
  170SOL    HW1  519   0.359   1.381   1.456
  170SOL    HW2  520   0.288   1.236   1.477
  171SOL     OW  521   1.614   1.292   1.289
  171SOL    HW1  522   1.674   1.295   1.369
  171SOL    HW2  523   1.539   1.356   1.302
  172SOL     OW  524   1.039   1.098   0.696
  172SOL    HW1  525   0.969   1.051   0.750
  172SOL    HW2  526   1.098   1.030   0.653
  173SOL     OW  527   1.014   0.236   0.971
  173SOL    HW1  528   1.006   0.200   0.878
  173SOL    HW2  529   1.012   0.160   1.036
  174SOL     OW  530   0.590   1.487   0.491
  174SOL    HW1  531   0.632   1.429   0.421
  174SOL    HW2  532   0.546   1.566   0.447
  175SOL     OW  533   1.709   0.385   1.381
  175SOL    HW1  534   1.782   0.454   1.385
  175SOL    HW2  535   1.737   0.310   1.322
  176SOL     OW  536   0.255   1.348   0.290
  176SOL    HW1  537   0.159   1.349   0.263
  176SOL    HW2  538   0.267   1.401   0.374
  177SOL     OW  539   0.105   1.013   1.726
  177SOL    HW1  540   0.028   0.980   1.780
  177SOL    HW2  541   0.190   0.983   1.768
  178SOL     OW  542   0.672   0.203   1.489
  178SOL    HW1  543   0.762   0.187   1.449
  178SOL    HW2  544   0.680   0.208   1.588
  179SOL     OW  545   0.075   0.345   0.033
  179SOL    HW1  546  -0.017   0.317   0.004
  179SOL    HW2  547   0.106   0.422  -0.023
  180SOL     OW  548   1.440   0.856   1.398
  180SOL    HW1  549   1.383   0.908   1.335
  180SOL    HW2  550   1.536   0.868   1.374
  181SOL     OW  551   0.072   0.166   0.318
  181SOL    HW1  552   0.055   0.249   0.264
  181SOL    HW2  553   0.162   0.129   0.296
  182SOL     OW  554   1.183   1.335   0.119
  182SOL    HW1  555   1.084   1.324   0.121
  182SOL    HW2  556   1.217   1.350   0.212
  183SOL     OW  557   0.613   0.842   1.431
  183SOL    HW1  558   0.669   0.923   1.414
  183SOL    HW2  559   0.672   0.762   1.434
  184SOL     OW  560   1.493   1.767   0.959
  184SOL    HW1  561   1.526   1.831   0.890
  184SOL    HW2  562   1.559   1.761   1.034
  185SOL     OW  563   0.716   0.565   1.708
  185SOL    HW1  564   0.735   0.630   1.782
  185SOL    HW2  565   0.776   0.485   1.717
  186SOL     OW  566   1.450   1.220   1.633
  186SOL    HW1  567   1.441   1.210   1.732
  186SOL    HW2  568   1.546   1.213   1.607
  187SOL     OW  569   0.390   1.741   1.560
  187SOL    HW1  570   0.299   1.782   1.558
  187SOL    HW2  571   0.383   1.647   1.592
  188SOL     OW  572   1.674   0.883   1.254
  188SOL    HW1  573   1.647   0.794   1.217
  188SOL    HW2  574   1.675   0.951   1.181
  189SOL     OW  575   1.225   0.325   0.449
  189SOL    HW1  576   1.290   0.251   0.438
  189SOL    HW2  577   1.245   0.375   0.533
  190SOL     OW  578   0.594   0.745   0.652
  190SOL    HW1  579   0.644   0.830   0.633
  190SOL    HW2  580   0.506   0.747   0.604
  191SOL     OW  581   1.777   0.342   1.642
  191SOL    HW1  582   1.760   0.373   1.548
  191SOL    HW2  583   1.693   0.305   1.680
  192SOL     OW  584   1.730   0.934   1.517
  192SOL    HW1  585   1.768   1.025   1.532
  192SOL    HW2  586   1.722   0.917   1.418
  193SOL     OW  587   0.859   1.374   0.016
  193SOL    HW1  588   0.813   1.389   0.104
  193SOL    HW2  589   0.903   1.459  -0.014
  194SOL     OW  590   0.661   1.790   0.953
  194SOL    HW1  591   0.615   1.878   0.940
  194SOL    HW2  592   0.760   1.802   0.946
  195SOL     OW  593   0.859   0.956   0.861
  195SOL    HW1  594   0.913   0.887   0.909
  195SOL    HW2  595   0.827   1.025   0.927
  196SOL     OW  596   1.083   0.984   0.087
  196SOL    HW1  597   1.060   1.037   0.005
  196SOL    HW2  598   1.164   0.928   0.068
  197SOL     OW  599   1.861   1.569   0.851
  197SOL    HW1  600   1.790   1.557   0.781
  197SOL    HW2  601   1.862   1.490   0.911
  198SOL     OW  602   0.221   1.314   1.844
  198SOL    HW1  603   0.156   1.241   1.823
  198SOL    HW2  604   0.225   1.328   1.942
  199SOL     OW  605   0.079   1.240   0.653
  199SOL    HW1  606   0.078   1.193   0.741
  199SOL    HW2  607   0.161   1.212   0.602
  200SOL     OW  608   0.672   1.391   1.624
  200SOL    HW1  609   0.594   1.341   1.662
  200SOL    HW2  610   0.669   1.486   1.655
  201SOL     OW  611   1.824   0.192   1.227
  201SOL    HW1  612   1.820   0.102   1.271
  201SOL    HW2  613   1.827   0.181   1.128
  202SOL     OW  614   0.428   0.424   0.520
  202SOL    HW1  615   0.458   0.352   0.458
  202SOL    HW2  616   0.389   0.384   0.603
  203SOL     OW  617   1.705   1.487   1.104
  203SOL    HW1  618   1.612   1.462   1.077
  203SOL    HW2  619   1.731   1.437   1.186
  204SOL     OW  620   0.317   0.547   1.280
  204SOL    HW1  621   0.355   0.488   1.352
  204SOL    HW2  622   0.357   0.521   1.192
  205SOL     OW  623   0.812   1.586   0.687
  205SOL    HW1  624   0.844   1.596   0.593
  205SOL    HW2  625   0.733   1.524   0.689
  206SOL     OW  626   1.424   0.214   1.112
  206SOL    HW1  627   1.476   0.149   1.167
  206SOL    HW2  628   1.375   0.277   1.173
  207SOL     OW  629   1.001   0.034   1.154
  207SOL    HW1  630   0.938  -0.038   1.123
  207SOL    HW2  631   1.094  -0.002   1.154
  208SOL     OW  632   0.770   1.330   0.301
  208SOL    HW1  633   0.724   1.243   0.318
  208SOL    HW2  634   0.861   1.327   0.342
  209SOL     OW  635   0.618   1.567   1.284
  209SOL    HW1  636   0.613   1.649   1.341
  209SOL    HW2  637   0.707   1.564   1.239
  210SOL     OW  638   1.352   0.052   0.168
  210SOL    HW1  639   1.387   0.011   0.084
  210SOL    HW2  640   1.262   0.014   0.188
  211SOL     OW  641   1.300   0.453   0.691
  211SOL    HW1  642   1.241   0.533   0.695
  211SOL    HW2  643   1.315   0.418   0.784
  212SOL     OW  644   1.593   0.221   0.882
  212SOL    HW1  645   1.509   0.220   0.936
  212SOL    HW2  646   1.595   0.304   0.826
  213SOL     OW  647   0.039   1.077   0.300
  213SOL    HW1  648   0.138   1.066   0.291
  213SOL    HW2  649  -0.001   0.991   0.332
  214SOL     OW  650   0.875   1.646   0.337
  214SOL    HW1  651   0.798   1.611   0.283
  214SOL    HW2  652   0.843   1.717   0.399
  215SOL     OW  653   0.230   0.628   1.975
  215SOL    HW1  654   0.137   0.626   2.012
  215SOL    HW2  655   0.231   0.589   1.883
  216SOL     OW  656   0.225   0.275   2.858
  216SOL    HW1  657   0.260   0.258   2.950
  216SOL    HW2  658   0.137   0.230   2.846
  217SOL     OW  659   0.019   0.368   2.509
  217SOL    HW1  660  -0.063   0.411   2.548
  217SOL    HW2  661  -0.009   0.295   2.446
  218SOL     OW  662   0.569   1.275   3.027
  218SOL    HW1  663   0.476   1.268   2.990
  218SOL    HW2  664   0.580   1.364   3.071
  219SOL     OW  665   1.555   1.511   2.565
  219SOL    HW1  666   1.498   1.495   2.646
  219SOL    HW2  667   1.496   1.521   2.485
  220SOL     OW  668   1.135   0.703   2.579
  220SOL    HW1  669   1.192   0.781   2.554
  220SOL    HW2  670   1.075   0.729   2.655
  221SOL     OW  671   1.755   0.607   2.093
  221SOL    HW1  672   1.743   0.594   1.994
  221SOL    HW2  673   1.725   0.526   2.142
  222SOL     OW  674   0.768   1.144   2.885
  222SOL    HW1  675   0.690   1.161   2.945
  222SOL    HW2  676   0.802   1.231   2.849
  223SOL     OW  677   0.850   0.798   3.685
  223SOL    HW1  678   0.846   0.874   3.750
  223SOL    HW2  679   0.872   0.834   3.594
  224SOL     OW  680   0.685   1.012   2.527
  224SOL    HW1  681   0.754   0.996   2.597
  224SOL    HW2  682   0.612   1.069   2.565
  225SOL     OW  683   0.686   1.161   3.665
  225SOL    HW1  684   0.746   1.240   3.679
  225SOL    HW2  685   0.600   1.192   3.624
  226SOL     OW  686   0.335   1.435   2.923
  226SOL    HW1  687   0.257   1.404   2.870
  226SOL    HW2  688   0.393   1.493   2.866
  227SOL     OW  689   1.460   1.505   3.201
  227SOL    HW1  690   1.484   1.599   3.227
  227SOL    HW2  691   1.444   1.451   3.283
  228SOL     OW  692   0.438   0.392   3.361
  228SOL    HW1  693   0.520   0.336   3.370
  228SOL    HW2  694   0.357   0.334   3.365
  229SOL     OW  695   1.603   0.447   2.599
  229SOL    HW1  696   1.529   0.493   2.549
  229SOL    HW2  697   1.654   0.515   2.652
  230SOL     OW  698   0.231   1.713   2.345
  230SOL    HW1  699   0.265   1.790   2.399
  230SOL    HW2  700   0.275   1.713   2.255
  231SOL     OW  701   1.127   1.341   3.552
  231SOL    HW1  702   1.174   1.341   3.640
  231SOL    HW2  703   1.079   1.254   3.541
  232SOL     OW  704   0.230   1.434   2.400
  232SOL    HW1  705   0.204   1.530   2.400
  232SOL    HW2  706   0.159   1.380   2.445
  233SOL     OW  707   0.240   1.091   2.748
  233SOL    HW1  708   0.254   1.007   2.800
  233SOL    HW2  709   0.185   1.155   2.803
  234SOL     OW  710   0.620   1.786   3.301
  234SOL    HW1  711   0.528   1.769   3.336
  234SOL    HW2  712   0.648   1.878   3.327
  235SOL     OW  713   0.606   0.964   1.985
  235SOL    HW1  714   0.613   1.048   1.931
  235SOL    HW2  715   0.652   0.977   2.073
  236SOL     OW  716   1.594   0.114   3.342
  236SOL    HW1  717   1.576   0.181   3.270
  236SOL    HW2  718   1.591   0.160   3.431
  237SOL     OW  719   0.122   0.643   2.425
  237SOL    HW1  720   0.077   0.555   2.442
  237SOL    HW2  721   0.121   0.697   2.509
  238SOL     OW  722   1.842   1.767   2.221
  238SOL    HW1  723   1.896   1.738   2.301
  238SOL    HW2  724   1.872   1.857   2.192
  239SOL     OW  725   0.027   1.596   1.979
  239SOL    HW1  726   0.008   1.500   2.000
  239SOL    HW2  727  -0.006   1.654   2.054
  240SOL     OW  728   1.689   0.922   2.474
  240SOL    HW1  729   1.784   0.893   2.482
  240SOL    HW2  730   1.681   0.987   2.399
  241SOL     OW  731   1.641   1.108   2.294
  241SOL    HW1  732   1.727   1.110   2.242
  241SOL    HW2  733   1.655   1.155   2.382
  242SOL     OW  734   0.113   0.737   3.459
  242SOL    HW1  735   0.201   0.724   3.504
  242SOL    HW2  736   0.100   0.834   3.437
  243SOL     OW  737   0.613   1.365   2.588
  243SOL    HW1  738   0.564   1.278   2.597
  243SOL    HW2  739   0.590   1.408   2.501
  244SOL     OW  740   1.293   1.228   3.285
  244SOL    HW1  741   1.330   1.155   3.227
  244SOL    HW2  742   1.345   1.233   3.370
  245SOL     OW  743   0.809   0.004   2.364
  245SOL    HW1  744   0.849   0.095   2.355
  245SOL    HW2  745   0.709   0.012   2.370
  246SOL     OW  746   0.197   0.976   3.126
  246SOL    HW1  747   0.286   0.931   3.112
  246SOL    HW2  748   0.124   0.911   3.107
  247SOL     OW  749   1.525   0.999   2.052
  247SOL    HW1  750   1.462   0.923   2.065
  247SOL    HW2  751   1.573   1.017   2.138
  248SOL     OW  752   1.187   1.792   3.478
  248SOL    HW1  753   1.211   1.852   3.402
  248SOL    HW2  754   1.194   1.697   3.448
  249SOL     OW  755   0.317   0.251   3.663
  249SOL    HW1  756   0.388   0.322   3.669
  249SOL    HW2  757   0.229   0.290   3.691
  250SOL     OW  758   1.466   1.417   2.815
  250SOL    HW1  759   1.407   1.423   2.895
  250SOL    HW2  760   1.451   1.329   2.769
  251SOL     OW  761   1.667   1.714   2.434
  251SOL    HW1  762   1.626   1.691   2.346
  251SOL    HW2  763   1.649   1.640   2.499
  252SOL     OW  764   0.598   0.729   2.132
  252SOL    HW1  765   0.622   0.798   2.064
  252SOL    HW2  766   0.520   0.762   2.186
  253SOL     OW  767   1.281   0.345   2.806
  253SOL    HW1  768   1.195   0.295   2.793
  253SOL    HW2  769   1.343   0.291   2.862
  254SOL     OW  770   1.576   1.662   2.169
  254SOL    HW1  771   1.665   1.708   2.172
  254SOL    HW2  772   1.555   1.638   2.074
  255SOL     OW  773   0.807   0.605   3.327
  255SOL    HW1  774   0.760   0.602   3.416
  255SOL    HW2  775   0.756   0.550   3.261
  256SOL     OW  776   1.394   0.469   3.536
  256SOL    HW1  777   1.374   0.512   3.624
  256SOL    HW2  778   1.472   0.407   3.545
  257SOL     OW  779   0.973   0.890   3.434
  257SOL    HW1  780   1.019   0.806   3.405
  257SOL    HW2  781   0.917   0.924   3.359
  258SOL     OW  782   0.991   0.410   3.104
  258SOL    HW1  783   0.914   0.444   3.158
  258SOL    HW2  784   0.957   0.359   3.025
  259SOL     OW  785   1.041   0.701   2.291
  259SOL    HW1  786   1.067   0.697   2.387
  259SOL    HW2  787   0.956   0.650   2.277
  260SOL     OW  788   0.076   0.811   2.651
  260SOL    HW1  789   0.175   0.799   2.660
  260SOL    HW2  790   0.052   0.906   2.672
  261SOL     OW  791   0.130   1.821   3.433
  261SOL    HW1  792   0.120   1.806   3.532
  261SOL    HW2  793   0.044   1.857   3.397
  262SOL     OW  794   0.865   0.348   2.057
  262SOL    HW1  795   0.924   0.411   2.008
  262SOL    HW2  796   0.884   0.254   2.028
  263SOL     OW  797   1.719   0.585   3.693
  263SOL    HW1  798   1.693   0.674   3.657
  263SOL    HW2  799   1.717   0.517   3.620
  264SOL     OW  800   1.362   1.144   2.407
  264SOL    HW1  801   1.445   1.115   2.359
  264SOL    HW2  802   1.313   1.211   2.351
  265SOL     OW  803   0.550   0.196   2.747
  265SOL    HW1  804   0.545   0.191   2.847
  265SOL    HW2  805   0.552   0.292   2.718
  266SOL     OW  806   1.008   1.456   2.339
  266SOL    HW1  807   0.962   1.528   2.287
  266SOL    HW2  808   1.004   1.476   2.437
  267SOL     OW  809   0.351   1.801   2.715
  267SOL    HW1  810   0.401   1.715   2.721
  267SOL    HW2  811   0.416   1.878   2.712
  268SOL     OW  812   1.795   1.066   2.735
  268SOL    HW1  813   1.733   1.051   2.659
  268SOL    HW2  814   1.743   1.077   2.820
  269SOL     OW  815   1.227   1.550   3.368
  269SOL    HW1  816   1.233   1.473   3.432
  269SOL    HW2  817   1.175   1.524   3.288
  270SOL     OW  818   0.321   0.943   2.104
  270SOL    HW1  819   0.403   0.982   2.062
  270SOL    HW2  820   0.294   0.861   2.055
  271SOL     OW  821   1.458   0.735   2.590
  271SOL    HW1  822   1.453   0.670   2.665
  271SOL    HW2  823   1.538   0.794   2.603
  272SOL     OW  824   0.461   1.266   3.589
  272SOL    HW1  825   0.411   1.267   3.503
  272SOL    HW2  826   0.398   1.248   3.665
  273SOL     OW  827   1.111   1.776   2.099
  273SOL    HW1  828   1.051   1.714   2.149
  273SOL    HW2  829   1.142   1.732   2.014
  274SOL     OW  830   0.202   0.285   3.360
  274SOL    HW1  831   0.122   0.345   3.347
  274SOL    HW2  832   0.192   0.236   3.446
  275SOL     OW  833   1.632   1.377   1.943
  275SOL    HW1  834   1.600   1.471   1.933
  275SOL    HW2  835   1.556   1.314   1.931
  276SOL     OW  836   0.464   1.743   2.185
  276SOL    HW1  837   0.497   1.782   2.271
  276SOL    HW2  838   0.540   1.736   2.120
  277SOL     OW  839   1.400   0.107   2.288
  277SOL    HW1  840   1.376   0.070   2.198
  277SOL    HW2  841   1.499   0.123   2.292
  278SOL     OW  842   0.249   1.785   3.103
  278SOL    HW1  843   0.306   1.720   3.153
  278SOL    HW2  844   0.233   1.752   3.010
  279SOL     OW  845   0.940   1.698   2.766
  279SOL    HW1  846   1.020   1.641   2.787
  279SOL    HW2  847   0.891   1.658   2.689
  280SOL     OW  848   0.382   0.700   2.342
  280SOL    HW1  849   0.427   0.610   2.339
  280SOL    HW2  850   0.288   0.689   2.375
  281SOL     OW  851   1.547   0.222   3.591
  281SOL    HW1  852   1.542   0.259   3.683
  281SOL    HW2  853   1.475   0.153   3.579
  282SOL     OW  854   0.614   0.122   1.979
  282SOL    HW1  855   0.712   0.100   1.986
  282SOL    HW2  856   0.583   0.105   1.886
  283SOL     OW  857   0.781   0.264   3.611
  283SOL    HW1  858   0.848   0.203   3.654
  283SOL    HW2  859   0.708   0.283   3.676
  284SOL     OW  860   0.888   1.514   3.057
  284SOL    HW1  861   0.865   1.489   2.963
  284SOL    HW2  862   0.949   1.445   3.096
  285SOL     OW  863   1.351   0.590   3.295
  285SOL    HW1  864   1.379   0.547   3.380
  285SOL    HW2  865   1.376   0.686   3.296
  286SOL     OW  866   0.803   1.402   2.786
  286SOL    HW1  867   0.893   1.416   2.744
  286SOL    HW2  868   0.732   1.404   2.715
  287SOL     OW  869   0.922   0.503   2.761
  287SOL    HW1  870   0.897   0.494   2.665
  287SOL    HW2  871   0.970   0.421   2.792
  288SOL     OW  872   0.539   0.064   2.374
  288SOL    HW1  873   0.458   0.065   2.432
  288SOL    HW2  874   0.542   0.147   2.319
  289SOL     OW  875   1.434   1.188   1.903
  289SOL    HW1  876   1.466   1.112   1.960
  289SOL    HW2  877   1.342   1.215   1.933
  290SOL     OW  878   0.297   0.035   2.033
  290SOL    HW1  879   0.346   0.119   2.012
  290SOL    HW2  880   0.359  -0.030   2.078
  291SOL     OW  881   0.935   0.236   2.342
  291SOL    HW1  882   0.887   0.277   2.264
  291SOL    HW2  883   1.034   0.234   2.323
  292SOL     OW  884   1.076   0.683   3.326
  292SOL    HW1  885   0.996   0.622   3.329
  292SOL    HW2  886   1.157   0.630   3.302
  293SOL     OW  887   1.227   1.570   2.655
  293SOL    HW1  888   1.248   1.644   2.590
  293SOL    HW2  889   1.295   1.570   2.728
  294SOL     OW  890   0.459   1.152   2.603
  294SOL    HW1  891   0.388   1.125   2.668
  294SOL    HW2  892   0.433   1.124   2.510
  295SOL     OW  893   1.271   1.797   2.453
  295SOL    HW1  894   1.315   1.861   2.389
  295SOL    HW2  895   1.221   1.849   2.523
  296SOL     OW  896   1.032   0.549   1.878
  296SOL    HW1  897   0.991   0.631   1.839
  296SOL    HW2  898   1.096   0.575   1.951
  297SOL     OW  899   0.078   0.556   3.248
  297SOL    HW1  900   0.170   0.555   3.207
  297SOL    HW2  901   0.072   0.630   3.315
  298SOL     OW  902   0.561   0.222   3.009
  298SOL    HW1  903   0.599   0.138   3.046
  298SOL    HW2  904   0.473   0.241   3.053
  299SOL     OW  905   0.866   0.454   2.504
  299SOL    HW1  906   0.834   0.526   2.442
  299SOL    HW2  907   0.890   0.373   2.451
  300SOL     OW  908   1.017   0.039   2.615
  300SOL    HW1  909   0.945   0.044   2.546
  300SOL    HW2  910   0.993  -0.030   2.684
  301SOL     OW  911   1.429   1.173   2.729
  301SOL    HW1  912   1.374   1.089   2.722
  301SOL    HW2  913   1.455   1.202   2.637
  302SOL     OW  914   1.466   0.590   2.854
  302SOL    HW1  915   1.436   0.495   2.861
  302SOL    HW2  916   1.539   0.606   2.920
  303SOL     OW  917   1.857   0.833   2.239
  303SOL    HW1  918   1.899   0.769   2.303
  303SOL    HW2  919   1.819   0.782   2.161
  304SOL     OW  920   0.488   1.385   2.036
  304SOL    HW1  921   0.401   1.370   2.083
  304SOL    HW2  922   0.471   1.411   1.941
  305SOL     OW  923   1.664   1.280   2.519
  305SOL    HW1  924   1.763   1.288   2.533
  305SOL    HW2  925   1.619   1.364   2.550
  306SOL     OW  926   1.390   0.575   1.940
  306SOL    HW1  927   1.336   0.554   2.021
  306SOL    HW2  928   1.481   0.534   1.949
  307SOL     OW  929   0.527   0.256   2.190
  307SOL    HW1  930   0.554   0.197   2.115
  307SOL    HW2  931   0.527   0.351   2.159
  308SOL     OW  932   1.754   1.223   3.450
  308SOL    HW1  933   1.845   1.184   3.437
  308SOL    HW2  934   1.762   1.319   3.474
  309SOL     OW  935   1.064   1.347   3.202
  309SOL    HW1  936   0.984   1.324   3.257
  309SOL    HW2  937   1.147   1.321   3.251
  310SOL     OW  938   1.592   1.629   3.487
  310SOL    HW1  939   1.619   1.663   3.397
  310SOL    HW2  940   1.671   1.591   3.533
  311SOL     OW  941   1.111   1.195   2.962
  311SOL    HW1  942   1.071   1.239   3.043
  311SOL    HW2  943   1.070   1.232   2.879
  312SOL     OW  944   1.638   1.099   2.941
  312SOL    HW1  945   1.643   1.180   3.000
  312SOL    HW2  946   1.552   1.101   2.890
  313SOL     OW  947   0.915   0.089   3.264
  313SOL    HW1  948   0.940   0.069   3.169
  313SOL    HW2  949   0.987   0.145   3.306
  314SOL     OW  950   0.980   1.116   3.581
  314SOL    HW1  951   0.881   1.122   3.591
  314SOL    HW2  952   1.003   1.036   3.525
  315SOL     OW  953   0.705   1.050   2.230
  315SOL    HW1  954   0.691   1.057   2.329
  315SOL    HW2  955   0.789   0.999   2.212
  316SOL     OW  956   0.410   0.813   3.113
  316SOL    HW1  957   0.496   0.825   3.163
  316SOL    HW2  958   0.368   0.726   3.140
  317SOL     OW  959   1.274   0.386   3.124
  317SOL    HW1  960   1.295   0.460   3.188
  317SOL    HW2  961   1.185   0.403   3.081
  318SOL     OW  962   0.064   1.564   3.193
  318SOL    HW1  963   0.018   1.646   3.159
  318SOL    HW2  964   0.162   1.583   3.202
  319SOL     OW  965   0.367   1.100   2.363
  319SOL    HW1  966   0.360   1.183   2.307
  319SOL    HW2  967   0.371   1.020   2.303
  320SOL     OW  968   0.566   0.537   2.727
  320SOL    HW1  969   0.578   0.603   2.653
  320SOL    HW2  970   0.612   0.571   2.810
  321SOL     OW  971   1.252   1.348   2.250
  321SOL    HW1  972   1.302   1.425   2.290
  321SOL    HW2  973   1.157   1.350   2.282
  322SOL     OW  974   1.272   1.445   3.004
  322SOL    HW1  975   1.319   1.458   3.091
  322SOL    HW2  976   1.206   1.371   3.013
  323SOL     OW  977   1.582   0.639   2.334
  323SOL    HW1  978   1.551   0.700   2.407
  323SOL    HW2  979   1.632   0.691   2.265
  324SOL     OW  980   0.354   1.510   3.191
  324SOL    HW1  981   0.333   1.466   3.104
  324SOL    HW2  982   0.451   1.536   3.194
  325SOL     OW  983   0.402   0.751   3.460
  325SOL    HW1  984   0.470   0.806   3.413
  325SOL    HW2  985   0.442   0.663   3.487
  326SOL     OW  986   1.587   0.779   3.532
  326SOL    HW1  987   1.495   0.817   3.527
  326SOL    HW2  988   1.647   0.826   3.467
  327SOL     OW  989   1.013   0.105   3.632
  327SOL    HW1  990   1.019   0.190   3.580
  327SOL    HW2  991   1.045   0.029   3.575
  328SOL     OW  992   0.504   0.050   3.602
  328SOL    HW1  993   0.462  -0.007   3.532
  328SOL    HW2  994   0.438   0.119   3.634
  329SOL     OW  995   0.573   0.870   2.891
  329SOL    HW1  996   0.617   0.959   2.882
  329SOL    HW2  997   0.510   0.870   2.968
  330SOL     OW  998   1.360   0.862   2.907
  330SOL    HW1  999   1.285   0.862   2.841
  330SOL    HW2 1000   1.397   0.770   2.916
  331SOL     OW 1001   1.209   0.525   2.137
  331SOL    HW1 1002   1.222   0.441   2.191
  331SOL    HW2 1003   1.180   0.599   2.197
  332SOL     OW 1004   0.307   0.213   3.093
  332SOL    HW1 1005   0.284   0.250   3.183
  332SOL    HW2 1006   0.277   0.118   3.087
  333SOL     OW 1007   0.037   1.310   3.144
  333SOL    HW1 1008   0.090   1.261   3.212
  333SOL    HW2 1009   0.059   1.408   3.149
  334SOL     OW 1010   0.732   0.634   2.926
  334SOL    HW1 1011   0.791   0.608   2.850
  334SOL    HW2 1012   0.704   0.730   2.915
  335SOL     OW 1013   1.728   0.935   3.716
  335SOL    HW1 1014   1.682   0.928   3.627
  335SOL    HW2 1015   1.666   0.979   3.782
  336SOL     OW 1016   0.307   0.063   2.480
  336SOL    HW1 1017   0.296   0.157   2.513
  336SOL    HW2 1018   0.302   0.000   2.557
  337SOL     OW 1019   1.622   0.367   2.236
  337SOL    HW1 1020   1.624   0.291   2.300
  337SOL    HW2 1021   1.574   0.444   2.276
  338SOL     OW 1022   1.023   0.766   2.828
  338SOL    HW1 1023   1.038   0.787   2.924
  338SOL    HW2 1024   0.993   0.671   2.819
  339SOL     OW 1025   0.980   1.573   3.562
  339SOL    HW1 1026   0.960   1.617   3.474
  339SOL    HW2 1027   1.019   1.482   3.546
  340SOL     OW 1028   1.859   1.518   3.467
  340SOL    HW1 1029   1.873   1.545   3.372
  340SOL    HW2 1030   1.942   1.540   3.520
  341SOL     OW 1031   0.350   0.898   3.666
  341SOL    HW1 1032   0.426   0.942   3.714
  341SOL    HW2 1033   0.385   0.851   3.584
  342SOL     OW 1034   1.540   0.274   1.987
  342SOL    HW1 1035   1.479   0.199   2.010
  342SOL    HW2 1036   1.562   0.326   2.070
  343SOL     OW 1037   1.303   0.838   1.904
  343SOL    HW1 1038   1.337   0.745   1.919
  343SOL    HW2 1039   1.321   0.865   1.809
  344SOL     OW 1040   1.068   1.333   2.711
  344SOL    HW1 1041   1.075   1.249   2.656
  344SOL    HW2 1042   1.130   1.402   2.675
  345SOL     OW 1043   0.319   0.810   2.811
  345SOL    HW1 1044   0.412   0.846   2.816
  345SOL    HW2 1045   0.313   0.725   2.863
  346SOL     OW 1046   0.339   0.509   2.868
  346SOL    HW1 1047   0.287   0.426   2.851
  346SOL    HW2 1048   0.416   0.514   2.804
  347SOL     OW 1049   1.138   0.380   3.540
  347SOL    HW1 1050   1.093   0.443   3.604
  347SOL    HW2 1051   1.231   0.411   3.523
  348SOL     OW 1052   1.160   0.207   3.339
  348SOL    HW1 1053   1.160   0.271   3.416
  348SOL    HW2 1054   1.188   0.255   3.256
  349SOL     OW 1055   0.008   1.326   2.062
  349SOL    HW1 1056  -0.085   1.347   2.031
  349SOL    HW2 1057   0.018   1.227   2.075
  350SOL     OW 1058   0.088   1.801   2.789
  350SOL    HW1 1059   0.046   1.715   2.762
  350SOL    HW2 1060   0.182   1.804   2.755
  351SOL     OW 1061   0.504   1.568   2.772
  351SOL    HW1 1062   0.570   1.642   2.781
  351SOL    HW2 1063   0.548   1.489   2.730
  352SOL     OW 1064   1.002   0.796   3.100
  352SOL    HW1 1065   1.043   0.764   3.186
  352SOL    HW2 1066   0.906   0.769   3.097
  353SOL     OW 1067   0.040   0.544   2.976
  353SOL    HW1 1068   0.125   0.511   2.935
  353SOL    HW2 1069   0.053   0.559   3.074
  354SOL     OW 1070   0.189   0.520   3.584
  354SOL    HW1 1071   0.248   0.480   3.514
  354SOL    HW2 1072   0.131   0.591   3.543
  355SOL     OW 1073   1.369   0.950   3.522
  355SOL    HW1 1074   1.408   1.039   3.542
  355SOL    HW2 1075   1.379   0.930   3.425
  356SOL     OW 1076   0.815   0.572   2.187
  356SOL    HW1 1077   0.822   0.483   2.141
  356SOL    HW2 1078   0.721   0.606   2.179
  357SOL     OW 1079   1.657   0.604   3.068
  357SOL    HW1 1080   1.619   0.535   3.130
  357SOL    HW2 1081   1.739   0.568   3.024
  358SOL     OW 1082   0.252   1.564   3.606
  358SOL    HW1 1083   0.222   1.621   3.682
  358SOL    HW2 1084   0.245   1.467   3.632
  359SOL     OW 1085   0.671   0.464   3.131
  359SOL    HW1 1086   0.637   0.375   3.101
  359SOL    HW2 1087   0.697   0.518   3.051
  360SOL     OW 1088   0.930   1.678   3.327
  360SOL    HW1 1089   0.906   1.660   3.232
  360SOL    HW2 1090   0.960   1.772   3.337
  361SOL     OW 1091   0.473   0.500   2.053
  361SOL    HW1 1092   0.534   0.580   2.057
  361SOL    HW2 1093   0.378   0.531   2.060
  362SOL     OW 1094   0.159   1.137   3.328
  362SOL    HW1 1095   0.181   1.076   3.404
  362SOL    HW2 1096   0.169   1.088   3.242
  363SOL     OW 1097   1.347   1.059   3.096
  363SOL    HW1 1098   1.371   0.996   3.022
  363SOL    HW2 1099   1.257   1.099   3.078
  364SOL     OW 1100   1.302   0.855   2.171
  364SOL    HW1 1101   1.216   0.824   2.213
  364SOL    HW2 1102   1.298   0.841   2.072
  365SOL     OW 1103   1.759   1.747   3.016
  365SOL    HW1 1104   1.820   1.777   2.943
  365SOL    HW2 1105   1.721   1.658   2.994
  366SOL     OW 1106   1.252   1.731   2.990
  366SOL    HW1 1107   1.336   1.736   2.936
  366SOL    HW2 1108   1.229   1.635   3.008
  367SOL     OW 1109   0.083   1.258   2.884
  367SOL    HW1 1110   0.078   1.257   2.984
  367SOL    HW2 1111   0.000   1.217   2.846
  368SOL     OW 1112   0.688   1.662   3.578
  368SOL    HW1 1113   0.632   1.743   3.587
  368SOL    HW2 1114   0.740   1.666   3.492
  369SOL     OW 1115   1.726   0.135   2.385
  369SOL    HW1 1116   1.799   0.118   2.318
  369SOL    HW2 1117   1.695   0.048   2.423
  370SOL     OW 1118   1.388   1.573   2.339
  370SOL    HW1 1119   1.455   1.585   2.265
  370SOL    HW2 1120   1.348   1.662   2.362
  371SOL     OW 1121   0.130   1.794   3.713
  371SOL    HW1 1122   0.089   1.720   3.766
  371SOL    HW2 1123   0.194   1.845   3.771
  372SOL     OW 1124   1.280   0.927   2.534
  372SOL    HW1 1125   1.340   0.846   2.536
  372SOL    HW2 1126   1.320   0.996   2.474
  373SOL     OW 1127   0.830   1.273   3.284
  373SOL    HW1 1128   0.825   1.306   3.379
  373SOL    HW2 1129   0.744   1.292   3.238
  374SOL     OW 1130   0.672   1.616   2.016
  374SOL    HW1 1131   0.681   1.626   1.917
  374SOL    HW2 1132   0.632   1.527   2.037
  375SOL     OW 1133   1.650   1.720   3.256
  375SOL    HW1 1134   1.703   1.730   3.172
  375SOL    HW2 1135   1.623   1.810   3.290
  376SOL     OW 1136   1.841   0.175   2.825
  376SOL    HW1 1137   1.880   0.090   2.789
  376SOL    HW2 1138   1.743   0.177   2.806
  377SOL     OW 1139   0.263   0.326   2.582
  377SOL    HW1 1140   0.184   0.377   2.548
  377SOL    HW2 1141   0.254   0.311   2.680
  378SOL     OW 1142   1.194   1.612   1.893
  378SOL    HW1 1143   1.200   1.519   1.930
  378SOL    HW2 1144   1.135   1.612   1.813
  379SOL     OW 1145   0.822   1.002   3.234
  379SOL    HW1 1146   0.862   1.001   3.142
  379SOL    HW2 1147   0.832   1.094   3.274
  380SOL     OW 1148   0.916   0.910   2.153
  380SOL    HW1 1149   0.979   0.948   2.085
  380SOL    HW2 1150   0.956   0.827   2.192
  381SOL     OW 1151   1.504   1.607   1.906
  381SOL    HW1 1152   1.412   1.644   1.913
  381SOL    HW2 1153   1.542   1.627   1.816
  382SOL     OW 1154   0.372   1.288   3.352
  382SOL    HW1 1155   0.359   1.381   3.318
  382SOL    HW2 1156   0.288   1.236   3.339
  383SOL     OW 1157   1.614   1.292   3.151
  383SOL    HW1 1158   1.674   1.295   3.231
  383SOL    HW2 1159   1.539   1.356   3.164
  384SOL     OW 1160   1.039   1.098   2.558
  384SOL    HW1 1161   0.969   1.051   2.612
  384SOL    HW2 1162   1.098   1.030   2.515
  385SOL     OW 1163   1.014   0.236   2.833
  385SOL    HW1 1164   1.006   0.200   2.740
  385SOL    HW2 1165   1.012   0.160   2.898
  386SOL     OW 1166   0.590   1.487   2.353
  386SOL    HW1 1167   0.632   1.429   2.283
  386SOL    HW2 1168   0.546   1.566   2.309
  387SOL     OW 1169   1.709   0.385   3.243
  387SOL    HW1 1170   1.782   0.454   3.247
  387SOL    HW2 1171   1.737   0.310   3.184
  388SOL     OW 1172   0.255   1.348   2.152
  388SOL    HW1 1173   0.159   1.349   2.125
  388SOL    HW2 1174   0.267   1.401   2.236
  389SOL     OW 1175   0.105   1.013   3.588
  389SOL    HW1 1176   0.028   0.980   3.642
  389SOL    HW2 1177   0.190   0.983   3.630
  390SOL     OW 1178   0.672   0.203   3.351
  390SOL    HW1 1179   0.762   0.187   3.311
  390SOL    HW2 1180   0.680   0.208   3.450
  391SOL     OW 1181   0.075   0.345   1.895
  391SOL    HW1 1182  -0.017   0.317   1.866
  391SOL    HW2 1183   0.106   0.422   1.839
  392SOL     OW 1184   1.440   0.856   3.260
  392SOL    HW1 1185   1.383   0.908   3.197
  392SOL    HW2 1186   1.536   0.868   3.236
  393SOL     OW 1187   0.072   0.166   2.180
  393SOL    HW1 1188   0.055   0.249   2.126
  393SOL    HW2 1189   0.162   0.129   2.158
  394SOL     OW 1190   1.183   1.335   1.981
  394SOL    HW1 1191   1.084   1.324   1.983
  394SOL    HW2 1192   1.217   1.350   2.074
  395SOL     OW 1193   0.613   0.842   3.293
  395SOL    HW1 1194   0.669   0.923   3.276
  395SOL    HW2 1195   0.672   0.762   3.296
  396SOL     OW 1196   1.493   1.767   2.821
  396SOL    HW1 1197   1.526   1.831   2.752
  396SOL    HW2 1198   1.559   1.761   2.896
  397SOL     OW 1199   0.716   0.565   3.570
  397SOL    HW1 1200   0.735   0.630   3.644
  397SOL    HW2 1201   0.776   0.485   3.579
  398SOL     OW 1202   1.450   1.220   3.495
  398SOL    HW1 1203   1.441   1.210   3.594
  398SOL    HW2 1204   1.546   1.213   3.469
  399SOL     OW 1205   0.390   1.741   3.422
  399SOL    HW1 1206   0.299   1.782   3.420
  399SOL    HW2 1207   0.383   1.647   3.454
  400SOL     OW 1208   1.674   0.883   3.116
  400SOL    HW1 1209   1.647   0.794   3.079
  400SOL    HW2 1210   1.675   0.951   3.043
  401SOL     OW 1211   1.225   0.325   2.311
  401SOL    HW1 1212   1.290   0.251   2.300
  401SOL    HW2 1213   1.245   0.375   2.395
  402SOL     OW 1214   0.594   0.745   2.514
  402SOL    HW1 1215   0.644   0.830   2.495
  402SOL    HW2 1216   0.506   0.747   2.466
  403SOL     OW 1217   1.777   0.342   3.504
  403SOL    HW1 1218   1.760   0.373   3.410
  403SOL    HW2 1219   1.693   0.305   3.542
  404SOL     OW 1220   1.730   0.934   3.379
  404SOL    HW1 1221   1.768   1.025   3.394
  404SOL    HW2 1222   1.722   0.917   3.280
  405SOL     OW 1223   0.859   1.374   1.878
  405SOL    HW1 1224   0.813   1.389   1.966
  405SOL    HW2 1225   0.903   1.459   1.848
  406SOL     OW 1226   0.661   1.790   2.815
  406SOL    HW1 1227   0.615   1.878   2.802
  406SOL    HW2 1228   0.760   1.802   2.808
  407SOL     OW 1229   0.859   0.956   2.723
  407SOL    HW1 1230   0.913   0.887   2.771
  407SOL    HW2 1231   0.827   1.025   2.789
  408SOL     OW 1232   1.083   0.984   1.949
  408SOL    HW1 1233   1.060   1.037   1.867
  408SOL    HW2 1234   1.164   0.928   1.930
  409SOL     OW 1235   1.861   1.569   2.713
  409SOL    HW1 1236   1.790   1.557   2.643
  409SOL    HW2 1237   1.862   1.490   2.773
  410SOL     OW 1238   0.221   1.314   3.706
  410SOL    HW1 1239   0.156   1.241   3.685
  410SOL    HW2 1240   0.225   1.328   3.804
  411SOL     OW 1241   0.079   1.240   2.515
  411SOL    HW1 1242   0.078   1.193   2.603
  411SOL    HW2 1243   0.161   1.212   2.464
  412SOL     OW 1244   0.672   1.391   3.486
  412SOL    HW1 1245   0.594   1.341   3.524
  412SOL    HW2 1246   0.669   1.486   3.517
  413SOL     OW 1247   1.824   0.192   3.089
  413SOL    HW1 1248   1.820   0.102   3.133
  413SOL    HW2 1249   1.827   0.181   2.990
  414SOL     OW 1250   0.428   0.424   2.382
  414SOL    HW1 1251   0.458   0.352   2.320
  414SOL    HW2 1252   0.389   0.384   2.465
  415SOL     OW 1253   1.705   1.487   2.966
  415SOL    HW1 1254   1.612   1.462   2.939
  415SOL    HW2 1255   1.731   1.437   3.048
  416SOL     OW 1256   0.317   0.547   3.142
  416SOL    HW1 1257   0.355   0.488   3.214
  416SOL    HW2 1258   0.357   0.521   3.054
  417SOL     OW 1259   0.812   1.586   2.549
  417SOL    HW1 1260   0.844   1.596   2.455
  417SOL    HW2 1261   0.733   1.524   2.551
  418SOL     OW 1262   1.424   0.214   2.974
  418SOL    HW1 1263   1.476   0.149   3.029
  418SOL    HW2 1264   1.375   0.277   3.035
  419SOL     OW 1265   1.001   0.034   3.016
  419SOL    HW1 1266   0.938  -0.038   2.985
  419SOL    HW2 1267   1.094  -0.002   3.016
  420SOL     OW 1268   0.770   1.330   2.163
  420SOL    HW1 1269   0.724   1.243   2.180
  420SOL    HW2 1270   0.861   1.327   2.204
  421SOL     OW 1271   0.618   1.567   3.146
  421SOL    HW1 1272   0.613   1.649   3.203
  421SOL    HW2 1273   0.707   1.564   3.101
  422SOL     OW 1274   1.352   0.052   2.030
  422SOL    HW1 1275   1.387   0.011   1.946
  422SOL    HW2 1276   1.262   0.014   2.050
  423SOL     OW 1277   1.300   0.453   2.553
  423SOL    HW1 1278   1.241   0.533   2.557
  423SOL    HW2 1279   1.315   0.418   2.646
  424SOL     OW 1280   1.593   0.221   2.744
  424SOL    HW1 1281   1.509   0.220   2.798
  424SOL    HW2 1282   1.595   0.304   2.688
  425SOL     OW 1283   0.039   1.077   2.162
  425SOL    HW1 1284   0.138   1.066   2.153
  425SOL    HW2 1285  -0.001   0.991   2.194
  426SOL     OW 1286   0.875   1.646   2.199
  426SOL    HW1 1287   0.798   1.611   2.145
  426SOL    HW2 1288   0.843   1.717   2.261
  427SOL     OW 1289   0.230   0.628   3.837
  427SOL    HW1 1290   0.137   0.626   3.874
  427SOL    HW2 1291   0.231   0.589   3.745
  428SOL     OW 1292   0.225   0.275   4.720
  428SOL    HW1 1293   0.260   0.258   4.812
  428SOL    HW2 1294   0.137   0.230   4.708
  429SOL     OW 1295   0.019   0.368   4.371
  429SOL    HW1 1296  -0.063   0.411   4.410
  429SOL    HW2 1297  -0.009   0.295   4.308
  430SOL     OW 1298   1.755   0.607   3.955
  430SOL    HW1 1299   1.743   0.594   3.856
  430SOL    HW2 1300   1.725   0.526   4.004
  431SOL     OW 1301   0.685   1.012   4.389
  431SOL    HW1 1302   0.754   0.996   4.459
  431SOL    HW2 1303   0.612   1.069   4.427
  432SOL     OW 1304   1.603   0.447   4.461
  432SOL    HW1 1305   1.529   0.493   4.411
  432SOL    HW2 1306   1.654   0.515   4.514
  433SOL     OW 1307   0.231   1.713   4.207
  433SOL    HW1 1308   0.265   1.790   4.261
  433SOL    HW2 1309   0.275   1.713   4.117
  434SOL     OW 1310   0.230   1.434   4.262
  434SOL    HW1 1311   0.204   1.530   4.262
  434SOL    HW2 1312   0.159   1.380   4.307
  435SOL     OW 1313   0.240   1.091   4.610
  435SOL    HW1 1314   0.254   1.007   4.662
  435SOL    HW2 1315   0.185   1.155   4.665
  436SOL     OW 1316   0.606   0.964   3.847
  436SOL    HW1 1317   0.613   1.048   3.793
  436SOL    HW2 1318   0.652   0.977   3.935
  437SOL     OW 1319   0.122   0.643   4.287
  437SOL    HW1 1320   0.077   0.555   4.304
  437SOL    HW2 1321   0.121   0.697   4.371
  438SOL     OW 1322   1.842   1.767   4.083
  438SOL    HW1 1323   1.896   1.738   4.163
  438SOL    HW2 1324   1.872   1.857   4.054
  439SOL     OW 1325   0.027   1.596   3.841
  439SOL    HW1 1326   0.008   1.500   3.862
  439SOL    HW2 1327  -0.006   1.654   3.916
  440SOL     OW 1328   1.689   0.922   4.336
  440SOL    HW1 1329   1.784   0.893   4.344
  440SOL    HW2 1330   1.681   0.987   4.261
  441SOL     OW 1331   1.641   1.108   4.156
  441SOL    HW1 1332   1.727   1.110   4.104
  441SOL    HW2 1333   1.655   1.155   4.244
  442SOL     OW 1334   0.613   1.365   4.450
  442SOL    HW1 1335   0.564   1.278   4.459
  442SOL    HW2 1336   0.590   1.408   4.363
  443SOL     OW 1337   0.809   0.004   4.226
  443SOL    HW1 1338   0.849   0.095   4.217
  443SOL    HW2 1339   0.709   0.012   4.232
  444SOL     OW 1340   1.525   0.999   3.914
  444SOL    HW1 1341   1.462   0.923   3.927
  444SOL    HW2 1342   1.573   1.017   4.000
  445SOL     OW 1343   1.667   1.714   4.296
  445SOL    HW1 1344   1.626   1.691   4.208
  445SOL    HW2 1345   1.649   1.640   4.361
  446SOL     OW 1346   0.598   0.729   3.994
  446SOL    HW1 1347   0.622   0.798   3.926
  446SOL    HW2 1348   0.520   0.762   4.048
  447SOL     OW 1349   1.281   0.345   4.668
  447SOL    HW1 1350   1.195   0.295   4.655
  447SOL    HW2 1351   1.343   0.291   4.724
  448SOL     OW 1352   1.576   1.662   4.031
  448SOL    HW1 1353   1.665   1.708   4.034
  448SOL    HW2 1354   1.555   1.638   3.936
  449SOL     OW 1355   1.041   0.701   4.153
  449SOL    HW1 1356   1.067   0.697   4.249
  449SOL    HW2 1357   0.956   0.650   4.139
  450SOL     OW 1358   0.076   0.811   4.513
  450SOL    HW1 1359   0.175   0.799   4.522
  450SOL    HW2 1360   0.052   0.906   4.534
  451SOL     OW 1361   0.865   0.348   3.919
  451SOL    HW1 1362   0.924   0.411   3.870
  451SOL    HW2 1363   0.884   0.254   3.890
  452SOL     OW 1364   1.362   1.144   4.269
  452SOL    HW1 1365   1.445   1.115   4.221
  452SOL    HW2 1366   1.313   1.211   4.213
  453SOL     OW 1367   1.008   1.456   4.201
  453SOL    HW1 1368   0.962   1.528   4.149
  453SOL    HW2 1369   1.004   1.476   4.299
  454SOL     OW 1370   0.351   1.801   4.577
  454SOL    HW1 1371   0.401   1.715   4.583
  454SOL    HW2 1372   0.416   1.878   4.574
  455SOL     OW 1373   1.795   1.066   4.597
  455SOL    HW1 1374   1.733   1.051   4.521
  455SOL    HW2 1375   1.743   1.077   4.682
  456SOL     OW 1376   0.321   0.943   3.966
  456SOL    HW1 1377   0.403   0.982   3.924
  456SOL    HW2 1378   0.294   0.861   3.917
  457SOL     OW 1379   1.458   0.735   4.452
  457SOL    HW1 1380   1.453   0.670   4.527
  457SOL    HW2 1381   1.538   0.794   4.465
  458SOL     OW 1382   1.111   1.776   3.961
  458SOL    HW1 1383   1.051   1.714   4.011
  458SOL    HW2 1384   1.142   1.732   3.876
  459SOL     OW 1385   1.632   1.377   3.805
  459SOL    HW1 1386   1.600   1.471   3.795
  459SOL    HW2 1387   1.556   1.314   3.793
  460SOL     OW 1388   0.464   1.743   4.047
  460SOL    HW1 1389   0.497   1.782   4.133
  460SOL    HW2 1390   0.540   1.736   3.982
  461SOL     OW 1391   1.400   0.107   4.150
  461SOL    HW1 1392   1.376   0.070   4.060
  461SOL    HW2 1393   1.499   0.123   4.154
  462SOL     OW 1394   0.940   1.698   4.628
  462SOL    HW1 1395   1.020   1.641   4.649
  462SOL    HW2 1396   0.891   1.658   4.551
  463SOL     OW 1397   0.382   0.700   4.204
  463SOL    HW1 1398   0.427   0.610   4.201
  463SOL    HW2 1399   0.288   0.689   4.237
  464SOL     OW 1400   0.614   0.122   3.841
  464SOL    HW1 1401   0.712   0.100   3.848
  464SOL    HW2 1402   0.583   0.105   3.748
  465SOL     OW 1403   0.539   0.064   4.236
  465SOL    HW1 1404   0.458   0.065   4.294
  465SOL    HW2 1405   0.542   0.147   4.181
  466SOL     OW 1406   1.434   1.188   3.765
  466SOL    HW1 1407   1.466   1.112   3.822
  466SOL    HW2 1408   1.342   1.215   3.795
  467SOL     OW 1409   0.297   0.035   3.895
  467SOL    HW1 1410   0.346   0.119   3.874
  467SOL    HW2 1411   0.359  -0.030   3.940
  468SOL     OW 1412   0.935   0.236   4.204
  468SOL    HW1 1413   0.887   0.277   4.126
  468SOL    HW2 1414   1.034   0.234   4.185
  469SOL     OW 1415   0.459   1.152   4.465
  469SOL    HW1 1416   0.388   1.125   4.530
  469SOL    HW2 1417   0.433   1.124   4.372
  470SOL     OW 1418   1.271   1.797   4.315
  470SOL    HW1 1419   1.315   1.861   4.251
  470SOL    HW2 1420   1.221   1.849   4.385
  471SOL     OW 1421   1.032   0.549   3.740
  471SOL    HW1 1422   0.991   0.631   3.701
  471SOL    HW2 1423   1.096   0.575   3.813
  472SOL     OW 1424   0.866   0.454   4.366
  472SOL    HW1 1425   0.834   0.526   4.304
  472SOL    HW2 1426   0.890   0.373   4.313
  473SOL     OW 1427   1.857   0.833   4.101
  473SOL    HW1 1428   1.899   0.769   4.165
  473SOL    HW2 1429   1.819   0.782   4.023
  474SOL     OW 1430   0.488   1.385   3.898
  474SOL    HW1 1431   0.401   1.370   3.945
  474SOL    HW2 1432   0.471   1.411   3.803
  475SOL     OW 1433   1.664   1.280   4.381
  475SOL    HW1 1434   1.763   1.288   4.395
  475SOL    HW2 1435   1.619   1.364   4.412
  476SOL     OW 1436   1.390   0.575   3.802
  476SOL    HW1 1437   1.336   0.554   3.883
  476SOL    HW2 1438   1.481   0.534   3.811
  477SOL     OW 1439   0.527   0.256   4.052
  477SOL    HW1 1440   0.554   0.197   3.977
  477SOL    HW2 1441   0.527   0.351   4.021
  478SOL     OW 1442   0.705   1.050   4.092
  478SOL    HW1 1443   0.691   1.057   4.191
  478SOL    HW2 1444   0.789   0.999   4.074
  479SOL     OW 1445   0.367   1.100   4.225
  479SOL    HW1 1446   0.360   1.183   4.169
  479SOL    HW2 1447   0.371   1.020   4.165
  480SOL     OW 1448   1.252   1.348   4.112
  480SOL    HW1 1449   1.302   1.425   4.152
  480SOL    HW2 1450   1.157   1.350   4.144
  481SOL     OW 1451   1.582   0.639   4.196
  481SOL    HW1 1452   1.551   0.700   4.269
  481SOL    HW2 1453   1.632   0.691   4.127
  482SOL     OW 1454   1.209   0.525   3.999
  482SOL    HW1 1455   1.222   0.441   4.053
  482SOL    HW2 1456   1.180   0.599   4.059
  483SOL     OW 1457   0.307   0.063   4.342
  483SOL    HW1 1458   0.296   0.157   4.375
  483SOL    HW2 1459   0.302   0.000   4.419
  484SOL     OW 1460   1.622   0.367   4.098
  484SOL    HW1 1461   1.624   0.291   4.162
  484SOL    HW2 1462   1.574   0.444   4.138
  485SOL     OW 1463   1.023   0.766   4.690
  485SOL    HW1 1464   1.038   0.787   4.786
  485SOL    HW2 1465   0.993   0.671   4.681
  486SOL     OW 1466   1.540   0.274   3.849
  486SOL    HW1 1467   1.479   0.199   3.872
  486SOL    HW2 1468   1.562   0.326   3.932
  487SOL     OW 1469   1.303   0.838   3.766
  487SOL    HW1 1470   1.337   0.745   3.781
  487SOL    HW2 1471   1.321   0.865   3.671
  488SOL     OW 1472   0.008   1.326   3.924
  488SOL    HW1 1473  -0.085   1.347   3.893
  488SOL    HW2 1474   0.018   1.227   3.937
  489SOL     OW 1475   0.040   0.544   4.838
  489SOL    HW1 1476   0.125   0.511   4.797
  489SOL    HW2 1477   0.053   0.559   4.936
  490SOL     OW 1478   0.815   0.572   4.049
  490SOL    HW1 1479   0.822   0.483   4.003
  490SOL    HW2 1480   0.721   0.606   4.041
  491SOL     OW 1481   0.473   0.500   3.915
  491SOL    HW1 1482   0.534   0.580   3.919
  491SOL    HW2 1483   0.378   0.531   3.922
  492SOL     OW 1484   1.302   0.855   4.033
  492SOL    HW1 1485   1.216   0.824   4.075
  492SOL    HW2 1486   1.298   0.841   3.934
  493SOL     OW 1487   1.726   0.135   4.247
  493SOL    HW1 1488   1.799   0.118   4.180
  493SOL    HW2 1489   1.695   0.048   4.285
  494SOL     OW 1490   1.388   1.573   4.201
  494SOL    HW1 1491   1.455   1.585   4.127
  494SOL    HW2 1492   1.348   1.662   4.224
  495SOL     OW 1493   0.672   1.616   3.878
  495SOL    HW1 1494   0.681   1.626   3.779
  495SOL    HW2 1495   0.632   1.527   3.899
  496SOL     OW 1496   1.841   0.175   4.687
  496SOL    HW1 1497   1.880   0.090   4.651
  496SOL    HW2 1498   1.743   0.177   4.668
  497SOL     OW 1499   0.263   0.326   4.444
  497SOL    HW1 1500   0.184   0.377   4.410
  497SOL    HW2 1501   0.254   0.311   4.542
  498SOL     OW 1502   1.194   1.612   3.755
  498SOL    HW1 1503   1.200   1.519   3.792
  498SOL    HW2 1504   1.135   1.612   3.675
  499SOL     OW 1505   0.916   0.910   4.015
  499SOL    HW1 1506   0.979   0.948   3.947
  499SOL    HW2 1507   0.956   0.827   4.054
  500SOL     OW 1508   1.504   1.607   3.768
  500SOL    HW1 1509   1.412   1.644   3.775
  500SOL    HW2 1510   1.542   1.627   3.678
  501SOL     OW 1511   0.590   1.487   4.215
  501SOL    HW1 1512   0.632   1.429   4.145
  501SOL    HW2 1513   0.546   1.566   4.171
  502SOL     OW 1514   0.255   1.348   4.014
  502SOL    HW1 1515   0.159   1.349   3.987
  502SOL    HW2 1516   0.267   1.401   4.098
  503SOL     OW 1517   0.075   0.345   3.757
  503SOL    HW1 1518  -0.017   0.317   3.728
  503SOL    HW2 1519   0.106   0.422   3.701
  504SOL     OW 1520   0.072   0.166   4.042
  504SOL    HW1 1521   0.055   0.249   3.988
  504SOL    HW2 1522   0.162   0.129   4.020
  505SOL     OW 1523   1.183   1.335   3.843
  505SOL    HW1 1524   1.084   1.324   3.845
  505SOL    HW2 1525   1.217   1.350   3.936
  506SOL     OW 1526   1.225   0.325   4.173
  506SOL    HW1 1527   1.290   0.251   4.162
  506SOL    HW2 1528   1.245   0.375   4.257
  507SOL     OW 1529   0.594   0.745   4.376
  507SOL    HW1 1530   0.644   0.830   4.357
  507SOL    HW2 1531   0.506   0.747   4.328
  508SOL     OW 1532   0.859   1.374   3.740
  508SOL    HW1 1533   0.813   1.389   3.828
  508SOL    HW2 1534   0.903   1.459   3.710
  509SOL     OW 1535   0.661   1.790   4.677
  509SOL    HW1 1536   0.615   1.878   4.664
  509SOL    HW2 1537   0.760   1.802   4.670
  510SOL     OW 1538   0.859   0.956   4.585
  510SOL    HW1 1539   0.913   0.887   4.633
  510SOL    HW2 1540   0.827   1.025   4.651
  511SOL     OW 1541   1.083   0.984   3.811
  511SOL    HW1 1542   1.060   1.037   3.729
  511SOL    HW2 1543   1.164   0.928   3.792
  512SOL     OW 1544   0.079   1.240   4.377
  512SOL    HW1 1545   0.078   1.193   4.465
  512SOL    HW2 1546   0.161   1.212   4.326
  513SOL     OW 1547   0.428   0.424   4.244
  513SOL    HW1 1548   0.458   0.352   4.182
  513SOL    HW2 1549   0.389   0.384   4.327
  514SOL     OW 1550   1.705   1.487   4.828
  514SOL    HW1 1551   1.612   1.462   4.801
  514SOL    HW2 1552   1.731   1.437   4.910
  515SOL     OW 1553   0.812   1.586   4.411
  515SOL    HW1 1554   0.844   1.596   4.317
  515SOL    HW2 1555   0.733   1.524   4.413
  516SOL     OW 1556   0.770   1.330   4.025
  516SOL    HW1 1557   0.724   1.243   4.042
  516SOL    HW2 1558   0.861   1.327   4.066
  517SOL     OW 1559   1.352   0.052   3.892
  517SOL    HW1 1560   1.387   0.011   3.808
  517SOL    HW2 1561   1.262   0.014   3.912
  518SOL     OW 1562   1.300   0.453   4.415
  518SOL    HW1 1563   1.241   0.533   4.419
  518SOL    HW2 1564   1.315   0.418   4.508
  519SOL     OW 1565   0.039   1.077   4.024
  519SOL    HW1 1566   0.138   1.066   4.015
  519SOL    HW2 1567  -0.001   0.991   4.056
  520SOL     OW 1568   0.875   1.646   4.061
  520SOL    HW1 1569   0.798   1.611   4.007
  520SOL    HW2 1570   0.843   1.717   4.123
  521SOL     OW 1571   0.230   2.490   0.113
  521SOL    HW1 1572   0.137   2.488   0.150
  521SOL    HW2 1573   0.231   2.451   0.021
  522SOL     OW 1574   0.225   2.137   0.996
  522SOL    HW1 1575   0.260   2.120   1.088
  522SOL    HW2 1576   0.137   2.092   0.984
  523SOL     OW 1577   0.019   2.230   0.647
  523SOL    HW1 1578  -0.063   2.273   0.686
  523SOL    HW2 1579  -0.009   2.157   0.584
  524SOL     OW 1580   0.569   3.137   1.165
  524SOL    HW1 1581   0.476   3.130   1.128
  524SOL    HW2 1582   0.580   3.226   1.209
  525SOL     OW 1583   1.555   3.373   0.703
  525SOL    HW1 1584   1.498   3.357   0.784
  525SOL    HW2 1585   1.496   3.383   0.623
  526SOL     OW 1586   1.135   2.565   0.717
  526SOL    HW1 1587   1.192   2.643   0.692
  526SOL    HW2 1588   1.075   2.591   0.793
  527SOL     OW 1589   1.755   2.469   0.231
  527SOL    HW1 1590   1.743   2.456   0.132
  527SOL    HW2 1591   1.725   2.388   0.280
  528SOL     OW 1592   0.768   3.006   1.023
  528SOL    HW1 1593   0.690   3.023   1.083
  528SOL    HW2 1594   0.802   3.093   0.987
  529SOL     OW 1595   0.850   2.660   1.823
  529SOL    HW1 1596   0.846   2.736   1.888
  529SOL    HW2 1597   0.872   2.696   1.732
  530SOL     OW 1598   0.685   2.874   0.665
  530SOL    HW1 1599   0.754   2.858   0.735
  530SOL    HW2 1600   0.612   2.931   0.703
  531SOL     OW 1601   0.686   3.023   1.803
  531SOL    HW1 1602   0.746   3.102   1.817
  531SOL    HW2 1603   0.600   3.054   1.762
  532SOL     OW 1604   0.335   3.297   1.061
  532SOL    HW1 1605   0.257   3.266   1.008
  532SOL    HW2 1606   0.393   3.355   1.004
  533SOL     OW 1607   1.460   3.367   1.339
  533SOL    HW1 1608   1.484   3.461   1.365
  533SOL    HW2 1609   1.444   3.313   1.421
  534SOL     OW 1610   0.438   2.254   1.499
  534SOL    HW1 1611   0.520   2.198   1.508
  534SOL    HW2 1612   0.357   2.196   1.503
  535SOL     OW 1613   1.603   2.309   0.737
  535SOL    HW1 1614   1.529   2.355   0.687
  535SOL    HW2 1615   1.654   2.377   0.790
  536SOL     OW 1616   0.231   3.575   0.483
  536SOL    HW1 1617   0.265   3.652   0.537
  536SOL    HW2 1618   0.275   3.575   0.393
  537SOL     OW 1619   1.127   3.203   1.690
  537SOL    HW1 1620   1.174   3.203   1.778
  537SOL    HW2 1621   1.079   3.116   1.679
  538SOL     OW 1622   0.230   3.296   0.538
  538SOL    HW1 1623   0.204   3.392   0.538
  538SOL    HW2 1624   0.159   3.242   0.583
  539SOL     OW 1625   0.240   2.953   0.886
  539SOL    HW1 1626   0.254   2.869   0.938
  539SOL    HW2 1627   0.185   3.017   0.941
  540SOL     OW 1628   0.620   3.648   1.439
  540SOL    HW1 1629   0.528   3.631   1.474
  540SOL    HW2 1630   0.648   3.740   1.465
  541SOL     OW 1631   0.606   2.826   0.123
  541SOL    HW1 1632   0.613   2.910   0.069
  541SOL    HW2 1633   0.652   2.839   0.211
  542SOL     OW 1634   1.594   1.976   1.480
  542SOL    HW1 1635   1.576   2.043   1.408
  542SOL    HW2 1636   1.591   2.022   1.569
  543SOL     OW 1637   0.122   2.505   0.563
  543SOL    HW1 1638   0.077   2.417   0.580
  543SOL    HW2 1639   0.121   2.559   0.647
  544SOL     OW 1640   1.842   3.629   0.359
  544SOL    HW1 1641   1.896   3.600   0.439
  544SOL    HW2 1642   1.872   3.719   0.330
  545SOL     OW 1643   0.027   3.458   0.117
  545SOL    HW1 1644   0.008   3.362   0.138
  545SOL    HW2 1645  -0.006   3.516   0.192
  546SOL     OW 1646   1.689   2.784   0.612
  546SOL    HW1 1647   1.784   2.755   0.620
  546SOL    HW2 1648   1.681   2.849   0.537
  547SOL     OW 1649   1.641   2.970   0.432
  547SOL    HW1 1650   1.727   2.972   0.380
  547SOL    HW2 1651   1.655   3.017   0.520
  548SOL     OW 1652   0.113   2.599   1.597
  548SOL    HW1 1653   0.201   2.586   1.642
  548SOL    HW2 1654   0.100   2.696   1.575
  549SOL     OW 1655   0.613   3.227   0.726
  549SOL    HW1 1656   0.564   3.140   0.735
  549SOL    HW2 1657   0.590   3.270   0.639
  550SOL     OW 1658   1.293   3.090   1.423
  550SOL    HW1 1659   1.330   3.017   1.365
  550SOL    HW2 1660   1.345   3.095   1.508
  551SOL     OW 1661   0.809   1.866   0.502
  551SOL    HW1 1662   0.849   1.957   0.493
  551SOL    HW2 1663   0.709   1.874   0.508
  552SOL     OW 1664   0.197   2.838   1.264
  552SOL    HW1 1665   0.286   2.793   1.250
  552SOL    HW2 1666   0.124   2.773   1.245
  553SOL     OW 1667   1.525   2.861   0.190
  553SOL    HW1 1668   1.462   2.785   0.203
  553SOL    HW2 1669   1.573   2.879   0.276
  554SOL     OW 1670   1.187   3.654   1.616
  554SOL    HW1 1671   1.211   3.714   1.540
  554SOL    HW2 1672   1.194   3.559   1.586
  555SOL     OW 1673   0.317   2.113   1.801
  555SOL    HW1 1674   0.388   2.184   1.807
  555SOL    HW2 1675   0.229   2.152   1.829
  556SOL     OW 1676   1.466   3.279   0.953
  556SOL    HW1 1677   1.407   3.285   1.033
  556SOL    HW2 1678   1.451   3.191   0.907
  557SOL     OW 1679   1.667   3.576   0.572
  557SOL    HW1 1680   1.626   3.553   0.484
  557SOL    HW2 1681   1.649   3.502   0.637
  558SOL     OW 1682   0.598   2.591   0.270
  558SOL    HW1 1683   0.622   2.660   0.202
  558SOL    HW2 1684   0.520   2.624   0.324
  559SOL     OW 1685   1.281   2.207   0.944
  559SOL    HW1 1686   1.195   2.157   0.931
  559SOL    HW2 1687   1.343   2.153   1.000
  560SOL     OW 1688   1.576   3.524   0.307
  560SOL    HW1 1689   1.665   3.570   0.310
  560SOL    HW2 1690   1.555   3.500   0.212
  561SOL     OW 1691   0.807   2.467   1.465
  561SOL    HW1 1692   0.760   2.464   1.554
  561SOL    HW2 1693   0.756   2.412   1.399
  562SOL     OW 1694   1.394   2.331   1.674
  562SOL    HW1 1695   1.374   2.374   1.762
  562SOL    HW2 1696   1.472   2.269   1.683
  563SOL     OW 1697   0.973   2.752   1.572
  563SOL    HW1 1698   1.019   2.668   1.543
  563SOL    HW2 1699   0.917   2.786   1.497
  564SOL     OW 1700   0.991   2.272   1.242
  564SOL    HW1 1701   0.914   2.306   1.296
  564SOL    HW2 1702   0.957   2.221   1.163
  565SOL     OW 1703   1.041   2.563   0.429
  565SOL    HW1 1704   1.067   2.559   0.525
  565SOL    HW2 1705   0.956   2.512   0.415
  566SOL     OW 1706   0.076   2.673   0.789
  566SOL    HW1 1707   0.175   2.661   0.798
  566SOL    HW2 1708   0.052   2.768   0.810
  567SOL     OW 1709   0.130   3.683   1.571
  567SOL    HW1 1710   0.120   3.668   1.670
  567SOL    HW2 1711   0.044   3.719   1.535
  568SOL     OW 1712   0.865   2.210   0.195
  568SOL    HW1 1713   0.924   2.273   0.146
  568SOL    HW2 1714   0.884   2.116   0.166
  569SOL     OW 1715   1.719   2.447   1.831
  569SOL    HW1 1716   1.693   2.536   1.795
  569SOL    HW2 1717   1.717   2.379   1.758
  570SOL     OW 1718   1.362   3.006   0.545
  570SOL    HW1 1719   1.445   2.977   0.497
  570SOL    HW2 1720   1.313   3.073   0.489
  571SOL     OW 1721   0.550   2.058   0.885
  571SOL    HW1 1722   0.545   2.053   0.985
  571SOL    HW2 1723   0.552   2.154   0.856
  572SOL     OW 1724   1.008   3.318   0.477
  572SOL    HW1 1725   0.962   3.390   0.425
  572SOL    HW2 1726   1.004   3.338   0.575
  573SOL     OW 1727   0.351   3.663   0.853
  573SOL    HW1 1728   0.401   3.577   0.859
  573SOL    HW2 1729   0.416   3.740   0.850
  574SOL     OW 1730   1.795   2.928   0.873
  574SOL    HW1 1731   1.733   2.913   0.797
  574SOL    HW2 1732   1.743   2.939   0.958
  575SOL     OW 1733   1.227   3.412   1.506
  575SOL    HW1 1734   1.233   3.335   1.570
  575SOL    HW2 1735   1.175   3.386   1.426
  576SOL     OW 1736   0.321   2.805   0.242
  576SOL    HW1 1737   0.403   2.844   0.200
  576SOL    HW2 1738   0.294   2.723   0.193
  577SOL     OW 1739   1.458   2.597   0.728
  577SOL    HW1 1740   1.453   2.532   0.803
  577SOL    HW2 1741   1.538   2.656   0.741
  578SOL     OW 1742   0.461   3.128   1.727
  578SOL    HW1 1743   0.411   3.129   1.641
  578SOL    HW2 1744   0.398   3.110   1.803
  579SOL     OW 1745   1.111   3.638   0.237
  579SOL    HW1 1746   1.051   3.576   0.287
  579SOL    HW2 1747   1.142   3.594   0.152
  580SOL     OW 1748   0.202   2.147   1.498
  580SOL    HW1 1749   0.122   2.207   1.485
  580SOL    HW2 1750   0.192   2.098   1.584
  581SOL     OW 1751   1.632   3.239   0.081
  581SOL    HW1 1752   1.600   3.333   0.071
  581SOL    HW2 1753   1.556   3.176   0.069
  582SOL     OW 1754   0.464   3.605   0.323
  582SOL    HW1 1755   0.497   3.644   0.409
  582SOL    HW2 1756   0.540   3.598   0.258
  583SOL     OW 1757   1.400   1.969   0.426
  583SOL    HW1 1758   1.376   1.932   0.336
  583SOL    HW2 1759   1.499   1.985   0.430
  584SOL     OW 1760   0.249   3.647   1.241
  584SOL    HW1 1761   0.306   3.582   1.291
  584SOL    HW2 1762   0.233   3.614   1.148
  585SOL     OW 1763   0.940   3.560   0.904
  585SOL    HW1 1764   1.020   3.503   0.925
  585SOL    HW2 1765   0.891   3.520   0.827
  586SOL     OW 1766   0.382   2.562   0.480
  586SOL    HW1 1767   0.427   2.472   0.477
  586SOL    HW2 1768   0.288   2.551   0.513
  587SOL     OW 1769   1.547   2.084   1.729
  587SOL    HW1 1770   1.542   2.121   1.821
  587SOL    HW2 1771   1.475   2.015   1.717
  588SOL     OW 1772   0.781   2.126   1.749
  588SOL    HW1 1773   0.848   2.065   1.792
  588SOL    HW2 1774   0.708   2.145   1.814
  589SOL     OW 1775   0.888   3.376   1.195
  589SOL    HW1 1776   0.865   3.351   1.101
  589SOL    HW2 1777   0.949   3.307   1.234
  590SOL     OW 1778   1.351   2.452   1.433
  590SOL    HW1 1779   1.379   2.409   1.518
  590SOL    HW2 1780   1.376   2.548   1.434
  591SOL     OW 1781   0.803   3.264   0.924
  591SOL    HW1 1782   0.893   3.278   0.882
  591SOL    HW2 1783   0.732   3.266   0.853
  592SOL     OW 1784   0.922   2.365   0.899
  592SOL    HW1 1785   0.897   2.356   0.803
  592SOL    HW2 1786   0.970   2.283   0.930
  593SOL     OW 1787   0.539   1.926   0.512
  593SOL    HW1 1788   0.458   1.927   0.570
  593SOL    HW2 1789   0.542   2.009   0.457
  594SOL     OW 1790   1.434   3.050   0.041
  594SOL    HW1 1791   1.466   2.974   0.098
  594SOL    HW2 1792   1.342   3.077   0.071
  595SOL     OW 1793   0.297   1.897   0.171
  595SOL    HW1 1794   0.346   1.981   0.150
  595SOL    HW2 1795   0.359   1.832   0.216
  596SOL     OW 1796   0.935   2.098   0.480
  596SOL    HW1 1797   0.887   2.139   0.402
  596SOL    HW2 1798   1.034   2.096   0.461
  597SOL     OW 1799   1.076   2.545   1.464
  597SOL    HW1 1800   0.996   2.484   1.467
  597SOL    HW2 1801   1.157   2.492   1.440
  598SOL     OW 1802   1.227   3.432   0.793
  598SOL    HW1 1803   1.248   3.506   0.728
  598SOL    HW2 1804   1.295   3.432   0.866
  599SOL     OW 1805   0.459   3.014   0.741
  599SOL    HW1 1806   0.388   2.987   0.806
  599SOL    HW2 1807   0.433   2.986   0.648
  600SOL     OW 1808   1.271   3.659   0.591
  600SOL    HW1 1809   1.315   3.723   0.527
  600SOL    HW2 1810   1.221   3.711   0.661
  601SOL     OW 1811   1.032   2.411   0.016
  601SOL    HW1 1812   0.991   2.493  -0.023
  601SOL    HW2 1813   1.096   2.437   0.089
  602SOL     OW 1814   0.078   2.418   1.386
  602SOL    HW1 1815   0.170   2.417   1.345
  602SOL    HW2 1816   0.072   2.492   1.453
  603SOL     OW 1817   0.561   2.084   1.147
  603SOL    HW1 1818   0.599   2.000   1.184
  603SOL    HW2 1819   0.473   2.103   1.191
  604SOL     OW 1820   0.866   2.316   0.642
  604SOL    HW1 1821   0.834   2.388   0.580
  604SOL    HW2 1822   0.890   2.235   0.589
  605SOL     OW 1823   1.017   1.901   0.753
  605SOL    HW1 1824   0.945   1.906   0.684
  605SOL    HW2 1825   0.993   1.832   0.822
  606SOL     OW 1826   1.429   3.035   0.867
  606SOL    HW1 1827   1.374   2.951   0.860
  606SOL    HW2 1828   1.455   3.064   0.775
  607SOL     OW 1829   1.466   2.452   0.992
  607SOL    HW1 1830   1.436   2.357   0.999
  607SOL    HW2 1831   1.539   2.468   1.058
  608SOL     OW 1832   1.857   2.695   0.377
  608SOL    HW1 1833   1.899   2.631   0.441
  608SOL    HW2 1834   1.819   2.644   0.299
  609SOL     OW 1835   0.488   3.247   0.174
  609SOL    HW1 1836   0.401   3.232   0.221
  609SOL    HW2 1837   0.471   3.273   0.079
  610SOL     OW 1838   1.664   3.142   0.657
  610SOL    HW1 1839   1.763   3.150   0.671
  610SOL    HW2 1840   1.619   3.226   0.688
  611SOL     OW 1841   1.390   2.437   0.078
  611SOL    HW1 1842   1.336   2.416   0.159
  611SOL    HW2 1843   1.481   2.396   0.087
  612SOL     OW 1844   0.527   2.118   0.328
  612SOL    HW1 1845   0.554   2.059   0.253
  612SOL    HW2 1846   0.527   2.213   0.297
  613SOL     OW 1847   1.754   3.085   1.588
  613SOL    HW1 1848   1.845   3.046   1.575
  613SOL    HW2 1849   1.762   3.181   1.612
  614SOL     OW 1850   1.064   3.209   1.340
  614SOL    HW1 1851   0.984   3.186   1.395
  614SOL    HW2 1852   1.147   3.183   1.389
  615SOL     OW 1853   1.592   3.491   1.625
  615SOL    HW1 1854   1.619   3.525   1.535
  615SOL    HW2 1855   1.671   3.453   1.671
  616SOL     OW 1856   1.111   3.057   1.100
  616SOL    HW1 1857   1.071   3.101   1.181
  616SOL    HW2 1858   1.070   3.094   1.017
  617SOL     OW 1859   1.638   2.961   1.079
  617SOL    HW1 1860   1.643   3.042   1.138
  617SOL    HW2 1861   1.552   2.963   1.028
  618SOL     OW 1862   0.915   1.951   1.402
  618SOL    HW1 1863   0.940   1.931   1.307
  618SOL    HW2 1864   0.987   2.007   1.444
  619SOL     OW 1865   0.980   2.978   1.719
  619SOL    HW1 1866   0.881   2.984   1.729
  619SOL    HW2 1867   1.003   2.898   1.663
  620SOL     OW 1868   0.705   2.912   0.368
  620SOL    HW1 1869   0.691   2.919   0.467
  620SOL    HW2 1870   0.789   2.861   0.350
  621SOL     OW 1871   0.410   2.675   1.251
  621SOL    HW1 1872   0.496   2.687   1.301
  621SOL    HW2 1873   0.368   2.588   1.278
  622SOL     OW 1874   1.274   2.248   1.262
  622SOL    HW1 1875   1.295   2.322   1.326
  622SOL    HW2 1876   1.185   2.265   1.219
  623SOL     OW 1877   0.064   3.426   1.331
  623SOL    HW1 1878   0.018   3.508   1.297
  623SOL    HW2 1879   0.162   3.445   1.340
  624SOL     OW 1880   0.367   2.962   0.501
  624SOL    HW1 1881   0.360   3.045   0.445
  624SOL    HW2 1882   0.371   2.882   0.441
  625SOL     OW 1883   0.566   2.399   0.865
  625SOL    HW1 1884   0.578   2.465   0.791
  625SOL    HW2 1885   0.612   2.433   0.948
  626SOL     OW 1886   1.252   3.210   0.388
  626SOL    HW1 1887   1.302   3.287   0.428
  626SOL    HW2 1888   1.157   3.212   0.420
  627SOL     OW 1889   1.272   3.307   1.142
  627SOL    HW1 1890   1.319   3.320   1.229
  627SOL    HW2 1891   1.206   3.233   1.151
  628SOL     OW 1892   1.582   2.501   0.472
  628SOL    HW1 1893   1.551   2.562   0.545
  628SOL    HW2 1894   1.632   2.553   0.403
  629SOL     OW 1895   0.354   3.372   1.329
  629SOL    HW1 1896   0.333   3.328   1.242
  629SOL    HW2 1897   0.451   3.398   1.332
  630SOL     OW 1898   0.402   2.613   1.598
  630SOL    HW1 1899   0.470   2.668   1.551
  630SOL    HW2 1900   0.442   2.525   1.625
  631SOL     OW 1901   1.587   2.641   1.670
  631SOL    HW1 1902   1.495   2.679   1.665
  631SOL    HW2 1903   1.647   2.688   1.605
  632SOL     OW 1904   1.013   1.967   1.770
  632SOL    HW1 1905   1.019   2.052   1.718
  632SOL    HW2 1906   1.045   1.891   1.713
  633SOL     OW 1907   0.504   1.912   1.740
  633SOL    HW1 1908   0.462   1.855   1.670
  633SOL    HW2 1909   0.438   1.981   1.772
  634SOL     OW 1910   0.573   2.732   1.029
  634SOL    HW1 1911   0.617   2.821   1.020
  634SOL    HW2 1912   0.510   2.732   1.106
  635SOL     OW 1913   1.360   2.724   1.045
  635SOL    HW1 1914   1.285   2.724   0.979
  635SOL    HW2 1915   1.397   2.632   1.054
  636SOL     OW 1916   1.209   2.387   0.275
  636SOL    HW1 1917   1.222   2.303   0.329
  636SOL    HW2 1918   1.180   2.461   0.335
  637SOL     OW 1919   0.307   2.075   1.231
  637SOL    HW1 1920   0.284   2.112   1.321
  637SOL    HW2 1921   0.277   1.980   1.225
  638SOL     OW 1922   0.037   3.172   1.282
  638SOL    HW1 1923   0.090   3.123   1.350
  638SOL    HW2 1924   0.059   3.270   1.287
  639SOL     OW 1925   0.732   2.496   1.064
  639SOL    HW1 1926   0.791   2.470   0.988
  639SOL    HW2 1927   0.704   2.592   1.053
  640SOL     OW 1928   1.728   2.797   1.854
  640SOL    HW1 1929   1.682   2.790   1.765
  640SOL    HW2 1930   1.666   2.841   1.920
  641SOL     OW 1931   0.307   1.925   0.618
  641SOL    HW1 1932   0.296   2.019   0.651
  641SOL    HW2 1933   0.302   1.862   0.695
  642SOL     OW 1934   1.622   2.229   0.374
  642SOL    HW1 1935   1.624   2.153   0.438
  642SOL    HW2 1936   1.574   2.306   0.414
  643SOL     OW 1937   1.023   2.628   0.966
  643SOL    HW1 1938   1.038   2.649   1.062
  643SOL    HW2 1939   0.993   2.533   0.957
  644SOL     OW 1940   0.980   3.435   1.700
  644SOL    HW1 1941   0.960   3.479   1.612
  644SOL    HW2 1942   1.019   3.344   1.684
  645SOL     OW 1943   1.859   3.380   1.605
  645SOL    HW1 1944   1.873   3.407   1.510
  645SOL    HW2 1945   1.942   3.402   1.658
  646SOL     OW 1946   0.350   2.760   1.804
  646SOL    HW1 1947   0.426   2.804   1.852
  646SOL    HW2 1948   0.385   2.713   1.722
  647SOL     OW 1949   1.540   2.136   0.125
  647SOL    HW1 1950   1.479   2.061   0.148
  647SOL    HW2 1951   1.562   2.188   0.208
  648SOL     OW 1952   1.303   2.700   0.042
  648SOL    HW1 1953   1.337   2.607   0.057
  648SOL    HW2 1954   1.321   2.727  -0.053
  649SOL     OW 1955   1.068   3.195   0.849
  649SOL    HW1 1956   1.075   3.111   0.794
  649SOL    HW2 1957   1.130   3.264   0.813
  650SOL     OW 1958   0.319   2.672   0.949
  650SOL    HW1 1959   0.412   2.708   0.954
  650SOL    HW2 1960   0.313   2.587   1.001
  651SOL     OW 1961   0.339   2.371   1.006
  651SOL    HW1 1962   0.287   2.288   0.989
  651SOL    HW2 1963   0.416   2.376   0.942
  652SOL     OW 1964   1.138   2.242   1.678
  652SOL    HW1 1965   1.093   2.305   1.742
  652SOL    HW2 1966   1.231   2.273   1.661
  653SOL     OW 1967   1.160   2.069   1.477
  653SOL    HW1 1968   1.160   2.133   1.554
  653SOL    HW2 1969   1.188   2.117   1.394
  654SOL     OW 1970   0.008   3.188   0.200
  654SOL    HW1 1971  -0.085   3.209   0.169
  654SOL    HW2 1972   0.018   3.089   0.213
  655SOL     OW 1973   0.088   3.663   0.927
  655SOL    HW1 1974   0.046   3.577   0.900
  655SOL    HW2 1975   0.182   3.666   0.893
  656SOL     OW 1976   0.504   3.430   0.910
  656SOL    HW1 1977   0.570   3.504   0.919
  656SOL    HW2 1978   0.548   3.351   0.868
  657SOL     OW 1979   1.002   2.658   1.238
  657SOL    HW1 1980   1.043   2.626   1.324
  657SOL    HW2 1981   0.906   2.631   1.235
  658SOL     OW 1982   0.040   2.406   1.114
  658SOL    HW1 1983   0.125   2.373   1.073
  658SOL    HW2 1984   0.053   2.421   1.212
  659SOL     OW 1985   0.189   2.382   1.722
  659SOL    HW1 1986   0.248   2.342   1.652
  659SOL    HW2 1987   0.131   2.453   1.681
  660SOL     OW 1988   1.369   2.812   1.660
  660SOL    HW1 1989   1.408   2.901   1.680
  660SOL    HW2 1990   1.379   2.792   1.563
  661SOL     OW 1991   0.815   2.434   0.325
  661SOL    HW1 1992   0.822   2.345   0.279
  661SOL    HW2 1993   0.721   2.468   0.317
  662SOL     OW 1994   1.657   2.466   1.206
  662SOL    HW1 1995   1.619   2.397   1.268
  662SOL    HW2 1996   1.739   2.430   1.162
  663SOL     OW 1997   0.252   3.426   1.744
  663SOL    HW1 1998   0.222   3.483   1.820
  663SOL    HW2 1999   0.245   3.329   1.770
  664SOL     OW 2000   0.671   2.326   1.269
  664SOL    HW1 2001   0.637   2.237   1.239
  664SOL    HW2 2002   0.697   2.380   1.189
  665SOL     OW 2003   0.930   3.540   1.465
  665SOL    HW1 2004   0.906   3.522   1.370
  665SOL    HW2 2005   0.960   3.634   1.475
  666SOL     OW 2006   0.473   2.362   0.191
  666SOL    HW1 2007   0.534   2.442   0.195
  666SOL    HW2 2008   0.378   2.393   0.198
  667SOL     OW 2009   0.159   2.999   1.466
  667SOL    HW1 2010   0.181   2.938   1.542
  667SOL    HW2 2011   0.169   2.950   1.380
  668SOL     OW 2012   1.347   2.921   1.234
  668SOL    HW1 2013   1.371   2.858   1.160
  668SOL    HW2 2014   1.257   2.961   1.216
  669SOL     OW 2015   1.302   2.717   0.309
  669SOL    HW1 2016   1.216   2.686   0.351
  669SOL    HW2 2017   1.298   2.703   0.210
  670SOL     OW 2018   1.759   3.609   1.154
  670SOL    HW1 2019   1.820   3.639   1.081
  670SOL    HW2 2020   1.721   3.520   1.132
  671SOL     OW 2021   1.252   3.593   1.128
  671SOL    HW1 2022   1.336   3.598   1.074
  671SOL    HW2 2023   1.229   3.497   1.146
  672SOL     OW 2024   0.083   3.120   1.022
  672SOL    HW1 2025   0.078   3.119   1.122
  672SOL    HW2 2026   0.000   3.079   0.984
  673SOL     OW 2027   0.688   3.524   1.716
  673SOL    HW1 2028   0.632   3.605   1.725
  673SOL    HW2 2029   0.740   3.528   1.630
  674SOL     OW 2030   0.903   1.948   0.133
  674SOL    HW1 2031   0.954   1.949   0.047
  674SOL    HW2 2032   0.959   1.906   0.204
  675SOL     OW 2033   1.726   1.997   0.523
  675SOL    HW1 2034   1.799   1.980   0.456
  675SOL    HW2 2035   1.695   1.910   0.561
  676SOL     OW 2036   1.388   3.435   0.477
  676SOL    HW1 2037   1.455   3.447   0.403
  676SOL    HW2 2038   1.348   3.524   0.500
  677SOL     OW 2039   0.130   3.656   1.851
  677SOL    HW1 2040   0.089   3.582   1.904
  677SOL    HW2 2041   0.194   3.707   1.909
  678SOL     OW 2042   1.280   2.789   0.672
  678SOL    HW1 2043   1.340   2.708   0.674
  678SOL    HW2 2044   1.320   2.858   0.612
  679SOL     OW 2045   0.830   3.135   1.422
  679SOL    HW1 2046   0.825   3.168   1.517
  679SOL    HW2 2047   0.744   3.154   1.376
  680SOL     OW 2048   0.672   3.478   0.154
  680SOL    HW1 2049   0.681   3.488   0.055
  680SOL    HW2 2050   0.632   3.389   0.175
  681SOL     OW 2051   1.650   3.582   1.394
  681SOL    HW1 2052   1.703   3.592   1.310
  681SOL    HW2 2053   1.623   3.672   1.428
  682SOL     OW 2054   1.841   2.037   0.963
  682SOL    HW1 2055   1.880   1.952   0.927
  682SOL    HW2 2056   1.743   2.039   0.944
  683SOL     OW 2057   0.263   2.188   0.720
  683SOL    HW1 2058   0.184   2.239   0.686
  683SOL    HW2 2059   0.254   2.173   0.818
  684SOL     OW 2060   1.194   3.474   0.031
  684SOL    HW1 2061   1.200   3.381   0.068
  684SOL    HW2 2062   1.135   3.474  -0.049
  685SOL     OW 2063   0.822   2.864   1.372
  685SOL    HW1 2064   0.862   2.863   1.280
  685SOL    HW2 2065   0.832   2.956   1.412
  686SOL     OW 2066   0.916   2.772   0.291
  686SOL    HW1 2067   0.979   2.810   0.223
  686SOL    HW2 2068   0.956   2.689   0.330
  687SOL     OW 2069   1.504   3.469   0.044
  687SOL    HW1 2070   1.412   3.506   0.051
  687SOL    HW2 2071   1.542   3.489  -0.046
  688SOL     OW 2072   0.372   3.150   1.490
  688SOL    HW1 2073   0.359   3.243   1.456
  688SOL    HW2 2074   0.288   3.098   1.477
  689SOL     OW 2075   1.614   3.154   1.289
  689SOL    HW1 2076   1.674   3.157   1.369
  689SOL    HW2 2077   1.539   3.218   1.302
  690SOL     OW 2078   1.039   2.960   0.696
  690SOL    HW1 2079   0.969   2.913   0.750
  690SOL    HW2 2080   1.098   2.892   0.653
  691SOL     OW 2081   1.014   2.098   0.971
  691SOL    HW1 2082   1.006   2.062   0.878
  691SOL    HW2 2083   1.012   2.022   1.036
  692SOL     OW 2084   0.590   3.349   0.491
  692SOL    HW1 2085   0.632   3.291   0.421
  692SOL    HW2 2086   0.546   3.428   0.447
  693SOL     OW 2087   1.709   2.247   1.381
  693SOL    HW1 2088   1.782   2.316   1.385
  693SOL    HW2 2089   1.737   2.172   1.322
  694SOL     OW 2090   0.255   3.210   0.290
  694SOL    HW1 2091   0.159   3.211   0.263
  694SOL    HW2 2092   0.267   3.263   0.374
  695SOL     OW 2093   0.105   2.875   1.726
  695SOL    HW1 2094   0.028   2.842   1.780
  695SOL    HW2 2095   0.190   2.845   1.768
  696SOL     OW 2096   0.672   2.065   1.489
  696SOL    HW1 2097   0.762   2.049   1.449
  696SOL    HW2 2098   0.680   2.070   1.588
  697SOL     OW 2099   0.075   2.207   0.033
  697SOL    HW1 2100  -0.017   2.179   0.004
  697SOL    HW2 2101   0.106   2.284  -0.023
  698SOL     OW 2102   1.440   2.718   1.398
  698SOL    HW1 2103   1.383   2.770   1.335
  698SOL    HW2 2104   1.536   2.730   1.374
  699SOL     OW 2105   0.072   2.028   0.318
  699SOL    HW1 2106   0.055   2.111   0.264
  699SOL    HW2 2107   0.162   1.991   0.296
  700SOL     OW 2108   1.183   3.197   0.119
  700SOL    HW1 2109   1.084   3.186   0.121
  700SOL    HW2 2110   1.217   3.212   0.212
  701SOL     OW 2111   0.613   2.704   1.431
  701SOL    HW1 2112   0.669   2.785   1.414
  701SOL    HW2 2113   0.672   2.624   1.434
  702SOL     OW 2114   1.493   3.629   0.959
  702SOL    HW1 2115   1.526   3.693   0.890
  702SOL    HW2 2116   1.559   3.623   1.034
  703SOL     OW 2117   0.716   2.427   1.708
  703SOL    HW1 2118   0.735   2.492   1.782
  703SOL    HW2 2119   0.776   2.347   1.717
  704SOL     OW 2120   1.450   3.082   1.633
  704SOL    HW1 2121   1.441   3.072   1.732
  704SOL    HW2 2122   1.546   3.075   1.607
  705SOL     OW 2123   0.390   3.603   1.560
  705SOL    HW1 2124   0.299   3.644   1.558
  705SOL    HW2 2125   0.383   3.509   1.592
  706SOL     OW 2126   1.674   2.745   1.254
  706SOL    HW1 2127   1.647   2.656   1.217
  706SOL    HW2 2128   1.675   2.813   1.181
  707SOL     OW 2129   1.225   2.187   0.449
  707SOL    HW1 2130   1.290   2.113   0.438
  707SOL    HW2 2131   1.245   2.237   0.533
  708SOL     OW 2132   0.594   2.607   0.652
  708SOL    HW1 2133   0.644   2.692   0.633
  708SOL    HW2 2134   0.506   2.609   0.604
  709SOL     OW 2135   1.777   2.204   1.642
  709SOL    HW1 2136   1.760   2.235   1.548
  709SOL    HW2 2137   1.693   2.167   1.680
  710SOL     OW 2138   1.730   2.796   1.517
  710SOL    HW1 2139   1.768   2.887   1.532
  710SOL    HW2 2140   1.722   2.779   1.418
  711SOL     OW 2141   0.859   3.236   0.016
  711SOL    HW1 2142   0.813   3.251   0.104
  711SOL    HW2 2143   0.903   3.321  -0.014
  712SOL     OW 2144   0.661   3.652   0.953
  712SOL    HW1 2145   0.615   3.740   0.940
  712SOL    HW2 2146   0.760   3.664   0.946
  713SOL     OW 2147   0.859   2.818   0.861
  713SOL    HW1 2148   0.913   2.749   0.909
  713SOL    HW2 2149   0.827   2.887   0.927
  714SOL     OW 2150   1.083   2.846   0.087
  714SOL    HW1 2151   1.060   2.899   0.005
  714SOL    HW2 2152   1.164   2.790   0.068
  715SOL     OW 2153   1.861   3.431   0.851
  715SOL    HW1 2154   1.790   3.419   0.781
  715SOL    HW2 2155   1.862   3.352   0.911
  716SOL     OW 2156   0.221   3.176   1.844
  716SOL    HW1 2157   0.156   3.103   1.823
  716SOL    HW2 2158   0.225   3.190   1.942
  717SOL     OW 2159   0.079   3.102   0.653
  717SOL    HW1 2160   0.078   3.055   0.741
  717SOL    HW2 2161   0.161   3.074   0.602
  718SOL     OW 2162   0.672   3.253   1.624
  718SOL    HW1 2163   0.594   3.203   1.662
  718SOL    HW2 2164   0.669   3.348   1.655
  719SOL     OW 2165   1.824   2.054   1.227
  719SOL    HW1 2166   1.820   1.964   1.271
  719SOL    HW2 2167   1.827   2.043   1.128
  720SOL     OW 2168   0.428   2.286   0.520
  720SOL    HW1 2169   0.458   2.214   0.458
  720SOL    HW2 2170   0.389   2.246   0.603
  721SOL     OW 2171   1.705   3.349   1.104
  721SOL    HW1 2172   1.612   3.324   1.077
  721SOL    HW2 2173   1.731   3.299   1.186
  722SOL     OW 2174   0.317   2.409   1.280
  722SOL    HW1 2175   0.355   2.350   1.352
  722SOL    HW2 2176   0.357   2.383   1.192
  723SOL     OW 2177   0.812   3.448   0.687
  723SOL    HW1 2178   0.844   3.458   0.593
  723SOL    HW2 2179   0.733   3.386   0.689
  724SOL     OW 2180   1.424   2.076   1.112
  724SOL    HW1 2181   1.476   2.011   1.167
  724SOL    HW2 2182   1.375   2.139   1.173
  725SOL     OW 2183   1.001   1.896   1.154
  725SOL    HW1 2184   0.938   1.824   1.123
  725SOL    HW2 2185   1.094   1.860   1.154
  726SOL     OW 2186   0.770   3.192   0.301
  726SOL    HW1 2187   0.724   3.105   0.318
  726SOL    HW2 2188   0.861   3.189   0.342
  727SOL     OW 2189   0.618   3.429   1.284
  727SOL    HW1 2190   0.613   3.511   1.341
  727SOL    HW2 2191   0.707   3.426   1.239
  728SOL     OW 2192   1.352   1.914   0.168
  728SOL    HW1 2193   1.387   1.873   0.084
  728SOL    HW2 2194   1.262   1.876   0.188
  729SOL     OW 2195   1.300   2.315   0.691
  729SOL    HW1 2196   1.241   2.395   0.695
  729SOL    HW2 2197   1.315   2.280   0.784
  730SOL     OW 2198   1.593   2.083   0.882
  730SOL    HW1 2199   1.509   2.082   0.936
  730SOL    HW2 2200   1.595   2.166   0.826
  731SOL     OW 2201   0.039   2.939   0.300
  731SOL    HW1 2202   0.138   2.928   0.291
  731SOL    HW2 2203  -0.001   2.853   0.332
  732SOL     OW 2204   0.875   3.508   0.337
  732SOL    HW1 2205   0.798   3.473   0.283
  732SOL    HW2 2206   0.843   3.579   0.399
  733SOL     OW 2207   0.230   2.490   1.975
  733SOL    HW1 2208   0.137   2.488   2.012
  733SOL    HW2 2209   0.231   2.451   1.883
  734SOL     OW 2210   0.225   2.137   2.858
  734SOL    HW1 2211   0.260   2.120   2.950
  734SOL    HW2 2212   0.137   2.092   2.846
  735SOL     OW 2213   0.019   2.230   2.509
  735SOL    HW1 2214  -0.063   2.273   2.548
  735SOL    HW2 2215  -0.009   2.157   2.446
  736SOL     OW 2216   0.569   3.137   3.027
  736SOL    HW1 2217   0.476   3.130   2.990
  736SOL    HW2 2218   0.580   3.226   3.071
  737SOL     OW 2219   1.555   3.373   2.565
  737SOL    HW1 2220   1.498   3.357   2.646
  737SOL    HW2 2221   1.496   3.383   2.485
  738SOL     OW 2222   1.135   2.565   2.579
  738SOL    HW1 2223   1.192   2.643   2.554
  738SOL    HW2 2224   1.075   2.591   2.655
  739SOL     OW 2225   1.755   2.469   2.093
  739SOL    HW1 2226   1.743   2.456   1.994
  739SOL    HW2 2227   1.725   2.388   2.142
  740SOL     OW 2228   0.768   3.006   2.885
  740SOL    HW1 2229   0.690   3.023   2.945
  740SOL    HW2 2230   0.802   3.093   2.849
  741SOL     OW 2231   0.850   2.660   3.685
  741SOL    HW1 2232   0.846   2.736   3.750
  741SOL    HW2 2233   0.872   2.696   3.594
  742SOL     OW 2234   0.685   2.874   2.527
  742SOL    HW1 2235   0.754   2.858   2.597
  742SOL    HW2 2236   0.612   2.931   2.565
  743SOL     OW 2237   0.686   3.023   3.665
  743SOL    HW1 2238   0.746   3.102   3.679
  743SOL    HW2 2239   0.600   3.054   3.624
  744SOL     OW 2240   0.335   3.297   2.923
  744SOL    HW1 2241   0.257   3.266   2.870
  744SOL    HW2 2242   0.393   3.355   2.866
  745SOL     OW 2243   1.460   3.367   3.201
  745SOL    HW1 2244   1.484   3.461   3.227
  745SOL    HW2 2245   1.444   3.313   3.283
  746SOL     OW 2246   0.438   2.254   3.361
  746SOL    HW1 2247   0.520   2.198   3.370
  746SOL    HW2 2248   0.357   2.196   3.365
  747SOL     OW 2249   1.603   2.309   2.599
  747SOL    HW1 2250   1.529   2.355   2.549
  747SOL    HW2 2251   1.654   2.377   2.652
  748SOL     OW 2252   0.231   3.575   2.345
  748SOL    HW1 2253   0.265   3.652   2.399
  748SOL    HW2 2254   0.275   3.575   2.255
  749SOL     OW 2255   1.127   3.203   3.552
  749SOL    HW1 2256   1.174   3.203   3.640
  749SOL    HW2 2257   1.079   3.116   3.541
  750SOL     OW 2258   0.230   3.296   2.400
  750SOL    HW1 2259   0.204   3.392   2.400
  750SOL    HW2 2260   0.159   3.242   2.445
  751SOL     OW 2261   0.240   2.953   2.748
  751SOL    HW1 2262   0.254   2.869   2.800
  751SOL    HW2 2263   0.185   3.017   2.803
  752SOL     OW 2264   0.620   3.648   3.301
  752SOL    HW1 2265   0.528   3.631   3.336
  752SOL    HW2 2266   0.648   3.740   3.327
  753SOL     OW 2267   0.606   2.826   1.985
  753SOL    HW1 2268   0.613   2.910   1.931
  753SOL    HW2 2269   0.652   2.839   2.073
  754SOL     OW 2270   1.594   1.976   3.342
  754SOL    HW1 2271   1.576   2.043   3.270
  754SOL    HW2 2272   1.591   2.022   3.431
  755SOL     OW 2273   0.122   2.505   2.425
  755SOL    HW1 2274   0.077   2.417   2.442
  755SOL    HW2 2275   0.121   2.559   2.509
  756SOL     OW 2276   1.842   3.629   2.221
  756SOL    HW1 2277   1.896   3.600   2.301
  756SOL    HW2 2278   1.872   3.719   2.192
  757SOL     OW 2279   0.027   3.458   1.979
  757SOL    HW1 2280   0.008   3.362   2.000
  757SOL    HW2 2281  -0.006   3.516   2.054
  758SOL     OW 2282   1.689   2.784   2.474
  758SOL    HW1 2283   1.784   2.755   2.482
  758SOL    HW2 2284   1.681   2.849   2.399
  759SOL     OW 2285   1.641   2.970   2.294
  759SOL    HW1 2286   1.727   2.972   2.242
  759SOL    HW2 2287   1.655   3.017   2.382
  760SOL     OW 2288   0.113   2.599   3.459
  760SOL    HW1 2289   0.201   2.586   3.504
  760SOL    HW2 2290   0.100   2.696   3.437
  761SOL     OW 2291   0.613   3.227   2.588
  761SOL    HW1 2292   0.564   3.140   2.597
  761SOL    HW2 2293   0.590   3.270   2.501
  762SOL     OW 2294   1.293   3.090   3.285
  762SOL    HW1 2295   1.330   3.017   3.227
  762SOL    HW2 2296   1.345   3.095   3.370
  763SOL     OW 2297   0.809   1.866   2.364
  763SOL    HW1 2298   0.849   1.957   2.355
  763SOL    HW2 2299   0.709   1.874   2.370
  764SOL     OW 2300   0.197   2.838   3.126
  764SOL    HW1 2301   0.286   2.793   3.112
  764SOL    HW2 2302   0.124   2.773   3.107
  765SOL     OW 2303   1.525   2.861   2.052
  765SOL    HW1 2304   1.462   2.785   2.065
  765SOL    HW2 2305   1.573   2.879   2.138
  766SOL     OW 2306   1.187   3.654   3.478
  766SOL    HW1 2307   1.211   3.714   3.402
  766SOL    HW2 2308   1.194   3.559   3.448
  767SOL     OW 2309   0.317   2.113   3.663
  767SOL    HW1 2310   0.388   2.184   3.669
  767SOL    HW2 2311   0.229   2.152   3.691
  768SOL     OW 2312   1.466   3.279   2.815
  768SOL    HW1 2313   1.407   3.285   2.895
  768SOL    HW2 2314   1.451   3.191   2.769
  769SOL     OW 2315   1.667   3.576   2.434
  769SOL    HW1 2316   1.626   3.553   2.346
  769SOL    HW2 2317   1.649   3.502   2.499
  770SOL     OW 2318   0.598   2.591   2.132
  770SOL    HW1 2319   0.622   2.660   2.064
  770SOL    HW2 2320   0.520   2.624   2.186
  771SOL     OW 2321   1.281   2.207   2.806
  771SOL    HW1 2322   1.195   2.157   2.793
  771SOL    HW2 2323   1.343   2.153   2.862
  772SOL     OW 2324   1.576   3.524   2.169
  772SOL    HW1 2325   1.665   3.570   2.172
  772SOL    HW2 2326   1.555   3.500   2.074
  773SOL     OW 2327   0.807   2.467   3.327
  773SOL    HW1 2328   0.760   2.464   3.416
  773SOL    HW2 2329   0.756   2.412   3.261
  774SOL     OW 2330   1.394   2.331   3.536
  774SOL    HW1 2331   1.374   2.374   3.624
  774SOL    HW2 2332   1.472   2.269   3.545
  775SOL     OW 2333   0.973   2.752   3.434
  775SOL    HW1 2334   1.019   2.668   3.405
  775SOL    HW2 2335   0.917   2.786   3.359
  776SOL     OW 2336   0.991   2.272   3.104
  776SOL    HW1 2337   0.914   2.306   3.158
  776SOL    HW2 2338   0.957   2.221   3.025
  777SOL     OW 2339   1.041   2.563   2.291
  777SOL    HW1 2340   1.067   2.559   2.387
  777SOL    HW2 2341   0.956   2.512   2.277
  778SOL     OW 2342   0.076   2.673   2.651
  778SOL    HW1 2343   0.175   2.661   2.660
  778SOL    HW2 2344   0.052   2.768   2.672
  779SOL     OW 2345   0.130   3.683   3.433
  779SOL    HW1 2346   0.120   3.668   3.532
  779SOL    HW2 2347   0.044   3.719   3.397
  780SOL     OW 2348   0.865   2.210   2.057
  780SOL    HW1 2349   0.924   2.273   2.008
  780SOL    HW2 2350   0.884   2.116   2.028
  781SOL     OW 2351   1.719   2.447   3.693
  781SOL    HW1 2352   1.693   2.536   3.657
  781SOL    HW2 2353   1.717   2.379   3.620
  782SOL     OW 2354   1.362   3.006   2.407
  782SOL    HW1 2355   1.445   2.977   2.359
  782SOL    HW2 2356   1.313   3.073   2.351
  783SOL     OW 2357   0.550   2.058   2.747
  783SOL    HW1 2358   0.545   2.053   2.847
  783SOL    HW2 2359   0.552   2.154   2.718
  784SOL     OW 2360   1.008   3.318   2.339
  784SOL    HW1 2361   0.962   3.390   2.287
  784SOL    HW2 2362   1.004   3.338   2.437
  785SOL     OW 2363   0.351   3.663   2.715
  785SOL    HW1 2364   0.401   3.577   2.721
  785SOL    HW2 2365   0.416   3.740   2.712
  786SOL     OW 2366   1.795   2.928   2.735
  786SOL    HW1 2367   1.733   2.913   2.659
  786SOL    HW2 2368   1.743   2.939   2.820
  787SOL     OW 2369   1.227   3.412   3.368
  787SOL    HW1 2370   1.233   3.335   3.432
  787SOL    HW2 2371   1.175   3.386   3.288
  788SOL     OW 2372   0.321   2.805   2.104
  788SOL    HW1 2373   0.403   2.844   2.062
  788SOL    HW2 2374   0.294   2.723   2.055
  789SOL     OW 2375   1.458   2.597   2.590
  789SOL    HW1 2376   1.453   2.532   2.665
  789SOL    HW2 2377   1.538   2.656   2.603
  790SOL     OW 2378   0.461   3.128   3.589
  790SOL    HW1 2379   0.411   3.129   3.503
  790SOL    HW2 2380   0.398   3.110   3.665
  791SOL     OW 2381   1.111   3.638   2.099
  791SOL    HW1 2382   1.051   3.576   2.149
  791SOL    HW2 2383   1.142   3.594   2.014
  792SOL     OW 2384   0.202   2.147   3.360
  792SOL    HW1 2385   0.122   2.207   3.347
  792SOL    HW2 2386   0.192   2.098   3.446
  793SOL     OW 2387   1.632   3.239   1.943
  793SOL    HW1 2388   1.600   3.333   1.933
  793SOL    HW2 2389   1.556   3.176   1.931
  794SOL     OW 2390   0.464   3.605   2.185
  794SOL    HW1 2391   0.497   3.644   2.271
  794SOL    HW2 2392   0.540   3.598   2.120
  795SOL     OW 2393   1.400   1.969   2.288
  795SOL    HW1 2394   1.376   1.932   2.198
  795SOL    HW2 2395   1.499   1.985   2.292
  796SOL     OW 2396   0.249   3.647   3.103
  796SOL    HW1 2397   0.306   3.582   3.153
  796SOL    HW2 2398   0.233   3.614   3.010
  797SOL     OW 2399   0.940   3.560   2.766
  797SOL    HW1 2400   1.020   3.503   2.787
  797SOL    HW2 2401   0.891   3.520   2.689
  798SOL     OW 2402   0.382   2.562   2.342
  798SOL    HW1 2403   0.427   2.472   2.339
  798SOL    HW2 2404   0.288   2.551   2.375
  799SOL     OW 2405   1.547   2.084   3.591
  799SOL    HW1 2406   1.542   2.121   3.683
  799SOL    HW2 2407   1.475   2.015   3.579
  800SOL     OW 2408   0.614   1.984   1.979
  800SOL    HW1 2409   0.712   1.962   1.986
  800SOL    HW2 2410   0.583   1.967   1.886
  801SOL     OW 2411   0.781   2.126   3.611
  801SOL    HW1 2412   0.848   2.065   3.654
  801SOL    HW2 2413   0.708   2.145   3.676
  802SOL     OW 2414   0.888   3.376   3.057
  802SOL    HW1 2415   0.865   3.351   2.963
  802SOL    HW2 2416   0.949   3.307   3.096
  803SOL     OW 2417   1.351   2.452   3.295
  803SOL    HW1 2418   1.379   2.409   3.380
  803SOL    HW2 2419   1.376   2.548   3.296
  804SOL     OW 2420   0.803   3.264   2.786
  804SOL    HW1 2421   0.893   3.278   2.744
  804SOL    HW2 2422   0.732   3.266   2.715
  805SOL     OW 2423   0.922   2.365   2.761
  805SOL    HW1 2424   0.897   2.356   2.665
  805SOL    HW2 2425   0.970   2.283   2.792
  806SOL     OW 2426   0.539   1.926   2.374
  806SOL    HW1 2427   0.458   1.927   2.432
  806SOL    HW2 2428   0.542   2.009   2.319
  807SOL     OW 2429   1.434   3.050   1.903
  807SOL    HW1 2430   1.466   2.974   1.960
  807SOL    HW2 2431   1.342   3.077   1.933
  808SOL     OW 2432   0.297   1.897   2.033
  808SOL    HW1 2433   0.346   1.981   2.012
  808SOL    HW2 2434   0.359   1.832   2.078
  809SOL     OW 2435   0.935   2.098   2.342
  809SOL    HW1 2436   0.887   2.139   2.264
  809SOL    HW2 2437   1.034   2.096   2.323
  810SOL     OW 2438   1.076   2.545   3.326
  810SOL    HW1 2439   0.996   2.484   3.329
  810SOL    HW2 2440   1.157   2.492   3.302
  811SOL     OW 2441   1.227   3.432   2.655
  811SOL    HW1 2442   1.248   3.506   2.590
  811SOL    HW2 2443   1.295   3.432   2.728
  812SOL     OW 2444   0.459   3.014   2.603
  812SOL    HW1 2445   0.388   2.987   2.668
  812SOL    HW2 2446   0.433   2.986   2.510
  813SOL     OW 2447   1.271   3.659   2.453
  813SOL    HW1 2448   1.315   3.723   2.389
  813SOL    HW2 2449   1.221   3.711   2.523
  814SOL     OW 2450   1.032   2.411   1.878
  814SOL    HW1 2451   0.991   2.493   1.839
  814SOL    HW2 2452   1.096   2.437   1.951
  815SOL     OW 2453   0.078   2.418   3.248
  815SOL    HW1 2454   0.170   2.417   3.207
  815SOL    HW2 2455   0.072   2.492   3.315
  816SOL     OW 2456   0.561   2.084   3.009
  816SOL    HW1 2457   0.599   2.000   3.046
  816SOL    HW2 2458   0.473   2.103   3.053
  817SOL     OW 2459   0.866   2.316   2.504
  817SOL    HW1 2460   0.834   2.388   2.442
  817SOL    HW2 2461   0.890   2.235   2.451
  818SOL     OW 2462   1.017   1.901   2.615
  818SOL    HW1 2463   0.945   1.906   2.546
  818SOL    HW2 2464   0.993   1.832   2.684
  819SOL     OW 2465   1.429   3.035   2.729
  819SOL    HW1 2466   1.374   2.951   2.722
  819SOL    HW2 2467   1.455   3.064   2.637
  820SOL     OW 2468   1.466   2.452   2.854
  820SOL    HW1 2469   1.436   2.357   2.861
  820SOL    HW2 2470   1.539   2.468   2.920
  821SOL     OW 2471   1.857   2.695   2.239
  821SOL    HW1 2472   1.899   2.631   2.303
  821SOL    HW2 2473   1.819   2.644   2.161
  822SOL     OW 2474   0.488   3.247   2.036
  822SOL    HW1 2475   0.401   3.232   2.083
  822SOL    HW2 2476   0.471   3.273   1.941
  823SOL     OW 2477   1.664   3.142   2.519
  823SOL    HW1 2478   1.763   3.150   2.533
  823SOL    HW2 2479   1.619   3.226   2.550
  824SOL     OW 2480   1.390   2.437   1.940
  824SOL    HW1 2481   1.336   2.416   2.021
  824SOL    HW2 2482   1.481   2.396   1.949
  825SOL     OW 2483   0.527   2.118   2.190
  825SOL    HW1 2484   0.554   2.059   2.115
  825SOL    HW2 2485   0.527   2.213   2.159
  826SOL     OW 2486   1.754   3.085   3.450
  826SOL    HW1 2487   1.845   3.046   3.437
  826SOL    HW2 2488   1.762   3.181   3.474
  827SOL     OW 2489   1.064   3.209   3.202
  827SOL    HW1 2490   0.984   3.186   3.257
  827SOL    HW2 2491   1.147   3.183   3.251
  828SOL     OW 2492   1.592   3.491   3.487
  828SOL    HW1 2493   1.619   3.525   3.397
  828SOL    HW2 2494   1.671   3.453   3.533
  829SOL     OW 2495   1.111   3.057   2.962
  829SOL    HW1 2496   1.071   3.101   3.043
  829SOL    HW2 2497   1.070   3.094   2.879
  830SOL     OW 2498   1.638   2.961   2.941
  830SOL    HW1 2499   1.643   3.042   3.000
  830SOL    HW2 2500   1.552   2.963   2.890
  831SOL     OW 2501   0.915   1.951   3.264
  831SOL    HW1 2502   0.940   1.931   3.169
  831SOL    HW2 2503   0.987   2.007   3.306
  832SOL     OW 2504   0.980   2.978   3.581
  832SOL    HW1 2505   0.881   2.984   3.591
  832SOL    HW2 2506   1.003   2.898   3.525
  833SOL     OW 2507   0.705   2.912   2.230
  833SOL    HW1 2508   0.691   2.919   2.329
  833SOL    HW2 2509   0.789   2.861   2.212
  834SOL     OW 2510   0.410   2.675   3.113
  834SOL    HW1 2511   0.496   2.687   3.163
  834SOL    HW2 2512   0.368   2.588   3.140
  835SOL     OW 2513   1.274   2.248   3.124
  835SOL    HW1 2514   1.295   2.322   3.188
  835SOL    HW2 2515   1.185   2.265   3.081
  836SOL     OW 2516   0.064   3.426   3.193
  836SOL    HW1 2517   0.018   3.508   3.159
  836SOL    HW2 2518   0.162   3.445   3.202
  837SOL     OW 2519   0.367   2.962   2.363
  837SOL    HW1 2520   0.360   3.045   2.307
  837SOL    HW2 2521   0.371   2.882   2.303
  838SOL     OW 2522   0.566   2.399   2.727
  838SOL    HW1 2523   0.578   2.465   2.653
  838SOL    HW2 2524   0.612   2.433   2.810
  839SOL     OW 2525   1.252   3.210   2.250
  839SOL    HW1 2526   1.302   3.287   2.290
  839SOL    HW2 2527   1.157   3.212   2.282
  840SOL     OW 2528   1.272   3.307   3.004
  840SOL    HW1 2529   1.319   3.320   3.091
  840SOL    HW2 2530   1.206   3.233   3.013
  841SOL     OW 2531   1.582   2.501   2.334
  841SOL    HW1 2532   1.551   2.562   2.407
  841SOL    HW2 2533   1.632   2.553   2.265
  842SOL     OW 2534   0.354   3.372   3.191
  842SOL    HW1 2535   0.333   3.328   3.104
  842SOL    HW2 2536   0.451   3.398   3.194
  843SOL     OW 2537   0.402   2.613   3.460
  843SOL    HW1 2538   0.470   2.668   3.413
  843SOL    HW2 2539   0.442   2.525   3.487
  844SOL     OW 2540   1.587   2.641   3.532
  844SOL    HW1 2541   1.495   2.679   3.527
  844SOL    HW2 2542   1.647   2.688   3.467
  845SOL     OW 2543   1.013   1.967   3.632
  845SOL    HW1 2544   1.019   2.052   3.580
  845SOL    HW2 2545   1.045   1.891   3.575
  846SOL     OW 2546   0.504   1.912   3.602
  846SOL    HW1 2547   0.462   1.855   3.532
  846SOL    HW2 2548   0.438   1.981   3.634
  847SOL     OW 2549   0.573   2.732   2.891
  847SOL    HW1 2550   0.617   2.821   2.882
  847SOL    HW2 2551   0.510   2.732   2.968
  848SOL     OW 2552   1.360   2.724   2.907
  848SOL    HW1 2553   1.285   2.724   2.841
  848SOL    HW2 2554   1.397   2.632   2.916
  849SOL     OW 2555   1.209   2.387   2.137
  849SOL    HW1 2556   1.222   2.303   2.191
  849SOL    HW2 2557   1.180   2.461   2.197
  850SOL     OW 2558   0.307   2.075   3.093
  850SOL    HW1 2559   0.284   2.112   3.183
  850SOL    HW2 2560   0.277   1.980   3.087
  851SOL     OW 2561   0.037   3.172   3.144
  851SOL    HW1 2562   0.090   3.123   3.212
  851SOL    HW2 2563   0.059   3.270   3.149
  852SOL     OW 2564   0.732   2.496   2.926
  852SOL    HW1 2565   0.791   2.470   2.850
  852SOL    HW2 2566   0.704   2.592   2.915
  853SOL     OW 2567   1.728   2.797   3.716
  853SOL    HW1 2568   1.682   2.790   3.627
  853SOL    HW2 2569   1.666   2.841   3.782
  854SOL     OW 2570   0.307   1.925   2.480
  854SOL    HW1 2571   0.296   2.019   2.513
  854SOL    HW2 2572   0.302   1.862   2.557
  855SOL     OW 2573   1.622   2.229   2.236
  855SOL    HW1 2574   1.624   2.153   2.300
  855SOL    HW2 2575   1.574   2.306   2.276
  856SOL     OW 2576   1.023   2.628   2.828
  856SOL    HW1 2577   1.038   2.649   2.924
  856SOL    HW2 2578   0.993   2.533   2.819
  857SOL     OW 2579   0.980   3.435   3.562
  857SOL    HW1 2580   0.960   3.479   3.474
  857SOL    HW2 2581   1.019   3.344   3.546
  858SOL     OW 2582   1.859   3.380   3.467
  858SOL    HW1 2583   1.873   3.407   3.372
  858SOL    HW2 2584   1.942   3.402   3.520
  859SOL     OW 2585   0.350   2.760   3.666
  859SOL    HW1 2586   0.426   2.804   3.714
  859SOL    HW2 2587   0.385   2.713   3.584
  860SOL     OW 2588   1.540   2.136   1.987
  860SOL    HW1 2589   1.479   2.061   2.010
  860SOL    HW2 2590   1.562   2.188   2.070
  861SOL     OW 2591   1.303   2.700   1.904
  861SOL    HW1 2592   1.337   2.607   1.919
  861SOL    HW2 2593   1.321   2.727   1.809
  862SOL     OW 2594   1.068   3.195   2.711
  862SOL    HW1 2595   1.075   3.111   2.656
  862SOL    HW2 2596   1.130   3.264   2.675
  863SOL     OW 2597   0.319   2.672   2.811
  863SOL    HW1 2598   0.412   2.708   2.816
  863SOL    HW2 2599   0.313   2.587   2.863
  864SOL     OW 2600   0.339   2.371   2.868
  864SOL    HW1 2601   0.287   2.288   2.851
  864SOL    HW2 2602   0.416   2.376   2.804
  865SOL     OW 2603   1.138   2.242   3.540
  865SOL    HW1 2604   1.093   2.305   3.604
  865SOL    HW2 2605   1.231   2.273   3.523
  866SOL     OW 2606   1.160   2.069   3.339
  866SOL    HW1 2607   1.160   2.133   3.416
  866SOL    HW2 2608   1.188   2.117   3.256
  867SOL     OW 2609   0.008   3.188   2.062
  867SOL    HW1 2610  -0.085   3.209   2.031
  867SOL    HW2 2611   0.018   3.089   2.075
  868SOL     OW 2612   0.088   3.663   2.789
  868SOL    HW1 2613   0.046   3.577   2.762
  868SOL    HW2 2614   0.182   3.666   2.755
  869SOL     OW 2615   0.504   3.430   2.772
  869SOL    HW1 2616   0.570   3.504   2.781
  869SOL    HW2 2617   0.548   3.351   2.730
  870SOL     OW 2618   1.002   2.658   3.100
  870SOL    HW1 2619   1.043   2.626   3.186
  870SOL    HW2 2620   0.906   2.631   3.097
  871SOL     OW 2621   0.040   2.406   2.976
  871SOL    HW1 2622   0.125   2.373   2.935
  871SOL    HW2 2623   0.053   2.421   3.074
  872SOL     OW 2624   0.189   2.382   3.584
  872SOL    HW1 2625   0.248   2.342   3.514
  872SOL    HW2 2626   0.131   2.453   3.543
  873SOL     OW 2627   1.369   2.812   3.522
  873SOL    HW1 2628   1.408   2.901   3.542
  873SOL    HW2 2629   1.379   2.792   3.425
  874SOL     OW 2630   0.815   2.434   2.187
  874SOL    HW1 2631   0.822   2.345   2.141
  874SOL    HW2 2632   0.721   2.468   2.179
  875SOL     OW 2633   1.657   2.466   3.068
  875SOL    HW1 2634   1.619   2.397   3.130
  875SOL    HW2 2635   1.739   2.430   3.024
  876SOL     OW 2636   0.252   3.426   3.606
  876SOL    HW1 2637   0.222   3.483   3.682
  876SOL    HW2 2638   0.245   3.329   3.632
  877SOL     OW 2639   0.671   2.326   3.131
  877SOL    HW1 2640   0.637   2.237   3.101
  877SOL    HW2 2641   0.697   2.380   3.051
  878SOL     OW 2642   0.930   3.540   3.327
  878SOL    HW1 2643   0.906   3.522   3.232
  878SOL    HW2 2644   0.960   3.634   3.337
  879SOL     OW 2645   0.473   2.362   2.053
  879SOL    HW1 2646   0.534   2.442   2.057
  879SOL    HW2 2647   0.378   2.393   2.060
  880SOL     OW 2648   0.159   2.999   3.328
  880SOL    HW1 2649   0.181   2.938   3.404
  880SOL    HW2 2650   0.169   2.950   3.242
  881SOL     OW 2651   1.347   2.921   3.096
  881SOL    HW1 2652   1.371   2.858   3.022
  881SOL    HW2 2653   1.257   2.961   3.078
  882SOL     OW 2654   1.302   2.717   2.171
  882SOL    HW1 2655   1.216   2.686   2.213
  882SOL    HW2 2656   1.298   2.703   2.072
  883SOL     OW 2657   1.759   3.609   3.016
  883SOL    HW1 2658   1.820   3.639   2.943
  883SOL    HW2 2659   1.721   3.520   2.994
  884SOL     OW 2660   1.252   3.593   2.990
  884SOL    HW1 2661   1.336   3.598   2.936
  884SOL    HW2 2662   1.229   3.497   3.008
  885SOL     OW 2663   0.083   3.120   2.884
  885SOL    HW1 2664   0.078   3.119   2.984
  885SOL    HW2 2665   0.000   3.079   2.846
  886SOL     OW 2666   0.688   3.524   3.578
  886SOL    HW1 2667   0.632   3.605   3.587
  886SOL    HW2 2668   0.740   3.528   3.492
  887SOL     OW 2669   1.726   1.997   2.385
  887SOL    HW1 2670   1.799   1.980   2.318
  887SOL    HW2 2671   1.695   1.910   2.423
  888SOL     OW 2672   1.388   3.435   2.339
  888SOL    HW1 2673   1.455   3.447   2.265
  888SOL    HW2 2674   1.348   3.524   2.362
  889SOL     OW 2675   0.130   3.656   3.713
  889SOL    HW1 2676   0.089   3.582   3.766
  889SOL    HW2 2677   0.194   3.707   3.771
  890SOL     OW 2678   1.280   2.789   2.534
  890SOL    HW1 2679   1.340   2.708   2.536
  890SOL    HW2 2680   1.320   2.858   2.474
  891SOL     OW 2681   0.830   3.135   3.284
  891SOL    HW1 2682   0.825   3.168   3.379
  891SOL    HW2 2683   0.744   3.154   3.238
  892SOL     OW 2684   0.672   3.478   2.016
  892SOL    HW1 2685   0.681   3.488   1.917
  892SOL    HW2 2686   0.632   3.389   2.037
  893SOL     OW 2687   1.650   3.582   3.256
  893SOL    HW1 2688   1.703   3.592   3.172
  893SOL    HW2 2689   1.623   3.672   3.290
  894SOL     OW 2690   1.841   2.037   2.825
  894SOL    HW1 2691   1.880   1.952   2.789
  894SOL    HW2 2692   1.743   2.039   2.806
  895SOL     OW 2693   0.263   2.188   2.582
  895SOL    HW1 2694   0.184   2.239   2.548
  895SOL    HW2 2695   0.254   2.173   2.680
  896SOL     OW 2696   1.194   3.474   1.893
  896SOL    HW1 2697   1.200   3.381   1.930
  896SOL    HW2 2698   1.135   3.474   1.813
  897SOL     OW 2699   0.822   2.864   3.234
  897SOL    HW1 2700   0.862   2.863   3.142
  897SOL    HW2 2701   0.832   2.956   3.274
  898SOL     OW 2702   0.916   2.772   2.153
  898SOL    HW1 2703   0.979   2.810   2.085
  898SOL    HW2 2704   0.956   2.689   2.192
  899SOL     OW 2705   1.504   3.469   1.906
  899SOL    HW1 2706   1.412   3.506   1.913
  899SOL    HW2 2707   1.542   3.489   1.816
  900SOL     OW 2708   0.372   3.150   3.352
  900SOL    HW1 2709   0.359   3.243   3.318
  900SOL    HW2 2710   0.288   3.098   3.339
  901SOL     OW 2711   1.614   3.154   3.151
  901SOL    HW1 2712   1.674   3.157   3.231
  901SOL    HW2 2713   1.539   3.218   3.164
  902SOL     OW 2714   1.039   2.960   2.558
  902SOL    HW1 2715   0.969   2.913   2.612
  902SOL    HW2 2716   1.098   2.892   2.515
  903SOL     OW 2717   1.014   2.098   2.833
  903SOL    HW1 2718   1.006   2.062   2.740
  903SOL    HW2 2719   1.012   2.022   2.898
  904SOL     OW 2720   0.590   3.349   2.353
  904SOL    HW1 2721   0.632   3.291   2.283
  904SOL    HW2 2722   0.546   3.428   2.309
  905SOL     OW 2723   1.709   2.247   3.243
  905SOL    HW1 2724   1.782   2.316   3.247
  905SOL    HW2 2725   1.737   2.172   3.184
  906SOL     OW 2726   0.255   3.210   2.152
  906SOL    HW1 2727   0.159   3.211   2.125
  906SOL    HW2 2728   0.267   3.263   2.236
  907SOL     OW 2729   0.105   2.875   3.588
  907SOL    HW1 2730   0.028   2.842   3.642
  907SOL    HW2 2731   0.190   2.845   3.630
  908SOL     OW 2732   0.672   2.065   3.351
  908SOL    HW1 2733   0.762   2.049   3.311
  908SOL    HW2 2734   0.680   2.070   3.450
  909SOL     OW 2735   0.075   2.207   1.895
  909SOL    HW1 2736  -0.017   2.179   1.866
  909SOL    HW2 2737   0.106   2.284   1.839
  910SOL     OW 2738   1.440   2.718   3.260
  910SOL    HW1 2739   1.383   2.770   3.197
  910SOL    HW2 2740   1.536   2.730   3.236
  911SOL     OW 2741   0.072   2.028   2.180
  911SOL    HW1 2742   0.055   2.111   2.126
  911SOL    HW2 2743   0.162   1.991   2.158
  912SOL     OW 2744   1.183   3.197   1.981
  912SOL    HW1 2745   1.084   3.186   1.983
  912SOL    HW2 2746   1.217   3.212   2.074
  913SOL     OW 2747   0.613   2.704   3.293
  913SOL    HW1 2748   0.669   2.785   3.276
  913SOL    HW2 2749   0.672   2.624   3.296
  914SOL     OW 2750   1.493   3.629   2.821
  914SOL    HW1 2751   1.526   3.693   2.752
  914SOL    HW2 2752   1.559   3.623   2.896
  915SOL     OW 2753   0.716   2.427   3.570
  915SOL    HW1 2754   0.735   2.492   3.644
  915SOL    HW2 2755   0.776   2.347   3.579
  916SOL     OW 2756   1.450   3.082   3.495
  916SOL    HW1 2757   1.441   3.072   3.594
  916SOL    HW2 2758   1.546   3.075   3.469
  917SOL     OW 2759   0.390   3.603   3.422
  917SOL    HW1 2760   0.299   3.644   3.420
  917SOL    HW2 2761   0.383   3.509   3.454
  918SOL     OW 2762   1.674   2.745   3.116
  918SOL    HW1 2763   1.647   2.656   3.079
  918SOL    HW2 2764   1.675   2.813   3.043
  919SOL     OW 2765   1.225   2.187   2.311
  919SOL    HW1 2766   1.290   2.113   2.300
  919SOL    HW2 2767   1.245   2.237   2.395
  920SOL     OW 2768   0.594   2.607   2.514
  920SOL    HW1 2769   0.644   2.692   2.495
  920SOL    HW2 2770   0.506   2.609   2.466
  921SOL     OW 2771   1.777   2.204   3.504
  921SOL    HW1 2772   1.760   2.235   3.410
  921SOL    HW2 2773   1.693   2.167   3.542
  922SOL     OW 2774   1.730   2.796   3.379
  922SOL    HW1 2775   1.768   2.887   3.394
  922SOL    HW2 2776   1.722   2.779   3.280
  923SOL     OW 2777   0.859   3.236   1.878
  923SOL    HW1 2778   0.813   3.251   1.966
  923SOL    HW2 2779   0.903   3.321   1.848
  924SOL     OW 2780   0.661   3.652   2.815
  924SOL    HW1 2781   0.615   3.740   2.802
  924SOL    HW2 2782   0.760   3.664   2.808
  925SOL     OW 2783   0.859   2.818   2.723
  925SOL    HW1 2784   0.913   2.749   2.771
  925SOL    HW2 2785   0.827   2.887   2.789
  926SOL     OW 2786   1.083   2.846   1.949
  926SOL    HW1 2787   1.060   2.899   1.867
  926SOL    HW2 2788   1.164   2.790   1.930
  927SOL     OW 2789   1.861   3.431   2.713
  927SOL    HW1 2790   1.790   3.419   2.643
  927SOL    HW2 2791   1.862   3.352   2.773
  928SOL     OW 2792   0.221   3.176   3.706
  928SOL    HW1 2793   0.156   3.103   3.685
  928SOL    HW2 2794   0.225   3.190   3.804
  929SOL     OW 2795   0.079   3.102   2.515
  929SOL    HW1 2796   0.078   3.055   2.603
  929SOL    HW2 2797   0.161   3.074   2.464
  930SOL     OW 2798   0.672   3.253   3.486
  930SOL    HW1 2799   0.594   3.203   3.524
  930SOL    HW2 2800   0.669   3.348   3.517
  931SOL     OW 2801   1.824   2.054   3.089
  931SOL    HW1 2802   1.820   1.964   3.133
  931SOL    HW2 2803   1.827   2.043   2.990
  932SOL     OW 2804   0.428   2.286   2.382
  932SOL    HW1 2805   0.458   2.214   2.320
  932SOL    HW2 2806   0.389   2.246   2.465
  933SOL     OW 2807   1.705   3.349   2.966
  933SOL    HW1 2808   1.612   3.324   2.939
  933SOL    HW2 2809   1.731   3.299   3.048
  934SOL     OW 2810   0.317   2.409   3.142
  934SOL    HW1 2811   0.355   2.350   3.214
  934SOL    HW2 2812   0.357   2.383   3.054
  935SOL     OW 2813   0.812   3.448   2.549
  935SOL    HW1 2814   0.844   3.458   2.455
  935SOL    HW2 2815   0.733   3.386   2.551
  936SOL     OW 2816   1.424   2.076   2.974
  936SOL    HW1 2817   1.476   2.011   3.029
  936SOL    HW2 2818   1.375   2.139   3.035
  937SOL     OW 2819   1.001   1.896   3.016
  937SOL    HW1 2820   0.938   1.824   2.985
  937SOL    HW2 2821   1.094   1.860   3.016
  938SOL     OW 2822   0.770   3.192   2.163
  938SOL    HW1 2823   0.724   3.105   2.180
  938SOL    HW2 2824   0.861   3.189   2.204
  939SOL     OW 2825   0.618   3.429   3.146
  939SOL    HW1 2826   0.613   3.511   3.203
  939SOL    HW2 2827   0.707   3.426   3.101
  940SOL     OW 2828   1.352   1.914   2.030
  940SOL    HW1 2829   1.387   1.873   1.946
  940SOL    HW2 2830   1.262   1.876   2.050
  941SOL     OW 2831   1.300   2.315   2.553
  941SOL    HW1 2832   1.241   2.395   2.557
  941SOL    HW2 2833   1.315   2.280   2.646
  942SOL     OW 2834   1.593   2.083   2.744
  942SOL    HW1 2835   1.509   2.082   2.798
  942SOL    HW2 2836   1.595   2.166   2.688
  943SOL     OW 2837   0.039   2.939   2.162
  943SOL    HW1 2838   0.138   2.928   2.153
  943SOL    HW2 2839  -0.001   2.853   2.194
  944SOL     OW 2840   0.875   3.508   2.199
  944SOL    HW1 2841   0.798   3.473   2.145
  944SOL    HW2 2842   0.843   3.579   2.261
  945SOL     OW 2843   0.230   2.490   3.837
  945SOL    HW1 2844   0.137   2.488   3.874
  945SOL    HW2 2845   0.231   2.451   3.745
  946SOL     OW 2846   0.225   2.137   4.720
  946SOL    HW1 2847   0.260   2.120   4.812
  946SOL    HW2 2848   0.137   2.092   4.708
  947SOL     OW 2849   0.019   2.230   4.371
  947SOL    HW1 2850  -0.063   2.273   4.410
  947SOL    HW2 2851  -0.009   2.157   4.308
  948SOL     OW 2852   1.755   2.469   3.955
  948SOL    HW1 2853   1.743   2.456   3.856
  948SOL    HW2 2854   1.725   2.388   4.004
  949SOL     OW 2855   0.685   2.874   4.389
  949SOL    HW1 2856   0.754   2.858   4.459
  949SOL    HW2 2857   0.612   2.931   4.427
  950SOL     OW 2858   1.603   2.309   4.461
  950SOL    HW1 2859   1.529   2.355   4.411
  950SOL    HW2 2860   1.654   2.377   4.514
  951SOL     OW 2861   0.231   3.575   4.207
  951SOL    HW1 2862   0.265   3.652   4.261
  951SOL    HW2 2863   0.275   3.575   4.117
  952SOL     OW 2864   0.230   3.296   4.262
  952SOL    HW1 2865   0.204   3.392   4.262
  952SOL    HW2 2866   0.159   3.242   4.307
  953SOL     OW 2867   0.240   2.953   4.610
  953SOL    HW1 2868   0.254   2.869   4.662
  953SOL    HW2 2869   0.185   3.017   4.665
  954SOL     OW 2870   0.606   2.826   3.847
  954SOL    HW1 2871   0.613   2.910   3.793
  954SOL    HW2 2872   0.652   2.839   3.935
  955SOL     OW 2873   0.122   2.505   4.287
  955SOL    HW1 2874   0.077   2.417   4.304
  955SOL    HW2 2875   0.121   2.559   4.371
  956SOL     OW 2876   1.842   3.629   4.083
  956SOL    HW1 2877   1.896   3.600   4.163
  956SOL    HW2 2878   1.872   3.719   4.054
  957SOL     OW 2879   0.027   3.458   3.841
  957SOL    HW1 2880   0.008   3.362   3.862
  957SOL    HW2 2881  -0.006   3.516   3.916
  958SOL     OW 2882   1.689   2.784   4.336
  958SOL    HW1 2883   1.784   2.755   4.344
  958SOL    HW2 2884   1.681   2.849   4.261
  959SOL     OW 2885   1.641   2.970   4.156
  959SOL    HW1 2886   1.727   2.972   4.104
  959SOL    HW2 2887   1.655   3.017   4.244
  960SOL     OW 2888   0.613   3.227   4.450
  960SOL    HW1 2889   0.564   3.140   4.459
  960SOL    HW2 2890   0.590   3.270   4.363
  961SOL     OW 2891   0.809   1.866   4.226
  961SOL    HW1 2892   0.849   1.957   4.217
  961SOL    HW2 2893   0.709   1.874   4.232
  962SOL     OW 2894   1.525   2.861   3.914
  962SOL    HW1 2895   1.462   2.785   3.927
  962SOL    HW2 2896   1.573   2.879   4.000
  963SOL     OW 2897   1.667   3.576   4.296
  963SOL    HW1 2898   1.626   3.553   4.208
  963SOL    HW2 2899   1.649   3.502   4.361
  964SOL     OW 2900   0.598   2.591   3.994
  964SOL    HW1 2901   0.622   2.660   3.926
  964SOL    HW2 2902   0.520   2.624   4.048
  965SOL     OW 2903   1.281   2.207   4.668
  965SOL    HW1 2904   1.195   2.157   4.655
  965SOL    HW2 2905   1.343   2.153   4.724
  966SOL     OW 2906   1.576   3.524   4.031
  966SOL    HW1 2907   1.665   3.570   4.034
  966SOL    HW2 2908   1.555   3.500   3.936
  967SOL     OW 2909   1.041   2.563   4.153
  967SOL    HW1 2910   1.067   2.559   4.249
  967SOL    HW2 2911   0.956   2.512   4.139
  968SOL     OW 2912   0.076   2.673   4.513
  968SOL    HW1 2913   0.175   2.661   4.522
  968SOL    HW2 2914   0.052   2.768   4.534
  969SOL     OW 2915   0.865   2.210   3.919
  969SOL    HW1 2916   0.924   2.273   3.870
  969SOL    HW2 2917   0.884   2.116   3.890
  970SOL     OW 2918   1.362   3.006   4.269
  970SOL    HW1 2919   1.445   2.977   4.221
  970SOL    HW2 2920   1.313   3.073   4.213
  971SOL     OW 2921   1.008   3.318   4.201
  971SOL    HW1 2922   0.962   3.390   4.149
  971SOL    HW2 2923   1.004   3.338   4.299
  972SOL     OW 2924   0.351   3.663   4.577
  972SOL    HW1 2925   0.401   3.577   4.583
  972SOL    HW2 2926   0.416   3.740   4.574
  973SOL     OW 2927   1.795   2.928   4.597
  973SOL    HW1 2928   1.733   2.913   4.521
  973SOL    HW2 2929   1.743   2.939   4.682
  974SOL     OW 2930   0.321   2.805   3.966
  974SOL    HW1 2931   0.403   2.844   3.924
  974SOL    HW2 2932   0.294   2.723   3.917
  975SOL     OW 2933   1.458   2.597   4.452
  975SOL    HW1 2934   1.453   2.532   4.527
  975SOL    HW2 2935   1.538   2.656   4.465
  976SOL     OW 2936   1.111   3.638   3.961
  976SOL    HW1 2937   1.051   3.576   4.011
  976SOL    HW2 2938   1.142   3.594   3.876
  977SOL     OW 2939   1.632   3.239   3.805
  977SOL    HW1 2940   1.600   3.333   3.795
  977SOL    HW2 2941   1.556   3.176   3.793
  978SOL     OW 2942   0.464   3.605   4.047
  978SOL    HW1 2943   0.497   3.644   4.133
  978SOL    HW2 2944   0.540   3.598   3.982
  979SOL     OW 2945   1.400   1.969   4.150
  979SOL    HW1 2946   1.376   1.932   4.060
  979SOL    HW2 2947   1.499   1.985   4.154
  980SOL     OW 2948   0.940   3.560   4.628
  980SOL    HW1 2949   1.020   3.503   4.649
  980SOL    HW2 2950   0.891   3.520   4.551
  981SOL     OW 2951   0.382   2.562   4.204
  981SOL    HW1 2952   0.427   2.472   4.201
  981SOL    HW2 2953   0.288   2.551   4.237
  982SOL     OW 2954   0.614   1.984   3.841
  982SOL    HW1 2955   0.712   1.962   3.848
  982SOL    HW2 2956   0.583   1.967   3.748
  983SOL     OW 2957   0.539   1.926   4.236
  983SOL    HW1 2958   0.458   1.927   4.294
  983SOL    HW2 2959   0.542   2.009   4.181
  984SOL     OW 2960   1.434   3.050   3.765
  984SOL    HW1 2961   1.466   2.974   3.822
  984SOL    HW2 2962   1.342   3.077   3.795
  985SOL     OW 2963   0.297   1.897   3.895
  985SOL    HW1 2964   0.346   1.981   3.874
  985SOL    HW2 2965   0.359   1.832   3.940
  986SOL     OW 2966   0.935   2.098   4.204
  986SOL    HW1 2967   0.887   2.139   4.126
  986SOL    HW2 2968   1.034   2.096   4.185
  987SOL     OW 2969   0.459   3.014   4.465
  987SOL    HW1 2970   0.388   2.987   4.530
  987SOL    HW2 2971   0.433   2.986   4.372
  988SOL     OW 2972   1.271   3.659   4.315
  988SOL    HW1 2973   1.315   3.723   4.251
  988SOL    HW2 2974   1.221   3.711   4.385
  989SOL     OW 2975   1.032   2.411   3.740
  989SOL    HW1 2976   0.991   2.493   3.701
  989SOL    HW2 2977   1.096   2.437   3.813
  990SOL     OW 2978   0.866   2.316   4.366
  990SOL    HW1 2979   0.834   2.388   4.304
  990SOL    HW2 2980   0.890   2.235   4.313
  991SOL     OW 2981   1.857   2.695   4.101
  991SOL    HW1 2982   1.899   2.631   4.165
  991SOL    HW2 2983   1.819   2.644   4.023
  992SOL     OW 2984   0.488   3.247   3.898
  992SOL    HW1 2985   0.401   3.232   3.945
  992SOL    HW2 2986   0.471   3.273   3.803
  993SOL     OW 2987   1.664   3.142   4.381
  993SOL    HW1 2988   1.763   3.150   4.395
  993SOL    HW2 2989   1.619   3.226   4.412
  994SOL     OW 2990   1.390   2.437   3.802
  994SOL    HW1 2991   1.336   2.416   3.883
  994SOL    HW2 2992   1.481   2.396   3.811
  995SOL     OW 2993   0.527   2.118   4.052
  995SOL    HW1 2994   0.554   2.059   3.977
  995SOL    HW2 2995   0.527   2.213   4.021
  996SOL     OW 2996   0.705   2.912   4.092
  996SOL    HW1 2997   0.691   2.919   4.191
  996SOL    HW2 2998   0.789   2.861   4.074
  997SOL     OW 2999   0.367   2.962   4.225
  997SOL    HW1 3000   0.360   3.045   4.169
  997SOL    HW2 3001   0.371   2.882   4.165
  998SOL     OW 3002   1.252   3.210   4.112
  998SOL    HW1 3003   1.302   3.287   4.152
  998SOL    HW2 3004   1.157   3.212   4.144
  999SOL     OW 3005   1.582   2.501   4.196
  999SOL    HW1 3006   1.551   2.562   4.269
  999SOL    HW2 3007   1.632   2.553   4.127
 1000SOL     OW 3008   1.209   2.387   3.999
 1000SOL    HW1 3009   1.222   2.303   4.053
 1000SOL    HW2 3010   1.180   2.461   4.059
 1001SOL     OW 3011   0.307   1.925   4.342
 1001SOL    HW1 3012   0.296   2.019   4.375
 1001SOL    HW2 3013   0.302   1.862   4.419
 1002SOL     OW 3014   1.622   2.229   4.098
 1002SOL    HW1 3015   1.624   2.153   4.162
 1002SOL    HW2 3016   1.574   2.306   4.138
 1003SOL     OW 3017   1.023   2.628   4.690
 1003SOL    HW1 3018   1.038   2.649   4.786
 1003SOL    HW2 3019   0.993   2.533   4.681
 1004SOL     OW 3020   1.540   2.136   3.849
 1004SOL    HW1 3021   1.479   2.061   3.872
 1004SOL    HW2 3022   1.562   2.188   3.932
 1005SOL     OW 3023   1.303   2.700   3.766
 1005SOL    HW1 3024   1.337   2.607   3.781
 1005SOL    HW2 3025   1.321   2.727   3.671
 1006SOL     OW 3026   0.008   3.188   3.924
 1006SOL    HW1 3027  -0.085   3.209   3.893
 1006SOL    HW2 3028   0.018   3.089   3.937
 1007SOL     OW 3029   0.040   2.406   4.838
 1007SOL    HW1 3030   0.125   2.373   4.797
 1007SOL    HW2 3031   0.053   2.421   4.936
 1008SOL     OW 3032   0.815   2.434   4.049
 1008SOL    HW1 3033   0.822   2.345   4.003
 1008SOL    HW2 3034   0.721   2.468   4.041
 1009SOL     OW 3035   0.473   2.362   3.915
 1009SOL    HW1 3036   0.534   2.442   3.919
 1009SOL    HW2 3037   0.378   2.393   3.922
 1010SOL     OW 3038   1.302   2.717   4.033
 1010SOL    HW1 3039   1.216   2.686   4.075
 1010SOL    HW2 3040   1.298   2.703   3.934
 1011SOL     OW 3041   1.726   1.997   4.247
 1011SOL    HW1 3042   1.799   1.980   4.180
 1011SOL    HW2 3043   1.695   1.910   4.285
 1012SOL     OW 3044   1.388   3.435   4.201
 1012SOL    HW1 3045   1.455   3.447   4.127
 1012SOL    HW2 3046   1.348   3.524   4.224
 1013SOL     OW 3047   0.672   3.478   3.878
 1013SOL    HW1 3048   0.681   3.488   3.779
 1013SOL    HW2 3049   0.632   3.389   3.899
 1014SOL     OW 3050   1.841   2.037   4.687
 1014SOL    HW1 3051   1.880   1.952   4.651
 1014SOL    HW2 3052   1.743   2.039   4.668
 1015SOL     OW 3053   0.263   2.188   4.444
 1015SOL    HW1 3054   0.184   2.239   4.410
 1015SOL    HW2 3055   0.254   2.173   4.542
 1016SOL     OW 3056   1.194   3.474   3.755
 1016SOL    HW1 3057   1.200   3.381   3.792
 1016SOL    HW2 3058   1.135   3.474   3.675
 1017SOL     OW 3059   0.916   2.772   4.015
 1017SOL    HW1 3060   0.979   2.810   3.947
 1017SOL    HW2 3061   0.956   2.689   4.054
 1018SOL     OW 3062   1.504   3.469   3.768
 1018SOL    HW1 3063   1.412   3.506   3.775
 1018SOL    HW2 3064   1.542   3.489   3.678
 1019SOL     OW 3065   0.590   3.349   4.215
 1019SOL    HW1 3066   0.632   3.291   4.145
 1019SOL    HW2 3067   0.546   3.428   4.171
 1020SOL     OW 3068   0.255   3.210   4.014
 1020SOL    HW1 3069   0.159   3.211   3.987
 1020SOL    HW2 3070   0.267   3.263   4.098
 1021SOL     OW 3071   0.075   2.207   3.757
 1021SOL    HW1 3072  -0.017   2.179   3.728
 1021SOL    HW2 3073   0.106   2.284   3.701
 1022SOL     OW 3074   0.072   2.028   4.042
 1022SOL    HW1 3075   0.055   2.111   3.988
 1022SOL    HW2 3076   0.162   1.991   4.020
 1023SOL     OW 3077   1.183   3.197   3.843
 1023SOL    HW1 3078   1.084   3.186   3.845
 1023SOL    HW2 3079   1.217   3.212   3.936
 1024SOL     OW 3080   1.225   2.187   4.173
 1024SOL    HW1 3081   1.290   2.113   4.162
 1024SOL    HW2 3082   1.245   2.237   4.257
 1025SOL     OW 3083   0.594   2.607   4.376
 1025SOL    HW1 3084   0.644   2.692   4.357
 1025SOL    HW2 3085   0.506   2.609   4.328
 1026SOL     OW 3086   0.859   3.236   3.740
 1026SOL    HW1 3087   0.813   3.251   3.828
 1026SOL    HW2 3088   0.903   3.321   3.710
 1027SOL     OW 3089   0.661   3.652   4.677
 1027SOL    HW1 3090   0.615   3.740   4.664
 1027SOL    HW2 3091   0.760   3.664   4.670
 1028SOL     OW 3092   0.859   2.818   4.585
 1028SOL    HW1 3093   0.913   2.749   4.633
 1028SOL    HW2 3094   0.827   2.887   4.651
 1029SOL     OW 3095   1.083   2.846   3.811
 1029SOL    HW1 3096   1.060   2.899   3.729
 1029SOL    HW2 3097   1.164   2.790   3.792
 1030SOL     OW 3098   0.079   3.102   4.377
 1030SOL    HW1 3099   0.078   3.055   4.465
 1030SOL    HW2 3100   0.161   3.074   4.326
 1031SOL     OW 3101   0.428   2.286   4.244
 1031SOL    HW1 3102   0.458   2.214   4.182
 1031SOL    HW2 3103   0.389   2.246   4.327
 1032SOL     OW 3104   1.705   3.349   4.828
 1032SOL    HW1 3105   1.612   3.324   4.801
 1032SOL    HW2 3106   1.731   3.299   4.910
 1033SOL     OW 3107   0.812   3.448   4.411
 1033SOL    HW1 3108   0.844   3.458   4.317
 1033SOL    HW2 3109   0.733   3.386   4.413
 1034SOL     OW 3110   0.770   3.192   4.025
 1034SOL    HW1 3111   0.724   3.105   4.042
 1034SOL    HW2 3112   0.861   3.189   4.066
 1035SOL     OW 3113   1.352   1.914   3.892
 1035SOL    HW1 3114   1.387   1.873   3.808
 1035SOL    HW2 3115   1.262   1.876   3.912
 1036SOL     OW 3116   1.300   2.315   4.415
 1036SOL    HW1 3117   1.241   2.395   4.419
 1036SOL    HW2 3118   1.315   2.280   4.508
 1037SOL     OW 3119   0.039   2.939   4.024
 1037SOL    HW1 3120   0.138   2.928   4.015
 1037SOL    HW2 3121  -0.001   2.853   4.056
 1038SOL     OW 3122   0.875   3.508   4.061
 1038SOL    HW1 3123   0.798   3.473   4.007
 1038SOL    HW2 3124   0.843   3.579   4.123
 1039SOL     OW 3125   0.230   4.352   0.113
 1039SOL    HW1 3126   0.137   4.350   0.150
 1039SOL    HW2 3127   0.231   4.313   0.021
 1040SOL     OW 3128   0.225   3.999   0.996
 1040SOL    HW1 3129   0.260   3.982   1.088
 1040SOL    HW2 3130   0.137   3.954   0.984
 1041SOL     OW 3131   0.019   4.092   0.647
 1041SOL    HW1 3132  -0.063   4.135   0.686
 1041SOL    HW2 3133  -0.009   4.019   0.584
 1042SOL     OW 3134   1.755   4.331   0.231
 1042SOL    HW1 3135   1.743   4.318   0.132
 1042SOL    HW2 3136   1.725   4.250   0.280
 1043SOL     OW 3137   0.850   4.522   1.823
 1043SOL    HW1 3138   0.846   4.598   1.888
 1043SOL    HW2 3139   0.872   4.558   1.732
 1044SOL     OW 3140   0.685   4.736   0.665
 1044SOL    HW1 3141   0.754   4.720   0.735
 1044SOL    HW2 3142   0.612   4.793   0.703
 1045SOL     OW 3143   0.438   4.116   1.499
 1045SOL    HW1 3144   0.520   4.060   1.508
 1045SOL    HW2 3145   0.357   4.058   1.503
 1046SOL     OW 3146   1.603   4.171   0.737
 1046SOL    HW1 3147   1.529   4.217   0.687
 1046SOL    HW2 3148   1.654   4.239   0.790
 1047SOL     OW 3149   1.594   3.838   1.480
 1047SOL    HW1 3150   1.576   3.905   1.408
 1047SOL    HW2 3151   1.591   3.884   1.569
 1048SOL     OW 3152   0.122   4.367   0.563
 1048SOL    HW1 3153   0.077   4.279   0.580
 1048SOL    HW2 3154   0.121   4.421   0.647
 1049SOL     OW 3155   0.113   4.461   1.597
 1049SOL    HW1 3156   0.201   4.448   1.642
 1049SOL    HW2 3157   0.100   4.558   1.575
 1050SOL     OW 3158   0.809   3.728   0.502
 1050SOL    HW1 3159   0.849   3.819   0.493
 1050SOL    HW2 3160   0.709   3.736   0.508
 1051SOL     OW 3161   0.317   3.975   1.801
 1051SOL    HW1 3162   0.388   4.046   1.807
 1051SOL    HW2 3163   0.229   4.014   1.829
 1052SOL     OW 3164   0.598   4.453   0.270
 1052SOL    HW1 3165   0.622   4.522   0.202
 1052SOL    HW2 3166   0.520   4.486   0.324
 1053SOL     OW 3167   1.281   4.069   0.944
 1053SOL    HW1 3168   1.195   4.019   0.931
 1053SOL    HW2 3169   1.343   4.015   1.000
 1054SOL     OW 3170   0.807   4.329   1.465
 1054SOL    HW1 3171   0.760   4.326   1.554
 1054SOL    HW2 3172   0.756   4.274   1.399
 1055SOL     OW 3173   1.394   4.193   1.674
 1055SOL    HW1 3174   1.374   4.236   1.762
 1055SOL    HW2 3175   1.472   4.131   1.683
 1056SOL     OW 3176   0.991   4.134   1.242
 1056SOL    HW1 3177   0.914   4.168   1.296
 1056SOL    HW2 3178   0.957   4.083   1.163
 1057SOL     OW 3179   1.041   4.425   0.429
 1057SOL    HW1 3180   1.067   4.421   0.525
 1057SOL    HW2 3181   0.956   4.374   0.415
 1058SOL     OW 3182   0.076   4.535   0.789
 1058SOL    HW1 3183   0.175   4.523   0.798
 1058SOL    HW2 3184   0.052   4.630   0.810
 1059SOL     OW 3185   0.865   4.072   0.195
 1059SOL    HW1 3186   0.924   4.135   0.146
 1059SOL    HW2 3187   0.884   3.978   0.166
 1060SOL     OW 3188   1.719   4.309   1.831
 1060SOL    HW1 3189   1.693   4.398   1.795
 1060SOL    HW2 3190   1.717   4.241   1.758
 1061SOL     OW 3191   0.550   3.920   0.885
 1061SOL    HW1 3192   0.545   3.915   0.985
 1061SOL    HW2 3193   0.552   4.016   0.856
 1062SOL     OW 3194   1.458   4.459   0.728
 1062SOL    HW1 3195   1.453   4.394   0.803
 1062SOL    HW2 3196   1.538   4.518   0.741
 1063SOL     OW 3197   0.202   4.009   1.498
 1063SOL    HW1 3198   0.122   4.069   1.485
 1063SOL    HW2 3199   0.192   3.960   1.584
 1064SOL     OW 3200   1.400   3.831   0.426
 1064SOL    HW1 3201   1.376   3.794   0.336
 1064SOL    HW2 3202   1.499   3.847   0.430
 1065SOL     OW 3203   0.382   4.424   0.480
 1065SOL    HW1 3204   0.427   4.334   0.477
 1065SOL    HW2 3205   0.288   4.413   0.513
 1066SOL     OW 3206   1.547   3.946   1.729
 1066SOL    HW1 3207   1.542   3.983   1.821
 1066SOL    HW2 3208   1.475   3.877   1.717
 1067SOL     OW 3209   0.781   3.988   1.749
 1067SOL    HW1 3210   0.848   3.927   1.792
 1067SOL    HW2 3211   0.708   4.007   1.814
 1068SOL     OW 3212   1.351   4.314   1.433
 1068SOL    HW1 3213   1.379   4.271   1.518
 1068SOL    HW2 3214   1.376   4.410   1.434
 1069SOL     OW 3215   0.922   4.227   0.899
 1069SOL    HW1 3216   0.897   4.218   0.803
 1069SOL    HW2 3217   0.970   4.145   0.930
 1070SOL     OW 3218   0.539   3.788   0.512
 1070SOL    HW1 3219   0.458   3.789   0.570
 1070SOL    HW2 3220   0.542   3.871   0.457
 1071SOL     OW 3221   0.297   3.759   0.171
 1071SOL    HW1 3222   0.346   3.843   0.150
 1071SOL    HW2 3223   0.359   3.694   0.216
 1072SOL     OW 3224   0.935   3.960   0.480
 1072SOL    HW1 3225   0.887   4.001   0.402
 1072SOL    HW2 3226   1.034   3.958   0.461
 1073SOL     OW 3227   1.076   4.407   1.464
 1073SOL    HW1 3228   0.996   4.346   1.467
 1073SOL    HW2 3229   1.157   4.354   1.440
 1074SOL     OW 3230   1.032   4.273   0.016
 1074SOL    HW1 3231   0.991   4.355  -0.023
 1074SOL    HW2 3232   1.096   4.299   0.089
 1075SOL     OW 3233   0.078   4.280   1.386
 1075SOL    HW1 3234   0.170   4.279   1.345
 1075SOL    HW2 3235   0.072   4.354   1.453
 1076SOL     OW 3236   0.561   3.946   1.147
 1076SOL    HW1 3237   0.599   3.862   1.184
 1076SOL    HW2 3238   0.473   3.965   1.191
 1077SOL     OW 3239   0.866   4.178   0.642
 1077SOL    HW1 3240   0.834   4.250   0.580
 1077SOL    HW2 3241   0.890   4.097   0.589
 1078SOL     OW 3242   1.017   3.763   0.753
 1078SOL    HW1 3243   0.945   3.768   0.684
 1078SOL    HW2 3244   0.993   3.694   0.822
 1079SOL     OW 3245   1.466   4.314   0.992
 1079SOL    HW1 3246   1.436   4.219   0.999
 1079SOL    HW2 3247   1.539   4.330   1.058
 1080SOL     OW 3248   1.857   4.557   0.377
 1080SOL    HW1 3249   1.899   4.493   0.441
 1080SOL    HW2 3250   1.819   4.506   0.299
 1081SOL     OW 3251   1.390   4.299   0.078
 1081SOL    HW1 3252   1.336   4.278   0.159
 1081SOL    HW2 3253   1.481   4.258   0.087
 1082SOL     OW 3254   0.527   3.980   0.328
 1082SOL    HW1 3255   0.554   3.921   0.253
 1082SOL    HW2 3256   0.527   4.075   0.297
 1083SOL     OW 3257   0.915   3.813   1.402
 1083SOL    HW1 3258   0.940   3.793   1.307
 1083SOL    HW2 3259   0.987   3.869   1.444
 1084SOL     OW 3260   0.705   4.774   0.368
 1084SOL    HW1 3261   0.691   4.781   0.467
 1084SOL    HW2 3262   0.789   4.723   0.350
 1085SOL     OW 3263   0.410   4.537   1.251
 1085SOL    HW1 3264   0.496   4.549   1.301
 1085SOL    HW2 3265   0.368   4.450   1.278
 1086SOL     OW 3266   1.274   4.110   1.262
 1086SOL    HW1 3267   1.295   4.184   1.326
 1086SOL    HW2 3268   1.185   4.127   1.219
 1087SOL     OW 3269   0.566   4.261   0.865
 1087SOL    HW1 3270   0.578   4.327   0.791
 1087SOL    HW2 3271   0.612   4.295   0.948
 1088SOL     OW 3272   1.582   4.363   0.472
 1088SOL    HW1 3273   1.551   4.424   0.545
 1088SOL    HW2 3274   1.632   4.415   0.403
 1089SOL     OW 3275   1.587   4.503   1.670
 1089SOL    HW1 3276   1.495   4.541   1.665
 1089SOL    HW2 3277   1.647   4.550   1.605
 1090SOL     OW 3278   1.013   3.829   1.770
 1090SOL    HW1 3279   1.019   3.914   1.718
 1090SOL    HW2 3280   1.045   3.753   1.713
 1091SOL     OW 3281   0.504   3.774   1.740
 1091SOL    HW1 3282   0.462   3.717   1.670
 1091SOL    HW2 3283   0.438   3.843   1.772
 1092SOL     OW 3284   1.360   4.586   1.045
 1092SOL    HW1 3285   1.285   4.586   0.979
 1092SOL    HW2 3286   1.397   4.494   1.054
 1093SOL     OW 3287   1.209   4.249   0.275
 1093SOL    HW1 3288   1.222   4.165   0.329
 1093SOL    HW2 3289   1.180   4.323   0.335
 1094SOL     OW 3290   0.307   3.937   1.231
 1094SOL    HW1 3291   0.284   3.974   1.321
 1094SOL    HW2 3292   0.277   3.842   1.225
 1095SOL     OW 3293   0.732   4.358   1.064
 1095SOL    HW1 3294   0.791   4.332   0.988
 1095SOL    HW2 3295   0.704   4.454   1.053
 1096SOL     OW 3296   1.728   4.659   1.854
 1096SOL    HW1 3297   1.682   4.652   1.765
 1096SOL    HW2 3298   1.666   4.703   1.920
 1097SOL     OW 3299   0.307   3.787   0.618
 1097SOL    HW1 3300   0.296   3.881   0.651
 1097SOL    HW2 3301   0.302   3.724   0.695
 1098SOL     OW 3302   1.622   4.091   0.374
 1098SOL    HW1 3303   1.624   4.015   0.438
 1098SOL    HW2 3304   1.574   4.168   0.414
 1099SOL     OW 3305   1.540   3.998   0.125
 1099SOL    HW1 3306   1.479   3.923   0.148
 1099SOL    HW2 3307   1.562   4.050   0.208
 1100SOL     OW 3308   0.319   4.534   0.949
 1100SOL    HW1 3309   0.412   4.570   0.954
 1100SOL    HW2 3310   0.313   4.449   1.001
 1101SOL     OW 3311   0.339   4.233   1.006
 1101SOL    HW1 3312   0.287   4.150   0.989
 1101SOL    HW2 3313   0.416   4.238   0.942
 1102SOL     OW 3314   1.138   4.104   1.678
 1102SOL    HW1 3315   1.093   4.167   1.742
 1102SOL    HW2 3316   1.231   4.135   1.661
 1103SOL     OW 3317   1.160   3.931   1.477
 1103SOL    HW1 3318   1.160   3.995   1.554
 1103SOL    HW2 3319   1.188   3.979   1.394
 1104SOL     OW 3320   0.040   4.268   1.114
 1104SOL    HW1 3321   0.125   4.235   1.073
 1104SOL    HW2 3322   0.053   4.283   1.212
 1105SOL     OW 3323   0.189   4.244   1.722
 1105SOL    HW1 3324   0.248   4.204   1.652
 1105SOL    HW2 3325   0.131   4.315   1.681
 1106SOL     OW 3326   0.815   4.296   0.325
 1106SOL    HW1 3327   0.822   4.207   0.279
 1106SOL    HW2 3328   0.721   4.330   0.317
 1107SOL     OW 3329   1.657   4.328   1.206
 1107SOL    HW1 3330   1.619   4.259   1.268
 1107SOL    HW2 3331   1.739   4.292   1.162
 1108SOL     OW 3332   0.671   4.188   1.269
 1108SOL    HW1 3333   0.637   4.099   1.239
 1108SOL    HW2 3334   0.697   4.242   1.189
 1109SOL     OW 3335   0.473   4.224   0.191
 1109SOL    HW1 3336   0.534   4.304   0.195
 1109SOL    HW2 3337   0.378   4.255   0.198
 1110SOL     OW 3338   0.903   3.810   0.133
 1110SOL    HW1 3339   0.954   3.811   0.047
 1110SOL    HW2 3340   0.959   3.768   0.204
 1111SOL     OW 3341   1.726   3.859   0.523
 1111SOL    HW1 3342   1.799   3.842   0.456
 1111SOL    HW2 3343   1.695   3.772   0.561
 1112SOL     OW 3344   1.280   4.651   0.672
 1112SOL    HW1 3345   1.340   4.570   0.674
 1112SOL    HW2 3346   1.320   4.720   0.612
 1113SOL     OW 3347   1.841   3.899   0.963
 1113SOL    HW1 3348   1.880   3.814   0.927
 1113SOL    HW2 3349   1.743   3.901   0.944
 1114SOL     OW 3350   0.263   4.050   0.720
 1114SOL    HW1 3351   0.184   4.101   0.686
 1114SOL    HW2 3352   0.254   4.035   0.818
 1115SOL     OW 3353   1.014   3.960   0.971
 1115SOL    HW1 3354   1.006   3.924   0.878
 1115SOL    HW2 3355   1.012   3.884   1.036
 1116SOL     OW 3356   1.709   4.109   1.381
 1116SOL    HW1 3357   1.782   4.178   1.385
 1116SOL    HW2 3358   1.737   4.034   1.322
 1117SOL     OW 3359   0.105   4.737   1.726
 1117SOL    HW1 3360   0.028   4.704   1.780
 1117SOL    HW2 3361   0.190   4.707   1.768
 1118SOL     OW 3362   0.672   3.927   1.489
 1118SOL    HW1 3363   0.762   3.911   1.449
 1118SOL    HW2 3364   0.680   3.932   1.588
 1119SOL     OW 3365   0.075   4.069   0.033
 1119SOL    HW1 3366  -0.017   4.041   0.004
 1119SOL    HW2 3367   0.106   4.146  -0.023
 1120SOL     OW 3368   0.072   3.890   0.318
 1120SOL    HW1 3369   0.055   3.973   0.264
 1120SOL    HW2 3370   0.162   3.853   0.296
 1121SOL     OW 3371   0.716   4.289   1.708
 1121SOL    HW1 3372   0.735   4.354   1.782
 1121SOL    HW2 3373   0.776   4.209   1.717
 1122SOL     OW 3374   1.674   4.607   1.254
 1122SOL    HW1 3375   1.647   4.518   1.217
 1122SOL    HW2 3376   1.675   4.675   1.181
 1123SOL     OW 3377   1.225   4.049   0.449
 1123SOL    HW1 3378   1.290   3.975   0.438
 1123SOL    HW2 3379   1.245   4.099   0.533
 1124SOL     OW 3380   0.594   4.469   0.652
 1124SOL    HW1 3381   0.644   4.554   0.633
 1124SOL    HW2 3382   0.506   4.471   0.604
 1125SOL     OW 3383   1.777   4.066   1.642
 1125SOL    HW1 3384   1.760   4.097   1.548
 1125SOL    HW2 3385   1.693   4.029   1.680
 1126SOL     OW 3386   0.859   4.680   0.861
 1126SOL    HW1 3387   0.913   4.611   0.909
 1126SOL    HW2 3388   0.827   4.749   0.927
 1127SOL     OW 3389   1.824   3.916   1.227
 1127SOL    HW1 3390   1.820   3.826   1.271
 1127SOL    HW2 3391   1.827   3.905   1.128
 1128SOL     OW 3392   0.428   4.148   0.520
 1128SOL    HW1 3393   0.458   4.076   0.458
 1128SOL    HW2 3394   0.389   4.108   0.603
 1129SOL     OW 3395   0.317   4.271   1.280
 1129SOL    HW1 3396   0.355   4.212   1.352
 1129SOL    HW2 3397   0.357   4.245   1.192
 1130SOL     OW 3398   1.424   3.938   1.112
 1130SOL    HW1 3399   1.476   3.873   1.167
 1130SOL    HW2 3400   1.375   4.001   1.173
 1131SOL     OW 3401   1.001   3.758   1.154
 1131SOL    HW1 3402   0.938   3.686   1.123
 1131SOL    HW2 3403   1.094   3.722   1.154
 1132SOL     OW 3404   1.352   3.776   0.168
 1132SOL    HW1 3405   1.387   3.735   0.084
 1132SOL    HW2 3406   1.262   3.738   0.188
 1133SOL     OW 3407   1.300   4.177   0.691
 1133SOL    HW1 3408   1.241   4.257   0.695
 1133SOL    HW2 3409   1.315   4.142   0.784
 1134SOL     OW 3410   1.593   3.945   0.882
 1134SOL    HW1 3411   1.509   3.944   0.936
 1134SOL    HW2 3412   1.595   4.028   0.826
 1135SOL     OW 3413   0.230   4.352   1.975
 1135SOL    HW1 3414   0.137   4.350   2.012
 1135SOL    HW2 3415   0.231   4.313   1.883
 1136SOL     OW 3416   0.225   3.999   2.858
 1136SOL    HW1 3417   0.260   3.982   2.950
 1136SOL    HW2 3418   0.137   3.954   2.846
 1137SOL     OW 3419   0.019   4.092   2.509
 1137SOL    HW1 3420  -0.063   4.135   2.548
 1137SOL    HW2 3421  -0.009   4.019   2.446
 1138SOL     OW 3422   1.755   4.331   2.093
 1138SOL    HW1 3423   1.743   4.318   1.994
 1138SOL    HW2 3424   1.725   4.250   2.142
 1139SOL     OW 3425   0.850   4.522   3.685
 1139SOL    HW1 3426   0.846   4.598   3.750
 1139SOL    HW2 3427   0.872   4.558   3.594
 1140SOL     OW 3428   0.685   4.736   2.527
 1140SOL    HW1 3429   0.754   4.720   2.597
 1140SOL    HW2 3430   0.612   4.793   2.565
 1141SOL     OW 3431   0.438   4.116   3.361
 1141SOL    HW1 3432   0.520   4.060   3.370
 1141SOL    HW2 3433   0.357   4.058   3.365
 1142SOL     OW 3434   1.603   4.171   2.599
 1142SOL    HW1 3435   1.529   4.217   2.549
 1142SOL    HW2 3436   1.654   4.239   2.652
 1143SOL     OW 3437   1.594   3.838   3.342
 1143SOL    HW1 3438   1.576   3.905   3.270
 1143SOL    HW2 3439   1.591   3.884   3.431
 1144SOL     OW 3440   0.122   4.367   2.425
 1144SOL    HW1 3441   0.077   4.279   2.442
 1144SOL    HW2 3442   0.121   4.421   2.509
 1145SOL     OW 3443   0.113   4.461   3.459
 1145SOL    HW1 3444   0.201   4.448   3.504
 1145SOL    HW2 3445   0.100   4.558   3.437
 1146SOL     OW 3446   0.809   3.728   2.364
 1146SOL    HW1 3447   0.849   3.819   2.355
 1146SOL    HW2 3448   0.709   3.736   2.370
 1147SOL     OW 3449   0.317   3.975   3.663
 1147SOL    HW1 3450   0.388   4.046   3.669
 1147SOL    HW2 3451   0.229   4.014   3.691
 1148SOL     OW 3452   0.598   4.453   2.132
 1148SOL    HW1 3453   0.622   4.522   2.064
 1148SOL    HW2 3454   0.520   4.486   2.186
 1149SOL     OW 3455   1.281   4.069   2.806
 1149SOL    HW1 3456   1.195   4.019   2.793
 1149SOL    HW2 3457   1.343   4.015   2.862
 1150SOL     OW 3458   0.807   4.329   3.327
 1150SOL    HW1 3459   0.760   4.326   3.416
 1150SOL    HW2 3460   0.756   4.274   3.261
 1151SOL     OW 3461   1.394   4.193   3.536
 1151SOL    HW1 3462   1.374   4.236   3.624
 1151SOL    HW2 3463   1.472   4.131   3.545
 1152SOL     OW 3464   0.991   4.134   3.104
 1152SOL    HW1 3465   0.914   4.168   3.158
 1152SOL    HW2 3466   0.957   4.083   3.025
 1153SOL     OW 3467   1.041   4.425   2.291
 1153SOL    HW1 3468   1.067   4.421   2.387
 1153SOL    HW2 3469   0.956   4.374   2.277
 1154SOL     OW 3470   0.076   4.535   2.651
 1154SOL    HW1 3471   0.175   4.523   2.660
 1154SOL    HW2 3472   0.052   4.630   2.672
 1155SOL     OW 3473   0.865   4.072   2.057
 1155SOL    HW1 3474   0.924   4.135   2.008
 1155SOL    HW2 3475   0.884   3.978   2.028
 1156SOL     OW 3476   1.719   4.309   3.693
 1156SOL    HW1 3477   1.693   4.398   3.657
 1156SOL    HW2 3478   1.717   4.241   3.620
 1157SOL     OW 3479   0.550   3.920   2.747
 1157SOL    HW1 3480   0.545   3.915   2.847
 1157SOL    HW2 3481   0.552   4.016   2.718
 1158SOL     OW 3482   1.458   4.459   2.590
 1158SOL    HW1 3483   1.453   4.394   2.665
 1158SOL    HW2 3484   1.538   4.518   2.603
 1159SOL     OW 3485   0.202   4.009   3.360
 1159SOL    HW1 3486   0.122   4.069   3.347
 1159SOL    HW2 3487   0.192   3.960   3.446
 1160SOL     OW 3488   1.400   3.831   2.288
 1160SOL    HW1 3489   1.376   3.794   2.198
 1160SOL    HW2 3490   1.499   3.847   2.292
 1161SOL     OW 3491   0.382   4.424   2.342
 1161SOL    HW1 3492   0.427   4.334   2.339
 1161SOL    HW2 3493   0.288   4.413   2.375
 1162SOL     OW 3494   1.547   3.946   3.591
 1162SOL    HW1 3495   1.542   3.983   3.683
 1162SOL    HW2 3496   1.475   3.877   3.579
 1163SOL     OW 3497   0.614   3.846   1.979
 1163SOL    HW1 3498   0.712   3.824   1.986
 1163SOL    HW2 3499   0.583   3.829   1.886
 1164SOL     OW 3500   0.781   3.988   3.611
 1164SOL    HW1 3501   0.848   3.927   3.654
 1164SOL    HW2 3502   0.708   4.007   3.676
 1165SOL     OW 3503   1.351   4.314   3.295
 1165SOL    HW1 3504   1.379   4.271   3.380
 1165SOL    HW2 3505   1.376   4.410   3.296
 1166SOL     OW 3506   0.922   4.227   2.761
 1166SOL    HW1 3507   0.897   4.218   2.665
 1166SOL    HW2 3508   0.970   4.145   2.792
 1167SOL     OW 3509   0.539   3.788   2.374
 1167SOL    HW1 3510   0.458   3.789   2.432
 1167SOL    HW2 3511   0.542   3.871   2.319
 1168SOL     OW 3512   0.297   3.759   2.033
 1168SOL    HW1 3513   0.346   3.843   2.012
 1168SOL    HW2 3514   0.359   3.694   2.078
 1169SOL     OW 3515   0.935   3.960   2.342
 1169SOL    HW1 3516   0.887   4.001   2.264
 1169SOL    HW2 3517   1.034   3.958   2.323
 1170SOL     OW 3518   1.076   4.407   3.326
 1170SOL    HW1 3519   0.996   4.346   3.329
 1170SOL    HW2 3520   1.157   4.354   3.302
 1171SOL     OW 3521   1.032   4.273   1.878
 1171SOL    HW1 3522   0.991   4.355   1.839
 1171SOL    HW2 3523   1.096   4.299   1.951
 1172SOL     OW 3524   0.078   4.280   3.248
 1172SOL    HW1 3525   0.170   4.279   3.207
 1172SOL    HW2 3526   0.072   4.354   3.315
 1173SOL     OW 3527   0.561   3.946   3.009
 1173SOL    HW1 3528   0.599   3.862   3.046
 1173SOL    HW2 3529   0.473   3.965   3.053
 1174SOL     OW 3530   0.866   4.178   2.504
 1174SOL    HW1 3531   0.834   4.250   2.442
 1174SOL    HW2 3532   0.890   4.097   2.451
 1175SOL     OW 3533   1.017   3.763   2.615
 1175SOL    HW1 3534   0.945   3.768   2.546
 1175SOL    HW2 3535   0.993   3.694   2.684
 1176SOL     OW 3536   1.466   4.314   2.854
 1176SOL    HW1 3537   1.436   4.219   2.861
 1176SOL    HW2 3538   1.539   4.330   2.920
 1177SOL     OW 3539   1.857   4.557   2.239
 1177SOL    HW1 3540   1.899   4.493   2.303
 1177SOL    HW2 3541   1.819   4.506   2.161
 1178SOL     OW 3542   1.390   4.299   1.940
 1178SOL    HW1 3543   1.336   4.278   2.021
 1178SOL    HW2 3544   1.481   4.258   1.949
 1179SOL     OW 3545   0.527   3.980   2.190
 1179SOL    HW1 3546   0.554   3.921   2.115
 1179SOL    HW2 3547   0.527   4.075   2.159
 1180SOL     OW 3548   0.915   3.813   3.264
 1180SOL    HW1 3549   0.940   3.793   3.169
 1180SOL    HW2 3550   0.987   3.869   3.306
 1181SOL     OW 3551   0.705   4.774   2.230
 1181SOL    HW1 3552   0.691   4.781   2.329
 1181SOL    HW2 3553   0.789   4.723   2.212
 1182SOL     OW 3554   0.410   4.537   3.113
 1182SOL    HW1 3555   0.496   4.549   3.163
 1182SOL    HW2 3556   0.368   4.450   3.140
 1183SOL     OW 3557   1.274   4.110   3.124
 1183SOL    HW1 3558   1.295   4.184   3.188
 1183SOL    HW2 3559   1.185   4.127   3.081
 1184SOL     OW 3560   0.566   4.261   2.727
 1184SOL    HW1 3561   0.578   4.327   2.653
 1184SOL    HW2 3562   0.612   4.295   2.810
 1185SOL     OW 3563   1.582   4.363   2.334
 1185SOL    HW1 3564   1.551   4.424   2.407
 1185SOL    HW2 3565   1.632   4.415   2.265
 1186SOL     OW 3566   1.587   4.503   3.532
 1186SOL    HW1 3567   1.495   4.541   3.527
 1186SOL    HW2 3568   1.647   4.550   3.467
 1187SOL     OW 3569   1.013   3.829   3.632
 1187SOL    HW1 3570   1.019   3.914   3.580
 1187SOL    HW2 3571   1.045   3.753   3.575
 1188SOL     OW 3572   0.504   3.774   3.602
 1188SOL    HW1 3573   0.462   3.717   3.532
 1188SOL    HW2 3574   0.438   3.843   3.634
 1189SOL     OW 3575   1.360   4.586   2.907
 1189SOL    HW1 3576   1.285   4.586   2.841
 1189SOL    HW2 3577   1.397   4.494   2.916
 1190SOL     OW 3578   1.209   4.249   2.137
 1190SOL    HW1 3579   1.222   4.165   2.191
 1190SOL    HW2 3580   1.180   4.323   2.197
 1191SOL     OW 3581   0.307   3.937   3.093
 1191SOL    HW1 3582   0.284   3.974   3.183
 1191SOL    HW2 3583   0.277   3.842   3.087
 1192SOL     OW 3584   0.732   4.358   2.926
 1192SOL    HW1 3585   0.791   4.332   2.850
 1192SOL    HW2 3586   0.704   4.454   2.915
 1193SOL     OW 3587   1.728   4.659   3.716
 1193SOL    HW1 3588   1.682   4.652   3.627
 1193SOL    HW2 3589   1.666   4.703   3.782
 1194SOL     OW 3590   0.307   3.787   2.480
 1194SOL    HW1 3591   0.296   3.881   2.513
 1194SOL    HW2 3592   0.302   3.724   2.557
 1195SOL     OW 3593   1.622   4.091   2.236
 1195SOL    HW1 3594   1.624   4.015   2.300
 1195SOL    HW2 3595   1.574   4.168   2.276
 1196SOL     OW 3596   1.540   3.998   1.987
 1196SOL    HW1 3597   1.479   3.923   2.010
 1196SOL    HW2 3598   1.562   4.050   2.070
 1197SOL     OW 3599   0.319   4.534   2.811
 1197SOL    HW1 3600   0.412   4.570   2.816
 1197SOL    HW2 3601   0.313   4.449   2.863
 1198SOL     OW 3602   0.339   4.233   2.868
 1198SOL    HW1 3603   0.287   4.150   2.851
 1198SOL    HW2 3604   0.416   4.238   2.804
 1199SOL     OW 3605   1.138   4.104   3.540
 1199SOL    HW1 3606   1.093   4.167   3.604
 1199SOL    HW2 3607   1.231   4.135   3.523
 1200SOL     OW 3608   1.160   3.931   3.339
 1200SOL    HW1 3609   1.160   3.995   3.416
 1200SOL    HW2 3610   1.188   3.979   3.256
 1201SOL     OW 3611   0.040   4.268   2.976
 1201SOL    HW1 3612   0.125   4.235   2.935
 1201SOL    HW2 3613   0.053   4.283   3.074
 1202SOL     OW 3614   0.189   4.244   3.584
 1202SOL    HW1 3615   0.248   4.204   3.514
 1202SOL    HW2 3616   0.131   4.315   3.543
 1203SOL     OW 3617   0.815   4.296   2.187
 1203SOL    HW1 3618   0.822   4.207   2.141
 1203SOL    HW2 3619   0.721   4.330   2.179
 1204SOL     OW 3620   1.657   4.328   3.068
 1204SOL    HW1 3621   1.619   4.259   3.130
 1204SOL    HW2 3622   1.739   4.292   3.024
 1205SOL     OW 3623   0.671   4.188   3.131
 1205SOL    HW1 3624   0.637   4.099   3.101
 1205SOL    HW2 3625   0.697   4.242   3.051
 1206SOL     OW 3626   0.473   4.224   2.053
 1206SOL    HW1 3627   0.534   4.304   2.057
 1206SOL    HW2 3628   0.378   4.255   2.060
 1207SOL     OW 3629   1.726   3.859   2.385
 1207SOL    HW1 3630   1.799   3.842   2.318
 1207SOL    HW2 3631   1.695   3.772   2.423
 1208SOL     OW 3632   1.280   4.651   2.534
 1208SOL    HW1 3633   1.340   4.570   2.536
 1208SOL    HW2 3634   1.320   4.720   2.474
 1209SOL     OW 3635   1.841   3.899   2.825
 1209SOL    HW1 3636   1.880   3.814   2.789
 1209SOL    HW2 3637   1.743   3.901   2.806
 1210SOL     OW 3638   0.263   4.050   2.582
 1210SOL    HW1 3639   0.184   4.101   2.548
 1210SOL    HW2 3640   0.254   4.035   2.680
 1211SOL     OW 3641   0.916   4.634   2.153
 1211SOL    HW1 3642   0.979   4.672   2.085
 1211SOL    HW2 3643   0.956   4.551   2.192
 1212SOL     OW 3644   1.014   3.960   2.833
 1212SOL    HW1 3645   1.006   3.924   2.740
 1212SOL    HW2 3646   1.012   3.884   2.898
 1213SOL     OW 3647   1.709   4.109   3.243
 1213SOL    HW1 3648   1.782   4.178   3.247
 1213SOL    HW2 3649   1.737   4.034   3.184
 1214SOL     OW 3650   0.105   4.737   3.588
 1214SOL    HW1 3651   0.028   4.704   3.642
 1214SOL    HW2 3652   0.190   4.707   3.630
 1215SOL     OW 3653   0.672   3.927   3.351
 1215SOL    HW1 3654   0.762   3.911   3.311
 1215SOL    HW2 3655   0.680   3.932   3.450
 1216SOL     OW 3656   0.075   4.069   1.895
 1216SOL    HW1 3657  -0.017   4.041   1.866
 1216SOL    HW2 3658   0.106   4.146   1.839
 1217SOL     OW 3659   0.072   3.890   2.180
 1217SOL    HW1 3660   0.055   3.973   2.126
 1217SOL    HW2 3661   0.162   3.853   2.158
 1218SOL     OW 3662   0.716   4.289   3.570
 1218SOL    HW1 3663   0.735   4.354   3.644
 1218SOL    HW2 3664   0.776   4.209   3.579
 1219SOL     OW 3665   1.674   4.607   3.116
 1219SOL    HW1 3666   1.647   4.518   3.079
 1219SOL    HW2 3667   1.675   4.675   3.043
 1220SOL     OW 3668   1.225   4.049   2.311
 1220SOL    HW1 3669   1.290   3.975   2.300
 1220SOL    HW2 3670   1.245   4.099   2.395
 1221SOL     OW 3671   0.594   4.469   2.514
 1221SOL    HW1 3672   0.644   4.554   2.495
 1221SOL    HW2 3673   0.506   4.471   2.466
 1222SOL     OW 3674   1.777   4.066   3.504
 1222SOL    HW1 3675   1.760   4.097   3.410
 1222SOL    HW2 3676   1.693   4.029   3.542
 1223SOL     OW 3677   0.859   4.680   2.723
 1223SOL    HW1 3678   0.913   4.611   2.771
 1223SOL    HW2 3679   0.827   4.749   2.789
 1224SOL     OW 3680   1.824   3.916   3.089
 1224SOL    HW1 3681   1.820   3.826   3.133
 1224SOL    HW2 3682   1.827   3.905   2.990
 1225SOL     OW 3683   0.428   4.148   2.382
 1225SOL    HW1 3684   0.458   4.076   2.320
 1225SOL    HW2 3685   0.389   4.108   2.465
 1226SOL     OW 3686   0.317   4.271   3.142
 1226SOL    HW1 3687   0.355   4.212   3.214
 1226SOL    HW2 3688   0.357   4.245   3.054
 1227SOL     OW 3689   1.424   3.938   2.974
 1227SOL    HW1 3690   1.476   3.873   3.029
 1227SOL    HW2 3691   1.375   4.001   3.035
 1228SOL     OW 3692   1.001   3.758   3.016
 1228SOL    HW1 3693   0.938   3.686   2.985
 1228SOL    HW2 3694   1.094   3.722   3.016
 1229SOL     OW 3695   1.352   3.776   2.030
 1229SOL    HW1 3696   1.387   3.735   1.946
 1229SOL    HW2 3697   1.262   3.738   2.050
 1230SOL     OW 3698   1.300   4.177   2.553
 1230SOL    HW1 3699   1.241   4.257   2.557
 1230SOL    HW2 3700   1.315   4.142   2.646
 1231SOL     OW 3701   1.593   3.945   2.744
 1231SOL    HW1 3702   1.509   3.944   2.798
 1231SOL    HW2 3703   1.595   4.028   2.688
 1232SOL     OW 3704   0.230   4.352   3.837
 1232SOL    HW1 3705   0.137   4.350   3.874
 1232SOL    HW2 3706   0.231   4.313   3.745
 1233SOL     OW 3707   0.225   3.999   4.720
 1233SOL    HW1 3708   0.260   3.982   4.812
 1233SOL    HW2 3709   0.137   3.954   4.708
 1234SOL     OW 3710   0.019   4.092   4.371
 1234SOL    HW1 3711  -0.063   4.135   4.410
 1234SOL    HW2 3712  -0.009   4.019   4.308
 1235SOL     OW 3713   1.755   4.331   3.955
 1235SOL    HW1 3714   1.743   4.318   3.856
 1235SOL    HW2 3715   1.725   4.250   4.004
 1236SOL     OW 3716   0.685   4.736   4.389
 1236SOL    HW1 3717   0.754   4.720   4.459
 1236SOL    HW2 3718   0.612   4.793   4.427
 1237SOL     OW 3719   1.603   4.171   4.461
 1237SOL    HW1 3720   1.529   4.217   4.411
 1237SOL    HW2 3721   1.654   4.239   4.514
 1238SOL     OW 3722   0.122   4.367   4.287
 1238SOL    HW1 3723   0.077   4.279   4.304
 1238SOL    HW2 3724   0.121   4.421   4.371
 1239SOL     OW 3725   0.809   3.728   4.226
 1239SOL    HW1 3726   0.849   3.819   4.217
 1239SOL    HW2 3727   0.709   3.736   4.232
 1240SOL     OW 3728   0.598   4.453   3.994
 1240SOL    HW1 3729   0.622   4.522   3.926
 1240SOL    HW2 3730   0.520   4.486   4.048
 1241SOL     OW 3731   1.281   4.069   4.668
 1241SOL    HW1 3732   1.195   4.019   4.655
 1241SOL    HW2 3733   1.343   4.015   4.724
 1242SOL     OW 3734   1.041   4.425   4.153
 1242SOL    HW1 3735   1.067   4.421   4.249
 1242SOL    HW2 3736   0.956   4.374   4.139
 1243SOL     OW 3737   0.076   4.535   4.513
 1243SOL    HW1 3738   0.175   4.523   4.522
 1243SOL    HW2 3739   0.052   4.630   4.534
 1244SOL     OW 3740   0.865   4.072   3.919
 1244SOL    HW1 3741   0.924   4.135   3.870
 1244SOL    HW2 3742   0.884   3.978   3.890
 1245SOL     OW 3743   1.458   4.459   4.452
 1245SOL    HW1 3744   1.453   4.394   4.527
 1245SOL    HW2 3745   1.538   4.518   4.465
 1246SOL     OW 3746   1.400   3.831   4.150
 1246SOL    HW1 3747   1.376   3.794   4.060
 1246SOL    HW2 3748   1.499   3.847   4.154
 1247SOL     OW 3749   0.382   4.424   4.204
 1247SOL    HW1 3750   0.427   4.334   4.201
 1247SOL    HW2 3751   0.288   4.413   4.237
 1248SOL     OW 3752   0.614   3.846   3.841
 1248SOL    HW1 3753   0.712   3.824   3.848
 1248SOL    HW2 3754   0.583   3.829   3.748
 1249SOL     OW 3755   0.539   3.788   4.236
 1249SOL    HW1 3756   0.458   3.789   4.294
 1249SOL    HW2 3757   0.542   3.871   4.181
 1250SOL     OW 3758   0.297   3.759   3.895
 1250SOL    HW1 3759   0.346   3.843   3.874
 1250SOL    HW2 3760   0.359   3.694   3.940
 1251SOL     OW 3761   0.935   3.960   4.204
 1251SOL    HW1 3762   0.887   4.001   4.126
 1251SOL    HW2 3763   1.034   3.958   4.185
 1252SOL     OW 3764   1.032   4.273   3.740
 1252SOL    HW1 3765   0.991   4.355   3.701
 1252SOL    HW2 3766   1.096   4.299   3.813
 1253SOL     OW 3767   0.866   4.178   4.366
 1253SOL    HW1 3768   0.834   4.250   4.304
 1253SOL    HW2 3769   0.890   4.097   4.313
 1254SOL     OW 3770   1.857   4.557   4.101
 1254SOL    HW1 3771   1.899   4.493   4.165
 1254SOL    HW2 3772   1.819   4.506   4.023
 1255SOL     OW 3773   1.390   4.299   3.802
 1255SOL    HW1 3774   1.336   4.278   3.883
 1255SOL    HW2 3775   1.481   4.258   3.811
 1256SOL     OW 3776   0.527   3.980   4.052
 1256SOL    HW1 3777   0.554   3.921   3.977
 1256SOL    HW2 3778   0.527   4.075   4.021
 1257SOL     OW 3779   0.705   4.774   4.092
 1257SOL    HW1 3780   0.691   4.781   4.191
 1257SOL    HW2 3781   0.789   4.723   4.074
 1258SOL     OW 3782   1.582   4.363   4.196
 1258SOL    HW1 3783   1.551   4.424   4.269
 1258SOL    HW2 3784   1.632   4.415   4.127
 1259SOL     OW 3785   1.209   4.249   3.999
 1259SOL    HW1 3786   1.222   4.165   4.053
 1259SOL    HW2 3787   1.180   4.323   4.059
 1260SOL     OW 3788   0.307   3.787   4.342
 1260SOL    HW1 3789   0.296   3.881   4.375
 1260SOL    HW2 3790   0.302   3.724   4.419
 1261SOL     OW 3791   1.622   4.091   4.098
 1261SOL    HW1 3792   1.624   4.015   4.162
 1261SOL    HW2 3793   1.574   4.168   4.138
 1262SOL     OW 3794   1.540   3.998   3.849
 1262SOL    HW1 3795   1.479   3.923   3.872
 1262SOL    HW2 3796   1.562   4.050   3.932
 1263SOL     OW 3797   0.040   4.268   4.838
 1263SOL    HW1 3798   0.125   4.235   4.797
 1263SOL    HW2 3799   0.053   4.283   4.936
 1264SOL     OW 3800   0.815   4.296   4.049
 1264SOL    HW1 3801   0.822   4.207   4.003
 1264SOL    HW2 3802   0.721   4.330   4.041
 1265SOL     OW 3803   0.473   4.224   3.915
 1265SOL    HW1 3804   0.534   4.304   3.919
 1265SOL    HW2 3805   0.378   4.255   3.922
 1266SOL     OW 3806   1.726   3.859   4.247
 1266SOL    HW1 3807   1.799   3.842   4.180
 1266SOL    HW2 3808   1.695   3.772   4.285
 1267SOL     OW 3809   1.280   4.651   4.396
 1267SOL    HW1 3810   1.340   4.570   4.398
 1267SOL    HW2 3811   1.320   4.720   4.336
 1268SOL     OW 3812   1.841   3.899   4.687
 1268SOL    HW1 3813   1.880   3.814   4.651
 1268SOL    HW2 3814   1.743   3.901   4.668
 1269SOL     OW 3815   0.263   4.050   4.444
 1269SOL    HW1 3816   0.184   4.101   4.410
 1269SOL    HW2 3817   0.254   4.035   4.542
 1270SOL     OW 3818   0.916   4.634   4.015
 1270SOL    HW1 3819   0.979   4.672   3.947
 1270SOL    HW2 3820   0.956   4.551   4.054
 1271SOL     OW 3821   1.039   4.822   4.420
 1271SOL    HW1 3822   0.969   4.775   4.474
 1271SOL    HW2 3823   1.098   4.754   4.377
 1272SOL     OW 3824   0.075   4.069   3.757
 1272SOL    HW1 3825  -0.017   4.041   3.728
 1272SOL    HW2 3826   0.106   4.146   3.701
 1273SOL     OW 3827   0.072   3.890   4.042
 1273SOL    HW1 3828   0.055   3.973   3.988
 1273SOL    HW2 3829   0.162   3.853   4.020
 1274SOL     OW 3830   1.225   4.049   4.173
 1274SOL    HW1 3831   1.290   3.975   4.162
 1274SOL    HW2 3832   1.245   4.099   4.257
 1275SOL     OW 3833   0.594   4.469   4.376
 1275SOL    HW1 3834   0.644   4.554   4.357
 1275SOL    HW2 3835   0.506   4.471   4.328
 1276SOL     OW 3836   0.428   4.148   4.244
 1276SOL    HW1 3837   0.458   4.076   4.182
 1276SOL    HW2 3838   0.389   4.108   4.327
 1277SOL     OW 3839   1.352   3.776   3.892
 1277SOL    HW1 3840   1.387   3.735   3.808
 1277SOL    HW2 3841   1.262   3.738   3.912
 1278SOL     OW 3842   1.300   4.177   4.415
 1278SOL    HW1 3843   1.241   4.257   4.419
 1278SOL    HW2 3844   1.315   4.142   4.508
 1279SOL     OW 3845   2.092   0.628   0.113
 1279SOL    HW1 3846   1.999   0.626   0.150
 1279SOL    HW2 3847   2.093   0.589   0.021
 1280SOL     OW 3848   2.087   0.275   0.996
 1280SOL    HW1 3849   2.122   0.258   1.088
 1280SOL    HW2 3850   1.999   0.230   0.984
 1281SOL     OW 3851   1.881   0.368   0.647
 1281SOL    HW1 3852   1.799   0.411   0.686
 1281SOL    HW2 3853   1.853   0.295   0.584
 1282SOL     OW 3854   2.431   1.275   1.165
 1282SOL    HW1 3855   2.338   1.268   1.128
 1282SOL    HW2 3856   2.442   1.364   1.209
 1283SOL     OW 3857   3.417   1.511   0.703
 1283SOL    HW1 3858   3.360   1.495   0.784
 1283SOL    HW2 3859   3.358   1.521   0.623
 1284SOL     OW 3860   2.997   0.703   0.717
 1284SOL    HW1 3861   3.054   0.781   0.692
 1284SOL    HW2 3862   2.937   0.729   0.793
 1285SOL     OW 3863   3.617   0.607   0.231
 1285SOL    HW1 3864   3.605   0.594   0.132
 1285SOL    HW2 3865   3.587   0.526   0.280
 1286SOL     OW 3866   2.630   1.144   1.023
 1286SOL    HW1 3867   2.552   1.161   1.083
 1286SOL    HW2 3868   2.664   1.231   0.987
 1287SOL     OW 3869   2.712   0.798   1.823
 1287SOL    HW1 3870   2.708   0.874   1.888
 1287SOL    HW2 3871   2.734   0.834   1.732
 1288SOL     OW 3872   2.547   1.012   0.665
 1288SOL    HW1 3873   2.616   0.996   0.735
 1288SOL    HW2 3874   2.474   1.069   0.703
 1289SOL     OW 3875   2.548   1.161   1.803
 1289SOL    HW1 3876   2.608   1.240   1.817
 1289SOL    HW2 3877   2.462   1.192   1.762
 1290SOL     OW 3878   2.197   1.435   1.061
 1290SOL    HW1 3879   2.119   1.404   1.008
 1290SOL    HW2 3880   2.255   1.493   1.004
 1291SOL     OW 3881   3.322   1.505   1.339
 1291SOL    HW1 3882   3.346   1.599   1.365
 1291SOL    HW2 3883   3.306   1.451   1.421
 1292SOL     OW 3884   2.300   0.392   1.499
 1292SOL    HW1 3885   2.382   0.336   1.508
 1292SOL    HW2 3886   2.219   0.334   1.503
 1293SOL     OW 3887   3.465   0.447   0.737
 1293SOL    HW1 3888   3.391   0.493   0.687
 1293SOL    HW2 3889   3.516   0.515   0.790
 1294SOL     OW 3890   2.093   1.713   0.483
 1294SOL    HW1 3891   2.127   1.790   0.537
 1294SOL    HW2 3892   2.137   1.713   0.393
 1295SOL     OW 3893   2.989   1.341   1.690
 1295SOL    HW1 3894   3.036   1.341   1.778
 1295SOL    HW2 3895   2.941   1.254   1.679
 1296SOL     OW 3896   2.092   1.434   0.538
 1296SOL    HW1 3897   2.066   1.530   0.538
 1296SOL    HW2 3898   2.021   1.380   0.583
 1297SOL     OW 3899   2.102   1.091   0.886
 1297SOL    HW1 3900   2.116   1.007   0.938
 1297SOL    HW2 3901   2.047   1.155   0.941
 1298SOL     OW 3902   2.482   1.786   1.439
 1298SOL    HW1 3903   2.390   1.769   1.474
 1298SOL    HW2 3904   2.510   1.878   1.465
 1299SOL     OW 3905   2.468   0.964   0.123
 1299SOL    HW1 3906   2.475   1.048   0.069
 1299SOL    HW2 3907   2.514   0.977   0.211
 1300SOL     OW 3908   3.456   0.114   1.480
 1300SOL    HW1 3909   3.438   0.181   1.408
 1300SOL    HW2 3910   3.453   0.160   1.569
 1301SOL     OW 3911   1.984   0.643   0.563
 1301SOL    HW1 3912   1.939   0.555   0.580
 1301SOL    HW2 3913   1.983   0.697   0.647
 1302SOL     OW 3914   3.704   1.767   0.359
 1302SOL    HW1 3915   3.758   1.738   0.439
 1302SOL    HW2 3916   3.734   1.857   0.330
 1303SOL     OW 3917   1.889   1.596   0.117
 1303SOL    HW1 3918   1.870   1.500   0.138
 1303SOL    HW2 3919   1.856   1.654   0.192
 1304SOL     OW 3920   3.551   0.922   0.612
 1304SOL    HW1 3921   3.646   0.893   0.620
 1304SOL    HW2 3922   3.543   0.987   0.537
 1305SOL     OW 3923   3.503   1.108   0.432
 1305SOL    HW1 3924   3.589   1.110   0.380
 1305SOL    HW2 3925   3.517   1.155   0.520
 1306SOL     OW 3926   1.975   0.737   1.597
 1306SOL    HW1 3927   2.063   0.724   1.642
 1306SOL    HW2 3928   1.962   0.834   1.575
 1307SOL     OW 3929   2.475   1.365   0.726
 1307SOL    HW1 3930   2.426   1.278   0.735
 1307SOL    HW2 3931   2.452   1.408   0.639
 1308SOL     OW 3932   3.155   1.228   1.423
 1308SOL    HW1 3933   3.192   1.155   1.365
 1308SOL    HW2 3934   3.207   1.233   1.508
 1309SOL     OW 3935   2.671   0.004   0.502
 1309SOL    HW1 3936   2.711   0.095   0.493
 1309SOL    HW2 3937   2.571   0.012   0.508
 1310SOL     OW 3938   2.059   0.976   1.264
 1310SOL    HW1 3939   2.148   0.931   1.250
 1310SOL    HW2 3940   1.986   0.911   1.245
 1311SOL     OW 3941   3.387   0.999   0.190
 1311SOL    HW1 3942   3.324   0.923   0.203
 1311SOL    HW2 3943   3.435   1.017   0.276
 1312SOL     OW 3944   3.049   1.792   1.616
 1312SOL    HW1 3945   3.073   1.852   1.540
 1312SOL    HW2 3946   3.056   1.697   1.586
 1313SOL     OW 3947   2.179   0.251   1.801
 1313SOL    HW1 3948   2.250   0.322   1.807
 1313SOL    HW2 3949   2.091   0.290   1.829
 1314SOL     OW 3950   3.328   1.417   0.953
 1314SOL    HW1 3951   3.269   1.423   1.033
 1314SOL    HW2 3952   3.313   1.329   0.907
 1315SOL     OW 3953   3.529   1.714   0.572
 1315SOL    HW1 3954   3.488   1.691   0.484
 1315SOL    HW2 3955   3.511   1.640   0.637
 1316SOL     OW 3956   2.460   0.729   0.270
 1316SOL    HW1 3957   2.484   0.798   0.202
 1316SOL    HW2 3958   2.382   0.762   0.324
 1317SOL     OW 3959   3.143   0.345   0.944
 1317SOL    HW1 3960   3.057   0.295   0.931
 1317SOL    HW2 3961   3.205   0.291   1.000
 1318SOL     OW 3962   3.438   1.662   0.307
 1318SOL    HW1 3963   3.527   1.708   0.310
 1318SOL    HW2 3964   3.417   1.638   0.212
 1319SOL     OW 3965   2.669   0.605   1.465
 1319SOL    HW1 3966   2.622   0.602   1.554
 1319SOL    HW2 3967   2.618   0.550   1.399
 1320SOL     OW 3968   3.256   0.469   1.674
 1320SOL    HW1 3969   3.236   0.512   1.762
 1320SOL    HW2 3970   3.334   0.407   1.683
 1321SOL     OW 3971   2.835   0.890   1.572
 1321SOL    HW1 3972   2.881   0.806   1.543
 1321SOL    HW2 3973   2.779   0.924   1.497
 1322SOL     OW 3974   2.853   0.410   1.242
 1322SOL    HW1 3975   2.776   0.444   1.296
 1322SOL    HW2 3976   2.819   0.359   1.163
 1323SOL     OW 3977   2.903   0.701   0.429
 1323SOL    HW1 3978   2.929   0.697   0.525
 1323SOL    HW2 3979   2.818   0.650   0.415
 1324SOL     OW 3980   1.938   0.811   0.789
 1324SOL    HW1 3981   2.037   0.799   0.798
 1324SOL    HW2 3982   1.914   0.906   0.810
 1325SOL     OW 3983   1.992   1.821   1.571
 1325SOL    HW1 3984   1.982   1.806   1.670
 1325SOL    HW2 3985   1.906   1.857   1.535
 1326SOL     OW 3986   2.727   0.348   0.195
 1326SOL    HW1 3987   2.786   0.411   0.146
 1326SOL    HW2 3988   2.746   0.254   0.166
 1327SOL     OW 3989   3.581   0.585   1.831
 1327SOL    HW1 3990   3.555   0.674   1.795
 1327SOL    HW2 3991   3.579   0.517   1.758
 1328SOL     OW 3992   3.224   1.144   0.545
 1328SOL    HW1 3993   3.307   1.115   0.497
 1328SOL    HW2 3994   3.175   1.211   0.489
 1329SOL     OW 3995   2.412   0.196   0.885
 1329SOL    HW1 3996   2.407   0.191   0.985
 1329SOL    HW2 3997   2.414   0.292   0.856
 1330SOL     OW 3998   2.870   1.456   0.477
 1330SOL    HW1 3999   2.824   1.528   0.425
 1330SOL    HW2 4000   2.866   1.476   0.575
 1331SOL     OW 4001   2.213   1.801   0.853
 1331SOL    HW1 4002   2.263   1.715   0.859
 1331SOL    HW2 4003   2.278   1.878   0.850
 1332SOL     OW 4004   3.657   1.066   0.873
 1332SOL    HW1 4005   3.595   1.051   0.797
 1332SOL    HW2 4006   3.605   1.077   0.958
 1333SOL     OW 4007   3.089   1.550   1.506
 1333SOL    HW1 4008   3.095   1.473   1.570
 1333SOL    HW2 4009   3.037   1.524   1.426
 1334SOL     OW 4010   2.183   0.943   0.242
 1334SOL    HW1 4011   2.265   0.982   0.200
 1334SOL    HW2 4012   2.156   0.861   0.193
 1335SOL     OW 4013   3.320   0.735   0.728
 1335SOL    HW1 4014   3.315   0.670   0.803
 1335SOL    HW2 4015   3.400   0.794   0.741
 1336SOL     OW 4016   2.323   1.266   1.727
 1336SOL    HW1 4017   2.273   1.267   1.641
 1336SOL    HW2 4018   2.260   1.248   1.803
 1337SOL     OW 4019   2.973   1.776   0.237
 1337SOL    HW1 4020   2.913   1.714   0.287
 1337SOL    HW2 4021   3.004   1.732   0.152
 1338SOL     OW 4022   2.064   0.285   1.498
 1338SOL    HW1 4023   1.984   0.345   1.485
 1338SOL    HW2 4024   2.054   0.236   1.584
 1339SOL     OW 4025   3.494   1.377   0.081
 1339SOL    HW1 4026   3.462   1.471   0.071
 1339SOL    HW2 4027   3.418   1.314   0.069
 1340SOL     OW 4028   2.326   1.743   0.323
 1340SOL    HW1 4029   2.359   1.782   0.409
 1340SOL    HW2 4030   2.402   1.736   0.258
 1341SOL     OW 4031   3.262   0.107   0.426
 1341SOL    HW1 4032   3.238   0.070   0.336
 1341SOL    HW2 4033   3.361   0.123   0.430
 1342SOL     OW 4034   2.111   1.785   1.241
 1342SOL    HW1 4035   2.168   1.720   1.291
 1342SOL    HW2 4036   2.095   1.752   1.148
 1343SOL     OW 4037   2.802   1.698   0.904
 1343SOL    HW1 4038   2.882   1.641   0.925
 1343SOL    HW2 4039   2.753   1.658   0.827
 1344SOL     OW 4040   2.244   0.700   0.480
 1344SOL    HW1 4041   2.289   0.610   0.477
 1344SOL    HW2 4042   2.150   0.689   0.513
 1345SOL     OW 4043   3.409   0.222   1.729
 1345SOL    HW1 4044   3.404   0.259   1.821
 1345SOL    HW2 4045   3.337   0.153   1.717
 1346SOL     OW 4046   2.476   0.122   0.117
 1346SOL    HW1 4047   2.574   0.100   0.124
 1346SOL    HW2 4048   2.445   0.105   0.024
 1347SOL     OW 4049   2.643   0.264   1.749
 1347SOL    HW1 4050   2.710   0.203   1.792
 1347SOL    HW2 4051   2.570   0.283   1.814
 1348SOL     OW 4052   2.750   1.514   1.195
 1348SOL    HW1 4053   2.727   1.489   1.101
 1348SOL    HW2 4054   2.811   1.445   1.234
 1349SOL     OW 4055   3.213   0.590   1.433
 1349SOL    HW1 4056   3.241   0.547   1.518
 1349SOL    HW2 4057   3.238   0.686   1.434
 1350SOL     OW 4058   2.665   1.402   0.924
 1350SOL    HW1 4059   2.755   1.416   0.882
 1350SOL    HW2 4060   2.594   1.404   0.853
 1351SOL     OW 4061   2.784   0.503   0.899
 1351SOL    HW1 4062   2.759   0.494   0.803
 1351SOL    HW2 4063   2.832   0.421   0.930
 1352SOL     OW 4064   2.401   0.064   0.512
 1352SOL    HW1 4065   2.320   0.065   0.570
 1352SOL    HW2 4066   2.404   0.147   0.457
 1353SOL     OW 4067   3.296   1.188   0.041
 1353SOL    HW1 4068   3.328   1.112   0.098
 1353SOL    HW2 4069   3.204   1.215   0.071
 1354SOL     OW 4070   2.159   0.035   0.171
 1354SOL    HW1 4071   2.208   0.119   0.150
 1354SOL    HW2 4072   2.221  -0.030   0.216
 1355SOL     OW 4073   2.797   0.236   0.480
 1355SOL    HW1 4074   2.749   0.277   0.402
 1355SOL    HW2 4075   2.896   0.234   0.461
 1356SOL     OW 4076   2.938   0.683   1.464
 1356SOL    HW1 4077   2.858   0.622   1.467
 1356SOL    HW2 4078   3.019   0.630   1.440
 1357SOL     OW 4079   3.089   1.570   0.793
 1357SOL    HW1 4080   3.110   1.644   0.728
 1357SOL    HW2 4081   3.157   1.570   0.866
 1358SOL     OW 4082   2.321   1.152   0.741
 1358SOL    HW1 4083   2.250   1.125   0.806
 1358SOL    HW2 4084   2.295   1.124   0.648
 1359SOL     OW 4085   3.133   1.797   0.591
 1359SOL    HW1 4086   3.177   1.861   0.527
 1359SOL    HW2 4087   3.083   1.849   0.661
 1360SOL     OW 4088   2.894   0.549   0.016
 1360SOL    HW1 4089   2.853   0.631  -0.023
 1360SOL    HW2 4090   2.958   0.575   0.089
 1361SOL     OW 4091   1.940   0.556   1.386
 1361SOL    HW1 4092   2.032   0.555   1.345
 1361SOL    HW2 4093   1.934   0.630   1.453
 1362SOL     OW 4094   2.423   0.222   1.147
 1362SOL    HW1 4095   2.461   0.138   1.184
 1362SOL    HW2 4096   2.335   0.241   1.191
 1363SOL     OW 4097   2.728   0.454   0.642
 1363SOL    HW1 4098   2.696   0.526   0.580
 1363SOL    HW2 4099   2.752   0.373   0.589
 1364SOL     OW 4100   2.879   0.039   0.753
 1364SOL    HW1 4101   2.807   0.044   0.684
 1364SOL    HW2 4102   2.855  -0.030   0.822
 1365SOL     OW 4103   3.291   1.173   0.867
 1365SOL    HW1 4104   3.236   1.089   0.860
 1365SOL    HW2 4105   3.317   1.202   0.775
 1366SOL     OW 4106   3.328   0.590   0.992
 1366SOL    HW1 4107   3.298   0.495   0.999
 1366SOL    HW2 4108   3.401   0.606   1.058
 1367SOL     OW 4109   3.719   0.833   0.377
 1367SOL    HW1 4110   3.761   0.769   0.441
 1367SOL    HW2 4111   3.681   0.782   0.299
 1368SOL     OW 4112   2.350   1.385   0.174
 1368SOL    HW1 4113   2.263   1.370   0.221
 1368SOL    HW2 4114   2.333   1.411   0.079
 1369SOL     OW 4115   3.526   1.280   0.657
 1369SOL    HW1 4116   3.625   1.288   0.671
 1369SOL    HW2 4117   3.481   1.364   0.688
 1370SOL     OW 4118   3.252   0.575   0.078
 1370SOL    HW1 4119   3.198   0.554   0.159
 1370SOL    HW2 4120   3.343   0.534   0.087
 1371SOL     OW 4121   2.389   0.256   0.328
 1371SOL    HW1 4122   2.416   0.197   0.253
 1371SOL    HW2 4123   2.389   0.351   0.297
 1372SOL     OW 4124   3.616   1.223   1.588
 1372SOL    HW1 4125   3.707   1.184   1.575
 1372SOL    HW2 4126   3.624   1.319   1.612
 1373SOL     OW 4127   2.926   1.347   1.340
 1373SOL    HW1 4128   2.846   1.324   1.395
 1373SOL    HW2 4129   3.009   1.321   1.389
 1374SOL     OW 4130   3.454   1.629   1.625
 1374SOL    HW1 4131   3.481   1.663   1.535
 1374SOL    HW2 4132   3.533   1.591   1.671
 1375SOL     OW 4133   2.973   1.195   1.100
 1375SOL    HW1 4134   2.933   1.239   1.181
 1375SOL    HW2 4135   2.932   1.232   1.017
 1376SOL     OW 4136   3.500   1.099   1.079
 1376SOL    HW1 4137   3.505   1.180   1.138
 1376SOL    HW2 4138   3.414   1.101   1.028
 1377SOL     OW 4139   2.777   0.089   1.402
 1377SOL    HW1 4140   2.802   0.069   1.307
 1377SOL    HW2 4141   2.849   0.145   1.444
 1378SOL     OW 4142   2.842   1.116   1.719
 1378SOL    HW1 4143   2.743   1.122   1.729
 1378SOL    HW2 4144   2.865   1.036   1.663
 1379SOL     OW 4145   2.567   1.050   0.368
 1379SOL    HW1 4146   2.553   1.057   0.467
 1379SOL    HW2 4147   2.651   0.999   0.350
 1380SOL     OW 4148   2.272   0.813   1.251
 1380SOL    HW1 4149   2.358   0.825   1.301
 1380SOL    HW2 4150   2.230   0.726   1.278
 1381SOL     OW 4151   3.136   0.386   1.262
 1381SOL    HW1 4152   3.157   0.460   1.326
 1381SOL    HW2 4153   3.047   0.403   1.219
 1382SOL     OW 4154   1.926   1.564   1.331
 1382SOL    HW1 4155   1.880   1.646   1.297
 1382SOL    HW2 4156   2.024   1.583   1.340
 1383SOL     OW 4157   2.229   1.100   0.501
 1383SOL    HW1 4158   2.222   1.183   0.445
 1383SOL    HW2 4159   2.233   1.020   0.441
 1384SOL     OW 4160   2.428   0.537   0.865
 1384SOL    HW1 4161   2.440   0.603   0.791
 1384SOL    HW2 4162   2.474   0.571   0.948
 1385SOL     OW 4163   3.114   1.348   0.388
 1385SOL    HW1 4164   3.164   1.425   0.428
 1385SOL    HW2 4165   3.019   1.350   0.420
 1386SOL     OW 4166   3.134   1.445   1.142
 1386SOL    HW1 4167   3.181   1.458   1.229
 1386SOL    HW2 4168   3.068   1.371   1.151
 1387SOL     OW 4169   3.444   0.639   0.472
 1387SOL    HW1 4170   3.413   0.700   0.545
 1387SOL    HW2 4171   3.494   0.691   0.403
 1388SOL     OW 4172   2.216   1.510   1.329
 1388SOL    HW1 4173   2.195   1.466   1.242
 1388SOL    HW2 4174   2.313   1.536   1.332
 1389SOL     OW 4175   2.264   0.751   1.598
 1389SOL    HW1 4176   2.332   0.806   1.551
 1389SOL    HW2 4177   2.304   0.663   1.625
 1390SOL     OW 4178   3.449   0.779   1.670
 1390SOL    HW1 4179   3.357   0.817   1.665
 1390SOL    HW2 4180   3.509   0.826   1.605
 1391SOL     OW 4181   2.875   0.105   1.770
 1391SOL    HW1 4182   2.881   0.190   1.718
 1391SOL    HW2 4183   2.907   0.029   1.713
 1392SOL     OW 4184   2.366   0.050   1.740
 1392SOL    HW1 4185   2.324  -0.007   1.670
 1392SOL    HW2 4186   2.300   0.119   1.772
 1393SOL     OW 4187   2.435   0.870   1.029
 1393SOL    HW1 4188   2.479   0.959   1.020
 1393SOL    HW2 4189   2.372   0.870   1.106
 1394SOL     OW 4190   3.222   0.862   1.045
 1394SOL    HW1 4191   3.147   0.862   0.979
 1394SOL    HW2 4192   3.259   0.770   1.054
 1395SOL     OW 4193   3.071   0.525   0.275
 1395SOL    HW1 4194   3.084   0.441   0.329
 1395SOL    HW2 4195   3.042   0.599   0.335
 1396SOL     OW 4196   2.169   0.213   1.231
 1396SOL    HW1 4197   2.146   0.250   1.321
 1396SOL    HW2 4198   2.139   0.118   1.225
 1397SOL     OW 4199   1.899   1.310   1.282
 1397SOL    HW1 4200   1.952   1.261   1.350
 1397SOL    HW2 4201   1.921   1.408   1.287
 1398SOL     OW 4202   2.594   0.634   1.064
 1398SOL    HW1 4203   2.653   0.608   0.988
 1398SOL    HW2 4204   2.566   0.730   1.053
 1399SOL     OW 4205   3.590   0.935   1.854
 1399SOL    HW1 4206   3.544   0.928   1.765
 1399SOL    HW2 4207   3.528   0.979   1.920
 1400SOL     OW 4208   2.169   0.063   0.618
 1400SOL    HW1 4209   2.158   0.157   0.651
 1400SOL    HW2 4210   2.164   0.000   0.695
 1401SOL     OW 4211   3.484   0.367   0.374
 1401SOL    HW1 4212   3.486   0.291   0.438
 1401SOL    HW2 4213   3.436   0.444   0.414
 1402SOL     OW 4214   2.885   0.766   0.966
 1402SOL    HW1 4215   2.900   0.787   1.062
 1402SOL    HW2 4216   2.855   0.671   0.957
 1403SOL     OW 4217   2.842   1.573   1.700
 1403SOL    HW1 4218   2.822   1.617   1.612
 1403SOL    HW2 4219   2.881   1.482   1.684
 1404SOL     OW 4220   3.721   1.518   1.605
 1404SOL    HW1 4221   3.735   1.545   1.510
 1404SOL    HW2 4222   3.804   1.540   1.658
 1405SOL     OW 4223   2.212   0.898   1.804
 1405SOL    HW1 4224   2.288   0.942   1.852
 1405SOL    HW2 4225   2.247   0.851   1.722
 1406SOL     OW 4226   3.402   0.274   0.125
 1406SOL    HW1 4227   3.341   0.199   0.148
 1406SOL    HW2 4228   3.424   0.326   0.208
 1407SOL     OW 4229   3.165   0.838   0.042
 1407SOL    HW1 4230   3.199   0.745   0.057
 1407SOL    HW2 4231   3.183   0.865  -0.053
 1408SOL     OW 4232   2.930   1.333   0.849
 1408SOL    HW1 4233   2.937   1.249   0.794
 1408SOL    HW2 4234   2.992   1.402   0.813
 1409SOL     OW 4235   2.181   0.810   0.949
 1409SOL    HW1 4236   2.274   0.846   0.954
 1409SOL    HW2 4237   2.175   0.725   1.001
 1410SOL     OW 4238   2.201   0.509   1.006
 1410SOL    HW1 4239   2.149   0.426   0.989
 1410SOL    HW2 4240   2.278   0.514   0.942
 1411SOL     OW 4241   3.000   0.380   1.678
 1411SOL    HW1 4242   2.955   0.443   1.742
 1411SOL    HW2 4243   3.093   0.411   1.661
 1412SOL     OW 4244   3.022   0.207   1.477
 1412SOL    HW1 4245   3.022   0.271   1.554
 1412SOL    HW2 4246   3.050   0.255   1.394
 1413SOL     OW 4247   1.870   1.326   0.200
 1413SOL    HW1 4248   1.777   1.347   0.169
 1413SOL    HW2 4249   1.880   1.227   0.213
 1414SOL     OW 4250   1.950   1.801   0.927
 1414SOL    HW1 4251   1.908   1.715   0.900
 1414SOL    HW2 4252   2.044   1.804   0.893
 1415SOL     OW 4253   2.366   1.568   0.910
 1415SOL    HW1 4254   2.432   1.642   0.919
 1415SOL    HW2 4255   2.410   1.489   0.868
 1416SOL     OW 4256   2.864   0.796   1.238
 1416SOL    HW1 4257   2.905   0.764   1.324
 1416SOL    HW2 4258   2.768   0.769   1.235
 1417SOL     OW 4259   1.902   0.544   1.114
 1417SOL    HW1 4260   1.987   0.511   1.073
 1417SOL    HW2 4261   1.915   0.559   1.212
 1418SOL     OW 4262   2.051   0.520   1.722
 1418SOL    HW1 4263   2.110   0.480   1.652
 1418SOL    HW2 4264   1.993   0.591   1.681
 1419SOL     OW 4265   3.231   0.950   1.660
 1419SOL    HW1 4266   3.270   1.039   1.680
 1419SOL    HW2 4267   3.241   0.930   1.563
 1420SOL     OW 4268   2.677   0.572   0.325
 1420SOL    HW1 4269   2.684   0.483   0.279
 1420SOL    HW2 4270   2.583   0.606   0.317
 1421SOL     OW 4271   3.519   0.604   1.206
 1421SOL    HW1 4272   3.481   0.535   1.268
 1421SOL    HW2 4273   3.601   0.568   1.162
 1422SOL     OW 4274   2.114   1.564   1.744
 1422SOL    HW1 4275   2.084   1.621   1.820
 1422SOL    HW2 4276   2.107   1.467   1.770
 1423SOL     OW 4277   2.533   0.464   1.269
 1423SOL    HW1 4278   2.499   0.375   1.239
 1423SOL    HW2 4279   2.559   0.518   1.189
 1424SOL     OW 4280   2.792   1.678   1.465
 1424SOL    HW1 4281   2.768   1.660   1.370
 1424SOL    HW2 4282   2.822   1.772   1.475
 1425SOL     OW 4283   2.335   0.500   0.191
 1425SOL    HW1 4284   2.396   0.580   0.195
 1425SOL    HW2 4285   2.240   0.531   0.198
 1426SOL     OW 4286   2.021   1.137   1.466
 1426SOL    HW1 4287   2.043   1.076   1.542
 1426SOL    HW2 4288   2.031   1.088   1.380
 1427SOL     OW 4289   3.209   1.059   1.234
 1427SOL    HW1 4290   3.233   0.996   1.160
 1427SOL    HW2 4291   3.119   1.099   1.216
 1428SOL     OW 4292   3.164   0.855   0.309
 1428SOL    HW1 4293   3.078   0.824   0.351
 1428SOL    HW2 4294   3.160   0.841   0.210
 1429SOL     OW 4295   3.621   1.747   1.154
 1429SOL    HW1 4296   3.682   1.777   1.081
 1429SOL    HW2 4297   3.583   1.658   1.132
 1430SOL     OW 4298   3.114   1.731   1.128
 1430SOL    HW1 4299   3.198   1.736   1.074
 1430SOL    HW2 4300   3.091   1.635   1.146
 1431SOL     OW 4301   1.945   1.258   1.022
 1431SOL    HW1 4302   1.940   1.257   1.122
 1431SOL    HW2 4303   1.862   1.217   0.984
 1432SOL     OW 4304   2.550   1.662   1.716
 1432SOL    HW1 4305   2.494   1.743   1.725
 1432SOL    HW2 4306   2.602   1.666   1.630
 1433SOL     OW 4307   2.765   0.086   0.133
 1433SOL    HW1 4308   2.816   0.087   0.047
 1433SOL    HW2 4309   2.821   0.044   0.204
 1434SOL     OW 4310   3.588   0.135   0.523
 1434SOL    HW1 4311   3.661   0.118   0.456
 1434SOL    HW2 4312   3.557   0.048   0.561
 1435SOL     OW 4313   3.250   1.573   0.477
 1435SOL    HW1 4314   3.317   1.585   0.403
 1435SOL    HW2 4315   3.210   1.662   0.500
 1436SOL     OW 4316   1.992   1.794   1.851
 1436SOL    HW1 4317   1.951   1.720   1.904
 1436SOL    HW2 4318   2.056   1.845   1.909
 1437SOL     OW 4319   3.142   0.927   0.672
 1437SOL    HW1 4320   3.202   0.846   0.674
 1437SOL    HW2 4321   3.182   0.996   0.612
 1438SOL     OW 4322   2.692   1.273   1.422
 1438SOL    HW1 4323   2.687   1.306   1.517
 1438SOL    HW2 4324   2.606   1.292   1.376
 1439SOL     OW 4325   2.534   1.616   0.154
 1439SOL    HW1 4326   2.543   1.626   0.055
 1439SOL    HW2 4327   2.494   1.527   0.175
 1440SOL     OW 4328   3.512   1.720   1.394
 1440SOL    HW1 4329   3.565   1.730   1.310
 1440SOL    HW2 4330   3.485   1.810   1.428
 1441SOL     OW 4331   3.703   0.175   0.963
 1441SOL    HW1 4332   3.742   0.090   0.927
 1441SOL    HW2 4333   3.605   0.177   0.944
 1442SOL     OW 4334   2.125   0.326   0.720
 1442SOL    HW1 4335   2.046   0.377   0.686
 1442SOL    HW2 4336   2.116   0.311   0.818
 1443SOL     OW 4337   3.056   1.612   0.031
 1443SOL    HW1 4338   3.062   1.519   0.068
 1443SOL    HW2 4339   2.997   1.612  -0.049
 1444SOL     OW 4340   2.684   1.002   1.372
 1444SOL    HW1 4341   2.724   1.001   1.280
 1444SOL    HW2 4342   2.694   1.094   1.412
 1445SOL     OW 4343   2.778   0.910   0.291
 1445SOL    HW1 4344   2.841   0.948   0.223
 1445SOL    HW2 4345   2.818   0.827   0.330
 1446SOL     OW 4346   3.366   1.607   0.044
 1446SOL    HW1 4347   3.274   1.644   0.051
 1446SOL    HW2 4348   3.404   1.627  -0.046
 1447SOL     OW 4349   2.234   1.288   1.490
 1447SOL    HW1 4350   2.221   1.381   1.456
 1447SOL    HW2 4351   2.150   1.236   1.477
 1448SOL     OW 4352   3.476   1.292   1.289
 1448SOL    HW1 4353   3.536   1.295   1.369
 1448SOL    HW2 4354   3.401   1.356   1.302
 1449SOL     OW 4355   2.901   1.098   0.696
 1449SOL    HW1 4356   2.831   1.051   0.750
 1449SOL    HW2 4357   2.960   1.030   0.653
 1450SOL     OW 4358   2.876   0.236   0.971
 1450SOL    HW1 4359   2.868   0.200   0.878
 1450SOL    HW2 4360   2.874   0.160   1.036
 1451SOL     OW 4361   2.452   1.487   0.491
 1451SOL    HW1 4362   2.494   1.429   0.421
 1451SOL    HW2 4363   2.408   1.566   0.447
 1452SOL     OW 4364   3.571   0.385   1.381
 1452SOL    HW1 4365   3.644   0.454   1.385
 1452SOL    HW2 4366   3.599   0.310   1.322
 1453SOL     OW 4367   2.117   1.348   0.290
 1453SOL    HW1 4368   2.021   1.349   0.263
 1453SOL    HW2 4369   2.129   1.401   0.374
 1454SOL     OW 4370   1.967   1.013   1.726
 1454SOL    HW1 4371   1.890   0.980   1.780
 1454SOL    HW2 4372   2.052   0.983   1.768
 1455SOL     OW 4373   2.534   0.203   1.489
 1455SOL    HW1 4374   2.624   0.187   1.449
 1455SOL    HW2 4375   2.542   0.208   1.588
 1456SOL     OW 4376   1.937   0.345   0.033
 1456SOL    HW1 4377   1.845   0.317   0.004
 1456SOL    HW2 4378   1.968   0.422  -0.023
 1457SOL     OW 4379   3.302   0.856   1.398
 1457SOL    HW1 4380   3.245   0.908   1.335
 1457SOL    HW2 4381   3.398   0.868   1.374
 1458SOL     OW 4382   1.934   0.166   0.318
 1458SOL    HW1 4383   1.917   0.249   0.264
 1458SOL    HW2 4384   2.024   0.129   0.296
 1459SOL     OW 4385   3.045   1.335   0.119
 1459SOL    HW1 4386   2.946   1.324   0.121
 1459SOL    HW2 4387   3.079   1.350   0.212
 1460SOL     OW 4388   2.475   0.842   1.431
 1460SOL    HW1 4389   2.531   0.923   1.414
 1460SOL    HW2 4390   2.534   0.762   1.434
 1461SOL     OW 4391   3.355   1.767   0.959
 1461SOL    HW1 4392   3.388   1.831   0.890
 1461SOL    HW2 4393   3.421   1.761   1.034
 1462SOL     OW 4394   2.578   0.565   1.708
 1462SOL    HW1 4395   2.597   0.630   1.782
 1462SOL    HW2 4396   2.638   0.485   1.717
 1463SOL     OW 4397   3.312   1.220   1.633
 1463SOL    HW1 4398   3.303   1.210   1.732
 1463SOL    HW2 4399   3.408   1.213   1.607
 1464SOL     OW 4400   2.252   1.741   1.560
 1464SOL    HW1 4401   2.161   1.782   1.558
 1464SOL    HW2 4402   2.245   1.647   1.592
 1465SOL     OW 4403   3.536   0.883   1.254
 1465SOL    HW1 4404   3.509   0.794   1.217
 1465SOL    HW2 4405   3.537   0.951   1.181
 1466SOL     OW 4406   3.087   0.325   0.449
 1466SOL    HW1 4407   3.152   0.251   0.438
 1466SOL    HW2 4408   3.107   0.375   0.533
 1467SOL     OW 4409   2.456   0.745   0.652
 1467SOL    HW1 4410   2.506   0.830   0.633
 1467SOL    HW2 4411   2.368   0.747   0.604
 1468SOL     OW 4412   3.639   0.342   1.642
 1468SOL    HW1 4413   3.622   0.373   1.548
 1468SOL    HW2 4414   3.555   0.305   1.680
 1469SOL     OW 4415   3.592   0.934   1.517
 1469SOL    HW1 4416   3.630   1.025   1.532
 1469SOL    HW2 4417   3.584   0.917   1.418
 1470SOL     OW 4418   2.721   1.374   0.016
 1470SOL    HW1 4419   2.675   1.389   0.104
 1470SOL    HW2 4420   2.765   1.459  -0.014
 1471SOL     OW 4421   2.523   1.790   0.953
 1471SOL    HW1 4422   2.477   1.878   0.940
 1471SOL    HW2 4423   2.622   1.802   0.946
 1472SOL     OW 4424   2.721   0.956   0.861
 1472SOL    HW1 4425   2.775   0.887   0.909
 1472SOL    HW2 4426   2.689   1.025   0.927
 1473SOL     OW 4427   2.945   0.984   0.087
 1473SOL    HW1 4428   2.922   1.037   0.005
 1473SOL    HW2 4429   3.026   0.928   0.068
 1474SOL     OW 4430   3.723   1.569   0.851
 1474SOL    HW1 4431   3.652   1.557   0.781
 1474SOL    HW2 4432   3.724   1.490   0.911
 1475SOL     OW 4433   2.083   1.314   1.844
 1475SOL    HW1 4434   2.018   1.241   1.823
 1475SOL    HW2 4435   2.087   1.328   1.942
 1476SOL     OW 4436   1.941   1.240   0.653
 1476SOL    HW1 4437   1.940   1.193   0.741
 1476SOL    HW2 4438   2.023   1.212   0.602
 1477SOL     OW 4439   2.534   1.391   1.624
 1477SOL    HW1 4440   2.456   1.341   1.662
 1477SOL    HW2 4441   2.531   1.486   1.655
 1478SOL     OW 4442   3.686   0.192   1.227
 1478SOL    HW1 4443   3.682   0.102   1.271
 1478SOL    HW2 4444   3.689   0.181   1.128
 1479SOL     OW 4445   2.290   0.424   0.520
 1479SOL    HW1 4446   2.320   0.352   0.458
 1479SOL    HW2 4447   2.251   0.384   0.603
 1480SOL     OW 4448   3.567   1.487   1.104
 1480SOL    HW1 4449   3.474   1.462   1.077
 1480SOL    HW2 4450   3.593   1.437   1.186
 1481SOL     OW 4451   2.179   0.547   1.280
 1481SOL    HW1 4452   2.217   0.488   1.352
 1481SOL    HW2 4453   2.219   0.521   1.192
 1482SOL     OW 4454   2.674   1.586   0.687
 1482SOL    HW1 4455   2.706   1.596   0.593
 1482SOL    HW2 4456   2.595   1.524   0.689
 1483SOL     OW 4457   3.286   0.214   1.112
 1483SOL    HW1 4458   3.338   0.149   1.167
 1483SOL    HW2 4459   3.237   0.277   1.173
 1484SOL     OW 4460   2.863   0.034   1.154
 1484SOL    HW1 4461   2.800  -0.038   1.123
 1484SOL    HW2 4462   2.956  -0.002   1.154
 1485SOL     OW 4463   2.632   1.330   0.301
 1485SOL    HW1 4464   2.586   1.243   0.318
 1485SOL    HW2 4465   2.723   1.327   0.342
 1486SOL     OW 4466   2.480   1.567   1.284
 1486SOL    HW1 4467   2.475   1.649   1.341
 1486SOL    HW2 4468   2.569   1.564   1.239
 1487SOL     OW 4469   3.214   0.052   0.168
 1487SOL    HW1 4470   3.249   0.011   0.084
 1487SOL    HW2 4471   3.124   0.014   0.188
 1488SOL     OW 4472   3.162   0.453   0.691
 1488SOL    HW1 4473   3.103   0.533   0.695
 1488SOL    HW2 4474   3.177   0.418   0.784
 1489SOL     OW 4475   3.455   0.221   0.882
 1489SOL    HW1 4476   3.371   0.220   0.936
 1489SOL    HW2 4477   3.457   0.304   0.826
 1490SOL     OW 4478   1.901   1.077   0.300
 1490SOL    HW1 4479   2.000   1.066   0.291
 1490SOL    HW2 4480   1.861   0.991   0.332
 1491SOL     OW 4481   2.737   1.646   0.337
 1491SOL    HW1 4482   2.660   1.611   0.283
 1491SOL    HW2 4483   2.705   1.717   0.399
 1492SOL     OW 4484   2.092   0.628   1.975
 1492SOL    HW1 4485   1.999   0.626   2.012
 1492SOL    HW2 4486   2.093   0.589   1.883
 1493SOL     OW 4487   2.087   0.275   2.858
 1493SOL    HW1 4488   2.122   0.258   2.950
 1493SOL    HW2 4489   1.999   0.230   2.846
 1494SOL     OW 4490   1.881   0.368   2.509
 1494SOL    HW1 4491   1.799   0.411   2.548
 1494SOL    HW2 4492   1.853   0.295   2.446
 1495SOL     OW 4493   2.431   1.275   3.027
 1495SOL    HW1 4494   2.338   1.268   2.990
 1495SOL    HW2 4495   2.442   1.364   3.071
 1496SOL     OW 4496   3.417   1.511   2.565
 1496SOL    HW1 4497   3.360   1.495   2.646
 1496SOL    HW2 4498   3.358   1.521   2.485
 1497SOL     OW 4499   2.997   0.703   2.579
 1497SOL    HW1 4500   3.054   0.781   2.554
 1497SOL    HW2 4501   2.937   0.729   2.655
 1498SOL     OW 4502   3.617   0.607   2.093
 1498SOL    HW1 4503   3.605   0.594   1.994
 1498SOL    HW2 4504   3.587   0.526   2.142
 1499SOL     OW 4505   2.630   1.144   2.885
 1499SOL    HW1 4506   2.552   1.161   2.945
 1499SOL    HW2 4507   2.664   1.231   2.849
 1500SOL     OW 4508   2.712   0.798   3.685
 1500SOL    HW1 4509   2.708   0.874   3.750
 1500SOL    HW2 4510   2.734   0.834   3.594
 1501SOL     OW 4511   2.547   1.012   2.527
 1501SOL    HW1 4512   2.616   0.996   2.597
 1501SOL    HW2 4513   2.474   1.069   2.565
 1502SOL     OW 4514   2.548   1.161   3.665
 1502SOL    HW1 4515   2.608   1.240   3.679
 1502SOL    HW2 4516   2.462   1.192   3.624
 1503SOL     OW 4517   2.197   1.435   2.923
 1503SOL    HW1 4518   2.119   1.404   2.870
 1503SOL    HW2 4519   2.255   1.493   2.866
 1504SOL     OW 4520   3.322   1.505   3.201
 1504SOL    HW1 4521   3.346   1.599   3.227
 1504SOL    HW2 4522   3.306   1.451   3.283
 1505SOL     OW 4523   2.300   0.392   3.361
 1505SOL    HW1 4524   2.382   0.336   3.370
 1505SOL    HW2 4525   2.219   0.334   3.365
 1506SOL     OW 4526   3.465   0.447   2.599
 1506SOL    HW1 4527   3.391   0.493   2.549
 1506SOL    HW2 4528   3.516   0.515   2.652
 1507SOL     OW 4529   2.093   1.713   2.345
 1507SOL    HW1 4530   2.127   1.790   2.399
 1507SOL    HW2 4531   2.137   1.713   2.255
 1508SOL     OW 4532   2.989   1.341   3.552
 1508SOL    HW1 4533   3.036   1.341   3.640
 1508SOL    HW2 4534   2.941   1.254   3.541
 1509SOL     OW 4535   2.092   1.434   2.400
 1509SOL    HW1 4536   2.066   1.530   2.400
 1509SOL    HW2 4537   2.021   1.380   2.445
 1510SOL     OW 4538   2.102   1.091   2.748
 1510SOL    HW1 4539   2.116   1.007   2.800
 1510SOL    HW2 4540   2.047   1.155   2.803
 1511SOL     OW 4541   2.482   1.786   3.301
 1511SOL    HW1 4542   2.390   1.769   3.336
 1511SOL    HW2 4543   2.510   1.878   3.327
 1512SOL     OW 4544   2.468   0.964   1.985
 1512SOL    HW1 4545   2.475   1.048   1.931
 1512SOL    HW2 4546   2.514   0.977   2.073
 1513SOL     OW 4547   3.456   0.114   3.342
 1513SOL    HW1 4548   3.438   0.181   3.270
 1513SOL    HW2 4549   3.453   0.160   3.431
 1514SOL     OW 4550   1.984   0.643   2.425
 1514SOL    HW1 4551   1.939   0.555   2.442
 1514SOL    HW2 4552   1.983   0.697   2.509
 1515SOL     OW 4553   3.704   1.767   2.221
 1515SOL    HW1 4554   3.758   1.738   2.301
 1515SOL    HW2 4555   3.734   1.857   2.192
 1516SOL     OW 4556   1.889   1.596   1.979
 1516SOL    HW1 4557   1.870   1.500   2.000
 1516SOL    HW2 4558   1.856   1.654   2.054
 1517SOL     OW 4559   3.551   0.922   2.474
 1517SOL    HW1 4560   3.646   0.893   2.482
 1517SOL    HW2 4561   3.543   0.987   2.399
 1518SOL     OW 4562   3.503   1.108   2.294
 1518SOL    HW1 4563   3.589   1.110   2.242
 1518SOL    HW2 4564   3.517   1.155   2.382
 1519SOL     OW 4565   1.975   0.737   3.459
 1519SOL    HW1 4566   2.063   0.724   3.504
 1519SOL    HW2 4567   1.962   0.834   3.437
 1520SOL     OW 4568   2.475   1.365   2.588
 1520SOL    HW1 4569   2.426   1.278   2.597
 1520SOL    HW2 4570   2.452   1.408   2.501
 1521SOL     OW 4571   3.155   1.228   3.285
 1521SOL    HW1 4572   3.192   1.155   3.227
 1521SOL    HW2 4573   3.207   1.233   3.370
 1522SOL     OW 4574   2.671   0.004   2.364
 1522SOL    HW1 4575   2.711   0.095   2.355
 1522SOL    HW2 4576   2.571   0.012   2.370
 1523SOL     OW 4577   2.059   0.976   3.126
 1523SOL    HW1 4578   2.148   0.931   3.112
 1523SOL    HW2 4579   1.986   0.911   3.107
 1524SOL     OW 4580   3.387   0.999   2.052
 1524SOL    HW1 4581   3.324   0.923   2.065
 1524SOL    HW2 4582   3.435   1.017   2.138
 1525SOL     OW 4583   3.049   1.792   3.478
 1525SOL    HW1 4584   3.073   1.852   3.402
 1525SOL    HW2 4585   3.056   1.697   3.448
 1526SOL     OW 4586   2.179   0.251   3.663
 1526SOL    HW1 4587   2.250   0.322   3.669
 1526SOL    HW2 4588   2.091   0.290   3.691
 1527SOL     OW 4589   3.328   1.417   2.815
 1527SOL    HW1 4590   3.269   1.423   2.895
 1527SOL    HW2 4591   3.313   1.329   2.769
 1528SOL     OW 4592   3.529   1.714   2.434
 1528SOL    HW1 4593   3.488   1.691   2.346
 1528SOL    HW2 4594   3.511   1.640   2.499
 1529SOL     OW 4595   2.460   0.729   2.132
 1529SOL    HW1 4596   2.484   0.798   2.064
 1529SOL    HW2 4597   2.382   0.762   2.186
 1530SOL     OW 4598   3.143   0.345   2.806
 1530SOL    HW1 4599   3.057   0.295   2.793
 1530SOL    HW2 4600   3.205   0.291   2.862
 1531SOL     OW 4601   3.438   1.662   2.169
 1531SOL    HW1 4602   3.527   1.708   2.172
 1531SOL    HW2 4603   3.417   1.638   2.074
 1532SOL     OW 4604   2.669   0.605   3.327
 1532SOL    HW1 4605   2.622   0.602   3.416
 1532SOL    HW2 4606   2.618   0.550   3.261
 1533SOL     OW 4607   3.256   0.469   3.536
 1533SOL    HW1 4608   3.236   0.512   3.624
 1533SOL    HW2 4609   3.334   0.407   3.545
 1534SOL     OW 4610   2.835   0.890   3.434
 1534SOL    HW1 4611   2.881   0.806   3.405
 1534SOL    HW2 4612   2.779   0.924   3.359
 1535SOL     OW 4613   2.853   0.410   3.104
 1535SOL    HW1 4614   2.776   0.444   3.158
 1535SOL    HW2 4615   2.819   0.359   3.025
 1536SOL     OW 4616   2.903   0.701   2.291
 1536SOL    HW1 4617   2.929   0.697   2.387
 1536SOL    HW2 4618   2.818   0.650   2.277
 1537SOL     OW 4619   1.938   0.811   2.651
 1537SOL    HW1 4620   2.037   0.799   2.660
 1537SOL    HW2 4621   1.914   0.906   2.672
 1538SOL     OW 4622   1.992   1.821   3.433
 1538SOL    HW1 4623   1.982   1.806   3.532
 1538SOL    HW2 4624   1.906   1.857   3.397
 1539SOL     OW 4625   2.727   0.348   2.057
 1539SOL    HW1 4626   2.786   0.411   2.008
 1539SOL    HW2 4627   2.746   0.254   2.028
 1540SOL     OW 4628   3.581   0.585   3.693
 1540SOL    HW1 4629   3.555   0.674   3.657
 1540SOL    HW2 4630   3.579   0.517   3.620
 1541SOL     OW 4631   3.224   1.144   2.407
 1541SOL    HW1 4632   3.307   1.115   2.359
 1541SOL    HW2 4633   3.175   1.211   2.351
 1542SOL     OW 4634   2.412   0.196   2.747
 1542SOL    HW1 4635   2.407   0.191   2.847
 1542SOL    HW2 4636   2.414   0.292   2.718
 1543SOL     OW 4637   2.870   1.456   2.339
 1543SOL    HW1 4638   2.824   1.528   2.287
 1543SOL    HW2 4639   2.866   1.476   2.437
 1544SOL     OW 4640   2.213   1.801   2.715
 1544SOL    HW1 4641   2.263   1.715   2.721
 1544SOL    HW2 4642   2.278   1.878   2.712
 1545SOL     OW 4643   3.657   1.066   2.735
 1545SOL    HW1 4644   3.595   1.051   2.659
 1545SOL    HW2 4645   3.605   1.077   2.820
 1546SOL     OW 4646   3.089   1.550   3.368
 1546SOL    HW1 4647   3.095   1.473   3.432
 1546SOL    HW2 4648   3.037   1.524   3.288
 1547SOL     OW 4649   2.183   0.943   2.104
 1547SOL    HW1 4650   2.265   0.982   2.062
 1547SOL    HW2 4651   2.156   0.861   2.055
 1548SOL     OW 4652   3.320   0.735   2.590
 1548SOL    HW1 4653   3.315   0.670   2.665
 1548SOL    HW2 4654   3.400   0.794   2.603
 1549SOL     OW 4655   2.323   1.266   3.589
 1549SOL    HW1 4656   2.273   1.267   3.503
 1549SOL    HW2 4657   2.260   1.248   3.665
 1550SOL     OW 4658   2.973   1.776   2.099
 1550SOL    HW1 4659   2.913   1.714   2.149
 1550SOL    HW2 4660   3.004   1.732   2.014
 1551SOL     OW 4661   2.064   0.285   3.360
 1551SOL    HW1 4662   1.984   0.345   3.347
 1551SOL    HW2 4663   2.054   0.236   3.446
 1552SOL     OW 4664   3.494   1.377   1.943
 1552SOL    HW1 4665   3.462   1.471   1.933
 1552SOL    HW2 4666   3.418   1.314   1.931
 1553SOL     OW 4667   2.326   1.743   2.185
 1553SOL    HW1 4668   2.359   1.782   2.271
 1553SOL    HW2 4669   2.402   1.736   2.120
 1554SOL     OW 4670   3.262   0.107   2.288
 1554SOL    HW1 4671   3.238   0.070   2.198
 1554SOL    HW2 4672   3.361   0.123   2.292
 1555SOL     OW 4673   2.111   1.785   3.103
 1555SOL    HW1 4674   2.168   1.720   3.153
 1555SOL    HW2 4675   2.095   1.752   3.010
 1556SOL     OW 4676   2.802   1.698   2.766
 1556SOL    HW1 4677   2.882   1.641   2.787
 1556SOL    HW2 4678   2.753   1.658   2.689
 1557SOL     OW 4679   2.244   0.700   2.342
 1557SOL    HW1 4680   2.289   0.610   2.339
 1557SOL    HW2 4681   2.150   0.689   2.375
 1558SOL     OW 4682   3.409   0.222   3.591
 1558SOL    HW1 4683   3.404   0.259   3.683
 1558SOL    HW2 4684   3.337   0.153   3.579
 1559SOL     OW 4685   2.476   0.122   1.979
 1559SOL    HW1 4686   2.574   0.100   1.986
 1559SOL    HW2 4687   2.445   0.105   1.886
 1560SOL     OW 4688   2.643   0.264   3.611
 1560SOL    HW1 4689   2.710   0.203   3.654
 1560SOL    HW2 4690   2.570   0.283   3.676
 1561SOL     OW 4691   2.750   1.514   3.057
 1561SOL    HW1 4692   2.727   1.489   2.963
 1561SOL    HW2 4693   2.811   1.445   3.096
 1562SOL     OW 4694   3.213   0.590   3.295
 1562SOL    HW1 4695   3.241   0.547   3.380
 1562SOL    HW2 4696   3.238   0.686   3.296
 1563SOL     OW 4697   2.665   1.402   2.786
 1563SOL    HW1 4698   2.755   1.416   2.744
 1563SOL    HW2 4699   2.594   1.404   2.715
 1564SOL     OW 4700   2.784   0.503   2.761
 1564SOL    HW1 4701   2.759   0.494   2.665
 1564SOL    HW2 4702   2.832   0.421   2.792
 1565SOL     OW 4703   2.401   0.064   2.374
 1565SOL    HW1 4704   2.320   0.065   2.432
 1565SOL    HW2 4705   2.404   0.147   2.319
 1566SOL     OW 4706   3.296   1.188   1.903
 1566SOL    HW1 4707   3.328   1.112   1.960
 1566SOL    HW2 4708   3.204   1.215   1.933
 1567SOL     OW 4709   2.159   0.035   2.033
 1567SOL    HW1 4710   2.208   0.119   2.012
 1567SOL    HW2 4711   2.221  -0.030   2.078
 1568SOL     OW 4712   2.797   0.236   2.342
 1568SOL    HW1 4713   2.749   0.277   2.264
 1568SOL    HW2 4714   2.896   0.234   2.323
 1569SOL     OW 4715   2.938   0.683   3.326
 1569SOL    HW1 4716   2.858   0.622   3.329
 1569SOL    HW2 4717   3.019   0.630   3.302
 1570SOL     OW 4718   3.089   1.570   2.655
 1570SOL    HW1 4719   3.110   1.644   2.590
 1570SOL    HW2 4720   3.157   1.570   2.728
 1571SOL     OW 4721   2.321   1.152   2.603
 1571SOL    HW1 4722   2.250   1.125   2.668
 1571SOL    HW2 4723   2.295   1.124   2.510
 1572SOL     OW 4724   3.133   1.797   2.453
 1572SOL    HW1 4725   3.177   1.861   2.389
 1572SOL    HW2 4726   3.083   1.849   2.523
 1573SOL     OW 4727   2.894   0.549   1.878
 1573SOL    HW1 4728   2.853   0.631   1.839
 1573SOL    HW2 4729   2.958   0.575   1.951
 1574SOL     OW 4730   1.940   0.556   3.248
 1574SOL    HW1 4731   2.032   0.555   3.207
 1574SOL    HW2 4732   1.934   0.630   3.315
 1575SOL     OW 4733   2.423   0.222   3.009
 1575SOL    HW1 4734   2.461   0.138   3.046
 1575SOL    HW2 4735   2.335   0.241   3.053
 1576SOL     OW 4736   2.728   0.454   2.504
 1576SOL    HW1 4737   2.696   0.526   2.442
 1576SOL    HW2 4738   2.752   0.373   2.451
 1577SOL     OW 4739   2.879   0.039   2.615
 1577SOL    HW1 4740   2.807   0.044   2.546
 1577SOL    HW2 4741   2.855  -0.030   2.684
 1578SOL     OW 4742   3.291   1.173   2.729
 1578SOL    HW1 4743   3.236   1.089   2.722
 1578SOL    HW2 4744   3.317   1.202   2.637
 1579SOL     OW 4745   3.328   0.590   2.854
 1579SOL    HW1 4746   3.298   0.495   2.861
 1579SOL    HW2 4747   3.401   0.606   2.920
 1580SOL     OW 4748   3.719   0.833   2.239
 1580SOL    HW1 4749   3.761   0.769   2.303
 1580SOL    HW2 4750   3.681   0.782   2.161
 1581SOL     OW 4751   2.350   1.385   2.036
 1581SOL    HW1 4752   2.263   1.370   2.083
 1581SOL    HW2 4753   2.333   1.411   1.941
 1582SOL     OW 4754   3.526   1.280   2.519
 1582SOL    HW1 4755   3.625   1.288   2.533
 1582SOL    HW2 4756   3.481   1.364   2.550
 1583SOL     OW 4757   3.252   0.575   1.940
 1583SOL    HW1 4758   3.198   0.554   2.021
 1583SOL    HW2 4759   3.343   0.534   1.949
 1584SOL     OW 4760   2.389   0.256   2.190
 1584SOL    HW1 4761   2.416   0.197   2.115
 1584SOL    HW2 4762   2.389   0.351   2.159
 1585SOL     OW 4763   3.616   1.223   3.450
 1585SOL    HW1 4764   3.707   1.184   3.437
 1585SOL    HW2 4765   3.624   1.319   3.474
 1586SOL     OW 4766   2.926   1.347   3.202
 1586SOL    HW1 4767   2.846   1.324   3.257
 1586SOL    HW2 4768   3.009   1.321   3.251
 1587SOL     OW 4769   3.454   1.629   3.487
 1587SOL    HW1 4770   3.481   1.663   3.397
 1587SOL    HW2 4771   3.533   1.591   3.533
 1588SOL     OW 4772   2.973   1.195   2.962
 1588SOL    HW1 4773   2.933   1.239   3.043
 1588SOL    HW2 4774   2.932   1.232   2.879
 1589SOL     OW 4775   3.500   1.099   2.941
 1589SOL    HW1 4776   3.505   1.180   3.000
 1589SOL    HW2 4777   3.414   1.101   2.890
 1590SOL     OW 4778   2.777   0.089   3.264
 1590SOL    HW1 4779   2.802   0.069   3.169
 1590SOL    HW2 4780   2.849   0.145   3.306
 1591SOL     OW 4781   2.842   1.116   3.581
 1591SOL    HW1 4782   2.743   1.122   3.591
 1591SOL    HW2 4783   2.865   1.036   3.525
 1592SOL     OW 4784   2.567   1.050   2.230
 1592SOL    HW1 4785   2.553   1.057   2.329
 1592SOL    HW2 4786   2.651   0.999   2.212
 1593SOL     OW 4787   2.272   0.813   3.113
 1593SOL    HW1 4788   2.358   0.825   3.163
 1593SOL    HW2 4789   2.230   0.726   3.140
 1594SOL     OW 4790   3.136   0.386   3.124
 1594SOL    HW1 4791   3.157   0.460   3.188
 1594SOL    HW2 4792   3.047   0.403   3.081
 1595SOL     OW 4793   1.926   1.564   3.193
 1595SOL    HW1 4794   1.880   1.646   3.159
 1595SOL    HW2 4795   2.024   1.583   3.202
 1596SOL     OW 4796   2.229   1.100   2.363
 1596SOL    HW1 4797   2.222   1.183   2.307
 1596SOL    HW2 4798   2.233   1.020   2.303
 1597SOL     OW 4799   2.428   0.537   2.727
 1597SOL    HW1 4800   2.440   0.603   2.653
 1597SOL    HW2 4801   2.474   0.571   2.810
 1598SOL     OW 4802   3.114   1.348   2.250
 1598SOL    HW1 4803   3.164   1.425   2.290
 1598SOL    HW2 4804   3.019   1.350   2.282
 1599SOL     OW 4805   3.134   1.445   3.004
 1599SOL    HW1 4806   3.181   1.458   3.091
 1599SOL    HW2 4807   3.068   1.371   3.013
 1600SOL     OW 4808   3.444   0.639   2.334
 1600SOL    HW1 4809   3.413   0.700   2.407
 1600SOL    HW2 4810   3.494   0.691   2.265
 1601SOL     OW 4811   2.216   1.510   3.191
 1601SOL    HW1 4812   2.195   1.466   3.104
 1601SOL    HW2 4813   2.313   1.536   3.194
 1602SOL     OW 4814   2.264   0.751   3.460
 1602SOL    HW1 4815   2.332   0.806   3.413
 1602SOL    HW2 4816   2.304   0.663   3.487
 1603SOL     OW 4817   3.449   0.779   3.532
 1603SOL    HW1 4818   3.357   0.817   3.527
 1603SOL    HW2 4819   3.509   0.826   3.467
 1604SOL     OW 4820   2.875   0.105   3.632
 1604SOL    HW1 4821   2.881   0.190   3.580
 1604SOL    HW2 4822   2.907   0.029   3.575
 1605SOL     OW 4823   2.366   0.050   3.602
 1605SOL    HW1 4824   2.324  -0.007   3.532
 1605SOL    HW2 4825   2.300   0.119   3.634
 1606SOL     OW 4826   2.435   0.870   2.891
 1606SOL    HW1 4827   2.479   0.959   2.882
 1606SOL    HW2 4828   2.372   0.870   2.968
 1607SOL     OW 4829   3.222   0.862   2.907
 1607SOL    HW1 4830   3.147   0.862   2.841
 1607SOL    HW2 4831   3.259   0.770   2.916
 1608SOL     OW 4832   3.071   0.525   2.137
 1608SOL    HW1 4833   3.084   0.441   2.191
 1608SOL    HW2 4834   3.042   0.599   2.197
 1609SOL     OW 4835   2.169   0.213   3.093
 1609SOL    HW1 4836   2.146   0.250   3.183
 1609SOL    HW2 4837   2.139   0.118   3.087
 1610SOL     OW 4838   1.899   1.310   3.144
 1610SOL    HW1 4839   1.952   1.261   3.212
 1610SOL    HW2 4840   1.921   1.408   3.149
 1611SOL     OW 4841   2.594   0.634   2.926
 1611SOL    HW1 4842   2.653   0.608   2.850
 1611SOL    HW2 4843   2.566   0.730   2.915
 1612SOL     OW 4844   3.590   0.935   3.716
 1612SOL    HW1 4845   3.544   0.928   3.627
 1612SOL    HW2 4846   3.528   0.979   3.782
 1613SOL     OW 4847   2.169   0.063   2.480
 1613SOL    HW1 4848   2.158   0.157   2.513
 1613SOL    HW2 4849   2.164   0.000   2.557
 1614SOL     OW 4850   3.484   0.367   2.236
 1614SOL    HW1 4851   3.486   0.291   2.300
 1614SOL    HW2 4852   3.436   0.444   2.276
 1615SOL     OW 4853   2.885   0.766   2.828
 1615SOL    HW1 4854   2.900   0.787   2.924
 1615SOL    HW2 4855   2.855   0.671   2.819
 1616SOL     OW 4856   2.842   1.573   3.562
 1616SOL    HW1 4857   2.822   1.617   3.474
 1616SOL    HW2 4858   2.881   1.482   3.546
 1617SOL     OW 4859   3.721   1.518   3.467
 1617SOL    HW1 4860   3.735   1.545   3.372
 1617SOL    HW2 4861   3.804   1.540   3.520
 1618SOL     OW 4862   2.212   0.898   3.666
 1618SOL    HW1 4863   2.288   0.942   3.714
 1618SOL    HW2 4864   2.247   0.851   3.584
 1619SOL     OW 4865   3.402   0.274   1.987
 1619SOL    HW1 4866   3.341   0.199   2.010
 1619SOL    HW2 4867   3.424   0.326   2.070
 1620SOL     OW 4868   3.165   0.838   1.904
 1620SOL    HW1 4869   3.199   0.745   1.919
 1620SOL    HW2 4870   3.183   0.865   1.809
 1621SOL     OW 4871   2.930   1.333   2.711
 1621SOL    HW1 4872   2.937   1.249   2.656
 1621SOL    HW2 4873   2.992   1.402   2.675
 1622SOL     OW 4874   2.181   0.810   2.811
 1622SOL    HW1 4875   2.274   0.846   2.816
 1622SOL    HW2 4876   2.175   0.725   2.863
 1623SOL     OW 4877   2.201   0.509   2.868
 1623SOL    HW1 4878   2.149   0.426   2.851
 1623SOL    HW2 4879   2.278   0.514   2.804
 1624SOL     OW 4880   3.000   0.380   3.540
 1624SOL    HW1 4881   2.955   0.443   3.604
 1624SOL    HW2 4882   3.093   0.411   3.523
 1625SOL     OW 4883   3.022   0.207   3.339
 1625SOL    HW1 4884   3.022   0.271   3.416
 1625SOL    HW2 4885   3.050   0.255   3.256
 1626SOL     OW 4886   1.870   1.326   2.062
 1626SOL    HW1 4887   1.777   1.347   2.031
 1626SOL    HW2 4888   1.880   1.227   2.075
 1627SOL     OW 4889   1.950   1.801   2.789
 1627SOL    HW1 4890   1.908   1.715   2.762
 1627SOL    HW2 4891   2.044   1.804   2.755
 1628SOL     OW 4892   2.366   1.568   2.772
 1628SOL    HW1 4893   2.432   1.642   2.781
 1628SOL    HW2 4894   2.410   1.489   2.730
 1629SOL     OW 4895   2.864   0.796   3.100
 1629SOL    HW1 4896   2.905   0.764   3.186
 1629SOL    HW2 4897   2.768   0.769   3.097
 1630SOL     OW 4898   1.902   0.544   2.976
 1630SOL    HW1 4899   1.987   0.511   2.935
 1630SOL    HW2 4900   1.915   0.559   3.074
 1631SOL     OW 4901   2.051   0.520   3.584
 1631SOL    HW1 4902   2.110   0.480   3.514
 1631SOL    HW2 4903   1.993   0.591   3.543
 1632SOL     OW 4904   3.231   0.950   3.522
 1632SOL    HW1 4905   3.270   1.039   3.542
 1632SOL    HW2 4906   3.241   0.930   3.425
 1633SOL     OW 4907   2.677   0.572   2.187
 1633SOL    HW1 4908   2.684   0.483   2.141
 1633SOL    HW2 4909   2.583   0.606   2.179
 1634SOL     OW 4910   3.519   0.604   3.068
 1634SOL    HW1 4911   3.481   0.535   3.130
 1634SOL    HW2 4912   3.601   0.568   3.024
 1635SOL     OW 4913   2.114   1.564   3.606
 1635SOL    HW1 4914   2.084   1.621   3.682
 1635SOL    HW2 4915   2.107   1.467   3.632
 1636SOL     OW 4916   2.533   0.464   3.131
 1636SOL    HW1 4917   2.499   0.375   3.101
 1636SOL    HW2 4918   2.559   0.518   3.051
 1637SOL     OW 4919   2.792   1.678   3.327
 1637SOL    HW1 4920   2.768   1.660   3.232
 1637SOL    HW2 4921   2.822   1.772   3.337
 1638SOL     OW 4922   2.335   0.500   2.053
 1638SOL    HW1 4923   2.396   0.580   2.057
 1638SOL    HW2 4924   2.240   0.531   2.060
 1639SOL     OW 4925   2.021   1.137   3.328
 1639SOL    HW1 4926   2.043   1.076   3.404
 1639SOL    HW2 4927   2.031   1.088   3.242
 1640SOL     OW 4928   3.209   1.059   3.096
 1640SOL    HW1 4929   3.233   0.996   3.022
 1640SOL    HW2 4930   3.119   1.099   3.078
 1641SOL     OW 4931   3.164   0.855   2.171
 1641SOL    HW1 4932   3.078   0.824   2.213
 1641SOL    HW2 4933   3.160   0.841   2.072
 1642SOL     OW 4934   3.621   1.747   3.016
 1642SOL    HW1 4935   3.682   1.777   2.943
 1642SOL    HW2 4936   3.583   1.658   2.994
 1643SOL     OW 4937   3.114   1.731   2.990
 1643SOL    HW1 4938   3.198   1.736   2.936
 1643SOL    HW2 4939   3.091   1.635   3.008
 1644SOL     OW 4940   1.945   1.258   2.884
 1644SOL    HW1 4941   1.940   1.257   2.984
 1644SOL    HW2 4942   1.862   1.217   2.846
 1645SOL     OW 4943   2.550   1.662   3.578
 1645SOL    HW1 4944   2.494   1.743   3.587
 1645SOL    HW2 4945   2.602   1.666   3.492
 1646SOL     OW 4946   3.588   0.135   2.385
 1646SOL    HW1 4947   3.661   0.118   2.318
 1646SOL    HW2 4948   3.557   0.048   2.423
 1647SOL     OW 4949   3.250   1.573   2.339
 1647SOL    HW1 4950   3.317   1.585   2.265
 1647SOL    HW2 4951   3.210   1.662   2.362
 1648SOL     OW 4952   1.992   1.794   3.713
 1648SOL    HW1 4953   1.951   1.720   3.766
 1648SOL    HW2 4954   2.056   1.845   3.771
 1649SOL     OW 4955   3.142   0.927   2.534
 1649SOL    HW1 4956   3.202   0.846   2.536
 1649SOL    HW2 4957   3.182   0.996   2.474
 1650SOL     OW 4958   2.692   1.273   3.284
 1650SOL    HW1 4959   2.687   1.306   3.379
 1650SOL    HW2 4960   2.606   1.292   3.238
 1651SOL     OW 4961   2.534   1.616   2.016
 1651SOL    HW1 4962   2.543   1.626   1.917
 1651SOL    HW2 4963   2.494   1.527   2.037
 1652SOL     OW 4964   3.512   1.720   3.256
 1652SOL    HW1 4965   3.565   1.730   3.172
 1652SOL    HW2 4966   3.485   1.810   3.290
 1653SOL     OW 4967   3.703   0.175   2.825
 1653SOL    HW1 4968   3.742   0.090   2.789
 1653SOL    HW2 4969   3.605   0.177   2.806
 1654SOL     OW 4970   2.125   0.326   2.582
 1654SOL    HW1 4971   2.046   0.377   2.548
 1654SOL    HW2 4972   2.116   0.311   2.680
 1655SOL     OW 4973   3.056   1.612   1.893
 1655SOL    HW1 4974   3.062   1.519   1.930
 1655SOL    HW2 4975   2.997   1.612   1.813
 1656SOL     OW 4976   2.684   1.002   3.234
 1656SOL    HW1 4977   2.724   1.001   3.142
 1656SOL    HW2 4978   2.694   1.094   3.274
 1657SOL     OW 4979   2.778   0.910   2.153
 1657SOL    HW1 4980   2.841   0.948   2.085
 1657SOL    HW2 4981   2.818   0.827   2.192
 1658SOL     OW 4982   3.366   1.607   1.906
 1658SOL    HW1 4983   3.274   1.644   1.913
 1658SOL    HW2 4984   3.404   1.627   1.816
 1659SOL     OW 4985   2.234   1.288   3.352
 1659SOL    HW1 4986   2.221   1.381   3.318
 1659SOL    HW2 4987   2.150   1.236   3.339
 1660SOL     OW 4988   3.476   1.292   3.151
 1660SOL    HW1 4989   3.536   1.295   3.231
 1660SOL    HW2 4990   3.401   1.356   3.164
 1661SOL     OW 4991   2.901   1.098   2.558
 1661SOL    HW1 4992   2.831   1.051   2.612
 1661SOL    HW2 4993   2.960   1.030   2.515
 1662SOL     OW 4994   2.876   0.236   2.833
 1662SOL    HW1 4995   2.868   0.200   2.740
 1662SOL    HW2 4996   2.874   0.160   2.898
 1663SOL     OW 4997   2.452   1.487   2.353
 1663SOL    HW1 4998   2.494   1.429   2.283
 1663SOL    HW2 4999   2.408   1.566   2.309
 1664SOL     OW 5000   3.571   0.385   3.243
 1664SOL    HW1 5001   3.644   0.454   3.247
 1664SOL    HW2 5002   3.599   0.310   3.184
 1665SOL     OW 5003   2.117   1.348   2.152
 1665SOL    HW1 5004   2.021   1.349   2.125
 1665SOL    HW2 5005   2.129   1.401   2.236
 1666SOL     OW 5006   1.967   1.013   3.588
 1666SOL    HW1 5007   1.890   0.980   3.642
 1666SOL    HW2 5008   2.052   0.983   3.630
 1667SOL     OW 5009   2.534   0.203   3.351
 1667SOL    HW1 5010   2.624   0.187   3.311
 1667SOL    HW2 5011   2.542   0.208   3.450
 1668SOL     OW 5012   1.937   0.345   1.895
 1668SOL    HW1 5013   1.845   0.317   1.866
 1668SOL    HW2 5014   1.968   0.422   1.839
 1669SOL     OW 5015   3.302   0.856   3.260
 1669SOL    HW1 5016   3.245   0.908   3.197
 1669SOL    HW2 5017   3.398   0.868   3.236
 1670SOL     OW 5018   1.934   0.166   2.180
 1670SOL    HW1 5019   1.917   0.249   2.126
 1670SOL    HW2 5020   2.024   0.129   2.158
 1671SOL     OW 5021   3.045   1.335   1.981
 1671SOL    HW1 5022   2.946   1.324   1.983
 1671SOL    HW2 5023   3.079   1.350   2.074
 1672SOL     OW 5024   2.475   0.842   3.293
 1672SOL    HW1 5025   2.531   0.923   3.276
 1672SOL    HW2 5026   2.534   0.762   3.296
 1673SOL     OW 5027   3.355   1.767   2.821
 1673SOL    HW1 5028   3.388   1.831   2.752
 1673SOL    HW2 5029   3.421   1.761   2.896
 1674SOL     OW 5030   2.578   0.565   3.570
 1674SOL    HW1 5031   2.597   0.630   3.644
 1674SOL    HW2 5032   2.638   0.485   3.579
 1675SOL     OW 5033   3.312   1.220   3.495
 1675SOL    HW1 5034   3.303   1.210   3.594
 1675SOL    HW2 5035   3.408   1.213   3.469
 1676SOL     OW 5036   2.252   1.741   3.422
 1676SOL    HW1 5037   2.161   1.782   3.420
 1676SOL    HW2 5038   2.245   1.647   3.454
 1677SOL     OW 5039   3.536   0.883   3.116
 1677SOL    HW1 5040   3.509   0.794   3.079
 1677SOL    HW2 5041   3.537   0.951   3.043
 1678SOL     OW 5042   3.087   0.325   2.311
 1678SOL    HW1 5043   3.152   0.251   2.300
 1678SOL    HW2 5044   3.107   0.375   2.395
 1679SOL     OW 5045   2.456   0.745   2.514
 1679SOL    HW1 5046   2.506   0.830   2.495
 1679SOL    HW2 5047   2.368   0.747   2.466
 1680SOL     OW 5048   3.639   0.342   3.504
 1680SOL    HW1 5049   3.622   0.373   3.410
 1680SOL    HW2 5050   3.555   0.305   3.542
 1681SOL     OW 5051   3.592   0.934   3.379
 1681SOL    HW1 5052   3.630   1.025   3.394
 1681SOL    HW2 5053   3.584   0.917   3.280
 1682SOL     OW 5054   2.721   1.374   1.878
 1682SOL    HW1 5055   2.675   1.389   1.966
 1682SOL    HW2 5056   2.765   1.459   1.848
 1683SOL     OW 5057   2.523   1.790   2.815
 1683SOL    HW1 5058   2.477   1.878   2.802
 1683SOL    HW2 5059   2.622   1.802   2.808
 1684SOL     OW 5060   2.721   0.956   2.723
 1684SOL    HW1 5061   2.775   0.887   2.771
 1684SOL    HW2 5062   2.689   1.025   2.789
 1685SOL     OW 5063   2.945   0.984   1.949
 1685SOL    HW1 5064   2.922   1.037   1.867
 1685SOL    HW2 5065   3.026   0.928   1.930
 1686SOL     OW 5066   3.723   1.569   2.713
 1686SOL    HW1 5067   3.652   1.557   2.643
 1686SOL    HW2 5068   3.724   1.490   2.773
 1687SOL     OW 5069   2.083   1.314   3.706
 1687SOL    HW1 5070   2.018   1.241   3.685
 1687SOL    HW2 5071   2.087   1.328   3.804
 1688SOL     OW 5072   1.941   1.240   2.515
 1688SOL    HW1 5073   1.940   1.193   2.603
 1688SOL    HW2 5074   2.023   1.212   2.464
 1689SOL     OW 5075   2.534   1.391   3.486
 1689SOL    HW1 5076   2.456   1.341   3.524
 1689SOL    HW2 5077   2.531   1.486   3.517
 1690SOL     OW 5078   3.686   0.192   3.089
 1690SOL    HW1 5079   3.682   0.102   3.133
 1690SOL    HW2 5080   3.689   0.181   2.990
 1691SOL     OW 5081   2.290   0.424   2.382
 1691SOL    HW1 5082   2.320   0.352   2.320
 1691SOL    HW2 5083   2.251   0.384   2.465
 1692SOL     OW 5084   3.567   1.487   2.966
 1692SOL    HW1 5085   3.474   1.462   2.939
 1692SOL    HW2 5086   3.593   1.437   3.048
 1693SOL     OW 5087   2.179   0.547   3.142
 1693SOL    HW1 5088   2.217   0.488   3.214
 1693SOL    HW2 5089   2.219   0.521   3.054
 1694SOL     OW 5090   2.674   1.586   2.549
 1694SOL    HW1 5091   2.706   1.596   2.455
 1694SOL    HW2 5092   2.595   1.524   2.551
 1695SOL     OW 5093   3.286   0.214   2.974
 1695SOL    HW1 5094   3.338   0.149   3.029
 1695SOL    HW2 5095   3.237   0.277   3.035
 1696SOL     OW 5096   2.863   0.034   3.016
 1696SOL    HW1 5097   2.800  -0.038   2.985
 1696SOL    HW2 5098   2.956  -0.002   3.016
 1697SOL     OW 5099   2.632   1.330   2.163
 1697SOL    HW1 5100   2.586   1.243   2.180
 1697SOL    HW2 5101   2.723   1.327   2.204
 1698SOL     OW 5102   2.480   1.567   3.146
 1698SOL    HW1 5103   2.475   1.649   3.203
 1698SOL    HW2 5104   2.569   1.564   3.101
 1699SOL     OW 5105   3.214   0.052   2.030
 1699SOL    HW1 5106   3.249   0.011   1.946
 1699SOL    HW2 5107   3.124   0.014   2.050
 1700SOL     OW 5108   3.162   0.453   2.553
 1700SOL    HW1 5109   3.103   0.533   2.557
 1700SOL    HW2 5110   3.177   0.418   2.646
 1701SOL     OW 5111   3.455   0.221   2.744
 1701SOL    HW1 5112   3.371   0.220   2.798
 1701SOL    HW2 5113   3.457   0.304   2.688
 1702SOL     OW 5114   1.901   1.077   2.162
 1702SOL    HW1 5115   2.000   1.066   2.153
 1702SOL    HW2 5116   1.861   0.991   2.194
 1703SOL     OW 5117   2.737   1.646   2.199
 1703SOL    HW1 5118   2.660   1.611   2.145
 1703SOL    HW2 5119   2.705   1.717   2.261
 1704SOL     OW 5120   2.092   0.628   3.837
 1704SOL    HW1 5121   1.999   0.626   3.874
 1704SOL    HW2 5122   2.093   0.589   3.745
 1705SOL     OW 5123   2.087   0.275   4.720
 1705SOL    HW1 5124   2.122   0.258   4.812
 1705SOL    HW2 5125   1.999   0.230   4.708
 1706SOL     OW 5126   1.881   0.368   4.371
 1706SOL    HW1 5127   1.799   0.411   4.410
 1706SOL    HW2 5128   1.853   0.295   4.308
 1707SOL     OW 5129   3.617   0.607   3.955
 1707SOL    HW1 5130   3.605   0.594   3.856
 1707SOL    HW2 5131   3.587   0.526   4.004
 1708SOL     OW 5132   2.547   1.012   4.389
 1708SOL    HW1 5133   2.616   0.996   4.459
 1708SOL    HW2 5134   2.474   1.069   4.427
 1709SOL     OW 5135   3.465   0.447   4.461
 1709SOL    HW1 5136   3.391   0.493   4.411
 1709SOL    HW2 5137   3.516   0.515   4.514
 1710SOL     OW 5138   2.093   1.713   4.207
 1710SOL    HW1 5139   2.127   1.790   4.261
 1710SOL    HW2 5140   2.137   1.713   4.117
 1711SOL     OW 5141   2.092   1.434   4.262
 1711SOL    HW1 5142   2.066   1.530   4.262
 1711SOL    HW2 5143   2.021   1.380   4.307
 1712SOL     OW 5144   2.102   1.091   4.610
 1712SOL    HW1 5145   2.116   1.007   4.662
 1712SOL    HW2 5146   2.047   1.155   4.665
 1713SOL     OW 5147   2.468   0.964   3.847
 1713SOL    HW1 5148   2.475   1.048   3.793
 1713SOL    HW2 5149   2.514   0.977   3.935
 1714SOL     OW 5150   1.984   0.643   4.287
 1714SOL    HW1 5151   1.939   0.555   4.304
 1714SOL    HW2 5152   1.983   0.697   4.371
 1715SOL     OW 5153   3.704   1.767   4.083
 1715SOL    HW1 5154   3.758   1.738   4.163
 1715SOL    HW2 5155   3.734   1.857   4.054
 1716SOL     OW 5156   1.889   1.596   3.841
 1716SOL    HW1 5157   1.870   1.500   3.862
 1716SOL    HW2 5158   1.856   1.654   3.916
 1717SOL     OW 5159   3.551   0.922   4.336
 1717SOL    HW1 5160   3.646   0.893   4.344
 1717SOL    HW2 5161   3.543   0.987   4.261
 1718SOL     OW 5162   3.503   1.108   4.156
 1718SOL    HW1 5163   3.589   1.110   4.104
 1718SOL    HW2 5164   3.517   1.155   4.244
 1719SOL     OW 5165   2.475   1.365   4.450
 1719SOL    HW1 5166   2.426   1.278   4.459
 1719SOL    HW2 5167   2.452   1.408   4.363
 1720SOL     OW 5168   2.671   0.004   4.226
 1720SOL    HW1 5169   2.711   0.095   4.217
 1720SOL    HW2 5170   2.571   0.012   4.232
 1721SOL     OW 5171   3.387   0.999   3.914
 1721SOL    HW1 5172   3.324   0.923   3.927
 1721SOL    HW2 5173   3.435   1.017   4.000
 1722SOL     OW 5174   3.529   1.714   4.296
 1722SOL    HW1 5175   3.488   1.691   4.208
 1722SOL    HW2 5176   3.511   1.640   4.361
 1723SOL     OW 5177   2.460   0.729   3.994
 1723SOL    HW1 5178   2.484   0.798   3.926
 1723SOL    HW2 5179   2.382   0.762   4.048
 1724SOL     OW 5180   3.143   0.345   4.668
 1724SOL    HW1 5181   3.057   0.295   4.655
 1724SOL    HW2 5182   3.205   0.291   4.724
 1725SOL     OW 5183   3.438   1.662   4.031
 1725SOL    HW1 5184   3.527   1.708   4.034
 1725SOL    HW2 5185   3.417   1.638   3.936
 1726SOL     OW 5186   2.903   0.701   4.153
 1726SOL    HW1 5187   2.929   0.697   4.249
 1726SOL    HW2 5188   2.818   0.650   4.139
 1727SOL     OW 5189   1.938   0.811   4.513
 1727SOL    HW1 5190   2.037   0.799   4.522
 1727SOL    HW2 5191   1.914   0.906   4.534
 1728SOL     OW 5192   2.727   0.348   3.919
 1728SOL    HW1 5193   2.786   0.411   3.870
 1728SOL    HW2 5194   2.746   0.254   3.890
 1729SOL     OW 5195   3.224   1.144   4.269
 1729SOL    HW1 5196   3.307   1.115   4.221
 1729SOL    HW2 5197   3.175   1.211   4.213
 1730SOL     OW 5198   2.870   1.456   4.201
 1730SOL    HW1 5199   2.824   1.528   4.149
 1730SOL    HW2 5200   2.866   1.476   4.299
 1731SOL     OW 5201   2.213   1.801   4.577
 1731SOL    HW1 5202   2.263   1.715   4.583
 1731SOL    HW2 5203   2.278   1.878   4.574
 1732SOL     OW 5204   3.657   1.066   4.597
 1732SOL    HW1 5205   3.595   1.051   4.521
 1732SOL    HW2 5206   3.605   1.077   4.682
 1733SOL     OW 5207   2.183   0.943   3.966
 1733SOL    HW1 5208   2.265   0.982   3.924
 1733SOL    HW2 5209   2.156   0.861   3.917
 1734SOL     OW 5210   3.320   0.735   4.452
 1734SOL    HW1 5211   3.315   0.670   4.527
 1734SOL    HW2 5212   3.400   0.794   4.465
 1735SOL     OW 5213   2.973   1.776   3.961
 1735SOL    HW1 5214   2.913   1.714   4.011
 1735SOL    HW2 5215   3.004   1.732   3.876
 1736SOL     OW 5216   3.494   1.377   3.805
 1736SOL    HW1 5217   3.462   1.471   3.795
 1736SOL    HW2 5218   3.418   1.314   3.793
 1737SOL     OW 5219   2.326   1.743   4.047
 1737SOL    HW1 5220   2.359   1.782   4.133
 1737SOL    HW2 5221   2.402   1.736   3.982
 1738SOL     OW 5222   3.262   0.107   4.150
 1738SOL    HW1 5223   3.238   0.070   4.060
 1738SOL    HW2 5224   3.361   0.123   4.154
 1739SOL     OW 5225   2.802   1.698   4.628
 1739SOL    HW1 5226   2.882   1.641   4.649
 1739SOL    HW2 5227   2.753   1.658   4.551
 1740SOL     OW 5228   2.244   0.700   4.204
 1740SOL    HW1 5229   2.289   0.610   4.201
 1740SOL    HW2 5230   2.150   0.689   4.237
 1741SOL     OW 5231   2.476   0.122   3.841
 1741SOL    HW1 5232   2.574   0.100   3.848
 1741SOL    HW2 5233   2.445   0.105   3.748
 1742SOL     OW 5234   2.401   0.064   4.236
 1742SOL    HW1 5235   2.320   0.065   4.294
 1742SOL    HW2 5236   2.404   0.147   4.181
 1743SOL     OW 5237   3.296   1.188   3.765
 1743SOL    HW1 5238   3.328   1.112   3.822
 1743SOL    HW2 5239   3.204   1.215   3.795
 1744SOL     OW 5240   2.159   0.035   3.895
 1744SOL    HW1 5241   2.208   0.119   3.874
 1744SOL    HW2 5242   2.221  -0.030   3.940
 1745SOL     OW 5243   2.797   0.236   4.204
 1745SOL    HW1 5244   2.749   0.277   4.126
 1745SOL    HW2 5245   2.896   0.234   4.185
 1746SOL     OW 5246   2.321   1.152   4.465
 1746SOL    HW1 5247   2.250   1.125   4.530
 1746SOL    HW2 5248   2.295   1.124   4.372
 1747SOL     OW 5249   3.133   1.797   4.315
 1747SOL    HW1 5250   3.177   1.861   4.251
 1747SOL    HW2 5251   3.083   1.849   4.385
 1748SOL     OW 5252   2.894   0.549   3.740
 1748SOL    HW1 5253   2.853   0.631   3.701
 1748SOL    HW2 5254   2.958   0.575   3.813
 1749SOL     OW 5255   2.728   0.454   4.366
 1749SOL    HW1 5256   2.696   0.526   4.304
 1749SOL    HW2 5257   2.752   0.373   4.313
 1750SOL     OW 5258   3.719   0.833   4.101
 1750SOL    HW1 5259   3.761   0.769   4.165
 1750SOL    HW2 5260   3.681   0.782   4.023
 1751SOL     OW 5261   2.350   1.385   3.898
 1751SOL    HW1 5262   2.263   1.370   3.945
 1751SOL    HW2 5263   2.333   1.411   3.803
 1752SOL     OW 5264   3.526   1.280   4.381
 1752SOL    HW1 5265   3.625   1.288   4.395
 1752SOL    HW2 5266   3.481   1.364   4.412
 1753SOL     OW 5267   3.252   0.575   3.802
 1753SOL    HW1 5268   3.198   0.554   3.883
 1753SOL    HW2 5269   3.343   0.534   3.811
 1754SOL     OW 5270   2.389   0.256   4.052
 1754SOL    HW1 5271   2.416   0.197   3.977
 1754SOL    HW2 5272   2.389   0.351   4.021
 1755SOL     OW 5273   2.567   1.050   4.092
 1755SOL    HW1 5274   2.553   1.057   4.191
 1755SOL    HW2 5275   2.651   0.999   4.074
 1756SOL     OW 5276   2.229   1.100   4.225
 1756SOL    HW1 5277   2.222   1.183   4.169
 1756SOL    HW2 5278   2.233   1.020   4.165
 1757SOL     OW 5279   3.114   1.348   4.112
 1757SOL    HW1 5280   3.164   1.425   4.152
 1757SOL    HW2 5281   3.019   1.350   4.144
 1758SOL     OW 5282   3.444   0.639   4.196
 1758SOL    HW1 5283   3.413   0.700   4.269
 1758SOL    HW2 5284   3.494   0.691   4.127
 1759SOL     OW 5285   3.071   0.525   3.999
 1759SOL    HW1 5286   3.084   0.441   4.053
 1759SOL    HW2 5287   3.042   0.599   4.059
 1760SOL     OW 5288   2.169   0.063   4.342
 1760SOL    HW1 5289   2.158   0.157   4.375
 1760SOL    HW2 5290   2.164   0.000   4.419
 1761SOL     OW 5291   3.484   0.367   4.098
 1761SOL    HW1 5292   3.486   0.291   4.162
 1761SOL    HW2 5293   3.436   0.444   4.138
 1762SOL     OW 5294   2.885   0.766   4.690
 1762SOL    HW1 5295   2.900   0.787   4.786
 1762SOL    HW2 5296   2.855   0.671   4.681
 1763SOL     OW 5297   3.402   0.274   3.849
 1763SOL    HW1 5298   3.341   0.199   3.872
 1763SOL    HW2 5299   3.424   0.326   3.932
 1764SOL     OW 5300   3.165   0.838   3.766
 1764SOL    HW1 5301   3.199   0.745   3.781
 1764SOL    HW2 5302   3.183   0.865   3.671
 1765SOL     OW 5303   1.870   1.326   3.924
 1765SOL    HW1 5304   1.777   1.347   3.893
 1765SOL    HW2 5305   1.880   1.227   3.937
 1766SOL     OW 5306   2.677   0.572   4.049
 1766SOL    HW1 5307   2.684   0.483   4.003
 1766SOL    HW2 5308   2.583   0.606   4.041
 1767SOL     OW 5309   2.335   0.500   3.915
 1767SOL    HW1 5310   2.396   0.580   3.919
 1767SOL    HW2 5311   2.240   0.531   3.922
 1768SOL     OW 5312   3.164   0.855   4.033
 1768SOL    HW1 5313   3.078   0.824   4.075
 1768SOL    HW2 5314   3.160   0.841   3.934
 1769SOL     OW 5315   3.588   0.135   4.247
 1769SOL    HW1 5316   3.661   0.118   4.180
 1769SOL    HW2 5317   3.557   0.048   4.285
 1770SOL     OW 5318   3.250   1.573   4.201
 1770SOL    HW1 5319   3.317   1.585   4.127
 1770SOL    HW2 5320   3.210   1.662   4.224
 1771SOL     OW 5321   2.534   1.616   3.878
 1771SOL    HW1 5322   2.543   1.626   3.779
 1771SOL    HW2 5323   2.494   1.527   3.899
 1772SOL     OW 5324   3.703   0.175   4.687
 1772SOL    HW1 5325   3.742   0.090   4.651
 1772SOL    HW2 5326   3.605   0.177   4.668
 1773SOL     OW 5327   2.125   0.326   4.444
 1773SOL    HW1 5328   2.046   0.377   4.410
 1773SOL    HW2 5329   2.116   0.311   4.542
 1774SOL     OW 5330   3.056   1.612   3.755
 1774SOL    HW1 5331   3.062   1.519   3.792
 1774SOL    HW2 5332   2.997   1.612   3.675
 1775SOL     OW 5333   2.778   0.910   4.015
 1775SOL    HW1 5334   2.841   0.948   3.947
 1775SOL    HW2 5335   2.818   0.827   4.054
 1776SOL     OW 5336   3.366   1.607   3.768
 1776SOL    HW1 5337   3.274   1.644   3.775
 1776SOL    HW2 5338   3.404   1.627   3.678
 1777SOL     OW 5339   2.452   1.487   4.215
 1777SOL    HW1 5340   2.494   1.429   4.145
 1777SOL    HW2 5341   2.408   1.566   4.171
 1778SOL     OW 5342   2.117   1.348   4.014
 1778SOL    HW1 5343   2.021   1.349   3.987
 1778SOL    HW2 5344   2.129   1.401   4.098
 1779SOL     OW 5345   1.937   0.345   3.757
 1779SOL    HW1 5346   1.845   0.317   3.728
 1779SOL    HW2 5347   1.968   0.422   3.701
 1780SOL     OW 5348   1.934   0.166   4.042
 1780SOL    HW1 5349   1.917   0.249   3.988
 1780SOL    HW2 5350   2.024   0.129   4.020
 1781SOL     OW 5351   3.045   1.335   3.843
 1781SOL    HW1 5352   2.946   1.324   3.845
 1781SOL    HW2 5353   3.079   1.350   3.936
 1782SOL     OW 5354   3.087   0.325   4.173
 1782SOL    HW1 5355   3.152   0.251   4.162
 1782SOL    HW2 5356   3.107   0.375   4.257
 1783SOL     OW 5357   2.456   0.745   4.376
 1783SOL    HW1 5358   2.506   0.830   4.357
 1783SOL    HW2 5359   2.368   0.747   4.328
 1784SOL     OW 5360   2.721   1.374   3.740
 1784SOL    HW1 5361   2.675   1.389   3.828
 1784SOL    HW2 5362   2.765   1.459   3.710
 1785SOL     OW 5363   2.523   1.790   4.677
 1785SOL    HW1 5364   2.477   1.878   4.664
 1785SOL    HW2 5365   2.622   1.802   4.670
 1786SOL     OW 5366   2.721   0.956   4.585
 1786SOL    HW1 5367   2.775   0.887   4.633
 1786SOL    HW2 5368   2.689   1.025   4.651
 1787SOL     OW 5369   2.945   0.984   3.811
 1787SOL    HW1 5370   2.922   1.037   3.729
 1787SOL    HW2 5371   3.026   0.928   3.792
 1788SOL     OW 5372   1.941   1.240   4.377
 1788SOL    HW1 5373   1.940   1.193   4.465
 1788SOL    HW2 5374   2.023   1.212   4.326
 1789SOL     OW 5375   2.290   0.424   4.244
 1789SOL    HW1 5376   2.320   0.352   4.182
 1789SOL    HW2 5377   2.251   0.384   4.327
 1790SOL     OW 5378   3.567   1.487   4.828
 1790SOL    HW1 5379   3.474   1.462   4.801
 1790SOL    HW2 5380   3.593   1.437   4.910
 1791SOL     OW 5381   2.674   1.586   4.411
 1791SOL    HW1 5382   2.706   1.596   4.317
 1791SOL    HW2 5383   2.595   1.524   4.413
 1792SOL     OW 5384   2.632   1.330   4.025
 1792SOL    HW1 5385   2.586   1.243   4.042
 1792SOL    HW2 5386   2.723   1.327   4.066
 1793SOL     OW 5387   3.214   0.052   3.892
 1793SOL    HW1 5388   3.249   0.011   3.808
 1793SOL    HW2 5389   3.124   0.014   3.912
 1794SOL     OW 5390   3.162   0.453   4.415
 1794SOL    HW1 5391   3.103   0.533   4.419
 1794SOL    HW2 5392   3.177   0.418   4.508
 1795SOL     OW 5393   1.901   1.077   4.024
 1795SOL    HW1 5394   2.000   1.066   4.015
 1795SOL    HW2 5395   1.861   0.991   4.056
 1796SOL     OW 5396   2.737   1.646   4.061
 1796SOL    HW1 5397   2.660   1.611   4.007
 1796SOL    HW2 5398   2.705   1.717   4.123
 1797SOL     OW 5399   2.092   2.490   0.113
 1797SOL    HW1 5400   1.999   2.488   0.150
 1797SOL    HW2 5401   2.093   2.451   0.021
 1798SOL     OW 5402   2.087   2.137   0.996
 1798SOL    HW1 5403   2.122   2.120   1.088
 1798SOL    HW2 5404   1.999   2.092   0.984
 1799SOL     OW 5405   1.881   2.230   0.647
 1799SOL    HW1 5406   1.799   2.273   0.686
 1799SOL    HW2 5407   1.853   2.157   0.584
 1800SOL     OW 5408   2.431   3.137   1.165
 1800SOL    HW1 5409   2.338   3.130   1.128
 1800SOL    HW2 5410   2.442   3.226   1.209
 1801SOL     OW 5411   3.417   3.373   0.703
 1801SOL    HW1 5412   3.360   3.357   0.784
 1801SOL    HW2 5413   3.358   3.383   0.623
 1802SOL     OW 5414   2.997   2.565   0.717
 1802SOL    HW1 5415   3.054   2.643   0.692
 1802SOL    HW2 5416   2.937   2.591   0.793
 1803SOL     OW 5417   3.617   2.469   0.231
 1803SOL    HW1 5418   3.605   2.456   0.132
 1803SOL    HW2 5419   3.587   2.388   0.280
 1804SOL     OW 5420   2.630   3.006   1.023
 1804SOL    HW1 5421   2.552   3.023   1.083
 1804SOL    HW2 5422   2.664   3.093   0.987
 1805SOL     OW 5423   2.712   2.660   1.823
 1805SOL    HW1 5424   2.708   2.736   1.888
 1805SOL    HW2 5425   2.734   2.696   1.732
 1806SOL     OW 5426   2.547   2.874   0.665
 1806SOL    HW1 5427   2.616   2.858   0.735
 1806SOL    HW2 5428   2.474   2.931   0.703
 1807SOL     OW 5429   2.548   3.023   1.803
 1807SOL    HW1 5430   2.608   3.102   1.817
 1807SOL    HW2 5431   2.462   3.054   1.762
 1808SOL     OW 5432   2.197   3.297   1.061
 1808SOL    HW1 5433   2.119   3.266   1.008
 1808SOL    HW2 5434   2.255   3.355   1.004
 1809SOL     OW 5435   3.322   3.367   1.339
 1809SOL    HW1 5436   3.346   3.461   1.365
 1809SOL    HW2 5437   3.306   3.313   1.421
 1810SOL     OW 5438   2.300   2.254   1.499
 1810SOL    HW1 5439   2.382   2.198   1.508
 1810SOL    HW2 5440   2.219   2.196   1.503
 1811SOL     OW 5441   3.465   2.309   0.737
 1811SOL    HW1 5442   3.391   2.355   0.687
 1811SOL    HW2 5443   3.516   2.377   0.790
 1812SOL     OW 5444   2.093   3.575   0.483
 1812SOL    HW1 5445   2.127   3.652   0.537
 1812SOL    HW2 5446   2.137   3.575   0.393
 1813SOL     OW 5447   2.989   3.203   1.690
 1813SOL    HW1 5448   3.036   3.203   1.778
 1813SOL    HW2 5449   2.941   3.116   1.679
 1814SOL     OW 5450   2.092   3.296   0.538
 1814SOL    HW1 5451   2.066   3.392   0.538
 1814SOL    HW2 5452   2.021   3.242   0.583
 1815SOL     OW 5453   2.102   2.953   0.886
 1815SOL    HW1 5454   2.116   2.869   0.938
 1815SOL    HW2 5455   2.047   3.017   0.941
 1816SOL     OW 5456   2.482   3.648   1.439
 1816SOL    HW1 5457   2.390   3.631   1.474
 1816SOL    HW2 5458   2.510   3.740   1.465
 1817SOL     OW 5459   2.468   2.826   0.123
 1817SOL    HW1 5460   2.475   2.910   0.069
 1817SOL    HW2 5461   2.514   2.839   0.211
 1818SOL     OW 5462   3.456   1.976   1.480
 1818SOL    HW1 5463   3.438   2.043   1.408
 1818SOL    HW2 5464   3.453   2.022   1.569
 1819SOL     OW 5465   1.984   2.505   0.563
 1819SOL    HW1 5466   1.939   2.417   0.580
 1819SOL    HW2 5467   1.983   2.559   0.647
 1820SOL     OW 5468   3.704   3.629   0.359
 1820SOL    HW1 5469   3.758   3.600   0.439
 1820SOL    HW2 5470   3.734   3.719   0.330
 1821SOL     OW 5471   1.889   3.458   0.117
 1821SOL    HW1 5472   1.870   3.362   0.138
 1821SOL    HW2 5473   1.856   3.516   0.192
 1822SOL     OW 5474   3.551   2.784   0.612
 1822SOL    HW1 5475   3.646   2.755   0.620
 1822SOL    HW2 5476   3.543   2.849   0.537
 1823SOL     OW 5477   3.503   2.970   0.432
 1823SOL    HW1 5478   3.589   2.972   0.380
 1823SOL    HW2 5479   3.517   3.017   0.520
 1824SOL     OW 5480   1.975   2.599   1.597
 1824SOL    HW1 5481   2.063   2.586   1.642
 1824SOL    HW2 5482   1.962   2.696   1.575
 1825SOL     OW 5483   2.475   3.227   0.726
 1825SOL    HW1 5484   2.426   3.140   0.735
 1825SOL    HW2 5485   2.452   3.270   0.639
 1826SOL     OW 5486   3.155   3.090   1.423
 1826SOL    HW1 5487   3.192   3.017   1.365
 1826SOL    HW2 5488   3.207   3.095   1.508
 1827SOL     OW 5489   2.671   1.866   0.502
 1827SOL    HW1 5490   2.711   1.957   0.493
 1827SOL    HW2 5491   2.571   1.874   0.508
 1828SOL     OW 5492   2.059   2.838   1.264
 1828SOL    HW1 5493   2.148   2.793   1.250
 1828SOL    HW2 5494   1.986   2.773   1.245
 1829SOL     OW 5495   3.387   2.861   0.190
 1829SOL    HW1 5496   3.324   2.785   0.203
 1829SOL    HW2 5497   3.435   2.879   0.276
 1830SOL     OW 5498   3.049   3.654   1.616
 1830SOL    HW1 5499   3.073   3.714   1.540
 1830SOL    HW2 5500   3.056   3.559   1.586
 1831SOL     OW 5501   2.179   2.113   1.801
 1831SOL    HW1 5502   2.250   2.184   1.807
 1831SOL    HW2 5503   2.091   2.152   1.829
 1832SOL     OW 5504   3.328   3.279   0.953
 1832SOL    HW1 5505   3.269   3.285   1.033
 1832SOL    HW2 5506   3.313   3.191   0.907
 1833SOL     OW 5507   3.529   3.576   0.572
 1833SOL    HW1 5508   3.488   3.553   0.484
 1833SOL    HW2 5509   3.511   3.502   0.637
 1834SOL     OW 5510   2.460   2.591   0.270
 1834SOL    HW1 5511   2.484   2.660   0.202
 1834SOL    HW2 5512   2.382   2.624   0.324
 1835SOL     OW 5513   3.143   2.207   0.944
 1835SOL    HW1 5514   3.057   2.157   0.931
 1835SOL    HW2 5515   3.205   2.153   1.000
 1836SOL     OW 5516   3.438   3.524   0.307
 1836SOL    HW1 5517   3.527   3.570   0.310
 1836SOL    HW2 5518   3.417   3.500   0.212
 1837SOL     OW 5519   2.669   2.467   1.465
 1837SOL    HW1 5520   2.622   2.464   1.554
 1837SOL    HW2 5521   2.618   2.412   1.399
 1838SOL     OW 5522   3.256   2.331   1.674
 1838SOL    HW1 5523   3.236   2.374   1.762
 1838SOL    HW2 5524   3.334   2.269   1.683
 1839SOL     OW 5525   2.835   2.752   1.572
 1839SOL    HW1 5526   2.881   2.668   1.543
 1839SOL    HW2 5527   2.779   2.786   1.497
 1840SOL     OW 5528   2.853   2.272   1.242
 1840SOL    HW1 5529   2.776   2.306   1.296
 1840SOL    HW2 5530   2.819   2.221   1.163
 1841SOL     OW 5531   2.903   2.563   0.429
 1841SOL    HW1 5532   2.929   2.559   0.525
 1841SOL    HW2 5533   2.818   2.512   0.415
 1842SOL     OW 5534   1.938   2.673   0.789
 1842SOL    HW1 5535   2.037   2.661   0.798
 1842SOL    HW2 5536   1.914   2.768   0.810
 1843SOL     OW 5537   1.992   3.683   1.571
 1843SOL    HW1 5538   1.982   3.668   1.670
 1843SOL    HW2 5539   1.906   3.719   1.535
 1844SOL     OW 5540   2.727   2.210   0.195
 1844SOL    HW1 5541   2.786   2.273   0.146
 1844SOL    HW2 5542   2.746   2.116   0.166
 1845SOL     OW 5543   3.581   2.447   1.831
 1845SOL    HW1 5544   3.555   2.536   1.795
 1845SOL    HW2 5545   3.579   2.379   1.758
 1846SOL     OW 5546   3.224   3.006   0.545
 1846SOL    HW1 5547   3.307   2.977   0.497
 1846SOL    HW2 5548   3.175   3.073   0.489
 1847SOL     OW 5549   2.412   2.058   0.885
 1847SOL    HW1 5550   2.407   2.053   0.985
 1847SOL    HW2 5551   2.414   2.154   0.856
 1848SOL     OW 5552   2.870   3.318   0.477
 1848SOL    HW1 5553   2.824   3.390   0.425
 1848SOL    HW2 5554   2.866   3.338   0.575
 1849SOL     OW 5555   2.213   3.663   0.853
 1849SOL    HW1 5556   2.263   3.577   0.859
 1849SOL    HW2 5557   2.278   3.740   0.850
 1850SOL     OW 5558   3.657   2.928   0.873
 1850SOL    HW1 5559   3.595   2.913   0.797
 1850SOL    HW2 5560   3.605   2.939   0.958
 1851SOL     OW 5561   3.089   3.412   1.506
 1851SOL    HW1 5562   3.095   3.335   1.570
 1851SOL    HW2 5563   3.037   3.386   1.426
 1852SOL     OW 5564   2.183   2.805   0.242
 1852SOL    HW1 5565   2.265   2.844   0.200
 1852SOL    HW2 5566   2.156   2.723   0.193
 1853SOL     OW 5567   3.320   2.597   0.728
 1853SOL    HW1 5568   3.315   2.532   0.803
 1853SOL    HW2 5569   3.400   2.656   0.741
 1854SOL     OW 5570   2.323   3.128   1.727
 1854SOL    HW1 5571   2.273   3.129   1.641
 1854SOL    HW2 5572   2.260   3.110   1.803
 1855SOL     OW 5573   2.973   3.638   0.237
 1855SOL    HW1 5574   2.913   3.576   0.287
 1855SOL    HW2 5575   3.004   3.594   0.152
 1856SOL     OW 5576   2.064   2.147   1.498
 1856SOL    HW1 5577   1.984   2.207   1.485
 1856SOL    HW2 5578   2.054   2.098   1.584
 1857SOL     OW 5579   3.494   3.239   0.081
 1857SOL    HW1 5580   3.462   3.333   0.071
 1857SOL    HW2 5581   3.418   3.176   0.069
 1858SOL     OW 5582   2.326   3.605   0.323
 1858SOL    HW1 5583   2.359   3.644   0.409
 1858SOL    HW2 5584   2.402   3.598   0.258
 1859SOL     OW 5585   3.262   1.969   0.426
 1859SOL    HW1 5586   3.238   1.932   0.336
 1859SOL    HW2 5587   3.361   1.985   0.430
 1860SOL     OW 5588   2.111   3.647   1.241
 1860SOL    HW1 5589   2.168   3.582   1.291
 1860SOL    HW2 5590   2.095   3.614   1.148
 1861SOL     OW 5591   2.802   3.560   0.904
 1861SOL    HW1 5592   2.882   3.503   0.925
 1861SOL    HW2 5593   2.753   3.520   0.827
 1862SOL     OW 5594   2.244   2.562   0.480
 1862SOL    HW1 5595   2.289   2.472   0.477
 1862SOL    HW2 5596   2.150   2.551   0.513
 1863SOL     OW 5597   3.409   2.084   1.729
 1863SOL    HW1 5598   3.404   2.121   1.821
 1863SOL    HW2 5599   3.337   2.015   1.717
 1864SOL     OW 5600   2.643   2.126   1.749
 1864SOL    HW1 5601   2.710   2.065   1.792
 1864SOL    HW2 5602   2.570   2.145   1.814
 1865SOL     OW 5603   2.750   3.376   1.195
 1865SOL    HW1 5604   2.727   3.351   1.101
 1865SOL    HW2 5605   2.811   3.307   1.234
 1866SOL     OW 5606   3.213   2.452   1.433
 1866SOL    HW1 5607   3.241   2.409   1.518
 1866SOL    HW2 5608   3.238   2.548   1.434
 1867SOL     OW 5609   2.665   3.264   0.924
 1867SOL    HW1 5610   2.755   3.278   0.882
 1867SOL    HW2 5611   2.594   3.266   0.853
 1868SOL     OW 5612   2.784   2.365   0.899
 1868SOL    HW1 5613   2.759   2.356   0.803
 1868SOL    HW2 5614   2.832   2.283   0.930
 1869SOL     OW 5615   2.401   1.926   0.512
 1869SOL    HW1 5616   2.320   1.927   0.570
 1869SOL    HW2 5617   2.404   2.009   0.457
 1870SOL     OW 5618   3.296   3.050   0.041
 1870SOL    HW1 5619   3.328   2.974   0.098
 1870SOL    HW2 5620   3.204   3.077   0.071
 1871SOL     OW 5621   2.159   1.897   0.171
 1871SOL    HW1 5622   2.208   1.981   0.150
 1871SOL    HW2 5623   2.221   1.832   0.216
 1872SOL     OW 5624   2.797   2.098   0.480
 1872SOL    HW1 5625   2.749   2.139   0.402
 1872SOL    HW2 5626   2.896   2.096   0.461
 1873SOL     OW 5627   2.938   2.545   1.464
 1873SOL    HW1 5628   2.858   2.484   1.467
 1873SOL    HW2 5629   3.019   2.492   1.440
 1874SOL     OW 5630   3.089   3.432   0.793
 1874SOL    HW1 5631   3.110   3.506   0.728
 1874SOL    HW2 5632   3.157   3.432   0.866
 1875SOL     OW 5633   2.321   3.014   0.741
 1875SOL    HW1 5634   2.250   2.987   0.806
 1875SOL    HW2 5635   2.295   2.986   0.648
 1876SOL     OW 5636   3.133   3.659   0.591
 1876SOL    HW1 5637   3.177   3.723   0.527
 1876SOL    HW2 5638   3.083   3.711   0.661
 1877SOL     OW 5639   2.894   2.411   0.016
 1877SOL    HW1 5640   2.853   2.493  -0.023
 1877SOL    HW2 5641   2.958   2.437   0.089
 1878SOL     OW 5642   1.940   2.418   1.386
 1878SOL    HW1 5643   2.032   2.417   1.345
 1878SOL    HW2 5644   1.934   2.492   1.453
 1879SOL     OW 5645   2.423   2.084   1.147
 1879SOL    HW1 5646   2.461   2.000   1.184
 1879SOL    HW2 5647   2.335   2.103   1.191
 1880SOL     OW 5648   2.728   2.316   0.642
 1880SOL    HW1 5649   2.696   2.388   0.580
 1880SOL    HW2 5650   2.752   2.235   0.589
 1881SOL     OW 5651   2.879   1.901   0.753
 1881SOL    HW1 5652   2.807   1.906   0.684
 1881SOL    HW2 5653   2.855   1.832   0.822
 1882SOL     OW 5654   3.291   3.035   0.867
 1882SOL    HW1 5655   3.236   2.951   0.860
 1882SOL    HW2 5656   3.317   3.064   0.775
 1883SOL     OW 5657   3.328   2.452   0.992
 1883SOL    HW1 5658   3.298   2.357   0.999
 1883SOL    HW2 5659   3.401   2.468   1.058
 1884SOL     OW 5660   3.719   2.695   0.377
 1884SOL    HW1 5661   3.761   2.631   0.441
 1884SOL    HW2 5662   3.681   2.644   0.299
 1885SOL     OW 5663   2.350   3.247   0.174
 1885SOL    HW1 5664   2.263   3.232   0.221
 1885SOL    HW2 5665   2.333   3.273   0.079
 1886SOL     OW 5666   3.526   3.142   0.657
 1886SOL    HW1 5667   3.625   3.150   0.671
 1886SOL    HW2 5668   3.481   3.226   0.688
 1887SOL     OW 5669   3.252   2.437   0.078
 1887SOL    HW1 5670   3.198   2.416   0.159
 1887SOL    HW2 5671   3.343   2.396   0.087
 1888SOL     OW 5672   2.389   2.118   0.328
 1888SOL    HW1 5673   2.416   2.059   0.253
 1888SOL    HW2 5674   2.389   2.213   0.297
 1889SOL     OW 5675   3.616   3.085   1.588
 1889SOL    HW1 5676   3.707   3.046   1.575
 1889SOL    HW2 5677   3.624   3.181   1.612
 1890SOL     OW 5678   2.926   3.209   1.340
 1890SOL    HW1 5679   2.846   3.186   1.395
 1890SOL    HW2 5680   3.009   3.183   1.389
 1891SOL     OW 5681   3.454   3.491   1.625
 1891SOL    HW1 5682   3.481   3.525   1.535
 1891SOL    HW2 5683   3.533   3.453   1.671
 1892SOL     OW 5684   2.973   3.057   1.100
 1892SOL    HW1 5685   2.933   3.101   1.181
 1892SOL    HW2 5686   2.932   3.094   1.017
 1893SOL     OW 5687   3.500   2.961   1.079
 1893SOL    HW1 5688   3.505   3.042   1.138
 1893SOL    HW2 5689   3.414   2.963   1.028
 1894SOL     OW 5690   2.777   1.951   1.402
 1894SOL    HW1 5691   2.802   1.931   1.307
 1894SOL    HW2 5692   2.849   2.007   1.444
 1895SOL     OW 5693   2.842   2.978   1.719
 1895SOL    HW1 5694   2.743   2.984   1.729
 1895SOL    HW2 5695   2.865   2.898   1.663
 1896SOL     OW 5696   2.567   2.912   0.368
 1896SOL    HW1 5697   2.553   2.919   0.467
 1896SOL    HW2 5698   2.651   2.861   0.350
 1897SOL     OW 5699   2.272   2.675   1.251
 1897SOL    HW1 5700   2.358   2.687   1.301
 1897SOL    HW2 5701   2.230   2.588   1.278
 1898SOL     OW 5702   3.136   2.248   1.262
 1898SOL    HW1 5703   3.157   2.322   1.326
 1898SOL    HW2 5704   3.047   2.265   1.219
 1899SOL     OW 5705   1.926   3.426   1.331
 1899SOL    HW1 5706   1.880   3.508   1.297
 1899SOL    HW2 5707   2.024   3.445   1.340
 1900SOL     OW 5708   2.229   2.962   0.501
 1900SOL    HW1 5709   2.222   3.045   0.445
 1900SOL    HW2 5710   2.233   2.882   0.441
 1901SOL     OW 5711   2.428   2.399   0.865
 1901SOL    HW1 5712   2.440   2.465   0.791
 1901SOL    HW2 5713   2.474   2.433   0.948
 1902SOL     OW 5714   3.114   3.210   0.388
 1902SOL    HW1 5715   3.164   3.287   0.428
 1902SOL    HW2 5716   3.019   3.212   0.420
 1903SOL     OW 5717   3.134   3.307   1.142
 1903SOL    HW1 5718   3.181   3.320   1.229
 1903SOL    HW2 5719   3.068   3.233   1.151
 1904SOL     OW 5720   3.444   2.501   0.472
 1904SOL    HW1 5721   3.413   2.562   0.545
 1904SOL    HW2 5722   3.494   2.553   0.403
 1905SOL     OW 5723   2.216   3.372   1.329
 1905SOL    HW1 5724   2.195   3.328   1.242
 1905SOL    HW2 5725   2.313   3.398   1.332
 1906SOL     OW 5726   2.264   2.613   1.598
 1906SOL    HW1 5727   2.332   2.668   1.551
 1906SOL    HW2 5728   2.304   2.525   1.625
 1907SOL     OW 5729   3.449   2.641   1.670
 1907SOL    HW1 5730   3.357   2.679   1.665
 1907SOL    HW2 5731   3.509   2.688   1.605
 1908SOL     OW 5732   2.875   1.967   1.770
 1908SOL    HW1 5733   2.881   2.052   1.718
 1908SOL    HW2 5734   2.907   1.891   1.713
 1909SOL     OW 5735   2.366   1.912   1.740
 1909SOL    HW1 5736   2.324   1.855   1.670
 1909SOL    HW2 5737   2.300   1.981   1.772
 1910SOL     OW 5738   2.435   2.732   1.029
 1910SOL    HW1 5739   2.479   2.821   1.020
 1910SOL    HW2 5740   2.372   2.732   1.106
 1911SOL     OW 5741   3.222   2.724   1.045
 1911SOL    HW1 5742   3.147   2.724   0.979
 1911SOL    HW2 5743   3.259   2.632   1.054
 1912SOL     OW 5744   3.071   2.387   0.275
 1912SOL    HW1 5745   3.084   2.303   0.329
 1912SOL    HW2 5746   3.042   2.461   0.335
 1913SOL     OW 5747   2.169   2.075   1.231
 1913SOL    HW1 5748   2.146   2.112   1.321
 1913SOL    HW2 5749   2.139   1.980   1.225
 1914SOL     OW 5750   1.899   3.172   1.282
 1914SOL    HW1 5751   1.952   3.123   1.350
 1914SOL    HW2 5752   1.921   3.270   1.287
 1915SOL     OW 5753   2.594   2.496   1.064
 1915SOL    HW1 5754   2.653   2.470   0.988
 1915SOL    HW2 5755   2.566   2.592   1.053
 1916SOL     OW 5756   3.590   2.797   1.854
 1916SOL    HW1 5757   3.544   2.790   1.765
 1916SOL    HW2 5758   3.528   2.841   1.920
 1917SOL     OW 5759   2.169   1.925   0.618
 1917SOL    HW1 5760   2.158   2.019   0.651
 1917SOL    HW2 5761   2.164   1.862   0.695
 1918SOL     OW 5762   3.484   2.229   0.374
 1918SOL    HW1 5763   3.486   2.153   0.438
 1918SOL    HW2 5764   3.436   2.306   0.414
 1919SOL     OW 5765   2.885   2.628   0.966
 1919SOL    HW1 5766   2.900   2.649   1.062
 1919SOL    HW2 5767   2.855   2.533   0.957
 1920SOL     OW 5768   2.842   3.435   1.700
 1920SOL    HW1 5769   2.822   3.479   1.612
 1920SOL    HW2 5770   2.881   3.344   1.684
 1921SOL     OW 5771   3.721   3.380   1.605
 1921SOL    HW1 5772   3.735   3.407   1.510
 1921SOL    HW2 5773   3.804   3.402   1.658
 1922SOL     OW 5774   2.212   2.760   1.804
 1922SOL    HW1 5775   2.288   2.804   1.852
 1922SOL    HW2 5776   2.247   2.713   1.722
 1923SOL     OW 5777   3.402   2.136   0.125
 1923SOL    HW1 5778   3.341   2.061   0.148
 1923SOL    HW2 5779   3.424   2.188   0.208
 1924SOL     OW 5780   3.165   2.700   0.042
 1924SOL    HW1 5781   3.199   2.607   0.057
 1924SOL    HW2 5782   3.183   2.727  -0.053
 1925SOL     OW 5783   2.930   3.195   0.849
 1925SOL    HW1 5784   2.937   3.111   0.794
 1925SOL    HW2 5785   2.992   3.264   0.813
 1926SOL     OW 5786   2.181   2.672   0.949
 1926SOL    HW1 5787   2.274   2.708   0.954
 1926SOL    HW2 5788   2.175   2.587   1.001
 1927SOL     OW 5789   2.201   2.371   1.006
 1927SOL    HW1 5790   2.149   2.288   0.989
 1927SOL    HW2 5791   2.278   2.376   0.942
 1928SOL     OW 5792   3.000   2.242   1.678
 1928SOL    HW1 5793   2.955   2.305   1.742
 1928SOL    HW2 5794   3.093   2.273   1.661
 1929SOL     OW 5795   3.022   2.069   1.477
 1929SOL    HW1 5796   3.022   2.133   1.554
 1929SOL    HW2 5797   3.050   2.117   1.394
 1930SOL     OW 5798   1.870   3.188   0.200
 1930SOL    HW1 5799   1.777   3.209   0.169
 1930SOL    HW2 5800   1.880   3.089   0.213
 1931SOL     OW 5801   1.950   3.663   0.927
 1931SOL    HW1 5802   1.908   3.577   0.900
 1931SOL    HW2 5803   2.044   3.666   0.893
 1932SOL     OW 5804   2.366   3.430   0.910
 1932SOL    HW1 5805   2.432   3.504   0.919
 1932SOL    HW2 5806   2.410   3.351   0.868
 1933SOL     OW 5807   2.864   2.658   1.238
 1933SOL    HW1 5808   2.905   2.626   1.324
 1933SOL    HW2 5809   2.768   2.631   1.235
 1934SOL     OW 5810   1.902   2.406   1.114
 1934SOL    HW1 5811   1.987   2.373   1.073
 1934SOL    HW2 5812   1.915   2.421   1.212
 1935SOL     OW 5813   2.051   2.382   1.722
 1935SOL    HW1 5814   2.110   2.342   1.652
 1935SOL    HW2 5815   1.993   2.453   1.681
 1936SOL     OW 5816   3.231   2.812   1.660
 1936SOL    HW1 5817   3.270   2.901   1.680
 1936SOL    HW2 5818   3.241   2.792   1.563
 1937SOL     OW 5819   2.677   2.434   0.325
 1937SOL    HW1 5820   2.684   2.345   0.279
 1937SOL    HW2 5821   2.583   2.468   0.317
 1938SOL     OW 5822   3.519   2.466   1.206
 1938SOL    HW1 5823   3.481   2.397   1.268
 1938SOL    HW2 5824   3.601   2.430   1.162
 1939SOL     OW 5825   2.114   3.426   1.744
 1939SOL    HW1 5826   2.084   3.483   1.820
 1939SOL    HW2 5827   2.107   3.329   1.770
 1940SOL     OW 5828   2.533   2.326   1.269
 1940SOL    HW1 5829   2.499   2.237   1.239
 1940SOL    HW2 5830   2.559   2.380   1.189
 1941SOL     OW 5831   2.792   3.540   1.465
 1941SOL    HW1 5832   2.768   3.522   1.370
 1941SOL    HW2 5833   2.822   3.634   1.475
 1942SOL     OW 5834   2.335   2.362   0.191
 1942SOL    HW1 5835   2.396   2.442   0.195
 1942SOL    HW2 5836   2.240   2.393   0.198
 1943SOL     OW 5837   2.021   2.999   1.466
 1943SOL    HW1 5838   2.043   2.938   1.542
 1943SOL    HW2 5839   2.031   2.950   1.380
 1944SOL     OW 5840   3.209   2.921   1.234
 1944SOL    HW1 5841   3.233   2.858   1.160
 1944SOL    HW2 5842   3.119   2.961   1.216
 1945SOL     OW 5843   3.164   2.717   0.309
 1945SOL    HW1 5844   3.078   2.686   0.351
 1945SOL    HW2 5845   3.160   2.703   0.210
 1946SOL     OW 5846   3.621   3.609   1.154
 1946SOL    HW1 5847   3.682   3.639   1.081
 1946SOL    HW2 5848   3.583   3.520   1.132
 1947SOL     OW 5849   3.114   3.593   1.128
 1947SOL    HW1 5850   3.198   3.598   1.074
 1947SOL    HW2 5851   3.091   3.497   1.146
 1948SOL     OW 5852   1.945   3.120   1.022
 1948SOL    HW1 5853   1.940   3.119   1.122
 1948SOL    HW2 5854   1.862   3.079   0.984
 1949SOL     OW 5855   2.550   3.524   1.716
 1949SOL    HW1 5856   2.494   3.605   1.725
 1949SOL    HW2 5857   2.602   3.528   1.630
 1950SOL     OW 5858   2.765   1.948   0.133
 1950SOL    HW1 5859   2.816   1.949   0.047
 1950SOL    HW2 5860   2.821   1.906   0.204
 1951SOL     OW 5861   3.588   1.997   0.523
 1951SOL    HW1 5862   3.661   1.980   0.456
 1951SOL    HW2 5863   3.557   1.910   0.561
 1952SOL     OW 5864   3.250   3.435   0.477
 1952SOL    HW1 5865   3.317   3.447   0.403
 1952SOL    HW2 5866   3.210   3.524   0.500
 1953SOL     OW 5867   1.992   3.656   1.851
 1953SOL    HW1 5868   1.951   3.582   1.904
 1953SOL    HW2 5869   2.056   3.707   1.909
 1954SOL     OW 5870   3.142   2.789   0.672
 1954SOL    HW1 5871   3.202   2.708   0.674
 1954SOL    HW2 5872   3.182   2.858   0.612
 1955SOL     OW 5873   2.692   3.135   1.422
 1955SOL    HW1 5874   2.687   3.168   1.517
 1955SOL    HW2 5875   2.606   3.154   1.376
 1956SOL     OW 5876   2.534   3.478   0.154
 1956SOL    HW1 5877   2.543   3.488   0.055
 1956SOL    HW2 5878   2.494   3.389   0.175
 1957SOL     OW 5879   3.512   3.582   1.394
 1957SOL    HW1 5880   3.565   3.592   1.310
 1957SOL    HW2 5881   3.485   3.672   1.428
 1958SOL     OW 5882   3.703   2.037   0.963
 1958SOL    HW1 5883   3.742   1.952   0.927
 1958SOL    HW2 5884   3.605   2.039   0.944
 1959SOL     OW 5885   2.125   2.188   0.720
 1959SOL    HW1 5886   2.046   2.239   0.686
 1959SOL    HW2 5887   2.116   2.173   0.818
 1960SOL     OW 5888   3.056   3.474   0.031
 1960SOL    HW1 5889   3.062   3.381   0.068
 1960SOL    HW2 5890   2.997   3.474  -0.049
 1961SOL     OW 5891   2.684   2.864   1.372
 1961SOL    HW1 5892   2.724   2.863   1.280
 1961SOL    HW2 5893   2.694   2.956   1.412
 1962SOL     OW 5894   2.778   2.772   0.291
 1962SOL    HW1 5895   2.841   2.810   0.223
 1962SOL    HW2 5896   2.818   2.689   0.330
 1963SOL     OW 5897   3.366   3.469   0.044
 1963SOL    HW1 5898   3.274   3.506   0.051
 1963SOL    HW2 5899   3.404   3.489  -0.046
 1964SOL     OW 5900   2.234   3.150   1.490
 1964SOL    HW1 5901   2.221   3.243   1.456
 1964SOL    HW2 5902   2.150   3.098   1.477
 1965SOL     OW 5903   3.476   3.154   1.289
 1965SOL    HW1 5904   3.536   3.157   1.369
 1965SOL    HW2 5905   3.401   3.218   1.302
 1966SOL     OW 5906   2.901   2.960   0.696
 1966SOL    HW1 5907   2.831   2.913   0.750
 1966SOL    HW2 5908   2.960   2.892   0.653
 1967SOL     OW 5909   2.876   2.098   0.971
 1967SOL    HW1 5910   2.868   2.062   0.878
 1967SOL    HW2 5911   2.874   2.022   1.036
 1968SOL     OW 5912   2.452   3.349   0.491
 1968SOL    HW1 5913   2.494   3.291   0.421
 1968SOL    HW2 5914   2.408   3.428   0.447
 1969SOL     OW 5915   3.571   2.247   1.381
 1969SOL    HW1 5916   3.644   2.316   1.385
 1969SOL    HW2 5917   3.599   2.172   1.322
 1970SOL     OW 5918   2.117   3.210   0.290
 1970SOL    HW1 5919   2.021   3.211   0.263
 1970SOL    HW2 5920   2.129   3.263   0.374
 1971SOL     OW 5921   1.967   2.875   1.726
 1971SOL    HW1 5922   1.890   2.842   1.780
 1971SOL    HW2 5923   2.052   2.845   1.768
 1972SOL     OW 5924   2.534   2.065   1.489
 1972SOL    HW1 5925   2.624   2.049   1.449
 1972SOL    HW2 5926   2.542   2.070   1.588
 1973SOL     OW 5927   1.937   2.207   0.033
 1973SOL    HW1 5928   1.845   2.179   0.004
 1973SOL    HW2 5929   1.968   2.284  -0.023
 1974SOL     OW 5930   3.302   2.718   1.398
 1974SOL    HW1 5931   3.245   2.770   1.335
 1974SOL    HW2 5932   3.398   2.730   1.374
 1975SOL     OW 5933   1.934   2.028   0.318
 1975SOL    HW1 5934   1.917   2.111   0.264
 1975SOL    HW2 5935   2.024   1.991   0.296
 1976SOL     OW 5936   3.045   3.197   0.119
 1976SOL    HW1 5937   2.946   3.186   0.121
 1976SOL    HW2 5938   3.079   3.212   0.212
 1977SOL     OW 5939   2.475   2.704   1.431
 1977SOL    HW1 5940   2.531   2.785   1.414
 1977SOL    HW2 5941   2.534   2.624   1.434
 1978SOL     OW 5942   3.355   3.629   0.959
 1978SOL    HW1 5943   3.388   3.693   0.890
 1978SOL    HW2 5944   3.421   3.623   1.034
 1979SOL     OW 5945   2.578   2.427   1.708
 1979SOL    HW1 5946   2.597   2.492   1.782
 1979SOL    HW2 5947   2.638   2.347   1.717
 1980SOL     OW 5948   3.312   3.082   1.633
 1980SOL    HW1 5949   3.303   3.072   1.732
 1980SOL    HW2 5950   3.408   3.075   1.607
 1981SOL     OW 5951   2.252   3.603   1.560
 1981SOL    HW1 5952   2.161   3.644   1.558
 1981SOL    HW2 5953   2.245   3.509   1.592
 1982SOL     OW 5954   3.536   2.745   1.254
 1982SOL    HW1 5955   3.509   2.656   1.217
 1982SOL    HW2 5956   3.537   2.813   1.181
 1983SOL     OW 5957   3.087   2.187   0.449
 1983SOL    HW1 5958   3.152   2.113   0.438
 1983SOL    HW2 5959   3.107   2.237   0.533
 1984SOL     OW 5960   2.456   2.607   0.652
 1984SOL    HW1 5961   2.506   2.692   0.633
 1984SOL    HW2 5962   2.368   2.609   0.604
 1985SOL     OW 5963   3.639   2.204   1.642
 1985SOL    HW1 5964   3.622   2.235   1.548
 1985SOL    HW2 5965   3.555   2.167   1.680
 1986SOL     OW 5966   3.592   2.796   1.517
 1986SOL    HW1 5967   3.630   2.887   1.532
 1986SOL    HW2 5968   3.584   2.779   1.418
 1987SOL     OW 5969   2.721   3.236   0.016
 1987SOL    HW1 5970   2.675   3.251   0.104
 1987SOL    HW2 5971   2.765   3.321  -0.014
 1988SOL     OW 5972   2.523   3.652   0.953
 1988SOL    HW1 5973   2.477   3.740   0.940
 1988SOL    HW2 5974   2.622   3.664   0.946
 1989SOL     OW 5975   2.721   2.818   0.861
 1989SOL    HW1 5976   2.775   2.749   0.909
 1989SOL    HW2 5977   2.689   2.887   0.927
 1990SOL     OW 5978   2.945   2.846   0.087
 1990SOL    HW1 5979   2.922   2.899   0.005
 1990SOL    HW2 5980   3.026   2.790   0.068
 1991SOL     OW 5981   3.723   3.431   0.851
 1991SOL    HW1 5982   3.652   3.419   0.781
 1991SOL    HW2 5983   3.724   3.352   0.911
 1992SOL     OW 5984   2.083   3.176   1.844
 1992SOL    HW1 5985   2.018   3.103   1.823
 1992SOL    HW2 5986   2.087   3.190   1.942
 1993SOL     OW 5987   1.941   3.102   0.653
 1993SOL    HW1 5988   1.940   3.055   0.741
 1993SOL    HW2 5989   2.023   3.074   0.602
 1994SOL     OW 5990   2.534   3.253   1.624
 1994SOL    HW1 5991   2.456   3.203   1.662
 1994SOL    HW2 5992   2.531   3.348   1.655
 1995SOL     OW 5993   3.686   2.054   1.227
 1995SOL    HW1 5994   3.682   1.964   1.271
 1995SOL    HW2 5995   3.689   2.043   1.128
 1996SOL     OW 5996   2.290   2.286   0.520
 1996SOL    HW1 5997   2.320   2.214   0.458
 1996SOL    HW2 5998   2.251   2.246   0.603
 1997SOL     OW 5999   3.567   3.349   1.104
 1997SOL    HW1 6000   3.474   3.324   1.077
 1997SOL    HW2 6001   3.593   3.299   1.186
 1998SOL     OW 6002   2.179   2.409   1.280
 1998SOL    HW1 6003   2.217   2.350   1.352
 1998SOL    HW2 6004   2.219   2.383   1.192
 1999SOL     OW 6005   2.674   3.448   0.687
 1999SOL    HW1 6006   2.706   3.458   0.593
 1999SOL    HW2 6007   2.595   3.386   0.689
 2000SOL     OW 6008   3.286   2.076   1.112
 2000SOL    HW1 6009   3.338   2.011   1.167
 2000SOL    HW2 6010   3.237   2.139   1.173
 2001SOL     OW 6011   2.863   1.896   1.154
 2001SOL    HW1 6012   2.800   1.824   1.123
 2001SOL    HW2 6013   2.956   1.860   1.154
 2002SOL     OW 6014   2.632   3.192   0.301
 2002SOL    HW1 6015   2.586   3.105   0.318
 2002SOL    HW2 6016   2.723   3.189   0.342
 2003SOL     OW 6017   2.480   3.429   1.284
 2003SOL    HW1 6018   2.475   3.511   1.341
 2003SOL    HW2 6019   2.569   3.426   1.239
 2004SOL     OW 6020   3.214   1.914   0.168
 2004SOL    HW1 6021   3.249   1.873   0.084
 2004SOL    HW2 6022   3.124   1.876   0.188
 2005SOL     OW 6023   3.162   2.315   0.691
 2005SOL    HW1 6024   3.103   2.395   0.695
 2005SOL    HW2 6025   3.177   2.280   0.784
 2006SOL     OW 6026   3.455   2.083   0.882
 2006SOL    HW1 6027   3.371   2.082   0.936
 2006SOL    HW2 6028   3.457   2.166   0.826
 2007SOL     OW 6029   1.901   2.939   0.300
 2007SOL    HW1 6030   2.000   2.928   0.291
 2007SOL    HW2 6031   1.861   2.853   0.332
 2008SOL     OW 6032   2.737   3.508   0.337
 2008SOL    HW1 6033   2.660   3.473   0.283
 2008SOL    HW2 6034   2.705   3.579   0.399
 2009SOL     OW 6035   2.092   2.490   1.975
 2009SOL    HW1 6036   1.999   2.488   2.012
 2009SOL    HW2 6037   2.093   2.451   1.883
 2010SOL     OW 6038   2.087   2.137   2.858
 2010SOL    HW1 6039   2.122   2.120   2.950
 2010SOL    HW2 6040   1.999   2.092   2.846
 2011SOL     OW 6041   1.881   2.230   2.509
 2011SOL    HW1 6042   1.799   2.273   2.548
 2011SOL    HW2 6043   1.853   2.157   2.446
 2012SOL     OW 6044   2.431   3.137   3.027
 2012SOL    HW1 6045   2.338   3.130   2.990
 2012SOL    HW2 6046   2.442   3.226   3.071
 2013SOL     OW 6047   3.417   3.373   2.565
 2013SOL    HW1 6048   3.360   3.357   2.646
 2013SOL    HW2 6049   3.358   3.383   2.485
 2014SOL     OW 6050   2.997   2.565   2.579
 2014SOL    HW1 6051   3.054   2.643   2.554
 2014SOL    HW2 6052   2.937   2.591   2.655
 2015SOL     OW 6053   3.617   2.469   2.093
 2015SOL    HW1 6054   3.605   2.456   1.994
 2015SOL    HW2 6055   3.587   2.388   2.142
 2016SOL     OW 6056   2.630   3.006   2.885
 2016SOL    HW1 6057   2.552   3.023   2.945
 2016SOL    HW2 6058   2.664   3.093   2.849
 2017SOL     OW 6059   2.712   2.660   3.685
 2017SOL    HW1 6060   2.708   2.736   3.750
 2017SOL    HW2 6061   2.734   2.696   3.594
 2018SOL     OW 6062   2.547   2.874   2.527
 2018SOL    HW1 6063   2.616   2.858   2.597
 2018SOL    HW2 6064   2.474   2.931   2.565
 2019SOL     OW 6065   2.548   3.023   3.665
 2019SOL    HW1 6066   2.608   3.102   3.679
 2019SOL    HW2 6067   2.462   3.054   3.624
 2020SOL     OW 6068   2.197   3.297   2.923
 2020SOL    HW1 6069   2.119   3.266   2.870
 2020SOL    HW2 6070   2.255   3.355   2.866
 2021SOL     OW 6071   3.322   3.367   3.201
 2021SOL    HW1 6072   3.346   3.461   3.227
 2021SOL    HW2 6073   3.306   3.313   3.283
 2022SOL     OW 6074   2.300   2.254   3.361
 2022SOL    HW1 6075   2.382   2.198   3.370
 2022SOL    HW2 6076   2.219   2.196   3.365
 2023SOL     OW 6077   3.465   2.309   2.599
 2023SOL    HW1 6078   3.391   2.355   2.549
 2023SOL    HW2 6079   3.516   2.377   2.652
 2024SOL     OW 6080   2.093   3.575   2.345
 2024SOL    HW1 6081   2.127   3.652   2.399
 2024SOL    HW2 6082   2.137   3.575   2.255
 2025SOL     OW 6083   2.989   3.203   3.552
 2025SOL    HW1 6084   3.036   3.203   3.640
 2025SOL    HW2 6085   2.941   3.116   3.541
 2026SOL     OW 6086   2.092   3.296   2.400
 2026SOL    HW1 6087   2.066   3.392   2.400
 2026SOL    HW2 6088   2.021   3.242   2.445
 2027SOL     OW 6089   2.102   2.953   2.748
 2027SOL    HW1 6090   2.116   2.869   2.800
 2027SOL    HW2 6091   2.047   3.017   2.803
 2028SOL     OW 6092   2.482   3.648   3.301
 2028SOL    HW1 6093   2.390   3.631   3.336
 2028SOL    HW2 6094   2.510   3.740   3.327
 2029SOL     OW 6095   2.468   2.826   1.985
 2029SOL    HW1 6096   2.475   2.910   1.931
 2029SOL    HW2 6097   2.514   2.839   2.073
 2030SOL     OW 6098   3.456   1.976   3.342
 2030SOL    HW1 6099   3.438   2.043   3.270
 2030SOL    HW2 6100   3.453   2.022   3.431
 2031SOL     OW 6101   3.704   3.629   2.221
 2031SOL    HW1 6102   3.758   3.600   2.301
 2031SOL    HW2 6103   3.734   3.719   2.192
 2032SOL     OW 6104   1.889   3.458   1.979
 2032SOL    HW1 6105   1.870   3.362   2.000
 2032SOL    HW2 6106   1.856   3.516   2.054
 2033SOL     OW 6107   3.551   2.784   2.474
 2033SOL    HW1 6108   3.646   2.755   2.482
 2033SOL    HW2 6109   3.543   2.849   2.399
 2034SOL     OW 6110   3.503   2.970   2.294
 2034SOL    HW1 6111   3.589   2.972   2.242
 2034SOL    HW2 6112   3.517   3.017   2.382
 2035SOL     OW 6113   1.975   2.599   3.459
 2035SOL    HW1 6114   2.063   2.586   3.504
 2035SOL    HW2 6115   1.962   2.696   3.437
 2036SOL     OW 6116   2.475   3.227   2.588
 2036SOL    HW1 6117   2.426   3.140   2.597
 2036SOL    HW2 6118   2.452   3.270   2.501
 2037SOL     OW 6119   3.155   3.090   3.285
 2037SOL    HW1 6120   3.192   3.017   3.227
 2037SOL    HW2 6121   3.207   3.095   3.370
 2038SOL     OW 6122   2.671   1.866   2.364
 2038SOL    HW1 6123   2.711   1.957   2.355
 2038SOL    HW2 6124   2.571   1.874   2.370
 2039SOL     OW 6125   2.059   2.838   3.126
 2039SOL    HW1 6126   2.148   2.793   3.112
 2039SOL    HW2 6127   1.986   2.773   3.107
 2040SOL     OW 6128   3.387   2.861   2.052
 2040SOL    HW1 6129   3.324   2.785   2.065
 2040SOL    HW2 6130   3.435   2.879   2.138
 2041SOL     OW 6131   3.049   3.654   3.478
 2041SOL    HW1 6132   3.073   3.714   3.402
 2041SOL    HW2 6133   3.056   3.559   3.448
 2042SOL     OW 6134   2.179   2.113   3.663
 2042SOL    HW1 6135   2.250   2.184   3.669
 2042SOL    HW2 6136   2.091   2.152   3.691
 2043SOL     OW 6137   3.328   3.279   2.815
 2043SOL    HW1 6138   3.269   3.285   2.895
 2043SOL    HW2 6139   3.313   3.191   2.769
 2044SOL     OW 6140   3.529   3.576   2.434
 2044SOL    HW1 6141   3.488   3.553   2.346
 2044SOL    HW2 6142   3.511   3.502   2.499
 2045SOL     OW 6143   2.460   2.591   2.132
 2045SOL    HW1 6144   2.484   2.660   2.064
 2045SOL    HW2 6145   2.382   2.624   2.186
 2046SOL     OW 6146   3.143   2.207   2.806
 2046SOL    HW1 6147   3.057   2.157   2.793
 2046SOL    HW2 6148   3.205   2.153   2.862
 2047SOL     OW 6149   3.438   3.524   2.169
 2047SOL    HW1 6150   3.527   3.570   2.172
 2047SOL    HW2 6151   3.417   3.500   2.074
 2048SOL     OW 6152   2.669   2.467   3.327
 2048SOL    HW1 6153   2.622   2.464   3.416
 2048SOL    HW2 6154   2.618   2.412   3.261
 2049SOL     OW 6155   3.256   2.331   3.536
 2049SOL    HW1 6156   3.236   2.374   3.624
 2049SOL    HW2 6157   3.334   2.269   3.545
 2050SOL     OW 6158   2.835   2.752   3.434
 2050SOL    HW1 6159   2.881   2.668   3.405
 2050SOL    HW2 6160   2.779   2.786   3.359
 2051SOL     OW 6161   2.853   2.272   3.104
 2051SOL    HW1 6162   2.776   2.306   3.158
 2051SOL    HW2 6163   2.819   2.221   3.025
 2052SOL     OW 6164   2.903   2.563   2.291
 2052SOL    HW1 6165   2.929   2.559   2.387
 2052SOL    HW2 6166   2.818   2.512   2.277
 2053SOL     OW 6167   1.938   2.673   2.651
 2053SOL    HW1 6168   2.037   2.661   2.660
 2053SOL    HW2 6169   1.914   2.768   2.672
 2054SOL     OW 6170   1.992   3.683   3.433
 2054SOL    HW1 6171   1.982   3.668   3.532
 2054SOL    HW2 6172   1.906   3.719   3.397
 2055SOL     OW 6173   2.727   2.210   2.057
 2055SOL    HW1 6174   2.786   2.273   2.008
 2055SOL    HW2 6175   2.746   2.116   2.028
 2056SOL     OW 6176   3.581   2.447   3.693
 2056SOL    HW1 6177   3.555   2.536   3.657
 2056SOL    HW2 6178   3.579   2.379   3.620
 2057SOL     OW 6179   3.224   3.006   2.407
 2057SOL    HW1 6180   3.307   2.977   2.359
 2057SOL    HW2 6181   3.175   3.073   2.351
 2058SOL     OW 6182   2.412   2.058   2.747
 2058SOL    HW1 6183   2.407   2.053   2.847
 2058SOL    HW2 6184   2.414   2.154   2.718
 2059SOL     OW 6185   2.870   3.318   2.339
 2059SOL    HW1 6186   2.824   3.390   2.287
 2059SOL    HW2 6187   2.866   3.338   2.437
 2060SOL     OW 6188   2.213   3.663   2.715
 2060SOL    HW1 6189   2.263   3.577   2.721
 2060SOL    HW2 6190   2.278   3.740   2.712
 2061SOL     OW 6191   3.657   2.928   2.735
 2061SOL    HW1 6192   3.595   2.913   2.659
 2061SOL    HW2 6193   3.605   2.939   2.820
 2062SOL     OW 6194   3.089   3.412   3.368
 2062SOL    HW1 6195   3.095   3.335   3.432
 2062SOL    HW2 6196   3.037   3.386   3.288
 2063SOL     OW 6197   2.183   2.805   2.104
 2063SOL    HW1 6198   2.265   2.844   2.062
 2063SOL    HW2 6199   2.156   2.723   2.055
 2064SOL     OW 6200   3.320   2.597   2.590
 2064SOL    HW1 6201   3.315   2.532   2.665
 2064SOL    HW2 6202   3.400   2.656   2.603
 2065SOL     OW 6203   2.323   3.128   3.589
 2065SOL    HW1 6204   2.273   3.129   3.503
 2065SOL    HW2 6205   2.260   3.110   3.665
 2066SOL     OW 6206   2.973   3.638   2.099
 2066SOL    HW1 6207   2.913   3.576   2.149
 2066SOL    HW2 6208   3.004   3.594   2.014
 2067SOL     OW 6209   2.064   2.147   3.360
 2067SOL    HW1 6210   1.984   2.207   3.347
 2067SOL    HW2 6211   2.054   2.098   3.446
 2068SOL     OW 6212   3.494   3.239   1.943
 2068SOL    HW1 6213   3.462   3.333   1.933
 2068SOL    HW2 6214   3.418   3.176   1.931
 2069SOL     OW 6215   2.326   3.605   2.185
 2069SOL    HW1 6216   2.359   3.644   2.271
 2069SOL    HW2 6217   2.402   3.598   2.120
 2070SOL     OW 6218   3.262   1.969   2.288
 2070SOL    HW1 6219   3.238   1.932   2.198
 2070SOL    HW2 6220   3.361   1.985   2.292
 2071SOL     OW 6221   2.111   3.647   3.103
 2071SOL    HW1 6222   2.168   3.582   3.153
 2071SOL    HW2 6223   2.095   3.614   3.010
 2072SOL     OW 6224   2.802   3.560   2.766
 2072SOL    HW1 6225   2.882   3.503   2.787
 2072SOL    HW2 6226   2.753   3.520   2.689
 2073SOL     OW 6227   2.244   2.562   2.342
 2073SOL    HW1 6228   2.289   2.472   2.339
 2073SOL    HW2 6229   2.150   2.551   2.375
 2074SOL     OW 6230   3.409   2.084   3.591
 2074SOL    HW1 6231   3.404   2.121   3.683
 2074SOL    HW2 6232   3.337   2.015   3.579
 2075SOL     OW 6233   2.476   1.984   1.979
 2075SOL    HW1 6234   2.574   1.962   1.986
 2075SOL    HW2 6235   2.445   1.967   1.886
 2076SOL     OW 6236   2.643   2.126   3.611
 2076SOL    HW1 6237   2.710   2.065   3.654
 2076SOL    HW2 6238   2.570   2.145   3.676
 2077SOL     OW 6239   2.750   3.376   3.057
 2077SOL    HW1 6240   2.727   3.351   2.963
 2077SOL    HW2 6241   2.811   3.307   3.096
 2078SOL     OW 6242   3.213   2.452   3.295
 2078SOL    HW1 6243   3.241   2.409   3.380
 2078SOL    HW2 6244   3.238   2.548   3.296
 2079SOL     OW 6245   2.665   3.264   2.786
 2079SOL    HW1 6246   2.755   3.278   2.744
 2079SOL    HW2 6247   2.594   3.266   2.715
 2080SOL     OW 6248   2.784   2.365   2.761
 2080SOL    HW1 6249   2.759   2.356   2.665
 2080SOL    HW2 6250   2.832   2.283   2.792
 2081SOL     OW 6251   2.401   1.926   2.374
 2081SOL    HW1 6252   2.320   1.927   2.432
 2081SOL    HW2 6253   2.404   2.009   2.319
 2082SOL     OW 6254   3.296   3.050   1.903
 2082SOL    HW1 6255   3.328   2.974   1.960
 2082SOL    HW2 6256   3.204   3.077   1.933
 2083SOL     OW 6257   2.159   1.897   2.033
 2083SOL    HW1 6258   2.208   1.981   2.012
 2083SOL    HW2 6259   2.221   1.832   2.078
 2084SOL     OW 6260   2.797   2.098   2.342
 2084SOL    HW1 6261   2.749   2.139   2.264
 2084SOL    HW2 6262   2.896   2.096   2.323
 2085SOL     OW 6263   2.938   2.545   3.326
 2085SOL    HW1 6264   2.858   2.484   3.329
 2085SOL    HW2 6265   3.019   2.492   3.302
 2086SOL     OW 6266   3.089   3.432   2.655
 2086SOL    HW1 6267   3.110   3.506   2.590
 2086SOL    HW2 6268   3.157   3.432   2.728
 2087SOL     OW 6269   2.321   3.014   2.603
 2087SOL    HW1 6270   2.250   2.987   2.668
 2087SOL    HW2 6271   2.295   2.986   2.510
 2088SOL     OW 6272   3.133   3.659   2.453
 2088SOL    HW1 6273   3.177   3.723   2.389
 2088SOL    HW2 6274   3.083   3.711   2.523
 2089SOL     OW 6275   2.894   2.411   1.878
 2089SOL    HW1 6276   2.853   2.493   1.839
 2089SOL    HW2 6277   2.958   2.437   1.951
 2090SOL     OW 6278   1.940   2.418   3.248
 2090SOL    HW1 6279   2.032   2.417   3.207
 2090SOL    HW2 6280   1.934   2.492   3.315
 2091SOL     OW 6281   2.423   2.084   3.009
 2091SOL    HW1 6282   2.461   2.000   3.046
 2091SOL    HW2 6283   2.335   2.103   3.053
 2092SOL     OW 6284   2.728   2.316   2.504
 2092SOL    HW1 6285   2.696   2.388   2.442
 2092SOL    HW2 6286   2.752   2.235   2.451
 2093SOL     OW 6287   2.879   1.901   2.615
 2093SOL    HW1 6288   2.807   1.906   2.546
 2093SOL    HW2 6289   2.855   1.832   2.684
 2094SOL     OW 6290   3.291   3.035   2.729
 2094SOL    HW1 6291   3.236   2.951   2.722
 2094SOL    HW2 6292   3.317   3.064   2.637
 2095SOL     OW 6293   3.328   2.452   2.854
 2095SOL    HW1 6294   3.298   2.357   2.861
 2095SOL    HW2 6295   3.401   2.468   2.920
 2096SOL     OW 6296   3.719   2.695   2.239
 2096SOL    HW1 6297   3.761   2.631   2.303
 2096SOL    HW2 6298   3.681   2.644   2.161
 2097SOL     OW 6299   2.350   3.247   2.036
 2097SOL    HW1 6300   2.263   3.232   2.083
 2097SOL    HW2 6301   2.333   3.273   1.941
 2098SOL     OW 6302   3.526   3.142   2.519
 2098SOL    HW1 6303   3.625   3.150   2.533
 2098SOL    HW2 6304   3.481   3.226   2.550
 2099SOL     OW 6305   3.252   2.437   1.940
 2099SOL    HW1 6306   3.198   2.416   2.021
 2099SOL    HW2 6307   3.343   2.396   1.949
 2100SOL     OW 6308   3.616   3.085   3.450
 2100SOL    HW1 6309   3.707   3.046   3.437
 2100SOL    HW2 6310   3.624   3.181   3.474
 2101SOL     OW 6311   2.926   3.209   3.202
 2101SOL    HW1 6312   2.846   3.186   3.257
 2101SOL    HW2 6313   3.009   3.183   3.251
 2102SOL     OW 6314   3.454   3.491   3.487
 2102SOL    HW1 6315   3.481   3.525   3.397
 2102SOL    HW2 6316   3.533   3.453   3.533
 2103SOL     OW 6317   2.973   3.057   2.962
 2103SOL    HW1 6318   2.933   3.101   3.043
 2103SOL    HW2 6319   2.932   3.094   2.879
 2104SOL     OW 6320   3.500   2.961   2.941
 2104SOL    HW1 6321   3.505   3.042   3.000
 2104SOL    HW2 6322   3.414   2.963   2.890
 2105SOL     OW 6323   2.777   1.951   3.264
 2105SOL    HW1 6324   2.802   1.931   3.169
 2105SOL    HW2 6325   2.849   2.007   3.306
 2106SOL     OW 6326   2.842   2.978   3.581
 2106SOL    HW1 6327   2.743   2.984   3.591
 2106SOL    HW2 6328   2.865   2.898   3.525
 2107SOL     OW 6329   2.567   2.912   2.230
 2107SOL    HW1 6330   2.553   2.919   2.329
 2107SOL    HW2 6331   2.651   2.861   2.212
 2108SOL     OW 6332   2.272   2.675   3.113
 2108SOL    HW1 6333   2.358   2.687   3.163
 2108SOL    HW2 6334   2.230   2.588   3.140
 2109SOL     OW 6335   3.136   2.248   3.124
 2109SOL    HW1 6336   3.157   2.322   3.188
 2109SOL    HW2 6337   3.047   2.265   3.081
 2110SOL     OW 6338   1.926   3.426   3.193
 2110SOL    HW1 6339   1.880   3.508   3.159
 2110SOL    HW2 6340   2.024   3.445   3.202
 2111SOL     OW 6341   2.229   2.962   2.363
 2111SOL    HW1 6342   2.222   3.045   2.307
 2111SOL    HW2 6343   2.233   2.882   2.303
 2112SOL     OW 6344   2.428   2.399   2.727
 2112SOL    HW1 6345   2.440   2.465   2.653
 2112SOL    HW2 6346   2.474   2.433   2.810
 2113SOL     OW 6347   3.114   3.210   2.250
 2113SOL    HW1 6348   3.164   3.287   2.290
 2113SOL    HW2 6349   3.019   3.212   2.282
 2114SOL     OW 6350   3.134   3.307   3.004
 2114SOL    HW1 6351   3.181   3.320   3.091
 2114SOL    HW2 6352   3.068   3.233   3.013
 2115SOL     OW 6353   3.444   2.501   2.334
 2115SOL    HW1 6354   3.413   2.562   2.407
 2115SOL    HW2 6355   3.494   2.553   2.265
 2116SOL     OW 6356   2.216   3.372   3.191
 2116SOL    HW1 6357   2.195   3.328   3.104
 2116SOL    HW2 6358   2.313   3.398   3.194
 2117SOL     OW 6359   2.264   2.613   3.460
 2117SOL    HW1 6360   2.332   2.668   3.413
 2117SOL    HW2 6361   2.304   2.525   3.487
 2118SOL     OW 6362   3.449   2.641   3.532
 2118SOL    HW1 6363   3.357   2.679   3.527
 2118SOL    HW2 6364   3.509   2.688   3.467
 2119SOL     OW 6365   2.875   1.967   3.632
 2119SOL    HW1 6366   2.881   2.052   3.580
 2119SOL    HW2 6367   2.907   1.891   3.575
 2120SOL     OW 6368   2.366   1.912   3.602
 2120SOL    HW1 6369   2.324   1.855   3.532
 2120SOL    HW2 6370   2.300   1.981   3.634
 2121SOL     OW 6371   2.435   2.732   2.891
 2121SOL    HW1 6372   2.479   2.821   2.882
 2121SOL    HW2 6373   2.372   2.732   2.968
 2122SOL     OW 6374   3.222   2.724   2.907
 2122SOL    HW1 6375   3.147   2.724   2.841
 2122SOL    HW2 6376   3.259   2.632   2.916
 2123SOL     OW 6377   3.071   2.387   2.137
 2123SOL    HW1 6378   3.084   2.303   2.191
 2123SOL    HW2 6379   3.042   2.461   2.197
 2124SOL     OW 6380   2.169   2.075   3.093
 2124SOL    HW1 6381   2.146   2.112   3.183
 2124SOL    HW2 6382   2.139   1.980   3.087
 2125SOL     OW 6383   1.899   3.172   3.144
 2125SOL    HW1 6384   1.952   3.123   3.212
 2125SOL    HW2 6385   1.921   3.270   3.149
 2126SOL     OW 6386   2.594   2.496   2.926
 2126SOL    HW1 6387   2.653   2.470   2.850
 2126SOL    HW2 6388   2.566   2.592   2.915
 2127SOL     OW 6389   3.590   2.797   3.716
 2127SOL    HW1 6390   3.544   2.790   3.627
 2127SOL    HW2 6391   3.528   2.841   3.782
 2128SOL     OW 6392   2.169   1.925   2.480
 2128SOL    HW1 6393   2.158   2.019   2.513
 2128SOL    HW2 6394   2.164   1.862   2.557
 2129SOL     OW 6395   3.484   2.229   2.236
 2129SOL    HW1 6396   3.486   2.153   2.300
 2129SOL    HW2 6397   3.436   2.306   2.276
 2130SOL     OW 6398   2.885   2.628   2.828
 2130SOL    HW1 6399   2.900   2.649   2.924
 2130SOL    HW2 6400   2.855   2.533   2.819
 2131SOL     OW 6401   2.842   3.435   3.562
 2131SOL    HW1 6402   2.822   3.479   3.474
 2131SOL    HW2 6403   2.881   3.344   3.546
 2132SOL     OW 6404   3.721   3.380   3.467
 2132SOL    HW1 6405   3.735   3.407   3.372
 2132SOL    HW2 6406   3.804   3.402   3.520
 2133SOL     OW 6407   2.212   2.760   3.666
 2133SOL    HW1 6408   2.288   2.804   3.714
 2133SOL    HW2 6409   2.247   2.713   3.584
 2134SOL     OW 6410   3.402   2.136   1.987
 2134SOL    HW1 6411   3.341   2.061   2.010
 2134SOL    HW2 6412   3.424   2.188   2.070
 2135SOL     OW 6413   3.165   2.700   1.904
 2135SOL    HW1 6414   3.199   2.607   1.919
 2135SOL    HW2 6415   3.183   2.727   1.809
 2136SOL     OW 6416   2.930   3.195   2.711
 2136SOL    HW1 6417   2.937   3.111   2.656
 2136SOL    HW2 6418   2.992   3.264   2.675
 2137SOL     OW 6419   2.181   2.672   2.811
 2137SOL    HW1 6420   2.274   2.708   2.816
 2137SOL    HW2 6421   2.175   2.587   2.863
 2138SOL     OW 6422   2.201   2.371   2.868
 2138SOL    HW1 6423   2.149   2.288   2.851
 2138SOL    HW2 6424   2.278   2.376   2.804
 2139SOL     OW 6425   3.000   2.242   3.540
 2139SOL    HW1 6426   2.955   2.305   3.604
 2139SOL    HW2 6427   3.093   2.273   3.523
 2140SOL     OW 6428   3.022   2.069   3.339
 2140SOL    HW1 6429   3.022   2.133   3.416
 2140SOL    HW2 6430   3.050   2.117   3.256
 2141SOL     OW 6431   1.870   3.188   2.062
 2141SOL    HW1 6432   1.777   3.209   2.031
 2141SOL    HW2 6433   1.880   3.089   2.075
 2142SOL     OW 6434   1.950   3.663   2.789
 2142SOL    HW1 6435   1.908   3.577   2.762
 2142SOL    HW2 6436   2.044   3.666   2.755
 2143SOL     OW 6437   2.366   3.430   2.772
 2143SOL    HW1 6438   2.432   3.504   2.781
 2143SOL    HW2 6439   2.410   3.351   2.730
 2144SOL     OW 6440   2.864   2.658   3.100
 2144SOL    HW1 6441   2.905   2.626   3.186
 2144SOL    HW2 6442   2.768   2.631   3.097
 2145SOL     OW 6443   1.902   2.406   2.976
 2145SOL    HW1 6444   1.987   2.373   2.935
 2145SOL    HW2 6445   1.915   2.421   3.074
 2146SOL     OW 6446   2.051   2.382   3.584
 2146SOL    HW1 6447   2.110   2.342   3.514
 2146SOL    HW2 6448   1.993   2.453   3.543
 2147SOL     OW 6449   3.231   2.812   3.522
 2147SOL    HW1 6450   3.270   2.901   3.542
 2147SOL    HW2 6451   3.241   2.792   3.425
 2148SOL     OW 6452   2.677   2.434   2.187
 2148SOL    HW1 6453   2.684   2.345   2.141
 2148SOL    HW2 6454   2.583   2.468   2.179
 2149SOL     OW 6455   3.519   2.466   3.068
 2149SOL    HW1 6456   3.481   2.397   3.130
 2149SOL    HW2 6457   3.601   2.430   3.024
 2150SOL     OW 6458   2.114   3.426   3.606
 2150SOL    HW1 6459   2.084   3.483   3.682
 2150SOL    HW2 6460   2.107   3.329   3.632
 2151SOL     OW 6461   2.533   2.326   3.131
 2151SOL    HW1 6462   2.499   2.237   3.101
 2151SOL    HW2 6463   2.559   2.380   3.051
 2152SOL     OW 6464   2.792   3.540   3.327
 2152SOL    HW1 6465   2.768   3.522   3.232
 2152SOL    HW2 6466   2.822   3.634   3.337
 2153SOL     OW 6467   2.021   2.999   3.328
 2153SOL    HW1 6468   2.043   2.938   3.404
 2153SOL    HW2 6469   2.031   2.950   3.242
 2154SOL     OW 6470   3.209   2.921   3.096
 2154SOL    HW1 6471   3.233   2.858   3.022
 2154SOL    HW2 6472   3.119   2.961   3.078
 2155SOL     OW 6473   3.164   2.717   2.171
 2155SOL    HW1 6474   3.078   2.686   2.213
 2155SOL    HW2 6475   3.160   2.703   2.072
 2156SOL     OW 6476   3.621   3.609   3.016
 2156SOL    HW1 6477   3.682   3.639   2.943
 2156SOL    HW2 6478   3.583   3.520   2.994
 2157SOL     OW 6479   3.114   3.593   2.990
 2157SOL    HW1 6480   3.198   3.598   2.936
 2157SOL    HW2 6481   3.091   3.497   3.008
 2158SOL     OW 6482   1.945   3.120   2.884
 2158SOL    HW1 6483   1.940   3.119   2.984
 2158SOL    HW2 6484   1.862   3.079   2.846
 2159SOL     OW 6485   2.550   3.524   3.578
 2159SOL    HW1 6486   2.494   3.605   3.587
 2159SOL    HW2 6487   2.602   3.528   3.492
 2160SOL     OW 6488   3.588   1.997   2.385
 2160SOL    HW1 6489   3.661   1.980   2.318
 2160SOL    HW2 6490   3.557   1.910   2.423
 2161SOL     OW 6491   3.250   3.435   2.339
 2161SOL    HW1 6492   3.317   3.447   2.265
 2161SOL    HW2 6493   3.210   3.524   2.362
 2162SOL     OW 6494   1.992   3.656   3.713
 2162SOL    HW1 6495   1.951   3.582   3.766
 2162SOL    HW2 6496   2.056   3.707   3.771
 2163SOL     OW 6497   3.142   2.789   2.534
 2163SOL    HW1 6498   3.202   2.708   2.536
 2163SOL    HW2 6499   3.182   2.858   2.474
 2164SOL     OW 6500   2.692   3.135   3.284
 2164SOL    HW1 6501   2.687   3.168   3.379
 2164SOL    HW2 6502   2.606   3.154   3.238
 2165SOL     OW 6503   2.534   3.478   2.016
 2165SOL    HW1 6504   2.543   3.488   1.917
 2165SOL    HW2 6505   2.494   3.389   2.037
 2166SOL     OW 6506   3.512   3.582   3.256
 2166SOL    HW1 6507   3.565   3.592   3.172
 2166SOL    HW2 6508   3.485   3.672   3.290
 2167SOL     OW 6509   3.703   2.037   2.825
 2167SOL    HW1 6510   3.742   1.952   2.789
 2167SOL    HW2 6511   3.605   2.039   2.806
 2168SOL     OW 6512   2.125   2.188   2.582
 2168SOL    HW1 6513   2.046   2.239   2.548
 2168SOL    HW2 6514   2.116   2.173   2.680
 2169SOL     OW 6515   3.056   3.474   1.893
 2169SOL    HW1 6516   3.062   3.381   1.930
 2169SOL    HW2 6517   2.997   3.474   1.813
 2170SOL     OW 6518   2.684   2.864   3.234
 2170SOL    HW1 6519   2.724   2.863   3.142
 2170SOL    HW2 6520   2.694   2.956   3.274
 2171SOL     OW 6521   2.778   2.772   2.153
 2171SOL    HW1 6522   2.841   2.810   2.085
 2171SOL    HW2 6523   2.818   2.689   2.192
 2172SOL     OW 6524   3.366   3.469   1.906
 2172SOL    HW1 6525   3.274   3.506   1.913
 2172SOL    HW2 6526   3.404   3.489   1.816
 2173SOL     OW 6527   2.234   3.150   3.352
 2173SOL    HW1 6528   2.221   3.243   3.318
 2173SOL    HW2 6529   2.150   3.098   3.339
 2174SOL     OW 6530   3.476   3.154   3.151
 2174SOL    HW1 6531   3.536   3.157   3.231
 2174SOL    HW2 6532   3.401   3.218   3.164
 2175SOL     OW 6533   2.901   2.960   2.558
 2175SOL    HW1 6534   2.831   2.913   2.612
 2175SOL    HW2 6535   2.960   2.892   2.515
 2176SOL     OW 6536   2.876   2.098   2.833
 2176SOL    HW1 6537   2.868   2.062   2.740
 2176SOL    HW2 6538   2.874   2.022   2.898
 2177SOL     OW 6539   2.452   3.349   2.353
 2177SOL    HW1 6540   2.494   3.291   2.283
 2177SOL    HW2 6541   2.408   3.428   2.309
 2178SOL     OW 6542   3.571   2.247   3.243
 2178SOL    HW1 6543   3.644   2.316   3.247
 2178SOL    HW2 6544   3.599   2.172   3.184
 2179SOL     OW 6545   2.117   3.210   2.152
 2179SOL    HW1 6546   2.021   3.211   2.125
 2179SOL    HW2 6547   2.129   3.263   2.236
 2180SOL     OW 6548   1.967   2.875   3.588
 2180SOL    HW1 6549   1.890   2.842   3.642
 2180SOL    HW2 6550   2.052   2.845   3.630
 2181SOL     OW 6551   2.534   2.065   3.351
 2181SOL    HW1 6552   2.624   2.049   3.311
 2181SOL    HW2 6553   2.542   2.070   3.450
 2182SOL     OW 6554   1.937   2.207   1.895
 2182SOL    HW1 6555   1.845   2.179   1.866
 2182SOL    HW2 6556   1.968   2.284   1.839
 2183SOL     OW 6557   3.302   2.718   3.260
 2183SOL    HW1 6558   3.245   2.770   3.197
 2183SOL    HW2 6559   3.398   2.730   3.236
 2184SOL     OW 6560   1.934   2.028   2.180
 2184SOL    HW1 6561   1.917   2.111   2.126
 2184SOL    HW2 6562   2.024   1.991   2.158
 2185SOL     OW 6563   3.045   3.197   1.981
 2185SOL    HW1 6564   2.946   3.186   1.983
 2185SOL    HW2 6565   3.079   3.212   2.074
 2186SOL     OW 6566   2.475   2.704   3.293
 2186SOL    HW1 6567   2.531   2.785   3.276
 2186SOL    HW2 6568   2.534   2.624   3.296
 2187SOL     OW 6569   3.355   3.629   2.821
 2187SOL    HW1 6570   3.388   3.693   2.752
 2187SOL    HW2 6571   3.421   3.623   2.896
 2188SOL     OW 6572   2.578   2.427   3.570
 2188SOL    HW1 6573   2.597   2.492   3.644
 2188SOL    HW2 6574   2.638   2.347   3.579
 2189SOL     OW 6575   3.312   3.082   3.495
 2189SOL    HW1 6576   3.303   3.072   3.594
 2189SOL    HW2 6577   3.408   3.075   3.469
 2190SOL     OW 6578   2.252   3.603   3.422
 2190SOL    HW1 6579   2.161   3.644   3.420
 2190SOL    HW2 6580   2.245   3.509   3.454
 2191SOL     OW 6581   3.536   2.745   3.116
 2191SOL    HW1 6582   3.509   2.656   3.079
 2191SOL    HW2 6583   3.537   2.813   3.043
 2192SOL     OW 6584   3.087   2.187   2.311
 2192SOL    HW1 6585   3.152   2.113   2.300
 2192SOL    HW2 6586   3.107   2.237   2.395
 2193SOL     OW 6587   2.456   2.607   2.514
 2193SOL    HW1 6588   2.506   2.692   2.495
 2193SOL    HW2 6589   2.368   2.609   2.466
 2194SOL     OW 6590   3.639   2.204   3.504
 2194SOL    HW1 6591   3.622   2.235   3.410
 2194SOL    HW2 6592   3.555   2.167   3.542
 2195SOL     OW 6593   3.592   2.796   3.379
 2195SOL    HW1 6594   3.630   2.887   3.394
 2195SOL    HW2 6595   3.584   2.779   3.280
 2196SOL     OW 6596   2.721   3.236   1.878
 2196SOL    HW1 6597   2.675   3.251   1.966
 2196SOL    HW2 6598   2.765   3.321   1.848
 2197SOL     OW 6599   2.523   3.652   2.815
 2197SOL    HW1 6600   2.477   3.740   2.802
 2197SOL    HW2 6601   2.622   3.664   2.808
 2198SOL     OW 6602   2.721   2.818   2.723
 2198SOL    HW1 6603   2.775   2.749   2.771
 2198SOL    HW2 6604   2.689   2.887   2.789
 2199SOL     OW 6605   2.945   2.846   1.949
 2199SOL    HW1 6606   2.922   2.899   1.867
 2199SOL    HW2 6607   3.026   2.790   1.930
 2200SOL     OW 6608   3.723   3.431   2.713
 2200SOL    HW1 6609   3.652   3.419   2.643
 2200SOL    HW2 6610   3.724   3.352   2.773
 2201SOL     OW 6611   2.083   3.176   3.706
 2201SOL    HW1 6612   2.018   3.103   3.685
 2201SOL    HW2 6613   2.087   3.190   3.804
 2202SOL     OW 6614   1.941   3.102   2.515
 2202SOL    HW1 6615   1.940   3.055   2.603
 2202SOL    HW2 6616   2.023   3.074   2.464
 2203SOL     OW 6617   2.534   3.253   3.486
 2203SOL    HW1 6618   2.456   3.203   3.524
 2203SOL    HW2 6619   2.531   3.348   3.517
 2204SOL     OW 6620   3.686   2.054   3.089
 2204SOL    HW1 6621   3.682   1.964   3.133
 2204SOL    HW2 6622   3.689   2.043   2.990
 2205SOL     OW 6623   3.567   3.349   2.966
 2205SOL    HW1 6624   3.474   3.324   2.939
 2205SOL    HW2 6625   3.593   3.299   3.048
 2206SOL     OW 6626   2.179   2.409   3.142
 2206SOL    HW1 6627   2.217   2.350   3.214
 2206SOL    HW2 6628   2.219   2.383   3.054
 2207SOL     OW 6629   2.674   3.448   2.549
 2207SOL    HW1 6630   2.706   3.458   2.455
 2207SOL    HW2 6631   2.595   3.386   2.551
 2208SOL     OW 6632   3.286   2.076   2.974
 2208SOL    HW1 6633   3.338   2.011   3.029
 2208SOL    HW2 6634   3.237   2.139   3.035
 2209SOL     OW 6635   2.863   1.896   3.016
 2209SOL    HW1 6636   2.800   1.824   2.985
 2209SOL    HW2 6637   2.956   1.860   3.016
 2210SOL     OW 6638   2.632   3.192   2.163
 2210SOL    HW1 6639   2.586   3.105   2.180
 2210SOL    HW2 6640   2.723   3.189   2.204
 2211SOL     OW 6641   2.480   3.429   3.146
 2211SOL    HW1 6642   2.475   3.511   3.203
 2211SOL    HW2 6643   2.569   3.426   3.101
 2212SOL     OW 6644   3.214   1.914   2.030
 2212SOL    HW1 6645   3.249   1.873   1.946
 2212SOL    HW2 6646   3.124   1.876   2.050
 2213SOL     OW 6647   3.162   2.315   2.553
 2213SOL    HW1 6648   3.103   2.395   2.557
 2213SOL    HW2 6649   3.177   2.280   2.646
 2214SOL     OW 6650   3.455   2.083   2.744
 2214SOL    HW1 6651   3.371   2.082   2.798
 2214SOL    HW2 6652   3.457   2.166   2.688
 2215SOL     OW 6653   1.901   2.939   2.162
 2215SOL    HW1 6654   2.000   2.928   2.153
 2215SOL    HW2 6655   1.861   2.853   2.194
 2216SOL     OW 6656   2.737   3.508   2.199
 2216SOL    HW1 6657   2.660   3.473   2.145
 2216SOL    HW2 6658   2.705   3.579   2.261
 2217SOL     OW 6659   2.092   2.490   3.837
 2217SOL    HW1 6660   1.999   2.488   3.874
 2217SOL    HW2 6661   2.093   2.451   3.745
 2218SOL     OW 6662   2.087   2.137   4.720
 2218SOL    HW1 6663   2.122   2.120   4.812
 2218SOL    HW2 6664   1.999   2.092   4.708
 2219SOL     OW 6665   1.881   2.230   4.371
 2219SOL    HW1 6666   1.799   2.273   4.410
 2219SOL    HW2 6667   1.853   2.157   4.308
 2220SOL     OW 6668   3.617   2.469   3.955
 2220SOL    HW1 6669   3.605   2.456   3.856
 2220SOL    HW2 6670   3.587   2.388   4.004
 2221SOL     OW 6671   2.547   2.874   4.389
 2221SOL    HW1 6672   2.616   2.858   4.459
 2221SOL    HW2 6673   2.474   2.931   4.427
 2222SOL     OW 6674   3.465   2.309   4.461
 2222SOL    HW1 6675   3.391   2.355   4.411
 2222SOL    HW2 6676   3.516   2.377   4.514
 2223SOL     OW 6677   2.093   3.575   4.207
 2223SOL    HW1 6678   2.127   3.652   4.261
 2223SOL    HW2 6679   2.137   3.575   4.117
 2224SOL     OW 6680   2.092   3.296   4.262
 2224SOL    HW1 6681   2.066   3.392   4.262
 2224SOL    HW2 6682   2.021   3.242   4.307
 2225SOL     OW 6683   2.102   2.953   4.610
 2225SOL    HW1 6684   2.116   2.869   4.662
 2225SOL    HW2 6685   2.047   3.017   4.665
 2226SOL     OW 6686   2.468   2.826   3.847
 2226SOL    HW1 6687   2.475   2.910   3.793
 2226SOL    HW2 6688   2.514   2.839   3.935
 2227SOL     OW 6689   1.984   2.505   4.287
 2227SOL    HW1 6690   1.939   2.417   4.304
 2227SOL    HW2 6691   1.983   2.559   4.371
 2228SOL     OW 6692   3.704   3.629   4.083
 2228SOL    HW1 6693   3.758   3.600   4.163
 2228SOL    HW2 6694   3.734   3.719   4.054
 2229SOL     OW 6695   1.889   3.458   3.841
 2229SOL    HW1 6696   1.870   3.362   3.862
 2229SOL    HW2 6697   1.856   3.516   3.916
 2230SOL     OW 6698   3.551   2.784   4.336
 2230SOL    HW1 6699   3.646   2.755   4.344
 2230SOL    HW2 6700   3.543   2.849   4.261
 2231SOL     OW 6701   3.503   2.970   4.156
 2231SOL    HW1 6702   3.589   2.972   4.104
 2231SOL    HW2 6703   3.517   3.017   4.244
 2232SOL     OW 6704   2.475   3.227   4.450
 2232SOL    HW1 6705   2.426   3.140   4.459
 2232SOL    HW2 6706   2.452   3.270   4.363
 2233SOL     OW 6707   2.671   1.866   4.226
 2233SOL    HW1 6708   2.711   1.957   4.217
 2233SOL    HW2 6709   2.571   1.874   4.232
 2234SOL     OW 6710   3.387   2.861   3.914
 2234SOL    HW1 6711   3.324   2.785   3.927
 2234SOL    HW2 6712   3.435   2.879   4.000
 2235SOL     OW 6713   3.529   3.576   4.296
 2235SOL    HW1 6714   3.488   3.553   4.208
 2235SOL    HW2 6715   3.511   3.502   4.361
 2236SOL     OW 6716   2.460   2.591   3.994
 2236SOL    HW1 6717   2.484   2.660   3.926
 2236SOL    HW2 6718   2.382   2.624   4.048
 2237SOL     OW 6719   3.143   2.207   4.668
 2237SOL    HW1 6720   3.057   2.157   4.655
 2237SOL    HW2 6721   3.205   2.153   4.724
 2238SOL     OW 6722   3.438   3.524   4.031
 2238SOL    HW1 6723   3.527   3.570   4.034
 2238SOL    HW2 6724   3.417   3.500   3.936
 2239SOL     OW 6725   2.903   2.563   4.153
 2239SOL    HW1 6726   2.929   2.559   4.249
 2239SOL    HW2 6727   2.818   2.512   4.139
 2240SOL     OW 6728   1.938   2.673   4.513
 2240SOL    HW1 6729   2.037   2.661   4.522
 2240SOL    HW2 6730   1.914   2.768   4.534
 2241SOL     OW 6731   2.727   2.210   3.919
 2241SOL    HW1 6732   2.786   2.273   3.870
 2241SOL    HW2 6733   2.746   2.116   3.890
 2242SOL     OW 6734   3.224   3.006   4.269
 2242SOL    HW1 6735   3.307   2.977   4.221
 2242SOL    HW2 6736   3.175   3.073   4.213
 2243SOL     OW 6737   2.870   3.318   4.201
 2243SOL    HW1 6738   2.824   3.390   4.149
 2243SOL    HW2 6739   2.866   3.338   4.299
 2244SOL     OW 6740   2.213   3.663   4.577
 2244SOL    HW1 6741   2.263   3.577   4.583
 2244SOL    HW2 6742   2.278   3.740   4.574
 2245SOL     OW 6743   3.657   2.928   4.597
 2245SOL    HW1 6744   3.595   2.913   4.521
 2245SOL    HW2 6745   3.605   2.939   4.682
 2246SOL     OW 6746   2.183   2.805   3.966
 2246SOL    HW1 6747   2.265   2.844   3.924
 2246SOL    HW2 6748   2.156   2.723   3.917
 2247SOL     OW 6749   3.320   2.597   4.452
 2247SOL    HW1 6750   3.315   2.532   4.527
 2247SOL    HW2 6751   3.400   2.656   4.465
 2248SOL     OW 6752   2.973   3.638   3.961
 2248SOL    HW1 6753   2.913   3.576   4.011
 2248SOL    HW2 6754   3.004   3.594   3.876
 2249SOL     OW 6755   3.494   3.239   3.805
 2249SOL    HW1 6756   3.462   3.333   3.795
 2249SOL    HW2 6757   3.418   3.176   3.793
 2250SOL     OW 6758   2.326   3.605   4.047
 2250SOL    HW1 6759   2.359   3.644   4.133
 2250SOL    HW2 6760   2.402   3.598   3.982
 2251SOL     OW 6761   3.262   1.969   4.150
 2251SOL    HW1 6762   3.238   1.932   4.060
 2251SOL    HW2 6763   3.361   1.985   4.154
 2252SOL     OW 6764   2.802   3.560   4.628
 2252SOL    HW1 6765   2.882   3.503   4.649
 2252SOL    HW2 6766   2.753   3.520   4.551
 2253SOL     OW 6767   2.244   2.562   4.204
 2253SOL    HW1 6768   2.289   2.472   4.201
 2253SOL    HW2 6769   2.150   2.551   4.237
 2254SOL     OW 6770   2.476   1.984   3.841
 2254SOL    HW1 6771   2.574   1.962   3.848
 2254SOL    HW2 6772   2.445   1.967   3.748
 2255SOL     OW 6773   2.401   1.926   4.236
 2255SOL    HW1 6774   2.320   1.927   4.294
 2255SOL    HW2 6775   2.404   2.009   4.181
 2256SOL     OW 6776   3.296   3.050   3.765
 2256SOL    HW1 6777   3.328   2.974   3.822
 2256SOL    HW2 6778   3.204   3.077   3.795
 2257SOL     OW 6779   2.159   1.897   3.895
 2257SOL    HW1 6780   2.208   1.981   3.874
 2257SOL    HW2 6781   2.221   1.832   3.940
 2258SOL     OW 6782   2.797   2.098   4.204
 2258SOL    HW1 6783   2.749   2.139   4.126
 2258SOL    HW2 6784   2.896   2.096   4.185
 2259SOL     OW 6785   2.321   3.014   4.465
 2259SOL    HW1 6786   2.250   2.987   4.530
 2259SOL    HW2 6787   2.295   2.986   4.372
 2260SOL     OW 6788   3.133   3.659   4.315
 2260SOL    HW1 6789   3.177   3.723   4.251
 2260SOL    HW2 6790   3.083   3.711   4.385
 2261SOL     OW 6791   2.894   2.411   3.740
 2261SOL    HW1 6792   2.853   2.493   3.701
 2261SOL    HW2 6793   2.958   2.437   3.813
 2262SOL     OW 6794   2.728   2.316   4.366
 2262SOL    HW1 6795   2.696   2.388   4.304
 2262SOL    HW2 6796   2.752   2.235   4.313
 2263SOL     OW 6797   3.719   2.695   4.101
 2263SOL    HW1 6798   3.761   2.631   4.165
 2263SOL    HW2 6799   3.681   2.644   4.023
 2264SOL     OW 6800   2.350   3.247   3.898
 2264SOL    HW1 6801   2.263   3.232   3.945
 2264SOL    HW2 6802   2.333   3.273   3.803
 2265SOL     OW 6803   3.526   3.142   4.381
 2265SOL    HW1 6804   3.625   3.150   4.395
 2265SOL    HW2 6805   3.481   3.226   4.412
 2266SOL     OW 6806   3.252   2.437   3.802
 2266SOL    HW1 6807   3.198   2.416   3.883
 2266SOL    HW2 6808   3.343   2.396   3.811
 2267SOL     OW 6809   2.389   2.118   4.052
 2267SOL    HW1 6810   2.416   2.059   3.977
 2267SOL    HW2 6811   2.389   2.213   4.021
 2268SOL     OW 6812   2.567   2.912   4.092
 2268SOL    HW1 6813   2.553   2.919   4.191
 2268SOL    HW2 6814   2.651   2.861   4.074
 2269SOL     OW 6815   2.229   2.962   4.225
 2269SOL    HW1 6816   2.222   3.045   4.169
 2269SOL    HW2 6817   2.233   2.882   4.165
 2270SOL     OW 6818   3.114   3.210   4.112
 2270SOL    HW1 6819   3.164   3.287   4.152
 2270SOL    HW2 6820   3.019   3.212   4.144
 2271SOL     OW 6821   3.444   2.501   4.196
 2271SOL    HW1 6822   3.413   2.562   4.269
 2271SOL    HW2 6823   3.494   2.553   4.127
 2272SOL     OW 6824   3.071   2.387   3.999
 2272SOL    HW1 6825   3.084   2.303   4.053
 2272SOL    HW2 6826   3.042   2.461   4.059
 2273SOL     OW 6827   2.169   1.925   4.342
 2273SOL    HW1 6828   2.158   2.019   4.375
 2273SOL    HW2 6829   2.164   1.862   4.419
 2274SOL     OW 6830   3.484   2.229   4.098
 2274SOL    HW1 6831   3.486   2.153   4.162
 2274SOL    HW2 6832   3.436   2.306   4.138
 2275SOL     OW 6833   2.885   2.628   4.690
 2275SOL    HW1 6834   2.900   2.649   4.786
 2275SOL    HW2 6835   2.855   2.533   4.681
 2276SOL     OW 6836   3.402   2.136   3.849
 2276SOL    HW1 6837   3.341   2.061   3.872
 2276SOL    HW2 6838   3.424   2.188   3.932
 2277SOL     OW 6839   3.165   2.700   3.766
 2277SOL    HW1 6840   3.199   2.607   3.781
 2277SOL    HW2 6841   3.183   2.727   3.671
 2278SOL     OW 6842   1.870   3.188   3.924
 2278SOL    HW1 6843   1.777   3.209   3.893
 2278SOL    HW2 6844   1.880   3.089   3.937
 2279SOL     OW 6845   2.677   2.434   4.049
 2279SOL    HW1 6846   2.684   2.345   4.003
 2279SOL    HW2 6847   2.583   2.468   4.041
 2280SOL     OW 6848   2.335   2.362   3.915
 2280SOL    HW1 6849   2.396   2.442   3.919
 2280SOL    HW2 6850   2.240   2.393   3.922
 2281SOL     OW 6851   3.164   2.717   4.033
 2281SOL    HW1 6852   3.078   2.686   4.075
 2281SOL    HW2 6853   3.160   2.703   3.934
 2282SOL     OW 6854   3.588   1.997   4.247
 2282SOL    HW1 6855   3.661   1.980   4.180
 2282SOL    HW2 6856   3.557   1.910   4.285
 2283SOL     OW 6857   3.250   3.435   4.201
 2283SOL    HW1 6858   3.317   3.447   4.127
 2283SOL    HW2 6859   3.210   3.524   4.224
 2284SOL     OW 6860   2.534   3.478   3.878
 2284SOL    HW1 6861   2.543   3.488   3.779
 2284SOL    HW2 6862   2.494   3.389   3.899
 2285SOL     OW 6863   3.703   2.037   4.687
 2285SOL    HW1 6864   3.742   1.952   4.651
 2285SOL    HW2 6865   3.605   2.039   4.668
 2286SOL     OW 6866   2.125   2.188   4.444
 2286SOL    HW1 6867   2.046   2.239   4.410
 2286SOL    HW2 6868   2.116   2.173   4.542
 2287SOL     OW 6869   3.056   3.474   3.755
 2287SOL    HW1 6870   3.062   3.381   3.792
 2287SOL    HW2 6871   2.997   3.474   3.675
 2288SOL     OW 6872   2.778   2.772   4.015
 2288SOL    HW1 6873   2.841   2.810   3.947
 2288SOL    HW2 6874   2.818   2.689   4.054
 2289SOL     OW 6875   3.366   3.469   3.768
 2289SOL    HW1 6876   3.274   3.506   3.775
 2289SOL    HW2 6877   3.404   3.489   3.678
 2290SOL     OW 6878   2.452   3.349   4.215
 2290SOL    HW1 6879   2.494   3.291   4.145
 2290SOL    HW2 6880   2.408   3.428   4.171
 2291SOL     OW 6881   2.117   3.210   4.014
 2291SOL    HW1 6882   2.021   3.211   3.987
 2291SOL    HW2 6883   2.129   3.263   4.098
 2292SOL     OW 6884   1.937   2.207   3.757
 2292SOL    HW1 6885   1.845   2.179   3.728
 2292SOL    HW2 6886   1.968   2.284   3.701
 2293SOL     OW 6887   1.934   2.028   4.042
 2293SOL    HW1 6888   1.917   2.111   3.988
 2293SOL    HW2 6889   2.024   1.991   4.020
 2294SOL     OW 6890   3.045   3.197   3.843
 2294SOL    HW1 6891   2.946   3.186   3.845
 2294SOL    HW2 6892   3.079   3.212   3.936
 2295SOL     OW 6893   3.087   2.187   4.173
 2295SOL    HW1 6894   3.152   2.113   4.162
 2295SOL    HW2 6895   3.107   2.237   4.257
 2296SOL     OW 6896   2.456   2.607   4.376
 2296SOL    HW1 6897   2.506   2.692   4.357
 2296SOL    HW2 6898   2.368   2.609   4.328
 2297SOL     OW 6899   2.721   3.236   3.740
 2297SOL    HW1 6900   2.675   3.251   3.828
 2297SOL    HW2 6901   2.765   3.321   3.710
 2298SOL     OW 6902   2.523   3.652   4.677
 2298SOL    HW1 6903   2.477   3.740   4.664
 2298SOL    HW2 6904   2.622   3.664   4.670
 2299SOL     OW 6905   2.721   2.818   4.585
 2299SOL    HW1 6906   2.775   2.749   4.633
 2299SOL    HW2 6907   2.689   2.887   4.651
 2300SOL     OW 6908   2.945   2.846   3.811
 2300SOL    HW1 6909   2.922   2.899   3.729
 2300SOL    HW2 6910   3.026   2.790   3.792
 2301SOL     OW 6911   1.941   3.102   4.377
 2301SOL    HW1 6912   1.940   3.055   4.465
 2301SOL    HW2 6913   2.023   3.074   4.326
 2302SOL     OW 6914   2.290   2.286   4.244
 2302SOL    HW1 6915   2.320   2.214   4.182
 2302SOL    HW2 6916   2.251   2.246   4.327
 2303SOL     OW 6917   3.567   3.349   4.828
 2303SOL    HW1 6918   3.474   3.324   4.801
 2303SOL    HW2 6919   3.593   3.299   4.910
 2304SOL     OW 6920   2.674   3.448   4.411
 2304SOL    HW1 6921   2.706   3.458   4.317
 2304SOL    HW2 6922   2.595   3.386   4.413
 2305SOL     OW 6923   2.632   3.192   4.025
 2305SOL    HW1 6924   2.586   3.105   4.042
 2305SOL    HW2 6925   2.723   3.189   4.066
 2306SOL     OW 6926   3.214   1.914   3.892
 2306SOL    HW1 6927   3.249   1.873   3.808
 2306SOL    HW2 6928   3.124   1.876   3.912
 2307SOL     OW 6929   3.162   2.315   4.415
 2307SOL    HW1 6930   3.103   2.395   4.419
 2307SOL    HW2 6931   3.177   2.280   4.508
 2308SOL     OW 6932   1.901   2.939   4.024
 2308SOL    HW1 6933   2.000   2.928   4.015
 2308SOL    HW2 6934   1.861   2.853   4.056
 2309SOL     OW 6935   2.737   3.508   4.061
 2309SOL    HW1 6936   2.660   3.473   4.007
 2309SOL    HW2 6937   2.705   3.579   4.123
 2310SOL     OW 6938   2.092   4.352   0.113
 2310SOL    HW1 6939   1.999   4.350   0.150
 2310SOL    HW2 6940   2.093   4.313   0.021
 2311SOL     OW 6941   2.087   3.999   0.996
 2311SOL    HW1 6942   2.122   3.982   1.088
 2311SOL    HW2 6943   1.999   3.954   0.984
 2312SOL     OW 6944   1.881   4.092   0.647
 2312SOL    HW1 6945   1.799   4.135   0.686
 2312SOL    HW2 6946   1.853   4.019   0.584
 2313SOL     OW 6947   3.617   4.331   0.231
 2313SOL    HW1 6948   3.605   4.318   0.132
 2313SOL    HW2 6949   3.587   4.250   0.280
 2314SOL     OW 6950   2.712   4.522   1.823
 2314SOL    HW1 6951   2.708   4.598   1.888
 2314SOL    HW2 6952   2.734   4.558   1.732
 2315SOL     OW 6953   2.547   4.736   0.665
 2315SOL    HW1 6954   2.616   4.720   0.735
 2315SOL    HW2 6955   2.474   4.793   0.703
 2316SOL     OW 6956   2.300   4.116   1.499
 2316SOL    HW1 6957   2.382   4.060   1.508
 2316SOL    HW2 6958   2.219   4.058   1.503
 2317SOL     OW 6959   3.465   4.171   0.737
 2317SOL    HW1 6960   3.391   4.217   0.687
 2317SOL    HW2 6961   3.516   4.239   0.790
 2318SOL     OW 6962   3.456   3.838   1.480
 2318SOL    HW1 6963   3.438   3.905   1.408
 2318SOL    HW2 6964   3.453   3.884   1.569
 2319SOL     OW 6965   1.984   4.367   0.563
 2319SOL    HW1 6966   1.939   4.279   0.580
 2319SOL    HW2 6967   1.983   4.421   0.647
 2320SOL     OW 6968   1.975   4.461   1.597
 2320SOL    HW1 6969   2.063   4.448   1.642
 2320SOL    HW2 6970   1.962   4.558   1.575
 2321SOL     OW 6971   2.671   3.728   0.502
 2321SOL    HW1 6972   2.711   3.819   0.493
 2321SOL    HW2 6973   2.571   3.736   0.508
 2322SOL     OW 6974   2.179   3.975   1.801
 2322SOL    HW1 6975   2.250   4.046   1.807
 2322SOL    HW2 6976   2.091   4.014   1.829
 2323SOL     OW 6977   2.460   4.453   0.270
 2323SOL    HW1 6978   2.484   4.522   0.202
 2323SOL    HW2 6979   2.382   4.486   0.324
 2324SOL     OW 6980   3.143   4.069   0.944
 2324SOL    HW1 6981   3.057   4.019   0.931
 2324SOL    HW2 6982   3.205   4.015   1.000
 2325SOL     OW 6983   2.669   4.329   1.465
 2325SOL    HW1 6984   2.622   4.326   1.554
 2325SOL    HW2 6985   2.618   4.274   1.399
 2326SOL     OW 6986   3.256   4.193   1.674
 2326SOL    HW1 6987   3.236   4.236   1.762
 2326SOL    HW2 6988   3.334   4.131   1.683
 2327SOL     OW 6989   2.853   4.134   1.242
 2327SOL    HW1 6990   2.776   4.168   1.296
 2327SOL    HW2 6991   2.819   4.083   1.163
 2328SOL     OW 6992   2.903   4.425   0.429
 2328SOL    HW1 6993   2.929   4.421   0.525
 2328SOL    HW2 6994   2.818   4.374   0.415
 2329SOL     OW 6995   2.727   4.072   0.195
 2329SOL    HW1 6996   2.786   4.135   0.146
 2329SOL    HW2 6997   2.746   3.978   0.166
 2330SOL     OW 6998   3.581   4.309   1.831
 2330SOL    HW1 6999   3.555   4.398   1.795
 2330SOL    HW2 7000   3.579   4.241   1.758
 2331SOL     OW 7001   2.412   3.920   0.885
 2331SOL    HW1 7002   2.407   3.915   0.985
 2331SOL    HW2 7003   2.414   4.016   0.856
 2332SOL     OW 7004   3.320   4.459   0.728
 2332SOL    HW1 7005   3.315   4.394   0.803
 2332SOL    HW2 7006   3.400   4.518   0.741
 2333SOL     OW 7007   2.064   4.009   1.498
 2333SOL    HW1 7008   1.984   4.069   1.485
 2333SOL    HW2 7009   2.054   3.960   1.584
 2334SOL     OW 7010   3.262   3.831   0.426
 2334SOL    HW1 7011   3.238   3.794   0.336
 2334SOL    HW2 7012   3.361   3.847   0.430
 2335SOL     OW 7013   2.244   4.424   0.480
 2335SOL    HW1 7014   2.289   4.334   0.477
 2335SOL    HW2 7015   2.150   4.413   0.513
 2336SOL     OW 7016   3.409   3.946   1.729
 2336SOL    HW1 7017   3.404   3.983   1.821
 2336SOL    HW2 7018   3.337   3.877   1.717
 2337SOL     OW 7019   2.643   3.988   1.749
 2337SOL    HW1 7020   2.710   3.927   1.792
 2337SOL    HW2 7021   2.570   4.007   1.814
 2338SOL     OW 7022   3.213   4.314   1.433
 2338SOL    HW1 7023   3.241   4.271   1.518
 2338SOL    HW2 7024   3.238   4.410   1.434
 2339SOL     OW 7025   2.784   4.227   0.899
 2339SOL    HW1 7026   2.759   4.218   0.803
 2339SOL    HW2 7027   2.832   4.145   0.930
 2340SOL     OW 7028   2.401   3.788   0.512
 2340SOL    HW1 7029   2.320   3.789   0.570
 2340SOL    HW2 7030   2.404   3.871   0.457
 2341SOL     OW 7031   2.159   3.759   0.171
 2341SOL    HW1 7032   2.208   3.843   0.150
 2341SOL    HW2 7033   2.221   3.694   0.216
 2342SOL     OW 7034   2.797   3.960   0.480
 2342SOL    HW1 7035   2.749   4.001   0.402
 2342SOL    HW2 7036   2.896   3.958   0.461
 2343SOL     OW 7037   2.938   4.407   1.464
 2343SOL    HW1 7038   2.858   4.346   1.467
 2343SOL    HW2 7039   3.019   4.354   1.440
 2344SOL     OW 7040   2.894   4.273   0.016
 2344SOL    HW1 7041   2.853   4.355  -0.023
 2344SOL    HW2 7042   2.958   4.299   0.089
 2345SOL     OW 7043   1.940   4.280   1.386
 2345SOL    HW1 7044   2.032   4.279   1.345
 2345SOL    HW2 7045   1.934   4.354   1.453
 2346SOL     OW 7046   2.423   3.946   1.147
 2346SOL    HW1 7047   2.461   3.862   1.184
 2346SOL    HW2 7048   2.335   3.965   1.191
 2347SOL     OW 7049   2.728   4.178   0.642
 2347SOL    HW1 7050   2.696   4.250   0.580
 2347SOL    HW2 7051   2.752   4.097   0.589
 2348SOL     OW 7052   2.879   3.763   0.753
 2348SOL    HW1 7053   2.807   3.768   0.684
 2348SOL    HW2 7054   2.855   3.694   0.822
 2349SOL     OW 7055   3.328   4.314   0.992
 2349SOL    HW1 7056   3.298   4.219   0.999
 2349SOL    HW2 7057   3.401   4.330   1.058
 2350SOL     OW 7058   3.719   4.557   0.377
 2350SOL    HW1 7059   3.761   4.493   0.441
 2350SOL    HW2 7060   3.681   4.506   0.299
 2351SOL     OW 7061   3.252   4.299   0.078
 2351SOL    HW1 7062   3.198   4.278   0.159
 2351SOL    HW2 7063   3.343   4.258   0.087
 2352SOL     OW 7064   2.389   3.980   0.328
 2352SOL    HW1 7065   2.416   3.921   0.253
 2352SOL    HW2 7066   2.389   4.075   0.297
 2353SOL     OW 7067   2.777   3.813   1.402
 2353SOL    HW1 7068   2.802   3.793   1.307
 2353SOL    HW2 7069   2.849   3.869   1.444
 2354SOL     OW 7070   2.567   4.774   0.368
 2354SOL    HW1 7071   2.553   4.781   0.467
 2354SOL    HW2 7072   2.651   4.723   0.350
 2355SOL     OW 7073   2.272   4.537   1.251
 2355SOL    HW1 7074   2.358   4.549   1.301
 2355SOL    HW2 7075   2.230   4.450   1.278
 2356SOL     OW 7076   3.136   4.110   1.262
 2356SOL    HW1 7077   3.157   4.184   1.326
 2356SOL    HW2 7078   3.047   4.127   1.219
 2357SOL     OW 7079   2.428   4.261   0.865
 2357SOL    HW1 7080   2.440   4.327   0.791
 2357SOL    HW2 7081   2.474   4.295   0.948
 2358SOL     OW 7082   3.444   4.363   0.472
 2358SOL    HW1 7083   3.413   4.424   0.545
 2358SOL    HW2 7084   3.494   4.415   0.403
 2359SOL     OW 7085   3.449   4.503   1.670
 2359SOL    HW1 7086   3.357   4.541   1.665
 2359SOL    HW2 7087   3.509   4.550   1.605
 2360SOL     OW 7088   2.875   3.829   1.770
 2360SOL    HW1 7089   2.881   3.914   1.718
 2360SOL    HW2 7090   2.907   3.753   1.713
 2361SOL     OW 7091   2.366   3.774   1.740
 2361SOL    HW1 7092   2.324   3.717   1.670
 2361SOL    HW2 7093   2.300   3.843   1.772
 2362SOL     OW 7094   3.222   4.586   1.045
 2362SOL    HW1 7095   3.147   4.586   0.979
 2362SOL    HW2 7096   3.259   4.494   1.054
 2363SOL     OW 7097   3.071   4.249   0.275
 2363SOL    HW1 7098   3.084   4.165   0.329
 2363SOL    HW2 7099   3.042   4.323   0.335
 2364SOL     OW 7100   2.169   3.937   1.231
 2364SOL    HW1 7101   2.146   3.974   1.321
 2364SOL    HW2 7102   2.139   3.842   1.225
 2365SOL     OW 7103   2.594   4.358   1.064
 2365SOL    HW1 7104   2.653   4.332   0.988
 2365SOL    HW2 7105   2.566   4.454   1.053
 2366SOL     OW 7106   3.590   4.659   1.854
 2366SOL    HW1 7107   3.544   4.652   1.765
 2366SOL    HW2 7108   3.528   4.703   1.920
 2367SOL     OW 7109   2.169   3.787   0.618
 2367SOL    HW1 7110   2.158   3.881   0.651
 2367SOL    HW2 7111   2.164   3.724   0.695
 2368SOL     OW 7112   3.484   4.091   0.374
 2368SOL    HW1 7113   3.486   4.015   0.438
 2368SOL    HW2 7114   3.436   4.168   0.414
 2369SOL     OW 7115   3.402   3.998   0.125
 2369SOL    HW1 7116   3.341   3.923   0.148
 2369SOL    HW2 7117   3.424   4.050   0.208
 2370SOL     OW 7118   2.181   4.534   0.949
 2370SOL    HW1 7119   2.274   4.570   0.954
 2370SOL    HW2 7120   2.175   4.449   1.001
 2371SOL     OW 7121   2.201   4.233   1.006
 2371SOL    HW1 7122   2.149   4.150   0.989
 2371SOL    HW2 7123   2.278   4.238   0.942
 2372SOL     OW 7124   3.000   4.104   1.678
 2372SOL    HW1 7125   2.955   4.167   1.742
 2372SOL    HW2 7126   3.093   4.135   1.661
 2373SOL     OW 7127   3.022   3.931   1.477
 2373SOL    HW1 7128   3.022   3.995   1.554
 2373SOL    HW2 7129   3.050   3.979   1.394
 2374SOL     OW 7130   1.902   4.268   1.114
 2374SOL    HW1 7131   1.987   4.235   1.073
 2374SOL    HW2 7132   1.915   4.283   1.212
 2375SOL     OW 7133   2.051   4.244   1.722
 2375SOL    HW1 7134   2.110   4.204   1.652
 2375SOL    HW2 7135   1.993   4.315   1.681
 2376SOL     OW 7136   2.677   4.296   0.325
 2376SOL    HW1 7137   2.684   4.207   0.279
 2376SOL    HW2 7138   2.583   4.330   0.317
 2377SOL     OW 7139   3.519   4.328   1.206
 2377SOL    HW1 7140   3.481   4.259   1.268
 2377SOL    HW2 7141   3.601   4.292   1.162
 2378SOL     OW 7142   2.533   4.188   1.269
 2378SOL    HW1 7143   2.499   4.099   1.239
 2378SOL    HW2 7144   2.559   4.242   1.189
 2379SOL     OW 7145   2.335   4.224   0.191
 2379SOL    HW1 7146   2.396   4.304   0.195
 2379SOL    HW2 7147   2.240   4.255   0.198
 2380SOL     OW 7148   2.765   3.810   0.133
 2380SOL    HW1 7149   2.816   3.811   0.047
 2380SOL    HW2 7150   2.821   3.768   0.204
 2381SOL     OW 7151   3.588   3.859   0.523
 2381SOL    HW1 7152   3.661   3.842   0.456
 2381SOL    HW2 7153   3.557   3.772   0.561
 2382SOL     OW 7154   3.142   4.651   0.672
 2382SOL    HW1 7155   3.202   4.570   0.674
 2382SOL    HW2 7156   3.182   4.720   0.612
 2383SOL     OW 7157   3.703   3.899   0.963
 2383SOL    HW1 7158   3.742   3.814   0.927
 2383SOL    HW2 7159   3.605   3.901   0.944
 2384SOL     OW 7160   2.125   4.050   0.720
 2384SOL    HW1 7161   2.046   4.101   0.686
 2384SOL    HW2 7162   2.116   4.035   0.818
 2385SOL     OW 7163   2.876   3.960   0.971
 2385SOL    HW1 7164   2.868   3.924   0.878
 2385SOL    HW2 7165   2.874   3.884   1.036
 2386SOL     OW 7166   3.571   4.109   1.381
 2386SOL    HW1 7167   3.644   4.178   1.385
 2386SOL    HW2 7168   3.599   4.034   1.322
 2387SOL     OW 7169   1.967   4.737   1.726
 2387SOL    HW1 7170   1.890   4.704   1.780
 2387SOL    HW2 7171   2.052   4.707   1.768
 2388SOL     OW 7172   2.534   3.927   1.489
 2388SOL    HW1 7173   2.624   3.911   1.449
 2388SOL    HW2 7174   2.542   3.932   1.588
 2389SOL     OW 7175   1.937   4.069   0.033
 2389SOL    HW1 7176   1.845   4.041   0.004
 2389SOL    HW2 7177   1.968   4.146  -0.023
 2390SOL     OW 7178   1.934   3.890   0.318
 2390SOL    HW1 7179   1.917   3.973   0.264
 2390SOL    HW2 7180   2.024   3.853   0.296
 2391SOL     OW 7181   2.578   4.289   1.708
 2391SOL    HW1 7182   2.597   4.354   1.782
 2391SOL    HW2 7183   2.638   4.209   1.717
 2392SOL     OW 7184   3.536   4.607   1.254
 2392SOL    HW1 7185   3.509   4.518   1.217
 2392SOL    HW2 7186   3.537   4.675   1.181
 2393SOL     OW 7187   3.087   4.049   0.449
 2393SOL    HW1 7188   3.152   3.975   0.438
 2393SOL    HW2 7189   3.107   4.099   0.533
 2394SOL     OW 7190   2.456   4.469   0.652
 2394SOL    HW1 7191   2.506   4.554   0.633
 2394SOL    HW2 7192   2.368   4.471   0.604
 2395SOL     OW 7193   3.639   4.066   1.642
 2395SOL    HW1 7194   3.622   4.097   1.548
 2395SOL    HW2 7195   3.555   4.029   1.680
 2396SOL     OW 7196   2.721   4.680   0.861
 2396SOL    HW1 7197   2.775   4.611   0.909
 2396SOL    HW2 7198   2.689   4.749   0.927
 2397SOL     OW 7199   3.686   3.916   1.227
 2397SOL    HW1 7200   3.682   3.826   1.271
 2397SOL    HW2 7201   3.689   3.905   1.128
 2398SOL     OW 7202   2.290   4.148   0.520
 2398SOL    HW1 7203   2.320   4.076   0.458
 2398SOL    HW2 7204   2.251   4.108   0.603
 2399SOL     OW 7205   2.179   4.271   1.280
 2399SOL    HW1 7206   2.217   4.212   1.352
 2399SOL    HW2 7207   2.219   4.245   1.192
 2400SOL     OW 7208   3.286   3.938   1.112
 2400SOL    HW1 7209   3.338   3.873   1.167
 2400SOL    HW2 7210   3.237   4.001   1.173
 2401SOL     OW 7211   2.863   3.758   1.154
 2401SOL    HW1 7212   2.800   3.686   1.123
 2401SOL    HW2 7213   2.956   3.722   1.154
 2402SOL     OW 7214   3.214   3.776   0.168
 2402SOL    HW1 7215   3.249   3.735   0.084
 2402SOL    HW2 7216   3.124   3.738   0.188
 2403SOL     OW 7217   3.162   4.177   0.691
 2403SOL    HW1 7218   3.103   4.257   0.695
 2403SOL    HW2 7219   3.177   4.142   0.784
 2404SOL     OW 7220   3.455   3.945   0.882
 2404SOL    HW1 7221   3.371   3.944   0.936
 2404SOL    HW2 7222   3.457   4.028   0.826
 2405SOL     OW 7223   2.092   4.352   1.975
 2405SOL    HW1 7224   1.999   4.350   2.012
 2405SOL    HW2 7225   2.093   4.313   1.883
 2406SOL     OW 7226   2.087   3.999   2.858
 2406SOL    HW1 7227   2.122   3.982   2.950
 2406SOL    HW2 7228   1.999   3.954   2.846
 2407SOL     OW 7229   1.881   4.092   2.509
 2407SOL    HW1 7230   1.799   4.135   2.548
 2407SOL    HW2 7231   1.853   4.019   2.446
 2408SOL     OW 7232   3.617   4.331   2.093
 2408SOL    HW1 7233   3.605   4.318   1.994
 2408SOL    HW2 7234   3.587   4.250   2.142
 2409SOL     OW 7235   2.712   4.522   3.685
 2409SOL    HW1 7236   2.708   4.598   3.750
 2409SOL    HW2 7237   2.734   4.558   3.594
 2410SOL     OW 7238   2.547   4.736   2.527
 2410SOL    HW1 7239   2.616   4.720   2.597
 2410SOL    HW2 7240   2.474   4.793   2.565
 2411SOL     OW 7241   2.300   4.116   3.361
 2411SOL    HW1 7242   2.382   4.060   3.370
 2411SOL    HW2 7243   2.219   4.058   3.365
 2412SOL     OW 7244   3.465   4.171   2.599
 2412SOL    HW1 7245   3.391   4.217   2.549
 2412SOL    HW2 7246   3.516   4.239   2.652
 2413SOL     OW 7247   3.456   3.838   3.342
 2413SOL    HW1 7248   3.438   3.905   3.270
 2413SOL    HW2 7249   3.453   3.884   3.431
 2414SOL     OW 7250   1.984   4.367   2.425
 2414SOL    HW1 7251   1.939   4.279   2.442
 2414SOL    HW2 7252   1.983   4.421   2.509
 2415SOL     OW 7253   1.975   4.461   3.459
 2415SOL    HW1 7254   2.063   4.448   3.504
 2415SOL    HW2 7255   1.962   4.558   3.437
 2416SOL     OW 7256   2.671   3.728   2.364
 2416SOL    HW1 7257   2.711   3.819   2.355
 2416SOL    HW2 7258   2.571   3.736   2.370
 2417SOL     OW 7259   2.179   3.975   3.663
 2417SOL    HW1 7260   2.250   4.046   3.669
 2417SOL    HW2 7261   2.091   4.014   3.691
 2418SOL     OW 7262   2.460   4.453   2.132
 2418SOL    HW1 7263   2.484   4.522   2.064
 2418SOL    HW2 7264   2.382   4.486   2.186
 2419SOL     OW 7265   3.143   4.069   2.806
 2419SOL    HW1 7266   3.057   4.019   2.793
 2419SOL    HW2 7267   3.205   4.015   2.862
 2420SOL     OW 7268   2.669   4.329   3.327
 2420SOL    HW1 7269   2.622   4.326   3.416
 2420SOL    HW2 7270   2.618   4.274   3.261
 2421SOL     OW 7271   3.256   4.193   3.536
 2421SOL    HW1 7272   3.236   4.236   3.624
 2421SOL    HW2 7273   3.334   4.131   3.545
 2422SOL     OW 7274   2.853   4.134   3.104
 2422SOL    HW1 7275   2.776   4.168   3.158
 2422SOL    HW2 7276   2.819   4.083   3.025
 2423SOL     OW 7277   2.903   4.425   2.291
 2423SOL    HW1 7278   2.929   4.421   2.387
 2423SOL    HW2 7279   2.818   4.374   2.277
 2424SOL     OW 7280   2.727   4.072   2.057
 2424SOL    HW1 7281   2.786   4.135   2.008
 2424SOL    HW2 7282   2.746   3.978   2.028
 2425SOL     OW 7283   3.581   4.309   3.693
 2425SOL    HW1 7284   3.555   4.398   3.657
 2425SOL    HW2 7285   3.579   4.241   3.620
 2426SOL     OW 7286   2.412   3.920   2.747
 2426SOL    HW1 7287   2.407   3.915   2.847
 2426SOL    HW2 7288   2.414   4.016   2.718
 2427SOL     OW 7289   3.320   4.459   2.590
 2427SOL    HW1 7290   3.315   4.394   2.665
 2427SOL    HW2 7291   3.400   4.518   2.603
 2428SOL     OW 7292   2.064   4.009   3.360
 2428SOL    HW1 7293   1.984   4.069   3.347
 2428SOL    HW2 7294   2.054   3.960   3.446
 2429SOL     OW 7295   3.262   3.831   2.288
 2429SOL    HW1 7296   3.238   3.794   2.198
 2429SOL    HW2 7297   3.361   3.847   2.292
 2430SOL     OW 7298   2.244   4.424   2.342
 2430SOL    HW1 7299   2.289   4.334   2.339
 2430SOL    HW2 7300   2.150   4.413   2.375
 2431SOL     OW 7301   3.409   3.946   3.591
 2431SOL    HW1 7302   3.404   3.983   3.683
 2431SOL    HW2 7303   3.337   3.877   3.579
 2432SOL     OW 7304   2.476   3.846   1.979
 2432SOL    HW1 7305   2.574   3.824   1.986
 2432SOL    HW2 7306   2.445   3.829   1.886
 2433SOL     OW 7307   2.643   3.988   3.611
 2433SOL    HW1 7308   2.710   3.927   3.654
 2433SOL    HW2 7309   2.570   4.007   3.676
 2434SOL     OW 7310   3.213   4.314   3.295
 2434SOL    HW1 7311   3.241   4.271   3.380
 2434SOL    HW2 7312   3.238   4.410   3.296
 2435SOL     OW 7313   2.784   4.227   2.761
 2435SOL    HW1 7314   2.759   4.218   2.665
 2435SOL    HW2 7315   2.832   4.145   2.792
 2436SOL     OW 7316   2.401   3.788   2.374
 2436SOL    HW1 7317   2.320   3.789   2.432
 2436SOL    HW2 7318   2.404   3.871   2.319
 2437SOL     OW 7319   2.159   3.759   2.033
 2437SOL    HW1 7320   2.208   3.843   2.012
 2437SOL    HW2 7321   2.221   3.694   2.078
 2438SOL     OW 7322   2.797   3.960   2.342
 2438SOL    HW1 7323   2.749   4.001   2.264
 2438SOL    HW2 7324   2.896   3.958   2.323
 2439SOL     OW 7325   2.938   4.407   3.326
 2439SOL    HW1 7326   2.858   4.346   3.329
 2439SOL    HW2 7327   3.019   4.354   3.302
 2440SOL     OW 7328   2.894   4.273   1.878
 2440SOL    HW1 7329   2.853   4.355   1.839
 2440SOL    HW2 7330   2.958   4.299   1.951
 2441SOL     OW 7331   1.940   4.280   3.248
 2441SOL    HW1 7332   2.032   4.279   3.207
 2441SOL    HW2 7333   1.934   4.354   3.315
 2442SOL     OW 7334   2.423   3.946   3.009
 2442SOL    HW1 7335   2.461   3.862   3.046
 2442SOL    HW2 7336   2.335   3.965   3.053
 2443SOL     OW 7337   2.728   4.178   2.504
 2443SOL    HW1 7338   2.696   4.250   2.442
 2443SOL    HW2 7339   2.752   4.097   2.451
 2444SOL     OW 7340   2.879   3.763   2.615
 2444SOL    HW1 7341   2.807   3.768   2.546
 2444SOL    HW2 7342   2.855   3.694   2.684
 2445SOL     OW 7343   3.328   4.314   2.854
 2445SOL    HW1 7344   3.298   4.219   2.861
 2445SOL    HW2 7345   3.401   4.330   2.920
 2446SOL     OW 7346   3.719   4.557   2.239
 2446SOL    HW1 7347   3.761   4.493   2.303
 2446SOL    HW2 7348   3.681   4.506   2.161
 2447SOL     OW 7349   3.252   4.299   1.940
 2447SOL    HW1 7350   3.198   4.278   2.021
 2447SOL    HW2 7351   3.343   4.258   1.949
 2448SOL     OW 7352   2.389   3.980   2.190
 2448SOL    HW1 7353   2.416   3.921   2.115
 2448SOL    HW2 7354   2.389   4.075   2.159
 2449SOL     OW 7355   2.777   3.813   3.264
 2449SOL    HW1 7356   2.802   3.793   3.169
 2449SOL    HW2 7357   2.849   3.869   3.306
 2450SOL     OW 7358   2.567   4.774   2.230
 2450SOL    HW1 7359   2.553   4.781   2.329
 2450SOL    HW2 7360   2.651   4.723   2.212
 2451SOL     OW 7361   2.272   4.537   3.113
 2451SOL    HW1 7362   2.358   4.549   3.163
 2451SOL    HW2 7363   2.230   4.450   3.140
 2452SOL     OW 7364   3.136   4.110   3.124
 2452SOL    HW1 7365   3.157   4.184   3.188
 2452SOL    HW2 7366   3.047   4.127   3.081
 2453SOL     OW 7367   2.428   4.261   2.727
 2453SOL    HW1 7368   2.440   4.327   2.653
 2453SOL    HW2 7369   2.474   4.295   2.810
 2454SOL     OW 7370   3.444   4.363   2.334
 2454SOL    HW1 7371   3.413   4.424   2.407
 2454SOL    HW2 7372   3.494   4.415   2.265
 2455SOL     OW 7373   3.449   4.503   3.532
 2455SOL    HW1 7374   3.357   4.541   3.527
 2455SOL    HW2 7375   3.509   4.550   3.467
 2456SOL     OW 7376   2.875   3.829   3.632
 2456SOL    HW1 7377   2.881   3.914   3.580
 2456SOL    HW2 7378   2.907   3.753   3.575
 2457SOL     OW 7379   2.366   3.774   3.602
 2457SOL    HW1 7380   2.324   3.717   3.532
 2457SOL    HW2 7381   2.300   3.843   3.634
 2458SOL     OW 7382   3.222   4.586   2.907
 2458SOL    HW1 7383   3.147   4.586   2.841
 2458SOL    HW2 7384   3.259   4.494   2.916
 2459SOL     OW 7385   3.071   4.249   2.137
 2459SOL    HW1 7386   3.084   4.165   2.191
 2459SOL    HW2 7387   3.042   4.323   2.197
 2460SOL     OW 7388   2.169   3.937   3.093
 2460SOL    HW1 7389   2.146   3.974   3.183
 2460SOL    HW2 7390   2.139   3.842   3.087
 2461SOL     OW 7391   2.594   4.358   2.926
 2461SOL    HW1 7392   2.653   4.332   2.850
 2461SOL    HW2 7393   2.566   4.454   2.915
 2462SOL     OW 7394   3.590   4.659   3.716
 2462SOL    HW1 7395   3.544   4.652   3.627
 2462SOL    HW2 7396   3.528   4.703   3.782
 2463SOL     OW 7397   2.169   3.787   2.480
 2463SOL    HW1 7398   2.158   3.881   2.513
 2463SOL    HW2 7399   2.164   3.724   2.557
 2464SOL     OW 7400   3.484   4.091   2.236
 2464SOL    HW1 7401   3.486   4.015   2.300
 2464SOL    HW2 7402   3.436   4.168   2.276
 2465SOL     OW 7403   3.402   3.998   1.987
 2465SOL    HW1 7404   3.341   3.923   2.010
 2465SOL    HW2 7405   3.424   4.050   2.070
 2466SOL     OW 7406   2.181   4.534   2.811
 2466SOL    HW1 7407   2.274   4.570   2.816
 2466SOL    HW2 7408   2.175   4.449   2.863
 2467SOL     OW 7409   2.201   4.233   2.868
 2467SOL    HW1 7410   2.149   4.150   2.851
 2467SOL    HW2 7411   2.278   4.238   2.804
 2468SOL     OW 7412   3.000   4.104   3.540
 2468SOL    HW1 7413   2.955   4.167   3.604
 2468SOL    HW2 7414   3.093   4.135   3.523
 2469SOL     OW 7415   3.022   3.931   3.339
 2469SOL    HW1 7416   3.022   3.995   3.416
 2469SOL    HW2 7417   3.050   3.979   3.256
 2470SOL     OW 7418   1.902   4.268   2.976
 2470SOL    HW1 7419   1.987   4.235   2.935
 2470SOL    HW2 7420   1.915   4.283   3.074
 2471SOL     OW 7421   2.051   4.244   3.584
 2471SOL    HW1 7422   2.110   4.204   3.514
 2471SOL    HW2 7423   1.993   4.315   3.543
 2472SOL     OW 7424   2.677   4.296   2.187
 2472SOL    HW1 7425   2.684   4.207   2.141
 2472SOL    HW2 7426   2.583   4.330   2.179
 2473SOL     OW 7427   3.519   4.328   3.068
 2473SOL    HW1 7428   3.481   4.259   3.130
 2473SOL    HW2 7429   3.601   4.292   3.024
 2474SOL     OW 7430   2.533   4.188   3.131
 2474SOL    HW1 7431   2.499   4.099   3.101
 2474SOL    HW2 7432   2.559   4.242   3.051
 2475SOL     OW 7433   2.335   4.224   2.053
 2475SOL    HW1 7434   2.396   4.304   2.057
 2475SOL    HW2 7435   2.240   4.255   2.060
 2476SOL     OW 7436   3.588   3.859   2.385
 2476SOL    HW1 7437   3.661   3.842   2.318
 2476SOL    HW2 7438   3.557   3.772   2.423
 2477SOL     OW 7439   3.142   4.651   2.534
 2477SOL    HW1 7440   3.202   4.570   2.536
 2477SOL    HW2 7441   3.182   4.720   2.474
 2478SOL     OW 7442   3.703   3.899   2.825
 2478SOL    HW1 7443   3.742   3.814   2.789
 2478SOL    HW2 7444   3.605   3.901   2.806
 2479SOL     OW 7445   2.125   4.050   2.582
 2479SOL    HW1 7446   2.046   4.101   2.548
 2479SOL    HW2 7447   2.116   4.035   2.680
 2480SOL     OW 7448   2.778   4.634   2.153
 2480SOL    HW1 7449   2.841   4.672   2.085
 2480SOL    HW2 7450   2.818   4.551   2.192
 2481SOL     OW 7451   2.876   3.960   2.833
 2481SOL    HW1 7452   2.868   3.924   2.740
 2481SOL    HW2 7453   2.874   3.884   2.898
 2482SOL     OW 7454   3.571   4.109   3.243
 2482SOL    HW1 7455   3.644   4.178   3.247
 2482SOL    HW2 7456   3.599   4.034   3.184
 2483SOL     OW 7457   1.967   4.737   3.588
 2483SOL    HW1 7458   1.890   4.704   3.642
 2483SOL    HW2 7459   2.052   4.707   3.630
 2484SOL     OW 7460   2.534   3.927   3.351
 2484SOL    HW1 7461   2.624   3.911   3.311
 2484SOL    HW2 7462   2.542   3.932   3.450
 2485SOL     OW 7463   1.937   4.069   1.895
 2485SOL    HW1 7464   1.845   4.041   1.866
 2485SOL    HW2 7465   1.968   4.146   1.839
 2486SOL     OW 7466   1.934   3.890   2.180
 2486SOL    HW1 7467   1.917   3.973   2.126
 2486SOL    HW2 7468   2.024   3.853   2.158
 2487SOL     OW 7469   2.578   4.289   3.570
 2487SOL    HW1 7470   2.597   4.354   3.644
 2487SOL    HW2 7471   2.638   4.209   3.579
 2488SOL     OW 7472   3.536   4.607   3.116
 2488SOL    HW1 7473   3.509   4.518   3.079
 2488SOL    HW2 7474   3.537   4.675   3.043
 2489SOL     OW 7475   3.087   4.049   2.311
 2489SOL    HW1 7476   3.152   3.975   2.300
 2489SOL    HW2 7477   3.107   4.099   2.395
 2490SOL     OW 7478   2.456   4.469   2.514
 2490SOL    HW1 7479   2.506   4.554   2.495
 2490SOL    HW2 7480   2.368   4.471   2.466
 2491SOL     OW 7481   3.639   4.066   3.504
 2491SOL    HW1 7482   3.622   4.097   3.410
 2491SOL    HW2 7483   3.555   4.029   3.542
 2492SOL     OW 7484   2.721   4.680   2.723
 2492SOL    HW1 7485   2.775   4.611   2.771
 2492SOL    HW2 7486   2.689   4.749   2.789
 2493SOL     OW 7487   3.686   3.916   3.089
 2493SOL    HW1 7488   3.682   3.826   3.133
 2493SOL    HW2 7489   3.689   3.905   2.990
 2494SOL     OW 7490   2.290   4.148   2.382
 2494SOL    HW1 7491   2.320   4.076   2.320
 2494SOL    HW2 7492   2.251   4.108   2.465
 2495SOL     OW 7493   2.179   4.271   3.142
 2495SOL    HW1 7494   2.217   4.212   3.214
 2495SOL    HW2 7495   2.219   4.245   3.054
 2496SOL     OW 7496   3.286   3.938   2.974
 2496SOL    HW1 7497   3.338   3.873   3.029
 2496SOL    HW2 7498   3.237   4.001   3.035
 2497SOL     OW 7499   2.863   3.758   3.016
 2497SOL    HW1 7500   2.800   3.686   2.985
 2497SOL    HW2 7501   2.956   3.722   3.016
 2498SOL     OW 7502   3.214   3.776   2.030
 2498SOL    HW1 7503   3.249   3.735   1.946
 2498SOL    HW2 7504   3.124   3.738   2.050
 2499SOL     OW 7505   3.162   4.177   2.553
 2499SOL    HW1 7506   3.103   4.257   2.557
 2499SOL    HW2 7507   3.177   4.142   2.646
 2500SOL     OW 7508   3.455   3.945   2.744
 2500SOL    HW1 7509   3.371   3.944   2.798
 2500SOL    HW2 7510   3.457   4.028   2.688
 2501SOL     OW 7511   2.092   4.352   3.837
 2501SOL    HW1 7512   1.999   4.350   3.874
 2501SOL    HW2 7513   2.093   4.313   3.745
 2502SOL     OW 7514   2.087   3.999   4.720
 2502SOL    HW1 7515   2.122   3.982   4.812
 2502SOL    HW2 7516   1.999   3.954   4.708
 2503SOL     OW 7517   1.881   4.092   4.371
 2503SOL    HW1 7518   1.799   4.135   4.410
 2503SOL    HW2 7519   1.853   4.019   4.308
 2504SOL     OW 7520   3.617   4.331   3.955
 2504SOL    HW1 7521   3.605   4.318   3.856
 2504SOL    HW2 7522   3.587   4.250   4.004
 2505SOL     OW 7523   2.547   4.736   4.389
 2505SOL    HW1 7524   2.616   4.720   4.459
 2505SOL    HW2 7525   2.474   4.793   4.427
 2506SOL     OW 7526   3.465   4.171   4.461
 2506SOL    HW1 7527   3.391   4.217   4.411
 2506SOL    HW2 7528   3.516   4.239   4.514
 2507SOL     OW 7529   1.984   4.367   4.287
 2507SOL    HW1 7530   1.939   4.279   4.304
 2507SOL    HW2 7531   1.983   4.421   4.371
 2508SOL     OW 7532   2.671   3.728   4.226
 2508SOL    HW1 7533   2.711   3.819   4.217
 2508SOL    HW2 7534   2.571   3.736   4.232
 2509SOL     OW 7535   2.460   4.453   3.994
 2509SOL    HW1 7536   2.484   4.522   3.926
 2509SOL    HW2 7537   2.382   4.486   4.048
 2510SOL     OW 7538   3.143   4.069   4.668
 2510SOL    HW1 7539   3.057   4.019   4.655
 2510SOL    HW2 7540   3.205   4.015   4.724
 2511SOL     OW 7541   2.903   4.425   4.153
 2511SOL    HW1 7542   2.929   4.421   4.249
 2511SOL    HW2 7543   2.818   4.374   4.139
 2512SOL     OW 7544   2.727   4.072   3.919
 2512SOL    HW1 7545   2.786   4.135   3.870
 2512SOL    HW2 7546   2.746   3.978   3.890
 2513SOL     OW 7547   3.320   4.459   4.452
 2513SOL    HW1 7548   3.315   4.394   4.527
 2513SOL    HW2 7549   3.400   4.518   4.465
 2514SOL     OW 7550   3.262   3.831   4.150
 2514SOL    HW1 7551   3.238   3.794   4.060
 2514SOL    HW2 7552   3.361   3.847   4.154
 2515SOL     OW 7553   2.244   4.424   4.204
 2515SOL    HW1 7554   2.289   4.334   4.201
 2515SOL    HW2 7555   2.150   4.413   4.237
 2516SOL     OW 7556   2.476   3.846   3.841
 2516SOL    HW1 7557   2.574   3.824   3.848
 2516SOL    HW2 7558   2.445   3.829   3.748
 2517SOL     OW 7559   2.401   3.788   4.236
 2517SOL    HW1 7560   2.320   3.789   4.294
 2517SOL    HW2 7561   2.404   3.871   4.181
 2518SOL     OW 7562   2.159   3.759   3.895
 2518SOL    HW1 7563   2.208   3.843   3.874
 2518SOL    HW2 7564   2.221   3.694   3.940
 2519SOL     OW 7565   2.797   3.960   4.204
 2519SOL    HW1 7566   2.749   4.001   4.126
 2519SOL    HW2 7567   2.896   3.958   4.185
 2520SOL     OW 7568   2.894   4.273   3.740
 2520SOL    HW1 7569   2.853   4.355   3.701
 2520SOL    HW2 7570   2.958   4.299   3.813
 2521SOL     OW 7571   2.728   4.178   4.366
 2521SOL    HW1 7572   2.696   4.250   4.304
 2521SOL    HW2 7573   2.752   4.097   4.313
 2522SOL     OW 7574   3.719   4.557   4.101
 2522SOL    HW1 7575   3.761   4.493   4.165
 2522SOL    HW2 7576   3.681   4.506   4.023
 2523SOL     OW 7577   3.252   4.299   3.802
 2523SOL    HW1 7578   3.198   4.278   3.883
 2523SOL    HW2 7579   3.343   4.258   3.811
 2524SOL     OW 7580   2.389   3.980   4.052
 2524SOL    HW1 7581   2.416   3.921   3.977
 2524SOL    HW2 7582   2.389   4.075   4.021
 2525SOL     OW 7583   2.567   4.774   4.092
 2525SOL    HW1 7584   2.553   4.781   4.191
 2525SOL    HW2 7585   2.651   4.723   4.074
 2526SOL     OW 7586   3.444   4.363   4.196
 2526SOL    HW1 7587   3.413   4.424   4.269
 2526SOL    HW2 7588   3.494   4.415   4.127
 2527SOL     OW 7589   3.071   4.249   3.999
 2527SOL    HW1 7590   3.084   4.165   4.053
 2527SOL    HW2 7591   3.042   4.323   4.059
 2528SOL     OW 7592   2.169   3.787   4.342
 2528SOL    HW1 7593   2.158   3.881   4.375
 2528SOL    HW2 7594   2.164   3.724   4.419
 2529SOL     OW 7595   3.484   4.091   4.098
 2529SOL    HW1 7596   3.486   4.015   4.162
 2529SOL    HW2 7597   3.436   4.168   4.138
 2530SOL     OW 7598   3.402   3.998   3.849
 2530SOL    HW1 7599   3.341   3.923   3.872
 2530SOL    HW2 7600   3.424   4.050   3.932
 2531SOL     OW 7601   2.677   4.296   4.049
 2531SOL    HW1 7602   2.684   4.207   4.003
 2531SOL    HW2 7603   2.583   4.330   4.041
 2532SOL     OW 7604   2.335   4.224   3.915
 2532SOL    HW1 7605   2.396   4.304   3.919
 2532SOL    HW2 7606   2.240   4.255   3.922
 2533SOL     OW 7607   3.588   3.859   4.247
 2533SOL    HW1 7608   3.661   3.842   4.180
 2533SOL    HW2 7609   3.557   3.772   4.285
 2534SOL     OW 7610   3.142   4.651   4.396
 2534SOL    HW1 7611   3.202   4.570   4.398
 2534SOL    HW2 7612   3.182   4.720   4.336
 2535SOL     OW 7613   3.703   3.899   4.687
 2535SOL    HW1 7614   3.742   3.814   4.651
 2535SOL    HW2 7615   3.605   3.901   4.668
 2536SOL     OW 7616   2.125   4.050   4.444
 2536SOL    HW1 7617   2.046   4.101   4.410
 2536SOL    HW2 7618   2.116   4.035   4.542
 2537SOL     OW 7619   2.778   4.634   4.015
 2537SOL    HW1 7620   2.841   4.672   3.947
 2537SOL    HW2 7621   2.818   4.551   4.054
 2538SOL     OW 7622   2.901   4.822   4.420
 2538SOL    HW1 7623   2.831   4.775   4.474
 2538SOL    HW2 7624   2.960   4.754   4.377
 2539SOL     OW 7625   1.937   4.069   3.757
 2539SOL    HW1 7626   1.845   4.041   3.728
 2539SOL    HW2 7627   1.968   4.146   3.701
 2540SOL     OW 7628   1.934   3.890   4.042
 2540SOL    HW1 7629   1.917   3.973   3.988
 2540SOL    HW2 7630   2.024   3.853   4.020
 2541SOL     OW 7631   3.087   4.049   4.173
 2541SOL    HW1 7632   3.152   3.975   4.162
 2541SOL    HW2 7633   3.107   4.099   4.257
 2542SOL     OW 7634   2.456   4.469   4.376
 2542SOL    HW1 7635   2.506   4.554   4.357
 2542SOL    HW2 7636   2.368   4.471   4.328
 2543SOL     OW 7637   2.290   4.148   4.244
 2543SOL    HW1 7638   2.320   4.076   4.182
 2543SOL    HW2 7639   2.251   4.108   4.327
 2544SOL     OW 7640   3.214   3.776   3.892
 2544SOL    HW1 7641   3.249   3.735   3.808
 2544SOL    HW2 7642   3.124   3.738   3.912
 2545SOL     OW 7643   3.162   4.177   4.415
 2545SOL    HW1 7644   3.103   4.257   4.419
 2545SOL    HW2 7645   3.177   4.142   4.508
 2546SOL     OW 7646   3.954   0.628   0.113
 2546SOL    HW1 7647   3.861   0.626   0.150
 2546SOL    HW2 7648   3.955   0.589   0.021
 2547SOL     OW 7649   3.949   0.275   0.996
 2547SOL    HW1 7650   3.984   0.258   1.088
 2547SOL    HW2 7651   3.861   0.230   0.984
 2548SOL     OW 7652   3.743   0.368   0.647
 2548SOL    HW1 7653   3.661   0.411   0.686
 2548SOL    HW2 7654   3.715   0.295   0.584
 2549SOL     OW 7655   4.293   1.275   1.165
 2549SOL    HW1 7656   4.200   1.268   1.128
 2549SOL    HW2 7657   4.304   1.364   1.209
 2550SOL     OW 7658   4.574   0.798   1.823
 2550SOL    HW1 7659   4.570   0.874   1.888
 2550SOL    HW2 7660   4.596   0.834   1.732
 2551SOL     OW 7661   4.409   1.012   0.665
 2551SOL    HW1 7662   4.478   0.996   0.735
 2551SOL    HW2 7663   4.336   1.069   0.703
 2552SOL     OW 7664   4.410   1.161   1.803
 2552SOL    HW1 7665   4.470   1.240   1.817
 2552SOL    HW2 7666   4.324   1.192   1.762
 2553SOL     OW 7667   4.059   1.435   1.061
 2553SOL    HW1 7668   3.981   1.404   1.008
 2553SOL    HW2 7669   4.117   1.493   1.004
 2554SOL     OW 7670   4.162   0.392   1.499
 2554SOL    HW1 7671   4.244   0.336   1.508
 2554SOL    HW2 7672   4.081   0.334   1.503
 2555SOL     OW 7673   3.955   1.713   0.483
 2555SOL    HW1 7674   3.989   1.790   0.537
 2555SOL    HW2 7675   3.999   1.713   0.393
 2556SOL     OW 7676   3.954   1.434   0.538
 2556SOL    HW1 7677   3.928   1.530   0.538
 2556SOL    HW2 7678   3.883   1.380   0.583
 2557SOL     OW 7679   3.964   1.091   0.886
 2557SOL    HW1 7680   3.978   1.007   0.938
 2557SOL    HW2 7681   3.909   1.155   0.941
 2558SOL     OW 7682   4.344   1.786   1.439
 2558SOL    HW1 7683   4.252   1.769   1.474
 2558SOL    HW2 7684   4.372   1.878   1.465
 2559SOL     OW 7685   4.330   0.964   0.123
 2559SOL    HW1 7686   4.337   1.048   0.069
 2559SOL    HW2 7687   4.376   0.977   0.211
 2560SOL     OW 7688   3.846   0.643   0.563
 2560SOL    HW1 7689   3.801   0.555   0.580
 2560SOL    HW2 7690   3.845   0.697   0.647
 2561SOL     OW 7691   3.751   1.596   0.117
 2561SOL    HW1 7692   3.732   1.500   0.138
 2561SOL    HW2 7693   3.718   1.654   0.192
 2562SOL     OW 7694   3.837   0.737   1.597
 2562SOL    HW1 7695   3.925   0.724   1.642
 2562SOL    HW2 7696   3.824   0.834   1.575
 2563SOL     OW 7697   4.337   1.365   0.726
 2563SOL    HW1 7698   4.288   1.278   0.735
 2563SOL    HW2 7699   4.314   1.408   0.639
 2564SOL     OW 7700   4.533   0.004   0.502
 2564SOL    HW1 7701   4.573   0.095   0.493
 2564SOL    HW2 7702   4.433   0.012   0.508
 2565SOL     OW 7703   3.921   0.976   1.264
 2565SOL    HW1 7704   4.010   0.931   1.250
 2565SOL    HW2 7705   3.848   0.911   1.245
 2566SOL     OW 7706   4.041   0.251   1.801
 2566SOL    HW1 7707   4.112   0.322   1.807
 2566SOL    HW2 7708   3.953   0.290   1.829
 2567SOL     OW 7709   4.322   0.729   0.270
 2567SOL    HW1 7710   4.346   0.798   0.202
 2567SOL    HW2 7711   4.244   0.762   0.324
 2568SOL     OW 7712   3.800   0.811   0.789
 2568SOL    HW1 7713   3.899   0.799   0.798
 2568SOL    HW2 7714   3.776   0.906   0.810
 2569SOL     OW 7715   3.854   1.821   1.571
 2569SOL    HW1 7716   3.844   1.806   1.670
 2569SOL    HW2 7717   3.768   1.857   1.535
 2570SOL     OW 7718   4.274   0.196   0.885
 2570SOL    HW1 7719   4.269   0.191   0.985
 2570SOL    HW2 7720   4.276   0.292   0.856
 2571SOL     OW 7721   4.075   1.801   0.853
 2571SOL    HW1 7722   4.125   1.715   0.859
 2571SOL    HW2 7723   4.140   1.878   0.850
 2572SOL     OW 7724   4.045   0.943   0.242
 2572SOL    HW1 7725   4.127   0.982   0.200
 2572SOL    HW2 7726   4.018   0.861   0.193
 2573SOL     OW 7727   4.185   1.266   1.727
 2573SOL    HW1 7728   4.135   1.267   1.641
 2573SOL    HW2 7729   4.122   1.248   1.803
 2574SOL     OW 7730   3.926   0.285   1.498
 2574SOL    HW1 7731   3.846   0.345   1.485
 2574SOL    HW2 7732   3.916   0.236   1.584
 2575SOL     OW 7733   4.188   1.743   0.323
 2575SOL    HW1 7734   4.221   1.782   0.409
 2575SOL    HW2 7735   4.264   1.736   0.258
 2576SOL     OW 7736   3.973   1.785   1.241
 2576SOL    HW1 7737   4.030   1.720   1.291
 2576SOL    HW2 7738   3.957   1.752   1.148
 2577SOL     OW 7739   4.106   0.700   0.480
 2577SOL    HW1 7740   4.151   0.610   0.477
 2577SOL    HW2 7741   4.012   0.689   0.513
 2578SOL     OW 7742   4.338   0.122   0.117
 2578SOL    HW1 7743   4.436   0.100   0.124
 2578SOL    HW2 7744   4.307   0.105   0.024
 2579SOL     OW 7745   4.527   1.402   0.924
 2579SOL    HW1 7746   4.617   1.416   0.882
 2579SOL    HW2 7747   4.456   1.404   0.853
 2580SOL     OW 7748   4.646   0.503   0.899
 2580SOL    HW1 7749   4.621   0.494   0.803
 2580SOL    HW2 7750   4.694   0.421   0.930
 2581SOL     OW 7751   4.263   0.064   0.512
 2581SOL    HW1 7752   4.182   0.065   0.570
 2581SOL    HW2 7753   4.266   0.147   0.457
 2582SOL     OW 7754   4.021   0.035   0.171
 2582SOL    HW1 7755   4.070   0.119   0.150
 2582SOL    HW2 7756   4.083  -0.030   0.216
 2583SOL     OW 7757   4.183   1.152   0.741
 2583SOL    HW1 7758   4.112   1.125   0.806
 2583SOL    HW2 7759   4.157   1.124   0.648
 2584SOL     OW 7760   3.802   0.556   1.386
 2584SOL    HW1 7761   3.894   0.555   1.345
 2584SOL    HW2 7762   3.796   0.630   1.453
 2585SOL     OW 7763   4.285   0.222   1.147
 2585SOL    HW1 7764   4.323   0.138   1.184
 2585SOL    HW2 7765   4.197   0.241   1.191
 2586SOL     OW 7766   4.212   1.385   0.174
 2586SOL    HW1 7767   4.125   1.370   0.221
 2586SOL    HW2 7768   4.195   1.411   0.079
 2587SOL     OW 7769   4.251   0.256   0.328
 2587SOL    HW1 7770   4.278   0.197   0.253
 2587SOL    HW2 7771   4.251   0.351   0.297
 2588SOL     OW 7772   4.639   0.089   1.402
 2588SOL    HW1 7773   4.664   0.069   1.307
 2588SOL    HW2 7774   4.711   0.145   1.444
 2589SOL     OW 7775   4.134   0.813   1.251
 2589SOL    HW1 7776   4.220   0.825   1.301
 2589SOL    HW2 7777   4.092   0.726   1.278
 2590SOL     OW 7778   3.788   1.564   1.331
 2590SOL    HW1 7779   3.742   1.646   1.297
 2590SOL    HW2 7780   3.886   1.583   1.340
 2591SOL     OW 7781   4.091   1.100   0.501
 2591SOL    HW1 7782   4.084   1.183   0.445
 2591SOL    HW2 7783   4.095   1.020   0.441
 2592SOL     OW 7784   4.290   0.537   0.865
 2592SOL    HW1 7785   4.302   0.603   0.791
 2592SOL    HW2 7786   4.336   0.571   0.948
 2593SOL     OW 7787   4.078   1.510   1.329
 2593SOL    HW1 7788   4.057   1.466   1.242
 2593SOL    HW2 7789   4.175   1.536   1.332
 2594SOL     OW 7790   4.126   0.751   1.598
 2594SOL    HW1 7791   4.194   0.806   1.551
 2594SOL    HW2 7792   4.166   0.663   1.625
 2595SOL     OW 7793   4.228   0.050   1.740
 2595SOL    HW1 7794   4.186  -0.007   1.670
 2595SOL    HW2 7795   4.162   0.119   1.772
 2596SOL     OW 7796   4.297   0.870   1.029
 2596SOL    HW1 7797   4.341   0.959   1.020
 2596SOL    HW2 7798   4.234   0.870   1.106
 2597SOL     OW 7799   4.031   0.213   1.231
 2597SOL    HW1 7800   4.008   0.250   1.321
 2597SOL    HW2 7801   4.001   0.118   1.225
 2598SOL     OW 7802   3.761   1.310   1.282
 2598SOL    HW1 7803   3.814   1.261   1.350
 2598SOL    HW2 7804   3.783   1.408   1.287
 2599SOL     OW 7805   4.456   0.634   1.064
 2599SOL    HW1 7806   4.515   0.608   0.988
 2599SOL    HW2 7807   4.428   0.730   1.053
 2600SOL     OW 7808   4.031   0.063   0.618
 2600SOL    HW1 7809   4.020   0.157   0.651
 2600SOL    HW2 7810   4.026   0.000   0.695
 2601SOL     OW 7811   4.074   0.898   1.804
 2601SOL    HW1 7812   4.150   0.942   1.852
 2601SOL    HW2 7813   4.109   0.851   1.722
 2602SOL     OW 7814   4.792   1.333   0.849
 2602SOL    HW1 7815   4.799   1.249   0.794
 2602SOL    HW2 7816   4.854   1.402   0.813
 2603SOL     OW 7817   4.043   0.810   0.949
 2603SOL    HW1 7818   4.136   0.846   0.954
 2603SOL    HW2 7819   4.037   0.725   1.001
 2604SOL     OW 7820   4.063   0.509   1.006
 2604SOL    HW1 7821   4.011   0.426   0.989
 2604SOL    HW2 7822   4.140   0.514   0.942
 2605SOL     OW 7823   3.732   1.326   0.200
 2605SOL    HW1 7824   3.639   1.347   0.169
 2605SOL    HW2 7825   3.742   1.227   0.213
 2606SOL     OW 7826   3.812   1.801   0.927
 2606SOL    HW1 7827   3.770   1.715   0.900
 2606SOL    HW2 7828   3.906   1.804   0.893
 2607SOL     OW 7829   4.228   1.568   0.910
 2607SOL    HW1 7830   4.294   1.642   0.919
 2607SOL    HW2 7831   4.272   1.489   0.868
 2608SOL     OW 7832   3.764   0.544   1.114
 2608SOL    HW1 7833   3.849   0.511   1.073
 2608SOL    HW2 7834   3.777   0.559   1.212
 2609SOL     OW 7835   3.913   0.520   1.722
 2609SOL    HW1 7836   3.972   0.480   1.652
 2609SOL    HW2 7837   3.855   0.591   1.681
 2610SOL     OW 7838   3.976   1.564   1.744
 2610SOL    HW1 7839   3.946   1.621   1.820
 2610SOL    HW2 7840   3.969   1.467   1.770
 2611SOL     OW 7841   4.395   0.464   1.269
 2611SOL    HW1 7842   4.361   0.375   1.239
 2611SOL    HW2 7843   4.421   0.518   1.189
 2612SOL     OW 7844   4.197   0.500   0.191
 2612SOL    HW1 7845   4.258   0.580   0.195
 2612SOL    HW2 7846   4.102   0.531   0.198
 2613SOL     OW 7847   3.883   1.137   1.466
 2613SOL    HW1 7848   3.905   1.076   1.542
 2613SOL    HW2 7849   3.893   1.088   1.380
 2614SOL     OW 7850   3.807   1.258   1.022
 2614SOL    HW1 7851   3.802   1.257   1.122
 2614SOL    HW2 7852   3.724   1.217   0.984
 2615SOL     OW 7853   4.412   1.662   1.716
 2615SOL    HW1 7854   4.356   1.743   1.725
 2615SOL    HW2 7855   4.464   1.666   1.630
 2616SOL     OW 7856   3.854   1.794   1.851
 2616SOL    HW1 7857   3.813   1.720   1.904
 2616SOL    HW2 7858   3.918   1.845   1.909
 2617SOL     OW 7859   4.396   1.616   0.154
 2617SOL    HW1 7860   4.405   1.626   0.055
 2617SOL    HW2 7861   4.356   1.527   0.175
 2618SOL     OW 7862   3.987   0.326   0.720
 2618SOL    HW1 7863   3.908   0.377   0.686
 2618SOL    HW2 7864   3.978   0.311   0.818
 2619SOL     OW 7865   4.546   1.002   1.372
 2619SOL    HW1 7866   4.586   1.001   1.280
 2619SOL    HW2 7867   4.556   1.094   1.412
 2620SOL     OW 7868   4.096   1.288   1.490
 2620SOL    HW1 7869   4.083   1.381   1.456
 2620SOL    HW2 7870   4.012   1.236   1.477
 2621SOL     OW 7871   4.314   1.487   0.491
 2621SOL    HW1 7872   4.356   1.429   0.421
 2621SOL    HW2 7873   4.270   1.566   0.447
 2622SOL     OW 7874   3.979   1.348   0.290
 2622SOL    HW1 7875   3.883   1.349   0.263
 2622SOL    HW2 7876   3.991   1.401   0.374
 2623SOL     OW 7877   3.829   1.013   1.726
 2623SOL    HW1 7878   3.752   0.980   1.780
 2623SOL    HW2 7879   3.914   0.983   1.768
 2624SOL     OW 7880   4.396   0.203   1.489
 2624SOL    HW1 7881   4.486   0.187   1.449
 2624SOL    HW2 7882   4.404   0.208   1.588
 2625SOL     OW 7883   3.799   0.345   0.033
 2625SOL    HW1 7884   3.707   0.317   0.004
 2625SOL    HW2 7885   3.830   0.422  -0.023
 2626SOL     OW 7886   3.796   0.166   0.318
 2626SOL    HW1 7887   3.779   0.249   0.264
 2626SOL    HW2 7888   3.886   0.129   0.296
 2627SOL     OW 7889   4.337   0.842   1.431
 2627SOL    HW1 7890   4.393   0.923   1.414
 2627SOL    HW2 7891   4.396   0.762   1.434
 2628SOL     OW 7892   4.440   0.565   1.708
 2628SOL    HW1 7893   4.459   0.630   1.782
 2628SOL    HW2 7894   4.500   0.485   1.717
 2629SOL     OW 7895   4.114   1.741   1.560
 2629SOL    HW1 7896   4.023   1.782   1.558
 2629SOL    HW2 7897   4.107   1.647   1.592
 2630SOL     OW 7898   4.318   0.745   0.652
 2630SOL    HW1 7899   4.368   0.830   0.633
 2630SOL    HW2 7900   4.230   0.747   0.604
 2631SOL     OW 7901   4.385   1.790   0.953
 2631SOL    HW1 7902   4.339   1.878   0.940
 2631SOL    HW2 7903   4.484   1.802   0.946
 2632SOL     OW 7904   3.945   1.314   1.844
 2632SOL    HW1 7905   3.880   1.241   1.823
 2632SOL    HW2 7906   3.949   1.328   1.942
 2633SOL     OW 7907   3.803   1.240   0.653
 2633SOL    HW1 7908   3.802   1.193   0.741
 2633SOL    HW2 7909   3.885   1.212   0.602
 2634SOL     OW 7910   4.396   1.391   1.624
 2634SOL    HW1 7911   4.318   1.341   1.662
 2634SOL    HW2 7912   4.393   1.486   1.655
 2635SOL     OW 7913   4.152   0.424   0.520
 2635SOL    HW1 7914   4.182   0.352   0.458
 2635SOL    HW2 7915   4.113   0.384   0.603
 2636SOL     OW 7916   4.041   0.547   1.280
 2636SOL    HW1 7917   4.079   0.488   1.352
 2636SOL    HW2 7918   4.081   0.521   1.192
 2637SOL     OW 7919   4.536   1.586   0.687
 2637SOL    HW1 7920   4.568   1.596   0.593
 2637SOL    HW2 7921   4.457   1.524   0.689
 2638SOL     OW 7922   4.725   0.034   1.154
 2638SOL    HW1 7923   4.662  -0.038   1.123
 2638SOL    HW2 7924   4.818  -0.002   1.154
 2639SOL     OW 7925   4.342   1.567   1.284
 2639SOL    HW1 7926   4.337   1.649   1.341
 2639SOL    HW2 7927   4.431   1.564   1.239
 2640SOL     OW 7928   3.763   1.077   0.300
 2640SOL    HW1 7929   3.862   1.066   0.291
 2640SOL    HW2 7930   3.723   0.991   0.332
 2641SOL     OW 7931   3.954   0.628   1.975
 2641SOL    HW1 7932   3.861   0.626   2.012
 2641SOL    HW2 7933   3.955   0.589   1.883
 2642SOL     OW 7934   3.949   0.275   2.858
 2642SOL    HW1 7935   3.984   0.258   2.950
 2642SOL    HW2 7936   3.861   0.230   2.846
 2643SOL     OW 7937   3.743   0.368   2.509
 2643SOL    HW1 7938   3.661   0.411   2.548
 2643SOL    HW2 7939   3.715   0.295   2.446
 2644SOL     OW 7940   4.293   1.275   3.027
 2644SOL    HW1 7941   4.200   1.268   2.990
 2644SOL    HW2 7942   4.304   1.364   3.071
 2645SOL     OW 7943   4.574   0.798   3.685
 2645SOL    HW1 7944   4.570   0.874   3.750
 2645SOL    HW2 7945   4.596   0.834   3.594
 2646SOL     OW 7946   4.409   1.012   2.527
 2646SOL    HW1 7947   4.478   0.996   2.597
 2646SOL    HW2 7948   4.336   1.069   2.565
 2647SOL     OW 7949   4.410   1.161   3.665
 2647SOL    HW1 7950   4.470   1.240   3.679
 2647SOL    HW2 7951   4.324   1.192   3.624
 2648SOL     OW 7952   4.059   1.435   2.923
 2648SOL    HW1 7953   3.981   1.404   2.870
 2648SOL    HW2 7954   4.117   1.493   2.866
 2649SOL     OW 7955   4.162   0.392   3.361
 2649SOL    HW1 7956   4.244   0.336   3.370
 2649SOL    HW2 7957   4.081   0.334   3.365
 2650SOL     OW 7958   3.955   1.713   2.345
 2650SOL    HW1 7959   3.989   1.790   2.399
 2650SOL    HW2 7960   3.999   1.713   2.255
 2651SOL     OW 7961   3.954   1.434   2.400
 2651SOL    HW1 7962   3.928   1.530   2.400
 2651SOL    HW2 7963   3.883   1.380   2.445
 2652SOL     OW 7964   3.964   1.091   2.748
 2652SOL    HW1 7965   3.978   1.007   2.800
 2652SOL    HW2 7966   3.909   1.155   2.803
 2653SOL     OW 7967   4.344   1.786   3.301
 2653SOL    HW1 7968   4.252   1.769   3.336
 2653SOL    HW2 7969   4.372   1.878   3.327
 2654SOL     OW 7970   4.330   0.964   1.985
 2654SOL    HW1 7971   4.337   1.048   1.931
 2654SOL    HW2 7972   4.376   0.977   2.073
 2655SOL     OW 7973   3.846   0.643   2.425
 2655SOL    HW1 7974   3.801   0.555   2.442
 2655SOL    HW2 7975   3.845   0.697   2.509
 2656SOL     OW 7976   3.751   1.596   1.979
 2656SOL    HW1 7977   3.732   1.500   2.000
 2656SOL    HW2 7978   3.718   1.654   2.054
 2657SOL     OW 7979   3.837   0.737   3.459
 2657SOL    HW1 7980   3.925   0.724   3.504
 2657SOL    HW2 7981   3.824   0.834   3.437
 2658SOL     OW 7982   4.337   1.365   2.588
 2658SOL    HW1 7983   4.288   1.278   2.597
 2658SOL    HW2 7984   4.314   1.408   2.501
 2659SOL     OW 7985   4.533   0.004   2.364
 2659SOL    HW1 7986   4.573   0.095   2.355
 2659SOL    HW2 7987   4.433   0.012   2.370
 2660SOL     OW 7988   3.921   0.976   3.126
 2660SOL    HW1 7989   4.010   0.931   3.112
 2660SOL    HW2 7990   3.848   0.911   3.107
 2661SOL     OW 7991   4.041   0.251   3.663
 2661SOL    HW1 7992   4.112   0.322   3.669
 2661SOL    HW2 7993   3.953   0.290   3.691
 2662SOL     OW 7994   4.322   0.729   2.132
 2662SOL    HW1 7995   4.346   0.798   2.064
 2662SOL    HW2 7996   4.244   0.762   2.186
 2663SOL     OW 7997   3.800   0.811   2.651
 2663SOL    HW1 7998   3.899   0.799   2.660
 2663SOL    HW2 7999   3.776   0.906   2.672
 2664SOL     OW 8000   3.854   1.821   3.433
 2664SOL    HW1 8001   3.844   1.806   3.532
 2664SOL    HW2 8002   3.768   1.857   3.397
 2665SOL     OW 8003   4.274   0.196   2.747
 2665SOL    HW1 8004   4.269   0.191   2.847
 2665SOL    HW2 8005   4.276   0.292   2.718
 2666SOL     OW 8006   4.075   1.801   2.715
 2666SOL    HW1 8007   4.125   1.715   2.721
 2666SOL    HW2 8008   4.140   1.878   2.712
 2667SOL     OW 8009   4.045   0.943   2.104
 2667SOL    HW1 8010   4.127   0.982   2.062
 2667SOL    HW2 8011   4.018   0.861   2.055
 2668SOL     OW 8012   4.185   1.266   3.589
 2668SOL    HW1 8013   4.135   1.267   3.503
 2668SOL    HW2 8014   4.122   1.248   3.665
 2669SOL     OW 8015   3.926   0.285   3.360
 2669SOL    HW1 8016   3.846   0.345   3.347
 2669SOL    HW2 8017   3.916   0.236   3.446
 2670SOL     OW 8018   4.188   1.743   2.185
 2670SOL    HW1 8019   4.221   1.782   2.271
 2670SOL    HW2 8020   4.264   1.736   2.120
 2671SOL     OW 8021   3.973   1.785   3.103
 2671SOL    HW1 8022   4.030   1.720   3.153
 2671SOL    HW2 8023   3.957   1.752   3.010
 2672SOL     OW 8024   4.106   0.700   2.342
 2672SOL    HW1 8025   4.151   0.610   2.339
 2672SOL    HW2 8026   4.012   0.689   2.375
 2673SOL     OW 8027   4.338   0.122   1.979
 2673SOL    HW1 8028   4.436   0.100   1.986
 2673SOL    HW2 8029   4.307   0.105   1.886
 2674SOL     OW 8030   4.527   1.402   2.786
 2674SOL    HW1 8031   4.617   1.416   2.744
 2674SOL    HW2 8032   4.456   1.404   2.715
 2675SOL     OW 8033   4.646   0.503   2.761
 2675SOL    HW1 8034   4.621   0.494   2.665
 2675SOL    HW2 8035   4.694   0.421   2.792
 2676SOL     OW 8036   4.263   0.064   2.374
 2676SOL    HW1 8037   4.182   0.065   2.432
 2676SOL    HW2 8038   4.266   0.147   2.319
 2677SOL     OW 8039   4.021   0.035   2.033
 2677SOL    HW1 8040   4.070   0.119   2.012
 2677SOL    HW2 8041   4.083  -0.030   2.078
 2678SOL     OW 8042   4.183   1.152   2.603
 2678SOL    HW1 8043   4.112   1.125   2.668
 2678SOL    HW2 8044   4.157   1.124   2.510
 2679SOL     OW 8045   3.802   0.556   3.248
 2679SOL    HW1 8046   3.894   0.555   3.207
 2679SOL    HW2 8047   3.796   0.630   3.315
 2680SOL     OW 8048   4.285   0.222   3.009
 2680SOL    HW1 8049   4.323   0.138   3.046
 2680SOL    HW2 8050   4.197   0.241   3.053
 2681SOL     OW 8051   4.212   1.385   2.036
 2681SOL    HW1 8052   4.125   1.370   2.083
 2681SOL    HW2 8053   4.195   1.411   1.941
 2682SOL     OW 8054   4.251   0.256   2.190
 2682SOL    HW1 8055   4.278   0.197   2.115
 2682SOL    HW2 8056   4.251   0.351   2.159
 2683SOL     OW 8057   4.639   0.089   3.264
 2683SOL    HW1 8058   4.664   0.069   3.169
 2683SOL    HW2 8059   4.711   0.145   3.306
 2684SOL     OW 8060   4.134   0.813   3.113
 2684SOL    HW1 8061   4.220   0.825   3.163
 2684SOL    HW2 8062   4.092   0.726   3.140
 2685SOL     OW 8063   3.788   1.564   3.193
 2685SOL    HW1 8064   3.742   1.646   3.159
 2685SOL    HW2 8065   3.886   1.583   3.202
 2686SOL     OW 8066   4.091   1.100   2.363
 2686SOL    HW1 8067   4.084   1.183   2.307
 2686SOL    HW2 8068   4.095   1.020   2.303
 2687SOL     OW 8069   4.290   0.537   2.727
 2687SOL    HW1 8070   4.302   0.603   2.653
 2687SOL    HW2 8071   4.336   0.571   2.810
 2688SOL     OW 8072   4.078   1.510   3.191
 2688SOL    HW1 8073   4.057   1.466   3.104
 2688SOL    HW2 8074   4.175   1.536   3.194
 2689SOL     OW 8075   4.126   0.751   3.460
 2689SOL    HW1 8076   4.194   0.806   3.413
 2689SOL    HW2 8077   4.166   0.663   3.487
 2690SOL     OW 8078   4.228   0.050   3.602
 2690SOL    HW1 8079   4.186  -0.007   3.532
 2690SOL    HW2 8080   4.162   0.119   3.634
 2691SOL     OW 8081   4.297   0.870   2.891
 2691SOL    HW1 8082   4.341   0.959   2.882
 2691SOL    HW2 8083   4.234   0.870   2.968
 2692SOL     OW 8084   4.031   0.213   3.093
 2692SOL    HW1 8085   4.008   0.250   3.183
 2692SOL    HW2 8086   4.001   0.118   3.087
 2693SOL     OW 8087   3.761   1.310   3.144
 2693SOL    HW1 8088   3.814   1.261   3.212
 2693SOL    HW2 8089   3.783   1.408   3.149
 2694SOL     OW 8090   4.456   0.634   2.926
 2694SOL    HW1 8091   4.515   0.608   2.850
 2694SOL    HW2 8092   4.428   0.730   2.915
 2695SOL     OW 8093   4.031   0.063   2.480
 2695SOL    HW1 8094   4.020   0.157   2.513
 2695SOL    HW2 8095   4.026   0.000   2.557
 2696SOL     OW 8096   4.074   0.898   3.666
 2696SOL    HW1 8097   4.150   0.942   3.714
 2696SOL    HW2 8098   4.109   0.851   3.584
 2697SOL     OW 8099   4.792   1.333   2.711
 2697SOL    HW1 8100   4.799   1.249   2.656
 2697SOL    HW2 8101   4.854   1.402   2.675
 2698SOL     OW 8102   4.043   0.810   2.811
 2698SOL    HW1 8103   4.136   0.846   2.816
 2698SOL    HW2 8104   4.037   0.725   2.863
 2699SOL     OW 8105   4.063   0.509   2.868
 2699SOL    HW1 8106   4.011   0.426   2.851
 2699SOL    HW2 8107   4.140   0.514   2.804
 2700SOL     OW 8108   3.732   1.326   2.062
 2700SOL    HW1 8109   3.639   1.347   2.031
 2700SOL    HW2 8110   3.742   1.227   2.075
 2701SOL     OW 8111   3.812   1.801   2.789
 2701SOL    HW1 8112   3.770   1.715   2.762
 2701SOL    HW2 8113   3.906   1.804   2.755
 2702SOL     OW 8114   4.228   1.568   2.772
 2702SOL    HW1 8115   4.294   1.642   2.781
 2702SOL    HW2 8116   4.272   1.489   2.730
 2703SOL     OW 8117   3.764   0.544   2.976
 2703SOL    HW1 8118   3.849   0.511   2.935
 2703SOL    HW2 8119   3.777   0.559   3.074
 2704SOL     OW 8120   3.913   0.520   3.584
 2704SOL    HW1 8121   3.972   0.480   3.514
 2704SOL    HW2 8122   3.855   0.591   3.543
 2705SOL     OW 8123   4.539   0.572   2.187
 2705SOL    HW1 8124   4.546   0.483   2.141
 2705SOL    HW2 8125   4.445   0.606   2.179
 2706SOL     OW 8126   3.976   1.564   3.606
 2706SOL    HW1 8127   3.946   1.621   3.682
 2706SOL    HW2 8128   3.969   1.467   3.632
 2707SOL     OW 8129   4.395   0.464   3.131
 2707SOL    HW1 8130   4.361   0.375   3.101
 2707SOL    HW2 8131   4.421   0.518   3.051
 2708SOL     OW 8132   4.197   0.500   2.053
 2708SOL    HW1 8133   4.258   0.580   2.057
 2708SOL    HW2 8134   4.102   0.531   2.060
 2709SOL     OW 8135   3.883   1.137   3.328
 2709SOL    HW1 8136   3.905   1.076   3.404
 2709SOL    HW2 8137   3.893   1.088   3.242
 2710SOL     OW 8138   3.807   1.258   2.884
 2710SOL    HW1 8139   3.802   1.257   2.984
 2710SOL    HW2 8140   3.724   1.217   2.846
 2711SOL     OW 8141   4.412   1.662   3.578
 2711SOL    HW1 8142   4.356   1.743   3.587
 2711SOL    HW2 8143   4.464   1.666   3.492
 2712SOL     OW 8144   3.854   1.794   3.713
 2712SOL    HW1 8145   3.813   1.720   3.766
 2712SOL    HW2 8146   3.918   1.845   3.771
 2713SOL     OW 8147   4.396   1.616   2.016
 2713SOL    HW1 8148   4.405   1.626   1.917
 2713SOL    HW2 8149   4.356   1.527   2.037
 2714SOL     OW 8150   3.987   0.326   2.582
 2714SOL    HW1 8151   3.908   0.377   2.548
 2714SOL    HW2 8152   3.978   0.311   2.680
 2715SOL     OW 8153   4.546   1.002   3.234
 2715SOL    HW1 8154   4.586   1.001   3.142
 2715SOL    HW2 8155   4.556   1.094   3.274
 2716SOL     OW 8156   4.096   1.288   3.352
 2716SOL    HW1 8157   4.083   1.381   3.318
 2716SOL    HW2 8158   4.012   1.236   3.339
 2717SOL     OW 8159   4.314   1.487   2.353
 2717SOL    HW1 8160   4.356   1.429   2.283
 2717SOL    HW2 8161   4.270   1.566   2.309
 2718SOL     OW 8162   3.979   1.348   2.152
 2718SOL    HW1 8163   3.883   1.349   2.125
 2718SOL    HW2 8164   3.991   1.401   2.236
 2719SOL     OW 8165   3.829   1.013   3.588
 2719SOL    HW1 8166   3.752   0.980   3.642
 2719SOL    HW2 8167   3.914   0.983   3.630
 2720SOL     OW 8168   4.396   0.203   3.351
 2720SOL    HW1 8169   4.486   0.187   3.311
 2720SOL    HW2 8170   4.404   0.208   3.450
 2721SOL     OW 8171   3.799   0.345   1.895
 2721SOL    HW1 8172   3.707   0.317   1.866
 2721SOL    HW2 8173   3.830   0.422   1.839
 2722SOL     OW 8174   3.796   0.166   2.180
 2722SOL    HW1 8175   3.779   0.249   2.126
 2722SOL    HW2 8176   3.886   0.129   2.158
 2723SOL     OW 8177   4.337   0.842   3.293
 2723SOL    HW1 8178   4.393   0.923   3.276
 2723SOL    HW2 8179   4.396   0.762   3.296
 2724SOL     OW 8180   4.440   0.565   3.570
 2724SOL    HW1 8181   4.459   0.630   3.644
 2724SOL    HW2 8182   4.500   0.485   3.579
 2725SOL     OW 8183   4.114   1.741   3.422
 2725SOL    HW1 8184   4.023   1.782   3.420
 2725SOL    HW2 8185   4.107   1.647   3.454
 2726SOL     OW 8186   4.318   0.745   2.514
 2726SOL    HW1 8187   4.368   0.830   2.495
 2726SOL    HW2 8188   4.230   0.747   2.466
 2727SOL     OW 8189   4.385   1.790   2.815
 2727SOL    HW1 8190   4.339   1.878   2.802
 2727SOL    HW2 8191   4.484   1.802   2.808
 2728SOL     OW 8192   3.945   1.314   3.706
 2728SOL    HW1 8193   3.880   1.241   3.685
 2728SOL    HW2 8194   3.949   1.328   3.804
 2729SOL     OW 8195   3.803   1.240   2.515
 2729SOL    HW1 8196   3.802   1.193   2.603
 2729SOL    HW2 8197   3.885   1.212   2.464
 2730SOL     OW 8198   4.396   1.391   3.486
 2730SOL    HW1 8199   4.318   1.341   3.524
 2730SOL    HW2 8200   4.393   1.486   3.517
 2731SOL     OW 8201   4.152   0.424   2.382
 2731SOL    HW1 8202   4.182   0.352   2.320
 2731SOL    HW2 8203   4.113   0.384   2.465
 2732SOL     OW 8204   4.041   0.547   3.142
 2732SOL    HW1 8205   4.079   0.488   3.214
 2732SOL    HW2 8206   4.081   0.521   3.054
 2733SOL     OW 8207   4.536   1.586   2.549
 2733SOL    HW1 8208   4.568   1.596   2.455
 2733SOL    HW2 8209   4.457   1.524   2.551
 2734SOL     OW 8210   4.725   0.034   3.016
 2734SOL    HW1 8211   4.662  -0.038   2.985
 2734SOL    HW2 8212   4.818  -0.002   3.016
 2735SOL     OW 8213   4.342   1.567   3.146
 2735SOL    HW1 8214   4.337   1.649   3.203
 2735SOL    HW2 8215   4.431   1.564   3.101
 2736SOL     OW 8216   3.763   1.077   2.162
 2736SOL    HW1 8217   3.862   1.066   2.153
 2736SOL    HW2 8218   3.723   0.991   2.194
 2737SOL     OW 8219   3.954   0.628   3.837
 2737SOL    HW1 8220   3.861   0.626   3.874
 2737SOL    HW2 8221   3.955   0.589   3.745
 2738SOL     OW 8222   3.949   0.275   4.720
 2738SOL    HW1 8223   3.984   0.258   4.812
 2738SOL    HW2 8224   3.861   0.230   4.708
 2739SOL     OW 8225   3.743   0.368   4.371
 2739SOL    HW1 8226   3.661   0.411   4.410
 2739SOL    HW2 8227   3.715   0.295   4.308
 2740SOL     OW 8228   4.409   1.012   4.389
 2740SOL    HW1 8229   4.478   0.996   4.459
 2740SOL    HW2 8230   4.336   1.069   4.427
 2741SOL     OW 8231   3.955   1.713   4.207
 2741SOL    HW1 8232   3.989   1.790   4.261
 2741SOL    HW2 8233   3.999   1.713   4.117
 2742SOL     OW 8234   3.954   1.434   4.262
 2742SOL    HW1 8235   3.928   1.530   4.262
 2742SOL    HW2 8236   3.883   1.380   4.307
 2743SOL     OW 8237   3.964   1.091   4.610
 2743SOL    HW1 8238   3.978   1.007   4.662
 2743SOL    HW2 8239   3.909   1.155   4.665
 2744SOL     OW 8240   4.330   0.964   3.847
 2744SOL    HW1 8241   4.337   1.048   3.793
 2744SOL    HW2 8242   4.376   0.977   3.935
 2745SOL     OW 8243   3.846   0.643   4.287
 2745SOL    HW1 8244   3.801   0.555   4.304
 2745SOL    HW2 8245   3.845   0.697   4.371
 2746SOL     OW 8246   3.751   1.596   3.841
 2746SOL    HW1 8247   3.732   1.500   3.862
 2746SOL    HW2 8248   3.718   1.654   3.916
 2747SOL     OW 8249   4.337   1.365   4.450
 2747SOL    HW1 8250   4.288   1.278   4.459
 2747SOL    HW2 8251   4.314   1.408   4.363
 2748SOL     OW 8252   4.533   0.004   4.226
 2748SOL    HW1 8253   4.573   0.095   4.217
 2748SOL    HW2 8254   4.433   0.012   4.232
 2749SOL     OW 8255   4.322   0.729   3.994
 2749SOL    HW1 8256   4.346   0.798   3.926
 2749SOL    HW2 8257   4.244   0.762   4.048
 2750SOL     OW 8258   3.800   0.811   4.513
 2750SOL    HW1 8259   3.899   0.799   4.522
 2750SOL    HW2 8260   3.776   0.906   4.534
 2751SOL     OW 8261   4.075   1.801   4.577
 2751SOL    HW1 8262   4.125   1.715   4.583
 2751SOL    HW2 8263   4.140   1.878   4.574
 2752SOL     OW 8264   4.045   0.943   3.966
 2752SOL    HW1 8265   4.127   0.982   3.924
 2752SOL    HW2 8266   4.018   0.861   3.917
 2753SOL     OW 8267   4.188   1.743   4.047
 2753SOL    HW1 8268   4.221   1.782   4.133
 2753SOL    HW2 8269   4.264   1.736   3.982
 2754SOL     OW 8270   4.106   0.700   4.204
 2754SOL    HW1 8271   4.151   0.610   4.201
 2754SOL    HW2 8272   4.012   0.689   4.237
 2755SOL     OW 8273   4.338   0.122   3.841
 2755SOL    HW1 8274   4.436   0.100   3.848
 2755SOL    HW2 8275   4.307   0.105   3.748
 2756SOL     OW 8276   4.263   0.064   4.236
 2756SOL    HW1 8277   4.182   0.065   4.294
 2756SOL    HW2 8278   4.266   0.147   4.181
 2757SOL     OW 8279   4.021   0.035   3.895
 2757SOL    HW1 8280   4.070   0.119   3.874
 2757SOL    HW2 8281   4.083  -0.030   3.940
 2758SOL     OW 8282   4.183   1.152   4.465
 2758SOL    HW1 8283   4.112   1.125   4.530
 2758SOL    HW2 8284   4.157   1.124   4.372
 2759SOL     OW 8285   4.212   1.385   3.898
 2759SOL    HW1 8286   4.125   1.370   3.945
 2759SOL    HW2 8287   4.195   1.411   3.803
 2760SOL     OW 8288   4.251   0.256   4.052
 2760SOL    HW1 8289   4.278   0.197   3.977
 2760SOL    HW2 8290   4.251   0.351   4.021
 2761SOL     OW 8291   4.091   1.100   4.225
 2761SOL    HW1 8292   4.084   1.183   4.169
 2761SOL    HW2 8293   4.095   1.020   4.165
 2762SOL     OW 8294   4.031   0.063   4.342
 2762SOL    HW1 8295   4.020   0.157   4.375
 2762SOL    HW2 8296   4.026   0.000   4.419
 2763SOL     OW 8297   4.792   1.333   4.573
 2763SOL    HW1 8298   4.799   1.249   4.518
 2763SOL    HW2 8299   4.854   1.402   4.537
 2764SOL     OW 8300   3.732   1.326   3.924
 2764SOL    HW1 8301   3.639   1.347   3.893
 2764SOL    HW2 8302   3.742   1.227   3.937
 2765SOL     OW 8303   4.539   0.572   4.049
 2765SOL    HW1 8304   4.546   0.483   4.003
 2765SOL    HW2 8305   4.445   0.606   4.041
 2766SOL     OW 8306   4.197   0.500   3.915
 2766SOL    HW1 8307   4.258   0.580   3.919
 2766SOL    HW2 8308   4.102   0.531   3.922
 2767SOL     OW 8309   4.396   1.616   3.878
 2767SOL    HW1 8310   4.405   1.626   3.779
 2767SOL    HW2 8311   4.356   1.527   3.899
 2768SOL     OW 8312   3.987   0.326   4.444
 2768SOL    HW1 8313   3.908   0.377   4.410
 2768SOL    HW2 8314   3.978   0.311   4.542
 2769SOL     OW 8315   4.314   1.487   4.215
 2769SOL    HW1 8316   4.356   1.429   4.145
 2769SOL    HW2 8317   4.270   1.566   4.171
 2770SOL     OW 8318   3.979   1.348   4.014
 2770SOL    HW1 8319   3.883   1.349   3.987
 2770SOL    HW2 8320   3.991   1.401   4.098
 2771SOL     OW 8321   3.799   0.345   3.757
 2771SOL    HW1 8322   3.707   0.317   3.728
 2771SOL    HW2 8323   3.830   0.422   3.701
 2772SOL     OW 8324   3.796   0.166   4.042
 2772SOL    HW1 8325   3.779   0.249   3.988
 2772SOL    HW2 8326   3.886   0.129   4.020
 2773SOL     OW 8327   4.318   0.745   4.376
 2773SOL    HW1 8328   4.368   0.830   4.357
 2773SOL    HW2 8329   4.230   0.747   4.328
 2774SOL     OW 8330   4.385   1.790   4.677
 2774SOL    HW1 8331   4.339   1.878   4.664
 2774SOL    HW2 8332   4.484   1.802   4.670
 2775SOL     OW 8333   3.803   1.240   4.377
 2775SOL    HW1 8334   3.802   1.193   4.465
 2775SOL    HW2 8335   3.885   1.212   4.326
 2776SOL     OW 8336   4.152   0.424   4.244
 2776SOL    HW1 8337   4.182   0.352   4.182
 2776SOL    HW2 8338   4.113   0.384   4.327
 2777SOL     OW 8339   4.536   1.586   4.411
 2777SOL    HW1 8340   4.568   1.596   4.317
 2777SOL    HW2 8341   4.457   1.524   4.413
 2778SOL     OW 8342   3.763   1.077   4.024
 2778SOL    HW1 8343   3.862   1.066   4.015
 2778SOL    HW2 8344   3.723   0.991   4.056
 2779SOL     OW 8345   3.954   2.490   0.113
 2779SOL    HW1 8346   3.861   2.488   0.150
 2779SOL    HW2 8347   3.955   2.451   0.021
 2780SOL     OW 8348   3.949   2.137   0.996
 2780SOL    HW1 8349   3.984   2.120   1.088
 2780SOL    HW2 8350   3.861   2.092   0.984
 2781SOL     OW 8351   3.743   2.230   0.647
 2781SOL    HW1 8352   3.661   2.273   0.686
 2781SOL    HW2 8353   3.715   2.157   0.584
 2782SOL     OW 8354   4.293   3.137   1.165
 2782SOL    HW1 8355   4.200   3.130   1.128
 2782SOL    HW2 8356   4.304   3.226   1.209
 2783SOL     OW 8357   4.574   2.660   1.823
 2783SOL    HW1 8358   4.570   2.736   1.888
 2783SOL    HW2 8359   4.596   2.696   1.732
 2784SOL     OW 8360   4.409   2.874   0.665
 2784SOL    HW1 8361   4.478   2.858   0.735
 2784SOL    HW2 8362   4.336   2.931   0.703
 2785SOL     OW 8363   4.410   3.023   1.803
 2785SOL    HW1 8364   4.470   3.102   1.817
 2785SOL    HW2 8365   4.324   3.054   1.762
 2786SOL     OW 8366   4.059   3.297   1.061
 2786SOL    HW1 8367   3.981   3.266   1.008
 2786SOL    HW2 8368   4.117   3.355   1.004
 2787SOL     OW 8369   4.162   2.254   1.499
 2787SOL    HW1 8370   4.244   2.198   1.508
 2787SOL    HW2 8371   4.081   2.196   1.503
 2788SOL     OW 8372   3.955   3.575   0.483
 2788SOL    HW1 8373   3.989   3.652   0.537
 2788SOL    HW2 8374   3.999   3.575   0.393
 2789SOL     OW 8375   3.954   3.296   0.538
 2789SOL    HW1 8376   3.928   3.392   0.538
 2789SOL    HW2 8377   3.883   3.242   0.583
 2790SOL     OW 8378   3.964   2.953   0.886
 2790SOL    HW1 8379   3.978   2.869   0.938
 2790SOL    HW2 8380   3.909   3.017   0.941
 2791SOL     OW 8381   4.344   3.648   1.439
 2791SOL    HW1 8382   4.252   3.631   1.474
 2791SOL    HW2 8383   4.372   3.740   1.465
 2792SOL     OW 8384   4.330   2.826   0.123
 2792SOL    HW1 8385   4.337   2.910   0.069
 2792SOL    HW2 8386   4.376   2.839   0.211
 2793SOL     OW 8387   3.846   2.505   0.563
 2793SOL    HW1 8388   3.801   2.417   0.580
 2793SOL    HW2 8389   3.845   2.559   0.647
 2794SOL     OW 8390   3.751   3.458   0.117
 2794SOL    HW1 8391   3.732   3.362   0.138
 2794SOL    HW2 8392   3.718   3.516   0.192
 2795SOL     OW 8393   3.837   2.599   1.597
 2795SOL    HW1 8394   3.925   2.586   1.642
 2795SOL    HW2 8395   3.824   2.696   1.575
 2796SOL     OW 8396   4.337   3.227   0.726
 2796SOL    HW1 8397   4.288   3.140   0.735
 2796SOL    HW2 8398   4.314   3.270   0.639
 2797SOL     OW 8399   4.533   1.866   0.502
 2797SOL    HW1 8400   4.573   1.957   0.493
 2797SOL    HW2 8401   4.433   1.874   0.508
 2798SOL     OW 8402   3.921   2.838   1.264
 2798SOL    HW1 8403   4.010   2.793   1.250
 2798SOL    HW2 8404   3.848   2.773   1.245
 2799SOL     OW 8405   4.041   2.113   1.801
 2799SOL    HW1 8406   4.112   2.184   1.807
 2799SOL    HW2 8407   3.953   2.152   1.829
 2800SOL     OW 8408   4.322   2.591   0.270
 2800SOL    HW1 8409   4.346   2.660   0.202
 2800SOL    HW2 8410   4.244   2.624   0.324
 2801SOL     OW 8411   3.800   2.673   0.789
 2801SOL    HW1 8412   3.899   2.661   0.798
 2801SOL    HW2 8413   3.776   2.768   0.810
 2802SOL     OW 8414   3.854   3.683   1.571
 2802SOL    HW1 8415   3.844   3.668   1.670
 2802SOL    HW2 8416   3.768   3.719   1.535
 2803SOL     OW 8417   4.274   2.058   0.885
 2803SOL    HW1 8418   4.269   2.053   0.985
 2803SOL    HW2 8419   4.276   2.154   0.856
 2804SOL     OW 8420   4.075   3.663   0.853
 2804SOL    HW1 8421   4.125   3.577   0.859
 2804SOL    HW2 8422   4.140   3.740   0.850
 2805SOL     OW 8423   4.045   2.805   0.242
 2805SOL    HW1 8424   4.127   2.844   0.200
 2805SOL    HW2 8425   4.018   2.723   0.193
 2806SOL     OW 8426   4.185   3.128   1.727
 2806SOL    HW1 8427   4.135   3.129   1.641
 2806SOL    HW2 8428   4.122   3.110   1.803
 2807SOL     OW 8429   3.926   2.147   1.498
 2807SOL    HW1 8430   3.846   2.207   1.485
 2807SOL    HW2 8431   3.916   2.098   1.584
 2808SOL     OW 8432   4.188   3.605   0.323
 2808SOL    HW1 8433   4.221   3.644   0.409
 2808SOL    HW2 8434   4.264   3.598   0.258
 2809SOL     OW 8435   3.973   3.647   1.241
 2809SOL    HW1 8436   4.030   3.582   1.291
 2809SOL    HW2 8437   3.957   3.614   1.148
 2810SOL     OW 8438   4.106   2.562   0.480
 2810SOL    HW1 8439   4.151   2.472   0.477
 2810SOL    HW2 8440   4.012   2.551   0.513
 2811SOL     OW 8441   4.527   3.264   0.924
 2811SOL    HW1 8442   4.617   3.278   0.882
 2811SOL    HW2 8443   4.456   3.266   0.853
 2812SOL     OW 8444   4.646   2.365   0.899
 2812SOL    HW1 8445   4.621   2.356   0.803
 2812SOL    HW2 8446   4.694   2.283   0.930
 2813SOL     OW 8447   4.263   1.926   0.512
 2813SOL    HW1 8448   4.182   1.927   0.570
 2813SOL    HW2 8449   4.266   2.009   0.457
 2814SOL     OW 8450   4.021   1.897   0.171
 2814SOL    HW1 8451   4.070   1.981   0.150
 2814SOL    HW2 8452   4.083   1.832   0.216
 2815SOL     OW 8453   4.183   3.014   0.741
 2815SOL    HW1 8454   4.112   2.987   0.806
 2815SOL    HW2 8455   4.157   2.986   0.648
 2816SOL     OW 8456   3.802   2.418   1.386
 2816SOL    HW1 8457   3.894   2.417   1.345
 2816SOL    HW2 8458   3.796   2.492   1.453
 2817SOL     OW 8459   4.285   2.084   1.147
 2817SOL    HW1 8460   4.323   2.000   1.184
 2817SOL    HW2 8461   4.197   2.103   1.191
 2818SOL     OW 8462   4.212   3.247   0.174
 2818SOL    HW1 8463   4.125   3.232   0.221
 2818SOL    HW2 8464   4.195   3.273   0.079
 2819SOL     OW 8465   4.251   2.118   0.328
 2819SOL    HW1 8466   4.278   2.059   0.253
 2819SOL    HW2 8467   4.251   2.213   0.297
 2820SOL     OW 8468   4.639   1.951   1.402
 2820SOL    HW1 8469   4.664   1.931   1.307
 2820SOL    HW2 8470   4.711   2.007   1.444
 2821SOL     OW 8471   4.134   2.675   1.251
 2821SOL    HW1 8472   4.220   2.687   1.301
 2821SOL    HW2 8473   4.092   2.588   1.278
 2822SOL     OW 8474   3.788   3.426   1.331
 2822SOL    HW1 8475   3.742   3.508   1.297
 2822SOL    HW2 8476   3.886   3.445   1.340
 2823SOL     OW 8477   4.091   2.962   0.501
 2823SOL    HW1 8478   4.084   3.045   0.445
 2823SOL    HW2 8479   4.095   2.882   0.441
 2824SOL     OW 8480   4.290   2.399   0.865
 2824SOL    HW1 8481   4.302   2.465   0.791
 2824SOL    HW2 8482   4.336   2.433   0.948
 2825SOL     OW 8483   4.078   3.372   1.329
 2825SOL    HW1 8484   4.057   3.328   1.242
 2825SOL    HW2 8485   4.175   3.398   1.332
 2826SOL     OW 8486   4.126   2.613   1.598
 2826SOL    HW1 8487   4.194   2.668   1.551
 2826SOL    HW2 8488   4.166   2.525   1.625
 2827SOL     OW 8489   4.228   1.912   1.740
 2827SOL    HW1 8490   4.186   1.855   1.670
 2827SOL    HW2 8491   4.162   1.981   1.772
 2828SOL     OW 8492   4.297   2.732   1.029
 2828SOL    HW1 8493   4.341   2.821   1.020
 2828SOL    HW2 8494   4.234   2.732   1.106
 2829SOL     OW 8495   4.031   2.075   1.231
 2829SOL    HW1 8496   4.008   2.112   1.321
 2829SOL    HW2 8497   4.001   1.980   1.225
 2830SOL     OW 8498   3.761   3.172   1.282
 2830SOL    HW1 8499   3.814   3.123   1.350
 2830SOL    HW2 8500   3.783   3.270   1.287
 2831SOL     OW 8501   4.456   2.496   1.064
 2831SOL    HW1 8502   4.515   2.470   0.988
 2831SOL    HW2 8503   4.428   2.592   1.053
 2832SOL     OW 8504   4.031   1.925   0.618
 2832SOL    HW1 8505   4.020   2.019   0.651
 2832SOL    HW2 8506   4.026   1.862   0.695
 2833SOL     OW 8507   4.074   2.760   1.804
 2833SOL    HW1 8508   4.150   2.804   1.852
 2833SOL    HW2 8509   4.109   2.713   1.722
 2834SOL     OW 8510   4.792   3.195   0.849
 2834SOL    HW1 8511   4.799   3.111   0.794
 2834SOL    HW2 8512   4.854   3.264   0.813
 2835SOL     OW 8513   4.043   2.672   0.949
 2835SOL    HW1 8514   4.136   2.708   0.954
 2835SOL    HW2 8515   4.037   2.587   1.001
 2836SOL     OW 8516   4.063   2.371   1.006
 2836SOL    HW1 8517   4.011   2.288   0.989
 2836SOL    HW2 8518   4.140   2.376   0.942
 2837SOL     OW 8519   3.732   3.188   0.200
 2837SOL    HW1 8520   3.639   3.209   0.169
 2837SOL    HW2 8521   3.742   3.089   0.213
 2838SOL     OW 8522   3.812   3.663   0.927
 2838SOL    HW1 8523   3.770   3.577   0.900
 2838SOL    HW2 8524   3.906   3.666   0.893
 2839SOL     OW 8525   4.228   3.430   0.910
 2839SOL    HW1 8526   4.294   3.504   0.919
 2839SOL    HW2 8527   4.272   3.351   0.868
 2840SOL     OW 8528   3.764   2.406   1.114
 2840SOL    HW1 8529   3.849   2.373   1.073
 2840SOL    HW2 8530   3.777   2.421   1.212
 2841SOL     OW 8531   3.913   2.382   1.722
 2841SOL    HW1 8532   3.972   2.342   1.652
 2841SOL    HW2 8533   3.855   2.453   1.681
 2842SOL     OW 8534   3.976   3.426   1.744
 2842SOL    HW1 8535   3.946   3.483   1.820
 2842SOL    HW2 8536   3.969   3.329   1.770
 2843SOL     OW 8537   4.395   2.326   1.269
 2843SOL    HW1 8538   4.361   2.237   1.239
 2843SOL    HW2 8539   4.421   2.380   1.189
 2844SOL     OW 8540   4.197   2.362   0.191
 2844SOL    HW1 8541   4.258   2.442   0.195
 2844SOL    HW2 8542   4.102   2.393   0.198
 2845SOL     OW 8543   3.883   2.999   1.466
 2845SOL    HW1 8544   3.905   2.938   1.542
 2845SOL    HW2 8545   3.893   2.950   1.380
 2846SOL     OW 8546   3.807   3.120   1.022
 2846SOL    HW1 8547   3.802   3.119   1.122
 2846SOL    HW2 8548   3.724   3.079   0.984
 2847SOL     OW 8549   4.412   3.524   1.716
 2847SOL    HW1 8550   4.356   3.605   1.725
 2847SOL    HW2 8551   4.464   3.528   1.630
 2848SOL     OW 8552   3.854   3.656   1.851
 2848SOL    HW1 8553   3.813   3.582   1.904
 2848SOL    HW2 8554   3.918   3.707   1.909
 2849SOL     OW 8555   4.396   3.478   0.154
 2849SOL    HW1 8556   4.405   3.488   0.055
 2849SOL    HW2 8557   4.356   3.389   0.175
 2850SOL     OW 8558   3.987   2.188   0.720
 2850SOL    HW1 8559   3.908   2.239   0.686
 2850SOL    HW2 8560   3.978   2.173   0.818
 2851SOL     OW 8561   4.546   2.864   1.372
 2851SOL    HW1 8562   4.586   2.863   1.280
 2851SOL    HW2 8563   4.556   2.956   1.412
 2852SOL     OW 8564   4.096   3.150   1.490
 2852SOL    HW1 8565   4.083   3.243   1.456
 2852SOL    HW2 8566   4.012   3.098   1.477
 2853SOL     OW 8567   4.314   3.349   0.491
 2853SOL    HW1 8568   4.356   3.291   0.421
 2853SOL    HW2 8569   4.270   3.428   0.447
 2854SOL     OW 8570   3.979   3.210   0.290
 2854SOL    HW1 8571   3.883   3.211   0.263
 2854SOL    HW2 8572   3.991   3.263   0.374
 2855SOL     OW 8573   3.829   2.875   1.726
 2855SOL    HW1 8574   3.752   2.842   1.780
 2855SOL    HW2 8575   3.914   2.845   1.768
 2856SOL     OW 8576   4.396   2.065   1.489
 2856SOL    HW1 8577   4.486   2.049   1.449
 2856SOL    HW2 8578   4.404   2.070   1.588
 2857SOL     OW 8579   3.799   2.207   0.033
 2857SOL    HW1 8580   3.707   2.179   0.004
 2857SOL    HW2 8581   3.830   2.284  -0.023
 2858SOL     OW 8582   3.796   2.028   0.318
 2858SOL    HW1 8583   3.779   2.111   0.264
 2858SOL    HW2 8584   3.886   1.991   0.296
 2859SOL     OW 8585   4.337   2.704   1.431
 2859SOL    HW1 8586   4.393   2.785   1.414
 2859SOL    HW2 8587   4.396   2.624   1.434
 2860SOL     OW 8588   4.440   2.427   1.708
 2860SOL    HW1 8589   4.459   2.492   1.782
 2860SOL    HW2 8590   4.500   2.347   1.717
 2861SOL     OW 8591   4.114   3.603   1.560
 2861SOL    HW1 8592   4.023   3.644   1.558
 2861SOL    HW2 8593   4.107   3.509   1.592
 2862SOL     OW 8594   4.318   2.607   0.652
 2862SOL    HW1 8595   4.368   2.692   0.633
 2862SOL    HW2 8596   4.230   2.609   0.604
 2863SOL     OW 8597   4.385   3.652   0.953
 2863SOL    HW1 8598   4.339   3.740   0.940
 2863SOL    HW2 8599   4.484   3.664   0.946
 2864SOL     OW 8600   3.945   3.176   1.844
 2864SOL    HW1 8601   3.880   3.103   1.823
 2864SOL    HW2 8602   3.949   3.190   1.942
 2865SOL     OW 8603   3.803   3.102   0.653
 2865SOL    HW1 8604   3.802   3.055   0.741
 2865SOL    HW2 8605   3.885   3.074   0.602
 2866SOL     OW 8606   4.396   3.253   1.624
 2866SOL    HW1 8607   4.318   3.203   1.662
 2866SOL    HW2 8608   4.393   3.348   1.655
 2867SOL     OW 8609   4.152   2.286   0.520
 2867SOL    HW1 8610   4.182   2.214   0.458
 2867SOL    HW2 8611   4.113   2.246   0.603
 2868SOL     OW 8612   4.041   2.409   1.280
 2868SOL    HW1 8613   4.079   2.350   1.352
 2868SOL    HW2 8614   4.081   2.383   1.192
 2869SOL     OW 8615   4.536   3.448   0.687
 2869SOL    HW1 8616   4.568   3.458   0.593
 2869SOL    HW2 8617   4.457   3.386   0.689
 2870SOL     OW 8618   4.342   3.429   1.284
 2870SOL    HW1 8619   4.337   3.511   1.341
 2870SOL    HW2 8620   4.431   3.426   1.239
 2871SOL     OW 8621   3.763   2.939   0.300
 2871SOL    HW1 8622   3.862   2.928   0.291
 2871SOL    HW2 8623   3.723   2.853   0.332
 2872SOL     OW 8624   3.954   2.490   1.975
 2872SOL    HW1 8625   3.861   2.488   2.012
 2872SOL    HW2 8626   3.955   2.451   1.883
 2873SOL     OW 8627   3.949   2.137   2.858
 2873SOL    HW1 8628   3.984   2.120   2.950
 2873SOL    HW2 8629   3.861   2.092   2.846
 2874SOL     OW 8630   3.743   2.230   2.509
 2874SOL    HW1 8631   3.661   2.273   2.548
 2874SOL    HW2 8632   3.715   2.157   2.446
 2875SOL     OW 8633   4.293   3.137   3.027
 2875SOL    HW1 8634   4.200   3.130   2.990
 2875SOL    HW2 8635   4.304   3.226   3.071
 2876SOL     OW 8636   4.574   2.660   3.685
 2876SOL    HW1 8637   4.570   2.736   3.750
 2876SOL    HW2 8638   4.596   2.696   3.594
 2877SOL     OW 8639   4.409   2.874   2.527
 2877SOL    HW1 8640   4.478   2.858   2.597
 2877SOL    HW2 8641   4.336   2.931   2.565
 2878SOL     OW 8642   4.410   3.023   3.665
 2878SOL    HW1 8643   4.470   3.102   3.679
 2878SOL    HW2 8644   4.324   3.054   3.624
 2879SOL     OW 8645   4.059   3.297   2.923
 2879SOL    HW1 8646   3.981   3.266   2.870
 2879SOL    HW2 8647   4.117   3.355   2.866
 2880SOL     OW 8648   4.162   2.254   3.361
 2880SOL    HW1 8649   4.244   2.198   3.370
 2880SOL    HW2 8650   4.081   2.196   3.365
 2881SOL     OW 8651   3.955   3.575   2.345
 2881SOL    HW1 8652   3.989   3.652   2.399
 2881SOL    HW2 8653   3.999   3.575   2.255
 2882SOL     OW 8654   3.954   3.296   2.400
 2882SOL    HW1 8655   3.928   3.392   2.400
 2882SOL    HW2 8656   3.883   3.242   2.445
 2883SOL     OW 8657   3.964   2.953   2.748
 2883SOL    HW1 8658   3.978   2.869   2.800
 2883SOL    HW2 8659   3.909   3.017   2.803
 2884SOL     OW 8660   4.344   3.648   3.301
 2884SOL    HW1 8661   4.252   3.631   3.336
 2884SOL    HW2 8662   4.372   3.740   3.327
 2885SOL     OW 8663   4.330   2.826   1.985
 2885SOL    HW1 8664   4.337   2.910   1.931
 2885SOL    HW2 8665   4.376   2.839   2.073
 2886SOL     OW 8666   3.846   2.505   2.425
 2886SOL    HW1 8667   3.801   2.417   2.442
 2886SOL    HW2 8668   3.845   2.559   2.509
 2887SOL     OW 8669   3.751   3.458   1.979
 2887SOL    HW1 8670   3.732   3.362   2.000
 2887SOL    HW2 8671   3.718   3.516   2.054
 2888SOL     OW 8672   3.837   2.599   3.459
 2888SOL    HW1 8673   3.925   2.586   3.504
 2888SOL    HW2 8674   3.824   2.696   3.437
 2889SOL     OW 8675   4.337   3.227   2.588
 2889SOL    HW1 8676   4.288   3.140   2.597
 2889SOL    HW2 8677   4.314   3.270   2.501
 2890SOL     OW 8678   4.533   1.866   2.364
 2890SOL    HW1 8679   4.573   1.957   2.355
 2890SOL    HW2 8680   4.433   1.874   2.370
 2891SOL     OW 8681   3.921   2.838   3.126
 2891SOL    HW1 8682   4.010   2.793   3.112
 2891SOL    HW2 8683   3.848   2.773   3.107
 2892SOL     OW 8684   4.041   2.113   3.663
 2892SOL    HW1 8685   4.112   2.184   3.669
 2892SOL    HW2 8686   3.953   2.152   3.691
 2893SOL     OW 8687   4.322   2.591   2.132
 2893SOL    HW1 8688   4.346   2.660   2.064
 2893SOL    HW2 8689   4.244   2.624   2.186
 2894SOL     OW 8690   3.800   2.673   2.651
 2894SOL    HW1 8691   3.899   2.661   2.660
 2894SOL    HW2 8692   3.776   2.768   2.672
 2895SOL     OW 8693   3.854   3.683   3.433
 2895SOL    HW1 8694   3.844   3.668   3.532
 2895SOL    HW2 8695   3.768   3.719   3.397
 2896SOL     OW 8696   4.274   2.058   2.747
 2896SOL    HW1 8697   4.269   2.053   2.847
 2896SOL    HW2 8698   4.276   2.154   2.718
 2897SOL     OW 8699   4.075   3.663   2.715
 2897SOL    HW1 8700   4.125   3.577   2.721
 2897SOL    HW2 8701   4.140   3.740   2.712
 2898SOL     OW 8702   4.045   2.805   2.104
 2898SOL    HW1 8703   4.127   2.844   2.062
 2898SOL    HW2 8704   4.018   2.723   2.055
 2899SOL     OW 8705   4.185   3.128   3.589
 2899SOL    HW1 8706   4.135   3.129   3.503
 2899SOL    HW2 8707   4.122   3.110   3.665
 2900SOL     OW 8708   3.926   2.147   3.360
 2900SOL    HW1 8709   3.846   2.207   3.347
 2900SOL    HW2 8710   3.916   2.098   3.446
 2901SOL     OW 8711   4.188   3.605   2.185
 2901SOL    HW1 8712   4.221   3.644   2.271
 2901SOL    HW2 8713   4.264   3.598   2.120
 2902SOL     OW 8714   3.973   3.647   3.103
 2902SOL    HW1 8715   4.030   3.582   3.153
 2902SOL    HW2 8716   3.957   3.614   3.010
 2903SOL     OW 8717   4.106   2.562   2.342
 2903SOL    HW1 8718   4.151   2.472   2.339
 2903SOL    HW2 8719   4.012   2.551   2.375
 2904SOL     OW 8720   4.338   1.984   1.979
 2904SOL    HW1 8721   4.436   1.962   1.986
 2904SOL    HW2 8722   4.307   1.967   1.886
 2905SOL     OW 8723   4.527   3.264   2.786
 2905SOL    HW1 8724   4.617   3.278   2.744
 2905SOL    HW2 8725   4.456   3.266   2.715
 2906SOL     OW 8726   4.646   2.365   2.761
 2906SOL    HW1 8727   4.621   2.356   2.665
 2906SOL    HW2 8728   4.694   2.283   2.792
 2907SOL     OW 8729   4.263   1.926   2.374
 2907SOL    HW1 8730   4.182   1.927   2.432
 2907SOL    HW2 8731   4.266   2.009   2.319
 2908SOL     OW 8732   4.021   1.897   2.033
 2908SOL    HW1 8733   4.070   1.981   2.012
 2908SOL    HW2 8734   4.083   1.832   2.078
 2909SOL     OW 8735   4.183   3.014   2.603
 2909SOL    HW1 8736   4.112   2.987   2.668
 2909SOL    HW2 8737   4.157   2.986   2.510
 2910SOL     OW 8738   3.802   2.418   3.248
 2910SOL    HW1 8739   3.894   2.417   3.207
 2910SOL    HW2 8740   3.796   2.492   3.315
 2911SOL     OW 8741   4.285   2.084   3.009
 2911SOL    HW1 8742   4.323   2.000   3.046
 2911SOL    HW2 8743   4.197   2.103   3.053
 2912SOL     OW 8744   4.212   3.247   2.036
 2912SOL    HW1 8745   4.125   3.232   2.083
 2912SOL    HW2 8746   4.195   3.273   1.941
 2913SOL     OW 8747   4.251   2.118   2.190
 2913SOL    HW1 8748   4.278   2.059   2.115
 2913SOL    HW2 8749   4.251   2.213   2.159
 2914SOL     OW 8750   4.639   1.951   3.264
 2914SOL    HW1 8751   4.664   1.931   3.169
 2914SOL    HW2 8752   4.711   2.007   3.306
 2915SOL     OW 8753   4.134   2.675   3.113
 2915SOL    HW1 8754   4.220   2.687   3.163
 2915SOL    HW2 8755   4.092   2.588   3.140
 2916SOL     OW 8756   3.788   3.426   3.193
 2916SOL    HW1 8757   3.742   3.508   3.159
 2916SOL    HW2 8758   3.886   3.445   3.202
 2917SOL     OW 8759   4.091   2.962   2.363
 2917SOL    HW1 8760   4.084   3.045   2.307
 2917SOL    HW2 8761   4.095   2.882   2.303
 2918SOL     OW 8762   4.290   2.399   2.727
 2918SOL    HW1 8763   4.302   2.465   2.653
 2918SOL    HW2 8764   4.336   2.433   2.810
 2919SOL     OW 8765   4.078   3.372   3.191
 2919SOL    HW1 8766   4.057   3.328   3.104
 2919SOL    HW2 8767   4.175   3.398   3.194
 2920SOL     OW 8768   4.126   2.613   3.460
 2920SOL    HW1 8769   4.194   2.668   3.413
 2920SOL    HW2 8770   4.166   2.525   3.487
 2921SOL     OW 8771   4.228   1.912   3.602
 2921SOL    HW1 8772   4.186   1.855   3.532
 2921SOL    HW2 8773   4.162   1.981   3.634
 2922SOL     OW 8774   4.297   2.732   2.891
 2922SOL    HW1 8775   4.341   2.821   2.882
 2922SOL    HW2 8776   4.234   2.732   2.968
 2923SOL     OW 8777   4.031   2.075   3.093
 2923SOL    HW1 8778   4.008   2.112   3.183
 2923SOL    HW2 8779   4.001   1.980   3.087
 2924SOL     OW 8780   3.761   3.172   3.144
 2924SOL    HW1 8781   3.814   3.123   3.212
 2924SOL    HW2 8782   3.783   3.270   3.149
 2925SOL     OW 8783   4.456   2.496   2.926
 2925SOL    HW1 8784   4.515   2.470   2.850
 2925SOL    HW2 8785   4.428   2.592   2.915
 2926SOL     OW 8786   4.031   1.925   2.480
 2926SOL    HW1 8787   4.020   2.019   2.513
 2926SOL    HW2 8788   4.026   1.862   2.557
 2927SOL     OW 8789   4.074   2.760   3.666
 2927SOL    HW1 8790   4.150   2.804   3.714
 2927SOL    HW2 8791   4.109   2.713   3.584
 2928SOL     OW 8792   4.792   3.195   2.711
 2928SOL    HW1 8793   4.799   3.111   2.656
 2928SOL    HW2 8794   4.854   3.264   2.675
 2929SOL     OW 8795   4.043   2.672   2.811
 2929SOL    HW1 8796   4.136   2.708   2.816
 2929SOL    HW2 8797   4.037   2.587   2.863
 2930SOL     OW 8798   4.063   2.371   2.868
 2930SOL    HW1 8799   4.011   2.288   2.851
 2930SOL    HW2 8800   4.140   2.376   2.804
 2931SOL     OW 8801   3.732   3.188   2.062
 2931SOL    HW1 8802   3.639   3.209   2.031
 2931SOL    HW2 8803   3.742   3.089   2.075
 2932SOL     OW 8804   3.812   3.663   2.789
 2932SOL    HW1 8805   3.770   3.577   2.762
 2932SOL    HW2 8806   3.906   3.666   2.755
 2933SOL     OW 8807   4.228   3.430   2.772
 2933SOL    HW1 8808   4.294   3.504   2.781
 2933SOL    HW2 8809   4.272   3.351   2.730
 2934SOL     OW 8810   3.764   2.406   2.976
 2934SOL    HW1 8811   3.849   2.373   2.935
 2934SOL    HW2 8812   3.777   2.421   3.074
 2935SOL     OW 8813   3.913   2.382   3.584
 2935SOL    HW1 8814   3.972   2.342   3.514
 2935SOL    HW2 8815   3.855   2.453   3.543
 2936SOL     OW 8816   4.539   2.434   2.187
 2936SOL    HW1 8817   4.546   2.345   2.141
 2936SOL    HW2 8818   4.445   2.468   2.179
 2937SOL     OW 8819   3.976   3.426   3.606
 2937SOL    HW1 8820   3.946   3.483   3.682
 2937SOL    HW2 8821   3.969   3.329   3.632
 2938SOL     OW 8822   4.395   2.326   3.131
 2938SOL    HW1 8823   4.361   2.237   3.101
 2938SOL    HW2 8824   4.421   2.380   3.051
 2939SOL     OW 8825   4.197   2.362   2.053
 2939SOL    HW1 8826   4.258   2.442   2.057
 2939SOL    HW2 8827   4.102   2.393   2.060
 2940SOL     OW 8828   3.883   2.999   3.328
 2940SOL    HW1 8829   3.905   2.938   3.404
 2940SOL    HW2 8830   3.893   2.950   3.242
 2941SOL     OW 8831   3.807   3.120   2.884
 2941SOL    HW1 8832   3.802   3.119   2.984
 2941SOL    HW2 8833   3.724   3.079   2.846
 2942SOL     OW 8834   4.412   3.524   3.578
 2942SOL    HW1 8835   4.356   3.605   3.587
 2942SOL    HW2 8836   4.464   3.528   3.492
 2943SOL     OW 8837   3.854   3.656   3.713
 2943SOL    HW1 8838   3.813   3.582   3.766
 2943SOL    HW2 8839   3.918   3.707   3.771
 2944SOL     OW 8840   4.396   3.478   2.016
 2944SOL    HW1 8841   4.405   3.488   1.917
 2944SOL    HW2 8842   4.356   3.389   2.037
 2945SOL     OW 8843   3.987   2.188   2.582
 2945SOL    HW1 8844   3.908   2.239   2.548
 2945SOL    HW2 8845   3.978   2.173   2.680
 2946SOL     OW 8846   4.546   2.864   3.234
 2946SOL    HW1 8847   4.586   2.863   3.142
 2946SOL    HW2 8848   4.556   2.956   3.274
 2947SOL     OW 8849   4.096   3.150   3.352
 2947SOL    HW1 8850   4.083   3.243   3.318
 2947SOL    HW2 8851   4.012   3.098   3.339
 2948SOL     OW 8852   4.314   3.349   2.353
 2948SOL    HW1 8853   4.356   3.291   2.283
 2948SOL    HW2 8854   4.270   3.428   2.309
 2949SOL     OW 8855   3.979   3.210   2.152
 2949SOL    HW1 8856   3.883   3.211   2.125
 2949SOL    HW2 8857   3.991   3.263   2.236
 2950SOL     OW 8858   3.829   2.875   3.588
 2950SOL    HW1 8859   3.752   2.842   3.642
 2950SOL    HW2 8860   3.914   2.845   3.630
 2951SOL     OW 8861   4.396   2.065   3.351
 2951SOL    HW1 8862   4.486   2.049   3.311
 2951SOL    HW2 8863   4.404   2.070   3.450
 2952SOL     OW 8864   3.799   2.207   1.895
 2952SOL    HW1 8865   3.707   2.179   1.866
 2952SOL    HW2 8866   3.830   2.284   1.839
 2953SOL     OW 8867   3.796   2.028   2.180
 2953SOL    HW1 8868   3.779   2.111   2.126
 2953SOL    HW2 8869   3.886   1.991   2.158
 2954SOL     OW 8870   4.337   2.704   3.293
 2954SOL    HW1 8871   4.393   2.785   3.276
 2954SOL    HW2 8872   4.396   2.624   3.296
 2955SOL     OW 8873   4.440   2.427   3.570
 2955SOL    HW1 8874   4.459   2.492   3.644
 2955SOL    HW2 8875   4.500   2.347   3.579
 2956SOL     OW 8876   4.114   3.603   3.422
 2956SOL    HW1 8877   4.023   3.644   3.420
 2956SOL    HW2 8878   4.107   3.509   3.454
 2957SOL     OW 8879   4.318   2.607   2.514
 2957SOL    HW1 8880   4.368   2.692   2.495
 2957SOL    HW2 8881   4.230   2.609   2.466
 2958SOL     OW 8882   4.385   3.652   2.815
 2958SOL    HW1 8883   4.339   3.740   2.802
 2958SOL    HW2 8884   4.484   3.664   2.808
 2959SOL     OW 8885   3.945   3.176   3.706
 2959SOL    HW1 8886   3.880   3.103   3.685
 2959SOL    HW2 8887   3.949   3.190   3.804
 2960SOL     OW 8888   3.803   3.102   2.515
 2960SOL    HW1 8889   3.802   3.055   2.603
 2960SOL    HW2 8890   3.885   3.074   2.464
 2961SOL     OW 8891   4.396   3.253   3.486
 2961SOL    HW1 8892   4.318   3.203   3.524
 2961SOL    HW2 8893   4.393   3.348   3.517
 2962SOL     OW 8894   4.152   2.286   2.382
 2962SOL    HW1 8895   4.182   2.214   2.320
 2962SOL    HW2 8896   4.113   2.246   2.465
 2963SOL     OW 8897   4.041   2.409   3.142
 2963SOL    HW1 8898   4.079   2.350   3.214
 2963SOL    HW2 8899   4.081   2.383   3.054
 2964SOL     OW 8900   4.536   3.448   2.549
 2964SOL    HW1 8901   4.568   3.458   2.455
 2964SOL    HW2 8902   4.457   3.386   2.551
 2965SOL     OW 8903   4.342   3.429   3.146
 2965SOL    HW1 8904   4.337   3.511   3.203
 2965SOL    HW2 8905   4.431   3.426   3.101
 2966SOL     OW 8906   3.763   2.939   2.162
 2966SOL    HW1 8907   3.862   2.928   2.153
 2966SOL    HW2 8908   3.723   2.853   2.194
 2967SOL     OW 8909   3.954   2.490   3.837
 2967SOL    HW1 8910   3.861   2.488   3.874
 2967SOL    HW2 8911   3.955   2.451   3.745
 2968SOL     OW 8912   3.949   2.137   4.720
 2968SOL    HW1 8913   3.984   2.120   4.812
 2968SOL    HW2 8914   3.861   2.092   4.708
 2969SOL     OW 8915   3.743   2.230   4.371
 2969SOL    HW1 8916   3.661   2.273   4.410
 2969SOL    HW2 8917   3.715   2.157   4.308
 2970SOL     OW 8918   4.409   2.874   4.389
 2970SOL    HW1 8919   4.478   2.858   4.459
 2970SOL    HW2 8920   4.336   2.931   4.427
 2971SOL     OW 8921   3.955   3.575   4.207
 2971SOL    HW1 8922   3.989   3.652   4.261
 2971SOL    HW2 8923   3.999   3.575   4.117
 2972SOL     OW 8924   3.954   3.296   4.262
 2972SOL    HW1 8925   3.928   3.392   4.262
 2972SOL    HW2 8926   3.883   3.242   4.307
 2973SOL     OW 8927   3.964   2.953   4.610
 2973SOL    HW1 8928   3.978   2.869   4.662
 2973SOL    HW2 8929   3.909   3.017   4.665
 2974SOL     OW 8930   4.330   2.826   3.847
 2974SOL    HW1 8931   4.337   2.910   3.793
 2974SOL    HW2 8932   4.376   2.839   3.935
 2975SOL     OW 8933   3.846   2.505   4.287
 2975SOL    HW1 8934   3.801   2.417   4.304
 2975SOL    HW2 8935   3.845   2.559   4.371
 2976SOL     OW 8936   3.751   3.458   3.841
 2976SOL    HW1 8937   3.732   3.362   3.862
 2976SOL    HW2 8938   3.718   3.516   3.916
 2977SOL     OW 8939   4.337   3.227   4.450
 2977SOL    HW1 8940   4.288   3.140   4.459
 2977SOL    HW2 8941   4.314   3.270   4.363
 2978SOL     OW 8942   4.533   1.866   4.226
 2978SOL    HW1 8943   4.573   1.957   4.217
 2978SOL    HW2 8944   4.433   1.874   4.232
 2979SOL     OW 8945   4.322   2.591   3.994
 2979SOL    HW1 8946   4.346   2.660   3.926
 2979SOL    HW2 8947   4.244   2.624   4.048
 2980SOL     OW 8948   3.800   2.673   4.513
 2980SOL    HW1 8949   3.899   2.661   4.522
 2980SOL    HW2 8950   3.776   2.768   4.534
 2981SOL     OW 8951   4.075   3.663   4.577
 2981SOL    HW1 8952   4.125   3.577   4.583
 2981SOL    HW2 8953   4.140   3.740   4.574
 2982SOL     OW 8954   4.045   2.805   3.966
 2982SOL    HW1 8955   4.127   2.844   3.924
 2982SOL    HW2 8956   4.018   2.723   3.917
 2983SOL     OW 8957   4.188   3.605   4.047
 2983SOL    HW1 8958   4.221   3.644   4.133
 2983SOL    HW2 8959   4.264   3.598   3.982
 2984SOL     OW 8960   4.106   2.562   4.204
 2984SOL    HW1 8961   4.151   2.472   4.201
 2984SOL    HW2 8962   4.012   2.551   4.237
 2985SOL     OW 8963   4.338   1.984   3.841
 2985SOL    HW1 8964   4.436   1.962   3.848
 2985SOL    HW2 8965   4.307   1.967   3.748
 2986SOL     OW 8966   4.263   1.926   4.236
 2986SOL    HW1 8967   4.182   1.927   4.294
 2986SOL    HW2 8968   4.266   2.009   4.181
 2987SOL     OW 8969   4.021   1.897   3.895
 2987SOL    HW1 8970   4.070   1.981   3.874
 2987SOL    HW2 8971   4.083   1.832   3.940
 2988SOL     OW 8972   4.183   3.014   4.465
 2988SOL    HW1 8973   4.112   2.987   4.530
 2988SOL    HW2 8974   4.157   2.986   4.372
 2989SOL     OW 8975   4.212   3.247   3.898
 2989SOL    HW1 8976   4.125   3.232   3.945
 2989SOL    HW2 8977   4.195   3.273   3.803
 2990SOL     OW 8978   4.251   2.118   4.052
 2990SOL    HW1 8979   4.278   2.059   3.977
 2990SOL    HW2 8980   4.251   2.213   4.021
 2991SOL     OW 8981   4.091   2.962   4.225
 2991SOL    HW1 8982   4.084   3.045   4.169
 2991SOL    HW2 8983   4.095   2.882   4.165
 2992SOL     OW 8984   4.031   1.925   4.342
 2992SOL    HW1 8985   4.020   2.019   4.375
 2992SOL    HW2 8986   4.026   1.862   4.419
 2993SOL     OW 8987   4.792   3.195   4.573
 2993SOL    HW1 8988   4.799   3.111   4.518
 2993SOL    HW2 8989   4.854   3.264   4.537
 2994SOL     OW 8990   3.732   3.188   3.924
 2994SOL    HW1 8991   3.639   3.209   3.893
 2994SOL    HW2 8992   3.742   3.089   3.937
 2995SOL     OW 8993   4.539   2.434   4.049
 2995SOL    HW1 8994   4.546   2.345   4.003
 2995SOL    HW2 8995   4.445   2.468   4.041
 2996SOL     OW 8996   4.197   2.362   3.915
 2996SOL    HW1 8997   4.258   2.442   3.919
 2996SOL    HW2 8998   4.102   2.393   3.922
 2997SOL     OW 8999   4.396   3.478   3.878
 2997SOL    HW1 9000   4.405   3.488   3.779
 2997SOL    HW2 9001   4.356   3.389   3.899
 2998SOL     OW 9002   3.987   2.188   4.444
 2998SOL    HW1 9003   3.908   2.239   4.410
 2998SOL    HW2 9004   3.978   2.173   4.542
 2999SOL     OW 9005   4.314   3.349   4.215
 2999SOL    HW1 9006   4.356   3.291   4.145
 2999SOL    HW2 9007   4.270   3.428   4.171
 3000SOL     OW 9008   3.979   3.210   4.014
 3000SOL    HW1 9009   3.883   3.211   3.987
 3000SOL    HW2 9010   3.991   3.263   4.098
 3001SOL     OW 9011   3.799   2.207   3.757
 3001SOL    HW1 9012   3.707   2.179   3.728
 3001SOL    HW2 9013   3.830   2.284   3.701
 3002SOL     OW 9014   3.796   2.028   4.042
 3002SOL    HW1 9015   3.779   2.111   3.988
 3002SOL    HW2 9016   3.886   1.991   4.020
 3003SOL     OW 9017   4.318   2.607   4.376
 3003SOL    HW1 9018   4.368   2.692   4.357
 3003SOL    HW2 9019   4.230   2.609   4.328
 3004SOL     OW 9020   4.385   3.652   4.677
 3004SOL    HW1 9021   4.339   3.740   4.664
 3004SOL    HW2 9022   4.484   3.664   4.670
 3005SOL     OW 9023   3.803   3.102   4.377
 3005SOL    HW1 9024   3.802   3.055   4.465
 3005SOL    HW2 9025   3.885   3.074   4.326
 3006SOL     OW 9026   4.152   2.286   4.244
 3006SOL    HW1 9027   4.182   2.214   4.182
 3006SOL    HW2 9028   4.113   2.246   4.327
 3007SOL     OW 9029   4.536   3.448   4.411
 3007SOL    HW1 9030   4.568   3.458   4.317
 3007SOL    HW2 9031   4.457   3.386   4.413
 3008SOL     OW 9032   3.763   2.939   4.024
 3008SOL    HW1 9033   3.862   2.928   4.015
 3008SOL    HW2 9034   3.723   2.853   4.056
 3009SOL     OW 9035   3.954   4.352   0.113
 3009SOL    HW1 9036   3.861   4.350   0.150
 3009SOL    HW2 9037   3.955   4.313   0.021
 3010SOL     OW 9038   3.949   3.999   0.996
 3010SOL    HW1 9039   3.984   3.982   1.088
 3010SOL    HW2 9040   3.861   3.954   0.984
 3011SOL     OW 9041   3.743   4.092   0.647
 3011SOL    HW1 9042   3.661   4.135   0.686
 3011SOL    HW2 9043   3.715   4.019   0.584
 3012SOL     OW 9044   4.574   4.522   1.823
 3012SOL    HW1 9045   4.570   4.598   1.888
 3012SOL    HW2 9046   4.596   4.558   1.732
 3013SOL     OW 9047   4.409   4.736   0.665
 3013SOL    HW1 9048   4.478   4.720   0.735
 3013SOL    HW2 9049   4.336   4.793   0.703
 3014SOL     OW 9050   4.162   4.116   1.499
 3014SOL    HW1 9051   4.244   4.060   1.508
 3014SOL    HW2 9052   4.081   4.058   1.503
 3015SOL     OW 9053   3.846   4.367   0.563
 3015SOL    HW1 9054   3.801   4.279   0.580
 3015SOL    HW2 9055   3.845   4.421   0.647
 3016SOL     OW 9056   3.837   4.461   1.597
 3016SOL    HW1 9057   3.925   4.448   1.642
 3016SOL    HW2 9058   3.824   4.558   1.575
 3017SOL     OW 9059   4.533   3.728   0.502
 3017SOL    HW1 9060   4.573   3.819   0.493
 3017SOL    HW2 9061   4.433   3.736   0.508
 3018SOL     OW 9062   4.041   3.975   1.801
 3018SOL    HW1 9063   4.112   4.046   1.807
 3018SOL    HW2 9064   3.953   4.014   1.829
 3019SOL     OW 9065   4.322   4.453   0.270
 3019SOL    HW1 9066   4.346   4.522   0.202
 3019SOL    HW2 9067   4.244   4.486   0.324
 3020SOL     OW 9068   4.274   3.920   0.885
 3020SOL    HW1 9069   4.269   3.915   0.985
 3020SOL    HW2 9070   4.276   4.016   0.856
 3021SOL     OW 9071   3.926   4.009   1.498
 3021SOL    HW1 9072   3.846   4.069   1.485
 3021SOL    HW2 9073   3.916   3.960   1.584
 3022SOL     OW 9074   4.106   4.424   0.480
 3022SOL    HW1 9075   4.151   4.334   0.477
 3022SOL    HW2 9076   4.012   4.413   0.513
 3023SOL     OW 9077   4.646   4.227   0.899
 3023SOL    HW1 9078   4.621   4.218   0.803
 3023SOL    HW2 9079   4.694   4.145   0.930
 3024SOL     OW 9080   4.263   3.788   0.512
 3024SOL    HW1 9081   4.182   3.789   0.570
 3024SOL    HW2 9082   4.266   3.871   0.457
 3025SOL     OW 9083   4.021   3.759   0.171
 3025SOL    HW1 9084   4.070   3.843   0.150
 3025SOL    HW2 9085   4.083   3.694   0.216
 3026SOL     OW 9086   3.802   4.280   1.386
 3026SOL    HW1 9087   3.894   4.279   1.345
 3026SOL    HW2 9088   3.796   4.354   1.453
 3027SOL     OW 9089   4.285   3.946   1.147
 3027SOL    HW1 9090   4.323   3.862   1.184
 3027SOL    HW2 9091   4.197   3.965   1.191
 3028SOL     OW 9092   4.251   3.980   0.328
 3028SOL    HW1 9093   4.278   3.921   0.253
 3028SOL    HW2 9094   4.251   4.075   0.297
 3029SOL     OW 9095   4.639   3.813   1.402
 3029SOL    HW1 9096   4.664   3.793   1.307
 3029SOL    HW2 9097   4.711   3.869   1.444
 3030SOL     OW 9098   4.134   4.537   1.251
 3030SOL    HW1 9099   4.220   4.549   1.301
 3030SOL    HW2 9100   4.092   4.450   1.278
 3031SOL     OW 9101   4.290   4.261   0.865
 3031SOL    HW1 9102   4.302   4.327   0.791
 3031SOL    HW2 9103   4.336   4.295   0.948
 3032SOL     OW 9104   4.228   3.774   1.740
 3032SOL    HW1 9105   4.186   3.717   1.670
 3032SOL    HW2 9106   4.162   3.843   1.772
 3033SOL     OW 9107   4.031   3.937   1.231
 3033SOL    HW1 9108   4.008   3.974   1.321
 3033SOL    HW2 9109   4.001   3.842   1.225
 3034SOL     OW 9110   4.456   4.358   1.064
 3034SOL    HW1 9111   4.515   4.332   0.988
 3034SOL    HW2 9112   4.428   4.454   1.053
 3035SOL     OW 9113   4.031   3.787   0.618
 3035SOL    HW1 9114   4.020   3.881   0.651
 3035SOL    HW2 9115   4.026   3.724   0.695
 3036SOL     OW 9116   4.043   4.534   0.949
 3036SOL    HW1 9117   4.136   4.570   0.954
 3036SOL    HW2 9118   4.037   4.449   1.001
 3037SOL     OW 9119   4.063   4.233   1.006
 3037SOL    HW1 9120   4.011   4.150   0.989
 3037SOL    HW2 9121   4.140   4.238   0.942
 3038SOL     OW 9122   3.764   4.268   1.114
 3038SOL    HW1 9123   3.849   4.235   1.073
 3038SOL    HW2 9124   3.777   4.283   1.212
 3039SOL     OW 9125   3.913   4.244   1.722
 3039SOL    HW1 9126   3.972   4.204   1.652
 3039SOL    HW2 9127   3.855   4.315   1.681
 3040SOL     OW 9128   4.395   4.188   1.269
 3040SOL    HW1 9129   4.361   4.099   1.239
 3040SOL    HW2 9130   4.421   4.242   1.189
 3041SOL     OW 9131   4.197   4.224   0.191
 3041SOL    HW1 9132   4.258   4.304   0.195
 3041SOL    HW2 9133   4.102   4.255   0.198
 3042SOL     OW 9134   3.987   4.050   0.720
 3042SOL    HW1 9135   3.908   4.101   0.686
 3042SOL    HW2 9136   3.978   4.035   0.818
 3043SOL     OW 9137   3.829   4.737   1.726
 3043SOL    HW1 9138   3.752   4.704   1.780
 3043SOL    HW2 9139   3.914   4.707   1.768
 3044SOL     OW 9140   4.396   3.927   1.489
 3044SOL    HW1 9141   4.486   3.911   1.449
 3044SOL    HW2 9142   4.404   3.932   1.588
 3045SOL     OW 9143   3.799   4.069   0.033
 3045SOL    HW1 9144   3.707   4.041   0.004
 3045SOL    HW2 9145   3.830   4.146  -0.023
 3046SOL     OW 9146   3.796   3.890   0.318
 3046SOL    HW1 9147   3.779   3.973   0.264
 3046SOL    HW2 9148   3.886   3.853   0.296
 3047SOL     OW 9149   4.440   4.289   1.708
 3047SOL    HW1 9150   4.459   4.354   1.782
 3047SOL    HW2 9151   4.500   4.209   1.717
 3048SOL     OW 9152   4.318   4.469   0.652
 3048SOL    HW1 9153   4.368   4.554   0.633
 3048SOL    HW2 9154   4.230   4.471   0.604
 3049SOL     OW 9155   4.152   4.148   0.520
 3049SOL    HW1 9156   4.182   4.076   0.458
 3049SOL    HW2 9157   4.113   4.108   0.603
 3050SOL     OW 9158   4.041   4.271   1.280
 3050SOL    HW1 9159   4.079   4.212   1.352
 3050SOL    HW2 9160   4.081   4.245   1.192
 3051SOL     OW 9161   3.954   4.352   1.975
 3051SOL    HW1 9162   3.861   4.350   2.012
 3051SOL    HW2 9163   3.955   4.313   1.883
 3052SOL     OW 9164   3.949   3.999   2.858
 3052SOL    HW1 9165   3.984   3.982   2.950
 3052SOL    HW2 9166   3.861   3.954   2.846
 3053SOL     OW 9167   3.743   4.092   2.509
 3053SOL    HW1 9168   3.661   4.135   2.548
 3053SOL    HW2 9169   3.715   4.019   2.446
 3054SOL     OW 9170   4.574   4.522   3.685
 3054SOL    HW1 9171   4.570   4.598   3.750
 3054SOL    HW2 9172   4.596   4.558   3.594
 3055SOL     OW 9173   4.409   4.736   2.527
 3055SOL    HW1 9174   4.478   4.720   2.597
 3055SOL    HW2 9175   4.336   4.793   2.565
 3056SOL     OW 9176   4.162   4.116   3.361
 3056SOL    HW1 9177   4.244   4.060   3.370
 3056SOL    HW2 9178   4.081   4.058   3.365
 3057SOL     OW 9179   3.846   4.367   2.425
 3057SOL    HW1 9180   3.801   4.279   2.442
 3057SOL    HW2 9181   3.845   4.421   2.509
 3058SOL     OW 9182   3.837   4.461   3.459
 3058SOL    HW1 9183   3.925   4.448   3.504
 3058SOL    HW2 9184   3.824   4.558   3.437
 3059SOL     OW 9185   4.533   3.728   2.364
 3059SOL    HW1 9186   4.573   3.819   2.355
 3059SOL    HW2 9187   4.433   3.736   2.370
 3060SOL     OW 9188   4.041   3.975   3.663
 3060SOL    HW1 9189   4.112   4.046   3.669
 3060SOL    HW2 9190   3.953   4.014   3.691
 3061SOL     OW 9191   4.322   4.453   2.132
 3061SOL    HW1 9192   4.346   4.522   2.064
 3061SOL    HW2 9193   4.244   4.486   2.186
 3062SOL     OW 9194   4.274   3.920   2.747
 3062SOL    HW1 9195   4.269   3.915   2.847
 3062SOL    HW2 9196   4.276   4.016   2.718
 3063SOL     OW 9197   3.926   4.009   3.360
 3063SOL    HW1 9198   3.846   4.069   3.347
 3063SOL    HW2 9199   3.916   3.960   3.446
 3064SOL     OW 9200   4.106   4.424   2.342
 3064SOL    HW1 9201   4.151   4.334   2.339
 3064SOL    HW2 9202   4.012   4.413   2.375
 3065SOL     OW 9203   4.338   3.846   1.979
 3065SOL    HW1 9204   4.436   3.824   1.986
 3065SOL    HW2 9205   4.307   3.829   1.886
 3066SOL     OW 9206   4.646   4.227   2.761
 3066SOL    HW1 9207   4.621   4.218   2.665
 3066SOL    HW2 9208   4.694   4.145   2.792
 3067SOL     OW 9209   4.263   3.788   2.374
 3067SOL    HW1 9210   4.182   3.789   2.432
 3067SOL    HW2 9211   4.266   3.871   2.319
 3068SOL     OW 9212   4.021   3.759   2.033
 3068SOL    HW1 9213   4.070   3.843   2.012
 3068SOL    HW2 9214   4.083   3.694   2.078
 3069SOL     OW 9215   3.802   4.280   3.248
 3069SOL    HW1 9216   3.894   4.279   3.207
 3069SOL    HW2 9217   3.796   4.354   3.315
 3070SOL     OW 9218   4.285   3.946   3.009
 3070SOL    HW1 9219   4.323   3.862   3.046
 3070SOL    HW2 9220   4.197   3.965   3.053
 3071SOL     OW 9221   4.251   3.980   2.190
 3071SOL    HW1 9222   4.278   3.921   2.115
 3071SOL    HW2 9223   4.251   4.075   2.159
 3072SOL     OW 9224   4.639   3.813   3.264
 3072SOL    HW1 9225   4.664   3.793   3.169
 3072SOL    HW2 9226   4.711   3.869   3.306
 3073SOL     OW 9227   4.134   4.537   3.113
 3073SOL    HW1 9228   4.220   4.549   3.163
 3073SOL    HW2 9229   4.092   4.450   3.140
 3074SOL     OW 9230   4.290   4.261   2.727
 3074SOL    HW1 9231   4.302   4.327   2.653
 3074SOL    HW2 9232   4.336   4.295   2.810
 3075SOL     OW 9233   4.228   3.774   3.602
 3075SOL    HW1 9234   4.186   3.717   3.532
 3075SOL    HW2 9235   4.162   3.843   3.634
 3076SOL     OW 9236   4.031   3.937   3.093
 3076SOL    HW1 9237   4.008   3.974   3.183
 3076SOL    HW2 9238   4.001   3.842   3.087
 3077SOL     OW 9239   4.456   4.358   2.926
 3077SOL    HW1 9240   4.515   4.332   2.850
 3077SOL    HW2 9241   4.428   4.454   2.915
 3078SOL     OW 9242   4.031   3.787   2.480
 3078SOL    HW1 9243   4.020   3.881   2.513
 3078SOL    HW2 9244   4.026   3.724   2.557
 3079SOL     OW 9245   4.043   4.534   2.811
 3079SOL    HW1 9246   4.136   4.570   2.816
 3079SOL    HW2 9247   4.037   4.449   2.863
 3080SOL     OW 9248   4.063   4.233   2.868
 3080SOL    HW1 9249   4.011   4.150   2.851
 3080SOL    HW2 9250   4.140   4.238   2.804
 3081SOL     OW 9251   3.764   4.268   2.976
 3081SOL    HW1 9252   3.849   4.235   2.935
 3081SOL    HW2 9253   3.777   4.283   3.074
 3082SOL     OW 9254   3.913   4.244   3.584
 3082SOL    HW1 9255   3.972   4.204   3.514
 3082SOL    HW2 9256   3.855   4.315   3.543
 3083SOL     OW 9257   4.539   4.296   2.187
 3083SOL    HW1 9258   4.546   4.207   2.141
 3083SOL    HW2 9259   4.445   4.330   2.179
 3084SOL     OW 9260   4.395   4.188   3.131
 3084SOL    HW1 9261   4.361   4.099   3.101
 3084SOL    HW2 9262   4.421   4.242   3.051
 3085SOL     OW 9263   4.197   4.224   2.053
 3085SOL    HW1 9264   4.258   4.304   2.057
 3085SOL    HW2 9265   4.102   4.255   2.060
 3086SOL     OW 9266   3.987   4.050   2.582
 3086SOL    HW1 9267   3.908   4.101   2.548
 3086SOL    HW2 9268   3.978   4.035   2.680
 3087SOL     OW 9269   3.829   4.737   3.588
 3087SOL    HW1 9270   3.752   4.704   3.642
 3087SOL    HW2 9271   3.914   4.707   3.630
 3088SOL     OW 9272   4.396   3.927   3.351
 3088SOL    HW1 9273   4.486   3.911   3.311
 3088SOL    HW2 9274   4.404   3.932   3.450
 3089SOL     OW 9275   3.799   4.069   1.895
 3089SOL    HW1 9276   3.707   4.041   1.866
 3089SOL    HW2 9277   3.830   4.146   1.839
 3090SOL     OW 9278   3.796   3.890   2.180
 3090SOL    HW1 9279   3.779   3.973   2.126
 3090SOL    HW2 9280   3.886   3.853   2.158
 3091SOL     OW 9281   4.440   4.289   3.570
 3091SOL    HW1 9282   4.459   4.354   3.644
 3091SOL    HW2 9283   4.500   4.209   3.579
 3092SOL     OW 9284   4.318   4.469   2.514
 3092SOL    HW1 9285   4.368   4.554   2.495
 3092SOL    HW2 9286   4.230   4.471   2.466
 3093SOL     OW 9287   4.152   4.148   2.382
 3093SOL    HW1 9288   4.182   4.076   2.320
 3093SOL    HW2 9289   4.113   4.108   2.465
 3094SOL     OW 9290   4.041   4.271   3.142
 3094SOL    HW1 9291   4.079   4.212   3.214
 3094SOL    HW2 9292   4.081   4.245   3.054
 3095SOL     OW 9293   3.954   4.352   3.837
 3095SOL    HW1 9294   3.861   4.350   3.874
 3095SOL    HW2 9295   3.955   4.313   3.745
 3096SOL     OW 9296   3.949   3.999   4.720
 3096SOL    HW1 9297   3.984   3.982   4.812
 3096SOL    HW2 9298   3.861   3.954   4.708
 3097SOL     OW 9299   3.743   4.092   4.371
 3097SOL    HW1 9300   3.661   4.135   4.410
 3097SOL    HW2 9301   3.715   4.019   4.308
 3098SOL     OW 9302   4.409   4.736   4.389
 3098SOL    HW1 9303   4.478   4.720   4.459
 3098SOL    HW2 9304   4.336   4.793   4.427
 3099SOL     OW 9305   3.846   4.367   4.287
 3099SOL    HW1 9306   3.801   4.279   4.304
 3099SOL    HW2 9307   3.845   4.421   4.371
 3100SOL     OW 9308   4.533   3.728   4.226
 3100SOL    HW1 9309   4.573   3.819   4.217
 3100SOL    HW2 9310   4.433   3.736   4.232
 3101SOL     OW 9311   4.322   4.453   3.994
 3101SOL    HW1 9312   4.346   4.522   3.926
 3101SOL    HW2 9313   4.244   4.486   4.048
 3102SOL     OW 9314   4.106   4.424   4.204
 3102SOL    HW1 9315   4.151   4.334   4.201
 3102SOL    HW2 9316   4.012   4.413   4.237
 3103SOL     OW 9317   4.338   3.846   3.841
 3103SOL    HW1 9318   4.436   3.824   3.848
 3103SOL    HW2 9319   4.307   3.829   3.748
 3104SOL     OW 9320   4.263   3.788   4.236
 3104SOL    HW1 9321   4.182   3.789   4.294
 3104SOL    HW2 9322   4.266   3.871   4.181
 3105SOL     OW 9323   4.021   3.759   3.895
 3105SOL    HW1 9324   4.070   3.843   3.874
 3105SOL    HW2 9325   4.083   3.694   3.940
 3106SOL     OW 9326   4.251   3.980   4.052
 3106SOL    HW1 9327   4.278   3.921   3.977
 3106SOL    HW2 9328   4.251   4.075   4.021
 3107SOL     OW 9329   4.031   3.787   4.342
 3107SOL    HW1 9330   4.020   3.881   4.375
 3107SOL    HW2 9331   4.026   3.724   4.419
 3108SOL     OW 9332   4.539   4.296   4.049
 3108SOL    HW1 9333   4.546   4.207   4.003
 3108SOL    HW2 9334   4.445   4.330   4.041
 3109SOL     OW 9335   4.197   4.224   3.915
 3109SOL    HW1 9336   4.258   4.304   3.919
 3109SOL    HW2 9337   4.102   4.255   3.922
 3110SOL     OW 9338   3.987   4.050   4.444
 3110SOL    HW1 9339   3.908   4.101   4.410
 3110SOL    HW2 9340   3.978   4.035   4.542
 3111SOL     OW 9341   3.799   4.069   3.757
 3111SOL    HW1 9342   3.707   4.041   3.728
 3111SOL    HW2 9343   3.830   4.146   3.701
 3112SOL     OW 9344   3.796   3.890   4.042
 3112SOL    HW1 9345   3.779   3.973   3.988
 3112SOL    HW2 9346   3.886   3.853   4.020
 3113SOL     OW 9347   4.318   4.469   4.376
 3113SOL    HW1 9348   4.368   4.554   4.357
 3113SOL    HW2 9349   4.230   4.471   4.328
 3114SOL     OW 9350   4.152   4.148   4.244
 3114SOL    HW1 9351   4.182   4.076   4.182
 3114SOL    HW2 9352   4.113   4.108   4.327
   4.56318   4.56318   4.56318
