mobley_6303022_GMX.gro created by acpype (v: 2023.10.27) on Wed May 20 23:46:03 2026
   17
    1MOL     C1    1   2.187   2.303   2.259
    1MOL     C2    2   2.322   2.297   2.458
    1MOL     C3    3   2.099   2.218   2.323
    1MOL     C4    4   2.227   2.212   2.513
    1MOL     C5    5   2.301   2.343   2.329
    1MOL     C6    6   2.509   2.360   2.190
    1MOL     C7    7   2.400   2.435   2.265
    1MOL     N1    8   2.116   2.171   2.448
    1MOL     H1    9   2.168   2.337   2.158
    1MOL     H2   10   2.409   2.327   2.516
    1MOL     H3   11   2.009   2.184   2.273
    1MOL     H4   12   2.239   2.174   2.614
    1MOL     H5   13   2.564   2.293   2.257
    1MOL     H6   14   2.579   2.429   2.144
    1MOL     H7   15   2.465   2.298   2.110
    1MOL     H8   16   2.349   2.504   2.196
    1MOL     H9   17   2.447   2.500   2.341
   4.63369   4.63369   4.63369
