; mobley_2146331_GMX_OPLS.top created by acpype (v: 2023.10.27) on Wed May 20 23:53:28 2026

; Include forcefield parameters
#include "ffoplsaa.itp"

; Include mobley_2146331_GMX.itp topology
#include "mobley_2146331_GMX.itp"

; Ligand position restraints
#ifdef POSRES_LIG
#include "posre_mobley_2146331.itp"
#endif

[ system ]
 mobley_2146331

[ molecules ]
; Compound        nmols
 mobley_2146331   1     
