; mobley_2146331_GMX_OPLS.itp created by acpype (v: 2023.10.27) on Wed May 20 23:53:28 2026

; For OPLS atomtypes manual fine tuning
; AC_at:OPLS_at:OPLScode: Possible_Alternatives (see ffoplsaa.atp and ffoplsaanb.itp)
; c:C:opls_235: ['271']
; o:O:opls_236: ['272']
; h4:HA:opls_146: []

[ moleculetype ]
;name            nrexcl
 mobley_2146331   3

[ atoms ]
;   nr  type  resi  res  atom  cgnr     charge      mass       ; qtot   bond_type
     1 opls_235     1   MOL    C1    1     0.562700     12.01100 ; qtot  0.563  C   
     2 opls_236     1   MOL    O1    2    -0.515100     15.99940 ; qtot  0.048  O   
     3 opls_146     1   MOL    H1    3    -0.023800      1.00800 ; qtot  0.024  HA  
     4 opls_146     1   MOL    H2    4    -0.023800      1.00800 ; qtot -0.000  HA  

[ bonds ]
;   ai     aj funct   r             k
     1      2   1 ;    1.2190e-01    4.9421e+05 ;     C1 - O1          C - O     
     1      3   1 ;    1.1123e-01    2.6984e+05 ;     C1 - H1          C - HA    
     1      4   1 ;    1.1123e-01    2.6984e+05 ;     C1 - H2          C - HA    

[ angles ]
;   ai     aj     ak    funct   theta         cth
     2      1      3      1 ;    1.2062e+02    5.0191e+02 ;     O1 - C1   - H1        O -    C - HA  
     2      1      4      1 ;    1.2062e+02    5.0191e+02 ;     O1 - C1   - H2        O -    C - HA  
     3      1      4      1 ;    1.1531e+02    2.8535e+02 ;     H1 - C1   - H2       HA -    C - HA  

[ dihedrals ] ; impropers
; treated as propers in GROMACS to use correct AMBER analytical function
;    i      j      k      l   func   phase     kd      pn
     2      1      4      3      4 ;   180.00   4.60240   2 ;     O1-    C1-    H2-    H1
