; mobley_7532833_GMX_OPLS.top created by acpype (v: 2023.10.27) on Wed May 20 23:48:22 2026

; Include forcefield parameters
#include "ffoplsaa.itp"

; Include mobley_7532833_GMX.itp topology
#include "mobley_7532833_GMX.itp"

; Ligand position restraints
#ifdef POSRES_LIG
#include "posre_mobley_7532833.itp"
#endif

[ system ]
 mobley_7532833

[ molecules ]
; Compound        nmols
 mobley_7532833   1     
