mobley_7532833_GMX.gro created by acpype (v: 2023.10.27) on Wed May 20 23:48:22 2026
 6
    1  MOL   C1    1  -0.021   0.147   0.150
    1  MOL   C2    2   0.045   0.028   0.096
    1  MOL   N1    3  -0.072   0.241   0.194
    1  MOL   H1    4   0.151   0.047   0.079
    1  MOL   H2    5   0.000   0.000   0.000
    1  MOL   H3    6   0.035  -0.056   0.164
    4.47600     5.95600     3.87800
