; mobley_7532833_GMX.top created by acpype (v: 2023.10.27) on Wed May 20 23:48:22 2026

[ defaults ]
; nbfunc        comb-rule       gen-pairs       fudgeLJ fudgeQQ
1               2               yes             0.5     0.8333333333

; Include mobley_7532833_GMX.itp topology
#include "mobley_7532833_GMX.itp"

; Ligand position restraints
#ifdef POSRES_LIG
#include "posre_mobley_7532833.itp"
#endif

[ system ]
mobley_7532833 in water

[ molecules ]
; Compound        nmols
 mobley_7532833   1     
SOL              2622
