; mobley_7532833_GMX_OPLS.itp created by acpype (v: 2023.10.27) on Wed May 20 23:48:22 2026

; For OPLS atomtypes manual fine tuning
; AC_at:OPLS_at:OPLScode: Possible_Alternatives (see ffoplsaa.atp and ffoplsaanb.itp)
; c1:x:opls_x: []
; c3:CT:opls_135: ['136', '137', '149', '157', '158', '206', '209', '210', '223B', '224B', '245', '246', '274', '283', '284', '285', '292', '292B', '293B', '296', '307', '308', '505']
; n1:x:opls_x: []
; hc:HC:opls_140: []

[ moleculetype ]
;name            nrexcl
 mobley_7532833   3

[ atoms ]
;   nr  type  resi  res  atom  cgnr     charge      mass       ; qtot   bond_type
     1 opls_x     1   MOL    C1    1     0.208700      0.00000 ; qtot  0.209  x   
     2 opls_135     1   MOL    C2    2    -0.045000     12.01100 ; qtot  0.164  CT  
     3 opls_x     1   MOL    N1    3    -0.375800      0.00000 ; qtot -0.212  x   
     4 opls_140     1   MOL    H1    4     0.070700      1.00800 ; qtot -0.141  HC  
     5 opls_140     1   MOL    H2    5     0.070700      1.00800 ; qtot -0.071  HC  
     6 opls_140     1   MOL    H3    6     0.070700      1.00800 ; qtot -0.000  HC  

[ bonds ]
;   ai     aj funct   r             k
     1      2   1 ;    1.4656e-01    2.3814e+05 ;     C1 - C2          x - CT    
     1      3   1 ;    1.1619e-01    6.2865e+05 ;     C1 - N1          x - x     
     2      4   1 ;    1.0962e-01    2.8891e+05 ;     C2 - H1         CT - HC    
     2      5   1 ;    1.0962e-01    2.8891e+05 ;     C2 - H2         CT - HC    
     2      6   1 ;    1.0962e-01    2.8891e+05 ;     C2 - H3         CT - HC    

[ pairs ]
;   ai     aj    funct
     3      4      1 ;     N1 - H1    
     3      5      1 ;     N1 - H2    
     3      6      1 ;     N1 - H3    

[ angles ]
;   ai     aj     ak    funct   theta         cth
     1      2      4      1 ;    1.0945e+02    3.7765e+02 ;     C1 - C2   - H1        x -   CT - HC  
     1      2      5      1 ;    1.0945e+02    3.7765e+02 ;     C1 - C2   - H2        x -   CT - HC  
     1      2      6      1 ;    1.0945e+02    3.7765e+02 ;     C1 - C2   - H3        x -   CT - HC  
     2      1      3      1 ;    1.7866e+02    4.8049e+02 ;     C2 - C1   - N1       CT -    x - x   
     4      2      5      1 ;    1.0773e+02    2.9957e+02 ;     H1 - C2   - H2       HC -   CT - HC  
     4      2      6      1 ;    1.0773e+02    2.9957e+02 ;     H1 - C2   - H3       HC -   CT - HC  
     5      2      6      1 ;    1.0773e+02    2.9957e+02 ;     H2 - C2   - H3       HC -   CT - HC  

[ dihedrals ] ; propers
; for gromacs 4.5 or higher, using funct 9
;    i      j      k      l   func   phase     kd      pn
     3      1      2      4      9 ;   180.00   0.00000   2 ;     N1-    C1-    C2-    H1
     3      1      2      5      9 ;   180.00   0.00000   2 ;     N1-    C1-    C2-    H2
     3      1      2      6      9 ;   180.00   0.00000   2 ;     N1-    C1-    C2-    H3
