; mobley_6102880_GMX_OPLS.top created by acpype (v: 2023.10.27) on Wed May 20 23:57:56 2026

; Include forcefield parameters
#include "ffoplsaa.itp"

; Include mobley_6102880_GMX.itp topology
#include "mobley_6102880_GMX.itp"

; Ligand position restraints
#ifdef POSRES_LIG
#include "posre_mobley_6102880.itp"
#endif

[ system ]
 mobley_6102880

[ molecules ]
; Compound        nmols
 mobley_6102880   1     
