%VERSION  VERSION_STAMP = V0001.000  DATE = 05/20/26  23:58:00                  
%FLAG TITLE                                                                     
%FORMAT(20a4)                                                                   
SAMPL4_052                                                                      
%FLAG POINTERS                                                                  
%FORMAT(10I8)                                                                   
      23       3      10      14      20      17      42      22       0       0
     111       1      14      17      22       3       4       3       3       0
       0       0       0       0       0       0       0       0      23       0
       0
%FLAG ATOM_NAME                                                                 
%FORMAT(20a4)                                                                   
C1  C2  C3  C4  C5  C6  C7  C8  C9  C10 C11 C12 O1  H1  H2  H3  H4  H5  H6  H7  
H8  H9  H10 
%FLAG CHARGE                                                                    
%FORMAT(5E16.8)                                                                 
 -2.73334500E+00 -2.73334500E+00 -1.97711955E+00 -1.97711955E+00 -1.97711955E+00
 -1.97711955E+00 -2.87001225E+00 -2.87001225E+00 -2.87001225E+00 -2.87001225E+00
  1.91516373E+00  1.91516373E+00 -4.57744176E+00  2.44178820E+00  2.44178820E+00
  2.46001050E+00  2.46001050E+00  2.46001050E+00  2.46001050E+00  2.71512270E+00
  2.71512270E+00  2.71512270E+00  2.71512270E+00
%FLAG ATOMIC_NUMBER                                                             
%FORMAT(10I8)                                                                   
       6       6       6       6       6       6       6       6       6       6
       6       6       8       1       1       1       1       1       1       1
       1       1       1
%FLAG MASS                                                                      
%FORMAT(5E16.8)                                                                 
  1.20100000E+01  1.20100000E+01  1.20100000E+01  1.20100000E+01  1.20100000E+01
  1.20100000E+01  1.20100000E+01  1.20100000E+01  1.20100000E+01  1.20100000E+01
  1.20100000E+01  1.20100000E+01  1.60000000E+01  1.00800000E+00  1.00800000E+00
  1.00800000E+00  1.00800000E+00  1.00800000E+00  1.00800000E+00  1.00800000E+00
  1.00800000E+00  1.00800000E+00  1.00800000E+00
%FLAG ATOM_TYPE_INDEX                                                           
%FORMAT(10I8)                                                                   
       1       1       1       1       1       1       1       1       1       1
       1       1       2       3       3       3       3       3       3       3
       3       3       3
%FLAG NUMBER_EXCLUDED_ATOMS                                                     
%FORMAT(10I8)                                                                   
      10      10       9       8       9       8       8       7       8       7
       6       5       4       2       2       1       1       1       1       1
       1       1       1
%FLAG NONBONDED_PARM_INDEX                                                      
%FORMAT(10I8)                                                                   
       1       2       4       2       3       5       4       5       6
%FLAG RESIDUE_LABEL                                                             
%FORMAT(20a4)                                                                   
MOL 
%FLAG RESIDUE_POINTER                                                           
%FORMAT(10I8)                                                                   
       1
%FLAG BOND_FORCE_CONSTANT                                                       
%FORMAT(5E16.8)                                                                 
  3.54250000E+02  3.60690000E+02  3.43340000E+02
%FLAG BOND_EQUIL_VALUE                                                          
%FORMAT(5E16.8)                                                                 
  1.39860000E+00  1.08600000E+00  1.36880000E+00
%FLAG ANGLE_FORCE_CONSTANT                                                      
%FORMAT(5E16.8)                                                                 
  6.36700000E+01  4.49000000E+01  7.90000000E+01  8.96700000E+01
%FLAG ANGLE_EQUIL_VALUE                                                         
%FORMAT(5E16.8)                                                                 
  2.09474507E+00  2.09230160E+00  2.07886256E+00  2.09212707E+00
%FLAG DIHEDRAL_FORCE_CONSTANT                                                   
%FORMAT(5E16.8)                                                                 
  3.62500000E+00  9.00000000E-01  1.10000000E+00
%FLAG DIHEDRAL_PERIODICITY                                                      
%FORMAT(5E16.8)                                                                 
  2.00000000E+00  2.00000000E+00  2.00000000E+00
%FLAG DIHEDRAL_PHASE                                                            
%FORMAT(5E16.8)                                                                 
  3.14159400E+00  3.14159400E+00  3.14159400E+00
%FLAG SCEE_SCALE_FACTOR                                                         
%FORMAT(5E16.8)                                                                 
  1.20000000E+00  1.20000000E+00  0.00000000E+00
%FLAG SCNB_SCALE_FACTOR                                                         
%FORMAT(5E16.8)                                                                 
  2.00000000E+00  2.00000000E+00  0.00000000E+00
%FLAG SOLTY                                                                     
%FORMAT(5E16.8)                                                                 
  0.00000000E+00  0.00000000E+00  0.00000000E+00
%FLAG LENNARD_JONES_ACOEF                                                       
%FORMAT(5E16.8)                                                                 
  6.96551276E+05  4.46121722E+05  2.83662575E+05  7.52549148E+04  4.65732396E+04
  6.90855956E+03
%FLAG LENNARD_JONES_BCOEF                                                       
%FORMAT(5E16.8)                                                                 
  5.24668528E+02  3.88758656E+02  2.87011518E+02  1.09570372E+02  7.98066064E+01
  2.10929191E+01
%FLAG BONDS_INC_HYDROGEN                                                        
%FORMAT(10I8)                                                                   
       0      39       2       3      42       2       6      45       2       9
      48       2      12      51       2      15      54       2      18      57
       2      21      60       2      24      63       2      27      66       2
%FLAG BONDS_WITHOUT_HYDROGEN                                                    
%FORMAT(10I8)                                                                   
       0       6       1       0       9       1       3      12       1       3
      15       1       6      18       1       9      21       1      12      24
       1      15      27       1      18      30       1      21      30       1
      24      33       1      27      33       1      30      36       3      33
      36       3
%FLAG ANGLES_INC_HYDROGEN                                                       
%FORMAT(10I8)                                                                   
       0       6      45       2       0       9      48       2       3      12
      51       2       3      15      54       2       6       0      39       2
       6      18      57       2       9       0      39       2       9      21
      60       2      12       3      42       2      12      24      63       2
      15       3      42       2      15      27      66       2      18       6
      45       2      21       9      48       2      24      12      51       2
      27      15      54       2      30      18      57       2      30      21
      60       2      33      24      63       2      33      27      66       2
%FLAG ANGLES_WITHOUT_HYDROGEN                                                   
%FORMAT(10I8)                                                                   
       0       6      18       1       0       9      21       1       3      12
      24       1       3      15      27       1       6       0       9       1
       6      18      30       1       9      21      30       1      12       3
      15       1      12      24      33       1      15      27      33       1
      18      30      21       1      18      30      36       3      21      30
      36       3      24      33      27       1      24      33      36       3
      27      33      36       3      30      36      33       4
%FLAG DIHEDRALS_INC_HYDROGEN                                                    
%FORMAT(10I8)                                                                   
       0       6      18      57       1       0       9      21      60       1
       3      12      24      63       1       3      15      27      66       1
       6       0       9      48       1       9       0       6      45       1
      12       3      15      54       1      15       3      12      51       1
      39       0       6      18       1      18      30      21      60       1
      39       0       9      21       1      21      30      18      57       1
      24      12       3      42       1      24      33      27      66       1
      27      15       3      42       1      27      33      24      63       1
      30      18       6      45       1      30      21       9      48       1
      33      24      12      51       1      33      27      15      54       1
      36      30      18      57       1      36      30      21      60       1
      36      33      24      63       1      36      33      27      66       1
      39       0       6      45       1      39       0       9      48       1
      42       3      12      51       1      42       3      15      54       1
      45       6      18      57       1      48       9      21      60       1
      51      12      24      63       1      54      15      27      66       1
      39       0      -9      -6       3      12      15      -3     -42       3
       0      18      -6     -45       3       0      21      -9     -48       3
       3      24     -12     -51       3       3      27     -15     -54       3
       6      30     -18     -57       3       9      30     -21     -60       3
      12      33     -24     -63       3      15      33     -27     -66       3
%FLAG DIHEDRALS_WITHOUT_HYDROGEN                                                
%FORMAT(10I8)                                                                   
       0       6      18      30       1       0       9     -21      30       1
       3      12      24      33       1       3      15     -27      33       1
       6       0       9      21       1       6      18     -30      21       1
       6      18      30      36       1       9       0       6      18       1
       9      21     -30      18       1       9      21      30      36       1
      12       3      15      27       1      12      24     -33      27       1
      12      24      33      36       1      15       3      12      24       1
      15      27     -33      24       1      15      27      33      36       1
      18      30      36      33       2      21      30      36      33       2
      24      33      36      30       2      27      33      36      30       2
      18      21     -30     -36       3      24      27     -33     -36       3
%FLAG EXCLUDED_ATOMS_LIST                                                       
%FORMAT(10I8)                                                                   
       3       4       7       8      11      14      16      17      20      21
       5       6       9      10      12      15      18      19      22      23
       4       7       8      11      13      14      16      17      20       7
       8      11      13      14      16      17      21       6       9      10
      12      13      15      18      19      22       9      10      12      13
      15      18      19      23       8      11      12      13      14      16
      20      21      11      12      13      14      17      20      21      10
      11      12      13      15      18      22      23      11      12      13
      15      19      22      23      12      13      16      17      20      21
      13      18      19      22      23      20      21      22      23      16
      17      18      19      20      21      22      23       0       0       0
       0
%FLAG HBOND_ACOEF                                                               
%FORMAT(5E16.8)                                                                 

%FLAG HBOND_BCOEF                                                               
%FORMAT(5E16.8)                                                                 

%FLAG HBCUT                                                                     
%FORMAT(5E16.8)                                                                 

%FLAG AMBER_ATOM_TYPE                                                           
%FORMAT(20a4)                                                                   
ca  ca  ca  ca  ca  ca  ca  ca  ca  ca  ca  ca  os  ha  ha  ha  ha  ha  ha  ha  
ha  ha  ha  
%FLAG TREE_CHAIN_CLASSIFICATION                                                 
%FORMAT(20a4)                                                                   
BLA BLA BLA BLA BLA BLA BLA BLA BLA BLA BLA BLA BLA BLA BLA BLA BLA BLA BLA BLA 
BLA BLA BLA 
%FLAG JOIN_ARRAY                                                                
%FORMAT(10I8)                                                                   
       0       0       0       0       0       0       0       0       0       0
       0       0       0       0       0       0       0       0       0       0
       0       0       0
%FLAG IROTAT                                                                    
%FORMAT(10I8)                                                                   
       0       0       0       0       0       0       0       0       0       0
       0       0       0       0       0       0       0       0       0       0
       0       0       0
%FLAG RADIUS_SET                                                                
%FORMAT(1a80)                                                                   
modified Bondi radii (mbondi)                                                   
%FLAG RADII                                                                     
%FORMAT(5E16.8)                                                                 
  1.70000000E+00  1.70000000E+00  1.70000000E+00  1.70000000E+00  1.70000000E+00
  1.70000000E+00  1.70000000E+00  1.70000000E+00  1.70000000E+00  1.70000000E+00
  1.70000000E+00  1.70000000E+00  1.50000000E+00  1.30000000E+00  1.30000000E+00
  1.30000000E+00  1.30000000E+00  1.30000000E+00  1.30000000E+00  1.30000000E+00
  1.30000000E+00  1.30000000E+00  1.30000000E+00
%FLAG SCREEN                                                                    
%FORMAT(5E16.8)                                                                 
  7.20000000E-01  7.20000000E-01  7.20000000E-01  7.20000000E-01  7.20000000E-01
  7.20000000E-01  7.20000000E-01  7.20000000E-01  7.20000000E-01  7.20000000E-01
  7.20000000E-01  7.20000000E-01  8.50000000E-01  8.50000000E-01  8.50000000E-01
  8.50000000E-01  8.50000000E-01  8.50000000E-01  8.50000000E-01  8.50000000E-01
  8.50000000E-01  8.50000000E-01  8.50000000E-01
%FLAG IPOL                                                                      
%FORMAT(1I8)                                                                    
       0
