; mobley_6102880_GMX_OPLS.itp created by acpype (v: 2023.10.27) on Wed May 20 23:57:56 2026

; For OPLS atomtypes manual fine tuning
; AC_at:OPLS_at:OPLScode: Possible_Alternatives (see ffoplsaa.atp and ffoplsaanb.itp)
; ca:CA:opls_145: ['166', '501', '502']
; os:x:opls_x: []
; ha:HA:opls_146: []

[ moleculetype ]
;name            nrexcl
 mobley_6102880   3

[ atoms ]
;   nr  type  resi  res  atom  cgnr     charge      mass       ; qtot   bond_type
     1 opls_145     1   MOL    C1    1    -0.150000     12.01100 ; qtot -0.150  CA  
     2 opls_145     1   MOL    C2    2    -0.150000     12.01100 ; qtot -0.300  CA  
     3 opls_145     1   MOL    C3    3    -0.108500     12.01100 ; qtot -0.408  CA  
     4 opls_145     1   MOL    C4    4    -0.108500     12.01100 ; qtot -0.517  CA  
     5 opls_145     1   MOL    C5    5    -0.108500     12.01100 ; qtot -0.626  CA  
     6 opls_145     1   MOL    C6    6    -0.108500     12.01100 ; qtot -0.734  CA  
     7 opls_145     1   MOL    C7    7    -0.157500     12.01100 ; qtot -0.892  CA  
     8 opls_145     1   MOL    C8    8    -0.157500     12.01100 ; qtot -1.049  CA  
     9 opls_145     1   MOL    C9    9    -0.157500     12.01100 ; qtot -1.206  CA  
    10 opls_145     1   MOL   C10   10    -0.157500     12.01100 ; qtot -1.364  CA  
    11 opls_145     1   MOL   C11   11     0.105100     12.01100 ; qtot -1.259  CA  
    12 opls_145     1   MOL   C12   12     0.105100     12.01100 ; qtot -1.154  CA  
    13 opls_x     1   MOL    O1   13    -0.250200      0.00000 ; qtot -1.404  x   
    14 opls_146     1   MOL    H1   14     0.134000      1.00800 ; qtot -1.270  HA  
    15 opls_146     1   MOL    H2   15     0.134000      1.00800 ; qtot -1.136  HA  
    16 opls_146     1   MOL    H3   16     0.135000      1.00800 ; qtot -1.001  HA  
    17 opls_146     1   MOL    H4   17     0.135000      1.00800 ; qtot -0.866  HA  
    18 opls_146     1   MOL    H5   18     0.135000      1.00800 ; qtot -0.731  HA  
    19 opls_146     1   MOL    H6   19     0.135000      1.00800 ; qtot -0.596  HA  
    20 opls_146     1   MOL    H7   20     0.149000      1.00800 ; qtot -0.447  HA  
    21 opls_146     1   MOL    H8   21     0.149000      1.00800 ; qtot -0.298  HA  
    22 opls_146     1   MOL    H9   22     0.149000      1.00800 ; qtot -0.149  HA  
    23 opls_146     1   MOL   H10   23     0.149000      1.00800 ; qtot -0.000  HA  

[ bonds ]
;   ai     aj funct   r             k
     1      3   1 ;    1.3986e-01    2.9644e+05 ;     C1 - C3         CA - CA    
     1      4   1 ;    1.3986e-01    2.9644e+05 ;     C1 - C4         CA - CA    
     1     14   1 ;    1.0860e-01    3.0183e+05 ;     C1 - H1         CA - HA    
     2      5   1 ;    1.3986e-01    2.9644e+05 ;     C2 - C5         CA - CA    
     2      6   1 ;    1.3986e-01    2.9644e+05 ;     C2 - C6         CA - CA    
     2     15   1 ;    1.0860e-01    3.0183e+05 ;     C2 - H2         CA - HA    
     3      7   1 ;    1.3986e-01    2.9644e+05 ;     C3 - C7         CA - CA    
     3     16   1 ;    1.0860e-01    3.0183e+05 ;     C3 - H3         CA - HA    
     4      8   1 ;    1.3986e-01    2.9644e+05 ;     C4 - C8         CA - CA    
     4     17   1 ;    1.0860e-01    3.0183e+05 ;     C4 - H4         CA - HA    
     5      9   1 ;    1.3986e-01    2.9644e+05 ;     C5 - C9         CA - CA    
     5     18   1 ;    1.0860e-01    3.0183e+05 ;     C5 - H5         CA - HA    
     6     10   1 ;    1.3986e-01    2.9644e+05 ;     C6 - C10        CA - CA    
     6     19   1 ;    1.0860e-01    3.0183e+05 ;     C6 - H6         CA - HA    
     7     11   1 ;    1.3986e-01    2.9644e+05 ;     C7 - C11        CA - CA    
     7     20   1 ;    1.0860e-01    3.0183e+05 ;     C7 - H7         CA - HA    
     8     11   1 ;    1.3986e-01    2.9644e+05 ;     C8 - C11        CA - CA    
     8     21   1 ;    1.0860e-01    3.0183e+05 ;     C8 - H8         CA - HA    
     9     12   1 ;    1.3986e-01    2.9644e+05 ;     C9 - C12        CA - CA    
     9     22   1 ;    1.0860e-01    3.0183e+05 ;     C9 - H9         CA - HA    
    10     12   1 ;    1.3986e-01    2.9644e+05 ;    C10 - C12        CA - CA    
    10     23   1 ;    1.0860e-01    3.0183e+05 ;    C10 - H10        CA - HA    
    11     13   1 ;    1.3688e-01    2.8731e+05 ;    C11 - O1         CA - x     
    12     13   1 ;    1.3688e-01    2.8731e+05 ;    C12 - O1         CA - x     

[ pairs ]
;   ai     aj    funct
     1     11      1 ;     C1 - C11   
     1     20      1 ;     C1 - H7    
     1     21      1 ;     C1 - H8    
     2     12      1 ;     C2 - C12   
     2     22      1 ;     C2 - H9    
     2     23      1 ;     C2 - H10   
     3      8      1 ;     C3 - C8    
     3     13      1 ;     C3 - O1    
     3     17      1 ;     C3 - H4    
     4      7      1 ;     C4 - C7    
     4     13      1 ;     C4 - O1    
     4     16      1 ;     C4 - H3    
     5     10      1 ;     C5 - C10   
     5     13      1 ;     C5 - O1    
     5     19      1 ;     C5 - H6    
     6      9      1 ;     C6 - C9    
     6     13      1 ;     C6 - O1    
     6     18      1 ;     C6 - H5    
     7     12      1 ;     C7 - C12   
     7     21      1 ;     C7 - H8    
     8     12      1 ;     C8 - C12   
     8     20      1 ;     C8 - H7    
     9     11      1 ;     C9 - C11   
     9     15      1 ;     C9 - H2    
     9     23      1 ;     C9 - H10   
    10     11      1 ;    C10 - C11   
    10     15      1 ;    C10 - H2    
    10     22      1 ;    C10 - H9    
    11     16      1 ;    C11 - H3    
    11     17      1 ;    C11 - H4    
    12     18      1 ;    C12 - H5    
    12     19      1 ;    C12 - H6    
    13     20      1 ;     O1 - H7    
    13     21      1 ;     O1 - H8    
    13     22      1 ;     O1 - H9    
    13     23      1 ;     O1 - H10   
    14      7      1 ;     H1 - C7    
    14      8      1 ;     H1 - C8    
    14     16      1 ;     H1 - H3    
    14     17      1 ;     H1 - H4    
    15     18      1 ;     H2 - H5    
    15     19      1 ;     H2 - H6    
    16     20      1 ;     H3 - H7    
    17     21      1 ;     H4 - H8    
    18     22      1 ;     H5 - H9    
    19     23      1 ;     H6 - H10   

[ angles ]
;   ai     aj     ak    funct   theta         cth
     1      3      7      1 ;    1.2002e+02    5.3279e+02 ;     C1 - C3   - C7       CA -   CA - CA  
     1      3     16      1 ;    1.1988e+02    3.7572e+02 ;     C1 - C3   - H3       CA -   CA - HA  
     1      4      8      1 ;    1.2002e+02    5.3279e+02 ;     C1 - C4   - C8       CA -   CA - CA  
     1      4     17      1 ;    1.1988e+02    3.7572e+02 ;     C1 - C4   - H4       CA -   CA - HA  
     2      5      9      1 ;    1.2002e+02    5.3279e+02 ;     C2 - C5   - C9       CA -   CA - CA  
     2      5     18      1 ;    1.1988e+02    3.7572e+02 ;     C2 - C5   - H5       CA -   CA - HA  
     2      6     10      1 ;    1.2002e+02    5.3279e+02 ;     C2 - C6   - C10      CA -   CA - CA  
     2      6     19      1 ;    1.1988e+02    3.7572e+02 ;     C2 - C6   - H6       CA -   CA - HA  
     3      1      4      1 ;    1.2002e+02    5.3279e+02 ;     C3 - C1   - C4       CA -   CA - CA  
     3      1     14      1 ;    1.1988e+02    3.7572e+02 ;     C3 - C1   - H1       CA -   CA - HA  
     3      7     11      1 ;    1.2002e+02    5.3279e+02 ;     C3 - C7   - C11      CA -   CA - CA  
     3      7     20      1 ;    1.1988e+02    3.7572e+02 ;     C3 - C7   - H7       CA -   CA - HA  
     4      1     14      1 ;    1.1988e+02    3.7572e+02 ;     C4 - C1   - H1       CA -   CA - HA  
     4      8     11      1 ;    1.2002e+02    5.3279e+02 ;     C4 - C8   - C11      CA -   CA - CA  
     4      8     21      1 ;    1.1988e+02    3.7572e+02 ;     C4 - C8   - H8       CA -   CA - HA  
     5      2      6      1 ;    1.2002e+02    5.3279e+02 ;     C5 - C2   - C6       CA -   CA - CA  
     5      2     15      1 ;    1.1988e+02    3.7572e+02 ;     C5 - C2   - H2       CA -   CA - HA  
     5      9     12      1 ;    1.2002e+02    5.3279e+02 ;     C5 - C9   - C12      CA -   CA - CA  
     5      9     22      1 ;    1.1988e+02    3.7572e+02 ;     C5 - C9   - H9       CA -   CA - HA  
     6      2     15      1 ;    1.1988e+02    3.7572e+02 ;     C6 - C2   - H2       CA -   CA - HA  
     6     10     12      1 ;    1.2002e+02    5.3279e+02 ;     C6 - C10  - C12      CA -   CA - CA  
     6     10     23      1 ;    1.1988e+02    3.7572e+02 ;     C6 - C10  - H10      CA -   CA - HA  
     7      3     16      1 ;    1.1988e+02    3.7572e+02 ;     C7 - C3   - H3       CA -   CA - HA  
     7     11      8      1 ;    1.2002e+02    5.3279e+02 ;     C7 - C11  - C8       CA -   CA - CA  
     7     11     13      1 ;    1.1911e+02    6.6107e+02 ;     C7 - C11  - O1       CA -   CA - x   
     8      4     17      1 ;    1.1988e+02    3.7572e+02 ;     C8 - C4   - H4       CA -   CA - HA  
     8     11     13      1 ;    1.1911e+02    6.6107e+02 ;     C8 - C11  - O1       CA -   CA - x   
     9      5     18      1 ;    1.1988e+02    3.7572e+02 ;     C9 - C5   - H5       CA -   CA - HA  
     9     12     10      1 ;    1.2002e+02    5.3279e+02 ;     C9 - C12  - C10      CA -   CA - CA  
     9     12     13      1 ;    1.1911e+02    6.6107e+02 ;     C9 - C12  - O1       CA -   CA - x   
    10      6     19      1 ;    1.1988e+02    3.7572e+02 ;    C10 - C6   - H6       CA -   CA - HA  
    10     12     13      1 ;    1.1911e+02    6.6107e+02 ;    C10 - C12  - O1       CA -   CA - x   
    11      7     20      1 ;    1.1988e+02    3.7572e+02 ;    C11 - C7   - H7       CA -   CA - HA  
    11      8     21      1 ;    1.1988e+02    3.7572e+02 ;    C11 - C8   - H8       CA -   CA - HA  
    11     13     12      1 ;    1.1987e+02    7.5036e+02 ;    C11 - O1   - C12      CA -    x - CA  
    12      9     22      1 ;    1.1988e+02    3.7572e+02 ;    C12 - C9   - H9       CA -   CA - HA  
    12     10     23      1 ;    1.1988e+02    3.7572e+02 ;    C12 - C10  - H10      CA -   CA - HA  

[ dihedrals ] ; propers
; for gromacs 4.5 or higher, using funct 9
;    i      j      k      l   func   phase     kd      pn
     1      3      7     11      9 ;   180.00  15.16700   2 ;     C1-    C3-    C7-   C11
     1      3      7     20      9 ;   180.00  15.16700   2 ;     C1-    C3-    C7-    H7
     1      4      8     11      9 ;   180.00  15.16700   2 ;     C1-    C4-    C8-   C11
     1      4      8     21      9 ;   180.00  15.16700   2 ;     C1-    C4-    C8-    H8
     2      5      9     12      9 ;   180.00  15.16700   2 ;     C2-    C5-    C9-   C12
     2      5      9     22      9 ;   180.00  15.16700   2 ;     C2-    C5-    C9-    H9
     2      6     10     12      9 ;   180.00  15.16700   2 ;     C2-    C6-   C10-   C12
     2      6     10     23      9 ;   180.00  15.16700   2 ;     C2-    C6-   C10-   H10
     3      1      4      8      9 ;   180.00  15.16700   2 ;     C3-    C1-    C4-    C8
     3      1      4     17      9 ;   180.00  15.16700   2 ;     C3-    C1-    C4-    H4
     3      7     11      8      9 ;   180.00  15.16700   2 ;     C3-    C7-   C11-    C8
     3      7     11     13      9 ;   180.00  15.16700   2 ;     C3-    C7-   C11-    O1
     4      1      3      7      9 ;   180.00  15.16700   2 ;     C4-    C1-    C3-    C7
     4      1      3     16      9 ;   180.00  15.16700   2 ;     C4-    C1-    C3-    H3
     4      8     11      7      9 ;   180.00  15.16700   2 ;     C4-    C8-   C11-    C7
     4      8     11     13      9 ;   180.00  15.16700   2 ;     C4-    C8-   C11-    O1
     5      2      6     10      9 ;   180.00  15.16700   2 ;     C5-    C2-    C6-   C10
     5      2      6     19      9 ;   180.00  15.16700   2 ;     C5-    C2-    C6-    H6
     5      9     12     10      9 ;   180.00  15.16700   2 ;     C5-    C9-   C12-   C10
     5      9     12     13      9 ;   180.00  15.16700   2 ;     C5-    C9-   C12-    O1
     6      2      5      9      9 ;   180.00  15.16700   2 ;     C6-    C2-    C5-    C9
     6      2      5     18      9 ;   180.00  15.16700   2 ;     C6-    C2-    C5-    H5
     6     10     12      9      9 ;   180.00  15.16700   2 ;     C6-   C10-   C12-    C9
     6     10     12     13      9 ;   180.00  15.16700   2 ;     C6-   C10-   C12-    O1
     7     11      8     21      9 ;   180.00  15.16700   2 ;     C7-   C11-    C8-    H8
     7     11     13     12      9 ;   180.00   3.76560   2 ;     C7-   C11-    O1-   C12
     8     11      7     20      9 ;   180.00  15.16700   2 ;     C8-   C11-    C7-    H7
     8     11     13     12      9 ;   180.00   3.76560   2 ;     C8-   C11-    O1-   C12
     9      5      2     15      9 ;   180.00  15.16700   2 ;     C9-    C5-    C2-    H2
     9     12     10     23      9 ;   180.00  15.16700   2 ;     C9-   C12-   C10-   H10
     9     12     13     11      9 ;   180.00   3.76560   2 ;     C9-   C12-    O1-   C11
    10      6      2     15      9 ;   180.00  15.16700   2 ;    C10-    C6-    C2-    H2
    10     12      9     22      9 ;   180.00  15.16700   2 ;    C10-   C12-    C9-    H9
    10     12     13     11      9 ;   180.00   3.76560   2 ;    C10-   C12-    O1-   C11
    11      7      3     16      9 ;   180.00  15.16700   2 ;    C11-    C7-    C3-    H3
    11      8      4     17      9 ;   180.00  15.16700   2 ;    C11-    C8-    C4-    H4
    12      9      5     18      9 ;   180.00  15.16700   2 ;    C12-    C9-    C5-    H5
    12     10      6     19      9 ;   180.00  15.16700   2 ;    C12-   C10-    C6-    H6
    13     11      7     20      9 ;   180.00  15.16700   2 ;     O1-   C11-    C7-    H7
    13     11      8     21      9 ;   180.00  15.16700   2 ;     O1-   C11-    C8-    H8
    13     12      9     22      9 ;   180.00  15.16700   2 ;     O1-   C12-    C9-    H9
    13     12     10     23      9 ;   180.00  15.16700   2 ;     O1-   C12-   C10-   H10
    14      1      3      7      9 ;   180.00  15.16700   2 ;     H1-    C1-    C3-    C7
    14      1      3     16      9 ;   180.00  15.16700   2 ;     H1-    C1-    C3-    H3
    14      1      4      8      9 ;   180.00  15.16700   2 ;     H1-    C1-    C4-    C8
    14      1      4     17      9 ;   180.00  15.16700   2 ;     H1-    C1-    C4-    H4
    15      2      5     18      9 ;   180.00  15.16700   2 ;     H2-    C2-    C5-    H5
    15      2      6     19      9 ;   180.00  15.16700   2 ;     H2-    C2-    C6-    H6
    16      3      7     20      9 ;   180.00  15.16700   2 ;     H3-    C3-    C7-    H7
    17      4      8     21      9 ;   180.00  15.16700   2 ;     H4-    C4-    C8-    H8
    18      5      9     22      9 ;   180.00  15.16700   2 ;     H5-    C5-    C9-    H9
    19      6     10     23      9 ;   180.00  15.16700   2 ;     H6-    C6-   C10-   H10

[ dihedrals ] ; impropers
; treated as propers in GROMACS to use correct AMBER analytical function
;    i      j      k      l   func   phase     kd      pn
     1      7      3     16      4 ;   180.00   4.60240   2 ;     C1-    C7-    C3-    H3
     1      8      4     17      4 ;   180.00   4.60240   2 ;     C1-    C8-    C4-    H4
     2      9      5     18      4 ;   180.00   4.60240   2 ;     C2-    C9-    C5-    H5
     2     10      6     19      4 ;   180.00   4.60240   2 ;     C2-   C10-    C6-    H6
     3     11      7     20      4 ;   180.00   4.60240   2 ;     C3-   C11-    C7-    H7
     4     11      8     21      4 ;   180.00   4.60240   2 ;     C4-   C11-    C8-    H8
     5      6      2     15      4 ;   180.00   4.60240   2 ;     C5-    C6-    C2-    H2
     5     12      9     22      4 ;   180.00   4.60240   2 ;     C5-   C12-    C9-    H9
     6     12     10     23      4 ;   180.00   4.60240   2 ;     C6-   C12-   C10-   H10
     7      8     11     13      4 ;   180.00   4.60240   2 ;     C7-    C8-   C11-    O1
     9     10     12     13      4 ;   180.00   4.60240   2 ;     C9-   C10-   C12-    O1
    14      1      4      3      4 ;   180.00   4.60240   2 ;     H1-    C1-    C4-    C3
