SAMPL4_052
    23
   1.8790000  -1.0380000  -0.1130000   4.4330000  -3.6140000   6.0240000
   1.9160000  -2.2550000   0.5680000   1.8020000   0.1590000   0.6010000
   4.8770000  -2.8200000   4.9660000   3.0950000  -3.5670000   6.4170000
   1.8770000  -2.2750000   1.9620000   1.7620000   0.1380000   1.9950000
   3.9840000  -1.9800000   4.3010000   2.2020000  -2.7270000   5.7520000
   1.8000000  -1.0790000   2.6760000   2.6460000  -1.9330000   4.6940000
   1.7590000  -1.0980000   4.0360000   1.9110000  -1.0220000  -1.1980000
   5.1280000  -4.2690000   6.5410000   1.9760000  -3.1860000   0.0130000
   1.7730000   1.1060000   0.0700000   5.9190000  -2.8560000   4.6600000
   2.7500000  -4.1860000   7.2400000   1.9040000  -3.2260000   2.4870000
   1.7010000   1.0730000   2.5450000   4.3370000  -1.3630000   3.4790000
   1.1610000  -2.6930000   6.0630000
