; mobley_5747981_GMX_OPLS.top created by acpype (v: 2023.10.27) on Wed May 20 23:53:49 2026

; Include forcefield parameters
#include "ffoplsaa.itp"

; Include mobley_5747981_GMX.itp topology
#include "mobley_5747981_GMX.itp"

; Ligand position restraints
#ifdef POSRES_LIG
#include "posre_mobley_5747981.itp"
#endif

[ system ]
 mobley_5747981

[ molecules ]
; Compound        nmols
 mobley_5747981   1     
