mobley_5747981_GMX.gro created by acpype (v: 2023.10.27) on Wed May 20 23:53:49 2026
 24
    1  MOL   C1    1   0.024   0.304  -0.351
    1  MOL   C2    2  -0.240  -0.044  -0.085
    1  MOL   C3    3  -0.422   0.236  -0.040
    1  MOL   C4    4  -0.024   0.276   0.091
    1  MOL   C5    5  -0.085   0.182  -0.183
    1  MOL   C6    6  -0.188   0.192  -0.068
    1  MOL   O1    7  -0.074   0.308  -0.248
    1  MOL   O2    8  -0.198   0.064  -0.002
    1  MOL   O3    9  -0.314   0.223  -0.131
    1  MOL   O4   10  -0.150   0.294   0.027
    1  MOL   H1   11   0.092   0.221  -0.333
    1  MOL   H2   12   0.079   0.398  -0.352
    1  MOL   H3   13  -0.026   0.290  -0.447
    1  MOL   H4   14  -0.264  -0.006  -0.184
    1  MOL   H5   15  -0.328  -0.092  -0.040
    1  MOL   H6   16  -0.159  -0.117  -0.092
    1  MOL   H7   17  -0.390   0.208   0.060
    1  MOL   H8   18  -0.505   0.172  -0.072
    1  MOL   H9   19  -0.455   0.341  -0.039
    1  MOL  H10   20   0.051   0.340   0.043
    1  MOL  H11   21   0.006   0.171   0.083
    1  MOL  H12   22  -0.033   0.304   0.196
    1  MOL  H13   23  -0.114   0.107  -0.256
    1  MOL  H14   24   0.014   0.156  -0.145
   11.94800    10.30600    12.86600
