%VERSION  VERSION_STAMP = V0001.000  DATE = 05/20/26  23:53:53                  
%FLAG TITLE                                                                     
%FORMAT(20a4)                                                                   
2_methoxy_111_trimethoxyethane                                                  
%FLAG POINTERS                                                                  
%FORMAT(10I8)                                                                   
      24       3      14       9      29      11      26      39       0       0
     101       1       9      11      39       3       6      12       3       0
       0       0       0       0       0       0       0       0      24       0
       0
%FLAG ATOM_NAME                                                                 
%FORMAT(20a4)                                                                   
C1  C2  C3  C4  C5  C6  O1  O2  O3  O4  H1  H2  H3  H4  H5  H6  H7  H8  H9  H10 
H11 H12 H13 H14 
%FLAG CHARGE                                                                    
%FORMAT(5E16.8)                                                                 
  1.99898631E+00  2.36343231E+00  2.36343231E+00  2.36343231E+00  2.10285342E+00
  8.91799362E+00 -7.46385408E+00 -8.14414721E+00 -8.14414721E+00 -8.14414721E+00
  7.84160236E-01  7.84160236E-01  7.84160236E-01  7.65937936E-01  7.65937936E-01
  7.65937936E-01  7.65937936E-01  7.65937936E-01  7.65937936E-01  7.65937936E-01
  7.65937936E-01  7.65937936E-01  1.26098316E+00  1.26098316E+00
%FLAG ATOMIC_NUMBER                                                             
%FORMAT(10I8)                                                                   
       6       6       6       6       6       6       8       8       8       8
       1       1       1       1       1       1       1       1       1       1
       1       1       1       1
%FLAG MASS                                                                      
%FORMAT(5E16.8)                                                                 
  1.20100000E+01  1.20100000E+01  1.20100000E+01  1.20100000E+01  1.20100000E+01
  1.20100000E+01  1.60000000E+01  1.60000000E+01  1.60000000E+01  1.60000000E+01
  1.00800000E+00  1.00800000E+00  1.00800000E+00  1.00800000E+00  1.00800000E+00
  1.00800000E+00  1.00800000E+00  1.00800000E+00  1.00800000E+00  1.00800000E+00
  1.00800000E+00  1.00800000E+00  1.00800000E+00  1.00800000E+00
%FLAG ATOM_TYPE_INDEX                                                           
%FORMAT(10I8)                                                                   
       1       1       1       1       1       1       2       2       2       2
       3       3       3       3       3       3       3       3       3       3
       3       3       3       3
%FLAG NUMBER_EXCLUDED_ATOMS                                                     
%FORMAT(10I8)                                                                   
       8       8       8       8      10      15       8       7       6       5
       2       1       1       2       1       1       2       1       1       2
       1       1       1       1
%FLAG NONBONDED_PARM_INDEX                                                      
%FORMAT(10I8)                                                                   
       1       2       4       2       3       5       4       5       6
%FLAG RESIDUE_LABEL                                                             
%FORMAT(20a4)                                                                   
MOL 
%FLAG RESIDUE_POINTER                                                           
%FORMAT(10I8)                                                                   
       1
%FLAG BOND_FORCE_CONSTANT                                                       
%FORMAT(5E16.8)                                                                 
  2.82270000E+02  3.44220000E+02  2.28890000E+02
%FLAG BOND_EQUIL_VALUE                                                          
%FORMAT(5E16.8)                                                                 
  1.42730000E+00  1.09690000E+00  1.53540000E+00
%FLAG ANGLE_FORCE_CONSTANT                                                      
%FORMAT(5E16.8)                                                                 
  8.83300000E+01  7.74400000E+01  4.32800000E+01  5.62000000E+01  9.84400000E+01
  3.56400000E+01
%FLAG ANGLE_EQUIL_VALUE                                                         
%FORMAT(5E16.8)                                                                 
  1.98269488E+00  1.87832415E+00  1.91270715E+00  1.92579712E+00  1.88303654E+00
  1.89455572E+00
%FLAG DIHEDRAL_FORCE_CONSTANT                                                   
%FORMAT(5E16.8)                                                                 
  8.80000000E-01  8.00000000E-02  7.50000000E-01  3.37000000E-01  4.60000000E-01
  8.50000000E-01  8.50000000E-01  1.80000000E-01  9.00000000E-01  5.00000000E-01
  2.50000000E-01  0.00000000E+00
%FLAG DIHEDRAL_PERIODICITY                                                      
%FORMAT(5E16.8)                                                                 
  1.00000000E+00  2.00000000E+00  3.00000000E+00  3.00000000E+00  1.00000000E+00
  2.00000000E+00  3.00000000E+00  1.00000000E+00  2.00000000E+00  3.00000000E+00
  1.00000000E+00  3.00000000E+00
%FLAG DIHEDRAL_PHASE                                                            
%FORMAT(5E16.8)                                                                 
  3.14159400E+00  0.00000000E+00  0.00000000E+00  0.00000000E+00  3.14159400E+00
  0.00000000E+00  0.00000000E+00  0.00000000E+00  0.00000000E+00  0.00000000E+00
  0.00000000E+00  0.00000000E+00
%FLAG SCEE_SCALE_FACTOR                                                         
%FORMAT(5E16.8)                                                                 
  1.20000000E+00  1.20000000E+00  1.20000000E+00  1.20000000E+00  1.20000000E+00
  1.20000000E+00  1.20000000E+00  1.20000000E+00  1.20000000E+00  1.20000000E+00
  1.20000000E+00  1.20000000E+00
%FLAG SCNB_SCALE_FACTOR                                                         
%FORMAT(5E16.8)                                                                 
  2.00000000E+00  2.00000000E+00  2.00000000E+00  2.00000000E+00  2.00000000E+00
  2.00000000E+00  2.00000000E+00  2.00000000E+00  2.00000000E+00  2.00000000E+00
  2.00000000E+00  2.00000000E+00
%FLAG SOLTY                                                                     
%FORMAT(5E16.8)                                                                 
  0.00000000E+00  0.00000000E+00  0.00000000E+00
%FLAG LENNARD_JONES_ACOEF                                                       
%FORMAT(5E16.8)                                                                 
  1.02073671E+06  5.42502534E+05  2.83662575E+05  6.97998263E+04  3.44374471E+04
  3.39005767E+03
%FLAG LENNARD_JONES_BCOEF                                                       
%FORMAT(5E16.8)                                                                 
  6.63431737E+02  4.38146883E+02  2.87011518E+02  1.14981426E+02  7.31636661E+01
  1.67944276E+01
%FLAG BONDS_INC_HYDROGEN                                                        
%FORMAT(10I8)                                                                   
       0      30       2       0      33       2       0      36       2       3
      39       2       3      42       2       3      45       2       6      48
       2       6      51       2       6      54       2       9      57       2
       9      60       2       9      63       2      12      66       2      12
      69       2
%FLAG BONDS_WITHOUT_HYDROGEN                                                    
%FORMAT(10I8)                                                                   
       0      18       1       3      21       1       6      24       1       9
      27       1      12      15       3      12      18       1      15      21
       1      15      24       1      15      27       1
%FLAG ANGLES_INC_HYDROGEN                                                       
%FORMAT(10I8)                                                                   
      15      12      66       3      15      12      69       3      18       0
      30       4      18       0      33       4      18       0      36       4
      18      12      66       4      18      12      69       4      21       3
      39       4      21       3      42       4      21       3      45       4
      24       6      48       4      24       6      51       4      24       6
      54       4      27       9      57       4      27       9      60       4
      27       9      63       4      30       0      33       6      30       0
      36       6      33       0      36       6      39       3      42       6
      39       3      45       6      42       3      45       6      48       6
      51       6      48       6      54       6      51       6      54       6
      57       9      60       6      57       9      63       6      60       9
      63       6      66      12      69       6
%FLAG ANGLES_WITHOUT_HYDROGEN                                                   
%FORMAT(10I8)                                                                   
       0      18      12       1       3      21      15       1       6      24
      15       1       9      27      15       1      12      15      21       2
      12      15      24       2      12      15      27       2      15      12
      18       2      21      15      24       5      21      15      27       5
      24      15      27       5
%FLAG DIHEDRALS_INC_HYDROGEN                                                    
%FORMAT(10I8)                                                                   
       0      18      12      66       4       0      18      12      69       4
      30       0      18      12       4      33       0      18      12       4
      36       0      18      12       4      15      21       3      39       4
      15      21       3      42       4      15      21       3      45       4
      15      24       6      48       4      15      24       6      51       4
      15      24       6      54       4      15      27       9      57       4
      15      27       9      60       4      15      27       9      63       4
      21      15      12      66      11      21      15     -12      66      12
      21      15      12      69      11      21      15     -12      69      12
      24      15      12      66      11      24      15     -12      66      12
      24      15      12      69      11      24      15     -12      69      12
      27      15      12      66      11      27      15     -12      66      12
      27      15      12      69      11      27      15     -12      69      12
%FLAG DIHEDRALS_WITHOUT_HYDROGEN                                                
%FORMAT(10I8)                                                                   
       0      18      12      15       1       0      18     -12      15       2
       0      18     -12      15       3       3      21      15      12       1
       3      21     -15      12       2       3      21     -15      12       3
       3      21      15      24       5       3      21     -15      24       6
       3      21     -15      24       7       3      21      15      27       5
       3      21     -15      27       6       3      21     -15      27       7
       6      24      15      12       1       6      24     -15      12       2
       6      24     -15      12       3       6      24      15      21       5
       6      24     -15      21       6       6      24     -15      21       7
       6      24      15      27       5       6      24     -15      27       6
       6      24     -15      27       7       9      27      15      12       1
       9      27     -15      12       2       9      27     -15      12       3
       9      27      15      21       5       9      27     -15      21       6
       9      27     -15      21       7       9      27      15      24       5
       9      27     -15      24       6       9      27     -15      24       7
      18      12      15      21       8      18      12     -15      21       9
      18      12     -15      21      10      18      12      15      24       8
      18      12     -15      24       9      18      12     -15      24      10
      18      12      15      27       8      18      12     -15      27       9
      18      12     -15      27      10
%FLAG EXCLUDED_ATOMS_LIST                                                       
%FORMAT(10I8)                                                                   
       5       6       7      11      12      13      23      24       5       6
       8       9      10      14      15      16       5       6       8       9
      10      17      18      19       5       6       8       9      10      20
      21      22       6       7       8       9      10      11      12      13
      23      24       7       8       9      10      14      15      16      17
      18      19      20      21      22      23      24       8       9      10
      11      12      13      23      24       9      10      14      15      16
      23      24      10      17      18      19      23      24      20      21
      22      23      24      12      13      13       0      15      16      16
       0      18      19      19       0      21      22      22       0      24
       0
%FLAG HBOND_ACOEF                                                               
%FORMAT(5E16.8)                                                                 

%FLAG HBOND_BCOEF                                                               
%FORMAT(5E16.8)                                                                 

%FLAG HBCUT                                                                     
%FORMAT(5E16.8)                                                                 

%FLAG AMBER_ATOM_TYPE                                                           
%FORMAT(20a4)                                                                   
c3  c3  c3  c3  c3  c3  os  os  os  os  h1  h1  h1  h1  h1  h1  h1  h1  h1  h1  
h1  h1  h1  h1  
%FLAG TREE_CHAIN_CLASSIFICATION                                                 
%FORMAT(20a4)                                                                   
BLA BLA BLA BLA BLA BLA BLA BLA BLA BLA BLA BLA BLA BLA BLA BLA BLA BLA BLA BLA 
BLA BLA BLA BLA 
%FLAG JOIN_ARRAY                                                                
%FORMAT(10I8)                                                                   
       0       0       0       0       0       0       0       0       0       0
       0       0       0       0       0       0       0       0       0       0
       0       0       0       0
%FLAG IROTAT                                                                    
%FORMAT(10I8)                                                                   
       0       0       0       0       0       0       0       0       0       0
       0       0       0       0       0       0       0       0       0       0
       0       0       0       0
%FLAG RADIUS_SET                                                                
%FORMAT(1a80)                                                                   
modified Bondi radii (mbondi)                                                   
%FLAG RADII                                                                     
%FORMAT(5E16.8)                                                                 
  1.70000000E+00  1.70000000E+00  1.70000000E+00  1.70000000E+00  1.70000000E+00
  1.70000000E+00  1.50000000E+00  1.50000000E+00  1.50000000E+00  1.50000000E+00
  1.30000000E+00  1.30000000E+00  1.30000000E+00  1.30000000E+00  1.30000000E+00
  1.30000000E+00  1.30000000E+00  1.30000000E+00  1.30000000E+00  1.30000000E+00
  1.30000000E+00  1.30000000E+00  1.30000000E+00  1.30000000E+00
%FLAG SCREEN                                                                    
%FORMAT(5E16.8)                                                                 
  7.20000000E-01  7.20000000E-01  7.20000000E-01  7.20000000E-01  7.20000000E-01
  7.20000000E-01  8.50000000E-01  8.50000000E-01  8.50000000E-01  8.50000000E-01
  8.50000000E-01  8.50000000E-01  8.50000000E-01  8.50000000E-01  8.50000000E-01
  8.50000000E-01  8.50000000E-01  8.50000000E-01  8.50000000E-01  8.50000000E-01
  8.50000000E-01  8.50000000E-01  8.50000000E-01  8.50000000E-01
%FLAG IPOL                                                                      
%FORMAT(1I8)                                                                    
       0
