2_methoxy_111_trimethoxyethane
    24
   0.2410000   3.0420000  -3.5110000  -2.4030000  -0.4390000  -0.8450000
  -4.2230000   2.3630000  -0.4030000  -0.2420000   2.7580000   0.9070000
  -0.8530000   1.8230000  -1.8260000  -1.8770000   1.9220000  -0.6770000
  -0.7390000   3.0800000  -2.4830000  -1.9820000   0.6390000  -0.0210000
  -3.1390000   2.2310000  -1.3140000  -1.4990000   2.9390000   0.2700000
   0.9240000   2.2080000  -3.3320000   0.7940000   3.9840000  -3.5230000
  -0.2580000   2.9010000  -4.4730000  -2.6420000  -0.0630000  -1.8430000
  -3.2820000  -0.9150000  -0.4030000  -1.5940000  -1.1690000  -0.9170000
  -3.8950000   2.0780000   0.6000000  -5.0500000   1.7240000  -0.7230000
  -4.5530000   3.4050000  -0.3930000   0.5050000   3.3970000   0.4280000
   0.0570000   1.7100000   0.8330000  -0.3340000   3.0350000   1.9600000
  -1.1420000   1.0660000  -2.5610000   0.1410000   1.5640000  -1.4470000
