; mobley_5747981_GMX_OPLS.itp created by acpype (v: 2023.10.27) on Wed May 20 23:53:49 2026

; For OPLS atomtypes manual fine tuning
; AC_at:OPLS_at:OPLScode: Possible_Alternatives (see ffoplsaa.atp and ffoplsaanb.itp)
; c3:CT:opls_135: ['136', '137', '149', '157', '158', '206', '209', '210', '223B', '224B', '245', '246', '274', '283', '284', '285', '292', '292B', '293B', '296', '307', '308', '505']
; os:x:opls_x: []
; h1:HC:opls_140: []

[ moleculetype ]
;name            nrexcl
 mobley_5747981   3

[ atoms ]
;   nr  type  resi  res  atom  cgnr     charge      mass       ; qtot   bond_type
     1 opls_135     1   MOL    C1    1     0.109700     12.01100 ; qtot  0.110  CT  
     2 opls_135     1   MOL    C2    2     0.129700     12.01100 ; qtot  0.239  CT  
     3 opls_135     1   MOL    C3    3     0.129700     12.01100 ; qtot  0.369  CT  
     4 opls_135     1   MOL    C4    4     0.129700     12.01100 ; qtot  0.499  CT  
     5 opls_135     1   MOL    C5    5     0.115400     12.01100 ; qtot  0.614  CT  
     6 opls_135     1   MOL    C6    6     0.490403     12.01100 ; qtot  1.105  CT  
     7 opls_x     1   MOL    O1    7    -0.409600      0.00000 ; qtot  0.695  x   
     8 opls_x     1   MOL    O2    8    -0.446933      0.00000 ; qtot  0.248  x   
     9 opls_x     1   MOL    O3    9    -0.446933      0.00000 ; qtot -0.199  x   
    10 opls_x     1   MOL    O4   10    -0.446933      0.00000 ; qtot -0.646  x   
    11 opls_140     1   MOL    H1   11     0.043033      1.00800 ; qtot -0.603  HC  
    12 opls_140     1   MOL    H2   12     0.043033      1.00800 ; qtot -0.560  HC  
    13 opls_140     1   MOL    H3   13     0.043033      1.00800 ; qtot -0.517  HC  
    14 opls_140     1   MOL    H4   14     0.042033      1.00800 ; qtot -0.475  HC  
    15 opls_140     1   MOL    H5   15     0.042033      1.00800 ; qtot -0.433  HC  
    16 opls_140     1   MOL    H6   16     0.042033      1.00800 ; qtot -0.391  HC  
    17 opls_140     1   MOL    H7   17     0.042033      1.00800 ; qtot -0.349  HC  
    18 opls_140     1   MOL    H8   18     0.042033      1.00800 ; qtot -0.307  HC  
    19 opls_140     1   MOL    H9   19     0.042033      1.00800 ; qtot -0.264  HC  
    20 opls_140     1   MOL   H10   20     0.042033      1.00800 ; qtot -0.222  HC  
    21 opls_140     1   MOL   H11   21     0.042033      1.00800 ; qtot -0.180  HC  
    22 opls_140     1   MOL   H12   22     0.042033      1.00800 ; qtot -0.138  HC  
    23 opls_140     1   MOL   H13   23     0.069200      1.00800 ; qtot -0.069  HC  
    24 opls_140     1   MOL   H14   24     0.069200      1.00800 ; qtot -0.000  HC  

[ bonds ]
;   ai     aj funct   r             k
     1      7   1 ;    1.4273e-01    2.3620e+05 ;     C1 - O1         CT - x     
     1     11   1 ;    1.0969e-01    2.8804e+05 ;     C1 - H1         CT - HC    
     1     12   1 ;    1.0969e-01    2.8804e+05 ;     C1 - H2         CT - HC    
     1     13   1 ;    1.0969e-01    2.8804e+05 ;     C1 - H3         CT - HC    
     2      8   1 ;    1.4273e-01    2.3620e+05 ;     C2 - O2         CT - x     
     2     14   1 ;    1.0969e-01    2.8804e+05 ;     C2 - H4         CT - HC    
     2     15   1 ;    1.0969e-01    2.8804e+05 ;     C2 - H5         CT - HC    
     2     16   1 ;    1.0969e-01    2.8804e+05 ;     C2 - H6         CT - HC    
     3      9   1 ;    1.4273e-01    2.3620e+05 ;     C3 - O3         CT - x     
     3     17   1 ;    1.0969e-01    2.8804e+05 ;     C3 - H7         CT - HC    
     3     18   1 ;    1.0969e-01    2.8804e+05 ;     C3 - H8         CT - HC    
     3     19   1 ;    1.0969e-01    2.8804e+05 ;     C3 - H9         CT - HC    
     4     10   1 ;    1.4273e-01    2.3620e+05 ;     C4 - O4         CT - x     
     4     20   1 ;    1.0969e-01    2.8804e+05 ;     C4 - H10        CT - HC    
     4     21   1 ;    1.0969e-01    2.8804e+05 ;     C4 - H11        CT - HC    
     4     22   1 ;    1.0969e-01    2.8804e+05 ;     C4 - H12        CT - HC    
     5      6   1 ;    1.5354e-01    1.9154e+05 ;     C5 - C6         CT - CT    
     5      7   1 ;    1.4273e-01    2.3620e+05 ;     C5 - O1         CT - x     
     5     23   1 ;    1.0969e-01    2.8804e+05 ;     C5 - H13        CT - HC    
     5     24   1 ;    1.0969e-01    2.8804e+05 ;     C5 - H14        CT - HC    
     6      8   1 ;    1.4273e-01    2.3620e+05 ;     C6 - O2         CT - x     
     6      9   1 ;    1.4273e-01    2.3620e+05 ;     C6 - O3         CT - x     
     6     10   1 ;    1.4273e-01    2.3620e+05 ;     C6 - O4         CT - x     

[ pairs ]
;   ai     aj    funct
     1      6      1 ;     C1 - C6    
     1     23      1 ;     C1 - H13   
     1     24      1 ;     C1 - H14   
     2      5      1 ;     C2 - C5    
     2      9      1 ;     C2 - O3    
     2     10      1 ;     C2 - O4    
     3      5      1 ;     C3 - C5    
     3      8      1 ;     C3 - O2    
     3     10      1 ;     C3 - O4    
     4      5      1 ;     C4 - C5    
     4      8      1 ;     C4 - O2    
     4      9      1 ;     C4 - O3    
     6     14      1 ;     C6 - H4    
     6     15      1 ;     C6 - H5    
     6     16      1 ;     C6 - H6    
     6     17      1 ;     C6 - H7    
     6     18      1 ;     C6 - H8    
     6     19      1 ;     C6 - H9    
     6     20      1 ;     C6 - H10   
     6     21      1 ;     C6 - H11   
     6     22      1 ;     C6 - H12   
     7      8      1 ;     O1 - O2    
     7      9      1 ;     O1 - O3    
     7     10      1 ;     O1 - O4    
     8     23      1 ;     O2 - H13   
     8     24      1 ;     O2 - H14   
     9     23      1 ;     O3 - H13   
     9     24      1 ;     O3 - H14   
    10     23      1 ;     O4 - H13   
    10     24      1 ;     O4 - H14   
    11      5      1 ;     H1 - C5    
    12      5      1 ;     H2 - C5    
    13      5      1 ;     H3 - C5    

[ angles ]
;   ai     aj     ak    funct   theta         cth
     1      7      5      1 ;    1.1360e+02    7.3915e+02 ;     C1 - O1   - C5       CT -    x - CT  
     2      8      6      1 ;    1.1360e+02    7.3915e+02 ;     C2 - O2   - C6       CT -    x - CT  
     3      9      6      1 ;    1.1360e+02    7.3915e+02 ;     C3 - O3   - C6       CT -    x - CT  
     4     10      6      1 ;    1.1360e+02    7.3915e+02 ;     C4 - O4   - C6       CT -    x - CT  
     5      6      8      1 ;    1.0762e+02    6.4802e+02 ;     C5 - C6   - O2       CT -   CT - x   
     5      6      9      1 ;    1.0762e+02    6.4802e+02 ;     C5 - C6   - O3       CT -   CT - x   
     5      6     10      1 ;    1.0762e+02    6.4802e+02 ;     C5 - C6   - O4       CT -   CT - x   
     6      5      7      1 ;    1.0762e+02    6.4802e+02 ;     C6 - C5   - O1       CT -   CT - x   
     6      5     23      1 ;    1.0959e+02    3.6217e+02 ;     C6 - C5   - H13      CT -   CT - HC  
     6      5     24      1 ;    1.0959e+02    3.6217e+02 ;     C6 - C5   - H14      CT -   CT - HC  
     7      1     11      1 ;    1.1034e+02    4.7028e+02 ;     O1 - C1   - H1        x -   CT - HC  
     7      1     12      1 ;    1.1034e+02    4.7028e+02 ;     O1 - C1   - H2        x -   CT - HC  
     7      1     13      1 ;    1.1034e+02    4.7028e+02 ;     O1 - C1   - H3        x -   CT - HC  
     7      5     23      1 ;    1.1034e+02    4.7028e+02 ;     O1 - C5   - H13       x -   CT - HC  
     7      5     24      1 ;    1.1034e+02    4.7028e+02 ;     O1 - C5   - H14       x -   CT - HC  
     8      2     14      1 ;    1.1034e+02    4.7028e+02 ;     O2 - C2   - H4        x -   CT - HC  
     8      2     15      1 ;    1.1034e+02    4.7028e+02 ;     O2 - C2   - H5        x -   CT - HC  
     8      2     16      1 ;    1.1034e+02    4.7028e+02 ;     O2 - C2   - H6        x -   CT - HC  
     8      6      9      1 ;    1.0789e+02    8.2375e+02 ;     O2 - C6   - O3        x -   CT - x   
     8      6     10      1 ;    1.0789e+02    8.2375e+02 ;     O2 - C6   - O4        x -   CT - x   
     9      3     17      1 ;    1.1034e+02    4.7028e+02 ;     O3 - C3   - H7        x -   CT - HC  
     9      3     18      1 ;    1.1034e+02    4.7028e+02 ;     O3 - C3   - H8        x -   CT - HC  
     9      3     19      1 ;    1.1034e+02    4.7028e+02 ;     O3 - C3   - H9        x -   CT - HC  
     9      6     10      1 ;    1.0789e+02    8.2375e+02 ;     O3 - C6   - O4        x -   CT - x   
    10      4     20      1 ;    1.1034e+02    4.7028e+02 ;     O4 - C4   - H10       x -   CT - HC  
    10      4     21      1 ;    1.1034e+02    4.7028e+02 ;     O4 - C4   - H11       x -   CT - HC  
    10      4     22      1 ;    1.1034e+02    4.7028e+02 ;     O4 - C4   - H12       x -   CT - HC  
    11      1     12      1 ;    1.0855e+02    2.9824e+02 ;     H1 - C1   - H2       HC -   CT - HC  
    11      1     13      1 ;    1.0855e+02    2.9824e+02 ;     H1 - C1   - H3       HC -   CT - HC  
    12      1     13      1 ;    1.0855e+02    2.9824e+02 ;     H2 - C1   - H3       HC -   CT - HC  
    14      2     15      1 ;    1.0855e+02    2.9824e+02 ;     H4 - C2   - H5       HC -   CT - HC  
    14      2     16      1 ;    1.0855e+02    2.9824e+02 ;     H4 - C2   - H6       HC -   CT - HC  
    15      2     16      1 ;    1.0855e+02    2.9824e+02 ;     H5 - C2   - H6       HC -   CT - HC  
    17      3     18      1 ;    1.0855e+02    2.9824e+02 ;     H7 - C3   - H8       HC -   CT - HC  
    17      3     19      1 ;    1.0855e+02    2.9824e+02 ;     H7 - C3   - H9       HC -   CT - HC  
    18      3     19      1 ;    1.0855e+02    2.9824e+02 ;     H8 - C3   - H9       HC -   CT - HC  
    20      4     21      1 ;    1.0855e+02    2.9824e+02 ;    H10 - C4   - H11      HC -   CT - HC  
    20      4     22      1 ;    1.0855e+02    2.9824e+02 ;    H10 - C4   - H12      HC -   CT - HC  
    21      4     22      1 ;    1.0855e+02    2.9824e+02 ;    H11 - C4   - H12      HC -   CT - HC  
    23      5     24      1 ;    1.0855e+02    2.9824e+02 ;    H13 - C5   - H14      HC -   CT - HC  

[ dihedrals ] ; propers
; for gromacs 4.5 or higher, using funct 9
;    i      j      k      l   func   phase     kd      pn
     1      7      5      6      9 ;     0.00   0.33472   2 ;     C1-    O1-    C5-    C6
     1      7      5      6      9 ;     0.00   3.13800   3 ;     C1-    O1-    C5-    C6
     1      7      5      6      9 ;   180.00   3.68192   1 ;     C1-    O1-    C5-    C6
     1      7      5     23      9 ;     0.00   1.41001   3 ;     C1-    O1-    C5-   H13
     1      7      5     24      9 ;     0.00   1.41001   3 ;     C1-    O1-    C5-   H14
     2      8      6      5      9 ;     0.00   0.33472   2 ;     C2-    O2-    C6-    C5
     2      8      6      5      9 ;     0.00   3.13800   3 ;     C2-    O2-    C6-    C5
     2      8      6      5      9 ;   180.00   3.68192   1 ;     C2-    O2-    C6-    C5
     2      8      6      9      9 ;     0.00   3.55640   2 ;     C2-    O2-    C6-    O3
     2      8      6      9      9 ;     0.00   3.55640   3 ;     C2-    O2-    C6-    O3
     2      8      6      9      9 ;   180.00   1.92464   1 ;     C2-    O2-    C6-    O3
     2      8      6     10      9 ;     0.00   3.55640   2 ;     C2-    O2-    C6-    O4
     2      8      6     10      9 ;     0.00   3.55640   3 ;     C2-    O2-    C6-    O4
     2      8      6     10      9 ;   180.00   1.92464   1 ;     C2-    O2-    C6-    O4
     3      9      6      5      9 ;     0.00   0.33472   2 ;     C3-    O3-    C6-    C5
     3      9      6      5      9 ;     0.00   3.13800   3 ;     C3-    O3-    C6-    C5
     3      9      6      5      9 ;   180.00   3.68192   1 ;     C3-    O3-    C6-    C5
     3      9      6      8      9 ;     0.00   3.55640   2 ;     C3-    O3-    C6-    O2
     3      9      6      8      9 ;     0.00   3.55640   3 ;     C3-    O3-    C6-    O2
     3      9      6      8      9 ;   180.00   1.92464   1 ;     C3-    O3-    C6-    O2
     3      9      6     10      9 ;     0.00   3.55640   2 ;     C3-    O3-    C6-    O4
     3      9      6     10      9 ;     0.00   3.55640   3 ;     C3-    O3-    C6-    O4
     3      9      6     10      9 ;   180.00   1.92464   1 ;     C3-    O3-    C6-    O4
     4     10      6      5      9 ;     0.00   0.33472   2 ;     C4-    O4-    C6-    C5
     4     10      6      5      9 ;     0.00   3.13800   3 ;     C4-    O4-    C6-    C5
     4     10      6      5      9 ;   180.00   3.68192   1 ;     C4-    O4-    C6-    C5
     4     10      6      8      9 ;     0.00   3.55640   2 ;     C4-    O4-    C6-    O2
     4     10      6      8      9 ;     0.00   3.55640   3 ;     C4-    O4-    C6-    O2
     4     10      6      8      9 ;   180.00   1.92464   1 ;     C4-    O4-    C6-    O2
     4     10      6      9      9 ;     0.00   3.55640   2 ;     C4-    O4-    C6-    O3
     4     10      6      9      9 ;     0.00   3.55640   3 ;     C4-    O4-    C6-    O3
     4     10      6      9      9 ;   180.00   1.92464   1 ;     C4-    O4-    C6-    O3
     6      8      2     14      9 ;     0.00   1.41001   3 ;     C6-    O2-    C2-    H4
     6      8      2     15      9 ;     0.00   1.41001   3 ;     C6-    O2-    C2-    H5
     6      8      2     16      9 ;     0.00   1.41001   3 ;     C6-    O2-    C2-    H6
     6      9      3     17      9 ;     0.00   1.41001   3 ;     C6-    O3-    C3-    H7
     6      9      3     18      9 ;     0.00   1.41001   3 ;     C6-    O3-    C3-    H8
     6      9      3     19      9 ;     0.00   1.41001   3 ;     C6-    O3-    C3-    H9
     6     10      4     20      9 ;     0.00   1.41001   3 ;     C6-    O4-    C4-   H10
     6     10      4     21      9 ;     0.00   1.41001   3 ;     C6-    O4-    C4-   H11
     6     10      4     22      9 ;     0.00   1.41001   3 ;     C6-    O4-    C4-   H12
     7      5      6      8      9 ;     0.00   0.75312   1 ;     O1-    C5-    C6-    O2
     7      5      6      8      9 ;     0.00   2.09200   3 ;     O1-    C5-    C6-    O2
     7      5      6      8      9 ;     0.00   3.76560   2 ;     O1-    C5-    C6-    O2
     7      5      6      9      9 ;     0.00   0.75312   1 ;     O1-    C5-    C6-    O3
     7      5      6      9      9 ;     0.00   2.09200   3 ;     O1-    C5-    C6-    O3
     7      5      6      9      9 ;     0.00   3.76560   2 ;     O1-    C5-    C6-    O3
     7      5      6     10      9 ;     0.00   0.75312   1 ;     O1-    C5-    C6-    O4
     7      5      6     10      9 ;     0.00   2.09200   3 ;     O1-    C5-    C6-    O4
     7      5      6     10      9 ;     0.00   3.76560   2 ;     O1-    C5-    C6-    O4
     8      6      5     23      9 ;     0.00   0.00000   0 ;     O2-    C6-    C5-   H13
     8      6      5     23      9 ;     0.00   1.04600   1 ;     O2-    C6-    C5-   H13
     8      6      5     24      9 ;     0.00   0.00000   0 ;     O2-    C6-    C5-   H14
     8      6      5     24      9 ;     0.00   1.04600   1 ;     O2-    C6-    C5-   H14
     9      6      5     23      9 ;     0.00   0.00000   0 ;     O3-    C6-    C5-   H13
     9      6      5     23      9 ;     0.00   1.04600   1 ;     O3-    C6-    C5-   H13
     9      6      5     24      9 ;     0.00   0.00000   0 ;     O3-    C6-    C5-   H14
     9      6      5     24      9 ;     0.00   1.04600   1 ;     O3-    C6-    C5-   H14
    10      6      5     23      9 ;     0.00   0.00000   0 ;     O4-    C6-    C5-   H13
    10      6      5     23      9 ;     0.00   1.04600   1 ;     O4-    C6-    C5-   H13
    10      6      5     24      9 ;     0.00   0.00000   0 ;     O4-    C6-    C5-   H14
    10      6      5     24      9 ;     0.00   1.04600   1 ;     O4-    C6-    C5-   H14
    11      1      7      5      9 ;     0.00   1.41001   3 ;     H1-    C1-    O1-    C5
    12      1      7      5      9 ;     0.00   1.41001   3 ;     H2-    C1-    O1-    C5
    13      1      7      5      9 ;     0.00   1.41001   3 ;     H3-    C1-    O1-    C5
