; mobley_1855337_GMX_OPLS.top created by acpype (v: 2023.10.27) on Wed May 20 23:52:15 2026

; Include forcefield parameters
#include "ffoplsaa.itp"

; Include mobley_1855337_GMX.itp topology
#include "mobley_1855337_GMX.itp"

; Ligand position restraints
#ifdef POSRES_LIG
#include "posre_mobley_1855337.itp"
#endif

[ system ]
 mobley_1855337

[ molecules ]
; Compound        nmols
 mobley_1855337   1     
