1235_tetrachlorobenzene
    12
   0.8180000  -0.4390000   0.5640000   2.9370000  -1.5970000   0.6200000
   1.8870000  -1.0340000  -0.1050000   0.7990000  -0.4060000   1.9590000
   2.9180000  -1.5650000   2.0140000   1.8500000  -0.9690000   2.6840000
   1.9090000  -1.0760000  -1.8260000  -0.5590000   0.3500000   2.7190000
   4.2560000  -2.2820000   2.8450000   1.8260000  -0.9290000   4.4220000
  -0.0000000  -0.0010000  -0.0040000   3.7690000  -2.0620000   0.0930000
