; mobley_1502181_GMX_OPLS.top created by acpype (v: 2023.10.27) on Wed May 20 23:46:25 2026

; Include forcefield parameters
#include "ffoplsaa.itp"

; Include mobley_1502181_GMX.itp topology
#include "mobley_1502181_GMX.itp"

; Ligand position restraints
#ifdef POSRES_LIG
#include "posre_mobley_1502181.itp"
#endif

[ system ]
 mobley_1502181

[ molecules ]
; Compound        nmols
 mobley_1502181   1     
