nonan_2_one
    28
   2.0330000  -2.5790000   0.1200000   2.2870000  -3.2380000  -1.2100000
   3.5740000   4.5330000   5.2230000   2.6300000  -1.2050000   0.3480000
   2.9870000   3.1480000   5.0040000   2.3680000  -0.6660000   1.7510000
   3.2700000   2.6360000   3.5920000   2.9610000   0.7300000   1.9630000
   2.7080000   1.2290000   3.3870000   1.3760000  -3.1430000   0.9960000
   1.6370000  -4.1110000  -1.3160000   3.3280000  -3.5600000  -1.2730000
   2.0580000  -2.5380000  -2.0180000   3.1440000   5.2560000   4.5220000
   4.6600000   4.5260000   5.0870000   3.3610000   4.8780000   6.2400000
   2.2260000  -0.5200000  -0.4070000   3.7080000  -1.2750000   0.1660000
   3.4120000   2.4570000   5.7420000   1.9050000   3.1840000   5.1780000
   2.8130000  -1.3590000   2.4760000   1.2920000  -0.6430000   1.9550000
   2.8260000   3.3200000   2.8580000   4.3520000   2.6290000   3.4140000
   2.5220000   1.4350000   1.2490000   4.0410000   0.7030000   1.7710000
   3.1700000   0.5410000   4.1060000   1.6290000   1.2310000   3.5890000
