%VERSION  VERSION_STAMP = V0001.000  DATE = 05/20/26  23:46:33                  
%FLAG TITLE                                                                     
%FORMAT(20a4)                                                                   
nonan_2_one                                                                     
%FLAG POINTERS                                                                  
%FORMAT(10I8)                                                                   
      28       4      18       9      42       9      64      12       0       0
     146       1       9       9      12       4       7      15       4       0
       0       0       0       0       0       0       0       0      28       0
       0
%FLAG ATOM_NAME                                                                 
%FORMAT(20a4)                                                                   
C1  C2  C3  C4  C5  C6  C7  C8  C9  O1  H1  H2  H3  H4  H5  H6  H7  H8  H9  H10 
H11 H12 H13 H14 H15 H16 H17 H18 
%FLAG CHARGE                                                                    
%FORMAT(5E16.8)                                                                 
  1.02791994E+01 -3.73739373E+00 -1.67827383E+00 -3.32374752E+00 -1.46507292E+00
 -1.37396142E+00 -1.44685062E+00 -1.42862832E+00 -1.44685062E+00 -9.65964123E+00
  1.14860624E+00  1.14860624E+00  1.14860624E+00  5.89801184E-01  5.89801184E-01
  5.89801184E-01  1.16076051E+00  1.16076051E+00  7.14314160E-01  7.14314160E-01
  1.00587096E+00  1.00587096E+00  7.05203010E-01  7.05203010E-01  6.77869560E-01
  6.77869560E-01  7.68981060E-01  7.68981060E-01
%FLAG ATOMIC_NUMBER                                                             
%FORMAT(10I8)                                                                   
       6       6       6       6       6       6       6       6       6       8
       1       1       1       1       1       1       1       1       1       1
       1       1       1       1       1       1       1       1
%FLAG MASS                                                                      
%FORMAT(5E16.8)                                                                 
  1.20100000E+01  1.20100000E+01  1.20100000E+01  1.20100000E+01  1.20100000E+01
  1.20100000E+01  1.20100000E+01  1.20100000E+01  1.20100000E+01  1.60000000E+01
  1.00800000E+00  1.00800000E+00  1.00800000E+00  1.00800000E+00  1.00800000E+00
  1.00800000E+00  1.00800000E+00  1.00800000E+00  1.00800000E+00  1.00800000E+00
  1.00800000E+00  1.00800000E+00  1.00800000E+00  1.00800000E+00  1.00800000E+00
  1.00800000E+00  1.00800000E+00  1.00800000E+00
%FLAG ATOM_TYPE_INDEX                                                           
%FORMAT(10I8)                                                                   
       1       2       2       2       2       2       2       2       2       3
       4       4       4       4       4       4       4       4       4       4
       4       4       4       4       4       4       4       4
%FLAG NUMBER_EXCLUDED_ATOMS                                                     
%FORMAT(10I8)                                                                   
      12       8      10      13      12      12      13      11      10       5
       2       1       1       4       3       2       3       2       3       2
       3       2       3       2       3       2       1       1
%FLAG NONBONDED_PARM_INDEX                                                      
%FORMAT(10I8)                                                                   
       1       2       4       7       2       3       5       8       4       5
       6       9       7       8       9      10
%FLAG RESIDUE_LABEL                                                             
%FORMAT(20a4)                                                                   
MOL 
%FLAG RESIDUE_POINTER                                                           
%FORMAT(10I8)                                                                   
       1
%FLAG BOND_FORCE_CONSTANT                                                       
%FORMAT(5E16.8)                                                                 
  2.34850000E+02  5.90600000E+02  3.45250000E+02  2.28890000E+02
%FLAG BOND_EQUIL_VALUE                                                          
%FORMAT(5E16.8)                                                                 
  1.52700000E+00  1.21900000E+00  1.09620000E+00  1.53540000E+00
%FLAG ANGLE_FORCE_CONSTANT                                                      
%FORMAT(5E16.8)                                                                 
  4.36300000E+01  6.03600000E+01  5.91500000E+01  7.64500000E+01  5.98700000E+01
  4.32700000E+01  3.58000000E+01
%FLAG ANGLE_EQUIL_VALUE                                                         
%FORMAT(5E16.8)                                                                 
  1.90153704E+00  1.94482122E+00  2.03645104E+00  2.14501057E+00  1.96576518E+00
  1.91427794E+00  1.88024401E+00
%FLAG DIHEDRAL_FORCE_CONSTANT                                                   
%FORMAT(5E16.8)                                                                 
  4.60000000E-01  4.00000000E-02  0.00000000E+00  1.55555556E-01  2.62000000E-01
  0.00000000E+00  5.20000000E-01  1.30000000E-01  6.80000000E-01  2.00000000E-01
  4.40000000E-01  4.03000000E+00  3.66000000E+00  1.20000000E-01  1.10000000E+00
%FLAG DIHEDRAL_PERIODICITY                                                      
%FORMAT(5E16.8)                                                                 
  1.00000000E+00  2.00000000E+00  3.00000000E+00  3.00000000E+00  2.00000000E+00
  3.00000000E+00  3.00000000E+00  3.00000000E+00  1.00000000E+00  2.00000000E+00
  3.00000000E+00  1.00000000E+00  2.00000000E+00  3.00000000E+00  2.00000000E+00
%FLAG DIHEDRAL_PHASE                                                            
%FORMAT(5E16.8)                                                                 
  3.14159400E+00  0.00000000E+00  0.00000000E+00  0.00000000E+00  3.14159400E+00
  3.14159400E+00  0.00000000E+00  0.00000000E+00  0.00000000E+00  3.14159400E+00
  3.14159400E+00  0.00000000E+00  3.14159400E+00  0.00000000E+00  3.14159400E+00
%FLAG SCEE_SCALE_FACTOR                                                         
%FORMAT(5E16.8)                                                                 
  1.20000000E+00  1.20000000E+00  1.20000000E+00  1.20000000E+00  1.20000000E+00
  1.20000000E+00  1.20000000E+00  1.20000000E+00  1.20000000E+00  1.20000000E+00
  1.20000000E+00  1.20000000E+00  1.20000000E+00  1.20000000E+00  0.00000000E+00
%FLAG SCNB_SCALE_FACTOR                                                         
%FORMAT(5E16.8)                                                                 
  2.00000000E+00  2.00000000E+00  2.00000000E+00  2.00000000E+00  2.00000000E+00
  2.00000000E+00  2.00000000E+00  2.00000000E+00  2.00000000E+00  2.00000000E+00
  2.00000000E+00  2.00000000E+00  2.00000000E+00  2.00000000E+00  0.00000000E+00
%FLAG SOLTY                                                                     
%FORMAT(5E16.8)                                                                 
  0.00000000E+00  0.00000000E+00  0.00000000E+00  0.00000000E+00
%FLAG LENNARD_JONES_ACOEF                                                       
%FORMAT(5E16.8)                                                                 
  6.96551276E+05  8.43969952E+05  1.02073671E+06  5.17507491E+05  6.30925504E+05
  3.76435470E+05  8.12662403E+04  1.00235148E+05  5.68021765E+04  7.94617769E+03
%FLAG LENNARD_JONES_BCOEF                                                       
%FORMAT(5E16.8)                                                                 
  5.24668528E+02  5.90251928E+02  6.63431737E+02  4.98871431E+02  5.62969425E+02
  4.69350655E+02  1.21392023E+02  1.37787728E+02  1.11953944E+02  2.57122925E+01
%FLAG BONDS_INC_HYDROGEN                                                        
%FORMAT(10I8)                                                                   
       3      30       3       3      33       3       3      36       3       6
      39       3       6      42       3       6      45       3       9      48
       3       9      51       3      12      54       3      12      57       3
      15      60       3      15      63       3      18      66       3      18
      69       3      21      72       3      21      75       3      24      78
       3      24      81       3
%FLAG BONDS_WITHOUT_HYDROGEN                                                    
%FORMAT(10I8)                                                                   
       0       3       1       0       9       1       0      27       2       6
      12       4       9      15       4      12      18       4      15      21
       4      18      24       4      21      24       4
%FLAG ANGLES_INC_HYDROGEN                                                       
%FORMAT(10I8)                                                                   
       0       3      30       1       0       3      33       1       0       3
      36       1       0       9      48       1       0       9      51       1
       6      12      54       6       6      12      57       6       9      15
      60       6       9      15      63       6      12       6      39       6
      12       6      42       6      12       6      45       6      12      18
      66       6      12      18      69       6      15       9      48       6
      15       9      51       6      15      21      72       6      15      21
      75       6      18      12      54       6      18      12      57       6
      18      24      78       6      18      24      81       6      21      15
      60       6      21      15      63       6      21      24      78       6
      21      24      81       6      24      18      66       6      24      18
      69       6      24      21      72       6      24      21      75       6
      30       3      33       7      30       3      36       7      33       3
      36       7      39       6      42       7      39       6      45       7
      42       6      45       7      48       9      51       7      54      12
      57       7      60      15      63       7      66      18      69       7
      72      21      75       7      78      24      81       7
%FLAG ANGLES_WITHOUT_HYDROGEN                                                   
%FORMAT(10I8)                                                                   
       0       9      15       2       3       0       9       3       3       0
      27       4       6      12      18       5       9       0      27       4
       9      15      21       5      12      18      24       5      15      21
      24       5      18      24      21       5
%FLAG DIHEDRALS_INC_HYDROGEN                                                    
%FORMAT(10I8)                                                                   
       0       9      15      60       4       0       9      15      63       4
       3       0       9      48       6       3       0       9      51       6
       6      12      18      66       8       6      12      18      69       8
       9       0       3      30       6       9       0       3      33       6
       9       0       3      36       6       9      15      21      72       8
       9      15      21      75       8      12      18      24      78       8
      12      18      24      81       8      15      21      24      78       8
      15      21      24      81       8      18      12       6      39       8
      18      12       6      42       8      18      12       6      45       8
      18      24      21      72       8      18      24      21      75       8
      21      15       9      48       8      21      15       9      51       8
      21      24      18      66       8      21      24      18      69       8
      24      18      12      54       8      24      18      12      57       8
      24      21      15      60       8      24      21      15      63       8
      27       0       3      30      12      27       0      -3      30      13
      27       0       3      33      12      27       0      -3      33      13
      27       0       3      36      12      27       0      -3      36      13
      27       0       9      48      12      27       0      -9      48      13
      27       0       9      51      12      27       0      -9      51      13
      39       6      12      54      14      39       6      12      57      14
      42       6      12      54      14      42       6      12      57      14
      45       6      12      54      14      45       6      12      57      14
      48       9      15      60      14      48       9      15      63      14
      51       9      15      60      14      51       9      15      63      14
      54      12      18      66      14      54      12      18      69      14
      57      12      18      66      14      57      12      18      69      14
      60      15      21      72      14      60      15      21      75      14
      63      15      21      72      14      63      15      21      75      14
      66      18      24      78      14      66      18      24      81      14
      69      18      24      78      14      69      18      24      81      14
      72      21      24      78      14      72      21      24      81      14
      75      21      24      78      14      75      21      24      81      14
%FLAG DIHEDRALS_WITHOUT_HYDROGEN                                                
%FORMAT(10I8)                                                                   
       0       9      15      21       1       0       9     -15      21       2
       0       9     -15      21       3       3       0       9      15       5
       6      12      18      24       7       9      15      21      24       7
      12      18      24      21       7      27       0       9      15       9
      27       0      -9      15      10      27       0      -9      15      11
      15      21      24      18       7      27       0      -9      -3      15
%FLAG EXCLUDED_ATOMS_LIST                                                       
%FORMAT(10I8)                                                                   
       2       4       6       8      10      11      12      13      17      18
      21      22       4       6      10      11      12      13      17      18
       5       7       9      14      15      16      19      20      23      24
       6       8       9      10      11      12      13      17      18      21
      22      25      26       7       8       9      14      15      16      19
      20      23      24      27      28       7       8       9      10      17
      18      21      22      25      26      27      28       8       9      14
      15      16      19      20      23      24      25      26      27      28
       9      17      18      21      22      23      24      25      26      27
      28      19      20      21      22      23      24      25      26      27
      28      11      12      13      17      18      12      13      13       0
      15      16      19      20      16      19      20      19      20      18
      21      22      21      22      20      23      24      23      24      22
      25      26      25      26      24      27      28      27      28      26
      27      28      27      28      28       0
%FLAG HBOND_ACOEF                                                               
%FORMAT(5E16.8)                                                                 

%FLAG HBOND_BCOEF                                                               
%FORMAT(5E16.8)                                                                 

%FLAG HBCUT                                                                     
%FORMAT(5E16.8)                                                                 

%FLAG AMBER_ATOM_TYPE                                                           
%FORMAT(20a4)                                                                   
c   c3  c3  c3  c3  c3  c3  c3  c3  o   hc  hc  hc  hc  hc  hc  hc  hc  hc  hc  
hc  hc  hc  hc  hc  hc  hc  hc  
%FLAG TREE_CHAIN_CLASSIFICATION                                                 
%FORMAT(20a4)                                                                   
BLA BLA BLA BLA BLA BLA BLA BLA BLA BLA BLA BLA BLA BLA BLA BLA BLA BLA BLA BLA 
BLA BLA BLA BLA BLA BLA BLA BLA 
%FLAG JOIN_ARRAY                                                                
%FORMAT(10I8)                                                                   
       0       0       0       0       0       0       0       0       0       0
       0       0       0       0       0       0       0       0       0       0
       0       0       0       0       0       0       0       0
%FLAG IROTAT                                                                    
%FORMAT(10I8)                                                                   
       0       0       0       0       0       0       0       0       0       0
       0       0       0       0       0       0       0       0       0       0
       0       0       0       0       0       0       0       0
%FLAG RADIUS_SET                                                                
%FORMAT(1a80)                                                                   
modified Bondi radii (mbondi)                                                   
%FLAG RADII                                                                     
%FORMAT(5E16.8)                                                                 
  1.70000000E+00  1.70000000E+00  1.70000000E+00  1.70000000E+00  1.70000000E+00
  1.70000000E+00  1.70000000E+00  1.70000000E+00  1.70000000E+00  1.50000000E+00
  1.30000000E+00  1.30000000E+00  1.30000000E+00  1.30000000E+00  1.30000000E+00
  1.30000000E+00  1.30000000E+00  1.30000000E+00  1.30000000E+00  1.30000000E+00
  1.30000000E+00  1.30000000E+00  1.30000000E+00  1.30000000E+00  1.30000000E+00
  1.30000000E+00  1.30000000E+00  1.30000000E+00
%FLAG SCREEN                                                                    
%FORMAT(5E16.8)                                                                 
  7.20000000E-01  7.20000000E-01  7.20000000E-01  7.20000000E-01  7.20000000E-01
  7.20000000E-01  7.20000000E-01  7.20000000E-01  7.20000000E-01  8.50000000E-01
  8.50000000E-01  8.50000000E-01  8.50000000E-01  8.50000000E-01  8.50000000E-01
  8.50000000E-01  8.50000000E-01  8.50000000E-01  8.50000000E-01  8.50000000E-01
  8.50000000E-01  8.50000000E-01  8.50000000E-01  8.50000000E-01  8.50000000E-01
  8.50000000E-01  8.50000000E-01  8.50000000E-01
%FLAG IPOL                                                                      
%FORMAT(1I8)                                                                    
       0
