mobley_6060301_GMX.gro created by acpype (v: 2023.10.27) on Wed May 20 23:42:53 2026
11368
    1MOL     C1    1   2.430   2.120   2.608
    1MOL     C2    2   2.485   2.261   2.589
    1MOL     C3    3   2.416   2.333   2.473
    1MOL     C4    4   2.474   2.474   2.453
    1MOL     C5    5   2.404   2.553   2.343
    1MOL     C6    6   2.463   2.692   2.321
    1MOL     N1    7   2.392   2.762   2.215
    1MOL     H1    8   2.481   2.071   2.691
    1MOL     H2    9   2.323   2.123   2.629
    1MOL     H3   10   2.446   2.060   2.518
    1MOL     H4   11   2.471   2.318   2.682
    1MOL     H5   12   2.593   2.256   2.570
    1MOL     H6   13   2.308   2.340   2.493
    1MOL     H7   14   2.428   2.274   2.382
    1MOL     H8   15   2.581   2.467   2.431
    1MOL     H9   16   2.465   2.530   2.547
    1MOL    H10   17   2.298   2.563   2.371
    1MOL    H11   18   2.406   2.496   2.249
    1MOL    H12   19   2.456   2.751   2.413
    1MOL    H13   20   2.569   2.685   2.294
    1MOL    H14   21   2.294   2.732   2.215
    1MOL    H15   22   2.431   2.734   2.125
    2SOL     OW   23   0.230   0.628   0.113
    2SOL    HW1   24   0.137   0.626   0.150
    2SOL    HW2   25   0.231   0.589   0.021
    3SOL     OW   26   0.225   0.275   0.996
    3SOL    HW1   27   0.260   0.258   1.088
    3SOL    HW2   28   0.137   0.230   0.984
    4SOL     OW   29   0.019   0.368   0.647
    4SOL    HW1   30  -0.063   0.411   0.686
    4SOL    HW2   31  -0.009   0.295   0.584
    5SOL     OW   32   0.569   1.275   1.165
    5SOL    HW1   33   0.476   1.268   1.128
    5SOL    HW2   34   0.580   1.364   1.209
    6SOL     OW   35   1.555   1.511   0.703
    6SOL    HW1   36   1.498   1.495   0.784
    6SOL    HW2   37   1.496   1.521   0.623
    7SOL     OW   38   1.135   0.703   0.717
    7SOL    HW1   39   1.192   0.781   0.692
    7SOL    HW2   40   1.075   0.729   0.793
    8SOL     OW   41   1.755   0.607   0.231
    8SOL    HW1   42   1.743   0.594   0.132
    8SOL    HW2   43   1.725   0.526   0.280
    9SOL     OW   44   0.768   1.144   1.023
    9SOL    HW1   45   0.690   1.161   1.083
    9SOL    HW2   46   0.802   1.231   0.987
   10SOL     OW   47   0.850   0.798   1.823
   10SOL    HW1   48   0.846   0.874   1.888
   10SOL    HW2   49   0.872   0.834   1.732
   11SOL     OW   50   0.685   1.012   0.665
   11SOL    HW1   51   0.754   0.996   0.735
   11SOL    HW2   52   0.612   1.069   0.703
   12SOL     OW   53   0.686   1.161   1.803
   12SOL    HW1   54   0.746   1.240   1.817
   12SOL    HW2   55   0.600   1.192   1.762
   13SOL     OW   56   0.335   1.435   1.061
   13SOL    HW1   57   0.257   1.404   1.008
   13SOL    HW2   58   0.393   1.493   1.004
   14SOL     OW   59   1.460   1.505   1.339
   14SOL    HW1   60   1.484   1.599   1.365
   14SOL    HW2   61   1.444   1.451   1.421
   15SOL     OW   62   0.438   0.392   1.499
   15SOL    HW1   63   0.520   0.336   1.508
   15SOL    HW2   64   0.357   0.334   1.503
   16SOL     OW   65   1.603   0.447   0.737
   16SOL    HW1   66   1.529   0.493   0.687
   16SOL    HW2   67   1.654   0.515   0.790
   17SOL     OW   68   0.231   1.713   0.483
   17SOL    HW1   69   0.265   1.790   0.537
   17SOL    HW2   70   0.275   1.713   0.393
   18SOL     OW   71   1.127   1.341   1.690
   18SOL    HW1   72   1.174   1.341   1.778
   18SOL    HW2   73   1.079   1.254   1.679
   19SOL     OW   74   0.230   1.434   0.538
   19SOL    HW1   75   0.204   1.530   0.538
   19SOL    HW2   76   0.159   1.380   0.583
   20SOL     OW   77   0.240   1.091   0.886
   20SOL    HW1   78   0.254   1.007   0.938
   20SOL    HW2   79   0.185   1.155   0.941
   21SOL     OW   80   0.620   1.786   1.439
   21SOL    HW1   81   0.528   1.769   1.474
   21SOL    HW2   82   0.648   1.878   1.465
   22SOL     OW   83   0.606   0.964   0.123
   22SOL    HW1   84   0.613   1.048   0.069
   22SOL    HW2   85   0.652   0.977   0.211
   23SOL     OW   86   1.594   0.114   1.480
   23SOL    HW1   87   1.576   0.181   1.408
   23SOL    HW2   88   1.591   0.160   1.569
   24SOL     OW   89   0.122   0.643   0.563
   24SOL    HW1   90   0.077   0.555   0.580
   24SOL    HW2   91   0.121   0.697   0.647
   25SOL     OW   92   1.842   1.767   0.359
   25SOL    HW1   93   1.896   1.738   0.439
   25SOL    HW2   94   1.872   1.857   0.330
   26SOL     OW   95   0.027   1.596   0.117
   26SOL    HW1   96   0.008   1.500   0.138
   26SOL    HW2   97  -0.006   1.654   0.192
   27SOL     OW   98   1.689   0.922   0.612
   27SOL    HW1   99   1.784   0.893   0.620
   27SOL    HW2  100   1.681   0.987   0.537
   28SOL     OW  101   1.641   1.108   0.432
   28SOL    HW1  102   1.727   1.110   0.380
   28SOL    HW2  103   1.655   1.155   0.520
   29SOL     OW  104   0.113   0.737   1.597
   29SOL    HW1  105   0.201   0.724   1.642
   29SOL    HW2  106   0.100   0.834   1.575
   30SOL     OW  107   0.613   1.365   0.726
   30SOL    HW1  108   0.564   1.278   0.735
   30SOL    HW2  109   0.590   1.408   0.639
   31SOL     OW  110   1.293   1.228   1.423
   31SOL    HW1  111   1.330   1.155   1.365
   31SOL    HW2  112   1.345   1.233   1.508
   32SOL     OW  113   0.809   0.004   0.502
   32SOL    HW1  114   0.849   0.095   0.493
   32SOL    HW2  115   0.709   0.012   0.508
   33SOL     OW  116   0.197   0.976   1.264
   33SOL    HW1  117   0.286   0.931   1.250
   33SOL    HW2  118   0.124   0.911   1.245
   34SOL     OW  119   1.525   0.999   0.190
   34SOL    HW1  120   1.462   0.923   0.203
   34SOL    HW2  121   1.573   1.017   0.276
   35SOL     OW  122   1.187   1.792   1.616
   35SOL    HW1  123   1.211   1.852   1.540
   35SOL    HW2  124   1.194   1.697   1.586
   36SOL     OW  125   0.317   0.251   1.801
   36SOL    HW1  126   0.388   0.322   1.807
   36SOL    HW2  127   0.229   0.290   1.829
   37SOL     OW  128   1.466   1.417   0.953
   37SOL    HW1  129   1.407   1.423   1.033
   37SOL    HW2  130   1.451   1.329   0.907
   38SOL     OW  131   1.667   1.714   0.572
   38SOL    HW1  132   1.626   1.691   0.484
   38SOL    HW2  133   1.649   1.640   0.637
   39SOL     OW  134   0.598   0.729   0.270
   39SOL    HW1  135   0.622   0.798   0.202
   39SOL    HW2  136   0.520   0.762   0.324
   40SOL     OW  137   1.281   0.345   0.944
   40SOL    HW1  138   1.195   0.295   0.931
   40SOL    HW2  139   1.343   0.291   1.000
   41SOL     OW  140   1.576   1.662   0.307
   41SOL    HW1  141   1.665   1.708   0.310
   41SOL    HW2  142   1.555   1.638   0.212
   42SOL     OW  143   0.807   0.605   1.465
   42SOL    HW1  144   0.760   0.602   1.554
   42SOL    HW2  145   0.756   0.550   1.399
   43SOL     OW  146   1.394   0.469   1.674
   43SOL    HW1  147   1.374   0.512   1.762
   43SOL    HW2  148   1.472   0.407   1.683
   44SOL     OW  149   0.973   0.890   1.572
   44SOL    HW1  150   1.019   0.806   1.543
   44SOL    HW2  151   0.917   0.924   1.497
   45SOL     OW  152   0.991   0.410   1.242
   45SOL    HW1  153   0.914   0.444   1.296
   45SOL    HW2  154   0.957   0.359   1.163
   46SOL     OW  155   1.041   0.701   0.429
   46SOL    HW1  156   1.067   0.697   0.525
   46SOL    HW2  157   0.956   0.650   0.415
   47SOL     OW  158   0.076   0.811   0.789
   47SOL    HW1  159   0.175   0.799   0.798
   47SOL    HW2  160   0.052   0.906   0.810
   48SOL     OW  161   0.130   1.821   1.571
   48SOL    HW1  162   0.120   1.806   1.670
   48SOL    HW2  163   0.044   1.857   1.535
   49SOL     OW  164   0.865   0.348   0.195
   49SOL    HW1  165   0.924   0.411   0.146
   49SOL    HW2  166   0.884   0.254   0.166
   50SOL     OW  167   1.719   0.585   1.831
   50SOL    HW1  168   1.693   0.674   1.795
   50SOL    HW2  169   1.717   0.517   1.758
   51SOL     OW  170   1.362   1.144   0.545
   51SOL    HW1  171   1.445   1.115   0.497
   51SOL    HW2  172   1.313   1.211   0.489
   52SOL     OW  173   0.550   0.196   0.885
   52SOL    HW1  174   0.545   0.191   0.985
   52SOL    HW2  175   0.552   0.292   0.856
   53SOL     OW  176   1.008   1.456   0.477
   53SOL    HW1  177   0.962   1.528   0.425
   53SOL    HW2  178   1.004   1.476   0.575
   54SOL     OW  179   0.351   1.801   0.853
   54SOL    HW1  180   0.401   1.715   0.859
   54SOL    HW2  181   0.416   1.878   0.850
   55SOL     OW  182   1.795   1.066   0.873
   55SOL    HW1  183   1.733   1.051   0.797
   55SOL    HW2  184   1.743   1.077   0.958
   56SOL     OW  185   1.227   1.550   1.506
   56SOL    HW1  186   1.233   1.473   1.570
   56SOL    HW2  187   1.175   1.524   1.426
   57SOL     OW  188   0.321   0.943   0.242
   57SOL    HW1  189   0.403   0.982   0.200
   57SOL    HW2  190   0.294   0.861   0.193
   58SOL     OW  191   1.458   0.735   0.728
   58SOL    HW1  192   1.453   0.670   0.803
   58SOL    HW2  193   1.538   0.794   0.741
   59SOL     OW  194   0.461   1.266   1.727
   59SOL    HW1  195   0.411   1.267   1.641
   59SOL    HW2  196   0.398   1.248   1.803
   60SOL     OW  197   1.111   1.776   0.237
   60SOL    HW1  198   1.051   1.714   0.287
   60SOL    HW2  199   1.142   1.732   0.152
   61SOL     OW  200   0.202   0.285   1.498
   61SOL    HW1  201   0.122   0.345   1.485
   61SOL    HW2  202   0.192   0.236   1.584
   62SOL     OW  203   1.632   1.377   0.081
   62SOL    HW1  204   1.600   1.471   0.071
   62SOL    HW2  205   1.556   1.314   0.069
   63SOL     OW  206   0.464   1.743   0.323
   63SOL    HW1  207   0.497   1.782   0.409
   63SOL    HW2  208   0.540   1.736   0.258
   64SOL     OW  209   1.400   0.107   0.426
   64SOL    HW1  210   1.376   0.070   0.336
   64SOL    HW2  211   1.499   0.123   0.430
   65SOL     OW  212   0.249   1.785   1.241
   65SOL    HW1  213   0.306   1.720   1.291
   65SOL    HW2  214   0.233   1.752   1.148
   66SOL     OW  215   0.940   1.698   0.904
   66SOL    HW1  216   1.020   1.641   0.925
   66SOL    HW2  217   0.891   1.658   0.827
   67SOL     OW  218   0.382   0.700   0.480
   67SOL    HW1  219   0.427   0.610   0.477
   67SOL    HW2  220   0.288   0.689   0.513
   68SOL     OW  221   1.547   0.222   1.729
   68SOL    HW1  222   1.542   0.259   1.821
   68SOL    HW2  223   1.475   0.153   1.717
   69SOL     OW  224   0.614   0.122   0.117
   69SOL    HW1  225   0.712   0.100   0.124
   69SOL    HW2  226   0.583   0.105   0.024
   70SOL     OW  227   0.781   0.264   1.749
   70SOL    HW1  228   0.848   0.203   1.792
   70SOL    HW2  229   0.708   0.283   1.814
   71SOL     OW  230   0.888   1.514   1.195
   71SOL    HW1  231   0.865   1.489   1.101
   71SOL    HW2  232   0.949   1.445   1.234
   72SOL     OW  233   1.351   0.590   1.433
   72SOL    HW1  234   1.379   0.547   1.518
   72SOL    HW2  235   1.376   0.686   1.434
   73SOL     OW  236   0.803   1.402   0.924
   73SOL    HW1  237   0.893   1.416   0.882
   73SOL    HW2  238   0.732   1.404   0.853
   74SOL     OW  239   0.922   0.503   0.899
   74SOL    HW1  240   0.897   0.494   0.803
   74SOL    HW2  241   0.970   0.421   0.930
   75SOL     OW  242   0.539   0.064   0.512
   75SOL    HW1  243   0.458   0.065   0.570
   75SOL    HW2  244   0.542   0.147   0.457
   76SOL     OW  245   1.434   1.188   0.041
   76SOL    HW1  246   1.466   1.112   0.098
   76SOL    HW2  247   1.342   1.215   0.071
   77SOL     OW  248   0.297   0.035   0.171
   77SOL    HW1  249   0.346   0.119   0.150
   77SOL    HW2  250   0.359  -0.030   0.216
   78SOL     OW  251   0.935   0.236   0.480
   78SOL    HW1  252   0.887   0.277   0.402
   78SOL    HW2  253   1.034   0.234   0.461
   79SOL     OW  254   1.076   0.683   1.464
   79SOL    HW1  255   0.996   0.622   1.467
   79SOL    HW2  256   1.157   0.630   1.440
   80SOL     OW  257   1.227   1.570   0.793
   80SOL    HW1  258   1.248   1.644   0.728
   80SOL    HW2  259   1.295   1.570   0.866
   81SOL     OW  260   0.459   1.152   0.741
   81SOL    HW1  261   0.388   1.125   0.806
   81SOL    HW2  262   0.433   1.124   0.648
   82SOL     OW  263   1.271   1.797   0.591
   82SOL    HW1  264   1.315   1.861   0.527
   82SOL    HW2  265   1.221   1.849   0.661
   83SOL     OW  266   1.032   0.549   0.016
   83SOL    HW1  267   0.991   0.631  -0.023
   83SOL    HW2  268   1.096   0.575   0.089
   84SOL     OW  269   0.078   0.556   1.386
   84SOL    HW1  270   0.170   0.555   1.345
   84SOL    HW2  271   0.072   0.630   1.453
   85SOL     OW  272   0.561   0.222   1.147
   85SOL    HW1  273   0.599   0.138   1.184
   85SOL    HW2  274   0.473   0.241   1.191
   86SOL     OW  275   0.866   0.454   0.642
   86SOL    HW1  276   0.834   0.526   0.580
   86SOL    HW2  277   0.890   0.373   0.589
   87SOL     OW  278   1.017   0.039   0.753
   87SOL    HW1  279   0.945   0.044   0.684
   87SOL    HW2  280   0.993  -0.030   0.822
   88SOL     OW  281   1.429   1.173   0.867
   88SOL    HW1  282   1.374   1.089   0.860
   88SOL    HW2  283   1.455   1.202   0.775
   89SOL     OW  284   1.466   0.590   0.992
   89SOL    HW1  285   1.436   0.495   0.999
   89SOL    HW2  286   1.539   0.606   1.058
   90SOL     OW  287   1.857   0.833   0.377
   90SOL    HW1  288   1.899   0.769   0.441
   90SOL    HW2  289   1.819   0.782   0.299
   91SOL     OW  290   0.488   1.385   0.174
   91SOL    HW1  291   0.401   1.370   0.221
   91SOL    HW2  292   0.471   1.411   0.079
   92SOL     OW  293   1.664   1.280   0.657
   92SOL    HW1  294   1.763   1.288   0.671
   92SOL    HW2  295   1.619   1.364   0.688
   93SOL     OW  296   1.390   0.575   0.078
   93SOL    HW1  297   1.336   0.554   0.159
   93SOL    HW2  298   1.481   0.534   0.087
   94SOL     OW  299   0.527   0.256   0.328
   94SOL    HW1  300   0.554   0.197   0.253
   94SOL    HW2  301   0.527   0.351   0.297
   95SOL     OW  302   1.754   1.223   1.588
   95SOL    HW1  303   1.845   1.184   1.575
   95SOL    HW2  304   1.762   1.319   1.612
   96SOL     OW  305   1.064   1.347   1.340
   96SOL    HW1  306   0.984   1.324   1.395
   96SOL    HW2  307   1.147   1.321   1.389
   97SOL     OW  308   1.592   1.629   1.625
   97SOL    HW1  309   1.619   1.663   1.535
   97SOL    HW2  310   1.671   1.591   1.671
   98SOL     OW  311   1.111   1.195   1.100
   98SOL    HW1  312   1.071   1.239   1.181
   98SOL    HW2  313   1.070   1.232   1.017
   99SOL     OW  314   1.638   1.099   1.079
   99SOL    HW1  315   1.643   1.180   1.138
   99SOL    HW2  316   1.552   1.101   1.028
  100SOL     OW  317   0.915   0.089   1.402
  100SOL    HW1  318   0.940   0.069   1.307
  100SOL    HW2  319   0.987   0.145   1.444
  101SOL     OW  320   0.980   1.116   1.719
  101SOL    HW1  321   0.881   1.122   1.729
  101SOL    HW2  322   1.003   1.036   1.663
  102SOL     OW  323   0.705   1.050   0.368
  102SOL    HW1  324   0.691   1.057   0.467
  102SOL    HW2  325   0.789   0.999   0.350
  103SOL     OW  326   0.410   0.813   1.251
  103SOL    HW1  327   0.496   0.825   1.301
  103SOL    HW2  328   0.368   0.726   1.278
  104SOL     OW  329   1.274   0.386   1.262
  104SOL    HW1  330   1.295   0.460   1.326
  104SOL    HW2  331   1.185   0.403   1.219
  105SOL     OW  332   0.064   1.564   1.331
  105SOL    HW1  333   0.018   1.646   1.297
  105SOL    HW2  334   0.162   1.583   1.340
  106SOL     OW  335   0.367   1.100   0.501
  106SOL    HW1  336   0.360   1.183   0.445
  106SOL    HW2  337   0.371   1.020   0.441
  107SOL     OW  338   0.566   0.537   0.865
  107SOL    HW1  339   0.578   0.603   0.791
  107SOL    HW2  340   0.612   0.571   0.948
  108SOL     OW  341   1.252   1.348   0.388
  108SOL    HW1  342   1.302   1.425   0.428
  108SOL    HW2  343   1.157   1.350   0.420
  109SOL     OW  344   1.272   1.445   1.142
  109SOL    HW1  345   1.319   1.458   1.229
  109SOL    HW2  346   1.206   1.371   1.151
  110SOL     OW  347   1.582   0.639   0.472
  110SOL    HW1  348   1.551   0.700   0.545
  110SOL    HW2  349   1.632   0.691   0.403
  111SOL     OW  350   0.354   1.510   1.329
  111SOL    HW1  351   0.333   1.466   1.242
  111SOL    HW2  352   0.451   1.536   1.332
  112SOL     OW  353   0.402   0.751   1.598
  112SOL    HW1  354   0.470   0.806   1.551
  112SOL    HW2  355   0.442   0.663   1.625
  113SOL     OW  356   1.587   0.779   1.670
  113SOL    HW1  357   1.495   0.817   1.665
  113SOL    HW2  358   1.647   0.826   1.605
  114SOL     OW  359   1.013   0.105   1.770
  114SOL    HW1  360   1.019   0.190   1.718
  114SOL    HW2  361   1.045   0.029   1.713
  115SOL     OW  362   0.504   0.050   1.740
  115SOL    HW1  363   0.462  -0.007   1.670
  115SOL    HW2  364   0.438   0.119   1.772
  116SOL     OW  365   0.573   0.870   1.029
  116SOL    HW1  366   0.617   0.959   1.020
  116SOL    HW2  367   0.510   0.870   1.106
  117SOL     OW  368   1.360   0.862   1.045
  117SOL    HW1  369   1.285   0.862   0.979
  117SOL    HW2  370   1.397   0.770   1.054
  118SOL     OW  371   1.209   0.525   0.275
  118SOL    HW1  372   1.222   0.441   0.329
  118SOL    HW2  373   1.180   0.599   0.335
  119SOL     OW  374   0.307   0.213   1.231
  119SOL    HW1  375   0.284   0.250   1.321
  119SOL    HW2  376   0.277   0.118   1.225
  120SOL     OW  377   0.037   1.310   1.282
  120SOL    HW1  378   0.090   1.261   1.350
  120SOL    HW2  379   0.059   1.408   1.287
  121SOL     OW  380   0.732   0.634   1.064
  121SOL    HW1  381   0.791   0.608   0.988
  121SOL    HW2  382   0.704   0.730   1.053
  122SOL     OW  383   1.728   0.935   1.854
  122SOL    HW1  384   1.682   0.928   1.765
  122SOL    HW2  385   1.666   0.979   1.920
  123SOL     OW  386   0.307   0.063   0.618
  123SOL    HW1  387   0.296   0.157   0.651
  123SOL    HW2  388   0.302   0.000   0.695
  124SOL     OW  389   1.622   0.367   0.374
  124SOL    HW1  390   1.624   0.291   0.438
  124SOL    HW2  391   1.574   0.444   0.414
  125SOL     OW  392   1.023   0.766   0.966
  125SOL    HW1  393   1.038   0.787   1.062
  125SOL    HW2  394   0.993   0.671   0.957
  126SOL     OW  395   0.980   1.573   1.700
  126SOL    HW1  396   0.960   1.617   1.612
  126SOL    HW2  397   1.019   1.482   1.684
  127SOL     OW  398   1.859   1.518   1.605
  127SOL    HW1  399   1.873   1.545   1.510
  127SOL    HW2  400   1.942   1.540   1.658
  128SOL     OW  401   0.350   0.898   1.804
  128SOL    HW1  402   0.426   0.942   1.852
  128SOL    HW2  403   0.385   0.851   1.722
  129SOL     OW  404   1.540   0.274   0.125
  129SOL    HW1  405   1.479   0.199   0.148
  129SOL    HW2  406   1.562   0.326   0.208
  130SOL     OW  407   1.303   0.838   0.042
  130SOL    HW1  408   1.337   0.745   0.057
  130SOL    HW2  409   1.321   0.865  -0.053
  131SOL     OW  410   1.068   1.333   0.849
  131SOL    HW1  411   1.075   1.249   0.794
  131SOL    HW2  412   1.130   1.402   0.813
  132SOL     OW  413   0.319   0.810   0.949
  132SOL    HW1  414   0.412   0.846   0.954
  132SOL    HW2  415   0.313   0.725   1.001
  133SOL     OW  416   0.339   0.509   1.006
  133SOL    HW1  417   0.287   0.426   0.989
  133SOL    HW2  418   0.416   0.514   0.942
  134SOL     OW  419   1.138   0.380   1.678
  134SOL    HW1  420   1.093   0.443   1.742
  134SOL    HW2  421   1.231   0.411   1.661
  135SOL     OW  422   1.160   0.207   1.477
  135SOL    HW1  423   1.160   0.271   1.554
  135SOL    HW2  424   1.188   0.255   1.394
  136SOL     OW  425   0.008   1.326   0.200
  136SOL    HW1  426  -0.085   1.347   0.169
  136SOL    HW2  427   0.018   1.227   0.213
  137SOL     OW  428   0.088   1.801   0.927
  137SOL    HW1  429   0.046   1.715   0.900
  137SOL    HW2  430   0.182   1.804   0.893
  138SOL     OW  431   0.504   1.568   0.910
  138SOL    HW1  432   0.570   1.642   0.919
  138SOL    HW2  433   0.548   1.489   0.868
  139SOL     OW  434   1.002   0.796   1.238
  139SOL    HW1  435   1.043   0.764   1.324
  139SOL    HW2  436   0.906   0.769   1.235
  140SOL     OW  437   0.040   0.544   1.114
  140SOL    HW1  438   0.125   0.511   1.073
  140SOL    HW2  439   0.053   0.559   1.212
  141SOL     OW  440   0.189   0.520   1.722
  141SOL    HW1  441   0.248   0.480   1.652
  141SOL    HW2  442   0.131   0.591   1.681
  142SOL     OW  443   1.369   0.950   1.660
  142SOL    HW1  444   1.408   1.039   1.680
  142SOL    HW2  445   1.379   0.930   1.563
  143SOL     OW  446   0.815   0.572   0.325
  143SOL    HW1  447   0.822   0.483   0.279
  143SOL    HW2  448   0.721   0.606   0.317
  144SOL     OW  449   1.657   0.604   1.206
  144SOL    HW1  450   1.619   0.535   1.268
  144SOL    HW2  451   1.739   0.568   1.162
  145SOL     OW  452   0.252   1.564   1.744
  145SOL    HW1  453   0.222   1.621   1.820
  145SOL    HW2  454   0.245   1.467   1.770
  146SOL     OW  455   0.671   0.464   1.269
  146SOL    HW1  456   0.637   0.375   1.239
  146SOL    HW2  457   0.697   0.518   1.189
  147SOL     OW  458   0.930   1.678   1.465
  147SOL    HW1  459   0.906   1.660   1.370
  147SOL    HW2  460   0.960   1.772   1.475
  148SOL     OW  461   0.473   0.500   0.191
  148SOL    HW1  462   0.534   0.580   0.195
  148SOL    HW2  463   0.378   0.531   0.198
  149SOL     OW  464   0.159   1.137   1.466
  149SOL    HW1  465   0.181   1.076   1.542
  149SOL    HW2  466   0.169   1.088   1.380
  150SOL     OW  467   1.347   1.059   1.234
  150SOL    HW1  468   1.371   0.996   1.160
  150SOL    HW2  469   1.257   1.099   1.216
  151SOL     OW  470   1.302   0.855   0.309
  151SOL    HW1  471   1.216   0.824   0.351
  151SOL    HW2  472   1.298   0.841   0.210
  152SOL     OW  473   1.759   1.747   1.154
  152SOL    HW1  474   1.820   1.777   1.081
  152SOL    HW2  475   1.721   1.658   1.132
  153SOL     OW  476   1.252   1.731   1.128
  153SOL    HW1  477   1.336   1.736   1.074
  153SOL    HW2  478   1.229   1.635   1.146
  154SOL     OW  479   0.083   1.258   1.022
  154SOL    HW1  480   0.078   1.257   1.122
  154SOL    HW2  481   0.000   1.217   0.984
  155SOL     OW  482   0.688   1.662   1.716
  155SOL    HW1  483   0.632   1.743   1.725
  155SOL    HW2  484   0.740   1.666   1.630
  156SOL     OW  485   0.903   0.086   0.133
  156SOL    HW1  486   0.954   0.087   0.047
  156SOL    HW2  487   0.959   0.044   0.204
  157SOL     OW  488   1.726   0.135   0.523
  157SOL    HW1  489   1.799   0.118   0.456
  157SOL    HW2  490   1.695   0.048   0.561
  158SOL     OW  491   1.388   1.573   0.477
  158SOL    HW1  492   1.455   1.585   0.403
  158SOL    HW2  493   1.348   1.662   0.500
  159SOL     OW  494   0.130   1.794   1.851
  159SOL    HW1  495   0.089   1.720   1.904
  159SOL    HW2  496   0.194   1.845   1.909
  160SOL     OW  497   1.280   0.927   0.672
  160SOL    HW1  498   1.340   0.846   0.674
  160SOL    HW2  499   1.320   0.996   0.612
  161SOL     OW  500   0.830   1.273   1.422
  161SOL    HW1  501   0.825   1.306   1.517
  161SOL    HW2  502   0.744   1.292   1.376
  162SOL     OW  503   0.672   1.616   0.154
  162SOL    HW1  504   0.681   1.626   0.055
  162SOL    HW2  505   0.632   1.527   0.175
  163SOL     OW  506   1.650   1.720   1.394
  163SOL    HW1  507   1.703   1.730   1.310
  163SOL    HW2  508   1.623   1.810   1.428
  164SOL     OW  509   1.841   0.175   0.963
  164SOL    HW1  510   1.880   0.090   0.927
  164SOL    HW2  511   1.743   0.177   0.944
  165SOL     OW  512   0.263   0.326   0.720
  165SOL    HW1  513   0.184   0.377   0.686
  165SOL    HW2  514   0.254   0.311   0.818
  166SOL     OW  515   1.194   1.612   0.031
  166SOL    HW1  516   1.200   1.519   0.068
  166SOL    HW2  517   1.135   1.612  -0.049
  167SOL     OW  518   0.822   1.002   1.372
  167SOL    HW1  519   0.862   1.001   1.280
  167SOL    HW2  520   0.832   1.094   1.412
  168SOL     OW  521   0.916   0.910   0.291
  168SOL    HW1  522   0.979   0.948   0.223
  168SOL    HW2  523   0.956   0.827   0.330
  169SOL     OW  524   1.504   1.607   0.044
  169SOL    HW1  525   1.412   1.644   0.051
  169SOL    HW2  526   1.542   1.627  -0.046
  170SOL     OW  527   0.372   1.288   1.490
  170SOL    HW1  528   0.359   1.381   1.456
  170SOL    HW2  529   0.288   1.236   1.477
  171SOL     OW  530   1.614   1.292   1.289
  171SOL    HW1  531   1.674   1.295   1.369
  171SOL    HW2  532   1.539   1.356   1.302
  172SOL     OW  533   1.039   1.098   0.696
  172SOL    HW1  534   0.969   1.051   0.750
  172SOL    HW2  535   1.098   1.030   0.653
  173SOL     OW  536   1.014   0.236   0.971
  173SOL    HW1  537   1.006   0.200   0.878
  173SOL    HW2  538   1.012   0.160   1.036
  174SOL     OW  539   0.590   1.487   0.491
  174SOL    HW1  540   0.632   1.429   0.421
  174SOL    HW2  541   0.546   1.566   0.447
  175SOL     OW  542   1.709   0.385   1.381
  175SOL    HW1  543   1.782   0.454   1.385
  175SOL    HW2  544   1.737   0.310   1.322
  176SOL     OW  545   0.255   1.348   0.290
  176SOL    HW1  546   0.159   1.349   0.263
  176SOL    HW2  547   0.267   1.401   0.374
  177SOL     OW  548   0.105   1.013   1.726
  177SOL    HW1  549   0.028   0.980   1.780
  177SOL    HW2  550   0.190   0.983   1.768
  178SOL     OW  551   0.672   0.203   1.489
  178SOL    HW1  552   0.762   0.187   1.449
  178SOL    HW2  553   0.680   0.208   1.588
  179SOL     OW  554   0.075   0.345   0.033
  179SOL    HW1  555  -0.017   0.317   0.004
  179SOL    HW2  556   0.106   0.422  -0.023
  180SOL     OW  557   1.440   0.856   1.398
  180SOL    HW1  558   1.383   0.908   1.335
  180SOL    HW2  559   1.536   0.868   1.374
  181SOL     OW  560   0.072   0.166   0.318
  181SOL    HW1  561   0.055   0.249   0.264
  181SOL    HW2  562   0.162   0.129   0.296
  182SOL     OW  563   1.183   1.335   0.119
  182SOL    HW1  564   1.084   1.324   0.121
  182SOL    HW2  565   1.217   1.350   0.212
  183SOL     OW  566   0.613   0.842   1.431
  183SOL    HW1  567   0.669   0.923   1.414
  183SOL    HW2  568   0.672   0.762   1.434
  184SOL     OW  569   1.493   1.767   0.959
  184SOL    HW1  570   1.526   1.831   0.890
  184SOL    HW2  571   1.559   1.761   1.034
  185SOL     OW  572   0.716   0.565   1.708
  185SOL    HW1  573   0.735   0.630   1.782
  185SOL    HW2  574   0.776   0.485   1.717
  186SOL     OW  575   1.450   1.220   1.633
  186SOL    HW1  576   1.441   1.210   1.732
  186SOL    HW2  577   1.546   1.213   1.607
  187SOL     OW  578   0.390   1.741   1.560
  187SOL    HW1  579   0.299   1.782   1.558
  187SOL    HW2  580   0.383   1.647   1.592
  188SOL     OW  581   1.674   0.883   1.254
  188SOL    HW1  582   1.647   0.794   1.217
  188SOL    HW2  583   1.675   0.951   1.181
  189SOL     OW  584   1.225   0.325   0.449
  189SOL    HW1  585   1.290   0.251   0.438
  189SOL    HW2  586   1.245   0.375   0.533
  190SOL     OW  587   0.594   0.745   0.652
  190SOL    HW1  588   0.644   0.830   0.633
  190SOL    HW2  589   0.506   0.747   0.604
  191SOL     OW  590   1.777   0.342   1.642
  191SOL    HW1  591   1.760   0.373   1.548
  191SOL    HW2  592   1.693   0.305   1.680
  192SOL     OW  593   1.730   0.934   1.517
  192SOL    HW1  594   1.768   1.025   1.532
  192SOL    HW2  595   1.722   0.917   1.418
  193SOL     OW  596   0.859   1.374   0.016
  193SOL    HW1  597   0.813   1.389   0.104
  193SOL    HW2  598   0.903   1.459  -0.014
  194SOL     OW  599   0.661   1.790   0.953
  194SOL    HW1  600   0.615   1.878   0.940
  194SOL    HW2  601   0.760   1.802   0.946
  195SOL     OW  602   0.859   0.956   0.861
  195SOL    HW1  603   0.913   0.887   0.909
  195SOL    HW2  604   0.827   1.025   0.927
  196SOL     OW  605   1.083   0.984   0.087
  196SOL    HW1  606   1.060   1.037   0.005
  196SOL    HW2  607   1.164   0.928   0.068
  197SOL     OW  608   1.861   1.569   0.851
  197SOL    HW1  609   1.790   1.557   0.781
  197SOL    HW2  610   1.862   1.490   0.911
  198SOL     OW  611   0.221   1.314   1.844
  198SOL    HW1  612   0.156   1.241   1.823
  198SOL    HW2  613   0.225   1.328   1.942
  199SOL     OW  614   0.079   1.240   0.653
  199SOL    HW1  615   0.078   1.193   0.741
  199SOL    HW2  616   0.161   1.212   0.602
  200SOL     OW  617   0.672   1.391   1.624
  200SOL    HW1  618   0.594   1.341   1.662
  200SOL    HW2  619   0.669   1.486   1.655
  201SOL     OW  620   1.824   0.192   1.227
  201SOL    HW1  621   1.820   0.102   1.271
  201SOL    HW2  622   1.827   0.181   1.128
  202SOL     OW  623   0.428   0.424   0.520
  202SOL    HW1  624   0.458   0.352   0.458
  202SOL    HW2  625   0.389   0.384   0.603
  203SOL     OW  626   1.705   1.487   1.104
  203SOL    HW1  627   1.612   1.462   1.077
  203SOL    HW2  628   1.731   1.437   1.186
  204SOL     OW  629   0.317   0.547   1.280
  204SOL    HW1  630   0.355   0.488   1.352
  204SOL    HW2  631   0.357   0.521   1.192
  205SOL     OW  632   0.812   1.586   0.687
  205SOL    HW1  633   0.844   1.596   0.593
  205SOL    HW2  634   0.733   1.524   0.689
  206SOL     OW  635   1.424   0.214   1.112
  206SOL    HW1  636   1.476   0.149   1.167
  206SOL    HW2  637   1.375   0.277   1.173
  207SOL     OW  638   1.001   0.034   1.154
  207SOL    HW1  639   0.938  -0.038   1.123
  207SOL    HW2  640   1.094  -0.002   1.154
  208SOL     OW  641   0.770   1.330   0.301
  208SOL    HW1  642   0.724   1.243   0.318
  208SOL    HW2  643   0.861   1.327   0.342
  209SOL     OW  644   0.618   1.567   1.284
  209SOL    HW1  645   0.613   1.649   1.341
  209SOL    HW2  646   0.707   1.564   1.239
  210SOL     OW  647   1.352   0.052   0.168
  210SOL    HW1  648   1.387   0.011   0.084
  210SOL    HW2  649   1.262   0.014   0.188
  211SOL     OW  650   1.300   0.453   0.691
  211SOL    HW1  651   1.241   0.533   0.695
  211SOL    HW2  652   1.315   0.418   0.784
  212SOL     OW  653   1.593   0.221   0.882
  212SOL    HW1  654   1.509   0.220   0.936
  212SOL    HW2  655   1.595   0.304   0.826
  213SOL     OW  656   0.039   1.077   0.300
  213SOL    HW1  657   0.138   1.066   0.291
  213SOL    HW2  658  -0.001   0.991   0.332
  214SOL     OW  659   0.875   1.646   0.337
  214SOL    HW1  660   0.798   1.611   0.283
  214SOL    HW2  661   0.843   1.717   0.399
  215SOL     OW  662   0.230   0.628   1.975
  215SOL    HW1  663   0.137   0.626   2.012
  215SOL    HW2  664   0.231   0.589   1.883
  216SOL     OW  665   0.225   0.275   2.858
  216SOL    HW1  666   0.260   0.258   2.950
  216SOL    HW2  667   0.137   0.230   2.846
  217SOL     OW  668   0.019   0.368   2.509
  217SOL    HW1  669  -0.063   0.411   2.548
  217SOL    HW2  670  -0.009   0.295   2.446
  218SOL     OW  671   0.569   1.275   3.027
  218SOL    HW1  672   0.476   1.268   2.990
  218SOL    HW2  673   0.580   1.364   3.071
  219SOL     OW  674   1.555   1.511   2.565
  219SOL    HW1  675   1.498   1.495   2.646
  219SOL    HW2  676   1.496   1.521   2.485
  220SOL     OW  677   1.135   0.703   2.579
  220SOL    HW1  678   1.192   0.781   2.554
  220SOL    HW2  679   1.075   0.729   2.655
  221SOL     OW  680   1.755   0.607   2.093
  221SOL    HW1  681   1.743   0.594   1.994
  221SOL    HW2  682   1.725   0.526   2.142
  222SOL     OW  683   0.768   1.144   2.885
  222SOL    HW1  684   0.690   1.161   2.945
  222SOL    HW2  685   0.802   1.231   2.849
  223SOL     OW  686   0.850   0.798   3.685
  223SOL    HW1  687   0.846   0.874   3.750
  223SOL    HW2  688   0.872   0.834   3.594
  224SOL     OW  689   0.685   1.012   2.527
  224SOL    HW1  690   0.754   0.996   2.597
  224SOL    HW2  691   0.612   1.069   2.565
  225SOL     OW  692   0.686   1.161   3.665
  225SOL    HW1  693   0.746   1.240   3.679
  225SOL    HW2  694   0.600   1.192   3.624
  226SOL     OW  695   0.335   1.435   2.923
  226SOL    HW1  696   0.257   1.404   2.870
  226SOL    HW2  697   0.393   1.493   2.866
  227SOL     OW  698   1.460   1.505   3.201
  227SOL    HW1  699   1.484   1.599   3.227
  227SOL    HW2  700   1.444   1.451   3.283
  228SOL     OW  701   0.438   0.392   3.361
  228SOL    HW1  702   0.520   0.336   3.370
  228SOL    HW2  703   0.357   0.334   3.365
  229SOL     OW  704   1.603   0.447   2.599
  229SOL    HW1  705   1.529   0.493   2.549
  229SOL    HW2  706   1.654   0.515   2.652
  230SOL     OW  707   0.231   1.713   2.345
  230SOL    HW1  708   0.265   1.790   2.399
  230SOL    HW2  709   0.275   1.713   2.255
  231SOL     OW  710   1.127   1.341   3.552
  231SOL    HW1  711   1.174   1.341   3.640
  231SOL    HW2  712   1.079   1.254   3.541
  232SOL     OW  713   0.230   1.434   2.400
  232SOL    HW1  714   0.204   1.530   2.400
  232SOL    HW2  715   0.159   1.380   2.445
  233SOL     OW  716   0.240   1.091   2.748
  233SOL    HW1  717   0.254   1.007   2.800
  233SOL    HW2  718   0.185   1.155   2.803
  234SOL     OW  719   0.620   1.786   3.301
  234SOL    HW1  720   0.528   1.769   3.336
  234SOL    HW2  721   0.648   1.878   3.327
  235SOL     OW  722   0.606   0.964   1.985
  235SOL    HW1  723   0.613   1.048   1.931
  235SOL    HW2  724   0.652   0.977   2.073
  236SOL     OW  725   1.594   0.114   3.342
  236SOL    HW1  726   1.576   0.181   3.270
  236SOL    HW2  727   1.591   0.160   3.431
  237SOL     OW  728   0.122   0.643   2.425
  237SOL    HW1  729   0.077   0.555   2.442
  237SOL    HW2  730   0.121   0.697   2.509
  238SOL     OW  731   1.842   1.767   2.221
  238SOL    HW1  732   1.896   1.738   2.301
  238SOL    HW2  733   1.872   1.857   2.192
  239SOL     OW  734   0.027   1.596   1.979
  239SOL    HW1  735   0.008   1.500   2.000
  239SOL    HW2  736  -0.006   1.654   2.054
  240SOL     OW  737   1.689   0.922   2.474
  240SOL    HW1  738   1.784   0.893   2.482
  240SOL    HW2  739   1.681   0.987   2.399
  241SOL     OW  740   1.641   1.108   2.294
  241SOL    HW1  741   1.727   1.110   2.242
  241SOL    HW2  742   1.655   1.155   2.382
  242SOL     OW  743   0.113   0.737   3.459
  242SOL    HW1  744   0.201   0.724   3.504
  242SOL    HW2  745   0.100   0.834   3.437
  243SOL     OW  746   0.613   1.365   2.588
  243SOL    HW1  747   0.564   1.278   2.597
  243SOL    HW2  748   0.590   1.408   2.501
  244SOL     OW  749   1.293   1.228   3.285
  244SOL    HW1  750   1.330   1.155   3.227
  244SOL    HW2  751   1.345   1.233   3.370
  245SOL     OW  752   0.809   0.004   2.364
  245SOL    HW1  753   0.849   0.095   2.355
  245SOL    HW2  754   0.709   0.012   2.370
  246SOL     OW  755   0.197   0.976   3.126
  246SOL    HW1  756   0.286   0.931   3.112
  246SOL    HW2  757   0.124   0.911   3.107
  247SOL     OW  758   1.525   0.999   2.052
  247SOL    HW1  759   1.462   0.923   2.065
  247SOL    HW2  760   1.573   1.017   2.138
  248SOL     OW  761   1.187   1.792   3.478
  248SOL    HW1  762   1.211   1.852   3.402
  248SOL    HW2  763   1.194   1.697   3.448
  249SOL     OW  764   0.317   0.251   3.663
  249SOL    HW1  765   0.388   0.322   3.669
  249SOL    HW2  766   0.229   0.290   3.691
  250SOL     OW  767   1.466   1.417   2.815
  250SOL    HW1  768   1.407   1.423   2.895
  250SOL    HW2  769   1.451   1.329   2.769
  251SOL     OW  770   1.667   1.714   2.434
  251SOL    HW1  771   1.626   1.691   2.346
  251SOL    HW2  772   1.649   1.640   2.499
  252SOL     OW  773   0.598   0.729   2.132
  252SOL    HW1  774   0.622   0.798   2.064
  252SOL    HW2  775   0.520   0.762   2.186
  253SOL     OW  776   1.281   0.345   2.806
  253SOL    HW1  777   1.195   0.295   2.793
  253SOL    HW2  778   1.343   0.291   2.862
  254SOL     OW  779   1.576   1.662   2.169
  254SOL    HW1  780   1.665   1.708   2.172
  254SOL    HW2  781   1.555   1.638   2.074
  255SOL     OW  782   0.807   0.605   3.327
  255SOL    HW1  783   0.760   0.602   3.416
  255SOL    HW2  784   0.756   0.550   3.261
  256SOL     OW  785   1.394   0.469   3.536
  256SOL    HW1  786   1.374   0.512   3.624
  256SOL    HW2  787   1.472   0.407   3.545
  257SOL     OW  788   0.973   0.890   3.434
  257SOL    HW1  789   1.019   0.806   3.405
  257SOL    HW2  790   0.917   0.924   3.359
  258SOL     OW  791   0.991   0.410   3.104
  258SOL    HW1  792   0.914   0.444   3.158
  258SOL    HW2  793   0.957   0.359   3.025
  259SOL     OW  794   1.041   0.701   2.291
  259SOL    HW1  795   1.067   0.697   2.387
  259SOL    HW2  796   0.956   0.650   2.277
  260SOL     OW  797   0.076   0.811   2.651
  260SOL    HW1  798   0.175   0.799   2.660
  260SOL    HW2  799   0.052   0.906   2.672
  261SOL     OW  800   0.130   1.821   3.433
  261SOL    HW1  801   0.120   1.806   3.532
  261SOL    HW2  802   0.044   1.857   3.397
  262SOL     OW  803   0.865   0.348   2.057
  262SOL    HW1  804   0.924   0.411   2.008
  262SOL    HW2  805   0.884   0.254   2.028
  263SOL     OW  806   1.719   0.585   3.693
  263SOL    HW1  807   1.693   0.674   3.657
  263SOL    HW2  808   1.717   0.517   3.620
  264SOL     OW  809   1.362   1.144   2.407
  264SOL    HW1  810   1.445   1.115   2.359
  264SOL    HW2  811   1.313   1.211   2.351
  265SOL     OW  812   0.550   0.196   2.747
  265SOL    HW1  813   0.545   0.191   2.847
  265SOL    HW2  814   0.552   0.292   2.718
  266SOL     OW  815   1.008   1.456   2.339
  266SOL    HW1  816   0.962   1.528   2.287
  266SOL    HW2  817   1.004   1.476   2.437
  267SOL     OW  818   0.351   1.801   2.715
  267SOL    HW1  819   0.401   1.715   2.721
  267SOL    HW2  820   0.416   1.878   2.712
  268SOL     OW  821   1.795   1.066   2.735
  268SOL    HW1  822   1.733   1.051   2.659
  268SOL    HW2  823   1.743   1.077   2.820
  269SOL     OW  824   1.227   1.550   3.368
  269SOL    HW1  825   1.233   1.473   3.432
  269SOL    HW2  826   1.175   1.524   3.288
  270SOL     OW  827   0.321   0.943   2.104
  270SOL    HW1  828   0.403   0.982   2.062
  270SOL    HW2  829   0.294   0.861   2.055
  271SOL     OW  830   1.458   0.735   2.590
  271SOL    HW1  831   1.453   0.670   2.665
  271SOL    HW2  832   1.538   0.794   2.603
  272SOL     OW  833   0.461   1.266   3.589
  272SOL    HW1  834   0.411   1.267   3.503
  272SOL    HW2  835   0.398   1.248   3.665
  273SOL     OW  836   1.111   1.776   2.099
  273SOL    HW1  837   1.051   1.714   2.149
  273SOL    HW2  838   1.142   1.732   2.014
  274SOL     OW  839   0.202   0.285   3.360
  274SOL    HW1  840   0.122   0.345   3.347
  274SOL    HW2  841   0.192   0.236   3.446
  275SOL     OW  842   1.632   1.377   1.943
  275SOL    HW1  843   1.600   1.471   1.933
  275SOL    HW2  844   1.556   1.314   1.931
  276SOL     OW  845   0.464   1.743   2.185
  276SOL    HW1  846   0.497   1.782   2.271
  276SOL    HW2  847   0.540   1.736   2.120
  277SOL     OW  848   1.400   0.107   2.288
  277SOL    HW1  849   1.376   0.070   2.198
  277SOL    HW2  850   1.499   0.123   2.292
  278SOL     OW  851   0.249   1.785   3.103
  278SOL    HW1  852   0.306   1.720   3.153
  278SOL    HW2  853   0.233   1.752   3.010
  279SOL     OW  854   0.940   1.698   2.766
  279SOL    HW1  855   1.020   1.641   2.787
  279SOL    HW2  856   0.891   1.658   2.689
  280SOL     OW  857   0.382   0.700   2.342
  280SOL    HW1  858   0.427   0.610   2.339
  280SOL    HW2  859   0.288   0.689   2.375
  281SOL     OW  860   1.547   0.222   3.591
  281SOL    HW1  861   1.542   0.259   3.683
  281SOL    HW2  862   1.475   0.153   3.579
  282SOL     OW  863   0.614   0.122   1.979
  282SOL    HW1  864   0.712   0.100   1.986
  282SOL    HW2  865   0.583   0.105   1.886
  283SOL     OW  866   0.781   0.264   3.611
  283SOL    HW1  867   0.848   0.203   3.654
  283SOL    HW2  868   0.708   0.283   3.676
  284SOL     OW  869   0.888   1.514   3.057
  284SOL    HW1  870   0.865   1.489   2.963
  284SOL    HW2  871   0.949   1.445   3.096
  285SOL     OW  872   1.351   0.590   3.295
  285SOL    HW1  873   1.379   0.547   3.380
  285SOL    HW2  874   1.376   0.686   3.296
  286SOL     OW  875   0.803   1.402   2.786
  286SOL    HW1  876   0.893   1.416   2.744
  286SOL    HW2  877   0.732   1.404   2.715
  287SOL     OW  878   0.922   0.503   2.761
  287SOL    HW1  879   0.897   0.494   2.665
  287SOL    HW2  880   0.970   0.421   2.792
  288SOL     OW  881   0.539   0.064   2.374
  288SOL    HW1  882   0.458   0.065   2.432
  288SOL    HW2  883   0.542   0.147   2.319
  289SOL     OW  884   1.434   1.188   1.903
  289SOL    HW1  885   1.466   1.112   1.960
  289SOL    HW2  886   1.342   1.215   1.933
  290SOL     OW  887   0.297   0.035   2.033
  290SOL    HW1  888   0.346   0.119   2.012
  290SOL    HW2  889   0.359  -0.030   2.078
  291SOL     OW  890   0.935   0.236   2.342
  291SOL    HW1  891   0.887   0.277   2.264
  291SOL    HW2  892   1.034   0.234   2.323
  292SOL     OW  893   1.076   0.683   3.326
  292SOL    HW1  894   0.996   0.622   3.329
  292SOL    HW2  895   1.157   0.630   3.302
  293SOL     OW  896   1.227   1.570   2.655
  293SOL    HW1  897   1.248   1.644   2.590
  293SOL    HW2  898   1.295   1.570   2.728
  294SOL     OW  899   0.459   1.152   2.603
  294SOL    HW1  900   0.388   1.125   2.668
  294SOL    HW2  901   0.433   1.124   2.510
  295SOL     OW  902   1.271   1.797   2.453
  295SOL    HW1  903   1.315   1.861   2.389
  295SOL    HW2  904   1.221   1.849   2.523
  296SOL     OW  905   1.032   0.549   1.878
  296SOL    HW1  906   0.991   0.631   1.839
  296SOL    HW2  907   1.096   0.575   1.951
  297SOL     OW  908   0.078   0.556   3.248
  297SOL    HW1  909   0.170   0.555   3.207
  297SOL    HW2  910   0.072   0.630   3.315
  298SOL     OW  911   0.561   0.222   3.009
  298SOL    HW1  912   0.599   0.138   3.046
  298SOL    HW2  913   0.473   0.241   3.053
  299SOL     OW  914   0.866   0.454   2.504
  299SOL    HW1  915   0.834   0.526   2.442
  299SOL    HW2  916   0.890   0.373   2.451
  300SOL     OW  917   1.017   0.039   2.615
  300SOL    HW1  918   0.945   0.044   2.546
  300SOL    HW2  919   0.993  -0.030   2.684
  301SOL     OW  920   1.429   1.173   2.729
  301SOL    HW1  921   1.374   1.089   2.722
  301SOL    HW2  922   1.455   1.202   2.637
  302SOL     OW  923   1.466   0.590   2.854
  302SOL    HW1  924   1.436   0.495   2.861
  302SOL    HW2  925   1.539   0.606   2.920
  303SOL     OW  926   1.857   0.833   2.239
  303SOL    HW1  927   1.899   0.769   2.303
  303SOL    HW2  928   1.819   0.782   2.161
  304SOL     OW  929   0.488   1.385   2.036
  304SOL    HW1  930   0.401   1.370   2.083
  304SOL    HW2  931   0.471   1.411   1.941
  305SOL     OW  932   1.664   1.280   2.519
  305SOL    HW1  933   1.763   1.288   2.533
  305SOL    HW2  934   1.619   1.364   2.550
  306SOL     OW  935   1.390   0.575   1.940
  306SOL    HW1  936   1.336   0.554   2.021
  306SOL    HW2  937   1.481   0.534   1.949
  307SOL     OW  938   0.527   0.256   2.190
  307SOL    HW1  939   0.554   0.197   2.115
  307SOL    HW2  940   0.527   0.351   2.159
  308SOL     OW  941   1.754   1.223   3.450
  308SOL    HW1  942   1.845   1.184   3.437
  308SOL    HW2  943   1.762   1.319   3.474
  309SOL     OW  944   1.064   1.347   3.202
  309SOL    HW1  945   0.984   1.324   3.257
  309SOL    HW2  946   1.147   1.321   3.251
  310SOL     OW  947   1.592   1.629   3.487
  310SOL    HW1  948   1.619   1.663   3.397
  310SOL    HW2  949   1.671   1.591   3.533
  311SOL     OW  950   1.111   1.195   2.962
  311SOL    HW1  951   1.071   1.239   3.043
  311SOL    HW2  952   1.070   1.232   2.879
  312SOL     OW  953   1.638   1.099   2.941
  312SOL    HW1  954   1.643   1.180   3.000
  312SOL    HW2  955   1.552   1.101   2.890
  313SOL     OW  956   0.915   0.089   3.264
  313SOL    HW1  957   0.940   0.069   3.169
  313SOL    HW2  958   0.987   0.145   3.306
  314SOL     OW  959   0.980   1.116   3.581
  314SOL    HW1  960   0.881   1.122   3.591
  314SOL    HW2  961   1.003   1.036   3.525
  315SOL     OW  962   0.705   1.050   2.230
  315SOL    HW1  963   0.691   1.057   2.329
  315SOL    HW2  964   0.789   0.999   2.212
  316SOL     OW  965   0.410   0.813   3.113
  316SOL    HW1  966   0.496   0.825   3.163
  316SOL    HW2  967   0.368   0.726   3.140
  317SOL     OW  968   1.274   0.386   3.124
  317SOL    HW1  969   1.295   0.460   3.188
  317SOL    HW2  970   1.185   0.403   3.081
  318SOL     OW  971   0.064   1.564   3.193
  318SOL    HW1  972   0.018   1.646   3.159
  318SOL    HW2  973   0.162   1.583   3.202
  319SOL     OW  974   0.367   1.100   2.363
  319SOL    HW1  975   0.360   1.183   2.307
  319SOL    HW2  976   0.371   1.020   2.303
  320SOL     OW  977   0.566   0.537   2.727
  320SOL    HW1  978   0.578   0.603   2.653
  320SOL    HW2  979   0.612   0.571   2.810
  321SOL     OW  980   1.252   1.348   2.250
  321SOL    HW1  981   1.302   1.425   2.290
  321SOL    HW2  982   1.157   1.350   2.282
  322SOL     OW  983   1.272   1.445   3.004
  322SOL    HW1  984   1.319   1.458   3.091
  322SOL    HW2  985   1.206   1.371   3.013
  323SOL     OW  986   1.582   0.639   2.334
  323SOL    HW1  987   1.551   0.700   2.407
  323SOL    HW2  988   1.632   0.691   2.265
  324SOL     OW  989   0.354   1.510   3.191
  324SOL    HW1  990   0.333   1.466   3.104
  324SOL    HW2  991   0.451   1.536   3.194
  325SOL     OW  992   0.402   0.751   3.460
  325SOL    HW1  993   0.470   0.806   3.413
  325SOL    HW2  994   0.442   0.663   3.487
  326SOL     OW  995   1.587   0.779   3.532
  326SOL    HW1  996   1.495   0.817   3.527
  326SOL    HW2  997   1.647   0.826   3.467
  327SOL     OW  998   1.013   0.105   3.632
  327SOL    HW1  999   1.019   0.190   3.580
  327SOL    HW2 1000   1.045   0.029   3.575
  328SOL     OW 1001   0.504   0.050   3.602
  328SOL    HW1 1002   0.462  -0.007   3.532
  328SOL    HW2 1003   0.438   0.119   3.634
  329SOL     OW 1004   0.573   0.870   2.891
  329SOL    HW1 1005   0.617   0.959   2.882
  329SOL    HW2 1006   0.510   0.870   2.968
  330SOL     OW 1007   1.360   0.862   2.907
  330SOL    HW1 1008   1.285   0.862   2.841
  330SOL    HW2 1009   1.397   0.770   2.916
  331SOL     OW 1010   1.209   0.525   2.137
  331SOL    HW1 1011   1.222   0.441   2.191
  331SOL    HW2 1012   1.180   0.599   2.197
  332SOL     OW 1013   0.307   0.213   3.093
  332SOL    HW1 1014   0.284   0.250   3.183
  332SOL    HW2 1015   0.277   0.118   3.087
  333SOL     OW 1016   0.037   1.310   3.144
  333SOL    HW1 1017   0.090   1.261   3.212
  333SOL    HW2 1018   0.059   1.408   3.149
  334SOL     OW 1019   0.732   0.634   2.926
  334SOL    HW1 1020   0.791   0.608   2.850
  334SOL    HW2 1021   0.704   0.730   2.915
  335SOL     OW 1022   1.728   0.935   3.716
  335SOL    HW1 1023   1.682   0.928   3.627
  335SOL    HW2 1024   1.666   0.979   3.782
  336SOL     OW 1025   0.307   0.063   2.480
  336SOL    HW1 1026   0.296   0.157   2.513
  336SOL    HW2 1027   0.302   0.000   2.557
  337SOL     OW 1028   1.622   0.367   2.236
  337SOL    HW1 1029   1.624   0.291   2.300
  337SOL    HW2 1030   1.574   0.444   2.276
  338SOL     OW 1031   1.023   0.766   2.828
  338SOL    HW1 1032   1.038   0.787   2.924
  338SOL    HW2 1033   0.993   0.671   2.819
  339SOL     OW 1034   0.980   1.573   3.562
  339SOL    HW1 1035   0.960   1.617   3.474
  339SOL    HW2 1036   1.019   1.482   3.546
  340SOL     OW 1037   1.859   1.518   3.467
  340SOL    HW1 1038   1.873   1.545   3.372
  340SOL    HW2 1039   1.942   1.540   3.520
  341SOL     OW 1040   0.350   0.898   3.666
  341SOL    HW1 1041   0.426   0.942   3.714
  341SOL    HW2 1042   0.385   0.851   3.584
  342SOL     OW 1043   1.540   0.274   1.987
  342SOL    HW1 1044   1.479   0.199   2.010
  342SOL    HW2 1045   1.562   0.326   2.070
  343SOL     OW 1046   1.303   0.838   1.904
  343SOL    HW1 1047   1.337   0.745   1.919
  343SOL    HW2 1048   1.321   0.865   1.809
  344SOL     OW 1049   1.068   1.333   2.711
  344SOL    HW1 1050   1.075   1.249   2.656
  344SOL    HW2 1051   1.130   1.402   2.675
  345SOL     OW 1052   0.319   0.810   2.811
  345SOL    HW1 1053   0.412   0.846   2.816
  345SOL    HW2 1054   0.313   0.725   2.863
  346SOL     OW 1055   0.339   0.509   2.868
  346SOL    HW1 1056   0.287   0.426   2.851
  346SOL    HW2 1057   0.416   0.514   2.804
  347SOL     OW 1058   1.138   0.380   3.540
  347SOL    HW1 1059   1.093   0.443   3.604
  347SOL    HW2 1060   1.231   0.411   3.523
  348SOL     OW 1061   1.160   0.207   3.339
  348SOL    HW1 1062   1.160   0.271   3.416
  348SOL    HW2 1063   1.188   0.255   3.256
  349SOL     OW 1064   0.008   1.326   2.062
  349SOL    HW1 1065  -0.085   1.347   2.031
  349SOL    HW2 1066   0.018   1.227   2.075
  350SOL     OW 1067   0.088   1.801   2.789
  350SOL    HW1 1068   0.046   1.715   2.762
  350SOL    HW2 1069   0.182   1.804   2.755
  351SOL     OW 1070   0.504   1.568   2.772
  351SOL    HW1 1071   0.570   1.642   2.781
  351SOL    HW2 1072   0.548   1.489   2.730
  352SOL     OW 1073   1.002   0.796   3.100
  352SOL    HW1 1074   1.043   0.764   3.186
  352SOL    HW2 1075   0.906   0.769   3.097
  353SOL     OW 1076   0.040   0.544   2.976
  353SOL    HW1 1077   0.125   0.511   2.935
  353SOL    HW2 1078   0.053   0.559   3.074
  354SOL     OW 1079   0.189   0.520   3.584
  354SOL    HW1 1080   0.248   0.480   3.514
  354SOL    HW2 1081   0.131   0.591   3.543
  355SOL     OW 1082   1.369   0.950   3.522
  355SOL    HW1 1083   1.408   1.039   3.542
  355SOL    HW2 1084   1.379   0.930   3.425
  356SOL     OW 1085   0.815   0.572   2.187
  356SOL    HW1 1086   0.822   0.483   2.141
  356SOL    HW2 1087   0.721   0.606   2.179
  357SOL     OW 1088   1.657   0.604   3.068
  357SOL    HW1 1089   1.619   0.535   3.130
  357SOL    HW2 1090   1.739   0.568   3.024
  358SOL     OW 1091   0.252   1.564   3.606
  358SOL    HW1 1092   0.222   1.621   3.682
  358SOL    HW2 1093   0.245   1.467   3.632
  359SOL     OW 1094   0.671   0.464   3.131
  359SOL    HW1 1095   0.637   0.375   3.101
  359SOL    HW2 1096   0.697   0.518   3.051
  360SOL     OW 1097   0.930   1.678   3.327
  360SOL    HW1 1098   0.906   1.660   3.232
  360SOL    HW2 1099   0.960   1.772   3.337
  361SOL     OW 1100   0.473   0.500   2.053
  361SOL    HW1 1101   0.534   0.580   2.057
  361SOL    HW2 1102   0.378   0.531   2.060
  362SOL     OW 1103   0.159   1.137   3.328
  362SOL    HW1 1104   0.181   1.076   3.404
  362SOL    HW2 1105   0.169   1.088   3.242
  363SOL     OW 1106   1.347   1.059   3.096
  363SOL    HW1 1107   1.371   0.996   3.022
  363SOL    HW2 1108   1.257   1.099   3.078
  364SOL     OW 1109   1.302   0.855   2.171
  364SOL    HW1 1110   1.216   0.824   2.213
  364SOL    HW2 1111   1.298   0.841   2.072
  365SOL     OW 1112   1.759   1.747   3.016
  365SOL    HW1 1113   1.820   1.777   2.943
  365SOL    HW2 1114   1.721   1.658   2.994
  366SOL     OW 1115   1.252   1.731   2.990
  366SOL    HW1 1116   1.336   1.736   2.936
  366SOL    HW2 1117   1.229   1.635   3.008
  367SOL     OW 1118   0.083   1.258   2.884
  367SOL    HW1 1119   0.078   1.257   2.984
  367SOL    HW2 1120   0.000   1.217   2.846
  368SOL     OW 1121   0.688   1.662   3.578
  368SOL    HW1 1122   0.632   1.743   3.587
  368SOL    HW2 1123   0.740   1.666   3.492
  369SOL     OW 1124   1.726   0.135   2.385
  369SOL    HW1 1125   1.799   0.118   2.318
  369SOL    HW2 1126   1.695   0.048   2.423
  370SOL     OW 1127   1.388   1.573   2.339
  370SOL    HW1 1128   1.455   1.585   2.265
  370SOL    HW2 1129   1.348   1.662   2.362
  371SOL     OW 1130   0.130   1.794   3.713
  371SOL    HW1 1131   0.089   1.720   3.766
  371SOL    HW2 1132   0.194   1.845   3.771
  372SOL     OW 1133   1.280   0.927   2.534
  372SOL    HW1 1134   1.340   0.846   2.536
  372SOL    HW2 1135   1.320   0.996   2.474
  373SOL     OW 1136   0.830   1.273   3.284
  373SOL    HW1 1137   0.825   1.306   3.379
  373SOL    HW2 1138   0.744   1.292   3.238
  374SOL     OW 1139   0.672   1.616   2.016
  374SOL    HW1 1140   0.681   1.626   1.917
  374SOL    HW2 1141   0.632   1.527   2.037
  375SOL     OW 1142   1.650   1.720   3.256
  375SOL    HW1 1143   1.703   1.730   3.172
  375SOL    HW2 1144   1.623   1.810   3.290
  376SOL     OW 1145   1.841   0.175   2.825
  376SOL    HW1 1146   1.880   0.090   2.789
  376SOL    HW2 1147   1.743   0.177   2.806
  377SOL     OW 1148   0.263   0.326   2.582
  377SOL    HW1 1149   0.184   0.377   2.548
  377SOL    HW2 1150   0.254   0.311   2.680
  378SOL     OW 1151   1.194   1.612   1.893
  378SOL    HW1 1152   1.200   1.519   1.930
  378SOL    HW2 1153   1.135   1.612   1.813
  379SOL     OW 1154   0.822   1.002   3.234
  379SOL    HW1 1155   0.862   1.001   3.142
  379SOL    HW2 1156   0.832   1.094   3.274
  380SOL     OW 1157   0.916   0.910   2.153
  380SOL    HW1 1158   0.979   0.948   2.085
  380SOL    HW2 1159   0.956   0.827   2.192
  381SOL     OW 1160   1.504   1.607   1.906
  381SOL    HW1 1161   1.412   1.644   1.913
  381SOL    HW2 1162   1.542   1.627   1.816
  382SOL     OW 1163   0.372   1.288   3.352
  382SOL    HW1 1164   0.359   1.381   3.318
  382SOL    HW2 1165   0.288   1.236   3.339
  383SOL     OW 1166   1.614   1.292   3.151
  383SOL    HW1 1167   1.674   1.295   3.231
  383SOL    HW2 1168   1.539   1.356   3.164
  384SOL     OW 1169   1.039   1.098   2.558
  384SOL    HW1 1170   0.969   1.051   2.612
  384SOL    HW2 1171   1.098   1.030   2.515
  385SOL     OW 1172   1.014   0.236   2.833
  385SOL    HW1 1173   1.006   0.200   2.740
  385SOL    HW2 1174   1.012   0.160   2.898
  386SOL     OW 1175   0.590   1.487   2.353
  386SOL    HW1 1176   0.632   1.429   2.283
  386SOL    HW2 1177   0.546   1.566   2.309
  387SOL     OW 1178   1.709   0.385   3.243
  387SOL    HW1 1179   1.782   0.454   3.247
  387SOL    HW2 1180   1.737   0.310   3.184
  388SOL     OW 1181   0.255   1.348   2.152
  388SOL    HW1 1182   0.159   1.349   2.125
  388SOL    HW2 1183   0.267   1.401   2.236
  389SOL     OW 1184   0.105   1.013   3.588
  389SOL    HW1 1185   0.028   0.980   3.642
  389SOL    HW2 1186   0.190   0.983   3.630
  390SOL     OW 1187   0.672   0.203   3.351
  390SOL    HW1 1188   0.762   0.187   3.311
  390SOL    HW2 1189   0.680   0.208   3.450
  391SOL     OW 1190   0.075   0.345   1.895
  391SOL    HW1 1191  -0.017   0.317   1.866
  391SOL    HW2 1192   0.106   0.422   1.839
  392SOL     OW 1193   1.440   0.856   3.260
  392SOL    HW1 1194   1.383   0.908   3.197
  392SOL    HW2 1195   1.536   0.868   3.236
  393SOL     OW 1196   0.072   0.166   2.180
  393SOL    HW1 1197   0.055   0.249   2.126
  393SOL    HW2 1198   0.162   0.129   2.158
  394SOL     OW 1199   1.183   1.335   1.981
  394SOL    HW1 1200   1.084   1.324   1.983
  394SOL    HW2 1201   1.217   1.350   2.074
  395SOL     OW 1202   0.613   0.842   3.293
  395SOL    HW1 1203   0.669   0.923   3.276
  395SOL    HW2 1204   0.672   0.762   3.296
  396SOL     OW 1205   1.493   1.767   2.821
  396SOL    HW1 1206   1.526   1.831   2.752
  396SOL    HW2 1207   1.559   1.761   2.896
  397SOL     OW 1208   0.716   0.565   3.570
  397SOL    HW1 1209   0.735   0.630   3.644
  397SOL    HW2 1210   0.776   0.485   3.579
  398SOL     OW 1211   1.450   1.220   3.495
  398SOL    HW1 1212   1.441   1.210   3.594
  398SOL    HW2 1213   1.546   1.213   3.469
  399SOL     OW 1214   0.390   1.741   3.422
  399SOL    HW1 1215   0.299   1.782   3.420
  399SOL    HW2 1216   0.383   1.647   3.454
  400SOL     OW 1217   1.674   0.883   3.116
  400SOL    HW1 1218   1.647   0.794   3.079
  400SOL    HW2 1219   1.675   0.951   3.043
  401SOL     OW 1220   1.225   0.325   2.311
  401SOL    HW1 1221   1.290   0.251   2.300
  401SOL    HW2 1222   1.245   0.375   2.395
  402SOL     OW 1223   0.594   0.745   2.514
  402SOL    HW1 1224   0.644   0.830   2.495
  402SOL    HW2 1225   0.506   0.747   2.466
  403SOL     OW 1226   1.777   0.342   3.504
  403SOL    HW1 1227   1.760   0.373   3.410
  403SOL    HW2 1228   1.693   0.305   3.542
  404SOL     OW 1229   1.730   0.934   3.379
  404SOL    HW1 1230   1.768   1.025   3.394
  404SOL    HW2 1231   1.722   0.917   3.280
  405SOL     OW 1232   0.859   1.374   1.878
  405SOL    HW1 1233   0.813   1.389   1.966
  405SOL    HW2 1234   0.903   1.459   1.848
  406SOL     OW 1235   0.661   1.790   2.815
  406SOL    HW1 1236   0.615   1.878   2.802
  406SOL    HW2 1237   0.760   1.802   2.808
  407SOL     OW 1238   0.859   0.956   2.723
  407SOL    HW1 1239   0.913   0.887   2.771
  407SOL    HW2 1240   0.827   1.025   2.789
  408SOL     OW 1241   1.083   0.984   1.949
  408SOL    HW1 1242   1.060   1.037   1.867
  408SOL    HW2 1243   1.164   0.928   1.930
  409SOL     OW 1244   1.861   1.569   2.713
  409SOL    HW1 1245   1.790   1.557   2.643
  409SOL    HW2 1246   1.862   1.490   2.773
  410SOL     OW 1247   0.221   1.314   3.706
  410SOL    HW1 1248   0.156   1.241   3.685
  410SOL    HW2 1249   0.225   1.328   3.804
  411SOL     OW 1250   0.079   1.240   2.515
  411SOL    HW1 1251   0.078   1.193   2.603
  411SOL    HW2 1252   0.161   1.212   2.464
  412SOL     OW 1253   0.672   1.391   3.486
  412SOL    HW1 1254   0.594   1.341   3.524
  412SOL    HW2 1255   0.669   1.486   3.517
  413SOL     OW 1256   1.824   0.192   3.089
  413SOL    HW1 1257   1.820   0.102   3.133
  413SOL    HW2 1258   1.827   0.181   2.990
  414SOL     OW 1259   0.428   0.424   2.382
  414SOL    HW1 1260   0.458   0.352   2.320
  414SOL    HW2 1261   0.389   0.384   2.465
  415SOL     OW 1262   1.705   1.487   2.966
  415SOL    HW1 1263   1.612   1.462   2.939
  415SOL    HW2 1264   1.731   1.437   3.048
  416SOL     OW 1265   0.317   0.547   3.142
  416SOL    HW1 1266   0.355   0.488   3.214
  416SOL    HW2 1267   0.357   0.521   3.054
  417SOL     OW 1268   0.812   1.586   2.549
  417SOL    HW1 1269   0.844   1.596   2.455
  417SOL    HW2 1270   0.733   1.524   2.551
  418SOL     OW 1271   1.424   0.214   2.974
  418SOL    HW1 1272   1.476   0.149   3.029
  418SOL    HW2 1273   1.375   0.277   3.035
  419SOL     OW 1274   1.001   0.034   3.016
  419SOL    HW1 1275   0.938  -0.038   2.985
  419SOL    HW2 1276   1.094  -0.002   3.016
  420SOL     OW 1277   0.770   1.330   2.163
  420SOL    HW1 1278   0.724   1.243   2.180
  420SOL    HW2 1279   0.861   1.327   2.204
  421SOL     OW 1280   0.618   1.567   3.146
  421SOL    HW1 1281   0.613   1.649   3.203
  421SOL    HW2 1282   0.707   1.564   3.101
  422SOL     OW 1283   1.352   0.052   2.030
  422SOL    HW1 1284   1.387   0.011   1.946
  422SOL    HW2 1285   1.262   0.014   2.050
  423SOL     OW 1286   1.300   0.453   2.553
  423SOL    HW1 1287   1.241   0.533   2.557
  423SOL    HW2 1288   1.315   0.418   2.646
  424SOL     OW 1289   1.593   0.221   2.744
  424SOL    HW1 1290   1.509   0.220   2.798
  424SOL    HW2 1291   1.595   0.304   2.688
  425SOL     OW 1292   0.039   1.077   2.162
  425SOL    HW1 1293   0.138   1.066   2.153
  425SOL    HW2 1294  -0.001   0.991   2.194
  426SOL     OW 1295   0.875   1.646   2.199
  426SOL    HW1 1296   0.798   1.611   2.145
  426SOL    HW2 1297   0.843   1.717   2.261
  427SOL     OW 1298   0.230   0.628   3.837
  427SOL    HW1 1299   0.137   0.626   3.874
  427SOL    HW2 1300   0.231   0.589   3.745
  428SOL     OW 1301   0.225   0.275   4.720
  428SOL    HW1 1302   0.260   0.258   4.812
  428SOL    HW2 1303   0.137   0.230   4.708
  429SOL     OW 1304   0.019   0.368   4.371
  429SOL    HW1 1305  -0.063   0.411   4.410
  429SOL    HW2 1306  -0.009   0.295   4.308
  430SOL     OW 1307   1.555   1.511   4.427
  430SOL    HW1 1308   1.498   1.495   4.508
  430SOL    HW2 1309   1.496   1.521   4.347
  431SOL     OW 1310   1.135   0.703   4.441
  431SOL    HW1 1311   1.192   0.781   4.416
  431SOL    HW2 1312   1.075   0.729   4.517
  432SOL     OW 1313   1.755   0.607   3.955
  432SOL    HW1 1314   1.743   0.594   3.856
  432SOL    HW2 1315   1.725   0.526   4.004
  433SOL     OW 1316   0.768   1.144   4.747
  433SOL    HW1 1317   0.690   1.161   4.807
  433SOL    HW2 1318   0.802   1.231   4.711
  434SOL     OW 1319   0.685   1.012   4.389
  434SOL    HW1 1320   0.754   0.996   4.459
  434SOL    HW2 1321   0.612   1.069   4.427
  435SOL     OW 1322   0.335   1.435   4.785
  435SOL    HW1 1323   0.257   1.404   4.732
  435SOL    HW2 1324   0.393   1.493   4.728
  436SOL     OW 1325   1.603   0.447   4.461
  436SOL    HW1 1326   1.529   0.493   4.411
  436SOL    HW2 1327   1.654   0.515   4.514
  437SOL     OW 1328   0.231   1.713   4.207
  437SOL    HW1 1329   0.265   1.790   4.261
  437SOL    HW2 1330   0.275   1.713   4.117
  438SOL     OW 1331   0.230   1.434   4.262
  438SOL    HW1 1332   0.204   1.530   4.262
  438SOL    HW2 1333   0.159   1.380   4.307
  439SOL     OW 1334   0.240   1.091   4.610
  439SOL    HW1 1335   0.254   1.007   4.662
  439SOL    HW2 1336   0.185   1.155   4.665
  440SOL     OW 1337   0.606   0.964   3.847
  440SOL    HW1 1338   0.613   1.048   3.793
  440SOL    HW2 1339   0.652   0.977   3.935
  441SOL     OW 1340   0.122   0.643   4.287
  441SOL    HW1 1341   0.077   0.555   4.304
  441SOL    HW2 1342   0.121   0.697   4.371
  442SOL     OW 1343   1.842   1.767   4.083
  442SOL    HW1 1344   1.896   1.738   4.163
  442SOL    HW2 1345   1.872   1.857   4.054
  443SOL     OW 1346   0.027   1.596   3.841
  443SOL    HW1 1347   0.008   1.500   3.862
  443SOL    HW2 1348  -0.006   1.654   3.916
  444SOL     OW 1349   1.689   0.922   4.336
  444SOL    HW1 1350   1.784   0.893   4.344
  444SOL    HW2 1351   1.681   0.987   4.261
  445SOL     OW 1352   1.641   1.108   4.156
  445SOL    HW1 1353   1.727   1.110   4.104
  445SOL    HW2 1354   1.655   1.155   4.244
  446SOL     OW 1355   0.613   1.365   4.450
  446SOL    HW1 1356   0.564   1.278   4.459
  446SOL    HW2 1357   0.590   1.408   4.363
  447SOL     OW 1358   0.809   0.004   4.226
  447SOL    HW1 1359   0.849   0.095   4.217
  447SOL    HW2 1360   0.709   0.012   4.232
  448SOL     OW 1361   1.525   0.999   3.914
  448SOL    HW1 1362   1.462   0.923   3.927
  448SOL    HW2 1363   1.573   1.017   4.000
  449SOL     OW 1364   1.466   1.417   4.677
  449SOL    HW1 1365   1.407   1.423   4.757
  449SOL    HW2 1366   1.451   1.329   4.631
  450SOL     OW 1367   1.667   1.714   4.296
  450SOL    HW1 1368   1.626   1.691   4.208
  450SOL    HW2 1369   1.649   1.640   4.361
  451SOL     OW 1370   0.598   0.729   3.994
  451SOL    HW1 1371   0.622   0.798   3.926
  451SOL    HW2 1372   0.520   0.762   4.048
  452SOL     OW 1373   1.281   0.345   4.668
  452SOL    HW1 1374   1.195   0.295   4.655
  452SOL    HW2 1375   1.343   0.291   4.724
  453SOL     OW 1376   1.576   1.662   4.031
  453SOL    HW1 1377   1.665   1.708   4.034
  453SOL    HW2 1378   1.555   1.638   3.936
  454SOL     OW 1379   1.041   0.701   4.153
  454SOL    HW1 1380   1.067   0.697   4.249
  454SOL    HW2 1381   0.956   0.650   4.139
  455SOL     OW 1382   0.076   0.811   4.513
  455SOL    HW1 1383   0.175   0.799   4.522
  455SOL    HW2 1384   0.052   0.906   4.534
  456SOL     OW 1385   0.865   0.348   3.919
  456SOL    HW1 1386   0.924   0.411   3.870
  456SOL    HW2 1387   0.884   0.254   3.890
  457SOL     OW 1388   1.362   1.144   4.269
  457SOL    HW1 1389   1.445   1.115   4.221
  457SOL    HW2 1390   1.313   1.211   4.213
  458SOL     OW 1391   0.550   0.196   4.609
  458SOL    HW1 1392   0.545   0.191   4.709
  458SOL    HW2 1393   0.552   0.292   4.580
  459SOL     OW 1394   1.008   1.456   4.201
  459SOL    HW1 1395   0.962   1.528   4.149
  459SOL    HW2 1396   1.004   1.476   4.299
  460SOL     OW 1397   0.351   1.801   4.577
  460SOL    HW1 1398   0.401   1.715   4.583
  460SOL    HW2 1399   0.416   1.878   4.574
  461SOL     OW 1400   1.795   1.066   4.597
  461SOL    HW1 1401   1.733   1.051   4.521
  461SOL    HW2 1402   1.743   1.077   4.682
  462SOL     OW 1403   0.321   0.943   3.966
  462SOL    HW1 1404   0.403   0.982   3.924
  462SOL    HW2 1405   0.294   0.861   3.917
  463SOL     OW 1406   1.458   0.735   4.452
  463SOL    HW1 1407   1.453   0.670   4.527
  463SOL    HW2 1408   1.538   0.794   4.465
  464SOL     OW 1409   1.111   1.776   3.961
  464SOL    HW1 1410   1.051   1.714   4.011
  464SOL    HW2 1411   1.142   1.732   3.876
  465SOL     OW 1412   1.632   1.377   3.805
  465SOL    HW1 1413   1.600   1.471   3.795
  465SOL    HW2 1414   1.556   1.314   3.793
  466SOL     OW 1415   0.464   1.743   4.047
  466SOL    HW1 1416   0.497   1.782   4.133
  466SOL    HW2 1417   0.540   1.736   3.982
  467SOL     OW 1418   1.400   0.107   4.150
  467SOL    HW1 1419   1.376   0.070   4.060
  467SOL    HW2 1420   1.499   0.123   4.154
  468SOL     OW 1421   0.249   1.785   4.965
  468SOL    HW1 1422   0.306   1.720   5.015
  468SOL    HW2 1423   0.233   1.752   4.872
  469SOL     OW 1424   0.940   1.698   4.628
  469SOL    HW1 1425   1.020   1.641   4.649
  469SOL    HW2 1426   0.891   1.658   4.551
  470SOL     OW 1427   0.382   0.700   4.204
  470SOL    HW1 1428   0.427   0.610   4.201
  470SOL    HW2 1429   0.288   0.689   4.237
  471SOL     OW 1430   0.614   0.122   3.841
  471SOL    HW1 1431   0.712   0.100   3.848
  471SOL    HW2 1432   0.583   0.105   3.748
  472SOL     OW 1433   0.803   1.402   4.648
  472SOL    HW1 1434   0.893   1.416   4.606
  472SOL    HW2 1435   0.732   1.404   4.577
  473SOL     OW 1436   0.922   0.503   4.623
  473SOL    HW1 1437   0.897   0.494   4.527
  473SOL    HW2 1438   0.970   0.421   4.654
  474SOL     OW 1439   0.539   0.064   4.236
  474SOL    HW1 1440   0.458   0.065   4.294
  474SOL    HW2 1441   0.542   0.147   4.181
  475SOL     OW 1442   1.434   1.188   3.765
  475SOL    HW1 1443   1.466   1.112   3.822
  475SOL    HW2 1444   1.342   1.215   3.795
  476SOL     OW 1445   0.297   0.035   3.895
  476SOL    HW1 1446   0.346   0.119   3.874
  476SOL    HW2 1447   0.359  -0.030   3.940
  477SOL     OW 1448   0.935   0.236   4.204
  477SOL    HW1 1449   0.887   0.277   4.126
  477SOL    HW2 1450   1.034   0.234   4.185
  478SOL     OW 1451   1.227   1.570   4.517
  478SOL    HW1 1452   1.248   1.644   4.452
  478SOL    HW2 1453   1.295   1.570   4.590
  479SOL     OW 1454   0.459   1.152   4.465
  479SOL    HW1 1455   0.388   1.125   4.530
  479SOL    HW2 1456   0.433   1.124   4.372
  480SOL     OW 1457   1.271   1.797   4.315
  480SOL    HW1 1458   1.315   1.861   4.251
  480SOL    HW2 1459   1.221   1.849   4.385
  481SOL     OW 1460   1.032   0.549   3.740
  481SOL    HW1 1461   0.991   0.631   3.701
  481SOL    HW2 1462   1.096   0.575   3.813
  482SOL     OW 1463   0.866   0.454   4.366
  482SOL    HW1 1464   0.834   0.526   4.304
  482SOL    HW2 1465   0.890   0.373   4.313
  483SOL     OW 1466   1.017   0.039   4.477
  483SOL    HW1 1467   0.945   0.044   4.408
  483SOL    HW2 1468   0.993  -0.030   4.546
  484SOL     OW 1469   1.429   1.173   4.591
  484SOL    HW1 1470   1.374   1.089   4.584
  484SOL    HW2 1471   1.455   1.202   4.499
  485SOL     OW 1472   1.466   0.590   4.716
  485SOL    HW1 1473   1.436   0.495   4.723
  485SOL    HW2 1474   1.539   0.606   4.782
  486SOL     OW 1475   1.857   0.833   4.101
  486SOL    HW1 1476   1.899   0.769   4.165
  486SOL    HW2 1477   1.819   0.782   4.023
  487SOL     OW 1478   0.488   1.385   3.898
  487SOL    HW1 1479   0.401   1.370   3.945
  487SOL    HW2 1480   0.471   1.411   3.803
  488SOL     OW 1481   1.664   1.280   4.381
  488SOL    HW1 1482   1.763   1.288   4.395
  488SOL    HW2 1483   1.619   1.364   4.412
  489SOL     OW 1484   1.390   0.575   3.802
  489SOL    HW1 1485   1.336   0.554   3.883
  489SOL    HW2 1486   1.481   0.534   3.811
  490SOL     OW 1487   0.527   0.256   4.052
  490SOL    HW1 1488   0.554   0.197   3.977
  490SOL    HW2 1489   0.527   0.351   4.021
  491SOL     OW 1490   1.638   1.099   4.803
  491SOL    HW1 1491   1.643   1.180   4.862
  491SOL    HW2 1492   1.552   1.101   4.752
  492SOL     OW 1493   0.705   1.050   4.092
  492SOL    HW1 1494   0.691   1.057   4.191
  492SOL    HW2 1495   0.789   0.999   4.074
  493SOL     OW 1496   0.410   0.813   4.975
  493SOL    HW1 1497   0.496   0.825   5.025
  493SOL    HW2 1498   0.368   0.726   5.002
  494SOL     OW 1499   0.367   1.100   4.225
  494SOL    HW1 1500   0.360   1.183   4.169
  494SOL    HW2 1501   0.371   1.020   4.165
  495SOL     OW 1502   0.566   0.537   4.589
  495SOL    HW1 1503   0.578   0.603   4.515
  495SOL    HW2 1504   0.612   0.571   4.672
  496SOL     OW 1505   1.252   1.348   4.112
  496SOL    HW1 1506   1.302   1.425   4.152
  496SOL    HW2 1507   1.157   1.350   4.144
  497SOL     OW 1508   1.582   0.639   4.196
  497SOL    HW1 1509   1.551   0.700   4.269
  497SOL    HW2 1510   1.632   0.691   4.127
  498SOL     OW 1511   0.573   0.870   4.753
  498SOL    HW1 1512   0.617   0.959   4.744
  498SOL    HW2 1513   0.510   0.870   4.830
  499SOL     OW 1514   1.209   0.525   3.999
  499SOL    HW1 1515   1.222   0.441   4.053
  499SOL    HW2 1516   1.180   0.599   4.059
  500SOL     OW 1517   0.732   0.634   4.788
  500SOL    HW1 1518   0.791   0.608   4.712
  500SOL    HW2 1519   0.704   0.730   4.777
  501SOL     OW 1520   0.307   0.063   4.342
  501SOL    HW1 1521   0.296   0.157   4.375
  501SOL    HW2 1522   0.302   0.000   4.419
  502SOL     OW 1523   1.622   0.367   4.098
  502SOL    HW1 1524   1.624   0.291   4.162
  502SOL    HW2 1525   1.574   0.444   4.138
  503SOL     OW 1526   1.023   0.766   4.690
  503SOL    HW1 1527   1.038   0.787   4.786
  503SOL    HW2 1528   0.993   0.671   4.681
  504SOL     OW 1529   1.540   0.274   3.849
  504SOL    HW1 1530   1.479   0.199   3.872
  504SOL    HW2 1531   1.562   0.326   3.932
  505SOL     OW 1532   1.303   0.838   3.766
  505SOL    HW1 1533   1.337   0.745   3.781
  505SOL    HW2 1534   1.321   0.865   3.671
  506SOL     OW 1535   1.068   1.333   4.573
  506SOL    HW1 1536   1.075   1.249   4.518
  506SOL    HW2 1537   1.130   1.402   4.537
  507SOL     OW 1538   0.319   0.810   4.673
  507SOL    HW1 1539   0.412   0.846   4.678
  507SOL    HW2 1540   0.313   0.725   4.725
  508SOL     OW 1541   0.339   0.509   4.730
  508SOL    HW1 1542   0.287   0.426   4.713
  508SOL    HW2 1543   0.416   0.514   4.666
  509SOL     OW 1544   0.008   1.326   3.924
  509SOL    HW1 1545  -0.085   1.347   3.893
  509SOL    HW2 1546   0.018   1.227   3.937
  510SOL     OW 1547   0.088   1.801   4.651
  510SOL    HW1 1548   0.046   1.715   4.624
  510SOL    HW2 1549   0.182   1.804   4.617
  511SOL     OW 1550   0.504   1.568   4.634
  511SOL    HW1 1551   0.570   1.642   4.643
  511SOL    HW2 1552   0.548   1.489   4.592
  512SOL     OW 1553   1.002   0.796   4.962
  512SOL    HW1 1554   1.043   0.764   5.048
  512SOL    HW2 1555   0.906   0.769   4.959
  513SOL     OW 1556   0.815   0.572   4.049
  513SOL    HW1 1557   0.822   0.483   4.003
  513SOL    HW2 1558   0.721   0.606   4.041
  514SOL     OW 1559   0.671   0.464   4.993
  514SOL    HW1 1560   0.637   0.375   4.963
  514SOL    HW2 1561   0.697   0.518   4.913
  515SOL     OW 1562   0.473   0.500   3.915
  515SOL    HW1 1563   0.534   0.580   3.919
  515SOL    HW2 1564   0.378   0.531   3.922
  516SOL     OW 1565   1.302   0.855   4.033
  516SOL    HW1 1566   1.216   0.824   4.075
  516SOL    HW2 1567   1.298   0.841   3.934
  517SOL     OW 1568   1.759   1.747   4.878
  517SOL    HW1 1569   1.820   1.777   4.805
  517SOL    HW2 1570   1.721   1.658   4.856
  518SOL     OW 1571   0.083   1.258   4.746
  518SOL    HW1 1572   0.078   1.257   4.846
  518SOL    HW2 1573   0.000   1.217   4.708
  519SOL     OW 1574   1.726   0.135   4.247
  519SOL    HW1 1575   1.799   0.118   4.180
  519SOL    HW2 1576   1.695   0.048   4.285
  520SOL     OW 1577   1.388   1.573   4.201
  520SOL    HW1 1578   1.455   1.585   4.127
  520SOL    HW2 1579   1.348   1.662   4.224
  521SOL     OW 1580   1.280   0.927   4.396
  521SOL    HW1 1581   1.340   0.846   4.398
  521SOL    HW2 1582   1.320   0.996   4.336
  522SOL     OW 1583   0.672   1.616   3.878
  522SOL    HW1 1584   0.681   1.626   3.779
  522SOL    HW2 1585   0.632   1.527   3.899
  523SOL     OW 1586   1.841   0.175   4.687
  523SOL    HW1 1587   1.880   0.090   4.651
  523SOL    HW2 1588   1.743   0.177   4.668
  524SOL     OW 1589   0.263   0.326   4.444
  524SOL    HW1 1590   0.184   0.377   4.410
  524SOL    HW2 1591   0.254   0.311   4.542
  525SOL     OW 1592   1.194   1.612   3.755
  525SOL    HW1 1593   1.200   1.519   3.792
  525SOL    HW2 1594   1.135   1.612   3.675
  526SOL     OW 1595   0.916   0.910   4.015
  526SOL    HW1 1596   0.979   0.948   3.947
  526SOL    HW2 1597   0.956   0.827   4.054
  527SOL     OW 1598   1.504   1.607   3.768
  527SOL    HW1 1599   1.412   1.644   3.775
  527SOL    HW2 1600   1.542   1.627   3.678
  528SOL     OW 1601   1.039   1.098   4.420
  528SOL    HW1 1602   0.969   1.051   4.474
  528SOL    HW2 1603   1.098   1.030   4.377
  529SOL     OW 1604   1.014   0.236   4.695
  529SOL    HW1 1605   1.006   0.200   4.602
  529SOL    HW2 1606   1.012   0.160   4.760
  530SOL     OW 1607   0.590   1.487   4.215
  530SOL    HW1 1608   0.632   1.429   4.145
  530SOL    HW2 1609   0.546   1.566   4.171
  531SOL     OW 1610   0.255   1.348   4.014
  531SOL    HW1 1611   0.159   1.349   3.987
  531SOL    HW2 1612   0.267   1.401   4.098
  532SOL     OW 1613   0.075   0.345   3.757
  532SOL    HW1 1614  -0.017   0.317   3.728
  532SOL    HW2 1615   0.106   0.422   3.701
  533SOL     OW 1616   0.072   0.166   4.042
  533SOL    HW1 1617   0.055   0.249   3.988
  533SOL    HW2 1618   0.162   0.129   4.020
  534SOL     OW 1619   1.183   1.335   3.843
  534SOL    HW1 1620   1.084   1.324   3.845
  534SOL    HW2 1621   1.217   1.350   3.936
  535SOL     OW 1622   1.493   1.767   4.683
  535SOL    HW1 1623   1.526   1.831   4.614
  535SOL    HW2 1624   1.559   1.761   4.758
  536SOL     OW 1625   1.674   0.883   4.978
  536SOL    HW1 1626   1.647   0.794   4.941
  536SOL    HW2 1627   1.675   0.951   4.905
  537SOL     OW 1628   1.225   0.325   4.173
  537SOL    HW1 1629   1.290   0.251   4.162
  537SOL    HW2 1630   1.245   0.375   4.257
  538SOL     OW 1631   0.594   0.745   4.376
  538SOL    HW1 1632   0.644   0.830   4.357
  538SOL    HW2 1633   0.506   0.747   4.328
  539SOL     OW 1634   0.859   1.374   3.740
  539SOL    HW1 1635   0.813   1.389   3.828
  539SOL    HW2 1636   0.903   1.459   3.710
  540SOL     OW 1637   0.661   1.790   4.677
  540SOL    HW1 1638   0.615   1.878   4.664
  540SOL    HW2 1639   0.760   1.802   4.670
  541SOL     OW 1640   0.859   0.956   4.585
  541SOL    HW1 1641   0.913   0.887   4.633
  541SOL    HW2 1642   0.827   1.025   4.651
  542SOL     OW 1643   1.083   0.984   3.811
  542SOL    HW1 1644   1.060   1.037   3.729
  542SOL    HW2 1645   1.164   0.928   3.792
  543SOL     OW 1646   1.861   1.569   4.575
  543SOL    HW1 1647   1.790   1.557   4.505
  543SOL    HW2 1648   1.862   1.490   4.635
  544SOL     OW 1649   0.079   1.240   4.377
  544SOL    HW1 1650   0.078   1.193   4.465
  544SOL    HW2 1651   0.161   1.212   4.326
  545SOL     OW 1652   1.824   0.192   4.951
  545SOL    HW1 1653   1.820   0.102   4.995
  545SOL    HW2 1654   1.827   0.181   4.852
  546SOL     OW 1655   0.428   0.424   4.244
  546SOL    HW1 1656   0.458   0.352   4.182
  546SOL    HW2 1657   0.389   0.384   4.327
  547SOL     OW 1658   0.812   1.586   4.411
  547SOL    HW1 1659   0.844   1.596   4.317
  547SOL    HW2 1660   0.733   1.524   4.413
  548SOL     OW 1661   1.424   0.214   4.836
  548SOL    HW1 1662   1.476   0.149   4.891
  548SOL    HW2 1663   1.375   0.277   4.897
  549SOL     OW 1664   0.770   1.330   4.025
  549SOL    HW1 1665   0.724   1.243   4.042
  549SOL    HW2 1666   0.861   1.327   4.066
  550SOL     OW 1667   1.352   0.052   3.892
  550SOL    HW1 1668   1.387   0.011   3.808
  550SOL    HW2 1669   1.262   0.014   3.912
  551SOL     OW 1670   1.300   0.453   4.415
  551SOL    HW1 1671   1.241   0.533   4.419
  551SOL    HW2 1672   1.315   0.418   4.508
  552SOL     OW 1673   1.593   0.221   4.606
  552SOL    HW1 1674   1.509   0.220   4.660
  552SOL    HW2 1675   1.595   0.304   4.550
  553SOL     OW 1676   0.039   1.077   4.024
  553SOL    HW1 1677   0.138   1.066   4.015
  553SOL    HW2 1678  -0.001   0.991   4.056
  554SOL     OW 1679   0.875   1.646   4.061
  554SOL    HW1 1680   0.798   1.611   4.007
  554SOL    HW2 1681   0.843   1.717   4.123
  555SOL     OW 1682   0.230   2.490   0.113
  555SOL    HW1 1683   0.137   2.488   0.150
  555SOL    HW2 1684   0.231   2.451   0.021
  556SOL     OW 1685   0.225   2.137   0.996
  556SOL    HW1 1686   0.260   2.120   1.088
  556SOL    HW2 1687   0.137   2.092   0.984
  557SOL     OW 1688   0.019   2.230   0.647
  557SOL    HW1 1689  -0.063   2.273   0.686
  557SOL    HW2 1690  -0.009   2.157   0.584
  558SOL     OW 1691   0.569   3.137   1.165
  558SOL    HW1 1692   0.476   3.130   1.128
  558SOL    HW2 1693   0.580   3.226   1.209
  559SOL     OW 1694   1.555   3.373   0.703
  559SOL    HW1 1695   1.498   3.357   0.784
  559SOL    HW2 1696   1.496   3.383   0.623
  560SOL     OW 1697   1.135   2.565   0.717
  560SOL    HW1 1698   1.192   2.643   0.692
  560SOL    HW2 1699   1.075   2.591   0.793
  561SOL     OW 1700   1.755   2.469   0.231
  561SOL    HW1 1701   1.743   2.456   0.132
  561SOL    HW2 1702   1.725   2.388   0.280
  562SOL     OW 1703   0.768   3.006   1.023
  562SOL    HW1 1704   0.690   3.023   1.083
  562SOL    HW2 1705   0.802   3.093   0.987
  563SOL     OW 1706   0.850   2.660   1.823
  563SOL    HW1 1707   0.846   2.736   1.888
  563SOL    HW2 1708   0.872   2.696   1.732
  564SOL     OW 1709   0.685   2.874   0.665
  564SOL    HW1 1710   0.754   2.858   0.735
  564SOL    HW2 1711   0.612   2.931   0.703
  565SOL     OW 1712   0.686   3.023   1.803
  565SOL    HW1 1713   0.746   3.102   1.817
  565SOL    HW2 1714   0.600   3.054   1.762
  566SOL     OW 1715   0.335   3.297   1.061
  566SOL    HW1 1716   0.257   3.266   1.008
  566SOL    HW2 1717   0.393   3.355   1.004
  567SOL     OW 1718   1.460   3.367   1.339
  567SOL    HW1 1719   1.484   3.461   1.365
  567SOL    HW2 1720   1.444   3.313   1.421
  568SOL     OW 1721   0.438   2.254   1.499
  568SOL    HW1 1722   0.520   2.198   1.508
  568SOL    HW2 1723   0.357   2.196   1.503
  569SOL     OW 1724   1.603   2.309   0.737
  569SOL    HW1 1725   1.529   2.355   0.687
  569SOL    HW2 1726   1.654   2.377   0.790
  570SOL     OW 1727   0.231   3.575   0.483
  570SOL    HW1 1728   0.265   3.652   0.537
  570SOL    HW2 1729   0.275   3.575   0.393
  571SOL     OW 1730   1.127   3.203   1.690
  571SOL    HW1 1731   1.174   3.203   1.778
  571SOL    HW2 1732   1.079   3.116   1.679
  572SOL     OW 1733   0.230   3.296   0.538
  572SOL    HW1 1734   0.204   3.392   0.538
  572SOL    HW2 1735   0.159   3.242   0.583
  573SOL     OW 1736   0.240   2.953   0.886
  573SOL    HW1 1737   0.254   2.869   0.938
  573SOL    HW2 1738   0.185   3.017   0.941
  574SOL     OW 1739   0.620   3.648   1.439
  574SOL    HW1 1740   0.528   3.631   1.474
  574SOL    HW2 1741   0.648   3.740   1.465
  575SOL     OW 1742   0.606   2.826   0.123
  575SOL    HW1 1743   0.613   2.910   0.069
  575SOL    HW2 1744   0.652   2.839   0.211
  576SOL     OW 1745   1.594   1.976   1.480
  576SOL    HW1 1746   1.576   2.043   1.408
  576SOL    HW2 1747   1.591   2.022   1.569
  577SOL     OW 1748   0.122   2.505   0.563
  577SOL    HW1 1749   0.077   2.417   0.580
  577SOL    HW2 1750   0.121   2.559   0.647
  578SOL     OW 1751   1.842   3.629   0.359
  578SOL    HW1 1752   1.896   3.600   0.439
  578SOL    HW2 1753   1.872   3.719   0.330
  579SOL     OW 1754   0.027   3.458   0.117
  579SOL    HW1 1755   0.008   3.362   0.138
  579SOL    HW2 1756  -0.006   3.516   0.192
  580SOL     OW 1757   1.689   2.784   0.612
  580SOL    HW1 1758   1.784   2.755   0.620
  580SOL    HW2 1759   1.681   2.849   0.537
  581SOL     OW 1760   1.641   2.970   0.432
  581SOL    HW1 1761   1.727   2.972   0.380
  581SOL    HW2 1762   1.655   3.017   0.520
  582SOL     OW 1763   0.113   2.599   1.597
  582SOL    HW1 1764   0.201   2.586   1.642
  582SOL    HW2 1765   0.100   2.696   1.575
  583SOL     OW 1766   0.613   3.227   0.726
  583SOL    HW1 1767   0.564   3.140   0.735
  583SOL    HW2 1768   0.590   3.270   0.639
  584SOL     OW 1769   1.293   3.090   1.423
  584SOL    HW1 1770   1.330   3.017   1.365
  584SOL    HW2 1771   1.345   3.095   1.508
  585SOL     OW 1772   0.809   1.866   0.502
  585SOL    HW1 1773   0.849   1.957   0.493
  585SOL    HW2 1774   0.709   1.874   0.508
  586SOL     OW 1775   0.197   2.838   1.264
  586SOL    HW1 1776   0.286   2.793   1.250
  586SOL    HW2 1777   0.124   2.773   1.245
  587SOL     OW 1778   1.525   2.861   0.190
  587SOL    HW1 1779   1.462   2.785   0.203
  587SOL    HW2 1780   1.573   2.879   0.276
  588SOL     OW 1781   1.187   3.654   1.616
  588SOL    HW1 1782   1.211   3.714   1.540
  588SOL    HW2 1783   1.194   3.559   1.586
  589SOL     OW 1784   0.317   2.113   1.801
  589SOL    HW1 1785   0.388   2.184   1.807
  589SOL    HW2 1786   0.229   2.152   1.829
  590SOL     OW 1787   1.466   3.279   0.953
  590SOL    HW1 1788   1.407   3.285   1.033
  590SOL    HW2 1789   1.451   3.191   0.907
  591SOL     OW 1790   1.667   3.576   0.572
  591SOL    HW1 1791   1.626   3.553   0.484
  591SOL    HW2 1792   1.649   3.502   0.637
  592SOL     OW 1793   0.598   2.591   0.270
  592SOL    HW1 1794   0.622   2.660   0.202
  592SOL    HW2 1795   0.520   2.624   0.324
  593SOL     OW 1796   1.281   2.207   0.944
  593SOL    HW1 1797   1.195   2.157   0.931
  593SOL    HW2 1798   1.343   2.153   1.000
  594SOL     OW 1799   1.576   3.524   0.307
  594SOL    HW1 1800   1.665   3.570   0.310
  594SOL    HW2 1801   1.555   3.500   0.212
  595SOL     OW 1802   0.807   2.467   1.465
  595SOL    HW1 1803   0.760   2.464   1.554
  595SOL    HW2 1804   0.756   2.412   1.399
  596SOL     OW 1805   1.394   2.331   1.674
  596SOL    HW1 1806   1.374   2.374   1.762
  596SOL    HW2 1807   1.472   2.269   1.683
  597SOL     OW 1808   0.973   2.752   1.572
  597SOL    HW1 1809   1.019   2.668   1.543
  597SOL    HW2 1810   0.917   2.786   1.497
  598SOL     OW 1811   0.991   2.272   1.242
  598SOL    HW1 1812   0.914   2.306   1.296
  598SOL    HW2 1813   0.957   2.221   1.163
  599SOL     OW 1814   1.041   2.563   0.429
  599SOL    HW1 1815   1.067   2.559   0.525
  599SOL    HW2 1816   0.956   2.512   0.415
  600SOL     OW 1817   0.076   2.673   0.789
  600SOL    HW1 1818   0.175   2.661   0.798
  600SOL    HW2 1819   0.052   2.768   0.810
  601SOL     OW 1820   0.130   3.683   1.571
  601SOL    HW1 1821   0.120   3.668   1.670
  601SOL    HW2 1822   0.044   3.719   1.535
  602SOL     OW 1823   0.865   2.210   0.195
  602SOL    HW1 1824   0.924   2.273   0.146
  602SOL    HW2 1825   0.884   2.116   0.166
  603SOL     OW 1826   1.719   2.447   1.831
  603SOL    HW1 1827   1.693   2.536   1.795
  603SOL    HW2 1828   1.717   2.379   1.758
  604SOL     OW 1829   1.362   3.006   0.545
  604SOL    HW1 1830   1.445   2.977   0.497
  604SOL    HW2 1831   1.313   3.073   0.489
  605SOL     OW 1832   0.550   2.058   0.885
  605SOL    HW1 1833   0.545   2.053   0.985
  605SOL    HW2 1834   0.552   2.154   0.856
  606SOL     OW 1835   1.008   3.318   0.477
  606SOL    HW1 1836   0.962   3.390   0.425
  606SOL    HW2 1837   1.004   3.338   0.575
  607SOL     OW 1838   0.351   3.663   0.853
  607SOL    HW1 1839   0.401   3.577   0.859
  607SOL    HW2 1840   0.416   3.740   0.850
  608SOL     OW 1841   1.795   2.928   0.873
  608SOL    HW1 1842   1.733   2.913   0.797
  608SOL    HW2 1843   1.743   2.939   0.958
  609SOL     OW 1844   1.227   3.412   1.506
  609SOL    HW1 1845   1.233   3.335   1.570
  609SOL    HW2 1846   1.175   3.386   1.426
  610SOL     OW 1847   0.321   2.805   0.242
  610SOL    HW1 1848   0.403   2.844   0.200
  610SOL    HW2 1849   0.294   2.723   0.193
  611SOL     OW 1850   1.458   2.597   0.728
  611SOL    HW1 1851   1.453   2.532   0.803
  611SOL    HW2 1852   1.538   2.656   0.741
  612SOL     OW 1853   0.461   3.128   1.727
  612SOL    HW1 1854   0.411   3.129   1.641
  612SOL    HW2 1855   0.398   3.110   1.803
  613SOL     OW 1856   1.111   3.638   0.237
  613SOL    HW1 1857   1.051   3.576   0.287
  613SOL    HW2 1858   1.142   3.594   0.152
  614SOL     OW 1859   0.202   2.147   1.498
  614SOL    HW1 1860   0.122   2.207   1.485
  614SOL    HW2 1861   0.192   2.098   1.584
  615SOL     OW 1862   1.632   3.239   0.081
  615SOL    HW1 1863   1.600   3.333   0.071
  615SOL    HW2 1864   1.556   3.176   0.069
  616SOL     OW 1865   0.464   3.605   0.323
  616SOL    HW1 1866   0.497   3.644   0.409
  616SOL    HW2 1867   0.540   3.598   0.258
  617SOL     OW 1868   1.400   1.969   0.426
  617SOL    HW1 1869   1.376   1.932   0.336
  617SOL    HW2 1870   1.499   1.985   0.430
  618SOL     OW 1871   0.249   3.647   1.241
  618SOL    HW1 1872   0.306   3.582   1.291
  618SOL    HW2 1873   0.233   3.614   1.148
  619SOL     OW 1874   0.940   3.560   0.904
  619SOL    HW1 1875   1.020   3.503   0.925
  619SOL    HW2 1876   0.891   3.520   0.827
  620SOL     OW 1877   0.382   2.562   0.480
  620SOL    HW1 1878   0.427   2.472   0.477
  620SOL    HW2 1879   0.288   2.551   0.513
  621SOL     OW 1880   1.547   2.084   1.729
  621SOL    HW1 1881   1.542   2.121   1.821
  621SOL    HW2 1882   1.475   2.015   1.717
  622SOL     OW 1883   0.614   1.984   0.117
  622SOL    HW1 1884   0.712   1.962   0.124
  622SOL    HW2 1885   0.583   1.967   0.024
  623SOL     OW 1886   0.781   2.126   1.749
  623SOL    HW1 1887   0.848   2.065   1.792
  623SOL    HW2 1888   0.708   2.145   1.814
  624SOL     OW 1889   0.888   3.376   1.195
  624SOL    HW1 1890   0.865   3.351   1.101
  624SOL    HW2 1891   0.949   3.307   1.234
  625SOL     OW 1892   1.351   2.452   1.433
  625SOL    HW1 1893   1.379   2.409   1.518
  625SOL    HW2 1894   1.376   2.548   1.434
  626SOL     OW 1895   0.803   3.264   0.924
  626SOL    HW1 1896   0.893   3.278   0.882
  626SOL    HW2 1897   0.732   3.266   0.853
  627SOL     OW 1898   0.922   2.365   0.899
  627SOL    HW1 1899   0.897   2.356   0.803
  627SOL    HW2 1900   0.970   2.283   0.930
  628SOL     OW 1901   0.539   1.926   0.512
  628SOL    HW1 1902   0.458   1.927   0.570
  628SOL    HW2 1903   0.542   2.009   0.457
  629SOL     OW 1904   1.434   3.050   0.041
  629SOL    HW1 1905   1.466   2.974   0.098
  629SOL    HW2 1906   1.342   3.077   0.071
  630SOL     OW 1907   0.935   2.098   0.480
  630SOL    HW1 1908   0.887   2.139   0.402
  630SOL    HW2 1909   1.034   2.096   0.461
  631SOL     OW 1910   1.076   2.545   1.464
  631SOL    HW1 1911   0.996   2.484   1.467
  631SOL    HW2 1912   1.157   2.492   1.440
  632SOL     OW 1913   1.227   3.432   0.793
  632SOL    HW1 1914   1.248   3.506   0.728
  632SOL    HW2 1915   1.295   3.432   0.866
  633SOL     OW 1916   0.459   3.014   0.741
  633SOL    HW1 1917   0.388   2.987   0.806
  633SOL    HW2 1918   0.433   2.986   0.648
  634SOL     OW 1919   1.271   3.659   0.591
  634SOL    HW1 1920   1.315   3.723   0.527
  634SOL    HW2 1921   1.221   3.711   0.661
  635SOL     OW 1922   1.032   2.411   0.016
  635SOL    HW1 1923   0.991   2.493  -0.023
  635SOL    HW2 1924   1.096   2.437   0.089
  636SOL     OW 1925   0.078   2.418   1.386
  636SOL    HW1 1926   0.170   2.417   1.345
  636SOL    HW2 1927   0.072   2.492   1.453
  637SOL     OW 1928   0.561   2.084   1.147
  637SOL    HW1 1929   0.599   2.000   1.184
  637SOL    HW2 1930   0.473   2.103   1.191
  638SOL     OW 1931   0.866   2.316   0.642
  638SOL    HW1 1932   0.834   2.388   0.580
  638SOL    HW2 1933   0.890   2.235   0.589
  639SOL     OW 1934   1.017   1.901   0.753
  639SOL    HW1 1935   0.945   1.906   0.684
  639SOL    HW2 1936   0.993   1.832   0.822
  640SOL     OW 1937   1.429   3.035   0.867
  640SOL    HW1 1938   1.374   2.951   0.860
  640SOL    HW2 1939   1.455   3.064   0.775
  641SOL     OW 1940   1.466   2.452   0.992
  641SOL    HW1 1941   1.436   2.357   0.999
  641SOL    HW2 1942   1.539   2.468   1.058
  642SOL     OW 1943   1.857   2.695   0.377
  642SOL    HW1 1944   1.899   2.631   0.441
  642SOL    HW2 1945   1.819   2.644   0.299
  643SOL     OW 1946   0.488   3.247   0.174
  643SOL    HW1 1947   0.401   3.232   0.221
  643SOL    HW2 1948   0.471   3.273   0.079
  644SOL     OW 1949   1.664   3.142   0.657
  644SOL    HW1 1950   1.763   3.150   0.671
  644SOL    HW2 1951   1.619   3.226   0.688
  645SOL     OW 1952   1.390   2.437   0.078
  645SOL    HW1 1953   1.336   2.416   0.159
  645SOL    HW2 1954   1.481   2.396   0.087
  646SOL     OW 1955   0.527   2.118   0.328
  646SOL    HW1 1956   0.554   2.059   0.253
  646SOL    HW2 1957   0.527   2.213   0.297
  647SOL     OW 1958   1.754   3.085   1.588
  647SOL    HW1 1959   1.845   3.046   1.575
  647SOL    HW2 1960   1.762   3.181   1.612
  648SOL     OW 1961   1.064   3.209   1.340
  648SOL    HW1 1962   0.984   3.186   1.395
  648SOL    HW2 1963   1.147   3.183   1.389
  649SOL     OW 1964   1.592   3.491   1.625
  649SOL    HW1 1965   1.619   3.525   1.535
  649SOL    HW2 1966   1.671   3.453   1.671
  650SOL     OW 1967   1.111   3.057   1.100
  650SOL    HW1 1968   1.071   3.101   1.181
  650SOL    HW2 1969   1.070   3.094   1.017
  651SOL     OW 1970   1.638   2.961   1.079
  651SOL    HW1 1971   1.643   3.042   1.138
  651SOL    HW2 1972   1.552   2.963   1.028
  652SOL     OW 1973   0.915   1.951   1.402
  652SOL    HW1 1974   0.940   1.931   1.307
  652SOL    HW2 1975   0.987   2.007   1.444
  653SOL     OW 1976   0.980   2.978   1.719
  653SOL    HW1 1977   0.881   2.984   1.729
  653SOL    HW2 1978   1.003   2.898   1.663
  654SOL     OW 1979   0.705   2.912   0.368
  654SOL    HW1 1980   0.691   2.919   0.467
  654SOL    HW2 1981   0.789   2.861   0.350
  655SOL     OW 1982   0.410   2.675   1.251
  655SOL    HW1 1983   0.496   2.687   1.301
  655SOL    HW2 1984   0.368   2.588   1.278
  656SOL     OW 1985   1.274   2.248   1.262
  656SOL    HW1 1986   1.295   2.322   1.326
  656SOL    HW2 1987   1.185   2.265   1.219
  657SOL     OW 1988   0.064   3.426   1.331
  657SOL    HW1 1989   0.018   3.508   1.297
  657SOL    HW2 1990   0.162   3.445   1.340
  658SOL     OW 1991   0.367   2.962   0.501
  658SOL    HW1 1992   0.360   3.045   0.445
  658SOL    HW2 1993   0.371   2.882   0.441
  659SOL     OW 1994   0.566   2.399   0.865
  659SOL    HW1 1995   0.578   2.465   0.791
  659SOL    HW2 1996   0.612   2.433   0.948
  660SOL     OW 1997   1.252   3.210   0.388
  660SOL    HW1 1998   1.302   3.287   0.428
  660SOL    HW2 1999   1.157   3.212   0.420
  661SOL     OW 2000   1.272   3.307   1.142
  661SOL    HW1 2001   1.319   3.320   1.229
  661SOL    HW2 2002   1.206   3.233   1.151
  662SOL     OW 2003   1.582   2.501   0.472
  662SOL    HW1 2004   1.551   2.562   0.545
  662SOL    HW2 2005   1.632   2.553   0.403
  663SOL     OW 2006   0.354   3.372   1.329
  663SOL    HW1 2007   0.333   3.328   1.242
  663SOL    HW2 2008   0.451   3.398   1.332
  664SOL     OW 2009   0.402   2.613   1.598
  664SOL    HW1 2010   0.470   2.668   1.551
  664SOL    HW2 2011   0.442   2.525   1.625
  665SOL     OW 2012   1.587   2.641   1.670
  665SOL    HW1 2013   1.495   2.679   1.665
  665SOL    HW2 2014   1.647   2.688   1.605
  666SOL     OW 2015   1.013   1.967   1.770
  666SOL    HW1 2016   1.019   2.052   1.718
  666SOL    HW2 2017   1.045   1.891   1.713
  667SOL     OW 2018   0.504   1.912   1.740
  667SOL    HW1 2019   0.462   1.855   1.670
  667SOL    HW2 2020   0.438   1.981   1.772
  668SOL     OW 2021   0.573   2.732   1.029
  668SOL    HW1 2022   0.617   2.821   1.020
  668SOL    HW2 2023   0.510   2.732   1.106
  669SOL     OW 2024   1.360   2.724   1.045
  669SOL    HW1 2025   1.285   2.724   0.979
  669SOL    HW2 2026   1.397   2.632   1.054
  670SOL     OW 2027   1.209   2.387   0.275
  670SOL    HW1 2028   1.222   2.303   0.329
  670SOL    HW2 2029   1.180   2.461   0.335
  671SOL     OW 2030   0.307   2.075   1.231
  671SOL    HW1 2031   0.284   2.112   1.321
  671SOL    HW2 2032   0.277   1.980   1.225
  672SOL     OW 2033   0.037   3.172   1.282
  672SOL    HW1 2034   0.090   3.123   1.350
  672SOL    HW2 2035   0.059   3.270   1.287
  673SOL     OW 2036   0.732   2.496   1.064
  673SOL    HW1 2037   0.791   2.470   0.988
  673SOL    HW2 2038   0.704   2.592   1.053
  674SOL     OW 2039   1.728   2.797   1.854
  674SOL    HW1 2040   1.682   2.790   1.765
  674SOL    HW2 2041   1.666   2.841   1.920
  675SOL     OW 2042   0.307   1.925   0.618
  675SOL    HW1 2043   0.296   2.019   0.651
  675SOL    HW2 2044   0.302   1.862   0.695
  676SOL     OW 2045   1.622   2.229   0.374
  676SOL    HW1 2046   1.624   2.153   0.438
  676SOL    HW2 2047   1.574   2.306   0.414
  677SOL     OW 2048   1.023   2.628   0.966
  677SOL    HW1 2049   1.038   2.649   1.062
  677SOL    HW2 2050   0.993   2.533   0.957
  678SOL     OW 2051   0.980   3.435   1.700
  678SOL    HW1 2052   0.960   3.479   1.612
  678SOL    HW2 2053   1.019   3.344   1.684
  679SOL     OW 2054   1.859   3.380   1.605
  679SOL    HW1 2055   1.873   3.407   1.510
  679SOL    HW2 2056   1.942   3.402   1.658
  680SOL     OW 2057   0.350   2.760   1.804
  680SOL    HW1 2058   0.426   2.804   1.852
  680SOL    HW2 2059   0.385   2.713   1.722
  681SOL     OW 2060   1.540   2.136   0.125
  681SOL    HW1 2061   1.479   2.061   0.148
  681SOL    HW2 2062   1.562   2.188   0.208
  682SOL     OW 2063   1.303   2.700   0.042
  682SOL    HW1 2064   1.337   2.607   0.057
  682SOL    HW2 2065   1.321   2.727  -0.053
  683SOL     OW 2066   1.068   3.195   0.849
  683SOL    HW1 2067   1.075   3.111   0.794
  683SOL    HW2 2068   1.130   3.264   0.813
  684SOL     OW 2069   0.319   2.672   0.949
  684SOL    HW1 2070   0.412   2.708   0.954
  684SOL    HW2 2071   0.313   2.587   1.001
  685SOL     OW 2072   0.339   2.371   1.006
  685SOL    HW1 2073   0.287   2.288   0.989
  685SOL    HW2 2074   0.416   2.376   0.942
  686SOL     OW 2075   1.138   2.242   1.678
  686SOL    HW1 2076   1.093   2.305   1.742
  686SOL    HW2 2077   1.231   2.273   1.661
  687SOL     OW 2078   1.160   2.069   1.477
  687SOL    HW1 2079   1.160   2.133   1.554
  687SOL    HW2 2080   1.188   2.117   1.394
  688SOL     OW 2081   0.008   3.188   0.200
  688SOL    HW1 2082  -0.085   3.209   0.169
  688SOL    HW2 2083   0.018   3.089   0.213
  689SOL     OW 2084   0.088   3.663   0.927
  689SOL    HW1 2085   0.046   3.577   0.900
  689SOL    HW2 2086   0.182   3.666   0.893
  690SOL     OW 2087   0.504   3.430   0.910
  690SOL    HW1 2088   0.570   3.504   0.919
  690SOL    HW2 2089   0.548   3.351   0.868
  691SOL     OW 2090   1.002   2.658   1.238
  691SOL    HW1 2091   1.043   2.626   1.324
  691SOL    HW2 2092   0.906   2.631   1.235
  692SOL     OW 2093   0.040   2.406   1.114
  692SOL    HW1 2094   0.125   2.373   1.073
  692SOL    HW2 2095   0.053   2.421   1.212
  693SOL     OW 2096   0.189   2.382   1.722
  693SOL    HW1 2097   0.248   2.342   1.652
  693SOL    HW2 2098   0.131   2.453   1.681
  694SOL     OW 2099   1.369   2.812   1.660
  694SOL    HW1 2100   1.408   2.901   1.680
  694SOL    HW2 2101   1.379   2.792   1.563
  695SOL     OW 2102   0.815   2.434   0.325
  695SOL    HW1 2103   0.822   2.345   0.279
  695SOL    HW2 2104   0.721   2.468   0.317
  696SOL     OW 2105   1.657   2.466   1.206
  696SOL    HW1 2106   1.619   2.397   1.268
  696SOL    HW2 2107   1.739   2.430   1.162
  697SOL     OW 2108   0.252   3.426   1.744
  697SOL    HW1 2109   0.222   3.483   1.820
  697SOL    HW2 2110   0.245   3.329   1.770
  698SOL     OW 2111   0.671   2.326   1.269
  698SOL    HW1 2112   0.637   2.237   1.239
  698SOL    HW2 2113   0.697   2.380   1.189
  699SOL     OW 2114   0.930   3.540   1.465
  699SOL    HW1 2115   0.906   3.522   1.370
  699SOL    HW2 2116   0.960   3.634   1.475
  700SOL     OW 2117   0.473   2.362   0.191
  700SOL    HW1 2118   0.534   2.442   0.195
  700SOL    HW2 2119   0.378   2.393   0.198
  701SOL     OW 2120   0.159   2.999   1.466
  701SOL    HW1 2121   0.181   2.938   1.542
  701SOL    HW2 2122   0.169   2.950   1.380
  702SOL     OW 2123   1.347   2.921   1.234
  702SOL    HW1 2124   1.371   2.858   1.160
  702SOL    HW2 2125   1.257   2.961   1.216
  703SOL     OW 2126   1.302   2.717   0.309
  703SOL    HW1 2127   1.216   2.686   0.351
  703SOL    HW2 2128   1.298   2.703   0.210
  704SOL     OW 2129   1.759   3.609   1.154
  704SOL    HW1 2130   1.820   3.639   1.081
  704SOL    HW2 2131   1.721   3.520   1.132
  705SOL     OW 2132   1.252   3.593   1.128
  705SOL    HW1 2133   1.336   3.598   1.074
  705SOL    HW2 2134   1.229   3.497   1.146
  706SOL     OW 2135   0.083   3.120   1.022
  706SOL    HW1 2136   0.078   3.119   1.122
  706SOL    HW2 2137   0.000   3.079   0.984
  707SOL     OW 2138   0.688   3.524   1.716
  707SOL    HW1 2139   0.632   3.605   1.725
  707SOL    HW2 2140   0.740   3.528   1.630
  708SOL     OW 2141   0.903   1.948   0.133
  708SOL    HW1 2142   0.954   1.949   0.047
  708SOL    HW2 2143   0.959   1.906   0.204
  709SOL     OW 2144   1.726   1.997   0.523
  709SOL    HW1 2145   1.799   1.980   0.456
  709SOL    HW2 2146   1.695   1.910   0.561
  710SOL     OW 2147   1.388   3.435   0.477
  710SOL    HW1 2148   1.455   3.447   0.403
  710SOL    HW2 2149   1.348   3.524   0.500
  711SOL     OW 2150   0.130   3.656   1.851
  711SOL    HW1 2151   0.089   3.582   1.904
  711SOL    HW2 2152   0.194   3.707   1.909
  712SOL     OW 2153   1.280   2.789   0.672
  712SOL    HW1 2154   1.340   2.708   0.674
  712SOL    HW2 2155   1.320   2.858   0.612
  713SOL     OW 2156   0.830   3.135   1.422
  713SOL    HW1 2157   0.825   3.168   1.517
  713SOL    HW2 2158   0.744   3.154   1.376
  714SOL     OW 2159   0.672   3.478   0.154
  714SOL    HW1 2160   0.681   3.488   0.055
  714SOL    HW2 2161   0.632   3.389   0.175
  715SOL     OW 2162   1.650   3.582   1.394
  715SOL    HW1 2163   1.703   3.592   1.310
  715SOL    HW2 2164   1.623   3.672   1.428
  716SOL     OW 2165   1.841   2.037   0.963
  716SOL    HW1 2166   1.880   1.952   0.927
  716SOL    HW2 2167   1.743   2.039   0.944
  717SOL     OW 2168   0.263   2.188   0.720
  717SOL    HW1 2169   0.184   2.239   0.686
  717SOL    HW2 2170   0.254   2.173   0.818
  718SOL     OW 2171   1.194   3.474   0.031
  718SOL    HW1 2172   1.200   3.381   0.068
  718SOL    HW2 2173   1.135   3.474  -0.049
  719SOL     OW 2174   0.822   2.864   1.372
  719SOL    HW1 2175   0.862   2.863   1.280
  719SOL    HW2 2176   0.832   2.956   1.412
  720SOL     OW 2177   0.916   2.772   0.291
  720SOL    HW1 2178   0.979   2.810   0.223
  720SOL    HW2 2179   0.956   2.689   0.330
  721SOL     OW 2180   1.504   3.469   0.044
  721SOL    HW1 2181   1.412   3.506   0.051
  721SOL    HW2 2182   1.542   3.489  -0.046
  722SOL     OW 2183   0.372   3.150   1.490
  722SOL    HW1 2184   0.359   3.243   1.456
  722SOL    HW2 2185   0.288   3.098   1.477
  723SOL     OW 2186   1.614   3.154   1.289
  723SOL    HW1 2187   1.674   3.157   1.369
  723SOL    HW2 2188   1.539   3.218   1.302
  724SOL     OW 2189   1.039   2.960   0.696
  724SOL    HW1 2190   0.969   2.913   0.750
  724SOL    HW2 2191   1.098   2.892   0.653
  725SOL     OW 2192   1.014   2.098   0.971
  725SOL    HW1 2193   1.006   2.062   0.878
  725SOL    HW2 2194   1.012   2.022   1.036
  726SOL     OW 2195   0.590   3.349   0.491
  726SOL    HW1 2196   0.632   3.291   0.421
  726SOL    HW2 2197   0.546   3.428   0.447
  727SOL     OW 2198   1.709   2.247   1.381
  727SOL    HW1 2199   1.782   2.316   1.385
  727SOL    HW2 2200   1.737   2.172   1.322
  728SOL     OW 2201   0.255   3.210   0.290
  728SOL    HW1 2202   0.159   3.211   0.263
  728SOL    HW2 2203   0.267   3.263   0.374
  729SOL     OW 2204   0.105   2.875   1.726
  729SOL    HW1 2205   0.028   2.842   1.780
  729SOL    HW2 2206   0.190   2.845   1.768
  730SOL     OW 2207   0.672   2.065   1.489
  730SOL    HW1 2208   0.762   2.049   1.449
  730SOL    HW2 2209   0.680   2.070   1.588
  731SOL     OW 2210   0.075   2.207   0.033
  731SOL    HW1 2211  -0.017   2.179   0.004
  731SOL    HW2 2212   0.106   2.284  -0.023
  732SOL     OW 2213   1.440   2.718   1.398
  732SOL    HW1 2214   1.383   2.770   1.335
  732SOL    HW2 2215   1.536   2.730   1.374
  733SOL     OW 2216   0.072   2.028   0.318
  733SOL    HW1 2217   0.055   2.111   0.264
  733SOL    HW2 2218   0.162   1.991   0.296
  734SOL     OW 2219   1.183   3.197   0.119
  734SOL    HW1 2220   1.084   3.186   0.121
  734SOL    HW2 2221   1.217   3.212   0.212
  735SOL     OW 2222   0.613   2.704   1.431
  735SOL    HW1 2223   0.669   2.785   1.414
  735SOL    HW2 2224   0.672   2.624   1.434
  736SOL     OW 2225   1.493   3.629   0.959
  736SOL    HW1 2226   1.526   3.693   0.890
  736SOL    HW2 2227   1.559   3.623   1.034
  737SOL     OW 2228   0.716   2.427   1.708
  737SOL    HW1 2229   0.735   2.492   1.782
  737SOL    HW2 2230   0.776   2.347   1.717
  738SOL     OW 2231   1.450   3.082   1.633
  738SOL    HW1 2232   1.441   3.072   1.732
  738SOL    HW2 2233   1.546   3.075   1.607
  739SOL     OW 2234   0.390   3.603   1.560
  739SOL    HW1 2235   0.299   3.644   1.558
  739SOL    HW2 2236   0.383   3.509   1.592
  740SOL     OW 2237   1.674   2.745   1.254
  740SOL    HW1 2238   1.647   2.656   1.217
  740SOL    HW2 2239   1.675   2.813   1.181
  741SOL     OW 2240   1.225   2.187   0.449
  741SOL    HW1 2241   1.290   2.113   0.438
  741SOL    HW2 2242   1.245   2.237   0.533
  742SOL     OW 2243   0.594   2.607   0.652
  742SOL    HW1 2244   0.644   2.692   0.633
  742SOL    HW2 2245   0.506   2.609   0.604
  743SOL     OW 2246   1.777   2.204   1.642
  743SOL    HW1 2247   1.760   2.235   1.548
  743SOL    HW2 2248   1.693   2.167   1.680
  744SOL     OW 2249   1.730   2.796   1.517
  744SOL    HW1 2250   1.768   2.887   1.532
  744SOL    HW2 2251   1.722   2.779   1.418
  745SOL     OW 2252   0.859   3.236   0.016
  745SOL    HW1 2253   0.813   3.251   0.104
  745SOL    HW2 2254   0.903   3.321  -0.014
  746SOL     OW 2255   0.661   3.652   0.953
  746SOL    HW1 2256   0.615   3.740   0.940
  746SOL    HW2 2257   0.760   3.664   0.946
  747SOL     OW 2258   0.859   2.818   0.861
  747SOL    HW1 2259   0.913   2.749   0.909
  747SOL    HW2 2260   0.827   2.887   0.927
  748SOL     OW 2261   1.083   2.846   0.087
  748SOL    HW1 2262   1.060   2.899   0.005
  748SOL    HW2 2263   1.164   2.790   0.068
  749SOL     OW 2264   1.861   3.431   0.851
  749SOL    HW1 2265   1.790   3.419   0.781
  749SOL    HW2 2266   1.862   3.352   0.911
  750SOL     OW 2267   0.221   3.176   1.844
  750SOL    HW1 2268   0.156   3.103   1.823
  750SOL    HW2 2269   0.225   3.190   1.942
  751SOL     OW 2270   0.079   3.102   0.653
  751SOL    HW1 2271   0.078   3.055   0.741
  751SOL    HW2 2272   0.161   3.074   0.602
  752SOL     OW 2273   0.672   3.253   1.624
  752SOL    HW1 2274   0.594   3.203   1.662
  752SOL    HW2 2275   0.669   3.348   1.655
  753SOL     OW 2276   1.824   2.054   1.227
  753SOL    HW1 2277   1.820   1.964   1.271
  753SOL    HW2 2278   1.827   2.043   1.128
  754SOL     OW 2279   0.428   2.286   0.520
  754SOL    HW1 2280   0.458   2.214   0.458
  754SOL    HW2 2281   0.389   2.246   0.603
  755SOL     OW 2282   1.705   3.349   1.104
  755SOL    HW1 2283   1.612   3.324   1.077
  755SOL    HW2 2284   1.731   3.299   1.186
  756SOL     OW 2285   0.317   2.409   1.280
  756SOL    HW1 2286   0.355   2.350   1.352
  756SOL    HW2 2287   0.357   2.383   1.192
  757SOL     OW 2288   0.812   3.448   0.687
  757SOL    HW1 2289   0.844   3.458   0.593
  757SOL    HW2 2290   0.733   3.386   0.689
  758SOL     OW 2291   1.424   2.076   1.112
  758SOL    HW1 2292   1.476   2.011   1.167
  758SOL    HW2 2293   1.375   2.139   1.173
  759SOL     OW 2294   1.001   1.896   1.154
  759SOL    HW1 2295   0.938   1.824   1.123
  759SOL    HW2 2296   1.094   1.860   1.154
  760SOL     OW 2297   0.770   3.192   0.301
  760SOL    HW1 2298   0.724   3.105   0.318
  760SOL    HW2 2299   0.861   3.189   0.342
  761SOL     OW 2300   0.618   3.429   1.284
  761SOL    HW1 2301   0.613   3.511   1.341
  761SOL    HW2 2302   0.707   3.426   1.239
  762SOL     OW 2303   1.352   1.914   0.168
  762SOL    HW1 2304   1.387   1.873   0.084
  762SOL    HW2 2305   1.262   1.876   0.188
  763SOL     OW 2306   1.300   2.315   0.691
  763SOL    HW1 2307   1.241   2.395   0.695
  763SOL    HW2 2308   1.315   2.280   0.784
  764SOL     OW 2309   1.593   2.083   0.882
  764SOL    HW1 2310   1.509   2.082   0.936
  764SOL    HW2 2311   1.595   2.166   0.826
  765SOL     OW 2312   0.039   2.939   0.300
  765SOL    HW1 2313   0.138   2.928   0.291
  765SOL    HW2 2314  -0.001   2.853   0.332
  766SOL     OW 2315   0.875   3.508   0.337
  766SOL    HW1 2316   0.798   3.473   0.283
  766SOL    HW2 2317   0.843   3.579   0.399
  767SOL     OW 2318   0.230   2.490   1.975
  767SOL    HW1 2319   0.137   2.488   2.012
  767SOL    HW2 2320   0.231   2.451   1.883
  768SOL     OW 2321   0.225   2.137   2.858
  768SOL    HW1 2322   0.260   2.120   2.950
  768SOL    HW2 2323   0.137   2.092   2.846
  769SOL     OW 2324   0.019   2.230   2.509
  769SOL    HW1 2325  -0.063   2.273   2.548
  769SOL    HW2 2326  -0.009   2.157   2.446
  770SOL     OW 2327   0.569   3.137   3.027
  770SOL    HW1 2328   0.476   3.130   2.990
  770SOL    HW2 2329   0.580   3.226   3.071
  771SOL     OW 2330   1.555   3.373   2.565
  771SOL    HW1 2331   1.498   3.357   2.646
  771SOL    HW2 2332   1.496   3.383   2.485
  772SOL     OW 2333   1.135   2.565   2.579
  772SOL    HW1 2334   1.192   2.643   2.554
  772SOL    HW2 2335   1.075   2.591   2.655
  773SOL     OW 2336   1.755   2.469   2.093
  773SOL    HW1 2337   1.743   2.456   1.994
  773SOL    HW2 2338   1.725   2.388   2.142
  774SOL     OW 2339   0.768   3.006   2.885
  774SOL    HW1 2340   0.690   3.023   2.945
  774SOL    HW2 2341   0.802   3.093   2.849
  775SOL     OW 2342   0.850   2.660   3.685
  775SOL    HW1 2343   0.846   2.736   3.750
  775SOL    HW2 2344   0.872   2.696   3.594
  776SOL     OW 2345   0.685   2.874   2.527
  776SOL    HW1 2346   0.754   2.858   2.597
  776SOL    HW2 2347   0.612   2.931   2.565
  777SOL     OW 2348   0.686   3.023   3.665
  777SOL    HW1 2349   0.746   3.102   3.679
  777SOL    HW2 2350   0.600   3.054   3.624
  778SOL     OW 2351   0.335   3.297   2.923
  778SOL    HW1 2352   0.257   3.266   2.870
  778SOL    HW2 2353   0.393   3.355   2.866
  779SOL     OW 2354   1.460   3.367   3.201
  779SOL    HW1 2355   1.484   3.461   3.227
  779SOL    HW2 2356   1.444   3.313   3.283
  780SOL     OW 2357   0.438   2.254   3.361
  780SOL    HW1 2358   0.520   2.198   3.370
  780SOL    HW2 2359   0.357   2.196   3.365
  781SOL     OW 2360   1.603   2.309   2.599
  781SOL    HW1 2361   1.529   2.355   2.549
  781SOL    HW2 2362   1.654   2.377   2.652
  782SOL     OW 2363   0.231   3.575   2.345
  782SOL    HW1 2364   0.265   3.652   2.399
  782SOL    HW2 2365   0.275   3.575   2.255
  783SOL     OW 2366   1.127   3.203   3.552
  783SOL    HW1 2367   1.174   3.203   3.640
  783SOL    HW2 2368   1.079   3.116   3.541
  784SOL     OW 2369   0.230   3.296   2.400
  784SOL    HW1 2370   0.204   3.392   2.400
  784SOL    HW2 2371   0.159   3.242   2.445
  785SOL     OW 2372   0.240   2.953   2.748
  785SOL    HW1 2373   0.254   2.869   2.800
  785SOL    HW2 2374   0.185   3.017   2.803
  786SOL     OW 2375   0.620   3.648   3.301
  786SOL    HW1 2376   0.528   3.631   3.336
  786SOL    HW2 2377   0.648   3.740   3.327
  787SOL     OW 2378   0.606   2.826   1.985
  787SOL    HW1 2379   0.613   2.910   1.931
  787SOL    HW2 2380   0.652   2.839   2.073
  788SOL     OW 2381   1.594   1.976   3.342
  788SOL    HW1 2382   1.576   2.043   3.270
  788SOL    HW2 2383   1.591   2.022   3.431
  789SOL     OW 2384   0.122   2.505   2.425
  789SOL    HW1 2385   0.077   2.417   2.442
  789SOL    HW2 2386   0.121   2.559   2.509
  790SOL     OW 2387   1.842   3.629   2.221
  790SOL    HW1 2388   1.896   3.600   2.301
  790SOL    HW2 2389   1.872   3.719   2.192
  791SOL     OW 2390   0.027   3.458   1.979
  791SOL    HW1 2391   0.008   3.362   2.000
  791SOL    HW2 2392  -0.006   3.516   2.054
  792SOL     OW 2393   1.689   2.784   2.474
  792SOL    HW1 2394   1.784   2.755   2.482
  792SOL    HW2 2395   1.681   2.849   2.399
  793SOL     OW 2396   1.641   2.970   2.294
  793SOL    HW1 2397   1.727   2.972   2.242
  793SOL    HW2 2398   1.655   3.017   2.382
  794SOL     OW 2399   0.113   2.599   3.459
  794SOL    HW1 2400   0.201   2.586   3.504
  794SOL    HW2 2401   0.100   2.696   3.437
  795SOL     OW 2402   0.613   3.227   2.588
  795SOL    HW1 2403   0.564   3.140   2.597
  795SOL    HW2 2404   0.590   3.270   2.501
  796SOL     OW 2405   1.293   3.090   3.285
  796SOL    HW1 2406   1.330   3.017   3.227
  796SOL    HW2 2407   1.345   3.095   3.370
  797SOL     OW 2408   0.809   1.866   2.364
  797SOL    HW1 2409   0.849   1.957   2.355
  797SOL    HW2 2410   0.709   1.874   2.370
  798SOL     OW 2411   0.197   2.838   3.126
  798SOL    HW1 2412   0.286   2.793   3.112
  798SOL    HW2 2413   0.124   2.773   3.107
  799SOL     OW 2414   1.525   2.861   2.052
  799SOL    HW1 2415   1.462   2.785   2.065
  799SOL    HW2 2416   1.573   2.879   2.138
  800SOL     OW 2417   1.187   3.654   3.478
  800SOL    HW1 2418   1.211   3.714   3.402
  800SOL    HW2 2419   1.194   3.559   3.448
  801SOL     OW 2420   0.317   2.113   3.663
  801SOL    HW1 2421   0.388   2.184   3.669
  801SOL    HW2 2422   0.229   2.152   3.691
  802SOL     OW 2423   1.466   3.279   2.815
  802SOL    HW1 2424   1.407   3.285   2.895
  802SOL    HW2 2425   1.451   3.191   2.769
  803SOL     OW 2426   1.667   3.576   2.434
  803SOL    HW1 2427   1.626   3.553   2.346
  803SOL    HW2 2428   1.649   3.502   2.499
  804SOL     OW 2429   0.598   2.591   2.132
  804SOL    HW1 2430   0.622   2.660   2.064
  804SOL    HW2 2431   0.520   2.624   2.186
  805SOL     OW 2432   1.281   2.207   2.806
  805SOL    HW1 2433   1.195   2.157   2.793
  805SOL    HW2 2434   1.343   2.153   2.862
  806SOL     OW 2435   1.576   3.524   2.169
  806SOL    HW1 2436   1.665   3.570   2.172
  806SOL    HW2 2437   1.555   3.500   2.074
  807SOL     OW 2438   0.807   2.467   3.327
  807SOL    HW1 2439   0.760   2.464   3.416
  807SOL    HW2 2440   0.756   2.412   3.261
  808SOL     OW 2441   1.394   2.331   3.536
  808SOL    HW1 2442   1.374   2.374   3.624
  808SOL    HW2 2443   1.472   2.269   3.545
  809SOL     OW 2444   0.973   2.752   3.434
  809SOL    HW1 2445   1.019   2.668   3.405
  809SOL    HW2 2446   0.917   2.786   3.359
  810SOL     OW 2447   0.991   2.272   3.104
  810SOL    HW1 2448   0.914   2.306   3.158
  810SOL    HW2 2449   0.957   2.221   3.025
  811SOL     OW 2450   1.041   2.563   2.291
  811SOL    HW1 2451   1.067   2.559   2.387
  811SOL    HW2 2452   0.956   2.512   2.277
  812SOL     OW 2453   0.076   2.673   2.651
  812SOL    HW1 2454   0.175   2.661   2.660
  812SOL    HW2 2455   0.052   2.768   2.672
  813SOL     OW 2456   0.130   3.683   3.433
  813SOL    HW1 2457   0.120   3.668   3.532
  813SOL    HW2 2458   0.044   3.719   3.397
  814SOL     OW 2459   0.865   2.210   2.057
  814SOL    HW1 2460   0.924   2.273   2.008
  814SOL    HW2 2461   0.884   2.116   2.028
  815SOL     OW 2462   1.719   2.447   3.693
  815SOL    HW1 2463   1.693   2.536   3.657
  815SOL    HW2 2464   1.717   2.379   3.620
  816SOL     OW 2465   1.362   3.006   2.407
  816SOL    HW1 2466   1.445   2.977   2.359
  816SOL    HW2 2467   1.313   3.073   2.351
  817SOL     OW 2468   0.550   2.058   2.747
  817SOL    HW1 2469   0.545   2.053   2.847
  817SOL    HW2 2470   0.552   2.154   2.718
  818SOL     OW 2471   1.008   3.318   2.339
  818SOL    HW1 2472   0.962   3.390   2.287
  818SOL    HW2 2473   1.004   3.338   2.437
  819SOL     OW 2474   0.351   3.663   2.715
  819SOL    HW1 2475   0.401   3.577   2.721
  819SOL    HW2 2476   0.416   3.740   2.712
  820SOL     OW 2477   1.795   2.928   2.735
  820SOL    HW1 2478   1.733   2.913   2.659
  820SOL    HW2 2479   1.743   2.939   2.820
  821SOL     OW 2480   1.227   3.412   3.368
  821SOL    HW1 2481   1.233   3.335   3.432
  821SOL    HW2 2482   1.175   3.386   3.288
  822SOL     OW 2483   0.321   2.805   2.104
  822SOL    HW1 2484   0.403   2.844   2.062
  822SOL    HW2 2485   0.294   2.723   2.055
  823SOL     OW 2486   1.458   2.597   2.590
  823SOL    HW1 2487   1.453   2.532   2.665
  823SOL    HW2 2488   1.538   2.656   2.603
  824SOL     OW 2489   0.461   3.128   3.589
  824SOL    HW1 2490   0.411   3.129   3.503
  824SOL    HW2 2491   0.398   3.110   3.665
  825SOL     OW 2492   1.111   3.638   2.099
  825SOL    HW1 2493   1.051   3.576   2.149
  825SOL    HW2 2494   1.142   3.594   2.014
  826SOL     OW 2495   0.202   2.147   3.360
  826SOL    HW1 2496   0.122   2.207   3.347
  826SOL    HW2 2497   0.192   2.098   3.446
  827SOL     OW 2498   1.632   3.239   1.943
  827SOL    HW1 2499   1.600   3.333   1.933
  827SOL    HW2 2500   1.556   3.176   1.931
  828SOL     OW 2501   0.464   3.605   2.185
  828SOL    HW1 2502   0.497   3.644   2.271
  828SOL    HW2 2503   0.540   3.598   2.120
  829SOL     OW 2504   1.400   1.969   2.288
  829SOL    HW1 2505   1.376   1.932   2.198
  829SOL    HW2 2506   1.499   1.985   2.292
  830SOL     OW 2507   0.249   3.647   3.103
  830SOL    HW1 2508   0.306   3.582   3.153
  830SOL    HW2 2509   0.233   3.614   3.010
  831SOL     OW 2510   0.940   3.560   2.766
  831SOL    HW1 2511   1.020   3.503   2.787
  831SOL    HW2 2512   0.891   3.520   2.689
  832SOL     OW 2513   0.382   2.562   2.342
  832SOL    HW1 2514   0.427   2.472   2.339
  832SOL    HW2 2515   0.288   2.551   2.375
  833SOL     OW 2516   1.547   2.084   3.591
  833SOL    HW1 2517   1.542   2.121   3.683
  833SOL    HW2 2518   1.475   2.015   3.579
  834SOL     OW 2519   0.614   1.984   1.979
  834SOL    HW1 2520   0.712   1.962   1.986
  834SOL    HW2 2521   0.583   1.967   1.886
  835SOL     OW 2522   0.781   2.126   3.611
  835SOL    HW1 2523   0.848   2.065   3.654
  835SOL    HW2 2524   0.708   2.145   3.676
  836SOL     OW 2525   0.888   3.376   3.057
  836SOL    HW1 2526   0.865   3.351   2.963
  836SOL    HW2 2527   0.949   3.307   3.096
  837SOL     OW 2528   1.351   2.452   3.295
  837SOL    HW1 2529   1.379   2.409   3.380
  837SOL    HW2 2530   1.376   2.548   3.296
  838SOL     OW 2531   0.803   3.264   2.786
  838SOL    HW1 2532   0.893   3.278   2.744
  838SOL    HW2 2533   0.732   3.266   2.715
  839SOL     OW 2534   0.922   2.365   2.761
  839SOL    HW1 2535   0.897   2.356   2.665
  839SOL    HW2 2536   0.970   2.283   2.792
  840SOL     OW 2537   0.539   1.926   2.374
  840SOL    HW1 2538   0.458   1.927   2.432
  840SOL    HW2 2539   0.542   2.009   2.319
  841SOL     OW 2540   1.434   3.050   1.903
  841SOL    HW1 2541   1.466   2.974   1.960
  841SOL    HW2 2542   1.342   3.077   1.933
  842SOL     OW 2543   0.297   1.897   2.033
  842SOL    HW1 2544   0.346   1.981   2.012
  842SOL    HW2 2545   0.359   1.832   2.078
  843SOL     OW 2546   0.935   2.098   2.342
  843SOL    HW1 2547   0.887   2.139   2.264
  843SOL    HW2 2548   1.034   2.096   2.323
  844SOL     OW 2549   1.076   2.545   3.326
  844SOL    HW1 2550   0.996   2.484   3.329
  844SOL    HW2 2551   1.157   2.492   3.302
  845SOL     OW 2552   1.227   3.432   2.655
  845SOL    HW1 2553   1.248   3.506   2.590
  845SOL    HW2 2554   1.295   3.432   2.728
  846SOL     OW 2555   0.459   3.014   2.603
  846SOL    HW1 2556   0.388   2.987   2.668
  846SOL    HW2 2557   0.433   2.986   2.510
  847SOL     OW 2558   1.271   3.659   2.453
  847SOL    HW1 2559   1.315   3.723   2.389
  847SOL    HW2 2560   1.221   3.711   2.523
  848SOL     OW 2561   1.032   2.411   1.878
  848SOL    HW1 2562   0.991   2.493   1.839
  848SOL    HW2 2563   1.096   2.437   1.951
  849SOL     OW 2564   0.078   2.418   3.248
  849SOL    HW1 2565   0.170   2.417   3.207
  849SOL    HW2 2566   0.072   2.492   3.315
  850SOL     OW 2567   0.561   2.084   3.009
  850SOL    HW1 2568   0.599   2.000   3.046
  850SOL    HW2 2569   0.473   2.103   3.053
  851SOL     OW 2570   0.866   2.316   2.504
  851SOL    HW1 2571   0.834   2.388   2.442
  851SOL    HW2 2572   0.890   2.235   2.451
  852SOL     OW 2573   1.017   1.901   2.615
  852SOL    HW1 2574   0.945   1.906   2.546
  852SOL    HW2 2575   0.993   1.832   2.684
  853SOL     OW 2576   1.429   3.035   2.729
  853SOL    HW1 2577   1.374   2.951   2.722
  853SOL    HW2 2578   1.455   3.064   2.637
  854SOL     OW 2579   1.466   2.452   2.854
  854SOL    HW1 2580   1.436   2.357   2.861
  854SOL    HW2 2581   1.539   2.468   2.920
  855SOL     OW 2582   1.857   2.695   2.239
  855SOL    HW1 2583   1.899   2.631   2.303
  855SOL    HW2 2584   1.819   2.644   2.161
  856SOL     OW 2585   0.488   3.247   2.036
  856SOL    HW1 2586   0.401   3.232   2.083
  856SOL    HW2 2587   0.471   3.273   1.941
  857SOL     OW 2588   1.664   3.142   2.519
  857SOL    HW1 2589   1.763   3.150   2.533
  857SOL    HW2 2590   1.619   3.226   2.550
  858SOL     OW 2591   1.390   2.437   1.940
  858SOL    HW1 2592   1.336   2.416   2.021
  858SOL    HW2 2593   1.481   2.396   1.949
  859SOL     OW 2594   0.527   2.118   2.190
  859SOL    HW1 2595   0.554   2.059   2.115
  859SOL    HW2 2596   0.527   2.213   2.159
  860SOL     OW 2597   1.754   3.085   3.450
  860SOL    HW1 2598   1.845   3.046   3.437
  860SOL    HW2 2599   1.762   3.181   3.474
  861SOL     OW 2600   1.064   3.209   3.202
  861SOL    HW1 2601   0.984   3.186   3.257
  861SOL    HW2 2602   1.147   3.183   3.251
  862SOL     OW 2603   1.592   3.491   3.487
  862SOL    HW1 2604   1.619   3.525   3.397
  862SOL    HW2 2605   1.671   3.453   3.533
  863SOL     OW 2606   1.111   3.057   2.962
  863SOL    HW1 2607   1.071   3.101   3.043
  863SOL    HW2 2608   1.070   3.094   2.879
  864SOL     OW 2609   1.638   2.961   2.941
  864SOL    HW1 2610   1.643   3.042   3.000
  864SOL    HW2 2611   1.552   2.963   2.890
  865SOL     OW 2612   0.915   1.951   3.264
  865SOL    HW1 2613   0.940   1.931   3.169
  865SOL    HW2 2614   0.987   2.007   3.306
  866SOL     OW 2615   0.980   2.978   3.581
  866SOL    HW1 2616   0.881   2.984   3.591
  866SOL    HW2 2617   1.003   2.898   3.525
  867SOL     OW 2618   0.705   2.912   2.230
  867SOL    HW1 2619   0.691   2.919   2.329
  867SOL    HW2 2620   0.789   2.861   2.212
  868SOL     OW 2621   0.410   2.675   3.113
  868SOL    HW1 2622   0.496   2.687   3.163
  868SOL    HW2 2623   0.368   2.588   3.140
  869SOL     OW 2624   1.274   2.248   3.124
  869SOL    HW1 2625   1.295   2.322   3.188
  869SOL    HW2 2626   1.185   2.265   3.081
  870SOL     OW 2627   0.064   3.426   3.193
  870SOL    HW1 2628   0.018   3.508   3.159
  870SOL    HW2 2629   0.162   3.445   3.202
  871SOL     OW 2630   0.367   2.962   2.363
  871SOL    HW1 2631   0.360   3.045   2.307
  871SOL    HW2 2632   0.371   2.882   2.303
  872SOL     OW 2633   0.566   2.399   2.727
  872SOL    HW1 2634   0.578   2.465   2.653
  872SOL    HW2 2635   0.612   2.433   2.810
  873SOL     OW 2636   1.252   3.210   2.250
  873SOL    HW1 2637   1.302   3.287   2.290
  873SOL    HW2 2638   1.157   3.212   2.282
  874SOL     OW 2639   1.272   3.307   3.004
  874SOL    HW1 2640   1.319   3.320   3.091
  874SOL    HW2 2641   1.206   3.233   3.013
  875SOL     OW 2642   1.582   2.501   2.334
  875SOL    HW1 2643   1.551   2.562   2.407
  875SOL    HW2 2644   1.632   2.553   2.265
  876SOL     OW 2645   0.354   3.372   3.191
  876SOL    HW1 2646   0.333   3.328   3.104
  876SOL    HW2 2647   0.451   3.398   3.194
  877SOL     OW 2648   0.402   2.613   3.460
  877SOL    HW1 2649   0.470   2.668   3.413
  877SOL    HW2 2650   0.442   2.525   3.487
  878SOL     OW 2651   1.587   2.641   3.532
  878SOL    HW1 2652   1.495   2.679   3.527
  878SOL    HW2 2653   1.647   2.688   3.467
  879SOL     OW 2654   1.013   1.967   3.632
  879SOL    HW1 2655   1.019   2.052   3.580
  879SOL    HW2 2656   1.045   1.891   3.575
  880SOL     OW 2657   0.504   1.912   3.602
  880SOL    HW1 2658   0.462   1.855   3.532
  880SOL    HW2 2659   0.438   1.981   3.634
  881SOL     OW 2660   0.573   2.732   2.891
  881SOL    HW1 2661   0.617   2.821   2.882
  881SOL    HW2 2662   0.510   2.732   2.968
  882SOL     OW 2663   1.360   2.724   2.907
  882SOL    HW1 2664   1.285   2.724   2.841
  882SOL    HW2 2665   1.397   2.632   2.916
  883SOL     OW 2666   1.209   2.387   2.137
  883SOL    HW1 2667   1.222   2.303   2.191
  883SOL    HW2 2668   1.180   2.461   2.197
  884SOL     OW 2669   0.307   2.075   3.093
  884SOL    HW1 2670   0.284   2.112   3.183
  884SOL    HW2 2671   0.277   1.980   3.087
  885SOL     OW 2672   0.037   3.172   3.144
  885SOL    HW1 2673   0.090   3.123   3.212
  885SOL    HW2 2674   0.059   3.270   3.149
  886SOL     OW 2675   0.732   2.496   2.926
  886SOL    HW1 2676   0.791   2.470   2.850
  886SOL    HW2 2677   0.704   2.592   2.915
  887SOL     OW 2678   1.728   2.797   3.716
  887SOL    HW1 2679   1.682   2.790   3.627
  887SOL    HW2 2680   1.666   2.841   3.782
  888SOL     OW 2681   0.307   1.925   2.480
  888SOL    HW1 2682   0.296   2.019   2.513
  888SOL    HW2 2683   0.302   1.862   2.557
  889SOL     OW 2684   1.622   2.229   2.236
  889SOL    HW1 2685   1.624   2.153   2.300
  889SOL    HW2 2686   1.574   2.306   2.276
  890SOL     OW 2687   1.023   2.628   2.828
  890SOL    HW1 2688   1.038   2.649   2.924
  890SOL    HW2 2689   0.993   2.533   2.819
  891SOL     OW 2690   0.980   3.435   3.562
  891SOL    HW1 2691   0.960   3.479   3.474
  891SOL    HW2 2692   1.019   3.344   3.546
  892SOL     OW 2693   1.859   3.380   3.467
  892SOL    HW1 2694   1.873   3.407   3.372
  892SOL    HW2 2695   1.942   3.402   3.520
  893SOL     OW 2696   0.350   2.760   3.666
  893SOL    HW1 2697   0.426   2.804   3.714
  893SOL    HW2 2698   0.385   2.713   3.584
  894SOL     OW 2699   1.540   2.136   1.987
  894SOL    HW1 2700   1.479   2.061   2.010
  894SOL    HW2 2701   1.562   2.188   2.070
  895SOL     OW 2702   1.303   2.700   1.904
  895SOL    HW1 2703   1.337   2.607   1.919
  895SOL    HW2 2704   1.321   2.727   1.809
  896SOL     OW 2705   1.068   3.195   2.711
  896SOL    HW1 2706   1.075   3.111   2.656
  896SOL    HW2 2707   1.130   3.264   2.675
  897SOL     OW 2708   0.319   2.672   2.811
  897SOL    HW1 2709   0.412   2.708   2.816
  897SOL    HW2 2710   0.313   2.587   2.863
  898SOL     OW 2711   0.339   2.371   2.868
  898SOL    HW1 2712   0.287   2.288   2.851
  898SOL    HW2 2713   0.416   2.376   2.804
  899SOL     OW 2714   1.138   2.242   3.540
  899SOL    HW1 2715   1.093   2.305   3.604
  899SOL    HW2 2716   1.231   2.273   3.523
  900SOL     OW 2717   1.160   2.069   3.339
  900SOL    HW1 2718   1.160   2.133   3.416
  900SOL    HW2 2719   1.188   2.117   3.256
  901SOL     OW 2720   0.008   3.188   2.062
  901SOL    HW1 2721  -0.085   3.209   2.031
  901SOL    HW2 2722   0.018   3.089   2.075
  902SOL     OW 2723   0.088   3.663   2.789
  902SOL    HW1 2724   0.046   3.577   2.762
  902SOL    HW2 2725   0.182   3.666   2.755
  903SOL     OW 2726   0.504   3.430   2.772
  903SOL    HW1 2727   0.570   3.504   2.781
  903SOL    HW2 2728   0.548   3.351   2.730
  904SOL     OW 2729   1.002   2.658   3.100
  904SOL    HW1 2730   1.043   2.626   3.186
  904SOL    HW2 2731   0.906   2.631   3.097
  905SOL     OW 2732   0.040   2.406   2.976
  905SOL    HW1 2733   0.125   2.373   2.935
  905SOL    HW2 2734   0.053   2.421   3.074
  906SOL     OW 2735   0.189   2.382   3.584
  906SOL    HW1 2736   0.248   2.342   3.514
  906SOL    HW2 2737   0.131   2.453   3.543
  907SOL     OW 2738   1.369   2.812   3.522
  907SOL    HW1 2739   1.408   2.901   3.542
  907SOL    HW2 2740   1.379   2.792   3.425
  908SOL     OW 2741   0.815   2.434   2.187
  908SOL    HW1 2742   0.822   2.345   2.141
  908SOL    HW2 2743   0.721   2.468   2.179
  909SOL     OW 2744   1.657   2.466   3.068
  909SOL    HW1 2745   1.619   2.397   3.130
  909SOL    HW2 2746   1.739   2.430   3.024
  910SOL     OW 2747   0.252   3.426   3.606
  910SOL    HW1 2748   0.222   3.483   3.682
  910SOL    HW2 2749   0.245   3.329   3.632
  911SOL     OW 2750   0.671   2.326   3.131
  911SOL    HW1 2751   0.637   2.237   3.101
  911SOL    HW2 2752   0.697   2.380   3.051
  912SOL     OW 2753   0.930   3.540   3.327
  912SOL    HW1 2754   0.906   3.522   3.232
  912SOL    HW2 2755   0.960   3.634   3.337
  913SOL     OW 2756   0.473   2.362   2.053
  913SOL    HW1 2757   0.534   2.442   2.057
  913SOL    HW2 2758   0.378   2.393   2.060
  914SOL     OW 2759   0.159   2.999   3.328
  914SOL    HW1 2760   0.181   2.938   3.404
  914SOL    HW2 2761   0.169   2.950   3.242
  915SOL     OW 2762   1.347   2.921   3.096
  915SOL    HW1 2763   1.371   2.858   3.022
  915SOL    HW2 2764   1.257   2.961   3.078
  916SOL     OW 2765   1.302   2.717   2.171
  916SOL    HW1 2766   1.216   2.686   2.213
  916SOL    HW2 2767   1.298   2.703   2.072
  917SOL     OW 2768   1.759   3.609   3.016
  917SOL    HW1 2769   1.820   3.639   2.943
  917SOL    HW2 2770   1.721   3.520   2.994
  918SOL     OW 2771   1.252   3.593   2.990
  918SOL    HW1 2772   1.336   3.598   2.936
  918SOL    HW2 2773   1.229   3.497   3.008
  919SOL     OW 2774   0.083   3.120   2.884
  919SOL    HW1 2775   0.078   3.119   2.984
  919SOL    HW2 2776   0.000   3.079   2.846
  920SOL     OW 2777   0.688   3.524   3.578
  920SOL    HW1 2778   0.632   3.605   3.587
  920SOL    HW2 2779   0.740   3.528   3.492
  921SOL     OW 2780   1.726   1.997   2.385
  921SOL    HW1 2781   1.799   1.980   2.318
  921SOL    HW2 2782   1.695   1.910   2.423
  922SOL     OW 2783   1.388   3.435   2.339
  922SOL    HW1 2784   1.455   3.447   2.265
  922SOL    HW2 2785   1.348   3.524   2.362
  923SOL     OW 2786   0.130   3.656   3.713
  923SOL    HW1 2787   0.089   3.582   3.766
  923SOL    HW2 2788   0.194   3.707   3.771
  924SOL     OW 2789   1.280   2.789   2.534
  924SOL    HW1 2790   1.340   2.708   2.536
  924SOL    HW2 2791   1.320   2.858   2.474
  925SOL     OW 2792   0.830   3.135   3.284
  925SOL    HW1 2793   0.825   3.168   3.379
  925SOL    HW2 2794   0.744   3.154   3.238
  926SOL     OW 2795   0.672   3.478   2.016
  926SOL    HW1 2796   0.681   3.488   1.917
  926SOL    HW2 2797   0.632   3.389   2.037
  927SOL     OW 2798   1.650   3.582   3.256
  927SOL    HW1 2799   1.703   3.592   3.172
  927SOL    HW2 2800   1.623   3.672   3.290
  928SOL     OW 2801   1.841   2.037   2.825
  928SOL    HW1 2802   1.880   1.952   2.789
  928SOL    HW2 2803   1.743   2.039   2.806
  929SOL     OW 2804   0.263   2.188   2.582
  929SOL    HW1 2805   0.184   2.239   2.548
  929SOL    HW2 2806   0.254   2.173   2.680
  930SOL     OW 2807   1.194   3.474   1.893
  930SOL    HW1 2808   1.200   3.381   1.930
  930SOL    HW2 2809   1.135   3.474   1.813
  931SOL     OW 2810   0.822   2.864   3.234
  931SOL    HW1 2811   0.862   2.863   3.142
  931SOL    HW2 2812   0.832   2.956   3.274
  932SOL     OW 2813   0.916   2.772   2.153
  932SOL    HW1 2814   0.979   2.810   2.085
  932SOL    HW2 2815   0.956   2.689   2.192
  933SOL     OW 2816   1.504   3.469   1.906
  933SOL    HW1 2817   1.412   3.506   1.913
  933SOL    HW2 2818   1.542   3.489   1.816
  934SOL     OW 2819   0.372   3.150   3.352
  934SOL    HW1 2820   0.359   3.243   3.318
  934SOL    HW2 2821   0.288   3.098   3.339
  935SOL     OW 2822   1.614   3.154   3.151
  935SOL    HW1 2823   1.674   3.157   3.231
  935SOL    HW2 2824   1.539   3.218   3.164
  936SOL     OW 2825   1.039   2.960   2.558
  936SOL    HW1 2826   0.969   2.913   2.612
  936SOL    HW2 2827   1.098   2.892   2.515
  937SOL     OW 2828   1.014   2.098   2.833
  937SOL    HW1 2829   1.006   2.062   2.740
  937SOL    HW2 2830   1.012   2.022   2.898
  938SOL     OW 2831   0.590   3.349   2.353
  938SOL    HW1 2832   0.632   3.291   2.283
  938SOL    HW2 2833   0.546   3.428   2.309
  939SOL     OW 2834   1.709   2.247   3.243
  939SOL    HW1 2835   1.782   2.316   3.247
  939SOL    HW2 2836   1.737   2.172   3.184
  940SOL     OW 2837   0.255   3.210   2.152
  940SOL    HW1 2838   0.159   3.211   2.125
  940SOL    HW2 2839   0.267   3.263   2.236
  941SOL     OW 2840   0.105   2.875   3.588
  941SOL    HW1 2841   0.028   2.842   3.642
  941SOL    HW2 2842   0.190   2.845   3.630
  942SOL     OW 2843   0.672   2.065   3.351
  942SOL    HW1 2844   0.762   2.049   3.311
  942SOL    HW2 2845   0.680   2.070   3.450
  943SOL     OW 2846   0.075   2.207   1.895
  943SOL    HW1 2847  -0.017   2.179   1.866
  943SOL    HW2 2848   0.106   2.284   1.839
  944SOL     OW 2849   1.440   2.718   3.260
  944SOL    HW1 2850   1.383   2.770   3.197
  944SOL    HW2 2851   1.536   2.730   3.236
  945SOL     OW 2852   0.072   2.028   2.180
  945SOL    HW1 2853   0.055   2.111   2.126
  945SOL    HW2 2854   0.162   1.991   2.158
  946SOL     OW 2855   1.183   3.197   1.981
  946SOL    HW1 2856   1.084   3.186   1.983
  946SOL    HW2 2857   1.217   3.212   2.074
  947SOL     OW 2858   0.613   2.704   3.293
  947SOL    HW1 2859   0.669   2.785   3.276
  947SOL    HW2 2860   0.672   2.624   3.296
  948SOL     OW 2861   1.493   3.629   2.821
  948SOL    HW1 2862   1.526   3.693   2.752
  948SOL    HW2 2863   1.559   3.623   2.896
  949SOL     OW 2864   0.716   2.427   3.570
  949SOL    HW1 2865   0.735   2.492   3.644
  949SOL    HW2 2866   0.776   2.347   3.579
  950SOL     OW 2867   1.450   3.082   3.495
  950SOL    HW1 2868   1.441   3.072   3.594
  950SOL    HW2 2869   1.546   3.075   3.469
  951SOL     OW 2870   0.390   3.603   3.422
  951SOL    HW1 2871   0.299   3.644   3.420
  951SOL    HW2 2872   0.383   3.509   3.454
  952SOL     OW 2873   1.674   2.745   3.116
  952SOL    HW1 2874   1.647   2.656   3.079
  952SOL    HW2 2875   1.675   2.813   3.043
  953SOL     OW 2876   1.225   2.187   2.311
  953SOL    HW1 2877   1.290   2.113   2.300
  953SOL    HW2 2878   1.245   2.237   2.395
  954SOL     OW 2879   0.594   2.607   2.514
  954SOL    HW1 2880   0.644   2.692   2.495
  954SOL    HW2 2881   0.506   2.609   2.466
  955SOL     OW 2882   1.777   2.204   3.504
  955SOL    HW1 2883   1.760   2.235   3.410
  955SOL    HW2 2884   1.693   2.167   3.542
  956SOL     OW 2885   1.730   2.796   3.379
  956SOL    HW1 2886   1.768   2.887   3.394
  956SOL    HW2 2887   1.722   2.779   3.280
  957SOL     OW 2888   0.859   3.236   1.878
  957SOL    HW1 2889   0.813   3.251   1.966
  957SOL    HW2 2890   0.903   3.321   1.848
  958SOL     OW 2891   0.661   3.652   2.815
  958SOL    HW1 2892   0.615   3.740   2.802
  958SOL    HW2 2893   0.760   3.664   2.808
  959SOL     OW 2894   0.859   2.818   2.723
  959SOL    HW1 2895   0.913   2.749   2.771
  959SOL    HW2 2896   0.827   2.887   2.789
  960SOL     OW 2897   1.083   2.846   1.949
  960SOL    HW1 2898   1.060   2.899   1.867
  960SOL    HW2 2899   1.164   2.790   1.930
  961SOL     OW 2900   1.861   3.431   2.713
  961SOL    HW1 2901   1.790   3.419   2.643
  961SOL    HW2 2902   1.862   3.352   2.773
  962SOL     OW 2903   0.221   3.176   3.706
  962SOL    HW1 2904   0.156   3.103   3.685
  962SOL    HW2 2905   0.225   3.190   3.804
  963SOL     OW 2906   0.079   3.102   2.515
  963SOL    HW1 2907   0.078   3.055   2.603
  963SOL    HW2 2908   0.161   3.074   2.464
  964SOL     OW 2909   0.672   3.253   3.486
  964SOL    HW1 2910   0.594   3.203   3.524
  964SOL    HW2 2911   0.669   3.348   3.517
  965SOL     OW 2912   1.824   2.054   3.089
  965SOL    HW1 2913   1.820   1.964   3.133
  965SOL    HW2 2914   1.827   2.043   2.990
  966SOL     OW 2915   0.428   2.286   2.382
  966SOL    HW1 2916   0.458   2.214   2.320
  966SOL    HW2 2917   0.389   2.246   2.465
  967SOL     OW 2918   1.705   3.349   2.966
  967SOL    HW1 2919   1.612   3.324   2.939
  967SOL    HW2 2920   1.731   3.299   3.048
  968SOL     OW 2921   0.317   2.409   3.142
  968SOL    HW1 2922   0.355   2.350   3.214
  968SOL    HW2 2923   0.357   2.383   3.054
  969SOL     OW 2924   0.812   3.448   2.549
  969SOL    HW1 2925   0.844   3.458   2.455
  969SOL    HW2 2926   0.733   3.386   2.551
  970SOL     OW 2927   1.424   2.076   2.974
  970SOL    HW1 2928   1.476   2.011   3.029
  970SOL    HW2 2929   1.375   2.139   3.035
  971SOL     OW 2930   1.001   1.896   3.016
  971SOL    HW1 2931   0.938   1.824   2.985
  971SOL    HW2 2932   1.094   1.860   3.016
  972SOL     OW 2933   0.770   3.192   2.163
  972SOL    HW1 2934   0.724   3.105   2.180
  972SOL    HW2 2935   0.861   3.189   2.204
  973SOL     OW 2936   0.618   3.429   3.146
  973SOL    HW1 2937   0.613   3.511   3.203
  973SOL    HW2 2938   0.707   3.426   3.101
  974SOL     OW 2939   1.352   1.914   2.030
  974SOL    HW1 2940   1.387   1.873   1.946
  974SOL    HW2 2941   1.262   1.876   2.050
  975SOL     OW 2942   1.300   2.315   2.553
  975SOL    HW1 2943   1.241   2.395   2.557
  975SOL    HW2 2944   1.315   2.280   2.646
  976SOL     OW 2945   1.593   2.083   2.744
  976SOL    HW1 2946   1.509   2.082   2.798
  976SOL    HW2 2947   1.595   2.166   2.688
  977SOL     OW 2948   0.039   2.939   2.162
  977SOL    HW1 2949   0.138   2.928   2.153
  977SOL    HW2 2950  -0.001   2.853   2.194
  978SOL     OW 2951   0.875   3.508   2.199
  978SOL    HW1 2952   0.798   3.473   2.145
  978SOL    HW2 2953   0.843   3.579   2.261
  979SOL     OW 2954   0.230   2.490   3.837
  979SOL    HW1 2955   0.137   2.488   3.874
  979SOL    HW2 2956   0.231   2.451   3.745
  980SOL     OW 2957   0.225   2.137   4.720
  980SOL    HW1 2958   0.260   2.120   4.812
  980SOL    HW2 2959   0.137   2.092   4.708
  981SOL     OW 2960   0.019   2.230   4.371
  981SOL    HW1 2961  -0.063   2.273   4.410
  981SOL    HW2 2962  -0.009   2.157   4.308
  982SOL     OW 2963   1.555   3.373   4.427
  982SOL    HW1 2964   1.498   3.357   4.508
  982SOL    HW2 2965   1.496   3.383   4.347
  983SOL     OW 2966   1.135   2.565   4.441
  983SOL    HW1 2967   1.192   2.643   4.416
  983SOL    HW2 2968   1.075   2.591   4.517
  984SOL     OW 2969   1.755   2.469   3.955
  984SOL    HW1 2970   1.743   2.456   3.856
  984SOL    HW2 2971   1.725   2.388   4.004
  985SOL     OW 2972   0.768   3.006   4.747
  985SOL    HW1 2973   0.690   3.023   4.807
  985SOL    HW2 2974   0.802   3.093   4.711
  986SOL     OW 2975   0.685   2.874   4.389
  986SOL    HW1 2976   0.754   2.858   4.459
  986SOL    HW2 2977   0.612   2.931   4.427
  987SOL     OW 2978   0.335   3.297   4.785
  987SOL    HW1 2979   0.257   3.266   4.732
  987SOL    HW2 2980   0.393   3.355   4.728
  988SOL     OW 2981   1.603   2.309   4.461
  988SOL    HW1 2982   1.529   2.355   4.411
  988SOL    HW2 2983   1.654   2.377   4.514
  989SOL     OW 2984   0.231   3.575   4.207
  989SOL    HW1 2985   0.265   3.652   4.261
  989SOL    HW2 2986   0.275   3.575   4.117
  990SOL     OW 2987   0.230   3.296   4.262
  990SOL    HW1 2988   0.204   3.392   4.262
  990SOL    HW2 2989   0.159   3.242   4.307
  991SOL     OW 2990   0.240   2.953   4.610
  991SOL    HW1 2991   0.254   2.869   4.662
  991SOL    HW2 2992   0.185   3.017   4.665
  992SOL     OW 2993   0.606   2.826   3.847
  992SOL    HW1 2994   0.613   2.910   3.793
  992SOL    HW2 2995   0.652   2.839   3.935
  993SOL     OW 2996   0.122   2.505   4.287
  993SOL    HW1 2997   0.077   2.417   4.304
  993SOL    HW2 2998   0.121   2.559   4.371
  994SOL     OW 2999   1.842   3.629   4.083
  994SOL    HW1 3000   1.896   3.600   4.163
  994SOL    HW2 3001   1.872   3.719   4.054
  995SOL     OW 3002   0.027   3.458   3.841
  995SOL    HW1 3003   0.008   3.362   3.862
  995SOL    HW2 3004  -0.006   3.516   3.916
  996SOL     OW 3005   1.689   2.784   4.336
  996SOL    HW1 3006   1.784   2.755   4.344
  996SOL    HW2 3007   1.681   2.849   4.261
  997SOL     OW 3008   1.641   2.970   4.156
  997SOL    HW1 3009   1.727   2.972   4.104
  997SOL    HW2 3010   1.655   3.017   4.244
  998SOL     OW 3011   0.613   3.227   4.450
  998SOL    HW1 3012   0.564   3.140   4.459
  998SOL    HW2 3013   0.590   3.270   4.363
  999SOL     OW 3014   0.809   1.866   4.226
  999SOL    HW1 3015   0.849   1.957   4.217
  999SOL    HW2 3016   0.709   1.874   4.232
 1000SOL     OW 3017   1.525   2.861   3.914
 1000SOL    HW1 3018   1.462   2.785   3.927
 1000SOL    HW2 3019   1.573   2.879   4.000
 1001SOL     OW 3020   1.466   3.279   4.677
 1001SOL    HW1 3021   1.407   3.285   4.757
 1001SOL    HW2 3022   1.451   3.191   4.631
 1002SOL     OW 3023   1.667   3.576   4.296
 1002SOL    HW1 3024   1.626   3.553   4.208
 1002SOL    HW2 3025   1.649   3.502   4.361
 1003SOL     OW 3026   0.598   2.591   3.994
 1003SOL    HW1 3027   0.622   2.660   3.926
 1003SOL    HW2 3028   0.520   2.624   4.048
 1004SOL     OW 3029   1.281   2.207   4.668
 1004SOL    HW1 3030   1.195   2.157   4.655
 1004SOL    HW2 3031   1.343   2.153   4.724
 1005SOL     OW 3032   1.576   3.524   4.031
 1005SOL    HW1 3033   1.665   3.570   4.034
 1005SOL    HW2 3034   1.555   3.500   3.936
 1006SOL     OW 3035   1.041   2.563   4.153
 1006SOL    HW1 3036   1.067   2.559   4.249
 1006SOL    HW2 3037   0.956   2.512   4.139
 1007SOL     OW 3038   0.076   2.673   4.513
 1007SOL    HW1 3039   0.175   2.661   4.522
 1007SOL    HW2 3040   0.052   2.768   4.534
 1008SOL     OW 3041   0.865   2.210   3.919
 1008SOL    HW1 3042   0.924   2.273   3.870
 1008SOL    HW2 3043   0.884   2.116   3.890
 1009SOL     OW 3044   1.362   3.006   4.269
 1009SOL    HW1 3045   1.445   2.977   4.221
 1009SOL    HW2 3046   1.313   3.073   4.213
 1010SOL     OW 3047   0.550   2.058   4.609
 1010SOL    HW1 3048   0.545   2.053   4.709
 1010SOL    HW2 3049   0.552   2.154   4.580
 1011SOL     OW 3050   1.008   3.318   4.201
 1011SOL    HW1 3051   0.962   3.390   4.149
 1011SOL    HW2 3052   1.004   3.338   4.299
 1012SOL     OW 3053   0.351   3.663   4.577
 1012SOL    HW1 3054   0.401   3.577   4.583
 1012SOL    HW2 3055   0.416   3.740   4.574
 1013SOL     OW 3056   1.795   2.928   4.597
 1013SOL    HW1 3057   1.733   2.913   4.521
 1013SOL    HW2 3058   1.743   2.939   4.682
 1014SOL     OW 3059   0.321   2.805   3.966
 1014SOL    HW1 3060   0.403   2.844   3.924
 1014SOL    HW2 3061   0.294   2.723   3.917
 1015SOL     OW 3062   1.458   2.597   4.452
 1015SOL    HW1 3063   1.453   2.532   4.527
 1015SOL    HW2 3064   1.538   2.656   4.465
 1016SOL     OW 3065   1.111   3.638   3.961
 1016SOL    HW1 3066   1.051   3.576   4.011
 1016SOL    HW2 3067   1.142   3.594   3.876
 1017SOL     OW 3068   1.632   3.239   3.805
 1017SOL    HW1 3069   1.600   3.333   3.795
 1017SOL    HW2 3070   1.556   3.176   3.793
 1018SOL     OW 3071   0.464   3.605   4.047
 1018SOL    HW1 3072   0.497   3.644   4.133
 1018SOL    HW2 3073   0.540   3.598   3.982
 1019SOL     OW 3074   1.400   1.969   4.150
 1019SOL    HW1 3075   1.376   1.932   4.060
 1019SOL    HW2 3076   1.499   1.985   4.154
 1020SOL     OW 3077   0.249   3.647   4.965
 1020SOL    HW1 3078   0.306   3.582   5.015
 1020SOL    HW2 3079   0.233   3.614   4.872
 1021SOL     OW 3080   0.940   3.560   4.628
 1021SOL    HW1 3081   1.020   3.503   4.649
 1021SOL    HW2 3082   0.891   3.520   4.551
 1022SOL     OW 3083   0.382   2.562   4.204
 1022SOL    HW1 3084   0.427   2.472   4.201
 1022SOL    HW2 3085   0.288   2.551   4.237
 1023SOL     OW 3086   0.614   1.984   3.841
 1023SOL    HW1 3087   0.712   1.962   3.848
 1023SOL    HW2 3088   0.583   1.967   3.748
 1024SOL     OW 3089   0.803   3.264   4.648
 1024SOL    HW1 3090   0.893   3.278   4.606
 1024SOL    HW2 3091   0.732   3.266   4.577
 1025SOL     OW 3092   0.922   2.365   4.623
 1025SOL    HW1 3093   0.897   2.356   4.527
 1025SOL    HW2 3094   0.970   2.283   4.654
 1026SOL     OW 3095   0.539   1.926   4.236
 1026SOL    HW1 3096   0.458   1.927   4.294
 1026SOL    HW2 3097   0.542   2.009   4.181
 1027SOL     OW 3098   1.434   3.050   3.765
 1027SOL    HW1 3099   1.466   2.974   3.822
 1027SOL    HW2 3100   1.342   3.077   3.795
 1028SOL     OW 3101   0.297   1.897   3.895
 1028SOL    HW1 3102   0.346   1.981   3.874
 1028SOL    HW2 3103   0.359   1.832   3.940
 1029SOL     OW 3104   0.935   2.098   4.204
 1029SOL    HW1 3105   0.887   2.139   4.126
 1029SOL    HW2 3106   1.034   2.096   4.185
 1030SOL     OW 3107   1.227   3.432   4.517
 1030SOL    HW1 3108   1.248   3.506   4.452
 1030SOL    HW2 3109   1.295   3.432   4.590
 1031SOL     OW 3110   0.459   3.014   4.465
 1031SOL    HW1 3111   0.388   2.987   4.530
 1031SOL    HW2 3112   0.433   2.986   4.372
 1032SOL     OW 3113   1.271   3.659   4.315
 1032SOL    HW1 3114   1.315   3.723   4.251
 1032SOL    HW2 3115   1.221   3.711   4.385
 1033SOL     OW 3116   1.032   2.411   3.740
 1033SOL    HW1 3117   0.991   2.493   3.701
 1033SOL    HW2 3118   1.096   2.437   3.813
 1034SOL     OW 3119   0.866   2.316   4.366
 1034SOL    HW1 3120   0.834   2.388   4.304
 1034SOL    HW2 3121   0.890   2.235   4.313
 1035SOL     OW 3122   1.017   1.901   4.477
 1035SOL    HW1 3123   0.945   1.906   4.408
 1035SOL    HW2 3124   0.993   1.832   4.546
 1036SOL     OW 3125   1.429   3.035   4.591
 1036SOL    HW1 3126   1.374   2.951   4.584
 1036SOL    HW2 3127   1.455   3.064   4.499
 1037SOL     OW 3128   1.466   2.452   4.716
 1037SOL    HW1 3129   1.436   2.357   4.723
 1037SOL    HW2 3130   1.539   2.468   4.782
 1038SOL     OW 3131   1.857   2.695   4.101
 1038SOL    HW1 3132   1.899   2.631   4.165
 1038SOL    HW2 3133   1.819   2.644   4.023
 1039SOL     OW 3134   0.488   3.247   3.898
 1039SOL    HW1 3135   0.401   3.232   3.945
 1039SOL    HW2 3136   0.471   3.273   3.803
 1040SOL     OW 3137   1.664   3.142   4.381
 1040SOL    HW1 3138   1.763   3.150   4.395
 1040SOL    HW2 3139   1.619   3.226   4.412
 1041SOL     OW 3140   1.390   2.437   3.802
 1041SOL    HW1 3141   1.336   2.416   3.883
 1041SOL    HW2 3142   1.481   2.396   3.811
 1042SOL     OW 3143   0.527   2.118   4.052
 1042SOL    HW1 3144   0.554   2.059   3.977
 1042SOL    HW2 3145   0.527   2.213   4.021
 1043SOL     OW 3146   1.638   2.961   4.803
 1043SOL    HW1 3147   1.643   3.042   4.862
 1043SOL    HW2 3148   1.552   2.963   4.752
 1044SOL     OW 3149   0.705   2.912   4.092
 1044SOL    HW1 3150   0.691   2.919   4.191
 1044SOL    HW2 3151   0.789   2.861   4.074
 1045SOL     OW 3152   0.410   2.675   4.975
 1045SOL    HW1 3153   0.496   2.687   5.025
 1045SOL    HW2 3154   0.368   2.588   5.002
 1046SOL     OW 3155   0.367   2.962   4.225
 1046SOL    HW1 3156   0.360   3.045   4.169
 1046SOL    HW2 3157   0.371   2.882   4.165
 1047SOL     OW 3158   0.566   2.399   4.589
 1047SOL    HW1 3159   0.578   2.465   4.515
 1047SOL    HW2 3160   0.612   2.433   4.672
 1048SOL     OW 3161   1.252   3.210   4.112
 1048SOL    HW1 3162   1.302   3.287   4.152
 1048SOL    HW2 3163   1.157   3.212   4.144
 1049SOL     OW 3164   1.582   2.501   4.196
 1049SOL    HW1 3165   1.551   2.562   4.269
 1049SOL    HW2 3166   1.632   2.553   4.127
 1050SOL     OW 3167   0.573   2.732   4.753
 1050SOL    HW1 3168   0.617   2.821   4.744
 1050SOL    HW2 3169   0.510   2.732   4.830
 1051SOL     OW 3170   1.209   2.387   3.999
 1051SOL    HW1 3171   1.222   2.303   4.053
 1051SOL    HW2 3172   1.180   2.461   4.059
 1052SOL     OW 3173   0.307   2.075   4.955
 1052SOL    HW1 3174   0.284   2.112   5.045
 1052SOL    HW2 3175   0.277   1.980   4.949
 1053SOL     OW 3176   0.732   2.496   4.788
 1053SOL    HW1 3177   0.791   2.470   4.712
 1053SOL    HW2 3178   0.704   2.592   4.777
 1054SOL     OW 3179   0.307   1.925   4.342
 1054SOL    HW1 3180   0.296   2.019   4.375
 1054SOL    HW2 3181   0.302   1.862   4.419
 1055SOL     OW 3182   1.622   2.229   4.098
 1055SOL    HW1 3183   1.624   2.153   4.162
 1055SOL    HW2 3184   1.574   2.306   4.138
 1056SOL     OW 3185   1.023   2.628   4.690
 1056SOL    HW1 3186   1.038   2.649   4.786
 1056SOL    HW2 3187   0.993   2.533   4.681
 1057SOL     OW 3188   1.540   2.136   3.849
 1057SOL    HW1 3189   1.479   2.061   3.872
 1057SOL    HW2 3190   1.562   2.188   3.932
 1058SOL     OW 3191   1.303   2.700   3.766
 1058SOL    HW1 3192   1.337   2.607   3.781
 1058SOL    HW2 3193   1.321   2.727   3.671
 1059SOL     OW 3194   1.068   3.195   4.573
 1059SOL    HW1 3195   1.075   3.111   4.518
 1059SOL    HW2 3196   1.130   3.264   4.537
 1060SOL     OW 3197   0.319   2.672   4.673
 1060SOL    HW1 3198   0.412   2.708   4.678
 1060SOL    HW2 3199   0.313   2.587   4.725
 1061SOL     OW 3200   0.339   2.371   4.730
 1061SOL    HW1 3201   0.287   2.288   4.713
 1061SOL    HW2 3202   0.416   2.376   4.666
 1062SOL     OW 3203   0.008   3.188   3.924
 1062SOL    HW1 3204  -0.085   3.209   3.893
 1062SOL    HW2 3205   0.018   3.089   3.937
 1063SOL     OW 3206   0.088   3.663   4.651
 1063SOL    HW1 3207   0.046   3.577   4.624
 1063SOL    HW2 3208   0.182   3.666   4.617
 1064SOL     OW 3209   0.504   3.430   4.634
 1064SOL    HW1 3210   0.570   3.504   4.643
 1064SOL    HW2 3211   0.548   3.351   4.592
 1065SOL     OW 3212   1.002   2.658   4.962
 1065SOL    HW1 3213   1.043   2.626   5.048
 1065SOL    HW2 3214   0.906   2.631   4.959
 1066SOL     OW 3215   0.815   2.434   4.049
 1066SOL    HW1 3216   0.822   2.345   4.003
 1066SOL    HW2 3217   0.721   2.468   4.041
 1067SOL     OW 3218   0.671   2.326   4.993
 1067SOL    HW1 3219   0.637   2.237   4.963
 1067SOL    HW2 3220   0.697   2.380   4.913
 1068SOL     OW 3221   0.473   2.362   3.915
 1068SOL    HW1 3222   0.534   2.442   3.919
 1068SOL    HW2 3223   0.378   2.393   3.922
 1069SOL     OW 3224   1.302   2.717   4.033
 1069SOL    HW1 3225   1.216   2.686   4.075
 1069SOL    HW2 3226   1.298   2.703   3.934
 1070SOL     OW 3227   1.759   3.609   4.878
 1070SOL    HW1 3228   1.820   3.639   4.805
 1070SOL    HW2 3229   1.721   3.520   4.856
 1071SOL     OW 3230   0.083   3.120   4.746
 1071SOL    HW1 3231   0.078   3.119   4.846
 1071SOL    HW2 3232   0.000   3.079   4.708
 1072SOL     OW 3233   1.726   1.997   4.247
 1072SOL    HW1 3234   1.799   1.980   4.180
 1072SOL    HW2 3235   1.695   1.910   4.285
 1073SOL     OW 3236   1.388   3.435   4.201
 1073SOL    HW1 3237   1.455   3.447   4.127
 1073SOL    HW2 3238   1.348   3.524   4.224
 1074SOL     OW 3239   1.280   2.789   4.396
 1074SOL    HW1 3240   1.340   2.708   4.398
 1074SOL    HW2 3241   1.320   2.858   4.336
 1075SOL     OW 3242   0.672   3.478   3.878
 1075SOL    HW1 3243   0.681   3.488   3.779
 1075SOL    HW2 3244   0.632   3.389   3.899
 1076SOL     OW 3245   1.841   2.037   4.687
 1076SOL    HW1 3246   1.880   1.952   4.651
 1076SOL    HW2 3247   1.743   2.039   4.668
 1077SOL     OW 3248   0.263   2.188   4.444
 1077SOL    HW1 3249   0.184   2.239   4.410
 1077SOL    HW2 3250   0.254   2.173   4.542
 1078SOL     OW 3251   1.194   3.474   3.755
 1078SOL    HW1 3252   1.200   3.381   3.792
 1078SOL    HW2 3253   1.135   3.474   3.675
 1079SOL     OW 3254   0.916   2.772   4.015
 1079SOL    HW1 3255   0.979   2.810   3.947
 1079SOL    HW2 3256   0.956   2.689   4.054
 1080SOL     OW 3257   1.504   3.469   3.768
 1080SOL    HW1 3258   1.412   3.506   3.775
 1080SOL    HW2 3259   1.542   3.489   3.678
 1081SOL     OW 3260   1.039   2.960   4.420
 1081SOL    HW1 3261   0.969   2.913   4.474
 1081SOL    HW2 3262   1.098   2.892   4.377
 1082SOL     OW 3263   1.014   2.098   4.695
 1082SOL    HW1 3264   1.006   2.062   4.602
 1082SOL    HW2 3265   1.012   2.022   4.760
 1083SOL     OW 3266   0.590   3.349   4.215
 1083SOL    HW1 3267   0.632   3.291   4.145
 1083SOL    HW2 3268   0.546   3.428   4.171
 1084SOL     OW 3269   0.255   3.210   4.014
 1084SOL    HW1 3270   0.159   3.211   3.987
 1084SOL    HW2 3271   0.267   3.263   4.098
 1085SOL     OW 3272   0.075   2.207   3.757
 1085SOL    HW1 3273  -0.017   2.179   3.728
 1085SOL    HW2 3274   0.106   2.284   3.701
 1086SOL     OW 3275   0.072   2.028   4.042
 1086SOL    HW1 3276   0.055   2.111   3.988
 1086SOL    HW2 3277   0.162   1.991   4.020
 1087SOL     OW 3278   1.183   3.197   3.843
 1087SOL    HW1 3279   1.084   3.186   3.845
 1087SOL    HW2 3280   1.217   3.212   3.936
 1088SOL     OW 3281   1.493   3.629   4.683
 1088SOL    HW1 3282   1.526   3.693   4.614
 1088SOL    HW2 3283   1.559   3.623   4.758
 1089SOL     OW 3284   1.674   2.745   4.978
 1089SOL    HW1 3285   1.647   2.656   4.941
 1089SOL    HW2 3286   1.675   2.813   4.905
 1090SOL     OW 3287   1.225   2.187   4.173
 1090SOL    HW1 3288   1.290   2.113   4.162
 1090SOL    HW2 3289   1.245   2.237   4.257
 1091SOL     OW 3290   0.594   2.607   4.376
 1091SOL    HW1 3291   0.644   2.692   4.357
 1091SOL    HW2 3292   0.506   2.609   4.328
 1092SOL     OW 3293   0.859   3.236   3.740
 1092SOL    HW1 3294   0.813   3.251   3.828
 1092SOL    HW2 3295   0.903   3.321   3.710
 1093SOL     OW 3296   0.661   3.652   4.677
 1093SOL    HW1 3297   0.615   3.740   4.664
 1093SOL    HW2 3298   0.760   3.664   4.670
 1094SOL     OW 3299   0.859   2.818   4.585
 1094SOL    HW1 3300   0.913   2.749   4.633
 1094SOL    HW2 3301   0.827   2.887   4.651
 1095SOL     OW 3302   1.083   2.846   3.811
 1095SOL    HW1 3303   1.060   2.899   3.729
 1095SOL    HW2 3304   1.164   2.790   3.792
 1096SOL     OW 3305   1.861   3.431   4.575
 1096SOL    HW1 3306   1.790   3.419   4.505
 1096SOL    HW2 3307   1.862   3.352   4.635
 1097SOL     OW 3308   0.079   3.102   4.377
 1097SOL    HW1 3309   0.078   3.055   4.465
 1097SOL    HW2 3310   0.161   3.074   4.326
 1098SOL     OW 3311   1.824   2.054   4.951
 1098SOL    HW1 3312   1.820   1.964   4.995
 1098SOL    HW2 3313   1.827   2.043   4.852
 1099SOL     OW 3314   0.428   2.286   4.244
 1099SOL    HW1 3315   0.458   2.214   4.182
 1099SOL    HW2 3316   0.389   2.246   4.327
 1100SOL     OW 3317   0.812   3.448   4.411
 1100SOL    HW1 3318   0.844   3.458   4.317
 1100SOL    HW2 3319   0.733   3.386   4.413
 1101SOL     OW 3320   1.424   2.076   4.836
 1101SOL    HW1 3321   1.476   2.011   4.891
 1101SOL    HW2 3322   1.375   2.139   4.897
 1102SOL     OW 3323   0.770   3.192   4.025
 1102SOL    HW1 3324   0.724   3.105   4.042
 1102SOL    HW2 3325   0.861   3.189   4.066
 1103SOL     OW 3326   1.352   1.914   3.892
 1103SOL    HW1 3327   1.387   1.873   3.808
 1103SOL    HW2 3328   1.262   1.876   3.912
 1104SOL     OW 3329   1.300   2.315   4.415
 1104SOL    HW1 3330   1.241   2.395   4.419
 1104SOL    HW2 3331   1.315   2.280   4.508
 1105SOL     OW 3332   1.593   2.083   4.606
 1105SOL    HW1 3333   1.509   2.082   4.660
 1105SOL    HW2 3334   1.595   2.166   4.550
 1106SOL     OW 3335   0.039   2.939   4.024
 1106SOL    HW1 3336   0.138   2.928   4.015
 1106SOL    HW2 3337  -0.001   2.853   4.056
 1107SOL     OW 3338   0.875   3.508   4.061
 1107SOL    HW1 3339   0.798   3.473   4.007
 1107SOL    HW2 3340   0.843   3.579   4.123
 1108SOL     OW 3341   0.230   4.352   0.113
 1108SOL    HW1 3342   0.137   4.350   0.150
 1108SOL    HW2 3343   0.231   4.313   0.021
 1109SOL     OW 3344   0.225   3.999   0.996
 1109SOL    HW1 3345   0.260   3.982   1.088
 1109SOL    HW2 3346   0.137   3.954   0.984
 1110SOL     OW 3347   0.019   4.092   0.647
 1110SOL    HW1 3348  -0.063   4.135   0.686
 1110SOL    HW2 3349  -0.009   4.019   0.584
 1111SOL     OW 3350   1.135   4.427   0.717
 1111SOL    HW1 3351   1.192   4.505   0.692
 1111SOL    HW2 3352   1.075   4.453   0.793
 1112SOL     OW 3353   1.755   4.331   0.231
 1112SOL    HW1 3354   1.743   4.318   0.132
 1112SOL    HW2 3355   1.725   4.250   0.280
 1113SOL     OW 3356   0.768   4.868   1.023
 1113SOL    HW1 3357   0.690   4.885   1.083
 1113SOL    HW2 3358   0.802   4.955   0.987
 1114SOL     OW 3359   0.850   4.522   1.823
 1114SOL    HW1 3360   0.846   4.598   1.888
 1114SOL    HW2 3361   0.872   4.558   1.732
 1115SOL     OW 3362   0.685   4.736   0.665
 1115SOL    HW1 3363   0.754   4.720   0.735
 1115SOL    HW2 3364   0.612   4.793   0.703
 1116SOL     OW 3365   0.438   4.116   1.499
 1116SOL    HW1 3366   0.520   4.060   1.508
 1116SOL    HW2 3367   0.357   4.058   1.503
 1117SOL     OW 3368   1.603   4.171   0.737
 1117SOL    HW1 3369   1.529   4.217   0.687
 1117SOL    HW2 3370   1.654   4.239   0.790
 1118SOL     OW 3371   0.230   5.158   0.538
 1118SOL    HW1 3372   0.204   5.254   0.538
 1118SOL    HW2 3373   0.159   5.104   0.583
 1119SOL     OW 3374   0.240   4.815   0.886
 1119SOL    HW1 3375   0.254   4.731   0.938
 1119SOL    HW2 3376   0.185   4.879   0.941
 1120SOL     OW 3377   0.606   4.688   0.123
 1120SOL    HW1 3378   0.613   4.772   0.069
 1120SOL    HW2 3379   0.652   4.701   0.211
 1121SOL     OW 3380   1.594   3.838   1.480
 1121SOL    HW1 3381   1.576   3.905   1.408
 1121SOL    HW2 3382   1.591   3.884   1.569
 1122SOL     OW 3383   0.122   4.367   0.563
 1122SOL    HW1 3384   0.077   4.279   0.580
 1122SOL    HW2 3385   0.121   4.421   0.647
 1123SOL     OW 3386   1.689   4.646   0.612
 1123SOL    HW1 3387   1.784   4.617   0.620
 1123SOL    HW2 3388   1.681   4.711   0.537
 1124SOL     OW 3389   0.113   4.461   1.597
 1124SOL    HW1 3390   0.201   4.448   1.642
 1124SOL    HW2 3391   0.100   4.558   1.575
 1125SOL     OW 3392   1.293   4.952   1.423
 1125SOL    HW1 3393   1.330   4.879   1.365
 1125SOL    HW2 3394   1.345   4.957   1.508
 1126SOL     OW 3395   0.809   3.728   0.502
 1126SOL    HW1 3396   0.849   3.819   0.493
 1126SOL    HW2 3397   0.709   3.736   0.508
 1127SOL     OW 3398   0.197   4.700   1.264
 1127SOL    HW1 3399   0.286   4.655   1.250
 1127SOL    HW2 3400   0.124   4.635   1.245
 1128SOL     OW 3401   1.525   4.723   0.190
 1128SOL    HW1 3402   1.462   4.647   0.203
 1128SOL    HW2 3403   1.573   4.741   0.276
 1129SOL     OW 3404   0.317   3.975   1.801
 1129SOL    HW1 3405   0.388   4.046   1.807
 1129SOL    HW2 3406   0.229   4.014   1.829
 1130SOL     OW 3407   0.598   4.453   0.270
 1130SOL    HW1 3408   0.622   4.522   0.202
 1130SOL    HW2 3409   0.520   4.486   0.324
 1131SOL     OW 3410   1.281   4.069   0.944
 1131SOL    HW1 3411   1.195   4.019   0.931
 1131SOL    HW2 3412   1.343   4.015   1.000
 1132SOL     OW 3413   0.807   4.329   1.465
 1132SOL    HW1 3414   0.760   4.326   1.554
 1132SOL    HW2 3415   0.756   4.274   1.399
 1133SOL     OW 3416   1.394   4.193   1.674
 1133SOL    HW1 3417   1.374   4.236   1.762
 1133SOL    HW2 3418   1.472   4.131   1.683
 1134SOL     OW 3419   0.973   4.614   1.572
 1134SOL    HW1 3420   1.019   4.530   1.543
 1134SOL    HW2 3421   0.917   4.648   1.497
 1135SOL     OW 3422   0.991   4.134   1.242
 1135SOL    HW1 3423   0.914   4.168   1.296
 1135SOL    HW2 3424   0.957   4.083   1.163
 1136SOL     OW 3425   1.041   4.425   0.429
 1136SOL    HW1 3426   1.067   4.421   0.525
 1136SOL    HW2 3427   0.956   4.374   0.415
 1137SOL     OW 3428   0.076   4.535   0.789
 1137SOL    HW1 3429   0.175   4.523   0.798
 1137SOL    HW2 3430   0.052   4.630   0.810
 1138SOL     OW 3431   0.865   4.072   0.195
 1138SOL    HW1 3432   0.924   4.135   0.146
 1138SOL    HW2 3433   0.884   3.978   0.166
 1139SOL     OW 3434   1.719   4.309   1.831
 1139SOL    HW1 3435   1.693   4.398   1.795
 1139SOL    HW2 3436   1.717   4.241   1.758
 1140SOL     OW 3437   0.550   3.920   0.885
 1140SOL    HW1 3438   0.545   3.915   0.985
 1140SOL    HW2 3439   0.552   4.016   0.856
 1141SOL     OW 3440   1.795   4.790   0.873
 1141SOL    HW1 3441   1.733   4.775   0.797
 1141SOL    HW2 3442   1.743   4.801   0.958
 1142SOL     OW 3443   0.321   4.667   0.242
 1142SOL    HW1 3444   0.403   4.706   0.200
 1142SOL    HW2 3445   0.294   4.585   0.193
 1143SOL     OW 3446   1.458   4.459   0.728
 1143SOL    HW1 3447   1.453   4.394   0.803
 1143SOL    HW2 3448   1.538   4.518   0.741
 1144SOL     OW 3449   0.202   4.009   1.498
 1144SOL    HW1 3450   0.122   4.069   1.485
 1144SOL    HW2 3451   0.192   3.960   1.584
 1145SOL     OW 3452   1.400   3.831   0.426
 1145SOL    HW1 3453   1.376   3.794   0.336
 1145SOL    HW2 3454   1.499   3.847   0.430
 1146SOL     OW 3455   0.382   4.424   0.480
 1146SOL    HW1 3456   0.427   4.334   0.477
 1146SOL    HW2 3457   0.288   4.413   0.513
 1147SOL     OW 3458   1.547   3.946   1.729
 1147SOL    HW1 3459   1.542   3.983   1.821
 1147SOL    HW2 3460   1.475   3.877   1.717
 1148SOL     OW 3461   0.614   3.846   0.117
 1148SOL    HW1 3462   0.712   3.824   0.124
 1148SOL    HW2 3463   0.583   3.829   0.024
 1149SOL     OW 3464   0.781   3.988   1.749
 1149SOL    HW1 3465   0.848   3.927   1.792
 1149SOL    HW2 3466   0.708   4.007   1.814
 1150SOL     OW 3467   1.351   4.314   1.433
 1150SOL    HW1 3468   1.379   4.271   1.518
 1150SOL    HW2 3469   1.376   4.410   1.434
 1151SOL     OW 3470   0.922   4.227   0.899
 1151SOL    HW1 3471   0.897   4.218   0.803
 1151SOL    HW2 3472   0.970   4.145   0.930
 1152SOL     OW 3473   0.539   3.788   0.512
 1152SOL    HW1 3474   0.458   3.789   0.570
 1152SOL    HW2 3475   0.542   3.871   0.457
 1153SOL     OW 3476   0.935   3.960   0.480
 1153SOL    HW1 3477   0.887   4.001   0.402
 1153SOL    HW2 3478   1.034   3.958   0.461
 1154SOL     OW 3479   1.076   4.407   1.464
 1154SOL    HW1 3480   0.996   4.346   1.467
 1154SOL    HW2 3481   1.157   4.354   1.440
 1155SOL     OW 3482   1.032   4.273   0.016
 1155SOL    HW1 3483   0.991   4.355  -0.023
 1155SOL    HW2 3484   1.096   4.299   0.089
 1156SOL     OW 3485   0.078   4.280   1.386
 1156SOL    HW1 3486   0.170   4.279   1.345
 1156SOL    HW2 3487   0.072   4.354   1.453
 1157SOL     OW 3488   0.561   3.946   1.147
 1157SOL    HW1 3489   0.599   3.862   1.184
 1157SOL    HW2 3490   0.473   3.965   1.191
 1158SOL     OW 3491   0.866   4.178   0.642
 1158SOL    HW1 3492   0.834   4.250   0.580
 1158SOL    HW2 3493   0.890   4.097   0.589
 1159SOL     OW 3494   1.017   3.763   0.753
 1159SOL    HW1 3495   0.945   3.768   0.684
 1159SOL    HW2 3496   0.993   3.694   0.822
 1160SOL     OW 3497   1.429   4.897   0.867
 1160SOL    HW1 3498   1.374   4.813   0.860
 1160SOL    HW2 3499   1.455   4.926   0.775
 1161SOL     OW 3500   1.466   4.314   0.992
 1161SOL    HW1 3501   1.436   4.219   0.999
 1161SOL    HW2 3502   1.539   4.330   1.058
 1162SOL     OW 3503   1.857   4.557   0.377
 1162SOL    HW1 3504   1.899   4.493   0.441
 1162SOL    HW2 3505   1.819   4.506   0.299
 1163SOL     OW 3506   1.390   4.299   0.078
 1163SOL    HW1 3507   1.336   4.278   0.159
 1163SOL    HW2 3508   1.481   4.258   0.087
 1164SOL     OW 3509   0.527   3.980   0.328
 1164SOL    HW1 3510   0.554   3.921   0.253
 1164SOL    HW2 3511   0.527   4.075   0.297
 1165SOL     OW 3512   1.754   4.947   1.588
 1165SOL    HW1 3513   1.845   4.908   1.575
 1165SOL    HW2 3514   1.762   5.043   1.612
 1166SOL     OW 3515   1.638   4.823   1.079
 1166SOL    HW1 3516   1.643   4.904   1.138
 1166SOL    HW2 3517   1.552   4.825   1.028
 1167SOL     OW 3518   0.915   3.813   1.402
 1167SOL    HW1 3519   0.940   3.793   1.307
 1167SOL    HW2 3520   0.987   3.869   1.444
 1168SOL     OW 3521   0.410   4.537   1.251
 1168SOL    HW1 3522   0.496   4.549   1.301
 1168SOL    HW2 3523   0.368   4.450   1.278
 1169SOL     OW 3524   1.274   4.110   1.262
 1169SOL    HW1 3525   1.295   4.184   1.326
 1169SOL    HW2 3526   1.185   4.127   1.219
 1170SOL     OW 3527   0.566   4.261   0.865
 1170SOL    HW1 3528   0.578   4.327   0.791
 1170SOL    HW2 3529   0.612   4.295   0.948
 1171SOL     OW 3530   1.582   4.363   0.472
 1171SOL    HW1 3531   1.551   4.424   0.545
 1171SOL    HW2 3532   1.632   4.415   0.403
 1172SOL     OW 3533   0.402   4.475   1.598
 1172SOL    HW1 3534   0.470   4.530   1.551
 1172SOL    HW2 3535   0.442   4.387   1.625
 1173SOL     OW 3536   1.587   4.503   1.670
 1173SOL    HW1 3537   1.495   4.541   1.665
 1173SOL    HW2 3538   1.647   4.550   1.605
 1174SOL     OW 3539   1.013   3.829   1.770
 1174SOL    HW1 3540   1.019   3.914   1.718
 1174SOL    HW2 3541   1.045   3.753   1.713
 1175SOL     OW 3542   0.504   3.774   1.740
 1175SOL    HW1 3543   0.462   3.717   1.670
 1175SOL    HW2 3544   0.438   3.843   1.772
 1176SOL     OW 3545   0.573   4.594   1.029
 1176SOL    HW1 3546   0.617   4.683   1.020
 1176SOL    HW2 3547   0.510   4.594   1.106
 1177SOL     OW 3548   1.360   4.586   1.045
 1177SOL    HW1 3549   1.285   4.586   0.979
 1177SOL    HW2 3550   1.397   4.494   1.054
 1178SOL     OW 3551   1.209   4.249   0.275
 1178SOL    HW1 3552   1.222   4.165   0.329
 1178SOL    HW2 3553   1.180   4.323   0.335
 1179SOL     OW 3554   0.307   3.937   1.231
 1179SOL    HW1 3555   0.284   3.974   1.321
 1179SOL    HW2 3556   0.277   3.842   1.225
 1180SOL     OW 3557   0.037   5.034   1.282
 1180SOL    HW1 3558   0.090   4.985   1.350
 1180SOL    HW2 3559   0.059   5.132   1.287
 1181SOL     OW 3560   0.732   4.358   1.064
 1181SOL    HW1 3561   0.791   4.332   0.988
 1181SOL    HW2 3562   0.704   4.454   1.053
 1182SOL     OW 3563   1.728   4.659   1.854
 1182SOL    HW1 3564   1.682   4.652   1.765
 1182SOL    HW2 3565   1.666   4.703   1.920
 1183SOL     OW 3566   0.307   3.787   0.618
 1183SOL    HW1 3567   0.296   3.881   0.651
 1183SOL    HW2 3568   0.302   3.724   0.695
 1184SOL     OW 3569   1.622   4.091   0.374
 1184SOL    HW1 3570   1.624   4.015   0.438
 1184SOL    HW2 3571   1.574   4.168   0.414
 1185SOL     OW 3572   1.023   4.490   0.966
 1185SOL    HW1 3573   1.038   4.511   1.062
 1185SOL    HW2 3574   0.993   4.395   0.957
 1186SOL     OW 3575   0.350   4.622   1.804
 1186SOL    HW1 3576   0.426   4.666   1.852
 1186SOL    HW2 3577   0.385   4.575   1.722
 1187SOL     OW 3578   1.540   3.998   0.125
 1187SOL    HW1 3579   1.479   3.923   0.148
 1187SOL    HW2 3580   1.562   4.050   0.208
 1188SOL     OW 3581   1.303   4.562   0.042
 1188SOL    HW1 3582   1.337   4.469   0.057
 1188SOL    HW2 3583   1.321   4.589  -0.053
 1189SOL     OW 3584   0.319   4.534   0.949
 1189SOL    HW1 3585   0.412   4.570   0.954
 1189SOL    HW2 3586   0.313   4.449   1.001
 1190SOL     OW 3587   0.339   4.233   1.006
 1190SOL    HW1 3588   0.287   4.150   0.989
 1190SOL    HW2 3589   0.416   4.238   0.942
 1191SOL     OW 3590   1.138   4.104   1.678
 1191SOL    HW1 3591   1.093   4.167   1.742
 1191SOL    HW2 3592   1.231   4.135   1.661
 1192SOL     OW 3593   1.160   3.931   1.477
 1192SOL    HW1 3594   1.160   3.995   1.554
 1192SOL    HW2 3595   1.188   3.979   1.394
 1193SOL     OW 3596   1.002   4.520   1.238
 1193SOL    HW1 3597   1.043   4.488   1.324
 1193SOL    HW2 3598   0.906   4.493   1.235
 1194SOL     OW 3599   0.040   4.268   1.114
 1194SOL    HW1 3600   0.125   4.235   1.073
 1194SOL    HW2 3601   0.053   4.283   1.212
 1195SOL     OW 3602   0.189   4.244   1.722
 1195SOL    HW1 3603   0.248   4.204   1.652
 1195SOL    HW2 3604   0.131   4.315   1.681
 1196SOL     OW 3605   1.369   4.674   1.660
 1196SOL    HW1 3606   1.408   4.763   1.680
 1196SOL    HW2 3607   1.379   4.654   1.563
 1197SOL     OW 3608   0.815   4.296   0.325
 1197SOL    HW1 3609   0.822   4.207   0.279
 1197SOL    HW2 3610   0.721   4.330   0.317
 1198SOL     OW 3611   1.657   4.328   1.206
 1198SOL    HW1 3612   1.619   4.259   1.268
 1198SOL    HW2 3613   1.739   4.292   1.162
 1199SOL     OW 3614   0.671   4.188   1.269
 1199SOL    HW1 3615   0.637   4.099   1.239
 1199SOL    HW2 3616   0.697   4.242   1.189
 1200SOL     OW 3617   0.473   4.224   0.191
 1200SOL    HW1 3618   0.534   4.304   0.195
 1200SOL    HW2 3619   0.378   4.255   0.198
 1201SOL     OW 3620   0.159   4.861   1.466
 1201SOL    HW1 3621   0.181   4.800   1.542
 1201SOL    HW2 3622   0.169   4.812   1.380
 1202SOL     OW 3623   1.347   4.783   1.234
 1202SOL    HW1 3624   1.371   4.720   1.160
 1202SOL    HW2 3625   1.257   4.823   1.216
 1203SOL     OW 3626   1.302   4.579   0.309
 1203SOL    HW1 3627   1.216   4.548   0.351
 1203SOL    HW2 3628   1.298   4.565   0.210
 1204SOL     OW 3629   0.903   3.810   0.133
 1204SOL    HW1 3630   0.954   3.811   0.047
 1204SOL    HW2 3631   0.959   3.768   0.204
 1205SOL     OW 3632   1.726   3.859   0.523
 1205SOL    HW1 3633   1.799   3.842   0.456
 1205SOL    HW2 3634   1.695   3.772   0.561
 1206SOL     OW 3635   1.280   4.651   0.672
 1206SOL    HW1 3636   1.340   4.570   0.674
 1206SOL    HW2 3637   1.320   4.720   0.612
 1207SOL     OW 3638   1.841   3.899   0.963
 1207SOL    HW1 3639   1.880   3.814   0.927
 1207SOL    HW2 3640   1.743   3.901   0.944
 1208SOL     OW 3641   0.263   4.050   0.720
 1208SOL    HW1 3642   0.184   4.101   0.686
 1208SOL    HW2 3643   0.254   4.035   0.818
 1209SOL     OW 3644   0.822   4.726   1.372
 1209SOL    HW1 3645   0.862   4.725   1.280
 1209SOL    HW2 3646   0.832   4.818   1.412
 1210SOL     OW 3647   0.916   4.634   0.291
 1210SOL    HW1 3648   0.979   4.672   0.223
 1210SOL    HW2 3649   0.956   4.551   0.330
 1211SOL     OW 3650   1.014   3.960   0.971
 1211SOL    HW1 3651   1.006   3.924   0.878
 1211SOL    HW2 3652   1.012   3.884   1.036
 1212SOL     OW 3653   1.709   4.109   1.381
 1212SOL    HW1 3654   1.782   4.178   1.385
 1212SOL    HW2 3655   1.737   4.034   1.322
 1213SOL     OW 3656   0.105   4.737   1.726
 1213SOL    HW1 3657   0.028   4.704   1.780
 1213SOL    HW2 3658   0.190   4.707   1.768
 1214SOL     OW 3659   0.672   3.927   1.489
 1214SOL    HW1 3660   0.762   3.911   1.449
 1214SOL    HW2 3661   0.680   3.932   1.588
 1215SOL     OW 3662   0.075   4.069   0.033
 1215SOL    HW1 3663  -0.017   4.041   0.004
 1215SOL    HW2 3664   0.106   4.146  -0.023
 1216SOL     OW 3665   1.440   4.580   1.398
 1216SOL    HW1 3666   1.383   4.632   1.335
 1216SOL    HW2 3667   1.536   4.592   1.374
 1217SOL     OW 3668   0.072   3.890   0.318
 1217SOL    HW1 3669   0.055   3.973   0.264
 1217SOL    HW2 3670   0.162   3.853   0.296
 1218SOL     OW 3671   1.183   5.059   0.119
 1218SOL    HW1 3672   1.084   5.048   0.121
 1218SOL    HW2 3673   1.217   5.074   0.212
 1219SOL     OW 3674   0.613   4.566   1.431
 1219SOL    HW1 3675   0.669   4.647   1.414
 1219SOL    HW2 3676   0.672   4.486   1.434
 1220SOL     OW 3677   0.716   4.289   1.708
 1220SOL    HW1 3678   0.735   4.354   1.782
 1220SOL    HW2 3679   0.776   4.209   1.717
 1221SOL     OW 3680   1.674   4.607   1.254
 1221SOL    HW1 3681   1.647   4.518   1.217
 1221SOL    HW2 3682   1.675   4.675   1.181
 1222SOL     OW 3683   1.225   4.049   0.449
 1222SOL    HW1 3684   1.290   3.975   0.438
 1222SOL    HW2 3685   1.245   4.099   0.533
 1223SOL     OW 3686   0.594   4.469   0.652
 1223SOL    HW1 3687   0.644   4.554   0.633
 1223SOL    HW2 3688   0.506   4.471   0.604
 1224SOL     OW 3689   1.777   4.066   1.642
 1224SOL    HW1 3690   1.760   4.097   1.548
 1224SOL    HW2 3691   1.693   4.029   1.680
 1225SOL     OW 3692   1.730   4.658   1.517
 1225SOL    HW1 3693   1.768   4.749   1.532
 1225SOL    HW2 3694   1.722   4.641   1.418
 1226SOL     OW 3695   0.859   4.680   0.861
 1226SOL    HW1 3696   0.913   4.611   0.909
 1226SOL    HW2 3697   0.827   4.749   0.927
 1227SOL     OW 3698   1.083   4.708   0.087
 1227SOL    HW1 3699   1.060   4.761   0.005
 1227SOL    HW2 3700   1.164   4.652   0.068
 1228SOL     OW 3701   1.824   3.916   1.227
 1228SOL    HW1 3702   1.820   3.826   1.271
 1228SOL    HW2 3703   1.827   3.905   1.128
 1229SOL     OW 3704   0.428   4.148   0.520
 1229SOL    HW1 3705   0.458   4.076   0.458
 1229SOL    HW2 3706   0.389   4.108   0.603
 1230SOL     OW 3707   0.317   4.271   1.280
 1230SOL    HW1 3708   0.355   4.212   1.352
 1230SOL    HW2 3709   0.357   4.245   1.192
 1231SOL     OW 3710   1.424   3.938   1.112
 1231SOL    HW1 3711   1.476   3.873   1.167
 1231SOL    HW2 3712   1.375   4.001   1.173
 1232SOL     OW 3713   1.001   3.758   1.154
 1232SOL    HW1 3714   0.938   3.686   1.123
 1232SOL    HW2 3715   1.094   3.722   1.154
 1233SOL     OW 3716   1.352   3.776   0.168
 1233SOL    HW1 3717   1.387   3.735   0.084
 1233SOL    HW2 3718   1.262   3.738   0.188
 1234SOL     OW 3719   1.300   4.177   0.691
 1234SOL    HW1 3720   1.241   4.257   0.695
 1234SOL    HW2 3721   1.315   4.142   0.784
 1235SOL     OW 3722   1.593   3.945   0.882
 1235SOL    HW1 3723   1.509   3.944   0.936
 1235SOL    HW2 3724   1.595   4.028   0.826
 1236SOL     OW 3725   0.039   4.801   0.300
 1236SOL    HW1 3726   0.138   4.790   0.291
 1236SOL    HW2 3727  -0.001   4.715   0.332
 1237SOL     OW 3728   0.230   4.352   1.975
 1237SOL    HW1 3729   0.137   4.350   2.012
 1237SOL    HW2 3730   0.231   4.313   1.883
 1238SOL     OW 3731   0.225   3.999   2.858
 1238SOL    HW1 3732   0.260   3.982   2.950
 1238SOL    HW2 3733   0.137   3.954   2.846
 1239SOL     OW 3734   0.019   4.092   2.509
 1239SOL    HW1 3735  -0.063   4.135   2.548
 1239SOL    HW2 3736  -0.009   4.019   2.446
 1240SOL     OW 3737   1.135   4.427   2.579
 1240SOL    HW1 3738   1.192   4.505   2.554
 1240SOL    HW2 3739   1.075   4.453   2.655
 1241SOL     OW 3740   1.755   4.331   2.093
 1241SOL    HW1 3741   1.743   4.318   1.994
 1241SOL    HW2 3742   1.725   4.250   2.142
 1242SOL     OW 3743   0.768   4.868   2.885
 1242SOL    HW1 3744   0.690   4.885   2.945
 1242SOL    HW2 3745   0.802   4.955   2.849
 1243SOL     OW 3746   0.850   4.522   3.685
 1243SOL    HW1 3747   0.846   4.598   3.750
 1243SOL    HW2 3748   0.872   4.558   3.594
 1244SOL     OW 3749   0.685   4.736   2.527
 1244SOL    HW1 3750   0.754   4.720   2.597
 1244SOL    HW2 3751   0.612   4.793   2.565
 1245SOL     OW 3752   0.438   4.116   3.361
 1245SOL    HW1 3753   0.520   4.060   3.370
 1245SOL    HW2 3754   0.357   4.058   3.365
 1246SOL     OW 3755   1.603   4.171   2.599
 1246SOL    HW1 3756   1.529   4.217   2.549
 1246SOL    HW2 3757   1.654   4.239   2.652
 1247SOL     OW 3758   0.230   5.158   2.400
 1247SOL    HW1 3759   0.204   5.254   2.400
 1247SOL    HW2 3760   0.159   5.104   2.445
 1248SOL     OW 3761   0.240   4.815   2.748
 1248SOL    HW1 3762   0.254   4.731   2.800
 1248SOL    HW2 3763   0.185   4.879   2.803
 1249SOL     OW 3764   0.606   4.688   1.985
 1249SOL    HW1 3765   0.613   4.772   1.931
 1249SOL    HW2 3766   0.652   4.701   2.073
 1250SOL     OW 3767   1.594   3.838   3.342
 1250SOL    HW1 3768   1.576   3.905   3.270
 1250SOL    HW2 3769   1.591   3.884   3.431
 1251SOL     OW 3770   0.122   4.367   2.425
 1251SOL    HW1 3771   0.077   4.279   2.442
 1251SOL    HW2 3772   0.121   4.421   2.509
 1252SOL     OW 3773   1.689   4.646   2.474
 1252SOL    HW1 3774   1.784   4.617   2.482
 1252SOL    HW2 3775   1.681   4.711   2.399
 1253SOL     OW 3776   0.113   4.461   3.459
 1253SOL    HW1 3777   0.201   4.448   3.504
 1253SOL    HW2 3778   0.100   4.558   3.437
 1254SOL     OW 3779   1.293   4.952   3.285
 1254SOL    HW1 3780   1.330   4.879   3.227
 1254SOL    HW2 3781   1.345   4.957   3.370
 1255SOL     OW 3782   0.809   3.728   2.364
 1255SOL    HW1 3783   0.849   3.819   2.355
 1255SOL    HW2 3784   0.709   3.736   2.370
 1256SOL     OW 3785   0.197   4.700   3.126
 1256SOL    HW1 3786   0.286   4.655   3.112
 1256SOL    HW2 3787   0.124   4.635   3.107
 1257SOL     OW 3788   1.525   4.723   2.052
 1257SOL    HW1 3789   1.462   4.647   2.065
 1257SOL    HW2 3790   1.573   4.741   2.138
 1258SOL     OW 3791   0.317   3.975   3.663
 1258SOL    HW1 3792   0.388   4.046   3.669
 1258SOL    HW2 3793   0.229   4.014   3.691
 1259SOL     OW 3794   0.598   4.453   2.132
 1259SOL    HW1 3795   0.622   4.522   2.064
 1259SOL    HW2 3796   0.520   4.486   2.186
 1260SOL     OW 3797   1.281   4.069   2.806
 1260SOL    HW1 3798   1.195   4.019   2.793
 1260SOL    HW2 3799   1.343   4.015   2.862
 1261SOL     OW 3800   0.807   4.329   3.327
 1261SOL    HW1 3801   0.760   4.326   3.416
 1261SOL    HW2 3802   0.756   4.274   3.261
 1262SOL     OW 3803   1.394   4.193   3.536
 1262SOL    HW1 3804   1.374   4.236   3.624
 1262SOL    HW2 3805   1.472   4.131   3.545
 1263SOL     OW 3806   0.973   4.614   3.434
 1263SOL    HW1 3807   1.019   4.530   3.405
 1263SOL    HW2 3808   0.917   4.648   3.359
 1264SOL     OW 3809   0.991   4.134   3.104
 1264SOL    HW1 3810   0.914   4.168   3.158
 1264SOL    HW2 3811   0.957   4.083   3.025
 1265SOL     OW 3812   1.041   4.425   2.291
 1265SOL    HW1 3813   1.067   4.421   2.387
 1265SOL    HW2 3814   0.956   4.374   2.277
 1266SOL     OW 3815   0.076   4.535   2.651
 1266SOL    HW1 3816   0.175   4.523   2.660
 1266SOL    HW2 3817   0.052   4.630   2.672
 1267SOL     OW 3818   0.865   4.072   2.057
 1267SOL    HW1 3819   0.924   4.135   2.008
 1267SOL    HW2 3820   0.884   3.978   2.028
 1268SOL     OW 3821   1.719   4.309   3.693
 1268SOL    HW1 3822   1.693   4.398   3.657
 1268SOL    HW2 3823   1.717   4.241   3.620
 1269SOL     OW 3824   0.550   3.920   2.747
 1269SOL    HW1 3825   0.545   3.915   2.847
 1269SOL    HW2 3826   0.552   4.016   2.718
 1270SOL     OW 3827   1.795   4.790   2.735
 1270SOL    HW1 3828   1.733   4.775   2.659
 1270SOL    HW2 3829   1.743   4.801   2.820
 1271SOL     OW 3830   0.321   4.667   2.104
 1271SOL    HW1 3831   0.403   4.706   2.062
 1271SOL    HW2 3832   0.294   4.585   2.055
 1272SOL     OW 3833   1.458   4.459   2.590
 1272SOL    HW1 3834   1.453   4.394   2.665
 1272SOL    HW2 3835   1.538   4.518   2.603
 1273SOL     OW 3836   0.202   4.009   3.360
 1273SOL    HW1 3837   0.122   4.069   3.347
 1273SOL    HW2 3838   0.192   3.960   3.446
 1274SOL     OW 3839   1.400   3.831   2.288
 1274SOL    HW1 3840   1.376   3.794   2.198
 1274SOL    HW2 3841   1.499   3.847   2.292
 1275SOL     OW 3842   0.382   4.424   2.342
 1275SOL    HW1 3843   0.427   4.334   2.339
 1275SOL    HW2 3844   0.288   4.413   2.375
 1276SOL     OW 3845   1.547   3.946   3.591
 1276SOL    HW1 3846   1.542   3.983   3.683
 1276SOL    HW2 3847   1.475   3.877   3.579
 1277SOL     OW 3848   0.614   3.846   1.979
 1277SOL    HW1 3849   0.712   3.824   1.986
 1277SOL    HW2 3850   0.583   3.829   1.886
 1278SOL     OW 3851   0.781   3.988   3.611
 1278SOL    HW1 3852   0.848   3.927   3.654
 1278SOL    HW2 3853   0.708   4.007   3.676
 1279SOL     OW 3854   1.351   4.314   3.295
 1279SOL    HW1 3855   1.379   4.271   3.380
 1279SOL    HW2 3856   1.376   4.410   3.296
 1280SOL     OW 3857   0.922   4.227   2.761
 1280SOL    HW1 3858   0.897   4.218   2.665
 1280SOL    HW2 3859   0.970   4.145   2.792
 1281SOL     OW 3860   0.539   3.788   2.374
 1281SOL    HW1 3861   0.458   3.789   2.432
 1281SOL    HW2 3862   0.542   3.871   2.319
 1282SOL     OW 3863   0.297   3.759   2.033
 1282SOL    HW1 3864   0.346   3.843   2.012
 1282SOL    HW2 3865   0.359   3.694   2.078
 1283SOL     OW 3866   0.935   3.960   2.342
 1283SOL    HW1 3867   0.887   4.001   2.264
 1283SOL    HW2 3868   1.034   3.958   2.323
 1284SOL     OW 3869   1.076   4.407   3.326
 1284SOL    HW1 3870   0.996   4.346   3.329
 1284SOL    HW2 3871   1.157   4.354   3.302
 1285SOL     OW 3872   1.032   4.273   1.878
 1285SOL    HW1 3873   0.991   4.355   1.839
 1285SOL    HW2 3874   1.096   4.299   1.951
 1286SOL     OW 3875   0.078   4.280   3.248
 1286SOL    HW1 3876   0.170   4.279   3.207
 1286SOL    HW2 3877   0.072   4.354   3.315
 1287SOL     OW 3878   0.561   3.946   3.009
 1287SOL    HW1 3879   0.599   3.862   3.046
 1287SOL    HW2 3880   0.473   3.965   3.053
 1288SOL     OW 3881   0.866   4.178   2.504
 1288SOL    HW1 3882   0.834   4.250   2.442
 1288SOL    HW2 3883   0.890   4.097   2.451
 1289SOL     OW 3884   1.017   3.763   2.615
 1289SOL    HW1 3885   0.945   3.768   2.546
 1289SOL    HW2 3886   0.993   3.694   2.684
 1290SOL     OW 3887   1.429   4.897   2.729
 1290SOL    HW1 3888   1.374   4.813   2.722
 1290SOL    HW2 3889   1.455   4.926   2.637
 1291SOL     OW 3890   1.466   4.314   2.854
 1291SOL    HW1 3891   1.436   4.219   2.861
 1291SOL    HW2 3892   1.539   4.330   2.920
 1292SOL     OW 3893   1.857   4.557   2.239
 1292SOL    HW1 3894   1.899   4.493   2.303
 1292SOL    HW2 3895   1.819   4.506   2.161
 1293SOL     OW 3896   1.390   4.299   1.940
 1293SOL    HW1 3897   1.336   4.278   2.021
 1293SOL    HW2 3898   1.481   4.258   1.949
 1294SOL     OW 3899   0.527   3.980   2.190
 1294SOL    HW1 3900   0.554   3.921   2.115
 1294SOL    HW2 3901   0.527   4.075   2.159
 1295SOL     OW 3902   1.754   4.947   3.450
 1295SOL    HW1 3903   1.845   4.908   3.437
 1295SOL    HW2 3904   1.762   5.043   3.474
 1296SOL     OW 3905   1.638   4.823   2.941
 1296SOL    HW1 3906   1.643   4.904   3.000
 1296SOL    HW2 3907   1.552   4.825   2.890
 1297SOL     OW 3908   0.915   3.813   3.264
 1297SOL    HW1 3909   0.940   3.793   3.169
 1297SOL    HW2 3910   0.987   3.869   3.306
 1298SOL     OW 3911   0.410   4.537   3.113
 1298SOL    HW1 3912   0.496   4.549   3.163
 1298SOL    HW2 3913   0.368   4.450   3.140
 1299SOL     OW 3914   1.274   4.110   3.124
 1299SOL    HW1 3915   1.295   4.184   3.188
 1299SOL    HW2 3916   1.185   4.127   3.081
 1300SOL     OW 3917   0.566   4.261   2.727
 1300SOL    HW1 3918   0.578   4.327   2.653
 1300SOL    HW2 3919   0.612   4.295   2.810
 1301SOL     OW 3920   1.582   4.363   2.334
 1301SOL    HW1 3921   1.551   4.424   2.407
 1301SOL    HW2 3922   1.632   4.415   2.265
 1302SOL     OW 3923   0.402   4.475   3.460
 1302SOL    HW1 3924   0.470   4.530   3.413
 1302SOL    HW2 3925   0.442   4.387   3.487
 1303SOL     OW 3926   1.587   4.503   3.532
 1303SOL    HW1 3927   1.495   4.541   3.527
 1303SOL    HW2 3928   1.647   4.550   3.467
 1304SOL     OW 3929   1.013   3.829   3.632
 1304SOL    HW1 3930   1.019   3.914   3.580
 1304SOL    HW2 3931   1.045   3.753   3.575
 1305SOL     OW 3932   0.504   3.774   3.602
 1305SOL    HW1 3933   0.462   3.717   3.532
 1305SOL    HW2 3934   0.438   3.843   3.634
 1306SOL     OW 3935   0.573   4.594   2.891
 1306SOL    HW1 3936   0.617   4.683   2.882
 1306SOL    HW2 3937   0.510   4.594   2.968
 1307SOL     OW 3938   1.360   4.586   2.907
 1307SOL    HW1 3939   1.285   4.586   2.841
 1307SOL    HW2 3940   1.397   4.494   2.916
 1308SOL     OW 3941   1.209   4.249   2.137
 1308SOL    HW1 3942   1.222   4.165   2.191
 1308SOL    HW2 3943   1.180   4.323   2.197
 1309SOL     OW 3944   0.307   3.937   3.093
 1309SOL    HW1 3945   0.284   3.974   3.183
 1309SOL    HW2 3946   0.277   3.842   3.087
 1310SOL     OW 3947   0.037   5.034   3.144
 1310SOL    HW1 3948   0.090   4.985   3.212
 1310SOL    HW2 3949   0.059   5.132   3.149
 1311SOL     OW 3950   0.732   4.358   2.926
 1311SOL    HW1 3951   0.791   4.332   2.850
 1311SOL    HW2 3952   0.704   4.454   2.915
 1312SOL     OW 3953   1.728   4.659   3.716
 1312SOL    HW1 3954   1.682   4.652   3.627
 1312SOL    HW2 3955   1.666   4.703   3.782
 1313SOL     OW 3956   0.307   3.787   2.480
 1313SOL    HW1 3957   0.296   3.881   2.513
 1313SOL    HW2 3958   0.302   3.724   2.557
 1314SOL     OW 3959   1.622   4.091   2.236
 1314SOL    HW1 3960   1.624   4.015   2.300
 1314SOL    HW2 3961   1.574   4.168   2.276
 1315SOL     OW 3962   1.023   4.490   2.828
 1315SOL    HW1 3963   1.038   4.511   2.924
 1315SOL    HW2 3964   0.993   4.395   2.819
 1316SOL     OW 3965   0.350   4.622   3.666
 1316SOL    HW1 3966   0.426   4.666   3.714
 1316SOL    HW2 3967   0.385   4.575   3.584
 1317SOL     OW 3968   1.540   3.998   1.987
 1317SOL    HW1 3969   1.479   3.923   2.010
 1317SOL    HW2 3970   1.562   4.050   2.070
 1318SOL     OW 3971   1.303   4.562   1.904
 1318SOL    HW1 3972   1.337   4.469   1.919
 1318SOL    HW2 3973   1.321   4.589   1.809
 1319SOL     OW 3974   0.319   4.534   2.811
 1319SOL    HW1 3975   0.412   4.570   2.816
 1319SOL    HW2 3976   0.313   4.449   2.863
 1320SOL     OW 3977   0.339   4.233   2.868
 1320SOL    HW1 3978   0.287   4.150   2.851
 1320SOL    HW2 3979   0.416   4.238   2.804
 1321SOL     OW 3980   1.138   4.104   3.540
 1321SOL    HW1 3981   1.093   4.167   3.604
 1321SOL    HW2 3982   1.231   4.135   3.523
 1322SOL     OW 3983   1.160   3.931   3.339
 1322SOL    HW1 3984   1.160   3.995   3.416
 1322SOL    HW2 3985   1.188   3.979   3.256
 1323SOL     OW 3986   1.002   4.520   3.100
 1323SOL    HW1 3987   1.043   4.488   3.186
 1323SOL    HW2 3988   0.906   4.493   3.097
 1324SOL     OW 3989   0.040   4.268   2.976
 1324SOL    HW1 3990   0.125   4.235   2.935
 1324SOL    HW2 3991   0.053   4.283   3.074
 1325SOL     OW 3992   0.189   4.244   3.584
 1325SOL    HW1 3993   0.248   4.204   3.514
 1325SOL    HW2 3994   0.131   4.315   3.543
 1326SOL     OW 3995   1.369   4.674   3.522
 1326SOL    HW1 3996   1.408   4.763   3.542
 1326SOL    HW2 3997   1.379   4.654   3.425
 1327SOL     OW 3998   0.815   4.296   2.187
 1327SOL    HW1 3999   0.822   4.207   2.141
 1327SOL    HW2 4000   0.721   4.330   2.179
 1328SOL     OW 4001   1.657   4.328   3.068
 1328SOL    HW1 4002   1.619   4.259   3.130
 1328SOL    HW2 4003   1.739   4.292   3.024
 1329SOL     OW 4004   0.671   4.188   3.131
 1329SOL    HW1 4005   0.637   4.099   3.101
 1329SOL    HW2 4006   0.697   4.242   3.051
 1330SOL     OW 4007   0.473   4.224   2.053
 1330SOL    HW1 4008   0.534   4.304   2.057
 1330SOL    HW2 4009   0.378   4.255   2.060
 1331SOL     OW 4010   0.159   4.861   3.328
 1331SOL    HW1 4011   0.181   4.800   3.404
 1331SOL    HW2 4012   0.169   4.812   3.242
 1332SOL     OW 4013   1.347   4.783   3.096
 1332SOL    HW1 4014   1.371   4.720   3.022
 1332SOL    HW2 4015   1.257   4.823   3.078
 1333SOL     OW 4016   1.302   4.579   2.171
 1333SOL    HW1 4017   1.216   4.548   2.213
 1333SOL    HW2 4018   1.298   4.565   2.072
 1334SOL     OW 4019   1.726   3.859   2.385
 1334SOL    HW1 4020   1.799   3.842   2.318
 1334SOL    HW2 4021   1.695   3.772   2.423
 1335SOL     OW 4022   1.280   4.651   2.534
 1335SOL    HW1 4023   1.340   4.570   2.536
 1335SOL    HW2 4024   1.320   4.720   2.474
 1336SOL     OW 4025   1.841   3.899   2.825
 1336SOL    HW1 4026   1.880   3.814   2.789
 1336SOL    HW2 4027   1.743   3.901   2.806
 1337SOL     OW 4028   0.263   4.050   2.582
 1337SOL    HW1 4029   0.184   4.101   2.548
 1337SOL    HW2 4030   0.254   4.035   2.680
 1338SOL     OW 4031   0.822   4.726   3.234
 1338SOL    HW1 4032   0.862   4.725   3.142
 1338SOL    HW2 4033   0.832   4.818   3.274
 1339SOL     OW 4034   0.916   4.634   2.153
 1339SOL    HW1 4035   0.979   4.672   2.085
 1339SOL    HW2 4036   0.956   4.551   2.192
 1340SOL     OW 4037   1.014   3.960   2.833
 1340SOL    HW1 4038   1.006   3.924   2.740
 1340SOL    HW2 4039   1.012   3.884   2.898
 1341SOL     OW 4040   1.709   4.109   3.243
 1341SOL    HW1 4041   1.782   4.178   3.247
 1341SOL    HW2 4042   1.737   4.034   3.184
 1342SOL     OW 4043   0.105   4.737   3.588
 1342SOL    HW1 4044   0.028   4.704   3.642
 1342SOL    HW2 4045   0.190   4.707   3.630
 1343SOL     OW 4046   0.672   3.927   3.351
 1343SOL    HW1 4047   0.762   3.911   3.311
 1343SOL    HW2 4048   0.680   3.932   3.450
 1344SOL     OW 4049   0.075   4.069   1.895
 1344SOL    HW1 4050  -0.017   4.041   1.866
 1344SOL    HW2 4051   0.106   4.146   1.839
 1345SOL     OW 4052   1.440   4.580   3.260
 1345SOL    HW1 4053   1.383   4.632   3.197
 1345SOL    HW2 4054   1.536   4.592   3.236
 1346SOL     OW 4055   0.072   3.890   2.180
 1346SOL    HW1 4056   0.055   3.973   2.126
 1346SOL    HW2 4057   0.162   3.853   2.158
 1347SOL     OW 4058   1.183   5.059   1.981
 1347SOL    HW1 4059   1.084   5.048   1.983
 1347SOL    HW2 4060   1.217   5.074   2.074
 1348SOL     OW 4061   0.613   4.566   3.293
 1348SOL    HW1 4062   0.669   4.647   3.276
 1348SOL    HW2 4063   0.672   4.486   3.296
 1349SOL     OW 4064   0.716   4.289   3.570
 1349SOL    HW1 4065   0.735   4.354   3.644
 1349SOL    HW2 4066   0.776   4.209   3.579
 1350SOL     OW 4067   1.674   4.607   3.116
 1350SOL    HW1 4068   1.647   4.518   3.079
 1350SOL    HW2 4069   1.675   4.675   3.043
 1351SOL     OW 4070   1.225   4.049   2.311
 1351SOL    HW1 4071   1.290   3.975   2.300
 1351SOL    HW2 4072   1.245   4.099   2.395
 1352SOL     OW 4073   0.594   4.469   2.514
 1352SOL    HW1 4074   0.644   4.554   2.495
 1352SOL    HW2 4075   0.506   4.471   2.466
 1353SOL     OW 4076   1.777   4.066   3.504
 1353SOL    HW1 4077   1.760   4.097   3.410
 1353SOL    HW2 4078   1.693   4.029   3.542
 1354SOL     OW 4079   1.730   4.658   3.379
 1354SOL    HW1 4080   1.768   4.749   3.394
 1354SOL    HW2 4081   1.722   4.641   3.280
 1355SOL     OW 4082   0.859   4.680   2.723
 1355SOL    HW1 4083   0.913   4.611   2.771
 1355SOL    HW2 4084   0.827   4.749   2.789
 1356SOL     OW 4085   1.083   4.708   1.949
 1356SOL    HW1 4086   1.060   4.761   1.867
 1356SOL    HW2 4087   1.164   4.652   1.930
 1357SOL     OW 4088   1.824   3.916   3.089
 1357SOL    HW1 4089   1.820   3.826   3.133
 1357SOL    HW2 4090   1.827   3.905   2.990
 1358SOL     OW 4091   0.428   4.148   2.382
 1358SOL    HW1 4092   0.458   4.076   2.320
 1358SOL    HW2 4093   0.389   4.108   2.465
 1359SOL     OW 4094   0.317   4.271   3.142
 1359SOL    HW1 4095   0.355   4.212   3.214
 1359SOL    HW2 4096   0.357   4.245   3.054
 1360SOL     OW 4097   1.424   3.938   2.974
 1360SOL    HW1 4098   1.476   3.873   3.029
 1360SOL    HW2 4099   1.375   4.001   3.035
 1361SOL     OW 4100   1.001   3.758   3.016
 1361SOL    HW1 4101   0.938   3.686   2.985
 1361SOL    HW2 4102   1.094   3.722   3.016
 1362SOL     OW 4103   1.352   3.776   2.030
 1362SOL    HW1 4104   1.387   3.735   1.946
 1362SOL    HW2 4105   1.262   3.738   2.050
 1363SOL     OW 4106   1.300   4.177   2.553
 1363SOL    HW1 4107   1.241   4.257   2.557
 1363SOL    HW2 4108   1.315   4.142   2.646
 1364SOL     OW 4109   1.593   3.945   2.744
 1364SOL    HW1 4110   1.509   3.944   2.798
 1364SOL    HW2 4111   1.595   4.028   2.688
 1365SOL     OW 4112   0.039   4.801   2.162
 1365SOL    HW1 4113   0.138   4.790   2.153
 1365SOL    HW2 4114  -0.001   4.715   2.194
 1366SOL     OW 4115   0.230   4.352   3.837
 1366SOL    HW1 4116   0.137   4.350   3.874
 1366SOL    HW2 4117   0.231   4.313   3.745
 1367SOL     OW 4118   0.225   3.999   4.720
 1367SOL    HW1 4119   0.260   3.982   4.812
 1367SOL    HW2 4120   0.137   3.954   4.708
 1368SOL     OW 4121   0.019   4.092   4.371
 1368SOL    HW1 4122  -0.063   4.135   4.410
 1368SOL    HW2 4123  -0.009   4.019   4.308
 1369SOL     OW 4124   1.135   4.427   4.441
 1369SOL    HW1 4125   1.192   4.505   4.416
 1369SOL    HW2 4126   1.075   4.453   4.517
 1370SOL     OW 4127   1.755   4.331   3.955
 1370SOL    HW1 4128   1.743   4.318   3.856
 1370SOL    HW2 4129   1.725   4.250   4.004
 1371SOL     OW 4130   0.768   4.868   4.747
 1371SOL    HW1 4131   0.690   4.885   4.807
 1371SOL    HW2 4132   0.802   4.955   4.711
 1372SOL     OW 4133   0.685   4.736   4.389
 1372SOL    HW1 4134   0.754   4.720   4.459
 1372SOL    HW2 4135   0.612   4.793   4.427
 1373SOL     OW 4136   1.603   4.171   4.461
 1373SOL    HW1 4137   1.529   4.217   4.411
 1373SOL    HW2 4138   1.654   4.239   4.514
 1374SOL     OW 4139   0.230   5.158   4.262
 1374SOL    HW1 4140   0.204   5.254   4.262
 1374SOL    HW2 4141   0.159   5.104   4.307
 1375SOL     OW 4142   0.240   4.815   4.610
 1375SOL    HW1 4143   0.254   4.731   4.662
 1375SOL    HW2 4144   0.185   4.879   4.665
 1376SOL     OW 4145   0.606   4.688   3.847
 1376SOL    HW1 4146   0.613   4.772   3.793
 1376SOL    HW2 4147   0.652   4.701   3.935
 1377SOL     OW 4148   0.122   4.367   4.287
 1377SOL    HW1 4149   0.077   4.279   4.304
 1377SOL    HW2 4150   0.121   4.421   4.371
 1378SOL     OW 4151   1.689   4.646   4.336
 1378SOL    HW1 4152   1.784   4.617   4.344
 1378SOL    HW2 4153   1.681   4.711   4.261
 1379SOL     OW 4154   0.809   3.728   4.226
 1379SOL    HW1 4155   0.849   3.819   4.217
 1379SOL    HW2 4156   0.709   3.736   4.232
 1380SOL     OW 4157   1.525   4.723   3.914
 1380SOL    HW1 4158   1.462   4.647   3.927
 1380SOL    HW2 4159   1.573   4.741   4.000
 1381SOL     OW 4160   0.598   4.453   3.994
 1381SOL    HW1 4161   0.622   4.522   3.926
 1381SOL    HW2 4162   0.520   4.486   4.048
 1382SOL     OW 4163   1.281   4.069   4.668
 1382SOL    HW1 4164   1.195   4.019   4.655
 1382SOL    HW2 4165   1.343   4.015   4.724
 1383SOL     OW 4166   1.041   4.425   4.153
 1383SOL    HW1 4167   1.067   4.421   4.249
 1383SOL    HW2 4168   0.956   4.374   4.139
 1384SOL     OW 4169   0.076   4.535   4.513
 1384SOL    HW1 4170   0.175   4.523   4.522
 1384SOL    HW2 4171   0.052   4.630   4.534
 1385SOL     OW 4172   0.865   4.072   3.919
 1385SOL    HW1 4173   0.924   4.135   3.870
 1385SOL    HW2 4174   0.884   3.978   3.890
 1386SOL     OW 4175   0.550   3.920   4.609
 1386SOL    HW1 4176   0.545   3.915   4.709
 1386SOL    HW2 4177   0.552   4.016   4.580
 1387SOL     OW 4178   1.795   4.790   4.597
 1387SOL    HW1 4179   1.733   4.775   4.521
 1387SOL    HW2 4180   1.743   4.801   4.682
 1388SOL     OW 4181   0.321   4.667   3.966
 1388SOL    HW1 4182   0.403   4.706   3.924
 1388SOL    HW2 4183   0.294   4.585   3.917
 1389SOL     OW 4184   1.458   4.459   4.452
 1389SOL    HW1 4185   1.453   4.394   4.527
 1389SOL    HW2 4186   1.538   4.518   4.465
 1390SOL     OW 4187   1.400   3.831   4.150
 1390SOL    HW1 4188   1.376   3.794   4.060
 1390SOL    HW2 4189   1.499   3.847   4.154
 1391SOL     OW 4190   0.382   4.424   4.204
 1391SOL    HW1 4191   0.427   4.334   4.201
 1391SOL    HW2 4192   0.288   4.413   4.237
 1392SOL     OW 4193   0.614   3.846   3.841
 1392SOL    HW1 4194   0.712   3.824   3.848
 1392SOL    HW2 4195   0.583   3.829   3.748
 1393SOL     OW 4196   0.922   4.227   4.623
 1393SOL    HW1 4197   0.897   4.218   4.527
 1393SOL    HW2 4198   0.970   4.145   4.654
 1394SOL     OW 4199   0.539   3.788   4.236
 1394SOL    HW1 4200   0.458   3.789   4.294
 1394SOL    HW2 4201   0.542   3.871   4.181
 1395SOL     OW 4202   0.297   3.759   3.895
 1395SOL    HW1 4203   0.346   3.843   3.874
 1395SOL    HW2 4204   0.359   3.694   3.940
 1396SOL     OW 4205   0.935   3.960   4.204
 1396SOL    HW1 4206   0.887   4.001   4.126
 1396SOL    HW2 4207   1.034   3.958   4.185
 1397SOL     OW 4208   1.032   4.273   3.740
 1397SOL    HW1 4209   0.991   4.355   3.701
 1397SOL    HW2 4210   1.096   4.299   3.813
 1398SOL     OW 4211   0.866   4.178   4.366
 1398SOL    HW1 4212   0.834   4.250   4.304
 1398SOL    HW2 4213   0.890   4.097   4.313
 1399SOL     OW 4214   1.017   3.763   4.477
 1399SOL    HW1 4215   0.945   3.768   4.408
 1399SOL    HW2 4216   0.993   3.694   4.546
 1400SOL     OW 4217   1.429   4.897   4.591
 1400SOL    HW1 4218   1.374   4.813   4.584
 1400SOL    HW2 4219   1.455   4.926   4.499
 1401SOL     OW 4220   1.466   4.314   4.716
 1401SOL    HW1 4221   1.436   4.219   4.723
 1401SOL    HW2 4222   1.539   4.330   4.782
 1402SOL     OW 4223   1.857   4.557   4.101
 1402SOL    HW1 4224   1.899   4.493   4.165
 1402SOL    HW2 4225   1.819   4.506   4.023
 1403SOL     OW 4226   1.390   4.299   3.802
 1403SOL    HW1 4227   1.336   4.278   3.883
 1403SOL    HW2 4228   1.481   4.258   3.811
 1404SOL     OW 4229   0.527   3.980   4.052
 1404SOL    HW1 4230   0.554   3.921   3.977
 1404SOL    HW2 4231   0.527   4.075   4.021
 1405SOL     OW 4232   1.638   4.823   4.803
 1405SOL    HW1 4233   1.643   4.904   4.862
 1405SOL    HW2 4234   1.552   4.825   4.752
 1406SOL     OW 4235   0.410   4.537   4.975
 1406SOL    HW1 4236   0.496   4.549   5.025
 1406SOL    HW2 4237   0.368   4.450   5.002
 1407SOL     OW 4238   0.566   4.261   4.589
 1407SOL    HW1 4239   0.578   4.327   4.515
 1407SOL    HW2 4240   0.612   4.295   4.672
 1408SOL     OW 4241   1.582   4.363   4.196
 1408SOL    HW1 4242   1.551   4.424   4.269
 1408SOL    HW2 4243   1.632   4.415   4.127
 1409SOL     OW 4244   0.573   4.594   4.753
 1409SOL    HW1 4245   0.617   4.683   4.744
 1409SOL    HW2 4246   0.510   4.594   4.830
 1410SOL     OW 4247   1.209   4.249   3.999
 1410SOL    HW1 4248   1.222   4.165   4.053
 1410SOL    HW2 4249   1.180   4.323   4.059
 1411SOL     OW 4250   0.307   3.937   4.955
 1411SOL    HW1 4251   0.284   3.974   5.045
 1411SOL    HW2 4252   0.277   3.842   4.949
 1412SOL     OW 4253   0.732   4.358   4.788
 1412SOL    HW1 4254   0.791   4.332   4.712
 1412SOL    HW2 4255   0.704   4.454   4.777
 1413SOL     OW 4256   0.307   3.787   4.342
 1413SOL    HW1 4257   0.296   3.881   4.375
 1413SOL    HW2 4258   0.302   3.724   4.419
 1414SOL     OW 4259   1.622   4.091   4.098
 1414SOL    HW1 4260   1.624   4.015   4.162
 1414SOL    HW2 4261   1.574   4.168   4.138
 1415SOL     OW 4262   1.023   4.490   4.690
 1415SOL    HW1 4263   1.038   4.511   4.786
 1415SOL    HW2 4264   0.993   4.395   4.681
 1416SOL     OW 4265   1.540   3.998   3.849
 1416SOL    HW1 4266   1.479   3.923   3.872
 1416SOL    HW2 4267   1.562   4.050   3.932
 1417SOL     OW 4268   1.303   4.562   3.766
 1417SOL    HW1 4269   1.337   4.469   3.781
 1417SOL    HW2 4270   1.321   4.589   3.671
 1418SOL     OW 4271   0.319   4.534   4.673
 1418SOL    HW1 4272   0.412   4.570   4.678
 1418SOL    HW2 4273   0.313   4.449   4.725
 1419SOL     OW 4274   0.339   4.233   4.730
 1419SOL    HW1 4275   0.287   4.150   4.713
 1419SOL    HW2 4276   0.416   4.238   4.666
 1420SOL     OW 4277   1.002   4.520   4.962
 1420SOL    HW1 4278   1.043   4.488   5.048
 1420SOL    HW2 4279   0.906   4.493   4.959
 1421SOL     OW 4280   0.815   4.296   4.049
 1421SOL    HW1 4281   0.822   4.207   4.003
 1421SOL    HW2 4282   0.721   4.330   4.041
 1422SOL     OW 4283   0.671   4.188   4.993
 1422SOL    HW1 4284   0.637   4.099   4.963
 1422SOL    HW2 4285   0.697   4.242   4.913
 1423SOL     OW 4286   0.473   4.224   3.915
 1423SOL    HW1 4287   0.534   4.304   3.919
 1423SOL    HW2 4288   0.378   4.255   3.922
 1424SOL     OW 4289   1.302   4.579   4.033
 1424SOL    HW1 4290   1.216   4.548   4.075
 1424SOL    HW2 4291   1.298   4.565   3.934
 1425SOL     OW 4292   1.726   3.859   4.247
 1425SOL    HW1 4293   1.799   3.842   4.180
 1425SOL    HW2 4294   1.695   3.772   4.285
 1426SOL     OW 4295   1.280   4.651   4.396
 1426SOL    HW1 4296   1.340   4.570   4.398
 1426SOL    HW2 4297   1.320   4.720   4.336
 1427SOL     OW 4298   1.841   3.899   4.687
 1427SOL    HW1 4299   1.880   3.814   4.651
 1427SOL    HW2 4300   1.743   3.901   4.668
 1428SOL     OW 4301   0.263   4.050   4.444
 1428SOL    HW1 4302   0.184   4.101   4.410
 1428SOL    HW2 4303   0.254   4.035   4.542
 1429SOL     OW 4304   0.916   4.634   4.015
 1429SOL    HW1 4305   0.979   4.672   3.947
 1429SOL    HW2 4306   0.956   4.551   4.054
 1430SOL     OW 4307   1.014   3.960   4.695
 1430SOL    HW1 4308   1.006   3.924   4.602
 1430SOL    HW2 4309   1.012   3.884   4.760
 1431SOL     OW 4310   0.075   4.069   3.757
 1431SOL    HW1 4311  -0.017   4.041   3.728
 1431SOL    HW2 4312   0.106   4.146   3.701
 1432SOL     OW 4313   0.072   3.890   4.042
 1432SOL    HW1 4314   0.055   3.973   3.988
 1432SOL    HW2 4315   0.162   3.853   4.020
 1433SOL     OW 4316   1.183   5.059   3.843
 1433SOL    HW1 4317   1.084   5.048   3.845
 1433SOL    HW2 4318   1.217   5.074   3.936
 1434SOL     OW 4319   1.674   4.607   4.978
 1434SOL    HW1 4320   1.647   4.518   4.941
 1434SOL    HW2 4321   1.675   4.675   4.905
 1435SOL     OW 4322   1.225   4.049   4.173
 1435SOL    HW1 4323   1.290   3.975   4.162
 1435SOL    HW2 4324   1.245   4.099   4.257
 1436SOL     OW 4325   0.594   4.469   4.376
 1436SOL    HW1 4326   0.644   4.554   4.357
 1436SOL    HW2 4327   0.506   4.471   4.328
 1437SOL     OW 4328   0.859   4.680   4.585
 1437SOL    HW1 4329   0.913   4.611   4.633
 1437SOL    HW2 4330   0.827   4.749   4.651
 1438SOL     OW 4331   1.083   4.708   3.811
 1438SOL    HW1 4332   1.060   4.761   3.729
 1438SOL    HW2 4333   1.164   4.652   3.792
 1439SOL     OW 4334   1.824   3.916   4.951
 1439SOL    HW1 4335   1.820   3.826   4.995
 1439SOL    HW2 4336   1.827   3.905   4.852
 1440SOL     OW 4337   0.428   4.148   4.244
 1440SOL    HW1 4338   0.458   4.076   4.182
 1440SOL    HW2 4339   0.389   4.108   4.327
 1441SOL     OW 4340   1.424   3.938   4.836
 1441SOL    HW1 4341   1.476   3.873   4.891
 1441SOL    HW2 4342   1.375   4.001   4.897
 1442SOL     OW 4343   1.352   3.776   3.892
 1442SOL    HW1 4344   1.387   3.735   3.808
 1442SOL    HW2 4345   1.262   3.738   3.912
 1443SOL     OW 4346   1.300   4.177   4.415
 1443SOL    HW1 4347   1.241   4.257   4.419
 1443SOL    HW2 4348   1.315   4.142   4.508
 1444SOL     OW 4349   1.593   3.945   4.606
 1444SOL    HW1 4350   1.509   3.944   4.660
 1444SOL    HW2 4351   1.595   4.028   4.550
 1445SOL     OW 4352   0.039   4.801   4.024
 1445SOL    HW1 4353   0.138   4.790   4.015
 1445SOL    HW2 4354  -0.001   4.715   4.056
 1446SOL     OW 4355   2.092   0.628   0.113
 1446SOL    HW1 4356   1.999   0.626   0.150
 1446SOL    HW2 4357   2.093   0.589   0.021
 1447SOL     OW 4358   2.087   0.275   0.996
 1447SOL    HW1 4359   2.122   0.258   1.088
 1447SOL    HW2 4360   1.999   0.230   0.984
 1448SOL     OW 4361   1.881   0.368   0.647
 1448SOL    HW1 4362   1.799   0.411   0.686
 1448SOL    HW2 4363   1.853   0.295   0.584
 1449SOL     OW 4364   2.431   1.275   1.165
 1449SOL    HW1 4365   2.338   1.268   1.128
 1449SOL    HW2 4366   2.442   1.364   1.209
 1450SOL     OW 4367   3.417   1.511   0.703
 1450SOL    HW1 4368   3.360   1.495   0.784
 1450SOL    HW2 4369   3.358   1.521   0.623
 1451SOL     OW 4370   2.997   0.703   0.717
 1451SOL    HW1 4371   3.054   0.781   0.692
 1451SOL    HW2 4372   2.937   0.729   0.793
 1452SOL     OW 4373   3.617   0.607   0.231
 1452SOL    HW1 4374   3.605   0.594   0.132
 1452SOL    HW2 4375   3.587   0.526   0.280
 1453SOL     OW 4376   2.630   1.144   1.023
 1453SOL    HW1 4377   2.552   1.161   1.083
 1453SOL    HW2 4378   2.664   1.231   0.987
 1454SOL     OW 4379   2.712   0.798   1.823
 1454SOL    HW1 4380   2.708   0.874   1.888
 1454SOL    HW2 4381   2.734   0.834   1.732
 1455SOL     OW 4382   2.547   1.012   0.665
 1455SOL    HW1 4383   2.616   0.996   0.735
 1455SOL    HW2 4384   2.474   1.069   0.703
 1456SOL     OW 4385   2.548   1.161   1.803
 1456SOL    HW1 4386   2.608   1.240   1.817
 1456SOL    HW2 4387   2.462   1.192   1.762
 1457SOL     OW 4388   2.197   1.435   1.061
 1457SOL    HW1 4389   2.119   1.404   1.008
 1457SOL    HW2 4390   2.255   1.493   1.004
 1458SOL     OW 4391   3.322   1.505   1.339
 1458SOL    HW1 4392   3.346   1.599   1.365
 1458SOL    HW2 4393   3.306   1.451   1.421
 1459SOL     OW 4394   2.300   0.392   1.499
 1459SOL    HW1 4395   2.382   0.336   1.508
 1459SOL    HW2 4396   2.219   0.334   1.503
 1460SOL     OW 4397   3.465   0.447   0.737
 1460SOL    HW1 4398   3.391   0.493   0.687
 1460SOL    HW2 4399   3.516   0.515   0.790
 1461SOL     OW 4400   2.093   1.713   0.483
 1461SOL    HW1 4401   2.127   1.790   0.537
 1461SOL    HW2 4402   2.137   1.713   0.393
 1462SOL     OW 4403   2.989   1.341   1.690
 1462SOL    HW1 4404   3.036   1.341   1.778
 1462SOL    HW2 4405   2.941   1.254   1.679
 1463SOL     OW 4406   2.092   1.434   0.538
 1463SOL    HW1 4407   2.066   1.530   0.538
 1463SOL    HW2 4408   2.021   1.380   0.583
 1464SOL     OW 4409   2.102   1.091   0.886
 1464SOL    HW1 4410   2.116   1.007   0.938
 1464SOL    HW2 4411   2.047   1.155   0.941
 1465SOL     OW 4412   2.482   1.786   1.439
 1465SOL    HW1 4413   2.390   1.769   1.474
 1465SOL    HW2 4414   2.510   1.878   1.465
 1466SOL     OW 4415   2.468   0.964   0.123
 1466SOL    HW1 4416   2.475   1.048   0.069
 1466SOL    HW2 4417   2.514   0.977   0.211
 1467SOL     OW 4418   3.456   0.114   1.480
 1467SOL    HW1 4419   3.438   0.181   1.408
 1467SOL    HW2 4420   3.453   0.160   1.569
 1468SOL     OW 4421   1.984   0.643   0.563
 1468SOL    HW1 4422   1.939   0.555   0.580
 1468SOL    HW2 4423   1.983   0.697   0.647
 1469SOL     OW 4424   3.704   1.767   0.359
 1469SOL    HW1 4425   3.758   1.738   0.439
 1469SOL    HW2 4426   3.734   1.857   0.330
 1470SOL     OW 4427   1.889   1.596   0.117
 1470SOL    HW1 4428   1.870   1.500   0.138
 1470SOL    HW2 4429   1.856   1.654   0.192
 1471SOL     OW 4430   3.551   0.922   0.612
 1471SOL    HW1 4431   3.646   0.893   0.620
 1471SOL    HW2 4432   3.543   0.987   0.537
 1472SOL     OW 4433   3.503   1.108   0.432
 1472SOL    HW1 4434   3.589   1.110   0.380
 1472SOL    HW2 4435   3.517   1.155   0.520
 1473SOL     OW 4436   1.975   0.737   1.597
 1473SOL    HW1 4437   2.063   0.724   1.642
 1473SOL    HW2 4438   1.962   0.834   1.575
 1474SOL     OW 4439   2.475   1.365   0.726
 1474SOL    HW1 4440   2.426   1.278   0.735
 1474SOL    HW2 4441   2.452   1.408   0.639
 1475SOL     OW 4442   3.155   1.228   1.423
 1475SOL    HW1 4443   3.192   1.155   1.365
 1475SOL    HW2 4444   3.207   1.233   1.508
 1476SOL     OW 4445   2.671   0.004   0.502
 1476SOL    HW1 4446   2.711   0.095   0.493
 1476SOL    HW2 4447   2.571   0.012   0.508
 1477SOL     OW 4448   2.059   0.976   1.264
 1477SOL    HW1 4449   2.148   0.931   1.250
 1477SOL    HW2 4450   1.986   0.911   1.245
 1478SOL     OW 4451   3.387   0.999   0.190
 1478SOL    HW1 4452   3.324   0.923   0.203
 1478SOL    HW2 4453   3.435   1.017   0.276
 1479SOL     OW 4454   3.049   1.792   1.616
 1479SOL    HW1 4455   3.073   1.852   1.540
 1479SOL    HW2 4456   3.056   1.697   1.586
 1480SOL     OW 4457   2.179   0.251   1.801
 1480SOL    HW1 4458   2.250   0.322   1.807
 1480SOL    HW2 4459   2.091   0.290   1.829
 1481SOL     OW 4460   3.328   1.417   0.953
 1481SOL    HW1 4461   3.269   1.423   1.033
 1481SOL    HW2 4462   3.313   1.329   0.907
 1482SOL     OW 4463   3.529   1.714   0.572
 1482SOL    HW1 4464   3.488   1.691   0.484
 1482SOL    HW2 4465   3.511   1.640   0.637
 1483SOL     OW 4466   2.460   0.729   0.270
 1483SOL    HW1 4467   2.484   0.798   0.202
 1483SOL    HW2 4468   2.382   0.762   0.324
 1484SOL     OW 4469   3.143   0.345   0.944
 1484SOL    HW1 4470   3.057   0.295   0.931
 1484SOL    HW2 4471   3.205   0.291   1.000
 1485SOL     OW 4472   3.438   1.662   0.307
 1485SOL    HW1 4473   3.527   1.708   0.310
 1485SOL    HW2 4474   3.417   1.638   0.212
 1486SOL     OW 4475   2.669   0.605   1.465
 1486SOL    HW1 4476   2.622   0.602   1.554
 1486SOL    HW2 4477   2.618   0.550   1.399
 1487SOL     OW 4478   3.256   0.469   1.674
 1487SOL    HW1 4479   3.236   0.512   1.762
 1487SOL    HW2 4480   3.334   0.407   1.683
 1488SOL     OW 4481   2.835   0.890   1.572
 1488SOL    HW1 4482   2.881   0.806   1.543
 1488SOL    HW2 4483   2.779   0.924   1.497
 1489SOL     OW 4484   2.853   0.410   1.242
 1489SOL    HW1 4485   2.776   0.444   1.296
 1489SOL    HW2 4486   2.819   0.359   1.163
 1490SOL     OW 4487   2.903   0.701   0.429
 1490SOL    HW1 4488   2.929   0.697   0.525
 1490SOL    HW2 4489   2.818   0.650   0.415
 1491SOL     OW 4490   1.938   0.811   0.789
 1491SOL    HW1 4491   2.037   0.799   0.798
 1491SOL    HW2 4492   1.914   0.906   0.810
 1492SOL     OW 4493   1.992   1.821   1.571
 1492SOL    HW1 4494   1.982   1.806   1.670
 1492SOL    HW2 4495   1.906   1.857   1.535
 1493SOL     OW 4496   2.727   0.348   0.195
 1493SOL    HW1 4497   2.786   0.411   0.146
 1493SOL    HW2 4498   2.746   0.254   0.166
 1494SOL     OW 4499   3.581   0.585   1.831
 1494SOL    HW1 4500   3.555   0.674   1.795
 1494SOL    HW2 4501   3.579   0.517   1.758
 1495SOL     OW 4502   3.224   1.144   0.545
 1495SOL    HW1 4503   3.307   1.115   0.497
 1495SOL    HW2 4504   3.175   1.211   0.489
 1496SOL     OW 4505   2.412   0.196   0.885
 1496SOL    HW1 4506   2.407   0.191   0.985
 1496SOL    HW2 4507   2.414   0.292   0.856
 1497SOL     OW 4508   2.870   1.456   0.477
 1497SOL    HW1 4509   2.824   1.528   0.425
 1497SOL    HW2 4510   2.866   1.476   0.575
 1498SOL     OW 4511   2.213   1.801   0.853
 1498SOL    HW1 4512   2.263   1.715   0.859
 1498SOL    HW2 4513   2.278   1.878   0.850
 1499SOL     OW 4514   3.657   1.066   0.873
 1499SOL    HW1 4515   3.595   1.051   0.797
 1499SOL    HW2 4516   3.605   1.077   0.958
 1500SOL     OW 4517   3.089   1.550   1.506
 1500SOL    HW1 4518   3.095   1.473   1.570
 1500SOL    HW2 4519   3.037   1.524   1.426
 1501SOL     OW 4520   2.183   0.943   0.242
 1501SOL    HW1 4521   2.265   0.982   0.200
 1501SOL    HW2 4522   2.156   0.861   0.193
 1502SOL     OW 4523   3.320   0.735   0.728
 1502SOL    HW1 4524   3.315   0.670   0.803
 1502SOL    HW2 4525   3.400   0.794   0.741
 1503SOL     OW 4526   2.323   1.266   1.727
 1503SOL    HW1 4527   2.273   1.267   1.641
 1503SOL    HW2 4528   2.260   1.248   1.803
 1504SOL     OW 4529   2.973   1.776   0.237
 1504SOL    HW1 4530   2.913   1.714   0.287
 1504SOL    HW2 4531   3.004   1.732   0.152
 1505SOL     OW 4532   2.064   0.285   1.498
 1505SOL    HW1 4533   1.984   0.345   1.485
 1505SOL    HW2 4534   2.054   0.236   1.584
 1506SOL     OW 4535   3.494   1.377   0.081
 1506SOL    HW1 4536   3.462   1.471   0.071
 1506SOL    HW2 4537   3.418   1.314   0.069
 1507SOL     OW 4538   2.326   1.743   0.323
 1507SOL    HW1 4539   2.359   1.782   0.409
 1507SOL    HW2 4540   2.402   1.736   0.258
 1508SOL     OW 4541   3.262   0.107   0.426
 1508SOL    HW1 4542   3.238   0.070   0.336
 1508SOL    HW2 4543   3.361   0.123   0.430
 1509SOL     OW 4544   2.111   1.785   1.241
 1509SOL    HW1 4545   2.168   1.720   1.291
 1509SOL    HW2 4546   2.095   1.752   1.148
 1510SOL     OW 4547   2.802   1.698   0.904
 1510SOL    HW1 4548   2.882   1.641   0.925
 1510SOL    HW2 4549   2.753   1.658   0.827
 1511SOL     OW 4550   2.244   0.700   0.480
 1511SOL    HW1 4551   2.289   0.610   0.477
 1511SOL    HW2 4552   2.150   0.689   0.513
 1512SOL     OW 4553   3.409   0.222   1.729
 1512SOL    HW1 4554   3.404   0.259   1.821
 1512SOL    HW2 4555   3.337   0.153   1.717
 1513SOL     OW 4556   2.476   0.122   0.117
 1513SOL    HW1 4557   2.574   0.100   0.124
 1513SOL    HW2 4558   2.445   0.105   0.024
 1514SOL     OW 4559   2.643   0.264   1.749
 1514SOL    HW1 4560   2.710   0.203   1.792
 1514SOL    HW2 4561   2.570   0.283   1.814
 1515SOL     OW 4562   2.750   1.514   1.195
 1515SOL    HW1 4563   2.727   1.489   1.101
 1515SOL    HW2 4564   2.811   1.445   1.234
 1516SOL     OW 4565   3.213   0.590   1.433
 1516SOL    HW1 4566   3.241   0.547   1.518
 1516SOL    HW2 4567   3.238   0.686   1.434
 1517SOL     OW 4568   2.665   1.402   0.924
 1517SOL    HW1 4569   2.755   1.416   0.882
 1517SOL    HW2 4570   2.594   1.404   0.853
 1518SOL     OW 4571   2.784   0.503   0.899
 1518SOL    HW1 4572   2.759   0.494   0.803
 1518SOL    HW2 4573   2.832   0.421   0.930
 1519SOL     OW 4574   2.401   0.064   0.512
 1519SOL    HW1 4575   2.320   0.065   0.570
 1519SOL    HW2 4576   2.404   0.147   0.457
 1520SOL     OW 4577   3.296   1.188   0.041
 1520SOL    HW1 4578   3.328   1.112   0.098
 1520SOL    HW2 4579   3.204   1.215   0.071
 1521SOL     OW 4580   2.159   0.035   0.171
 1521SOL    HW1 4581   2.208   0.119   0.150
 1521SOL    HW2 4582   2.221  -0.030   0.216
 1522SOL     OW 4583   2.797   0.236   0.480
 1522SOL    HW1 4584   2.749   0.277   0.402
 1522SOL    HW2 4585   2.896   0.234   0.461
 1523SOL     OW 4586   2.938   0.683   1.464
 1523SOL    HW1 4587   2.858   0.622   1.467
 1523SOL    HW2 4588   3.019   0.630   1.440
 1524SOL     OW 4589   3.089   1.570   0.793
 1524SOL    HW1 4590   3.110   1.644   0.728
 1524SOL    HW2 4591   3.157   1.570   0.866
 1525SOL     OW 4592   2.321   1.152   0.741
 1525SOL    HW1 4593   2.250   1.125   0.806
 1525SOL    HW2 4594   2.295   1.124   0.648
 1526SOL     OW 4595   3.133   1.797   0.591
 1526SOL    HW1 4596   3.177   1.861   0.527
 1526SOL    HW2 4597   3.083   1.849   0.661
 1527SOL     OW 4598   2.894   0.549   0.016
 1527SOL    HW1 4599   2.853   0.631  -0.023
 1527SOL    HW2 4600   2.958   0.575   0.089
 1528SOL     OW 4601   1.940   0.556   1.386
 1528SOL    HW1 4602   2.032   0.555   1.345
 1528SOL    HW2 4603   1.934   0.630   1.453
 1529SOL     OW 4604   2.423   0.222   1.147
 1529SOL    HW1 4605   2.461   0.138   1.184
 1529SOL    HW2 4606   2.335   0.241   1.191
 1530SOL     OW 4607   2.728   0.454   0.642
 1530SOL    HW1 4608   2.696   0.526   0.580
 1530SOL    HW2 4609   2.752   0.373   0.589
 1531SOL     OW 4610   2.879   0.039   0.753
 1531SOL    HW1 4611   2.807   0.044   0.684
 1531SOL    HW2 4612   2.855  -0.030   0.822
 1532SOL     OW 4613   3.291   1.173   0.867
 1532SOL    HW1 4614   3.236   1.089   0.860
 1532SOL    HW2 4615   3.317   1.202   0.775
 1533SOL     OW 4616   3.328   0.590   0.992
 1533SOL    HW1 4617   3.298   0.495   0.999
 1533SOL    HW2 4618   3.401   0.606   1.058
 1534SOL     OW 4619   3.719   0.833   0.377
 1534SOL    HW1 4620   3.761   0.769   0.441
 1534SOL    HW2 4621   3.681   0.782   0.299
 1535SOL     OW 4622   2.350   1.385   0.174
 1535SOL    HW1 4623   2.263   1.370   0.221
 1535SOL    HW2 4624   2.333   1.411   0.079
 1536SOL     OW 4625   3.526   1.280   0.657
 1536SOL    HW1 4626   3.625   1.288   0.671
 1536SOL    HW2 4627   3.481   1.364   0.688
 1537SOL     OW 4628   3.252   0.575   0.078
 1537SOL    HW1 4629   3.198   0.554   0.159
 1537SOL    HW2 4630   3.343   0.534   0.087
 1538SOL     OW 4631   2.389   0.256   0.328
 1538SOL    HW1 4632   2.416   0.197   0.253
 1538SOL    HW2 4633   2.389   0.351   0.297
 1539SOL     OW 4634   3.616   1.223   1.588
 1539SOL    HW1 4635   3.707   1.184   1.575
 1539SOL    HW2 4636   3.624   1.319   1.612
 1540SOL     OW 4637   2.926   1.347   1.340
 1540SOL    HW1 4638   2.846   1.324   1.395
 1540SOL    HW2 4639   3.009   1.321   1.389
 1541SOL     OW 4640   3.454   1.629   1.625
 1541SOL    HW1 4641   3.481   1.663   1.535
 1541SOL    HW2 4642   3.533   1.591   1.671
 1542SOL     OW 4643   2.973   1.195   1.100
 1542SOL    HW1 4644   2.933   1.239   1.181
 1542SOL    HW2 4645   2.932   1.232   1.017
 1543SOL     OW 4646   3.500   1.099   1.079
 1543SOL    HW1 4647   3.505   1.180   1.138
 1543SOL    HW2 4648   3.414   1.101   1.028
 1544SOL     OW 4649   2.777   0.089   1.402
 1544SOL    HW1 4650   2.802   0.069   1.307
 1544SOL    HW2 4651   2.849   0.145   1.444
 1545SOL     OW 4652   2.842   1.116   1.719
 1545SOL    HW1 4653   2.743   1.122   1.729
 1545SOL    HW2 4654   2.865   1.036   1.663
 1546SOL     OW 4655   2.567   1.050   0.368
 1546SOL    HW1 4656   2.553   1.057   0.467
 1546SOL    HW2 4657   2.651   0.999   0.350
 1547SOL     OW 4658   2.272   0.813   1.251
 1547SOL    HW1 4659   2.358   0.825   1.301
 1547SOL    HW2 4660   2.230   0.726   1.278
 1548SOL     OW 4661   3.136   0.386   1.262
 1548SOL    HW1 4662   3.157   0.460   1.326
 1548SOL    HW2 4663   3.047   0.403   1.219
 1549SOL     OW 4664   1.926   1.564   1.331
 1549SOL    HW1 4665   1.880   1.646   1.297
 1549SOL    HW2 4666   2.024   1.583   1.340
 1550SOL     OW 4667   2.229   1.100   0.501
 1550SOL    HW1 4668   2.222   1.183   0.445
 1550SOL    HW2 4669   2.233   1.020   0.441
 1551SOL     OW 4670   2.428   0.537   0.865
 1551SOL    HW1 4671   2.440   0.603   0.791
 1551SOL    HW2 4672   2.474   0.571   0.948
 1552SOL     OW 4673   3.114   1.348   0.388
 1552SOL    HW1 4674   3.164   1.425   0.428
 1552SOL    HW2 4675   3.019   1.350   0.420
 1553SOL     OW 4676   3.134   1.445   1.142
 1553SOL    HW1 4677   3.181   1.458   1.229
 1553SOL    HW2 4678   3.068   1.371   1.151
 1554SOL     OW 4679   3.444   0.639   0.472
 1554SOL    HW1 4680   3.413   0.700   0.545
 1554SOL    HW2 4681   3.494   0.691   0.403
 1555SOL     OW 4682   2.216   1.510   1.329
 1555SOL    HW1 4683   2.195   1.466   1.242
 1555SOL    HW2 4684   2.313   1.536   1.332
 1556SOL     OW 4685   2.264   0.751   1.598
 1556SOL    HW1 4686   2.332   0.806   1.551
 1556SOL    HW2 4687   2.304   0.663   1.625
 1557SOL     OW 4688   3.449   0.779   1.670
 1557SOL    HW1 4689   3.357   0.817   1.665
 1557SOL    HW2 4690   3.509   0.826   1.605
 1558SOL     OW 4691   2.875   0.105   1.770
 1558SOL    HW1 4692   2.881   0.190   1.718
 1558SOL    HW2 4693   2.907   0.029   1.713
 1559SOL     OW 4694   2.366   0.050   1.740
 1559SOL    HW1 4695   2.324  -0.007   1.670
 1559SOL    HW2 4696   2.300   0.119   1.772
 1560SOL     OW 4697   2.435   0.870   1.029
 1560SOL    HW1 4698   2.479   0.959   1.020
 1560SOL    HW2 4699   2.372   0.870   1.106
 1561SOL     OW 4700   3.222   0.862   1.045
 1561SOL    HW1 4701   3.147   0.862   0.979
 1561SOL    HW2 4702   3.259   0.770   1.054
 1562SOL     OW 4703   3.071   0.525   0.275
 1562SOL    HW1 4704   3.084   0.441   0.329
 1562SOL    HW2 4705   3.042   0.599   0.335
 1563SOL     OW 4706   2.169   0.213   1.231
 1563SOL    HW1 4707   2.146   0.250   1.321
 1563SOL    HW2 4708   2.139   0.118   1.225
 1564SOL     OW 4709   1.899   1.310   1.282
 1564SOL    HW1 4710   1.952   1.261   1.350
 1564SOL    HW2 4711   1.921   1.408   1.287
 1565SOL     OW 4712   2.594   0.634   1.064
 1565SOL    HW1 4713   2.653   0.608   0.988
 1565SOL    HW2 4714   2.566   0.730   1.053
 1566SOL     OW 4715   3.590   0.935   1.854
 1566SOL    HW1 4716   3.544   0.928   1.765
 1566SOL    HW2 4717   3.528   0.979   1.920
 1567SOL     OW 4718   2.169   0.063   0.618
 1567SOL    HW1 4719   2.158   0.157   0.651
 1567SOL    HW2 4720   2.164   0.000   0.695
 1568SOL     OW 4721   3.484   0.367   0.374
 1568SOL    HW1 4722   3.486   0.291   0.438
 1568SOL    HW2 4723   3.436   0.444   0.414
 1569SOL     OW 4724   2.885   0.766   0.966
 1569SOL    HW1 4725   2.900   0.787   1.062
 1569SOL    HW2 4726   2.855   0.671   0.957
 1570SOL     OW 4727   2.842   1.573   1.700
 1570SOL    HW1 4728   2.822   1.617   1.612
 1570SOL    HW2 4729   2.881   1.482   1.684
 1571SOL     OW 4730   3.721   1.518   1.605
 1571SOL    HW1 4731   3.735   1.545   1.510
 1571SOL    HW2 4732   3.804   1.540   1.658
 1572SOL     OW 4733   2.212   0.898   1.804
 1572SOL    HW1 4734   2.288   0.942   1.852
 1572SOL    HW2 4735   2.247   0.851   1.722
 1573SOL     OW 4736   3.402   0.274   0.125
 1573SOL    HW1 4737   3.341   0.199   0.148
 1573SOL    HW2 4738   3.424   0.326   0.208
 1574SOL     OW 4739   3.165   0.838   0.042
 1574SOL    HW1 4740   3.199   0.745   0.057
 1574SOL    HW2 4741   3.183   0.865  -0.053
 1575SOL     OW 4742   2.930   1.333   0.849
 1575SOL    HW1 4743   2.937   1.249   0.794
 1575SOL    HW2 4744   2.992   1.402   0.813
 1576SOL     OW 4745   2.181   0.810   0.949
 1576SOL    HW1 4746   2.274   0.846   0.954
 1576SOL    HW2 4747   2.175   0.725   1.001
 1577SOL     OW 4748   2.201   0.509   1.006
 1577SOL    HW1 4749   2.149   0.426   0.989
 1577SOL    HW2 4750   2.278   0.514   0.942
 1578SOL     OW 4751   3.000   0.380   1.678
 1578SOL    HW1 4752   2.955   0.443   1.742
 1578SOL    HW2 4753   3.093   0.411   1.661
 1579SOL     OW 4754   3.022   0.207   1.477
 1579SOL    HW1 4755   3.022   0.271   1.554
 1579SOL    HW2 4756   3.050   0.255   1.394
 1580SOL     OW 4757   1.870   1.326   0.200
 1580SOL    HW1 4758   1.777   1.347   0.169
 1580SOL    HW2 4759   1.880   1.227   0.213
 1581SOL     OW 4760   1.950   1.801   0.927
 1581SOL    HW1 4761   1.908   1.715   0.900
 1581SOL    HW2 4762   2.044   1.804   0.893
 1582SOL     OW 4763   2.366   1.568   0.910
 1582SOL    HW1 4764   2.432   1.642   0.919
 1582SOL    HW2 4765   2.410   1.489   0.868
 1583SOL     OW 4766   2.864   0.796   1.238
 1583SOL    HW1 4767   2.905   0.764   1.324
 1583SOL    HW2 4768   2.768   0.769   1.235
 1584SOL     OW 4769   1.902   0.544   1.114
 1584SOL    HW1 4770   1.987   0.511   1.073
 1584SOL    HW2 4771   1.915   0.559   1.212
 1585SOL     OW 4772   2.051   0.520   1.722
 1585SOL    HW1 4773   2.110   0.480   1.652
 1585SOL    HW2 4774   1.993   0.591   1.681
 1586SOL     OW 4775   3.231   0.950   1.660
 1586SOL    HW1 4776   3.270   1.039   1.680
 1586SOL    HW2 4777   3.241   0.930   1.563
 1587SOL     OW 4778   2.677   0.572   0.325
 1587SOL    HW1 4779   2.684   0.483   0.279
 1587SOL    HW2 4780   2.583   0.606   0.317
 1588SOL     OW 4781   3.519   0.604   1.206
 1588SOL    HW1 4782   3.481   0.535   1.268
 1588SOL    HW2 4783   3.601   0.568   1.162
 1589SOL     OW 4784   2.114   1.564   1.744
 1589SOL    HW1 4785   2.084   1.621   1.820
 1589SOL    HW2 4786   2.107   1.467   1.770
 1590SOL     OW 4787   2.533   0.464   1.269
 1590SOL    HW1 4788   2.499   0.375   1.239
 1590SOL    HW2 4789   2.559   0.518   1.189
 1591SOL     OW 4790   2.792   1.678   1.465
 1591SOL    HW1 4791   2.768   1.660   1.370
 1591SOL    HW2 4792   2.822   1.772   1.475
 1592SOL     OW 4793   2.335   0.500   0.191
 1592SOL    HW1 4794   2.396   0.580   0.195
 1592SOL    HW2 4795   2.240   0.531   0.198
 1593SOL     OW 4796   2.021   1.137   1.466
 1593SOL    HW1 4797   2.043   1.076   1.542
 1593SOL    HW2 4798   2.031   1.088   1.380
 1594SOL     OW 4799   3.209   1.059   1.234
 1594SOL    HW1 4800   3.233   0.996   1.160
 1594SOL    HW2 4801   3.119   1.099   1.216
 1595SOL     OW 4802   3.164   0.855   0.309
 1595SOL    HW1 4803   3.078   0.824   0.351
 1595SOL    HW2 4804   3.160   0.841   0.210
 1596SOL     OW 4805   3.621   1.747   1.154
 1596SOL    HW1 4806   3.682   1.777   1.081
 1596SOL    HW2 4807   3.583   1.658   1.132
 1597SOL     OW 4808   3.114   1.731   1.128
 1597SOL    HW1 4809   3.198   1.736   1.074
 1597SOL    HW2 4810   3.091   1.635   1.146
 1598SOL     OW 4811   1.945   1.258   1.022
 1598SOL    HW1 4812   1.940   1.257   1.122
 1598SOL    HW2 4813   1.862   1.217   0.984
 1599SOL     OW 4814   2.550   1.662   1.716
 1599SOL    HW1 4815   2.494   1.743   1.725
 1599SOL    HW2 4816   2.602   1.666   1.630
 1600SOL     OW 4817   2.765   0.086   0.133
 1600SOL    HW1 4818   2.816   0.087   0.047
 1600SOL    HW2 4819   2.821   0.044   0.204
 1601SOL     OW 4820   3.588   0.135   0.523
 1601SOL    HW1 4821   3.661   0.118   0.456
 1601SOL    HW2 4822   3.557   0.048   0.561
 1602SOL     OW 4823   3.250   1.573   0.477
 1602SOL    HW1 4824   3.317   1.585   0.403
 1602SOL    HW2 4825   3.210   1.662   0.500
 1603SOL     OW 4826   1.992   1.794   1.851
 1603SOL    HW1 4827   1.951   1.720   1.904
 1603SOL    HW2 4828   2.056   1.845   1.909
 1604SOL     OW 4829   3.142   0.927   0.672
 1604SOL    HW1 4830   3.202   0.846   0.674
 1604SOL    HW2 4831   3.182   0.996   0.612
 1605SOL     OW 4832   2.692   1.273   1.422
 1605SOL    HW1 4833   2.687   1.306   1.517
 1605SOL    HW2 4834   2.606   1.292   1.376
 1606SOL     OW 4835   2.534   1.616   0.154
 1606SOL    HW1 4836   2.543   1.626   0.055
 1606SOL    HW2 4837   2.494   1.527   0.175
 1607SOL     OW 4838   3.512   1.720   1.394
 1607SOL    HW1 4839   3.565   1.730   1.310
 1607SOL    HW2 4840   3.485   1.810   1.428
 1608SOL     OW 4841   3.703   0.175   0.963
 1608SOL    HW1 4842   3.742   0.090   0.927
 1608SOL    HW2 4843   3.605   0.177   0.944
 1609SOL     OW 4844   2.125   0.326   0.720
 1609SOL    HW1 4845   2.046   0.377   0.686
 1609SOL    HW2 4846   2.116   0.311   0.818
 1610SOL     OW 4847   3.056   1.612   0.031
 1610SOL    HW1 4848   3.062   1.519   0.068
 1610SOL    HW2 4849   2.997   1.612  -0.049
 1611SOL     OW 4850   2.684   1.002   1.372
 1611SOL    HW1 4851   2.724   1.001   1.280
 1611SOL    HW2 4852   2.694   1.094   1.412
 1612SOL     OW 4853   2.778   0.910   0.291
 1612SOL    HW1 4854   2.841   0.948   0.223
 1612SOL    HW2 4855   2.818   0.827   0.330
 1613SOL     OW 4856   3.366   1.607   0.044
 1613SOL    HW1 4857   3.274   1.644   0.051
 1613SOL    HW2 4858   3.404   1.627  -0.046
 1614SOL     OW 4859   2.234   1.288   1.490
 1614SOL    HW1 4860   2.221   1.381   1.456
 1614SOL    HW2 4861   2.150   1.236   1.477
 1615SOL     OW 4862   3.476   1.292   1.289
 1615SOL    HW1 4863   3.536   1.295   1.369
 1615SOL    HW2 4864   3.401   1.356   1.302
 1616SOL     OW 4865   2.901   1.098   0.696
 1616SOL    HW1 4866   2.831   1.051   0.750
 1616SOL    HW2 4867   2.960   1.030   0.653
 1617SOL     OW 4868   2.876   0.236   0.971
 1617SOL    HW1 4869   2.868   0.200   0.878
 1617SOL    HW2 4870   2.874   0.160   1.036
 1618SOL     OW 4871   2.452   1.487   0.491
 1618SOL    HW1 4872   2.494   1.429   0.421
 1618SOL    HW2 4873   2.408   1.566   0.447
 1619SOL     OW 4874   3.571   0.385   1.381
 1619SOL    HW1 4875   3.644   0.454   1.385
 1619SOL    HW2 4876   3.599   0.310   1.322
 1620SOL     OW 4877   2.117   1.348   0.290
 1620SOL    HW1 4878   2.021   1.349   0.263
 1620SOL    HW2 4879   2.129   1.401   0.374
 1621SOL     OW 4880   1.967   1.013   1.726
 1621SOL    HW1 4881   1.890   0.980   1.780
 1621SOL    HW2 4882   2.052   0.983   1.768
 1622SOL     OW 4883   2.534   0.203   1.489
 1622SOL    HW1 4884   2.624   0.187   1.449
 1622SOL    HW2 4885   2.542   0.208   1.588
 1623SOL     OW 4886   3.302   0.856   1.398
 1623SOL    HW1 4887   3.245   0.908   1.335
 1623SOL    HW2 4888   3.398   0.868   1.374
 1624SOL     OW 4889   1.934   0.166   0.318
 1624SOL    HW1 4890   1.917   0.249   0.264
 1624SOL    HW2 4891   2.024   0.129   0.296
 1625SOL     OW 4892   3.045   1.335   0.119
 1625SOL    HW1 4893   2.946   1.324   0.121
 1625SOL    HW2 4894   3.079   1.350   0.212
 1626SOL     OW 4895   2.475   0.842   1.431
 1626SOL    HW1 4896   2.531   0.923   1.414
 1626SOL    HW2 4897   2.534   0.762   1.434
 1627SOL     OW 4898   3.355   1.767   0.959
 1627SOL    HW1 4899   3.388   1.831   0.890
 1627SOL    HW2 4900   3.421   1.761   1.034
 1628SOL     OW 4901   2.578   0.565   1.708
 1628SOL    HW1 4902   2.597   0.630   1.782
 1628SOL    HW2 4903   2.638   0.485   1.717
 1629SOL     OW 4904   3.312   1.220   1.633
 1629SOL    HW1 4905   3.303   1.210   1.732
 1629SOL    HW2 4906   3.408   1.213   1.607
 1630SOL     OW 4907   2.252   1.741   1.560
 1630SOL    HW1 4908   2.161   1.782   1.558
 1630SOL    HW2 4909   2.245   1.647   1.592
 1631SOL     OW 4910   3.536   0.883   1.254
 1631SOL    HW1 4911   3.509   0.794   1.217
 1631SOL    HW2 4912   3.537   0.951   1.181
 1632SOL     OW 4913   3.087   0.325   0.449
 1632SOL    HW1 4914   3.152   0.251   0.438
 1632SOL    HW2 4915   3.107   0.375   0.533
 1633SOL     OW 4916   2.456   0.745   0.652
 1633SOL    HW1 4917   2.506   0.830   0.633
 1633SOL    HW2 4918   2.368   0.747   0.604
 1634SOL     OW 4919   3.639   0.342   1.642
 1634SOL    HW1 4920   3.622   0.373   1.548
 1634SOL    HW2 4921   3.555   0.305   1.680
 1635SOL     OW 4922   3.592   0.934   1.517
 1635SOL    HW1 4923   3.630   1.025   1.532
 1635SOL    HW2 4924   3.584   0.917   1.418
 1636SOL     OW 4925   2.721   1.374   0.016
 1636SOL    HW1 4926   2.675   1.389   0.104
 1636SOL    HW2 4927   2.765   1.459  -0.014
 1637SOL     OW 4928   2.523   1.790   0.953
 1637SOL    HW1 4929   2.477   1.878   0.940
 1637SOL    HW2 4930   2.622   1.802   0.946
 1638SOL     OW 4931   2.721   0.956   0.861
 1638SOL    HW1 4932   2.775   0.887   0.909
 1638SOL    HW2 4933   2.689   1.025   0.927
 1639SOL     OW 4934   2.945   0.984   0.087
 1639SOL    HW1 4935   2.922   1.037   0.005
 1639SOL    HW2 4936   3.026   0.928   0.068
 1640SOL     OW 4937   3.723   1.569   0.851
 1640SOL    HW1 4938   3.652   1.557   0.781
 1640SOL    HW2 4939   3.724   1.490   0.911
 1641SOL     OW 4940   2.083   1.314   1.844
 1641SOL    HW1 4941   2.018   1.241   1.823
 1641SOL    HW2 4942   2.087   1.328   1.942
 1642SOL     OW 4943   1.941   1.240   0.653
 1642SOL    HW1 4944   1.940   1.193   0.741
 1642SOL    HW2 4945   2.023   1.212   0.602
 1643SOL     OW 4946   2.534   1.391   1.624
 1643SOL    HW1 4947   2.456   1.341   1.662
 1643SOL    HW2 4948   2.531   1.486   1.655
 1644SOL     OW 4949   3.686   0.192   1.227
 1644SOL    HW1 4950   3.682   0.102   1.271
 1644SOL    HW2 4951   3.689   0.181   1.128
 1645SOL     OW 4952   2.290   0.424   0.520
 1645SOL    HW1 4953   2.320   0.352   0.458
 1645SOL    HW2 4954   2.251   0.384   0.603
 1646SOL     OW 4955   3.567   1.487   1.104
 1646SOL    HW1 4956   3.474   1.462   1.077
 1646SOL    HW2 4957   3.593   1.437   1.186
 1647SOL     OW 4958   2.179   0.547   1.280
 1647SOL    HW1 4959   2.217   0.488   1.352
 1647SOL    HW2 4960   2.219   0.521   1.192
 1648SOL     OW 4961   2.674   1.586   0.687
 1648SOL    HW1 4962   2.706   1.596   0.593
 1648SOL    HW2 4963   2.595   1.524   0.689
 1649SOL     OW 4964   3.286   0.214   1.112
 1649SOL    HW1 4965   3.338   0.149   1.167
 1649SOL    HW2 4966   3.237   0.277   1.173
 1650SOL     OW 4967   2.863   0.034   1.154
 1650SOL    HW1 4968   2.800  -0.038   1.123
 1650SOL    HW2 4969   2.956  -0.002   1.154
 1651SOL     OW 4970   2.632   1.330   0.301
 1651SOL    HW1 4971   2.586   1.243   0.318
 1651SOL    HW2 4972   2.723   1.327   0.342
 1652SOL     OW 4973   2.480   1.567   1.284
 1652SOL    HW1 4974   2.475   1.649   1.341
 1652SOL    HW2 4975   2.569   1.564   1.239
 1653SOL     OW 4976   3.214   0.052   0.168
 1653SOL    HW1 4977   3.249   0.011   0.084
 1653SOL    HW2 4978   3.124   0.014   0.188
 1654SOL     OW 4979   3.162   0.453   0.691
 1654SOL    HW1 4980   3.103   0.533   0.695
 1654SOL    HW2 4981   3.177   0.418   0.784
 1655SOL     OW 4982   3.455   0.221   0.882
 1655SOL    HW1 4983   3.371   0.220   0.936
 1655SOL    HW2 4984   3.457   0.304   0.826
 1656SOL     OW 4985   1.901   1.077   0.300
 1656SOL    HW1 4986   2.000   1.066   0.291
 1656SOL    HW2 4987   1.861   0.991   0.332
 1657SOL     OW 4988   2.737   1.646   0.337
 1657SOL    HW1 4989   2.660   1.611   0.283
 1657SOL    HW2 4990   2.705   1.717   0.399
 1658SOL     OW 4991   2.092   0.628   1.975
 1658SOL    HW1 4992   1.999   0.626   2.012
 1658SOL    HW2 4993   2.093   0.589   1.883
 1659SOL     OW 4994   2.087   0.275   2.858
 1659SOL    HW1 4995   2.122   0.258   2.950
 1659SOL    HW2 4996   1.999   0.230   2.846
 1660SOL     OW 4997   1.881   0.368   2.509
 1660SOL    HW1 4998   1.799   0.411   2.548
 1660SOL    HW2 4999   1.853   0.295   2.446
 1661SOL     OW 5000   2.431   1.275   3.027
 1661SOL    HW1 5001   2.338   1.268   2.990
 1661SOL    HW2 5002   2.442   1.364   3.071
 1662SOL     OW 5003   3.417   1.511   2.565
 1662SOL    HW1 5004   3.360   1.495   2.646
 1662SOL    HW2 5005   3.358   1.521   2.485
 1663SOL     OW 5006   2.997   0.703   2.579
 1663SOL    HW1 5007   3.054   0.781   2.554
 1663SOL    HW2 5008   2.937   0.729   2.655
 1664SOL     OW 5009   3.617   0.607   2.093
 1664SOL    HW1 5010   3.605   0.594   1.994
 1664SOL    HW2 5011   3.587   0.526   2.142
 1665SOL     OW 5012   2.630   1.144   2.885
 1665SOL    HW1 5013   2.552   1.161   2.945
 1665SOL    HW2 5014   2.664   1.231   2.849
 1666SOL     OW 5015   2.712   0.798   3.685
 1666SOL    HW1 5016   2.708   0.874   3.750
 1666SOL    HW2 5017   2.734   0.834   3.594
 1667SOL     OW 5018   2.547   1.012   2.527
 1667SOL    HW1 5019   2.616   0.996   2.597
 1667SOL    HW2 5020   2.474   1.069   2.565
 1668SOL     OW 5021   2.548   1.161   3.665
 1668SOL    HW1 5022   2.608   1.240   3.679
 1668SOL    HW2 5023   2.462   1.192   3.624
 1669SOL     OW 5024   2.197   1.435   2.923
 1669SOL    HW1 5025   2.119   1.404   2.870
 1669SOL    HW2 5026   2.255   1.493   2.866
 1670SOL     OW 5027   3.322   1.505   3.201
 1670SOL    HW1 5028   3.346   1.599   3.227
 1670SOL    HW2 5029   3.306   1.451   3.283
 1671SOL     OW 5030   2.300   0.392   3.361
 1671SOL    HW1 5031   2.382   0.336   3.370
 1671SOL    HW2 5032   2.219   0.334   3.365
 1672SOL     OW 5033   3.465   0.447   2.599
 1672SOL    HW1 5034   3.391   0.493   2.549
 1672SOL    HW2 5035   3.516   0.515   2.652
 1673SOL     OW 5036   2.093   1.713   2.345
 1673SOL    HW1 5037   2.127   1.790   2.399
 1673SOL    HW2 5038   2.137   1.713   2.255
 1674SOL     OW 5039   2.989   1.341   3.552
 1674SOL    HW1 5040   3.036   1.341   3.640
 1674SOL    HW2 5041   2.941   1.254   3.541
 1675SOL     OW 5042   2.092   1.434   2.400
 1675SOL    HW1 5043   2.066   1.530   2.400
 1675SOL    HW2 5044   2.021   1.380   2.445
 1676SOL     OW 5045   2.102   1.091   2.748
 1676SOL    HW1 5046   2.116   1.007   2.800
 1676SOL    HW2 5047   2.047   1.155   2.803
 1677SOL     OW 5048   2.482   1.786   3.301
 1677SOL    HW1 5049   2.390   1.769   3.336
 1677SOL    HW2 5050   2.510   1.878   3.327
 1678SOL     OW 5051   2.468   0.964   1.985
 1678SOL    HW1 5052   2.475   1.048   1.931
 1678SOL    HW2 5053   2.514   0.977   2.073
 1679SOL     OW 5054   3.456   0.114   3.342
 1679SOL    HW1 5055   3.438   0.181   3.270
 1679SOL    HW2 5056   3.453   0.160   3.431
 1680SOL     OW 5057   1.984   0.643   2.425
 1680SOL    HW1 5058   1.939   0.555   2.442
 1680SOL    HW2 5059   1.983   0.697   2.509
 1681SOL     OW 5060   3.704   1.767   2.221
 1681SOL    HW1 5061   3.758   1.738   2.301
 1681SOL    HW2 5062   3.734   1.857   2.192
 1682SOL     OW 5063   1.889   1.596   1.979
 1682SOL    HW1 5064   1.870   1.500   2.000
 1682SOL    HW2 5065   1.856   1.654   2.054
 1683SOL     OW 5066   3.551   0.922   2.474
 1683SOL    HW1 5067   3.646   0.893   2.482
 1683SOL    HW2 5068   3.543   0.987   2.399
 1684SOL     OW 5069   3.503   1.108   2.294
 1684SOL    HW1 5070   3.589   1.110   2.242
 1684SOL    HW2 5071   3.517   1.155   2.382
 1685SOL     OW 5072   1.975   0.737   3.459
 1685SOL    HW1 5073   2.063   0.724   3.504
 1685SOL    HW2 5074   1.962   0.834   3.437
 1686SOL     OW 5075   2.475   1.365   2.588
 1686SOL    HW1 5076   2.426   1.278   2.597
 1686SOL    HW2 5077   2.452   1.408   2.501
 1687SOL     OW 5078   3.155   1.228   3.285
 1687SOL    HW1 5079   3.192   1.155   3.227
 1687SOL    HW2 5080   3.207   1.233   3.370
 1688SOL     OW 5081   2.671   0.004   2.364
 1688SOL    HW1 5082   2.711   0.095   2.355
 1688SOL    HW2 5083   2.571   0.012   2.370
 1689SOL     OW 5084   2.059   0.976   3.126
 1689SOL    HW1 5085   2.148   0.931   3.112
 1689SOL    HW2 5086   1.986   0.911   3.107
 1690SOL     OW 5087   3.387   0.999   2.052
 1690SOL    HW1 5088   3.324   0.923   2.065
 1690SOL    HW2 5089   3.435   1.017   2.138
 1691SOL     OW 5090   3.049   1.792   3.478
 1691SOL    HW1 5091   3.073   1.852   3.402
 1691SOL    HW2 5092   3.056   1.697   3.448
 1692SOL     OW 5093   2.179   0.251   3.663
 1692SOL    HW1 5094   2.250   0.322   3.669
 1692SOL    HW2 5095   2.091   0.290   3.691
 1693SOL     OW 5096   3.328   1.417   2.815
 1693SOL    HW1 5097   3.269   1.423   2.895
 1693SOL    HW2 5098   3.313   1.329   2.769
 1694SOL     OW 5099   3.529   1.714   2.434
 1694SOL    HW1 5100   3.488   1.691   2.346
 1694SOL    HW2 5101   3.511   1.640   2.499
 1695SOL     OW 5102   2.460   0.729   2.132
 1695SOL    HW1 5103   2.484   0.798   2.064
 1695SOL    HW2 5104   2.382   0.762   2.186
 1696SOL     OW 5105   3.143   0.345   2.806
 1696SOL    HW1 5106   3.057   0.295   2.793
 1696SOL    HW2 5107   3.205   0.291   2.862
 1697SOL     OW 5108   3.438   1.662   2.169
 1697SOL    HW1 5109   3.527   1.708   2.172
 1697SOL    HW2 5110   3.417   1.638   2.074
 1698SOL     OW 5111   2.669   0.605   3.327
 1698SOL    HW1 5112   2.622   0.602   3.416
 1698SOL    HW2 5113   2.618   0.550   3.261
 1699SOL     OW 5114   3.256   0.469   3.536
 1699SOL    HW1 5115   3.236   0.512   3.624
 1699SOL    HW2 5116   3.334   0.407   3.545
 1700SOL     OW 5117   2.835   0.890   3.434
 1700SOL    HW1 5118   2.881   0.806   3.405
 1700SOL    HW2 5119   2.779   0.924   3.359
 1701SOL     OW 5120   2.853   0.410   3.104
 1701SOL    HW1 5121   2.776   0.444   3.158
 1701SOL    HW2 5122   2.819   0.359   3.025
 1702SOL     OW 5123   2.903   0.701   2.291
 1702SOL    HW1 5124   2.929   0.697   2.387
 1702SOL    HW2 5125   2.818   0.650   2.277
 1703SOL     OW 5126   1.938   0.811   2.651
 1703SOL    HW1 5127   2.037   0.799   2.660
 1703SOL    HW2 5128   1.914   0.906   2.672
 1704SOL     OW 5129   1.992   1.821   3.433
 1704SOL    HW1 5130   1.982   1.806   3.532
 1704SOL    HW2 5131   1.906   1.857   3.397
 1705SOL     OW 5132   2.727   0.348   2.057
 1705SOL    HW1 5133   2.786   0.411   2.008
 1705SOL    HW2 5134   2.746   0.254   2.028
 1706SOL     OW 5135   3.581   0.585   3.693
 1706SOL    HW1 5136   3.555   0.674   3.657
 1706SOL    HW2 5137   3.579   0.517   3.620
 1707SOL     OW 5138   3.224   1.144   2.407
 1707SOL    HW1 5139   3.307   1.115   2.359
 1707SOL    HW2 5140   3.175   1.211   2.351
 1708SOL     OW 5141   2.412   0.196   2.747
 1708SOL    HW1 5142   2.407   0.191   2.847
 1708SOL    HW2 5143   2.414   0.292   2.718
 1709SOL     OW 5144   2.870   1.456   2.339
 1709SOL    HW1 5145   2.824   1.528   2.287
 1709SOL    HW2 5146   2.866   1.476   2.437
 1710SOL     OW 5147   2.213   1.801   2.715
 1710SOL    HW1 5148   2.263   1.715   2.721
 1710SOL    HW2 5149   2.278   1.878   2.712
 1711SOL     OW 5150   3.657   1.066   2.735
 1711SOL    HW1 5151   3.595   1.051   2.659
 1711SOL    HW2 5152   3.605   1.077   2.820
 1712SOL     OW 5153   3.089   1.550   3.368
 1712SOL    HW1 5154   3.095   1.473   3.432
 1712SOL    HW2 5155   3.037   1.524   3.288
 1713SOL     OW 5156   2.183   0.943   2.104
 1713SOL    HW1 5157   2.265   0.982   2.062
 1713SOL    HW2 5158   2.156   0.861   2.055
 1714SOL     OW 5159   3.320   0.735   2.590
 1714SOL    HW1 5160   3.315   0.670   2.665
 1714SOL    HW2 5161   3.400   0.794   2.603
 1715SOL     OW 5162   2.323   1.266   3.589
 1715SOL    HW1 5163   2.273   1.267   3.503
 1715SOL    HW2 5164   2.260   1.248   3.665
 1716SOL     OW 5165   2.973   1.776   2.099
 1716SOL    HW1 5166   2.913   1.714   2.149
 1716SOL    HW2 5167   3.004   1.732   2.014
 1717SOL     OW 5168   2.064   0.285   3.360
 1717SOL    HW1 5169   1.984   0.345   3.347
 1717SOL    HW2 5170   2.054   0.236   3.446
 1718SOL     OW 5171   3.494   1.377   1.943
 1718SOL    HW1 5172   3.462   1.471   1.933
 1718SOL    HW2 5173   3.418   1.314   1.931
 1719SOL     OW 5174   2.326   1.743   2.185
 1719SOL    HW1 5175   2.359   1.782   2.271
 1719SOL    HW2 5176   2.402   1.736   2.120
 1720SOL     OW 5177   3.262   0.107   2.288
 1720SOL    HW1 5178   3.238   0.070   2.198
 1720SOL    HW2 5179   3.361   0.123   2.292
 1721SOL     OW 5180   2.111   1.785   3.103
 1721SOL    HW1 5181   2.168   1.720   3.153
 1721SOL    HW2 5182   2.095   1.752   3.010
 1722SOL     OW 5183   2.802   1.698   2.766
 1722SOL    HW1 5184   2.882   1.641   2.787
 1722SOL    HW2 5185   2.753   1.658   2.689
 1723SOL     OW 5186   2.244   0.700   2.342
 1723SOL    HW1 5187   2.289   0.610   2.339
 1723SOL    HW2 5188   2.150   0.689   2.375
 1724SOL     OW 5189   3.409   0.222   3.591
 1724SOL    HW1 5190   3.404   0.259   3.683
 1724SOL    HW2 5191   3.337   0.153   3.579
 1725SOL     OW 5192   2.476   0.122   1.979
 1725SOL    HW1 5193   2.574   0.100   1.986
 1725SOL    HW2 5194   2.445   0.105   1.886
 1726SOL     OW 5195   2.643   0.264   3.611
 1726SOL    HW1 5196   2.710   0.203   3.654
 1726SOL    HW2 5197   2.570   0.283   3.676
 1727SOL     OW 5198   2.750   1.514   3.057
 1727SOL    HW1 5199   2.727   1.489   2.963
 1727SOL    HW2 5200   2.811   1.445   3.096
 1728SOL     OW 5201   3.213   0.590   3.295
 1728SOL    HW1 5202   3.241   0.547   3.380
 1728SOL    HW2 5203   3.238   0.686   3.296
 1729SOL     OW 5204   2.665   1.402   2.786
 1729SOL    HW1 5205   2.755   1.416   2.744
 1729SOL    HW2 5206   2.594   1.404   2.715
 1730SOL     OW 5207   2.784   0.503   2.761
 1730SOL    HW1 5208   2.759   0.494   2.665
 1730SOL    HW2 5209   2.832   0.421   2.792
 1731SOL     OW 5210   2.401   0.064   2.374
 1731SOL    HW1 5211   2.320   0.065   2.432
 1731SOL    HW2 5212   2.404   0.147   2.319
 1732SOL     OW 5213   3.296   1.188   1.903
 1732SOL    HW1 5214   3.328   1.112   1.960
 1732SOL    HW2 5215   3.204   1.215   1.933
 1733SOL     OW 5216   2.159   0.035   2.033
 1733SOL    HW1 5217   2.208   0.119   2.012
 1733SOL    HW2 5218   2.221  -0.030   2.078
 1734SOL     OW 5219   2.797   0.236   2.342
 1734SOL    HW1 5220   2.749   0.277   2.264
 1734SOL    HW2 5221   2.896   0.234   2.323
 1735SOL     OW 5222   2.938   0.683   3.326
 1735SOL    HW1 5223   2.858   0.622   3.329
 1735SOL    HW2 5224   3.019   0.630   3.302
 1736SOL     OW 5225   3.089   1.570   2.655
 1736SOL    HW1 5226   3.110   1.644   2.590
 1736SOL    HW2 5227   3.157   1.570   2.728
 1737SOL     OW 5228   2.321   1.152   2.603
 1737SOL    HW1 5229   2.250   1.125   2.668
 1737SOL    HW2 5230   2.295   1.124   2.510
 1738SOL     OW 5231   3.133   1.797   2.453
 1738SOL    HW1 5232   3.177   1.861   2.389
 1738SOL    HW2 5233   3.083   1.849   2.523
 1739SOL     OW 5234   2.894   0.549   1.878
 1739SOL    HW1 5235   2.853   0.631   1.839
 1739SOL    HW2 5236   2.958   0.575   1.951
 1740SOL     OW 5237   1.940   0.556   3.248
 1740SOL    HW1 5238   2.032   0.555   3.207
 1740SOL    HW2 5239   1.934   0.630   3.315
 1741SOL     OW 5240   2.423   0.222   3.009
 1741SOL    HW1 5241   2.461   0.138   3.046
 1741SOL    HW2 5242   2.335   0.241   3.053
 1742SOL     OW 5243   2.728   0.454   2.504
 1742SOL    HW1 5244   2.696   0.526   2.442
 1742SOL    HW2 5245   2.752   0.373   2.451
 1743SOL     OW 5246   2.879   0.039   2.615
 1743SOL    HW1 5247   2.807   0.044   2.546
 1743SOL    HW2 5248   2.855  -0.030   2.684
 1744SOL     OW 5249   3.291   1.173   2.729
 1744SOL    HW1 5250   3.236   1.089   2.722
 1744SOL    HW2 5251   3.317   1.202   2.637
 1745SOL     OW 5252   3.328   0.590   2.854
 1745SOL    HW1 5253   3.298   0.495   2.861
 1745SOL    HW2 5254   3.401   0.606   2.920
 1746SOL     OW 5255   3.719   0.833   2.239
 1746SOL    HW1 5256   3.761   0.769   2.303
 1746SOL    HW2 5257   3.681   0.782   2.161
 1747SOL     OW 5258   2.350   1.385   2.036
 1747SOL    HW1 5259   2.263   1.370   2.083
 1747SOL    HW2 5260   2.333   1.411   1.941
 1748SOL     OW 5261   3.526   1.280   2.519
 1748SOL    HW1 5262   3.625   1.288   2.533
 1748SOL    HW2 5263   3.481   1.364   2.550
 1749SOL     OW 5264   3.252   0.575   1.940
 1749SOL    HW1 5265   3.198   0.554   2.021
 1749SOL    HW2 5266   3.343   0.534   1.949
 1750SOL     OW 5267   2.389   0.256   2.190
 1750SOL    HW1 5268   2.416   0.197   2.115
 1750SOL    HW2 5269   2.389   0.351   2.159
 1751SOL     OW 5270   3.616   1.223   3.450
 1751SOL    HW1 5271   3.707   1.184   3.437
 1751SOL    HW2 5272   3.624   1.319   3.474
 1752SOL     OW 5273   2.926   1.347   3.202
 1752SOL    HW1 5274   2.846   1.324   3.257
 1752SOL    HW2 5275   3.009   1.321   3.251
 1753SOL     OW 5276   3.454   1.629   3.487
 1753SOL    HW1 5277   3.481   1.663   3.397
 1753SOL    HW2 5278   3.533   1.591   3.533
 1754SOL     OW 5279   2.973   1.195   2.962
 1754SOL    HW1 5280   2.933   1.239   3.043
 1754SOL    HW2 5281   2.932   1.232   2.879
 1755SOL     OW 5282   3.500   1.099   2.941
 1755SOL    HW1 5283   3.505   1.180   3.000
 1755SOL    HW2 5284   3.414   1.101   2.890
 1756SOL     OW 5285   2.777   0.089   3.264
 1756SOL    HW1 5286   2.802   0.069   3.169
 1756SOL    HW2 5287   2.849   0.145   3.306
 1757SOL     OW 5288   2.842   1.116   3.581
 1757SOL    HW1 5289   2.743   1.122   3.591
 1757SOL    HW2 5290   2.865   1.036   3.525
 1758SOL     OW 5291   2.567   1.050   2.230
 1758SOL    HW1 5292   2.553   1.057   2.329
 1758SOL    HW2 5293   2.651   0.999   2.212
 1759SOL     OW 5294   2.272   0.813   3.113
 1759SOL    HW1 5295   2.358   0.825   3.163
 1759SOL    HW2 5296   2.230   0.726   3.140
 1760SOL     OW 5297   3.136   0.386   3.124
 1760SOL    HW1 5298   3.157   0.460   3.188
 1760SOL    HW2 5299   3.047   0.403   3.081
 1761SOL     OW 5300   1.926   1.564   3.193
 1761SOL    HW1 5301   1.880   1.646   3.159
 1761SOL    HW2 5302   2.024   1.583   3.202
 1762SOL     OW 5303   2.229   1.100   2.363
 1762SOL    HW1 5304   2.222   1.183   2.307
 1762SOL    HW2 5305   2.233   1.020   2.303
 1763SOL     OW 5306   2.428   0.537   2.727
 1763SOL    HW1 5307   2.440   0.603   2.653
 1763SOL    HW2 5308   2.474   0.571   2.810
 1764SOL     OW 5309   3.114   1.348   2.250
 1764SOL    HW1 5310   3.164   1.425   2.290
 1764SOL    HW2 5311   3.019   1.350   2.282
 1765SOL     OW 5312   3.134   1.445   3.004
 1765SOL    HW1 5313   3.181   1.458   3.091
 1765SOL    HW2 5314   3.068   1.371   3.013
 1766SOL     OW 5315   3.444   0.639   2.334
 1766SOL    HW1 5316   3.413   0.700   2.407
 1766SOL    HW2 5317   3.494   0.691   2.265
 1767SOL     OW 5318   2.216   1.510   3.191
 1767SOL    HW1 5319   2.195   1.466   3.104
 1767SOL    HW2 5320   2.313   1.536   3.194
 1768SOL     OW 5321   2.264   0.751   3.460
 1768SOL    HW1 5322   2.332   0.806   3.413
 1768SOL    HW2 5323   2.304   0.663   3.487
 1769SOL     OW 5324   3.449   0.779   3.532
 1769SOL    HW1 5325   3.357   0.817   3.527
 1769SOL    HW2 5326   3.509   0.826   3.467
 1770SOL     OW 5327   2.875   0.105   3.632
 1770SOL    HW1 5328   2.881   0.190   3.580
 1770SOL    HW2 5329   2.907   0.029   3.575
 1771SOL     OW 5330   2.366   0.050   3.602
 1771SOL    HW1 5331   2.324  -0.007   3.532
 1771SOL    HW2 5332   2.300   0.119   3.634
 1772SOL     OW 5333   2.435   0.870   2.891
 1772SOL    HW1 5334   2.479   0.959   2.882
 1772SOL    HW2 5335   2.372   0.870   2.968
 1773SOL     OW 5336   3.222   0.862   2.907
 1773SOL    HW1 5337   3.147   0.862   2.841
 1773SOL    HW2 5338   3.259   0.770   2.916
 1774SOL     OW 5339   3.071   0.525   2.137
 1774SOL    HW1 5340   3.084   0.441   2.191
 1774SOL    HW2 5341   3.042   0.599   2.197
 1775SOL     OW 5342   2.169   0.213   3.093
 1775SOL    HW1 5343   2.146   0.250   3.183
 1775SOL    HW2 5344   2.139   0.118   3.087
 1776SOL     OW 5345   1.899   1.310   3.144
 1776SOL    HW1 5346   1.952   1.261   3.212
 1776SOL    HW2 5347   1.921   1.408   3.149
 1777SOL     OW 5348   2.594   0.634   2.926
 1777SOL    HW1 5349   2.653   0.608   2.850
 1777SOL    HW2 5350   2.566   0.730   2.915
 1778SOL     OW 5351   3.590   0.935   3.716
 1778SOL    HW1 5352   3.544   0.928   3.627
 1778SOL    HW2 5353   3.528   0.979   3.782
 1779SOL     OW 5354   2.169   0.063   2.480
 1779SOL    HW1 5355   2.158   0.157   2.513
 1779SOL    HW2 5356   2.164   0.000   2.557
 1780SOL     OW 5357   3.484   0.367   2.236
 1780SOL    HW1 5358   3.486   0.291   2.300
 1780SOL    HW2 5359   3.436   0.444   2.276
 1781SOL     OW 5360   2.885   0.766   2.828
 1781SOL    HW1 5361   2.900   0.787   2.924
 1781SOL    HW2 5362   2.855   0.671   2.819
 1782SOL     OW 5363   2.842   1.573   3.562
 1782SOL    HW1 5364   2.822   1.617   3.474
 1782SOL    HW2 5365   2.881   1.482   3.546
 1783SOL     OW 5366   3.721   1.518   3.467
 1783SOL    HW1 5367   3.735   1.545   3.372
 1783SOL    HW2 5368   3.804   1.540   3.520
 1784SOL     OW 5369   2.212   0.898   3.666
 1784SOL    HW1 5370   2.288   0.942   3.714
 1784SOL    HW2 5371   2.247   0.851   3.584
 1785SOL     OW 5372   3.402   0.274   1.987
 1785SOL    HW1 5373   3.341   0.199   2.010
 1785SOL    HW2 5374   3.424   0.326   2.070
 1786SOL     OW 5375   3.165   0.838   1.904
 1786SOL    HW1 5376   3.199   0.745   1.919
 1786SOL    HW2 5377   3.183   0.865   1.809
 1787SOL     OW 5378   2.930   1.333   2.711
 1787SOL    HW1 5379   2.937   1.249   2.656
 1787SOL    HW2 5380   2.992   1.402   2.675
 1788SOL     OW 5381   2.181   0.810   2.811
 1788SOL    HW1 5382   2.274   0.846   2.816
 1788SOL    HW2 5383   2.175   0.725   2.863
 1789SOL     OW 5384   2.201   0.509   2.868
 1789SOL    HW1 5385   2.149   0.426   2.851
 1789SOL    HW2 5386   2.278   0.514   2.804
 1790SOL     OW 5387   3.000   0.380   3.540
 1790SOL    HW1 5388   2.955   0.443   3.604
 1790SOL    HW2 5389   3.093   0.411   3.523
 1791SOL     OW 5390   3.022   0.207   3.339
 1791SOL    HW1 5391   3.022   0.271   3.416
 1791SOL    HW2 5392   3.050   0.255   3.256
 1792SOL     OW 5393   1.870   1.326   2.062
 1792SOL    HW1 5394   1.777   1.347   2.031
 1792SOL    HW2 5395   1.880   1.227   2.075
 1793SOL     OW 5396   1.950   1.801   2.789
 1793SOL    HW1 5397   1.908   1.715   2.762
 1793SOL    HW2 5398   2.044   1.804   2.755
 1794SOL     OW 5399   2.366   1.568   2.772
 1794SOL    HW1 5400   2.432   1.642   2.781
 1794SOL    HW2 5401   2.410   1.489   2.730
 1795SOL     OW 5402   2.864   0.796   3.100
 1795SOL    HW1 5403   2.905   0.764   3.186
 1795SOL    HW2 5404   2.768   0.769   3.097
 1796SOL     OW 5405   1.902   0.544   2.976
 1796SOL    HW1 5406   1.987   0.511   2.935
 1796SOL    HW2 5407   1.915   0.559   3.074
 1797SOL     OW 5408   2.051   0.520   3.584
 1797SOL    HW1 5409   2.110   0.480   3.514
 1797SOL    HW2 5410   1.993   0.591   3.543
 1798SOL     OW 5411   3.231   0.950   3.522
 1798SOL    HW1 5412   3.270   1.039   3.542
 1798SOL    HW2 5413   3.241   0.930   3.425
 1799SOL     OW 5414   2.677   0.572   2.187
 1799SOL    HW1 5415   2.684   0.483   2.141
 1799SOL    HW2 5416   2.583   0.606   2.179
 1800SOL     OW 5417   3.519   0.604   3.068
 1800SOL    HW1 5418   3.481   0.535   3.130
 1800SOL    HW2 5419   3.601   0.568   3.024
 1801SOL     OW 5420   2.114   1.564   3.606
 1801SOL    HW1 5421   2.084   1.621   3.682
 1801SOL    HW2 5422   2.107   1.467   3.632
 1802SOL     OW 5423   2.533   0.464   3.131
 1802SOL    HW1 5424   2.499   0.375   3.101
 1802SOL    HW2 5425   2.559   0.518   3.051
 1803SOL     OW 5426   2.792   1.678   3.327
 1803SOL    HW1 5427   2.768   1.660   3.232
 1803SOL    HW2 5428   2.822   1.772   3.337
 1804SOL     OW 5429   2.335   0.500   2.053
 1804SOL    HW1 5430   2.396   0.580   2.057
 1804SOL    HW2 5431   2.240   0.531   2.060
 1805SOL     OW 5432   2.021   1.137   3.328
 1805SOL    HW1 5433   2.043   1.076   3.404
 1805SOL    HW2 5434   2.031   1.088   3.242
 1806SOL     OW 5435   3.209   1.059   3.096
 1806SOL    HW1 5436   3.233   0.996   3.022
 1806SOL    HW2 5437   3.119   1.099   3.078
 1807SOL     OW 5438   3.164   0.855   2.171
 1807SOL    HW1 5439   3.078   0.824   2.213
 1807SOL    HW2 5440   3.160   0.841   2.072
 1808SOL     OW 5441   3.621   1.747   3.016
 1808SOL    HW1 5442   3.682   1.777   2.943
 1808SOL    HW2 5443   3.583   1.658   2.994
 1809SOL     OW 5444   3.114   1.731   2.990
 1809SOL    HW1 5445   3.198   1.736   2.936
 1809SOL    HW2 5446   3.091   1.635   3.008
 1810SOL     OW 5447   1.945   1.258   2.884
 1810SOL    HW1 5448   1.940   1.257   2.984
 1810SOL    HW2 5449   1.862   1.217   2.846
 1811SOL     OW 5450   2.550   1.662   3.578
 1811SOL    HW1 5451   2.494   1.743   3.587
 1811SOL    HW2 5452   2.602   1.666   3.492
 1812SOL     OW 5453   3.588   0.135   2.385
 1812SOL    HW1 5454   3.661   0.118   2.318
 1812SOL    HW2 5455   3.557   0.048   2.423
 1813SOL     OW 5456   3.250   1.573   2.339
 1813SOL    HW1 5457   3.317   1.585   2.265
 1813SOL    HW2 5458   3.210   1.662   2.362
 1814SOL     OW 5459   1.992   1.794   3.713
 1814SOL    HW1 5460   1.951   1.720   3.766
 1814SOL    HW2 5461   2.056   1.845   3.771
 1815SOL     OW 5462   3.142   0.927   2.534
 1815SOL    HW1 5463   3.202   0.846   2.536
 1815SOL    HW2 5464   3.182   0.996   2.474
 1816SOL     OW 5465   2.692   1.273   3.284
 1816SOL    HW1 5466   2.687   1.306   3.379
 1816SOL    HW2 5467   2.606   1.292   3.238
 1817SOL     OW 5468   2.534   1.616   2.016
 1817SOL    HW1 5469   2.543   1.626   1.917
 1817SOL    HW2 5470   2.494   1.527   2.037
 1818SOL     OW 5471   3.512   1.720   3.256
 1818SOL    HW1 5472   3.565   1.730   3.172
 1818SOL    HW2 5473   3.485   1.810   3.290
 1819SOL     OW 5474   3.703   0.175   2.825
 1819SOL    HW1 5475   3.742   0.090   2.789
 1819SOL    HW2 5476   3.605   0.177   2.806
 1820SOL     OW 5477   2.125   0.326   2.582
 1820SOL    HW1 5478   2.046   0.377   2.548
 1820SOL    HW2 5479   2.116   0.311   2.680
 1821SOL     OW 5480   3.056   1.612   1.893
 1821SOL    HW1 5481   3.062   1.519   1.930
 1821SOL    HW2 5482   2.997   1.612   1.813
 1822SOL     OW 5483   2.684   1.002   3.234
 1822SOL    HW1 5484   2.724   1.001   3.142
 1822SOL    HW2 5485   2.694   1.094   3.274
 1823SOL     OW 5486   2.778   0.910   2.153
 1823SOL    HW1 5487   2.841   0.948   2.085
 1823SOL    HW2 5488   2.818   0.827   2.192
 1824SOL     OW 5489   3.366   1.607   1.906
 1824SOL    HW1 5490   3.274   1.644   1.913
 1824SOL    HW2 5491   3.404   1.627   1.816
 1825SOL     OW 5492   2.234   1.288   3.352
 1825SOL    HW1 5493   2.221   1.381   3.318
 1825SOL    HW2 5494   2.150   1.236   3.339
 1826SOL     OW 5495   3.476   1.292   3.151
 1826SOL    HW1 5496   3.536   1.295   3.231
 1826SOL    HW2 5497   3.401   1.356   3.164
 1827SOL     OW 5498   2.901   1.098   2.558
 1827SOL    HW1 5499   2.831   1.051   2.612
 1827SOL    HW2 5500   2.960   1.030   2.515
 1828SOL     OW 5501   2.876   0.236   2.833
 1828SOL    HW1 5502   2.868   0.200   2.740
 1828SOL    HW2 5503   2.874   0.160   2.898
 1829SOL     OW 5504   2.452   1.487   2.353
 1829SOL    HW1 5505   2.494   1.429   2.283
 1829SOL    HW2 5506   2.408   1.566   2.309
 1830SOL     OW 5507   3.571   0.385   3.243
 1830SOL    HW1 5508   3.644   0.454   3.247
 1830SOL    HW2 5509   3.599   0.310   3.184
 1831SOL     OW 5510   2.117   1.348   2.152
 1831SOL    HW1 5511   2.021   1.349   2.125
 1831SOL    HW2 5512   2.129   1.401   2.236
 1832SOL     OW 5513   1.967   1.013   3.588
 1832SOL    HW1 5514   1.890   0.980   3.642
 1832SOL    HW2 5515   2.052   0.983   3.630
 1833SOL     OW 5516   2.534   0.203   3.351
 1833SOL    HW1 5517   2.624   0.187   3.311
 1833SOL    HW2 5518   2.542   0.208   3.450
 1834SOL     OW 5519   1.937   0.345   1.895
 1834SOL    HW1 5520   1.845   0.317   1.866
 1834SOL    HW2 5521   1.968   0.422   1.839
 1835SOL     OW 5522   3.302   0.856   3.260
 1835SOL    HW1 5523   3.245   0.908   3.197
 1835SOL    HW2 5524   3.398   0.868   3.236
 1836SOL     OW 5525   1.934   0.166   2.180
 1836SOL    HW1 5526   1.917   0.249   2.126
 1836SOL    HW2 5527   2.024   0.129   2.158
 1837SOL     OW 5528   3.045   1.335   1.981
 1837SOL    HW1 5529   2.946   1.324   1.983
 1837SOL    HW2 5530   3.079   1.350   2.074
 1838SOL     OW 5531   2.475   0.842   3.293
 1838SOL    HW1 5532   2.531   0.923   3.276
 1838SOL    HW2 5533   2.534   0.762   3.296
 1839SOL     OW 5534   3.355   1.767   2.821
 1839SOL    HW1 5535   3.388   1.831   2.752
 1839SOL    HW2 5536   3.421   1.761   2.896
 1840SOL     OW 5537   2.578   0.565   3.570
 1840SOL    HW1 5538   2.597   0.630   3.644
 1840SOL    HW2 5539   2.638   0.485   3.579
 1841SOL     OW 5540   3.312   1.220   3.495
 1841SOL    HW1 5541   3.303   1.210   3.594
 1841SOL    HW2 5542   3.408   1.213   3.469
 1842SOL     OW 5543   2.252   1.741   3.422
 1842SOL    HW1 5544   2.161   1.782   3.420
 1842SOL    HW2 5545   2.245   1.647   3.454
 1843SOL     OW 5546   3.536   0.883   3.116
 1843SOL    HW1 5547   3.509   0.794   3.079
 1843SOL    HW2 5548   3.537   0.951   3.043
 1844SOL     OW 5549   3.087   0.325   2.311
 1844SOL    HW1 5550   3.152   0.251   2.300
 1844SOL    HW2 5551   3.107   0.375   2.395
 1845SOL     OW 5552   2.456   0.745   2.514
 1845SOL    HW1 5553   2.506   0.830   2.495
 1845SOL    HW2 5554   2.368   0.747   2.466
 1846SOL     OW 5555   3.639   0.342   3.504
 1846SOL    HW1 5556   3.622   0.373   3.410
 1846SOL    HW2 5557   3.555   0.305   3.542
 1847SOL     OW 5558   3.592   0.934   3.379
 1847SOL    HW1 5559   3.630   1.025   3.394
 1847SOL    HW2 5560   3.584   0.917   3.280
 1848SOL     OW 5561   2.721   1.374   1.878
 1848SOL    HW1 5562   2.675   1.389   1.966
 1848SOL    HW2 5563   2.765   1.459   1.848
 1849SOL     OW 5564   2.523   1.790   2.815
 1849SOL    HW1 5565   2.477   1.878   2.802
 1849SOL    HW2 5566   2.622   1.802   2.808
 1850SOL     OW 5567   2.721   0.956   2.723
 1850SOL    HW1 5568   2.775   0.887   2.771
 1850SOL    HW2 5569   2.689   1.025   2.789
 1851SOL     OW 5570   2.945   0.984   1.949
 1851SOL    HW1 5571   2.922   1.037   1.867
 1851SOL    HW2 5572   3.026   0.928   1.930
 1852SOL     OW 5573   3.723   1.569   2.713
 1852SOL    HW1 5574   3.652   1.557   2.643
 1852SOL    HW2 5575   3.724   1.490   2.773
 1853SOL     OW 5576   2.083   1.314   3.706
 1853SOL    HW1 5577   2.018   1.241   3.685
 1853SOL    HW2 5578   2.087   1.328   3.804
 1854SOL     OW 5579   1.941   1.240   2.515
 1854SOL    HW1 5580   1.940   1.193   2.603
 1854SOL    HW2 5581   2.023   1.212   2.464
 1855SOL     OW 5582   2.534   1.391   3.486
 1855SOL    HW1 5583   2.456   1.341   3.524
 1855SOL    HW2 5584   2.531   1.486   3.517
 1856SOL     OW 5585   3.686   0.192   3.089
 1856SOL    HW1 5586   3.682   0.102   3.133
 1856SOL    HW2 5587   3.689   0.181   2.990
 1857SOL     OW 5588   2.290   0.424   2.382
 1857SOL    HW1 5589   2.320   0.352   2.320
 1857SOL    HW2 5590   2.251   0.384   2.465
 1858SOL     OW 5591   3.567   1.487   2.966
 1858SOL    HW1 5592   3.474   1.462   2.939
 1858SOL    HW2 5593   3.593   1.437   3.048
 1859SOL     OW 5594   2.179   0.547   3.142
 1859SOL    HW1 5595   2.217   0.488   3.214
 1859SOL    HW2 5596   2.219   0.521   3.054
 1860SOL     OW 5597   2.674   1.586   2.549
 1860SOL    HW1 5598   2.706   1.596   2.455
 1860SOL    HW2 5599   2.595   1.524   2.551
 1861SOL     OW 5600   3.286   0.214   2.974
 1861SOL    HW1 5601   3.338   0.149   3.029
 1861SOL    HW2 5602   3.237   0.277   3.035
 1862SOL     OW 5603   2.863   0.034   3.016
 1862SOL    HW1 5604   2.800  -0.038   2.985
 1862SOL    HW2 5605   2.956  -0.002   3.016
 1863SOL     OW 5606   2.632   1.330   2.163
 1863SOL    HW1 5607   2.586   1.243   2.180
 1863SOL    HW2 5608   2.723   1.327   2.204
 1864SOL     OW 5609   2.480   1.567   3.146
 1864SOL    HW1 5610   2.475   1.649   3.203
 1864SOL    HW2 5611   2.569   1.564   3.101
 1865SOL     OW 5612   3.214   0.052   2.030
 1865SOL    HW1 5613   3.249   0.011   1.946
 1865SOL    HW2 5614   3.124   0.014   2.050
 1866SOL     OW 5615   3.162   0.453   2.553
 1866SOL    HW1 5616   3.103   0.533   2.557
 1866SOL    HW2 5617   3.177   0.418   2.646
 1867SOL     OW 5618   3.455   0.221   2.744
 1867SOL    HW1 5619   3.371   0.220   2.798
 1867SOL    HW2 5620   3.457   0.304   2.688
 1868SOL     OW 5621   1.901   1.077   2.162
 1868SOL    HW1 5622   2.000   1.066   2.153
 1868SOL    HW2 5623   1.861   0.991   2.194
 1869SOL     OW 5624   2.737   1.646   2.199
 1869SOL    HW1 5625   2.660   1.611   2.145
 1869SOL    HW2 5626   2.705   1.717   2.261
 1870SOL     OW 5627   2.092   0.628   3.837
 1870SOL    HW1 5628   1.999   0.626   3.874
 1870SOL    HW2 5629   2.093   0.589   3.745
 1871SOL     OW 5630   2.087   0.275   4.720
 1871SOL    HW1 5631   2.122   0.258   4.812
 1871SOL    HW2 5632   1.999   0.230   4.708
 1872SOL     OW 5633   1.881   0.368   4.371
 1872SOL    HW1 5634   1.799   0.411   4.410
 1872SOL    HW2 5635   1.853   0.295   4.308
 1873SOL     OW 5636   3.417   1.511   4.427
 1873SOL    HW1 5637   3.360   1.495   4.508
 1873SOL    HW2 5638   3.358   1.521   4.347
 1874SOL     OW 5639   2.997   0.703   4.441
 1874SOL    HW1 5640   3.054   0.781   4.416
 1874SOL    HW2 5641   2.937   0.729   4.517
 1875SOL     OW 5642   3.617   0.607   3.955
 1875SOL    HW1 5643   3.605   0.594   3.856
 1875SOL    HW2 5644   3.587   0.526   4.004
 1876SOL     OW 5645   2.630   1.144   4.747
 1876SOL    HW1 5646   2.552   1.161   4.807
 1876SOL    HW2 5647   2.664   1.231   4.711
 1877SOL     OW 5648   2.547   1.012   4.389
 1877SOL    HW1 5649   2.616   0.996   4.459
 1877SOL    HW2 5650   2.474   1.069   4.427
 1878SOL     OW 5651   2.197   1.435   4.785
 1878SOL    HW1 5652   2.119   1.404   4.732
 1878SOL    HW2 5653   2.255   1.493   4.728
 1879SOL     OW 5654   3.465   0.447   4.461
 1879SOL    HW1 5655   3.391   0.493   4.411
 1879SOL    HW2 5656   3.516   0.515   4.514
 1880SOL     OW 5657   2.093   1.713   4.207
 1880SOL    HW1 5658   2.127   1.790   4.261
 1880SOL    HW2 5659   2.137   1.713   4.117
 1881SOL     OW 5660   2.092   1.434   4.262
 1881SOL    HW1 5661   2.066   1.530   4.262
 1881SOL    HW2 5662   2.021   1.380   4.307
 1882SOL     OW 5663   2.102   1.091   4.610
 1882SOL    HW1 5664   2.116   1.007   4.662
 1882SOL    HW2 5665   2.047   1.155   4.665
 1883SOL     OW 5666   2.468   0.964   3.847
 1883SOL    HW1 5667   2.475   1.048   3.793
 1883SOL    HW2 5668   2.514   0.977   3.935
 1884SOL     OW 5669   1.984   0.643   4.287
 1884SOL    HW1 5670   1.939   0.555   4.304
 1884SOL    HW2 5671   1.983   0.697   4.371
 1885SOL     OW 5672   3.704   1.767   4.083
 1885SOL    HW1 5673   3.758   1.738   4.163
 1885SOL    HW2 5674   3.734   1.857   4.054
 1886SOL     OW 5675   1.889   1.596   3.841
 1886SOL    HW1 5676   1.870   1.500   3.862
 1886SOL    HW2 5677   1.856   1.654   3.916
 1887SOL     OW 5678   3.551   0.922   4.336
 1887SOL    HW1 5679   3.646   0.893   4.344
 1887SOL    HW2 5680   3.543   0.987   4.261
 1888SOL     OW 5681   3.503   1.108   4.156
 1888SOL    HW1 5682   3.589   1.110   4.104
 1888SOL    HW2 5683   3.517   1.155   4.244
 1889SOL     OW 5684   2.475   1.365   4.450
 1889SOL    HW1 5685   2.426   1.278   4.459
 1889SOL    HW2 5686   2.452   1.408   4.363
 1890SOL     OW 5687   2.671   0.004   4.226
 1890SOL    HW1 5688   2.711   0.095   4.217
 1890SOL    HW2 5689   2.571   0.012   4.232
 1891SOL     OW 5690   3.387   0.999   3.914
 1891SOL    HW1 5691   3.324   0.923   3.927
 1891SOL    HW2 5692   3.435   1.017   4.000
 1892SOL     OW 5693   3.328   1.417   4.677
 1892SOL    HW1 5694   3.269   1.423   4.757
 1892SOL    HW2 5695   3.313   1.329   4.631
 1893SOL     OW 5696   3.529   1.714   4.296
 1893SOL    HW1 5697   3.488   1.691   4.208
 1893SOL    HW2 5698   3.511   1.640   4.361
 1894SOL     OW 5699   2.460   0.729   3.994
 1894SOL    HW1 5700   2.484   0.798   3.926
 1894SOL    HW2 5701   2.382   0.762   4.048
 1895SOL     OW 5702   3.143   0.345   4.668
 1895SOL    HW1 5703   3.057   0.295   4.655
 1895SOL    HW2 5704   3.205   0.291   4.724
 1896SOL     OW 5705   3.438   1.662   4.031
 1896SOL    HW1 5706   3.527   1.708   4.034
 1896SOL    HW2 5707   3.417   1.638   3.936
 1897SOL     OW 5708   2.903   0.701   4.153
 1897SOL    HW1 5709   2.929   0.697   4.249
 1897SOL    HW2 5710   2.818   0.650   4.139
 1898SOL     OW 5711   1.938   0.811   4.513
 1898SOL    HW1 5712   2.037   0.799   4.522
 1898SOL    HW2 5713   1.914   0.906   4.534
 1899SOL     OW 5714   2.727   0.348   3.919
 1899SOL    HW1 5715   2.786   0.411   3.870
 1899SOL    HW2 5716   2.746   0.254   3.890
 1900SOL     OW 5717   3.224   1.144   4.269
 1900SOL    HW1 5718   3.307   1.115   4.221
 1900SOL    HW2 5719   3.175   1.211   4.213
 1901SOL     OW 5720   2.412   0.196   4.609
 1901SOL    HW1 5721   2.407   0.191   4.709
 1901SOL    HW2 5722   2.414   0.292   4.580
 1902SOL     OW 5723   2.870   1.456   4.201
 1902SOL    HW1 5724   2.824   1.528   4.149
 1902SOL    HW2 5725   2.866   1.476   4.299
 1903SOL     OW 5726   2.213   1.801   4.577
 1903SOL    HW1 5727   2.263   1.715   4.583
 1903SOL    HW2 5728   2.278   1.878   4.574
 1904SOL     OW 5729   3.657   1.066   4.597
 1904SOL    HW1 5730   3.595   1.051   4.521
 1904SOL    HW2 5731   3.605   1.077   4.682
 1905SOL     OW 5732   2.183   0.943   3.966
 1905SOL    HW1 5733   2.265   0.982   3.924
 1905SOL    HW2 5734   2.156   0.861   3.917
 1906SOL     OW 5735   3.320   0.735   4.452
 1906SOL    HW1 5736   3.315   0.670   4.527
 1906SOL    HW2 5737   3.400   0.794   4.465
 1907SOL     OW 5738   2.973   1.776   3.961
 1907SOL    HW1 5739   2.913   1.714   4.011
 1907SOL    HW2 5740   3.004   1.732   3.876
 1908SOL     OW 5741   3.494   1.377   3.805
 1908SOL    HW1 5742   3.462   1.471   3.795
 1908SOL    HW2 5743   3.418   1.314   3.793
 1909SOL     OW 5744   2.326   1.743   4.047
 1909SOL    HW1 5745   2.359   1.782   4.133
 1909SOL    HW2 5746   2.402   1.736   3.982
 1910SOL     OW 5747   3.262   0.107   4.150
 1910SOL    HW1 5748   3.238   0.070   4.060
 1910SOL    HW2 5749   3.361   0.123   4.154
 1911SOL     OW 5750   2.111   1.785   4.965
 1911SOL    HW1 5751   2.168   1.720   5.015
 1911SOL    HW2 5752   2.095   1.752   4.872
 1912SOL     OW 5753   2.802   1.698   4.628
 1912SOL    HW1 5754   2.882   1.641   4.649
 1912SOL    HW2 5755   2.753   1.658   4.551
 1913SOL     OW 5756   2.244   0.700   4.204
 1913SOL    HW1 5757   2.289   0.610   4.201
 1913SOL    HW2 5758   2.150   0.689   4.237
 1914SOL     OW 5759   2.476   0.122   3.841
 1914SOL    HW1 5760   2.574   0.100   3.848
 1914SOL    HW2 5761   2.445   0.105   3.748
 1915SOL     OW 5762   2.665   1.402   4.648
 1915SOL    HW1 5763   2.755   1.416   4.606
 1915SOL    HW2 5764   2.594   1.404   4.577
 1916SOL     OW 5765   2.784   0.503   4.623
 1916SOL    HW1 5766   2.759   0.494   4.527
 1916SOL    HW2 5767   2.832   0.421   4.654
 1917SOL     OW 5768   2.401   0.064   4.236
 1917SOL    HW1 5769   2.320   0.065   4.294
 1917SOL    HW2 5770   2.404   0.147   4.181
 1918SOL     OW 5771   3.296   1.188   3.765
 1918SOL    HW1 5772   3.328   1.112   3.822
 1918SOL    HW2 5773   3.204   1.215   3.795
 1919SOL     OW 5774   2.159   0.035   3.895
 1919SOL    HW1 5775   2.208   0.119   3.874
 1919SOL    HW2 5776   2.221  -0.030   3.940
 1920SOL     OW 5777   2.797   0.236   4.204
 1920SOL    HW1 5778   2.749   0.277   4.126
 1920SOL    HW2 5779   2.896   0.234   4.185
 1921SOL     OW 5780   3.089   1.570   4.517
 1921SOL    HW1 5781   3.110   1.644   4.452
 1921SOL    HW2 5782   3.157   1.570   4.590
 1922SOL     OW 5783   2.321   1.152   4.465
 1922SOL    HW1 5784   2.250   1.125   4.530
 1922SOL    HW2 5785   2.295   1.124   4.372
 1923SOL     OW 5786   3.133   1.797   4.315
 1923SOL    HW1 5787   3.177   1.861   4.251
 1923SOL    HW2 5788   3.083   1.849   4.385
 1924SOL     OW 5789   2.894   0.549   3.740
 1924SOL    HW1 5790   2.853   0.631   3.701
 1924SOL    HW2 5791   2.958   0.575   3.813
 1925SOL     OW 5792   2.728   0.454   4.366
 1925SOL    HW1 5793   2.696   0.526   4.304
 1925SOL    HW2 5794   2.752   0.373   4.313
 1926SOL     OW 5795   2.879   0.039   4.477
 1926SOL    HW1 5796   2.807   0.044   4.408
 1926SOL    HW2 5797   2.855  -0.030   4.546
 1927SOL     OW 5798   3.291   1.173   4.591
 1927SOL    HW1 5799   3.236   1.089   4.584
 1927SOL    HW2 5800   3.317   1.202   4.499
 1928SOL     OW 5801   3.328   0.590   4.716
 1928SOL    HW1 5802   3.298   0.495   4.723
 1928SOL    HW2 5803   3.401   0.606   4.782
 1929SOL     OW 5804   3.719   0.833   4.101
 1929SOL    HW1 5805   3.761   0.769   4.165
 1929SOL    HW2 5806   3.681   0.782   4.023
 1930SOL     OW 5807   2.350   1.385   3.898
 1930SOL    HW1 5808   2.263   1.370   3.945
 1930SOL    HW2 5809   2.333   1.411   3.803
 1931SOL     OW 5810   3.526   1.280   4.381
 1931SOL    HW1 5811   3.625   1.288   4.395
 1931SOL    HW2 5812   3.481   1.364   4.412
 1932SOL     OW 5813   3.252   0.575   3.802
 1932SOL    HW1 5814   3.198   0.554   3.883
 1932SOL    HW2 5815   3.343   0.534   3.811
 1933SOL     OW 5816   2.389   0.256   4.052
 1933SOL    HW1 5817   2.416   0.197   3.977
 1933SOL    HW2 5818   2.389   0.351   4.021
 1934SOL     OW 5819   3.500   1.099   4.803
 1934SOL    HW1 5820   3.505   1.180   4.862
 1934SOL    HW2 5821   3.414   1.101   4.752
 1935SOL     OW 5822   2.567   1.050   4.092
 1935SOL    HW1 5823   2.553   1.057   4.191
 1935SOL    HW2 5824   2.651   0.999   4.074
 1936SOL     OW 5825   2.272   0.813   4.975
 1936SOL    HW1 5826   2.358   0.825   5.025
 1936SOL    HW2 5827   2.230   0.726   5.002
 1937SOL     OW 5828   2.229   1.100   4.225
 1937SOL    HW1 5829   2.222   1.183   4.169
 1937SOL    HW2 5830   2.233   1.020   4.165
 1938SOL     OW 5831   2.428   0.537   4.589
 1938SOL    HW1 5832   2.440   0.603   4.515
 1938SOL    HW2 5833   2.474   0.571   4.672
 1939SOL     OW 5834   3.114   1.348   4.112
 1939SOL    HW1 5835   3.164   1.425   4.152
 1939SOL    HW2 5836   3.019   1.350   4.144
 1940SOL     OW 5837   3.444   0.639   4.196
 1940SOL    HW1 5838   3.413   0.700   4.269
 1940SOL    HW2 5839   3.494   0.691   4.127
 1941SOL     OW 5840   2.435   0.870   4.753
 1941SOL    HW1 5841   2.479   0.959   4.744
 1941SOL    HW2 5842   2.372   0.870   4.830
 1942SOL     OW 5843   3.071   0.525   3.999
 1942SOL    HW1 5844   3.084   0.441   4.053
 1942SOL    HW2 5845   3.042   0.599   4.059
 1943SOL     OW 5846   2.594   0.634   4.788
 1943SOL    HW1 5847   2.653   0.608   4.712
 1943SOL    HW2 5848   2.566   0.730   4.777
 1944SOL     OW 5849   2.169   0.063   4.342
 1944SOL    HW1 5850   2.158   0.157   4.375
 1944SOL    HW2 5851   2.164   0.000   4.419
 1945SOL     OW 5852   3.484   0.367   4.098
 1945SOL    HW1 5853   3.486   0.291   4.162
 1945SOL    HW2 5854   3.436   0.444   4.138
 1946SOL     OW 5855   2.885   0.766   4.690
 1946SOL    HW1 5856   2.900   0.787   4.786
 1946SOL    HW2 5857   2.855   0.671   4.681
 1947SOL     OW 5858   3.402   0.274   3.849
 1947SOL    HW1 5859   3.341   0.199   3.872
 1947SOL    HW2 5860   3.424   0.326   3.932
 1948SOL     OW 5861   3.165   0.838   3.766
 1948SOL    HW1 5862   3.199   0.745   3.781
 1948SOL    HW2 5863   3.183   0.865   3.671
 1949SOL     OW 5864   2.930   1.333   4.573
 1949SOL    HW1 5865   2.937   1.249   4.518
 1949SOL    HW2 5866   2.992   1.402   4.537
 1950SOL     OW 5867   2.181   0.810   4.673
 1950SOL    HW1 5868   2.274   0.846   4.678
 1950SOL    HW2 5869   2.175   0.725   4.725
 1951SOL     OW 5870   2.201   0.509   4.730
 1951SOL    HW1 5871   2.149   0.426   4.713
 1951SOL    HW2 5872   2.278   0.514   4.666
 1952SOL     OW 5873   1.870   1.326   3.924
 1952SOL    HW1 5874   1.777   1.347   3.893
 1952SOL    HW2 5875   1.880   1.227   3.937
 1953SOL     OW 5876   1.950   1.801   4.651
 1953SOL    HW1 5877   1.908   1.715   4.624
 1953SOL    HW2 5878   2.044   1.804   4.617
 1954SOL     OW 5879   2.366   1.568   4.634
 1954SOL    HW1 5880   2.432   1.642   4.643
 1954SOL    HW2 5881   2.410   1.489   4.592
 1955SOL     OW 5882   2.864   0.796   4.962
 1955SOL    HW1 5883   2.905   0.764   5.048
 1955SOL    HW2 5884   2.768   0.769   4.959
 1956SOL     OW 5885   1.902   0.544   4.838
 1956SOL    HW1 5886   1.987   0.511   4.797
 1956SOL    HW2 5887   1.915   0.559   4.936
 1957SOL     OW 5888   2.677   0.572   4.049
 1957SOL    HW1 5889   2.684   0.483   4.003
 1957SOL    HW2 5890   2.583   0.606   4.041
 1958SOL     OW 5891   2.533   0.464   4.993
 1958SOL    HW1 5892   2.499   0.375   4.963
 1958SOL    HW2 5893   2.559   0.518   4.913
 1959SOL     OW 5894   2.335   0.500   3.915
 1959SOL    HW1 5895   2.396   0.580   3.919
 1959SOL    HW2 5896   2.240   0.531   3.922
 1960SOL     OW 5897   3.164   0.855   4.033
 1960SOL    HW1 5898   3.078   0.824   4.075
 1960SOL    HW2 5899   3.160   0.841   3.934
 1961SOL     OW 5900   3.621   1.747   4.878
 1961SOL    HW1 5901   3.682   1.777   4.805
 1961SOL    HW2 5902   3.583   1.658   4.856
 1962SOL     OW 5903   1.945   1.258   4.746
 1962SOL    HW1 5904   1.940   1.257   4.846
 1962SOL    HW2 5905   1.862   1.217   4.708
 1963SOL     OW 5906   3.588   0.135   4.247
 1963SOL    HW1 5907   3.661   0.118   4.180
 1963SOL    HW2 5908   3.557   0.048   4.285
 1964SOL     OW 5909   3.250   1.573   4.201
 1964SOL    HW1 5910   3.317   1.585   4.127
 1964SOL    HW2 5911   3.210   1.662   4.224
 1965SOL     OW 5912   3.142   0.927   4.396
 1965SOL    HW1 5913   3.202   0.846   4.398
 1965SOL    HW2 5914   3.182   0.996   4.336
 1966SOL     OW 5915   2.534   1.616   3.878
 1966SOL    HW1 5916   2.543   1.626   3.779
 1966SOL    HW2 5917   2.494   1.527   3.899
 1967SOL     OW 5918   3.703   0.175   4.687
 1967SOL    HW1 5919   3.742   0.090   4.651
 1967SOL    HW2 5920   3.605   0.177   4.668
 1968SOL     OW 5921   2.125   0.326   4.444
 1968SOL    HW1 5922   2.046   0.377   4.410
 1968SOL    HW2 5923   2.116   0.311   4.542
 1969SOL     OW 5924   3.056   1.612   3.755
 1969SOL    HW1 5925   3.062   1.519   3.792
 1969SOL    HW2 5926   2.997   1.612   3.675
 1970SOL     OW 5927   2.778   0.910   4.015
 1970SOL    HW1 5928   2.841   0.948   3.947
 1970SOL    HW2 5929   2.818   0.827   4.054
 1971SOL     OW 5930   3.366   1.607   3.768
 1971SOL    HW1 5931   3.274   1.644   3.775
 1971SOL    HW2 5932   3.404   1.627   3.678
 1972SOL     OW 5933   2.901   1.098   4.420
 1972SOL    HW1 5934   2.831   1.051   4.474
 1972SOL    HW2 5935   2.960   1.030   4.377
 1973SOL     OW 5936   2.876   0.236   4.695
 1973SOL    HW1 5937   2.868   0.200   4.602
 1973SOL    HW2 5938   2.874   0.160   4.760
 1974SOL     OW 5939   2.452   1.487   4.215
 1974SOL    HW1 5940   2.494   1.429   4.145
 1974SOL    HW2 5941   2.408   1.566   4.171
 1975SOL     OW 5942   2.117   1.348   4.014
 1975SOL    HW1 5943   2.021   1.349   3.987
 1975SOL    HW2 5944   2.129   1.401   4.098
 1976SOL     OW 5945   1.937   0.345   3.757
 1976SOL    HW1 5946   1.845   0.317   3.728
 1976SOL    HW2 5947   1.968   0.422   3.701
 1977SOL     OW 5948   1.934   0.166   4.042
 1977SOL    HW1 5949   1.917   0.249   3.988
 1977SOL    HW2 5950   2.024   0.129   4.020
 1978SOL     OW 5951   3.045   1.335   3.843
 1978SOL    HW1 5952   2.946   1.324   3.845
 1978SOL    HW2 5953   3.079   1.350   3.936
 1979SOL     OW 5954   3.355   1.767   4.683
 1979SOL    HW1 5955   3.388   1.831   4.614
 1979SOL    HW2 5956   3.421   1.761   4.758
 1980SOL     OW 5957   3.536   0.883   4.978
 1980SOL    HW1 5958   3.509   0.794   4.941
 1980SOL    HW2 5959   3.537   0.951   4.905
 1981SOL     OW 5960   3.087   0.325   4.173
 1981SOL    HW1 5961   3.152   0.251   4.162
 1981SOL    HW2 5962   3.107   0.375   4.257
 1982SOL     OW 5963   2.456   0.745   4.376
 1982SOL    HW1 5964   2.506   0.830   4.357
 1982SOL    HW2 5965   2.368   0.747   4.328
 1983SOL     OW 5966   2.721   1.374   3.740
 1983SOL    HW1 5967   2.675   1.389   3.828
 1983SOL    HW2 5968   2.765   1.459   3.710
 1984SOL     OW 5969   2.523   1.790   4.677
 1984SOL    HW1 5970   2.477   1.878   4.664
 1984SOL    HW2 5971   2.622   1.802   4.670
 1985SOL     OW 5972   2.721   0.956   4.585
 1985SOL    HW1 5973   2.775   0.887   4.633
 1985SOL    HW2 5974   2.689   1.025   4.651
 1986SOL     OW 5975   2.945   0.984   3.811
 1986SOL    HW1 5976   2.922   1.037   3.729
 1986SOL    HW2 5977   3.026   0.928   3.792
 1987SOL     OW 5978   3.723   1.569   4.575
 1987SOL    HW1 5979   3.652   1.557   4.505
 1987SOL    HW2 5980   3.724   1.490   4.635
 1988SOL     OW 5981   1.941   1.240   4.377
 1988SOL    HW1 5982   1.940   1.193   4.465
 1988SOL    HW2 5983   2.023   1.212   4.326
 1989SOL     OW 5984   3.686   0.192   4.951
 1989SOL    HW1 5985   3.682   0.102   4.995
 1989SOL    HW2 5986   3.689   0.181   4.852
 1990SOL     OW 5987   2.290   0.424   4.244
 1990SOL    HW1 5988   2.320   0.352   4.182
 1990SOL    HW2 5989   2.251   0.384   4.327
 1991SOL     OW 5990   2.674   1.586   4.411
 1991SOL    HW1 5991   2.706   1.596   4.317
 1991SOL    HW2 5992   2.595   1.524   4.413
 1992SOL     OW 5993   3.286   0.214   4.836
 1992SOL    HW1 5994   3.338   0.149   4.891
 1992SOL    HW2 5995   3.237   0.277   4.897
 1993SOL     OW 5996   2.632   1.330   4.025
 1993SOL    HW1 5997   2.586   1.243   4.042
 1993SOL    HW2 5998   2.723   1.327   4.066
 1994SOL     OW 5999   3.214   0.052   3.892
 1994SOL    HW1 6000   3.249   0.011   3.808
 1994SOL    HW2 6001   3.124   0.014   3.912
 1995SOL     OW 6002   3.162   0.453   4.415
 1995SOL    HW1 6003   3.103   0.533   4.419
 1995SOL    HW2 6004   3.177   0.418   4.508
 1996SOL     OW 6005   3.455   0.221   4.606
 1996SOL    HW1 6006   3.371   0.220   4.660
 1996SOL    HW2 6007   3.457   0.304   4.550
 1997SOL     OW 6008   1.901   1.077   4.024
 1997SOL    HW1 6009   2.000   1.066   4.015
 1997SOL    HW2 6010   1.861   0.991   4.056
 1998SOL     OW 6011   2.737   1.646   4.061
 1998SOL    HW1 6012   2.660   1.611   4.007
 1998SOL    HW2 6013   2.705   1.717   4.123
 1999SOL     OW 6014   2.092   2.490   0.113
 1999SOL    HW1 6015   1.999   2.488   0.150
 1999SOL    HW2 6016   2.093   2.451   0.021
 2000SOL     OW 6017   2.087   2.137   0.996
 2000SOL    HW1 6018   2.122   2.120   1.088
 2000SOL    HW2 6019   1.999   2.092   0.984
 2001SOL     OW 6020   1.881   2.230   0.647
 2001SOL    HW1 6021   1.799   2.273   0.686
 2001SOL    HW2 6022   1.853   2.157   0.584
 2002SOL     OW 6023   2.431   3.137   1.165
 2002SOL    HW1 6024   2.338   3.130   1.128
 2002SOL    HW2 6025   2.442   3.226   1.209
 2003SOL     OW 6026   3.417   3.373   0.703
 2003SOL    HW1 6027   3.360   3.357   0.784
 2003SOL    HW2 6028   3.358   3.383   0.623
 2004SOL     OW 6029   2.997   2.565   0.717
 2004SOL    HW1 6030   3.054   2.643   0.692
 2004SOL    HW2 6031   2.937   2.591   0.793
 2005SOL     OW 6032   3.617   2.469   0.231
 2005SOL    HW1 6033   3.605   2.456   0.132
 2005SOL    HW2 6034   3.587   2.388   0.280
 2006SOL     OW 6035   2.630   3.006   1.023
 2006SOL    HW1 6036   2.552   3.023   1.083
 2006SOL    HW2 6037   2.664   3.093   0.987
 2007SOL     OW 6038   2.712   2.660   1.823
 2007SOL    HW1 6039   2.708   2.736   1.888
 2007SOL    HW2 6040   2.734   2.696   1.732
 2008SOL     OW 6041   2.547   2.874   0.665
 2008SOL    HW1 6042   2.616   2.858   0.735
 2008SOL    HW2 6043   2.474   2.931   0.703
 2009SOL     OW 6044   2.548   3.023   1.803
 2009SOL    HW1 6045   2.608   3.102   1.817
 2009SOL    HW2 6046   2.462   3.054   1.762
 2010SOL     OW 6047   2.197   3.297   1.061
 2010SOL    HW1 6048   2.119   3.266   1.008
 2010SOL    HW2 6049   2.255   3.355   1.004
 2011SOL     OW 6050   3.322   3.367   1.339
 2011SOL    HW1 6051   3.346   3.461   1.365
 2011SOL    HW2 6052   3.306   3.313   1.421
 2012SOL     OW 6053   2.300   2.254   1.499
 2012SOL    HW1 6054   2.382   2.198   1.508
 2012SOL    HW2 6055   2.219   2.196   1.503
 2013SOL     OW 6056   3.465   2.309   0.737
 2013SOL    HW1 6057   3.391   2.355   0.687
 2013SOL    HW2 6058   3.516   2.377   0.790
 2014SOL     OW 6059   2.093   3.575   0.483
 2014SOL    HW1 6060   2.127   3.652   0.537
 2014SOL    HW2 6061   2.137   3.575   0.393
 2015SOL     OW 6062   2.989   3.203   1.690
 2015SOL    HW1 6063   3.036   3.203   1.778
 2015SOL    HW2 6064   2.941   3.116   1.679
 2016SOL     OW 6065   2.092   3.296   0.538
 2016SOL    HW1 6066   2.066   3.392   0.538
 2016SOL    HW2 6067   2.021   3.242   0.583
 2017SOL     OW 6068   2.102   2.953   0.886
 2017SOL    HW1 6069   2.116   2.869   0.938
 2017SOL    HW2 6070   2.047   3.017   0.941
 2018SOL     OW 6071   2.482   3.648   1.439
 2018SOL    HW1 6072   2.390   3.631   1.474
 2018SOL    HW2 6073   2.510   3.740   1.465
 2019SOL     OW 6074   2.468   2.826   0.123
 2019SOL    HW1 6075   2.475   2.910   0.069
 2019SOL    HW2 6076   2.514   2.839   0.211
 2020SOL     OW 6077   3.456   1.976   1.480
 2020SOL    HW1 6078   3.438   2.043   1.408
 2020SOL    HW2 6079   3.453   2.022   1.569
 2021SOL     OW 6080   1.984   2.505   0.563
 2021SOL    HW1 6081   1.939   2.417   0.580
 2021SOL    HW2 6082   1.983   2.559   0.647
 2022SOL     OW 6083   3.704   3.629   0.359
 2022SOL    HW1 6084   3.758   3.600   0.439
 2022SOL    HW2 6085   3.734   3.719   0.330
 2023SOL     OW 6086   1.889   3.458   0.117
 2023SOL    HW1 6087   1.870   3.362   0.138
 2023SOL    HW2 6088   1.856   3.516   0.192
 2024SOL     OW 6089   3.551   2.784   0.612
 2024SOL    HW1 6090   3.646   2.755   0.620
 2024SOL    HW2 6091   3.543   2.849   0.537
 2025SOL     OW 6092   3.503   2.970   0.432
 2025SOL    HW1 6093   3.589   2.972   0.380
 2025SOL    HW2 6094   3.517   3.017   0.520
 2026SOL     OW 6095   1.975   2.599   1.597
 2026SOL    HW1 6096   2.063   2.586   1.642
 2026SOL    HW2 6097   1.962   2.696   1.575
 2027SOL     OW 6098   2.475   3.227   0.726
 2027SOL    HW1 6099   2.426   3.140   0.735
 2027SOL    HW2 6100   2.452   3.270   0.639
 2028SOL     OW 6101   3.155   3.090   1.423
 2028SOL    HW1 6102   3.192   3.017   1.365
 2028SOL    HW2 6103   3.207   3.095   1.508
 2029SOL     OW 6104   2.671   1.866   0.502
 2029SOL    HW1 6105   2.711   1.957   0.493
 2029SOL    HW2 6106   2.571   1.874   0.508
 2030SOL     OW 6107   2.059   2.838   1.264
 2030SOL    HW1 6108   2.148   2.793   1.250
 2030SOL    HW2 6109   1.986   2.773   1.245
 2031SOL     OW 6110   3.387   2.861   0.190
 2031SOL    HW1 6111   3.324   2.785   0.203
 2031SOL    HW2 6112   3.435   2.879   0.276
 2032SOL     OW 6113   3.049   3.654   1.616
 2032SOL    HW1 6114   3.073   3.714   1.540
 2032SOL    HW2 6115   3.056   3.559   1.586
 2033SOL     OW 6116   2.179   2.113   1.801
 2033SOL    HW1 6117   2.250   2.184   1.807
 2033SOL    HW2 6118   2.091   2.152   1.829
 2034SOL     OW 6119   3.328   3.279   0.953
 2034SOL    HW1 6120   3.269   3.285   1.033
 2034SOL    HW2 6121   3.313   3.191   0.907
 2035SOL     OW 6122   3.529   3.576   0.572
 2035SOL    HW1 6123   3.488   3.553   0.484
 2035SOL    HW2 6124   3.511   3.502   0.637
 2036SOL     OW 6125   2.460   2.591   0.270
 2036SOL    HW1 6126   2.484   2.660   0.202
 2036SOL    HW2 6127   2.382   2.624   0.324
 2037SOL     OW 6128   3.143   2.207   0.944
 2037SOL    HW1 6129   3.057   2.157   0.931
 2037SOL    HW2 6130   3.205   2.153   1.000
 2038SOL     OW 6131   3.438   3.524   0.307
 2038SOL    HW1 6132   3.527   3.570   0.310
 2038SOL    HW2 6133   3.417   3.500   0.212
 2039SOL     OW 6134   2.669   2.467   1.465
 2039SOL    HW1 6135   2.622   2.464   1.554
 2039SOL    HW2 6136   2.618   2.412   1.399
 2040SOL     OW 6137   3.256   2.331   1.674
 2040SOL    HW1 6138   3.236   2.374   1.762
 2040SOL    HW2 6139   3.334   2.269   1.683
 2041SOL     OW 6140   2.835   2.752   1.572
 2041SOL    HW1 6141   2.881   2.668   1.543
 2041SOL    HW2 6142   2.779   2.786   1.497
 2042SOL     OW 6143   2.853   2.272   1.242
 2042SOL    HW1 6144   2.776   2.306   1.296
 2042SOL    HW2 6145   2.819   2.221   1.163
 2043SOL     OW 6146   2.903   2.563   0.429
 2043SOL    HW1 6147   2.929   2.559   0.525
 2043SOL    HW2 6148   2.818   2.512   0.415
 2044SOL     OW 6149   1.938   2.673   0.789
 2044SOL    HW1 6150   2.037   2.661   0.798
 2044SOL    HW2 6151   1.914   2.768   0.810
 2045SOL     OW 6152   1.992   3.683   1.571
 2045SOL    HW1 6153   1.982   3.668   1.670
 2045SOL    HW2 6154   1.906   3.719   1.535
 2046SOL     OW 6155   2.727   2.210   0.195
 2046SOL    HW1 6156   2.786   2.273   0.146
 2046SOL    HW2 6157   2.746   2.116   0.166
 2047SOL     OW 6158   3.581   2.447   1.831
 2047SOL    HW1 6159   3.555   2.536   1.795
 2047SOL    HW2 6160   3.579   2.379   1.758
 2048SOL     OW 6161   3.224   3.006   0.545
 2048SOL    HW1 6162   3.307   2.977   0.497
 2048SOL    HW2 6163   3.175   3.073   0.489
 2049SOL     OW 6164   2.412   2.058   0.885
 2049SOL    HW1 6165   2.407   2.053   0.985
 2049SOL    HW2 6166   2.414   2.154   0.856
 2050SOL     OW 6167   2.870   3.318   0.477
 2050SOL    HW1 6168   2.824   3.390   0.425
 2050SOL    HW2 6169   2.866   3.338   0.575
 2051SOL     OW 6170   2.213   3.663   0.853
 2051SOL    HW1 6171   2.263   3.577   0.859
 2051SOL    HW2 6172   2.278   3.740   0.850
 2052SOL     OW 6173   3.657   2.928   0.873
 2052SOL    HW1 6174   3.595   2.913   0.797
 2052SOL    HW2 6175   3.605   2.939   0.958
 2053SOL     OW 6176   3.089   3.412   1.506
 2053SOL    HW1 6177   3.095   3.335   1.570
 2053SOL    HW2 6178   3.037   3.386   1.426
 2054SOL     OW 6179   2.183   2.805   0.242
 2054SOL    HW1 6180   2.265   2.844   0.200
 2054SOL    HW2 6181   2.156   2.723   0.193
 2055SOL     OW 6182   3.320   2.597   0.728
 2055SOL    HW1 6183   3.315   2.532   0.803
 2055SOL    HW2 6184   3.400   2.656   0.741
 2056SOL     OW 6185   2.323   3.128   1.727
 2056SOL    HW1 6186   2.273   3.129   1.641
 2056SOL    HW2 6187   2.260   3.110   1.803
 2057SOL     OW 6188   2.973   3.638   0.237
 2057SOL    HW1 6189   2.913   3.576   0.287
 2057SOL    HW2 6190   3.004   3.594   0.152
 2058SOL     OW 6191   2.064   2.147   1.498
 2058SOL    HW1 6192   1.984   2.207   1.485
 2058SOL    HW2 6193   2.054   2.098   1.584
 2059SOL     OW 6194   3.494   3.239   0.081
 2059SOL    HW1 6195   3.462   3.333   0.071
 2059SOL    HW2 6196   3.418   3.176   0.069
 2060SOL     OW 6197   2.326   3.605   0.323
 2060SOL    HW1 6198   2.359   3.644   0.409
 2060SOL    HW2 6199   2.402   3.598   0.258
 2061SOL     OW 6200   3.262   1.969   0.426
 2061SOL    HW1 6201   3.238   1.932   0.336
 2061SOL    HW2 6202   3.361   1.985   0.430
 2062SOL     OW 6203   2.111   3.647   1.241
 2062SOL    HW1 6204   2.168   3.582   1.291
 2062SOL    HW2 6205   2.095   3.614   1.148
 2063SOL     OW 6206   2.802   3.560   0.904
 2063SOL    HW1 6207   2.882   3.503   0.925
 2063SOL    HW2 6208   2.753   3.520   0.827
 2064SOL     OW 6209   2.244   2.562   0.480
 2064SOL    HW1 6210   2.289   2.472   0.477
 2064SOL    HW2 6211   2.150   2.551   0.513
 2065SOL     OW 6212   3.409   2.084   1.729
 2065SOL    HW1 6213   3.404   2.121   1.821
 2065SOL    HW2 6214   3.337   2.015   1.717
 2066SOL     OW 6215   2.476   1.984   0.117
 2066SOL    HW1 6216   2.574   1.962   0.124
 2066SOL    HW2 6217   2.445   1.967   0.024
 2067SOL     OW 6218   2.643   2.126   1.749
 2067SOL    HW1 6219   2.710   2.065   1.792
 2067SOL    HW2 6220   2.570   2.145   1.814
 2068SOL     OW 6221   2.750   3.376   1.195
 2068SOL    HW1 6222   2.727   3.351   1.101
 2068SOL    HW2 6223   2.811   3.307   1.234
 2069SOL     OW 6224   3.213   2.452   1.433
 2069SOL    HW1 6225   3.241   2.409   1.518
 2069SOL    HW2 6226   3.238   2.548   1.434
 2070SOL     OW 6227   2.665   3.264   0.924
 2070SOL    HW1 6228   2.755   3.278   0.882
 2070SOL    HW2 6229   2.594   3.266   0.853
 2071SOL     OW 6230   2.784   2.365   0.899
 2071SOL    HW1 6231   2.759   2.356   0.803
 2071SOL    HW2 6232   2.832   2.283   0.930
 2072SOL     OW 6233   2.401   1.926   0.512
 2072SOL    HW1 6234   2.320   1.927   0.570
 2072SOL    HW2 6235   2.404   2.009   0.457
 2073SOL     OW 6236   3.296   3.050   0.041
 2073SOL    HW1 6237   3.328   2.974   0.098
 2073SOL    HW2 6238   3.204   3.077   0.071
 2074SOL     OW 6239   2.797   2.098   0.480
 2074SOL    HW1 6240   2.749   2.139   0.402
 2074SOL    HW2 6241   2.896   2.096   0.461
 2075SOL     OW 6242   2.938   2.545   1.464
 2075SOL    HW1 6243   2.858   2.484   1.467
 2075SOL    HW2 6244   3.019   2.492   1.440
 2076SOL     OW 6245   3.089   3.432   0.793
 2076SOL    HW1 6246   3.110   3.506   0.728
 2076SOL    HW2 6247   3.157   3.432   0.866
 2077SOL     OW 6248   2.321   3.014   0.741
 2077SOL    HW1 6249   2.250   2.987   0.806
 2077SOL    HW2 6250   2.295   2.986   0.648
 2078SOL     OW 6251   3.133   3.659   0.591
 2078SOL    HW1 6252   3.177   3.723   0.527
 2078SOL    HW2 6253   3.083   3.711   0.661
 2079SOL     OW 6254   2.894   2.411   0.016
 2079SOL    HW1 6255   2.853   2.493  -0.023
 2079SOL    HW2 6256   2.958   2.437   0.089
 2080SOL     OW 6257   1.940   2.418   1.386
 2080SOL    HW1 6258   2.032   2.417   1.345
 2080SOL    HW2 6259   1.934   2.492   1.453
 2081SOL     OW 6260   2.423   2.084   1.147
 2081SOL    HW1 6261   2.461   2.000   1.184
 2081SOL    HW2 6262   2.335   2.103   1.191
 2082SOL     OW 6263   2.728   2.316   0.642
 2082SOL    HW1 6264   2.696   2.388   0.580
 2082SOL    HW2 6265   2.752   2.235   0.589
 2083SOL     OW 6266   2.879   1.901   0.753
 2083SOL    HW1 6267   2.807   1.906   0.684
 2083SOL    HW2 6268   2.855   1.832   0.822
 2084SOL     OW 6269   3.291   3.035   0.867
 2084SOL    HW1 6270   3.236   2.951   0.860
 2084SOL    HW2 6271   3.317   3.064   0.775
 2085SOL     OW 6272   3.328   2.452   0.992
 2085SOL    HW1 6273   3.298   2.357   0.999
 2085SOL    HW2 6274   3.401   2.468   1.058
 2086SOL     OW 6275   3.719   2.695   0.377
 2086SOL    HW1 6276   3.761   2.631   0.441
 2086SOL    HW2 6277   3.681   2.644   0.299
 2087SOL     OW 6278   2.350   3.247   0.174
 2087SOL    HW1 6279   2.263   3.232   0.221
 2087SOL    HW2 6280   2.333   3.273   0.079
 2088SOL     OW 6281   3.526   3.142   0.657
 2088SOL    HW1 6282   3.625   3.150   0.671
 2088SOL    HW2 6283   3.481   3.226   0.688
 2089SOL     OW 6284   3.252   2.437   0.078
 2089SOL    HW1 6285   3.198   2.416   0.159
 2089SOL    HW2 6286   3.343   2.396   0.087
 2090SOL     OW 6287   2.389   2.118   0.328
 2090SOL    HW1 6288   2.416   2.059   0.253
 2090SOL    HW2 6289   2.389   2.213   0.297
 2091SOL     OW 6290   3.616   3.085   1.588
 2091SOL    HW1 6291   3.707   3.046   1.575
 2091SOL    HW2 6292   3.624   3.181   1.612
 2092SOL     OW 6293   2.926   3.209   1.340
 2092SOL    HW1 6294   2.846   3.186   1.395
 2092SOL    HW2 6295   3.009   3.183   1.389
 2093SOL     OW 6296   3.454   3.491   1.625
 2093SOL    HW1 6297   3.481   3.525   1.535
 2093SOL    HW2 6298   3.533   3.453   1.671
 2094SOL     OW 6299   2.973   3.057   1.100
 2094SOL    HW1 6300   2.933   3.101   1.181
 2094SOL    HW2 6301   2.932   3.094   1.017
 2095SOL     OW 6302   3.500   2.961   1.079
 2095SOL    HW1 6303   3.505   3.042   1.138
 2095SOL    HW2 6304   3.414   2.963   1.028
 2096SOL     OW 6305   2.777   1.951   1.402
 2096SOL    HW1 6306   2.802   1.931   1.307
 2096SOL    HW2 6307   2.849   2.007   1.444
 2097SOL     OW 6308   2.842   2.978   1.719
 2097SOL    HW1 6309   2.743   2.984   1.729
 2097SOL    HW2 6310   2.865   2.898   1.663
 2098SOL     OW 6311   2.567   2.912   0.368
 2098SOL    HW1 6312   2.553   2.919   0.467
 2098SOL    HW2 6313   2.651   2.861   0.350
 2099SOL     OW 6314   2.272   2.675   1.251
 2099SOL    HW1 6315   2.358   2.687   1.301
 2099SOL    HW2 6316   2.230   2.588   1.278
 2100SOL     OW 6317   3.136   2.248   1.262
 2100SOL    HW1 6318   3.157   2.322   1.326
 2100SOL    HW2 6319   3.047   2.265   1.219
 2101SOL     OW 6320   1.926   3.426   1.331
 2101SOL    HW1 6321   1.880   3.508   1.297
 2101SOL    HW2 6322   2.024   3.445   1.340
 2102SOL     OW 6323   2.229   2.962   0.501
 2102SOL    HW1 6324   2.222   3.045   0.445
 2102SOL    HW2 6325   2.233   2.882   0.441
 2103SOL     OW 6326   2.428   2.399   0.865
 2103SOL    HW1 6327   2.440   2.465   0.791
 2103SOL    HW2 6328   2.474   2.433   0.948
 2104SOL     OW 6329   3.114   3.210   0.388
 2104SOL    HW1 6330   3.164   3.287   0.428
 2104SOL    HW2 6331   3.019   3.212   0.420
 2105SOL     OW 6332   3.134   3.307   1.142
 2105SOL    HW1 6333   3.181   3.320   1.229
 2105SOL    HW2 6334   3.068   3.233   1.151
 2106SOL     OW 6335   3.444   2.501   0.472
 2106SOL    HW1 6336   3.413   2.562   0.545
 2106SOL    HW2 6337   3.494   2.553   0.403
 2107SOL     OW 6338   2.216   3.372   1.329
 2107SOL    HW1 6339   2.195   3.328   1.242
 2107SOL    HW2 6340   2.313   3.398   1.332
 2108SOL     OW 6341   2.264   2.613   1.598
 2108SOL    HW1 6342   2.332   2.668   1.551
 2108SOL    HW2 6343   2.304   2.525   1.625
 2109SOL     OW 6344   3.449   2.641   1.670
 2109SOL    HW1 6345   3.357   2.679   1.665
 2109SOL    HW2 6346   3.509   2.688   1.605
 2110SOL     OW 6347   2.875   1.967   1.770
 2110SOL    HW1 6348   2.881   2.052   1.718
 2110SOL    HW2 6349   2.907   1.891   1.713
 2111SOL     OW 6350   2.366   1.912   1.740
 2111SOL    HW1 6351   2.324   1.855   1.670
 2111SOL    HW2 6352   2.300   1.981   1.772
 2112SOL     OW 6353   2.435   2.732   1.029
 2112SOL    HW1 6354   2.479   2.821   1.020
 2112SOL    HW2 6355   2.372   2.732   1.106
 2113SOL     OW 6356   3.222   2.724   1.045
 2113SOL    HW1 6357   3.147   2.724   0.979
 2113SOL    HW2 6358   3.259   2.632   1.054
 2114SOL     OW 6359   3.071   2.387   0.275
 2114SOL    HW1 6360   3.084   2.303   0.329
 2114SOL    HW2 6361   3.042   2.461   0.335
 2115SOL     OW 6362   2.169   2.075   1.231
 2115SOL    HW1 6363   2.146   2.112   1.321
 2115SOL    HW2 6364   2.139   1.980   1.225
 2116SOL     OW 6365   1.899   3.172   1.282
 2116SOL    HW1 6366   1.952   3.123   1.350
 2116SOL    HW2 6367   1.921   3.270   1.287
 2117SOL     OW 6368   2.594   2.496   1.064
 2117SOL    HW1 6369   2.653   2.470   0.988
 2117SOL    HW2 6370   2.566   2.592   1.053
 2118SOL     OW 6371   3.590   2.797   1.854
 2118SOL    HW1 6372   3.544   2.790   1.765
 2118SOL    HW2 6373   3.528   2.841   1.920
 2119SOL     OW 6374   2.169   1.925   0.618
 2119SOL    HW1 6375   2.158   2.019   0.651
 2119SOL    HW2 6376   2.164   1.862   0.695
 2120SOL     OW 6377   3.484   2.229   0.374
 2120SOL    HW1 6378   3.486   2.153   0.438
 2120SOL    HW2 6379   3.436   2.306   0.414
 2121SOL     OW 6380   2.885   2.628   0.966
 2121SOL    HW1 6381   2.900   2.649   1.062
 2121SOL    HW2 6382   2.855   2.533   0.957
 2122SOL     OW 6383   2.842   3.435   1.700
 2122SOL    HW1 6384   2.822   3.479   1.612
 2122SOL    HW2 6385   2.881   3.344   1.684
 2123SOL     OW 6386   3.721   3.380   1.605
 2123SOL    HW1 6387   3.735   3.407   1.510
 2123SOL    HW2 6388   3.804   3.402   1.658
 2124SOL     OW 6389   2.212   2.760   1.804
 2124SOL    HW1 6390   2.288   2.804   1.852
 2124SOL    HW2 6391   2.247   2.713   1.722
 2125SOL     OW 6392   3.402   2.136   0.125
 2125SOL    HW1 6393   3.341   2.061   0.148
 2125SOL    HW2 6394   3.424   2.188   0.208
 2126SOL     OW 6395   3.165   2.700   0.042
 2126SOL    HW1 6396   3.199   2.607   0.057
 2126SOL    HW2 6397   3.183   2.727  -0.053
 2127SOL     OW 6398   2.930   3.195   0.849
 2127SOL    HW1 6399   2.937   3.111   0.794
 2127SOL    HW2 6400   2.992   3.264   0.813
 2128SOL     OW 6401   2.181   2.672   0.949
 2128SOL    HW1 6402   2.274   2.708   0.954
 2128SOL    HW2 6403   2.175   2.587   1.001
 2129SOL     OW 6404   2.201   2.371   1.006
 2129SOL    HW1 6405   2.149   2.288   0.989
 2129SOL    HW2 6406   2.278   2.376   0.942
 2130SOL     OW 6407   3.000   2.242   1.678
 2130SOL    HW1 6408   2.955   2.305   1.742
 2130SOL    HW2 6409   3.093   2.273   1.661
 2131SOL     OW 6410   3.022   2.069   1.477
 2131SOL    HW1 6411   3.022   2.133   1.554
 2131SOL    HW2 6412   3.050   2.117   1.394
 2132SOL     OW 6413   1.870   3.188   0.200
 2132SOL    HW1 6414   1.777   3.209   0.169
 2132SOL    HW2 6415   1.880   3.089   0.213
 2133SOL     OW 6416   1.950   3.663   0.927
 2133SOL    HW1 6417   1.908   3.577   0.900
 2133SOL    HW2 6418   2.044   3.666   0.893
 2134SOL     OW 6419   2.366   3.430   0.910
 2134SOL    HW1 6420   2.432   3.504   0.919
 2134SOL    HW2 6421   2.410   3.351   0.868
 2135SOL     OW 6422   2.864   2.658   1.238
 2135SOL    HW1 6423   2.905   2.626   1.324
 2135SOL    HW2 6424   2.768   2.631   1.235
 2136SOL     OW 6425   1.902   2.406   1.114
 2136SOL    HW1 6426   1.987   2.373   1.073
 2136SOL    HW2 6427   1.915   2.421   1.212
 2137SOL     OW 6428   2.051   2.382   1.722
 2137SOL    HW1 6429   2.110   2.342   1.652
 2137SOL    HW2 6430   1.993   2.453   1.681
 2138SOL     OW 6431   3.231   2.812   1.660
 2138SOL    HW1 6432   3.270   2.901   1.680
 2138SOL    HW2 6433   3.241   2.792   1.563
 2139SOL     OW 6434   2.677   2.434   0.325
 2139SOL    HW1 6435   2.684   2.345   0.279
 2139SOL    HW2 6436   2.583   2.468   0.317
 2140SOL     OW 6437   3.519   2.466   1.206
 2140SOL    HW1 6438   3.481   2.397   1.268
 2140SOL    HW2 6439   3.601   2.430   1.162
 2141SOL     OW 6440   2.114   3.426   1.744
 2141SOL    HW1 6441   2.084   3.483   1.820
 2141SOL    HW2 6442   2.107   3.329   1.770
 2142SOL     OW 6443   2.533   2.326   1.269
 2142SOL    HW1 6444   2.499   2.237   1.239
 2142SOL    HW2 6445   2.559   2.380   1.189
 2143SOL     OW 6446   2.792   3.540   1.465
 2143SOL    HW1 6447   2.768   3.522   1.370
 2143SOL    HW2 6448   2.822   3.634   1.475
 2144SOL     OW 6449   2.335   2.362   0.191
 2144SOL    HW1 6450   2.396   2.442   0.195
 2144SOL    HW2 6451   2.240   2.393   0.198
 2145SOL     OW 6452   2.021   2.999   1.466
 2145SOL    HW1 6453   2.043   2.938   1.542
 2145SOL    HW2 6454   2.031   2.950   1.380
 2146SOL     OW 6455   3.209   2.921   1.234
 2146SOL    HW1 6456   3.233   2.858   1.160
 2146SOL    HW2 6457   3.119   2.961   1.216
 2147SOL     OW 6458   3.164   2.717   0.309
 2147SOL    HW1 6459   3.078   2.686   0.351
 2147SOL    HW2 6460   3.160   2.703   0.210
 2148SOL     OW 6461   3.621   3.609   1.154
 2148SOL    HW1 6462   3.682   3.639   1.081
 2148SOL    HW2 6463   3.583   3.520   1.132
 2149SOL     OW 6464   3.114   3.593   1.128
 2149SOL    HW1 6465   3.198   3.598   1.074
 2149SOL    HW2 6466   3.091   3.497   1.146
 2150SOL     OW 6467   1.945   3.120   1.022
 2150SOL    HW1 6468   1.940   3.119   1.122
 2150SOL    HW2 6469   1.862   3.079   0.984
 2151SOL     OW 6470   2.550   3.524   1.716
 2151SOL    HW1 6471   2.494   3.605   1.725
 2151SOL    HW2 6472   2.602   3.528   1.630
 2152SOL     OW 6473   2.765   1.948   0.133
 2152SOL    HW1 6474   2.816   1.949   0.047
 2152SOL    HW2 6475   2.821   1.906   0.204
 2153SOL     OW 6476   3.588   1.997   0.523
 2153SOL    HW1 6477   3.661   1.980   0.456
 2153SOL    HW2 6478   3.557   1.910   0.561
 2154SOL     OW 6479   3.250   3.435   0.477
 2154SOL    HW1 6480   3.317   3.447   0.403
 2154SOL    HW2 6481   3.210   3.524   0.500
 2155SOL     OW 6482   1.992   3.656   1.851
 2155SOL    HW1 6483   1.951   3.582   1.904
 2155SOL    HW2 6484   2.056   3.707   1.909
 2156SOL     OW 6485   3.142   2.789   0.672
 2156SOL    HW1 6486   3.202   2.708   0.674
 2156SOL    HW2 6487   3.182   2.858   0.612
 2157SOL     OW 6488   2.692   3.135   1.422
 2157SOL    HW1 6489   2.687   3.168   1.517
 2157SOL    HW2 6490   2.606   3.154   1.376
 2158SOL     OW 6491   2.534   3.478   0.154
 2158SOL    HW1 6492   2.543   3.488   0.055
 2158SOL    HW2 6493   2.494   3.389   0.175
 2159SOL     OW 6494   3.512   3.582   1.394
 2159SOL    HW1 6495   3.565   3.592   1.310
 2159SOL    HW2 6496   3.485   3.672   1.428
 2160SOL     OW 6497   3.703   2.037   0.963
 2160SOL    HW1 6498   3.742   1.952   0.927
 2160SOL    HW2 6499   3.605   2.039   0.944
 2161SOL     OW 6500   2.125   2.188   0.720
 2161SOL    HW1 6501   2.046   2.239   0.686
 2161SOL    HW2 6502   2.116   2.173   0.818
 2162SOL     OW 6503   3.056   3.474   0.031
 2162SOL    HW1 6504   3.062   3.381   0.068
 2162SOL    HW2 6505   2.997   3.474  -0.049
 2163SOL     OW 6506   2.684   2.864   1.372
 2163SOL    HW1 6507   2.724   2.863   1.280
 2163SOL    HW2 6508   2.694   2.956   1.412
 2164SOL     OW 6509   2.778   2.772   0.291
 2164SOL    HW1 6510   2.841   2.810   0.223
 2164SOL    HW2 6511   2.818   2.689   0.330
 2165SOL     OW 6512   3.366   3.469   0.044
 2165SOL    HW1 6513   3.274   3.506   0.051
 2165SOL    HW2 6514   3.404   3.489  -0.046
 2166SOL     OW 6515   2.234   3.150   1.490
 2166SOL    HW1 6516   2.221   3.243   1.456
 2166SOL    HW2 6517   2.150   3.098   1.477
 2167SOL     OW 6518   3.476   3.154   1.289
 2167SOL    HW1 6519   3.536   3.157   1.369
 2167SOL    HW2 6520   3.401   3.218   1.302
 2168SOL     OW 6521   2.901   2.960   0.696
 2168SOL    HW1 6522   2.831   2.913   0.750
 2168SOL    HW2 6523   2.960   2.892   0.653
 2169SOL     OW 6524   2.876   2.098   0.971
 2169SOL    HW1 6525   2.868   2.062   0.878
 2169SOL    HW2 6526   2.874   2.022   1.036
 2170SOL     OW 6527   2.452   3.349   0.491
 2170SOL    HW1 6528   2.494   3.291   0.421
 2170SOL    HW2 6529   2.408   3.428   0.447
 2171SOL     OW 6530   3.571   2.247   1.381
 2171SOL    HW1 6531   3.644   2.316   1.385
 2171SOL    HW2 6532   3.599   2.172   1.322
 2172SOL     OW 6533   2.117   3.210   0.290
 2172SOL    HW1 6534   2.021   3.211   0.263
 2172SOL    HW2 6535   2.129   3.263   0.374
 2173SOL     OW 6536   1.967   2.875   1.726
 2173SOL    HW1 6537   1.890   2.842   1.780
 2173SOL    HW2 6538   2.052   2.845   1.768
 2174SOL     OW 6539   2.534   2.065   1.489
 2174SOL    HW1 6540   2.624   2.049   1.449
 2174SOL    HW2 6541   2.542   2.070   1.588
 2175SOL     OW 6542   3.302   2.718   1.398
 2175SOL    HW1 6543   3.245   2.770   1.335
 2175SOL    HW2 6544   3.398   2.730   1.374
 2176SOL     OW 6545   1.934   2.028   0.318
 2176SOL    HW1 6546   1.917   2.111   0.264
 2176SOL    HW2 6547   2.024   1.991   0.296
 2177SOL     OW 6548   3.045   3.197   0.119
 2177SOL    HW1 6549   2.946   3.186   0.121
 2177SOL    HW2 6550   3.079   3.212   0.212
 2178SOL     OW 6551   2.475   2.704   1.431
 2178SOL    HW1 6552   2.531   2.785   1.414
 2178SOL    HW2 6553   2.534   2.624   1.434
 2179SOL     OW 6554   3.355   3.629   0.959
 2179SOL    HW1 6555   3.388   3.693   0.890
 2179SOL    HW2 6556   3.421   3.623   1.034
 2180SOL     OW 6557   2.578   2.427   1.708
 2180SOL    HW1 6558   2.597   2.492   1.782
 2180SOL    HW2 6559   2.638   2.347   1.717
 2181SOL     OW 6560   3.312   3.082   1.633
 2181SOL    HW1 6561   3.303   3.072   1.732
 2181SOL    HW2 6562   3.408   3.075   1.607
 2182SOL     OW 6563   2.252   3.603   1.560
 2182SOL    HW1 6564   2.161   3.644   1.558
 2182SOL    HW2 6565   2.245   3.509   1.592
 2183SOL     OW 6566   3.536   2.745   1.254
 2183SOL    HW1 6567   3.509   2.656   1.217
 2183SOL    HW2 6568   3.537   2.813   1.181
 2184SOL     OW 6569   3.087   2.187   0.449
 2184SOL    HW1 6570   3.152   2.113   0.438
 2184SOL    HW2 6571   3.107   2.237   0.533
 2185SOL     OW 6572   2.456   2.607   0.652
 2185SOL    HW1 6573   2.506   2.692   0.633
 2185SOL    HW2 6574   2.368   2.609   0.604
 2186SOL     OW 6575   3.639   2.204   1.642
 2186SOL    HW1 6576   3.622   2.235   1.548
 2186SOL    HW2 6577   3.555   2.167   1.680
 2187SOL     OW 6578   3.592   2.796   1.517
 2187SOL    HW1 6579   3.630   2.887   1.532
 2187SOL    HW2 6580   3.584   2.779   1.418
 2188SOL     OW 6581   2.721   3.236   0.016
 2188SOL    HW1 6582   2.675   3.251   0.104
 2188SOL    HW2 6583   2.765   3.321  -0.014
 2189SOL     OW 6584   2.523   3.652   0.953
 2189SOL    HW1 6585   2.477   3.740   0.940
 2189SOL    HW2 6586   2.622   3.664   0.946
 2190SOL     OW 6587   2.721   2.818   0.861
 2190SOL    HW1 6588   2.775   2.749   0.909
 2190SOL    HW2 6589   2.689   2.887   0.927
 2191SOL     OW 6590   2.945   2.846   0.087
 2191SOL    HW1 6591   2.922   2.899   0.005
 2191SOL    HW2 6592   3.026   2.790   0.068
 2192SOL     OW 6593   3.723   3.431   0.851
 2192SOL    HW1 6594   3.652   3.419   0.781
 2192SOL    HW2 6595   3.724   3.352   0.911
 2193SOL     OW 6596   2.083   3.176   1.844
 2193SOL    HW1 6597   2.018   3.103   1.823
 2193SOL    HW2 6598   2.087   3.190   1.942
 2194SOL     OW 6599   1.941   3.102   0.653
 2194SOL    HW1 6600   1.940   3.055   0.741
 2194SOL    HW2 6601   2.023   3.074   0.602
 2195SOL     OW 6602   2.534   3.253   1.624
 2195SOL    HW1 6603   2.456   3.203   1.662
 2195SOL    HW2 6604   2.531   3.348   1.655
 2196SOL     OW 6605   3.686   2.054   1.227
 2196SOL    HW1 6606   3.682   1.964   1.271
 2196SOL    HW2 6607   3.689   2.043   1.128
 2197SOL     OW 6608   2.290   2.286   0.520
 2197SOL    HW1 6609   2.320   2.214   0.458
 2197SOL    HW2 6610   2.251   2.246   0.603
 2198SOL     OW 6611   3.567   3.349   1.104
 2198SOL    HW1 6612   3.474   3.324   1.077
 2198SOL    HW2 6613   3.593   3.299   1.186
 2199SOL     OW 6614   2.179   2.409   1.280
 2199SOL    HW1 6615   2.217   2.350   1.352
 2199SOL    HW2 6616   2.219   2.383   1.192
 2200SOL     OW 6617   2.674   3.448   0.687
 2200SOL    HW1 6618   2.706   3.458   0.593
 2200SOL    HW2 6619   2.595   3.386   0.689
 2201SOL     OW 6620   3.286   2.076   1.112
 2201SOL    HW1 6621   3.338   2.011   1.167
 2201SOL    HW2 6622   3.237   2.139   1.173
 2202SOL     OW 6623   2.863   1.896   1.154
 2202SOL    HW1 6624   2.800   1.824   1.123
 2202SOL    HW2 6625   2.956   1.860   1.154
 2203SOL     OW 6626   2.632   3.192   0.301
 2203SOL    HW1 6627   2.586   3.105   0.318
 2203SOL    HW2 6628   2.723   3.189   0.342
 2204SOL     OW 6629   2.480   3.429   1.284
 2204SOL    HW1 6630   2.475   3.511   1.341
 2204SOL    HW2 6631   2.569   3.426   1.239
 2205SOL     OW 6632   3.214   1.914   0.168
 2205SOL    HW1 6633   3.249   1.873   0.084
 2205SOL    HW2 6634   3.124   1.876   0.188
 2206SOL     OW 6635   3.162   2.315   0.691
 2206SOL    HW1 6636   3.103   2.395   0.695
 2206SOL    HW2 6637   3.177   2.280   0.784
 2207SOL     OW 6638   3.455   2.083   0.882
 2207SOL    HW1 6639   3.371   2.082   0.936
 2207SOL    HW2 6640   3.457   2.166   0.826
 2208SOL     OW 6641   1.901   2.939   0.300
 2208SOL    HW1 6642   2.000   2.928   0.291
 2208SOL    HW2 6643   1.861   2.853   0.332
 2209SOL     OW 6644   2.737   3.508   0.337
 2209SOL    HW1 6645   2.660   3.473   0.283
 2209SOL    HW2 6646   2.705   3.579   0.399
 2210SOL     OW 6647   2.092   2.490   1.975
 2210SOL    HW1 6648   1.999   2.488   2.012
 2210SOL    HW2 6649   2.093   2.451   1.883
 2211SOL     OW 6650   2.087   2.137   2.858
 2211SOL    HW1 6651   2.122   2.120   2.950
 2211SOL    HW2 6652   1.999   2.092   2.846
 2212SOL     OW 6653   1.881   2.230   2.509
 2212SOL    HW1 6654   1.799   2.273   2.548
 2212SOL    HW2 6655   1.853   2.157   2.446
 2213SOL     OW 6656   2.431   3.137   3.027
 2213SOL    HW1 6657   2.338   3.130   2.990
 2213SOL    HW2 6658   2.442   3.226   3.071
 2214SOL     OW 6659   3.417   3.373   2.565
 2214SOL    HW1 6660   3.360   3.357   2.646
 2214SOL    HW2 6661   3.358   3.383   2.485
 2215SOL     OW 6662   2.997   2.565   2.579
 2215SOL    HW1 6663   3.054   2.643   2.554
 2215SOL    HW2 6664   2.937   2.591   2.655
 2216SOL     OW 6665   3.617   2.469   2.093
 2216SOL    HW1 6666   3.605   2.456   1.994
 2216SOL    HW2 6667   3.587   2.388   2.142
 2217SOL     OW 6668   2.630   3.006   2.885
 2217SOL    HW1 6669   2.552   3.023   2.945
 2217SOL    HW2 6670   2.664   3.093   2.849
 2218SOL     OW 6671   2.712   2.660   3.685
 2218SOL    HW1 6672   2.708   2.736   3.750
 2218SOL    HW2 6673   2.734   2.696   3.594
 2219SOL     OW 6674   2.547   2.874   2.527
 2219SOL    HW1 6675   2.616   2.858   2.597
 2219SOL    HW2 6676   2.474   2.931   2.565
 2220SOL     OW 6677   2.548   3.023   3.665
 2220SOL    HW1 6678   2.608   3.102   3.679
 2220SOL    HW2 6679   2.462   3.054   3.624
 2221SOL     OW 6680   2.197   3.297   2.923
 2221SOL    HW1 6681   2.119   3.266   2.870
 2221SOL    HW2 6682   2.255   3.355   2.866
 2222SOL     OW 6683   3.322   3.367   3.201
 2222SOL    HW1 6684   3.346   3.461   3.227
 2222SOL    HW2 6685   3.306   3.313   3.283
 2223SOL     OW 6686   2.300   2.254   3.361
 2223SOL    HW1 6687   2.382   2.198   3.370
 2223SOL    HW2 6688   2.219   2.196   3.365
 2224SOL     OW 6689   3.465   2.309   2.599
 2224SOL    HW1 6690   3.391   2.355   2.549
 2224SOL    HW2 6691   3.516   2.377   2.652
 2225SOL     OW 6692   2.093   3.575   2.345
 2225SOL    HW1 6693   2.127   3.652   2.399
 2225SOL    HW2 6694   2.137   3.575   2.255
 2226SOL     OW 6695   2.989   3.203   3.552
 2226SOL    HW1 6696   3.036   3.203   3.640
 2226SOL    HW2 6697   2.941   3.116   3.541
 2227SOL     OW 6698   2.092   3.296   2.400
 2227SOL    HW1 6699   2.066   3.392   2.400
 2227SOL    HW2 6700   2.021   3.242   2.445
 2228SOL     OW 6701   2.102   2.953   2.748
 2228SOL    HW1 6702   2.116   2.869   2.800
 2228SOL    HW2 6703   2.047   3.017   2.803
 2229SOL     OW 6704   2.482   3.648   3.301
 2229SOL    HW1 6705   2.390   3.631   3.336
 2229SOL    HW2 6706   2.510   3.740   3.327
 2230SOL     OW 6707   2.468   2.826   1.985
 2230SOL    HW1 6708   2.475   2.910   1.931
 2230SOL    HW2 6709   2.514   2.839   2.073
 2231SOL     OW 6710   3.456   1.976   3.342
 2231SOL    HW1 6711   3.438   2.043   3.270
 2231SOL    HW2 6712   3.453   2.022   3.431
 2232SOL     OW 6713   1.984   2.505   2.425
 2232SOL    HW1 6714   1.939   2.417   2.442
 2232SOL    HW2 6715   1.983   2.559   2.509
 2233SOL     OW 6716   3.704   3.629   2.221
 2233SOL    HW1 6717   3.758   3.600   2.301
 2233SOL    HW2 6718   3.734   3.719   2.192
 2234SOL     OW 6719   1.889   3.458   1.979
 2234SOL    HW1 6720   1.870   3.362   2.000
 2234SOL    HW2 6721   1.856   3.516   2.054
 2235SOL     OW 6722   3.551   2.784   2.474
 2235SOL    HW1 6723   3.646   2.755   2.482
 2235SOL    HW2 6724   3.543   2.849   2.399
 2236SOL     OW 6725   3.503   2.970   2.294
 2236SOL    HW1 6726   3.589   2.972   2.242
 2236SOL    HW2 6727   3.517   3.017   2.382
 2237SOL     OW 6728   1.975   2.599   3.459
 2237SOL    HW1 6729   2.063   2.586   3.504
 2237SOL    HW2 6730   1.962   2.696   3.437
 2238SOL     OW 6731   2.475   3.227   2.588
 2238SOL    HW1 6732   2.426   3.140   2.597
 2238SOL    HW2 6733   2.452   3.270   2.501
 2239SOL     OW 6734   3.155   3.090   3.285
 2239SOL    HW1 6735   3.192   3.017   3.227
 2239SOL    HW2 6736   3.207   3.095   3.370
 2240SOL     OW 6737   2.671   1.866   2.364
 2240SOL    HW1 6738   2.711   1.957   2.355
 2240SOL    HW2 6739   2.571   1.874   2.370
 2241SOL     OW 6740   2.059   2.838   3.126
 2241SOL    HW1 6741   2.148   2.793   3.112
 2241SOL    HW2 6742   1.986   2.773   3.107
 2242SOL     OW 6743   3.387   2.861   2.052
 2242SOL    HW1 6744   3.324   2.785   2.065
 2242SOL    HW2 6745   3.435   2.879   2.138
 2243SOL     OW 6746   3.049   3.654   3.478
 2243SOL    HW1 6747   3.073   3.714   3.402
 2243SOL    HW2 6748   3.056   3.559   3.448
 2244SOL     OW 6749   2.179   2.113   3.663
 2244SOL    HW1 6750   2.250   2.184   3.669
 2244SOL    HW2 6751   2.091   2.152   3.691
 2245SOL     OW 6752   3.328   3.279   2.815
 2245SOL    HW1 6753   3.269   3.285   2.895
 2245SOL    HW2 6754   3.313   3.191   2.769
 2246SOL     OW 6755   3.529   3.576   2.434
 2246SOL    HW1 6756   3.488   3.553   2.346
 2246SOL    HW2 6757   3.511   3.502   2.499
 2247SOL     OW 6758   3.143   2.207   2.806
 2247SOL    HW1 6759   3.057   2.157   2.793
 2247SOL    HW2 6760   3.205   2.153   2.862
 2248SOL     OW 6761   3.438   3.524   2.169
 2248SOL    HW1 6762   3.527   3.570   2.172
 2248SOL    HW2 6763   3.417   3.500   2.074
 2249SOL     OW 6764   2.669   2.467   3.327
 2249SOL    HW1 6765   2.622   2.464   3.416
 2249SOL    HW2 6766   2.618   2.412   3.261
 2250SOL     OW 6767   3.256   2.331   3.536
 2250SOL    HW1 6768   3.236   2.374   3.624
 2250SOL    HW2 6769   3.334   2.269   3.545
 2251SOL     OW 6770   2.835   2.752   3.434
 2251SOL    HW1 6771   2.881   2.668   3.405
 2251SOL    HW2 6772   2.779   2.786   3.359
 2252SOL     OW 6773   2.853   2.272   3.104
 2252SOL    HW1 6774   2.776   2.306   3.158
 2252SOL    HW2 6775   2.819   2.221   3.025
 2253SOL     OW 6776   2.903   2.563   2.291
 2253SOL    HW1 6777   2.929   2.559   2.387
 2253SOL    HW2 6778   2.818   2.512   2.277
 2254SOL     OW 6779   1.938   2.673   2.651
 2254SOL    HW1 6780   2.037   2.661   2.660
 2254SOL    HW2 6781   1.914   2.768   2.672
 2255SOL     OW 6782   1.992   3.683   3.433
 2255SOL    HW1 6783   1.982   3.668   3.532
 2255SOL    HW2 6784   1.906   3.719   3.397
 2256SOL     OW 6785   2.727   2.210   2.057
 2256SOL    HW1 6786   2.786   2.273   2.008
 2256SOL    HW2 6787   2.746   2.116   2.028
 2257SOL     OW 6788   3.581   2.447   3.693
 2257SOL    HW1 6789   3.555   2.536   3.657
 2257SOL    HW2 6790   3.579   2.379   3.620
 2258SOL     OW 6791   3.224   3.006   2.407
 2258SOL    HW1 6792   3.307   2.977   2.359
 2258SOL    HW2 6793   3.175   3.073   2.351
 2259SOL     OW 6794   2.870   3.318   2.339
 2259SOL    HW1 6795   2.824   3.390   2.287
 2259SOL    HW2 6796   2.866   3.338   2.437
 2260SOL     OW 6797   2.213   3.663   2.715
 2260SOL    HW1 6798   2.263   3.577   2.721
 2260SOL    HW2 6799   2.278   3.740   2.712
 2261SOL     OW 6800   3.657   2.928   2.735
 2261SOL    HW1 6801   3.595   2.913   2.659
 2261SOL    HW2 6802   3.605   2.939   2.820
 2262SOL     OW 6803   3.089   3.412   3.368
 2262SOL    HW1 6804   3.095   3.335   3.432
 2262SOL    HW2 6805   3.037   3.386   3.288
 2263SOL     OW 6806   2.183   2.805   2.104
 2263SOL    HW1 6807   2.265   2.844   2.062
 2263SOL    HW2 6808   2.156   2.723   2.055
 2264SOL     OW 6809   3.320   2.597   2.590
 2264SOL    HW1 6810   3.315   2.532   2.665
 2264SOL    HW2 6811   3.400   2.656   2.603
 2265SOL     OW 6812   2.323   3.128   3.589
 2265SOL    HW1 6813   2.273   3.129   3.503
 2265SOL    HW2 6814   2.260   3.110   3.665
 2266SOL     OW 6815   2.973   3.638   2.099
 2266SOL    HW1 6816   2.913   3.576   2.149
 2266SOL    HW2 6817   3.004   3.594   2.014
 2267SOL     OW 6818   2.064   2.147   3.360
 2267SOL    HW1 6819   1.984   2.207   3.347
 2267SOL    HW2 6820   2.054   2.098   3.446
 2268SOL     OW 6821   3.494   3.239   1.943
 2268SOL    HW1 6822   3.462   3.333   1.933
 2268SOL    HW2 6823   3.418   3.176   1.931
 2269SOL     OW 6824   2.326   3.605   2.185
 2269SOL    HW1 6825   2.359   3.644   2.271
 2269SOL    HW2 6826   2.402   3.598   2.120
 2270SOL     OW 6827   3.262   1.969   2.288
 2270SOL    HW1 6828   3.238   1.932   2.198
 2270SOL    HW2 6829   3.361   1.985   2.292
 2271SOL     OW 6830   2.111   3.647   3.103
 2271SOL    HW1 6831   2.168   3.582   3.153
 2271SOL    HW2 6832   2.095   3.614   3.010
 2272SOL     OW 6833   2.802   3.560   2.766
 2272SOL    HW1 6834   2.882   3.503   2.787
 2272SOL    HW2 6835   2.753   3.520   2.689
 2273SOL     OW 6836   3.409   2.084   3.591
 2273SOL    HW1 6837   3.404   2.121   3.683
 2273SOL    HW2 6838   3.337   2.015   3.579
 2274SOL     OW 6839   2.476   1.984   1.979
 2274SOL    HW1 6840   2.574   1.962   1.986
 2274SOL    HW2 6841   2.445   1.967   1.886
 2275SOL     OW 6842   2.643   2.126   3.611
 2275SOL    HW1 6843   2.710   2.065   3.654
 2275SOL    HW2 6844   2.570   2.145   3.676
 2276SOL     OW 6845   2.750   3.376   3.057
 2276SOL    HW1 6846   2.727   3.351   2.963
 2276SOL    HW2 6847   2.811   3.307   3.096
 2277SOL     OW 6848   3.213   2.452   3.295
 2277SOL    HW1 6849   3.241   2.409   3.380
 2277SOL    HW2 6850   3.238   2.548   3.296
 2278SOL     OW 6851   2.665   3.264   2.786
 2278SOL    HW1 6852   2.755   3.278   2.744
 2278SOL    HW2 6853   2.594   3.266   2.715
 2279SOL     OW 6854   2.784   2.365   2.761
 2279SOL    HW1 6855   2.759   2.356   2.665
 2279SOL    HW2 6856   2.832   2.283   2.792
 2280SOL     OW 6857   2.401   1.926   2.374
 2280SOL    HW1 6858   2.320   1.927   2.432
 2280SOL    HW2 6859   2.404   2.009   2.319
 2281SOL     OW 6860   3.296   3.050   1.903
 2281SOL    HW1 6861   3.328   2.974   1.960
 2281SOL    HW2 6862   3.204   3.077   1.933
 2282SOL     OW 6863   2.159   1.897   2.033
 2282SOL    HW1 6864   2.208   1.981   2.012
 2282SOL    HW2 6865   2.221   1.832   2.078
 2283SOL     OW 6866   2.797   2.098   2.342
 2283SOL    HW1 6867   2.749   2.139   2.264
 2283SOL    HW2 6868   2.896   2.096   2.323
 2284SOL     OW 6869   2.938   2.545   3.326
 2284SOL    HW1 6870   2.858   2.484   3.329
 2284SOL    HW2 6871   3.019   2.492   3.302
 2285SOL     OW 6872   3.089   3.432   2.655
 2285SOL    HW1 6873   3.110   3.506   2.590
 2285SOL    HW2 6874   3.157   3.432   2.728
 2286SOL     OW 6875   2.321   3.014   2.603
 2286SOL    HW1 6876   2.250   2.987   2.668
 2286SOL    HW2 6877   2.295   2.986   2.510
 2287SOL     OW 6878   3.133   3.659   2.453
 2287SOL    HW1 6879   3.177   3.723   2.389
 2287SOL    HW2 6880   3.083   3.711   2.523
 2288SOL     OW 6881   2.894   2.411   1.878
 2288SOL    HW1 6882   2.853   2.493   1.839
 2288SOL    HW2 6883   2.958   2.437   1.951
 2289SOL     OW 6884   1.940   2.418   3.248
 2289SOL    HW1 6885   2.032   2.417   3.207
 2289SOL    HW2 6886   1.934   2.492   3.315
 2290SOL     OW 6887   2.423   2.084   3.009
 2290SOL    HW1 6888   2.461   2.000   3.046
 2290SOL    HW2 6889   2.335   2.103   3.053
 2291SOL     OW 6890   2.728   2.316   2.504
 2291SOL    HW1 6891   2.696   2.388   2.442
 2291SOL    HW2 6892   2.752   2.235   2.451
 2292SOL     OW 6893   2.879   1.901   2.615
 2292SOL    HW1 6894   2.807   1.906   2.546
 2292SOL    HW2 6895   2.855   1.832   2.684
 2293SOL     OW 6896   3.291   3.035   2.729
 2293SOL    HW1 6897   3.236   2.951   2.722
 2293SOL    HW2 6898   3.317   3.064   2.637
 2294SOL     OW 6899   3.328   2.452   2.854
 2294SOL    HW1 6900   3.298   2.357   2.861
 2294SOL    HW2 6901   3.401   2.468   2.920
 2295SOL     OW 6902   3.719   2.695   2.239
 2295SOL    HW1 6903   3.761   2.631   2.303
 2295SOL    HW2 6904   3.681   2.644   2.161
 2296SOL     OW 6905   2.350   3.247   2.036
 2296SOL    HW1 6906   2.263   3.232   2.083
 2296SOL    HW2 6907   2.333   3.273   1.941
 2297SOL     OW 6908   3.526   3.142   2.519
 2297SOL    HW1 6909   3.625   3.150   2.533
 2297SOL    HW2 6910   3.481   3.226   2.550
 2298SOL     OW 6911   3.252   2.437   1.940
 2298SOL    HW1 6912   3.198   2.416   2.021
 2298SOL    HW2 6913   3.343   2.396   1.949
 2299SOL     OW 6914   2.389   2.118   2.190
 2299SOL    HW1 6915   2.416   2.059   2.115
 2299SOL    HW2 6916   2.389   2.213   2.159
 2300SOL     OW 6917   3.616   3.085   3.450
 2300SOL    HW1 6918   3.707   3.046   3.437
 2300SOL    HW2 6919   3.624   3.181   3.474
 2301SOL     OW 6920   2.926   3.209   3.202
 2301SOL    HW1 6921   2.846   3.186   3.257
 2301SOL    HW2 6922   3.009   3.183   3.251
 2302SOL     OW 6923   3.454   3.491   3.487
 2302SOL    HW1 6924   3.481   3.525   3.397
 2302SOL    HW2 6925   3.533   3.453   3.533
 2303SOL     OW 6926   2.973   3.057   2.962
 2303SOL    HW1 6927   2.933   3.101   3.043
 2303SOL    HW2 6928   2.932   3.094   2.879
 2304SOL     OW 6929   3.500   2.961   2.941
 2304SOL    HW1 6930   3.505   3.042   3.000
 2304SOL    HW2 6931   3.414   2.963   2.890
 2305SOL     OW 6932   2.777   1.951   3.264
 2305SOL    HW1 6933   2.802   1.931   3.169
 2305SOL    HW2 6934   2.849   2.007   3.306
 2306SOL     OW 6935   2.842   2.978   3.581
 2306SOL    HW1 6936   2.743   2.984   3.591
 2306SOL    HW2 6937   2.865   2.898   3.525
 2307SOL     OW 6938   2.567   2.912   2.230
 2307SOL    HW1 6939   2.553   2.919   2.329
 2307SOL    HW2 6940   2.651   2.861   2.212
 2308SOL     OW 6941   2.272   2.675   3.113
 2308SOL    HW1 6942   2.358   2.687   3.163
 2308SOL    HW2 6943   2.230   2.588   3.140
 2309SOL     OW 6944   3.136   2.248   3.124
 2309SOL    HW1 6945   3.157   2.322   3.188
 2309SOL    HW2 6946   3.047   2.265   3.081
 2310SOL     OW 6947   1.926   3.426   3.193
 2310SOL    HW1 6948   1.880   3.508   3.159
 2310SOL    HW2 6949   2.024   3.445   3.202
 2311SOL     OW 6950   2.229   2.962   2.363
 2311SOL    HW1 6951   2.222   3.045   2.307
 2311SOL    HW2 6952   2.233   2.882   2.303
 2312SOL     OW 6953   3.114   3.210   2.250
 2312SOL    HW1 6954   3.164   3.287   2.290
 2312SOL    HW2 6955   3.019   3.212   2.282
 2313SOL     OW 6956   3.134   3.307   3.004
 2313SOL    HW1 6957   3.181   3.320   3.091
 2313SOL    HW2 6958   3.068   3.233   3.013
 2314SOL     OW 6959   3.444   2.501   2.334
 2314SOL    HW1 6960   3.413   2.562   2.407
 2314SOL    HW2 6961   3.494   2.553   2.265
 2315SOL     OW 6962   2.216   3.372   3.191
 2315SOL    HW1 6963   2.195   3.328   3.104
 2315SOL    HW2 6964   2.313   3.398   3.194
 2316SOL     OW 6965   2.264   2.613   3.460
 2316SOL    HW1 6966   2.332   2.668   3.413
 2316SOL    HW2 6967   2.304   2.525   3.487
 2317SOL     OW 6968   3.449   2.641   3.532
 2317SOL    HW1 6969   3.357   2.679   3.527
 2317SOL    HW2 6970   3.509   2.688   3.467
 2318SOL     OW 6971   2.875   1.967   3.632
 2318SOL    HW1 6972   2.881   2.052   3.580
 2318SOL    HW2 6973   2.907   1.891   3.575
 2319SOL     OW 6974   2.366   1.912   3.602
 2319SOL    HW1 6975   2.324   1.855   3.532
 2319SOL    HW2 6976   2.300   1.981   3.634
 2320SOL     OW 6977   2.435   2.732   2.891
 2320SOL    HW1 6978   2.479   2.821   2.882
 2320SOL    HW2 6979   2.372   2.732   2.968
 2321SOL     OW 6980   3.222   2.724   2.907
 2321SOL    HW1 6981   3.147   2.724   2.841
 2321SOL    HW2 6982   3.259   2.632   2.916
 2322SOL     OW 6983   3.071   2.387   2.137
 2322SOL    HW1 6984   3.084   2.303   2.191
 2322SOL    HW2 6985   3.042   2.461   2.197
 2323SOL     OW 6986   2.169   2.075   3.093
 2323SOL    HW1 6987   2.146   2.112   3.183
 2323SOL    HW2 6988   2.139   1.980   3.087
 2324SOL     OW 6989   1.899   3.172   3.144
 2324SOL    HW1 6990   1.952   3.123   3.212
 2324SOL    HW2 6991   1.921   3.270   3.149
 2325SOL     OW 6992   2.594   2.496   2.926
 2325SOL    HW1 6993   2.653   2.470   2.850
 2325SOL    HW2 6994   2.566   2.592   2.915
 2326SOL     OW 6995   3.590   2.797   3.716
 2326SOL    HW1 6996   3.544   2.790   3.627
 2326SOL    HW2 6997   3.528   2.841   3.782
 2327SOL     OW 6998   2.169   1.925   2.480
 2327SOL    HW1 6999   2.158   2.019   2.513
 2327SOL    HW2 7000   2.164   1.862   2.557
 2328SOL     OW 7001   3.484   2.229   2.236
 2328SOL    HW1 7002   3.486   2.153   2.300
 2328SOL    HW2 7003   3.436   2.306   2.276
 2329SOL     OW 7004   2.885   2.628   2.828
 2329SOL    HW1 7005   2.900   2.649   2.924
 2329SOL    HW2 7006   2.855   2.533   2.819
 2330SOL     OW 7007   2.842   3.435   3.562
 2330SOL    HW1 7008   2.822   3.479   3.474
 2330SOL    HW2 7009   2.881   3.344   3.546
 2331SOL     OW 7010   3.721   3.380   3.467
 2331SOL    HW1 7011   3.735   3.407   3.372
 2331SOL    HW2 7012   3.804   3.402   3.520
 2332SOL     OW 7013   2.212   2.760   3.666
 2332SOL    HW1 7014   2.288   2.804   3.714
 2332SOL    HW2 7015   2.247   2.713   3.584
 2333SOL     OW 7016   3.402   2.136   1.987
 2333SOL    HW1 7017   3.341   2.061   2.010
 2333SOL    HW2 7018   3.424   2.188   2.070
 2334SOL     OW 7019   3.165   2.700   1.904
 2334SOL    HW1 7020   3.199   2.607   1.919
 2334SOL    HW2 7021   3.183   2.727   1.809
 2335SOL     OW 7022   2.930   3.195   2.711
 2335SOL    HW1 7023   2.937   3.111   2.656
 2335SOL    HW2 7024   2.992   3.264   2.675
 2336SOL     OW 7025   2.181   2.672   2.811
 2336SOL    HW1 7026   2.274   2.708   2.816
 2336SOL    HW2 7027   2.175   2.587   2.863
 2337SOL     OW 7028   2.201   2.371   2.868
 2337SOL    HW1 7029   2.149   2.288   2.851
 2337SOL    HW2 7030   2.278   2.376   2.804
 2338SOL     OW 7031   3.000   2.242   3.540
 2338SOL    HW1 7032   2.955   2.305   3.604
 2338SOL    HW2 7033   3.093   2.273   3.523
 2339SOL     OW 7034   3.022   2.069   3.339
 2339SOL    HW1 7035   3.022   2.133   3.416
 2339SOL    HW2 7036   3.050   2.117   3.256
 2340SOL     OW 7037   1.870   3.188   2.062
 2340SOL    HW1 7038   1.777   3.209   2.031
 2340SOL    HW2 7039   1.880   3.089   2.075
 2341SOL     OW 7040   1.950   3.663   2.789
 2341SOL    HW1 7041   1.908   3.577   2.762
 2341SOL    HW2 7042   2.044   3.666   2.755
 2342SOL     OW 7043   2.366   3.430   2.772
 2342SOL    HW1 7044   2.432   3.504   2.781
 2342SOL    HW2 7045   2.410   3.351   2.730
 2343SOL     OW 7046   2.864   2.658   3.100
 2343SOL    HW1 7047   2.905   2.626   3.186
 2343SOL    HW2 7048   2.768   2.631   3.097
 2344SOL     OW 7049   1.902   2.406   2.976
 2344SOL    HW1 7050   1.987   2.373   2.935
 2344SOL    HW2 7051   1.915   2.421   3.074
 2345SOL     OW 7052   2.051   2.382   3.584
 2345SOL    HW1 7053   2.110   2.342   3.514
 2345SOL    HW2 7054   1.993   2.453   3.543
 2346SOL     OW 7055   3.231   2.812   3.522
 2346SOL    HW1 7056   3.270   2.901   3.542
 2346SOL    HW2 7057   3.241   2.792   3.425
 2347SOL     OW 7058   2.677   2.434   2.187
 2347SOL    HW1 7059   2.684   2.345   2.141
 2347SOL    HW2 7060   2.583   2.468   2.179
 2348SOL     OW 7061   3.519   2.466   3.068
 2348SOL    HW1 7062   3.481   2.397   3.130
 2348SOL    HW2 7063   3.601   2.430   3.024
 2349SOL     OW 7064   2.114   3.426   3.606
 2349SOL    HW1 7065   2.084   3.483   3.682
 2349SOL    HW2 7066   2.107   3.329   3.632
 2350SOL     OW 7067   2.533   2.326   3.131
 2350SOL    HW1 7068   2.499   2.237   3.101
 2350SOL    HW2 7069   2.559   2.380   3.051
 2351SOL     OW 7070   2.792   3.540   3.327
 2351SOL    HW1 7071   2.768   3.522   3.232
 2351SOL    HW2 7072   2.822   3.634   3.337
 2352SOL     OW 7073   2.335   2.362   2.053
 2352SOL    HW1 7074   2.396   2.442   2.057
 2352SOL    HW2 7075   2.240   2.393   2.060
 2353SOL     OW 7076   2.021   2.999   3.328
 2353SOL    HW1 7077   2.043   2.938   3.404
 2353SOL    HW2 7078   2.031   2.950   3.242
 2354SOL     OW 7079   3.209   2.921   3.096
 2354SOL    HW1 7080   3.233   2.858   3.022
 2354SOL    HW2 7081   3.119   2.961   3.078
 2355SOL     OW 7082   3.164   2.717   2.171
 2355SOL    HW1 7083   3.078   2.686   2.213
 2355SOL    HW2 7084   3.160   2.703   2.072
 2356SOL     OW 7085   3.621   3.609   3.016
 2356SOL    HW1 7086   3.682   3.639   2.943
 2356SOL    HW2 7087   3.583   3.520   2.994
 2357SOL     OW 7088   3.114   3.593   2.990
 2357SOL    HW1 7089   3.198   3.598   2.936
 2357SOL    HW2 7090   3.091   3.497   3.008
 2358SOL     OW 7091   1.945   3.120   2.884
 2358SOL    HW1 7092   1.940   3.119   2.984
 2358SOL    HW2 7093   1.862   3.079   2.846
 2359SOL     OW 7094   2.550   3.524   3.578
 2359SOL    HW1 7095   2.494   3.605   3.587
 2359SOL    HW2 7096   2.602   3.528   3.492
 2360SOL     OW 7097   3.588   1.997   2.385
 2360SOL    HW1 7098   3.661   1.980   2.318
 2360SOL    HW2 7099   3.557   1.910   2.423
 2361SOL     OW 7100   3.250   3.435   2.339
 2361SOL    HW1 7101   3.317   3.447   2.265
 2361SOL    HW2 7102   3.210   3.524   2.362
 2362SOL     OW 7103   1.992   3.656   3.713
 2362SOL    HW1 7104   1.951   3.582   3.766
 2362SOL    HW2 7105   2.056   3.707   3.771
 2363SOL     OW 7106   3.142   2.789   2.534
 2363SOL    HW1 7107   3.202   2.708   2.536
 2363SOL    HW2 7108   3.182   2.858   2.474
 2364SOL     OW 7109   2.692   3.135   3.284
 2364SOL    HW1 7110   2.687   3.168   3.379
 2364SOL    HW2 7111   2.606   3.154   3.238
 2365SOL     OW 7112   2.534   3.478   2.016
 2365SOL    HW1 7113   2.543   3.488   1.917
 2365SOL    HW2 7114   2.494   3.389   2.037
 2366SOL     OW 7115   3.512   3.582   3.256
 2366SOL    HW1 7116   3.565   3.592   3.172
 2366SOL    HW2 7117   3.485   3.672   3.290
 2367SOL     OW 7118   3.703   2.037   2.825
 2367SOL    HW1 7119   3.742   1.952   2.789
 2367SOL    HW2 7120   3.605   2.039   2.806
 2368SOL     OW 7121   2.125   2.188   2.582
 2368SOL    HW1 7122   2.046   2.239   2.548
 2368SOL    HW2 7123   2.116   2.173   2.680
 2369SOL     OW 7124   3.056   3.474   1.893
 2369SOL    HW1 7125   3.062   3.381   1.930
 2369SOL    HW2 7126   2.997   3.474   1.813
 2370SOL     OW 7127   2.684   2.864   3.234
 2370SOL    HW1 7128   2.724   2.863   3.142
 2370SOL    HW2 7129   2.694   2.956   3.274
 2371SOL     OW 7130   2.778   2.772   2.153
 2371SOL    HW1 7131   2.841   2.810   2.085
 2371SOL    HW2 7132   2.818   2.689   2.192
 2372SOL     OW 7133   3.366   3.469   1.906
 2372SOL    HW1 7134   3.274   3.506   1.913
 2372SOL    HW2 7135   3.404   3.489   1.816
 2373SOL     OW 7136   2.234   3.150   3.352
 2373SOL    HW1 7137   2.221   3.243   3.318
 2373SOL    HW2 7138   2.150   3.098   3.339
 2374SOL     OW 7139   3.476   3.154   3.151
 2374SOL    HW1 7140   3.536   3.157   3.231
 2374SOL    HW2 7141   3.401   3.218   3.164
 2375SOL     OW 7142   2.901   2.960   2.558
 2375SOL    HW1 7143   2.831   2.913   2.612
 2375SOL    HW2 7144   2.960   2.892   2.515
 2376SOL     OW 7145   2.876   2.098   2.833
 2376SOL    HW1 7146   2.868   2.062   2.740
 2376SOL    HW2 7147   2.874   2.022   2.898
 2377SOL     OW 7148   2.452   3.349   2.353
 2377SOL    HW1 7149   2.494   3.291   2.283
 2377SOL    HW2 7150   2.408   3.428   2.309
 2378SOL     OW 7151   3.571   2.247   3.243
 2378SOL    HW1 7152   3.644   2.316   3.247
 2378SOL    HW2 7153   3.599   2.172   3.184
 2379SOL     OW 7154   2.117   3.210   2.152
 2379SOL    HW1 7155   2.021   3.211   2.125
 2379SOL    HW2 7156   2.129   3.263   2.236
 2380SOL     OW 7157   1.967   2.875   3.588
 2380SOL    HW1 7158   1.890   2.842   3.642
 2380SOL    HW2 7159   2.052   2.845   3.630
 2381SOL     OW 7160   2.534   2.065   3.351
 2381SOL    HW1 7161   2.624   2.049   3.311
 2381SOL    HW2 7162   2.542   2.070   3.450
 2382SOL     OW 7163   1.937   2.207   1.895
 2382SOL    HW1 7164   1.845   2.179   1.866
 2382SOL    HW2 7165   1.968   2.284   1.839
 2383SOL     OW 7166   3.302   2.718   3.260
 2383SOL    HW1 7167   3.245   2.770   3.197
 2383SOL    HW2 7168   3.398   2.730   3.236
 2384SOL     OW 7169   1.934   2.028   2.180
 2384SOL    HW1 7170   1.917   2.111   2.126
 2384SOL    HW2 7171   2.024   1.991   2.158
 2385SOL     OW 7172   3.045   3.197   1.981
 2385SOL    HW1 7173   2.946   3.186   1.983
 2385SOL    HW2 7174   3.079   3.212   2.074
 2386SOL     OW 7175   2.475   2.704   3.293
 2386SOL    HW1 7176   2.531   2.785   3.276
 2386SOL    HW2 7177   2.534   2.624   3.296
 2387SOL     OW 7178   3.355   3.629   2.821
 2387SOL    HW1 7179   3.388   3.693   2.752
 2387SOL    HW2 7180   3.421   3.623   2.896
 2388SOL     OW 7181   2.578   2.427   3.570
 2388SOL    HW1 7182   2.597   2.492   3.644
 2388SOL    HW2 7183   2.638   2.347   3.579
 2389SOL     OW 7184   3.312   3.082   3.495
 2389SOL    HW1 7185   3.303   3.072   3.594
 2389SOL    HW2 7186   3.408   3.075   3.469
 2390SOL     OW 7187   2.252   3.603   3.422
 2390SOL    HW1 7188   2.161   3.644   3.420
 2390SOL    HW2 7189   2.245   3.509   3.454
 2391SOL     OW 7190   3.536   2.745   3.116
 2391SOL    HW1 7191   3.509   2.656   3.079
 2391SOL    HW2 7192   3.537   2.813   3.043
 2392SOL     OW 7193   3.087   2.187   2.311
 2392SOL    HW1 7194   3.152   2.113   2.300
 2392SOL    HW2 7195   3.107   2.237   2.395
 2393SOL     OW 7196   3.639   2.204   3.504
 2393SOL    HW1 7197   3.622   2.235   3.410
 2393SOL    HW2 7198   3.555   2.167   3.542
 2394SOL     OW 7199   3.592   2.796   3.379
 2394SOL    HW1 7200   3.630   2.887   3.394
 2394SOL    HW2 7201   3.584   2.779   3.280
 2395SOL     OW 7202   2.721   3.236   1.878
 2395SOL    HW1 7203   2.675   3.251   1.966
 2395SOL    HW2 7204   2.765   3.321   1.848
 2396SOL     OW 7205   2.523   3.652   2.815
 2396SOL    HW1 7206   2.477   3.740   2.802
 2396SOL    HW2 7207   2.622   3.664   2.808
 2397SOL     OW 7208   2.721   2.818   2.723
 2397SOL    HW1 7209   2.775   2.749   2.771
 2397SOL    HW2 7210   2.689   2.887   2.789
 2398SOL     OW 7211   2.945   2.846   1.949
 2398SOL    HW1 7212   2.922   2.899   1.867
 2398SOL    HW2 7213   3.026   2.790   1.930
 2399SOL     OW 7214   3.723   3.431   2.713
 2399SOL    HW1 7215   3.652   3.419   2.643
 2399SOL    HW2 7216   3.724   3.352   2.773
 2400SOL     OW 7217   2.083   3.176   3.706
 2400SOL    HW1 7218   2.018   3.103   3.685
 2400SOL    HW2 7219   2.087   3.190   3.804
 2401SOL     OW 7220   1.941   3.102   2.515
 2401SOL    HW1 7221   1.940   3.055   2.603
 2401SOL    HW2 7222   2.023   3.074   2.464
 2402SOL     OW 7223   2.534   3.253   3.486
 2402SOL    HW1 7224   2.456   3.203   3.524
 2402SOL    HW2 7225   2.531   3.348   3.517
 2403SOL     OW 7226   3.686   2.054   3.089
 2403SOL    HW1 7227   3.682   1.964   3.133
 2403SOL    HW2 7228   3.689   2.043   2.990
 2404SOL     OW 7229   3.567   3.349   2.966
 2404SOL    HW1 7230   3.474   3.324   2.939
 2404SOL    HW2 7231   3.593   3.299   3.048
 2405SOL     OW 7232   2.179   2.409   3.142
 2405SOL    HW1 7233   2.217   2.350   3.214
 2405SOL    HW2 7234   2.219   2.383   3.054
 2406SOL     OW 7235   2.674   3.448   2.549
 2406SOL    HW1 7236   2.706   3.458   2.455
 2406SOL    HW2 7237   2.595   3.386   2.551
 2407SOL     OW 7238   3.286   2.076   2.974
 2407SOL    HW1 7239   3.338   2.011   3.029
 2407SOL    HW2 7240   3.237   2.139   3.035
 2408SOL     OW 7241   2.863   1.896   3.016
 2408SOL    HW1 7242   2.800   1.824   2.985
 2408SOL    HW2 7243   2.956   1.860   3.016
 2409SOL     OW 7244   2.632   3.192   2.163
 2409SOL    HW1 7245   2.586   3.105   2.180
 2409SOL    HW2 7246   2.723   3.189   2.204
 2410SOL     OW 7247   2.480   3.429   3.146
 2410SOL    HW1 7248   2.475   3.511   3.203
 2410SOL    HW2 7249   2.569   3.426   3.101
 2411SOL     OW 7250   3.214   1.914   2.030
 2411SOL    HW1 7251   3.249   1.873   1.946
 2411SOL    HW2 7252   3.124   1.876   2.050
 2412SOL     OW 7253   3.162   2.315   2.553
 2412SOL    HW1 7254   3.103   2.395   2.557
 2412SOL    HW2 7255   3.177   2.280   2.646
 2413SOL     OW 7256   3.455   2.083   2.744
 2413SOL    HW1 7257   3.371   2.082   2.798
 2413SOL    HW2 7258   3.457   2.166   2.688
 2414SOL     OW 7259   1.901   2.939   2.162
 2414SOL    HW1 7260   2.000   2.928   2.153
 2414SOL    HW2 7261   1.861   2.853   2.194
 2415SOL     OW 7262   2.737   3.508   2.199
 2415SOL    HW1 7263   2.660   3.473   2.145
 2415SOL    HW2 7264   2.705   3.579   2.261
 2416SOL     OW 7265   2.092   2.490   3.837
 2416SOL    HW1 7266   1.999   2.488   3.874
 2416SOL    HW2 7267   2.093   2.451   3.745
 2417SOL     OW 7268   2.087   2.137   4.720
 2417SOL    HW1 7269   2.122   2.120   4.812
 2417SOL    HW2 7270   1.999   2.092   4.708
 2418SOL     OW 7271   1.881   2.230   4.371
 2418SOL    HW1 7272   1.799   2.273   4.410
 2418SOL    HW2 7273   1.853   2.157   4.308
 2419SOL     OW 7274   3.417   3.373   4.427
 2419SOL    HW1 7275   3.360   3.357   4.508
 2419SOL    HW2 7276   3.358   3.383   4.347
 2420SOL     OW 7277   2.997   2.565   4.441
 2420SOL    HW1 7278   3.054   2.643   4.416
 2420SOL    HW2 7279   2.937   2.591   4.517
 2421SOL     OW 7280   3.617   2.469   3.955
 2421SOL    HW1 7281   3.605   2.456   3.856
 2421SOL    HW2 7282   3.587   2.388   4.004
 2422SOL     OW 7283   2.630   3.006   4.747
 2422SOL    HW1 7284   2.552   3.023   4.807
 2422SOL    HW2 7285   2.664   3.093   4.711
 2423SOL     OW 7286   2.547   2.874   4.389
 2423SOL    HW1 7287   2.616   2.858   4.459
 2423SOL    HW2 7288   2.474   2.931   4.427
 2424SOL     OW 7289   2.197   3.297   4.785
 2424SOL    HW1 7290   2.119   3.266   4.732
 2424SOL    HW2 7291   2.255   3.355   4.728
 2425SOL     OW 7292   3.465   2.309   4.461
 2425SOL    HW1 7293   3.391   2.355   4.411
 2425SOL    HW2 7294   3.516   2.377   4.514
 2426SOL     OW 7295   2.093   3.575   4.207
 2426SOL    HW1 7296   2.127   3.652   4.261
 2426SOL    HW2 7297   2.137   3.575   4.117
 2427SOL     OW 7298   2.092   3.296   4.262
 2427SOL    HW1 7299   2.066   3.392   4.262
 2427SOL    HW2 7300   2.021   3.242   4.307
 2428SOL     OW 7301   2.102   2.953   4.610
 2428SOL    HW1 7302   2.116   2.869   4.662
 2428SOL    HW2 7303   2.047   3.017   4.665
 2429SOL     OW 7304   2.468   2.826   3.847
 2429SOL    HW1 7305   2.475   2.910   3.793
 2429SOL    HW2 7306   2.514   2.839   3.935
 2430SOL     OW 7307   1.984   2.505   4.287
 2430SOL    HW1 7308   1.939   2.417   4.304
 2430SOL    HW2 7309   1.983   2.559   4.371
 2431SOL     OW 7310   3.704   3.629   4.083
 2431SOL    HW1 7311   3.758   3.600   4.163
 2431SOL    HW2 7312   3.734   3.719   4.054
 2432SOL     OW 7313   1.889   3.458   3.841
 2432SOL    HW1 7314   1.870   3.362   3.862
 2432SOL    HW2 7315   1.856   3.516   3.916
 2433SOL     OW 7316   3.551   2.784   4.336
 2433SOL    HW1 7317   3.646   2.755   4.344
 2433SOL    HW2 7318   3.543   2.849   4.261
 2434SOL     OW 7319   3.503   2.970   4.156
 2434SOL    HW1 7320   3.589   2.972   4.104
 2434SOL    HW2 7321   3.517   3.017   4.244
 2435SOL     OW 7322   2.475   3.227   4.450
 2435SOL    HW1 7323   2.426   3.140   4.459
 2435SOL    HW2 7324   2.452   3.270   4.363
 2436SOL     OW 7325   2.671   1.866   4.226
 2436SOL    HW1 7326   2.711   1.957   4.217
 2436SOL    HW2 7327   2.571   1.874   4.232
 2437SOL     OW 7328   3.387   2.861   3.914
 2437SOL    HW1 7329   3.324   2.785   3.927
 2437SOL    HW2 7330   3.435   2.879   4.000
 2438SOL     OW 7331   3.328   3.279   4.677
 2438SOL    HW1 7332   3.269   3.285   4.757
 2438SOL    HW2 7333   3.313   3.191   4.631
 2439SOL     OW 7334   3.529   3.576   4.296
 2439SOL    HW1 7335   3.488   3.553   4.208
 2439SOL    HW2 7336   3.511   3.502   4.361
 2440SOL     OW 7337   2.460   2.591   3.994
 2440SOL    HW1 7338   2.484   2.660   3.926
 2440SOL    HW2 7339   2.382   2.624   4.048
 2441SOL     OW 7340   3.143   2.207   4.668
 2441SOL    HW1 7341   3.057   2.157   4.655
 2441SOL    HW2 7342   3.205   2.153   4.724
 2442SOL     OW 7343   3.438   3.524   4.031
 2442SOL    HW1 7344   3.527   3.570   4.034
 2442SOL    HW2 7345   3.417   3.500   3.936
 2443SOL     OW 7346   2.903   2.563   4.153
 2443SOL    HW1 7347   2.929   2.559   4.249
 2443SOL    HW2 7348   2.818   2.512   4.139
 2444SOL     OW 7349   1.938   2.673   4.513
 2444SOL    HW1 7350   2.037   2.661   4.522
 2444SOL    HW2 7351   1.914   2.768   4.534
 2445SOL     OW 7352   2.727   2.210   3.919
 2445SOL    HW1 7353   2.786   2.273   3.870
 2445SOL    HW2 7354   2.746   2.116   3.890
 2446SOL     OW 7355   3.224   3.006   4.269
 2446SOL    HW1 7356   3.307   2.977   4.221
 2446SOL    HW2 7357   3.175   3.073   4.213
 2447SOL     OW 7358   2.412   2.058   4.609
 2447SOL    HW1 7359   2.407   2.053   4.709
 2447SOL    HW2 7360   2.414   2.154   4.580
 2448SOL     OW 7361   2.870   3.318   4.201
 2448SOL    HW1 7362   2.824   3.390   4.149
 2448SOL    HW2 7363   2.866   3.338   4.299
 2449SOL     OW 7364   2.213   3.663   4.577
 2449SOL    HW1 7365   2.263   3.577   4.583
 2449SOL    HW2 7366   2.278   3.740   4.574
 2450SOL     OW 7367   3.657   2.928   4.597
 2450SOL    HW1 7368   3.595   2.913   4.521
 2450SOL    HW2 7369   3.605   2.939   4.682
 2451SOL     OW 7370   2.183   2.805   3.966
 2451SOL    HW1 7371   2.265   2.844   3.924
 2451SOL    HW2 7372   2.156   2.723   3.917
 2452SOL     OW 7373   3.320   2.597   4.452
 2452SOL    HW1 7374   3.315   2.532   4.527
 2452SOL    HW2 7375   3.400   2.656   4.465
 2453SOL     OW 7376   2.973   3.638   3.961
 2453SOL    HW1 7377   2.913   3.576   4.011
 2453SOL    HW2 7378   3.004   3.594   3.876
 2454SOL     OW 7379   3.494   3.239   3.805
 2454SOL    HW1 7380   3.462   3.333   3.795
 2454SOL    HW2 7381   3.418   3.176   3.793
 2455SOL     OW 7382   2.326   3.605   4.047
 2455SOL    HW1 7383   2.359   3.644   4.133
 2455SOL    HW2 7384   2.402   3.598   3.982
 2456SOL     OW 7385   3.262   1.969   4.150
 2456SOL    HW1 7386   3.238   1.932   4.060
 2456SOL    HW2 7387   3.361   1.985   4.154
 2457SOL     OW 7388   2.111   3.647   4.965
 2457SOL    HW1 7389   2.168   3.582   5.015
 2457SOL    HW2 7390   2.095   3.614   4.872
 2458SOL     OW 7391   2.802   3.560   4.628
 2458SOL    HW1 7392   2.882   3.503   4.649
 2458SOL    HW2 7393   2.753   3.520   4.551
 2459SOL     OW 7394   2.244   2.562   4.204
 2459SOL    HW1 7395   2.289   2.472   4.201
 2459SOL    HW2 7396   2.150   2.551   4.237
 2460SOL     OW 7397   2.476   1.984   3.841
 2460SOL    HW1 7398   2.574   1.962   3.848
 2460SOL    HW2 7399   2.445   1.967   3.748
 2461SOL     OW 7400   2.665   3.264   4.648
 2461SOL    HW1 7401   2.755   3.278   4.606
 2461SOL    HW2 7402   2.594   3.266   4.577
 2462SOL     OW 7403   2.784   2.365   4.623
 2462SOL    HW1 7404   2.759   2.356   4.527
 2462SOL    HW2 7405   2.832   2.283   4.654
 2463SOL     OW 7406   2.401   1.926   4.236
 2463SOL    HW1 7407   2.320   1.927   4.294
 2463SOL    HW2 7408   2.404   2.009   4.181
 2464SOL     OW 7409   3.296   3.050   3.765
 2464SOL    HW1 7410   3.328   2.974   3.822
 2464SOL    HW2 7411   3.204   3.077   3.795
 2465SOL     OW 7412   2.159   1.897   3.895
 2465SOL    HW1 7413   2.208   1.981   3.874
 2465SOL    HW2 7414   2.221   1.832   3.940
 2466SOL     OW 7415   2.797   2.098   4.204
 2466SOL    HW1 7416   2.749   2.139   4.126
 2466SOL    HW2 7417   2.896   2.096   4.185
 2467SOL     OW 7418   3.089   3.432   4.517
 2467SOL    HW1 7419   3.110   3.506   4.452
 2467SOL    HW2 7420   3.157   3.432   4.590
 2468SOL     OW 7421   2.321   3.014   4.465
 2468SOL    HW1 7422   2.250   2.987   4.530
 2468SOL    HW2 7423   2.295   2.986   4.372
 2469SOL     OW 7424   3.133   3.659   4.315
 2469SOL    HW1 7425   3.177   3.723   4.251
 2469SOL    HW2 7426   3.083   3.711   4.385
 2470SOL     OW 7427   2.894   2.411   3.740
 2470SOL    HW1 7428   2.853   2.493   3.701
 2470SOL    HW2 7429   2.958   2.437   3.813
 2471SOL     OW 7430   2.728   2.316   4.366
 2471SOL    HW1 7431   2.696   2.388   4.304
 2471SOL    HW2 7432   2.752   2.235   4.313
 2472SOL     OW 7433   2.879   1.901   4.477
 2472SOL    HW1 7434   2.807   1.906   4.408
 2472SOL    HW2 7435   2.855   1.832   4.546
 2473SOL     OW 7436   3.291   3.035   4.591
 2473SOL    HW1 7437   3.236   2.951   4.584
 2473SOL    HW2 7438   3.317   3.064   4.499
 2474SOL     OW 7439   3.328   2.452   4.716
 2474SOL    HW1 7440   3.298   2.357   4.723
 2474SOL    HW2 7441   3.401   2.468   4.782
 2475SOL     OW 7442   3.719   2.695   4.101
 2475SOL    HW1 7443   3.761   2.631   4.165
 2475SOL    HW2 7444   3.681   2.644   4.023
 2476SOL     OW 7445   2.350   3.247   3.898
 2476SOL    HW1 7446   2.263   3.232   3.945
 2476SOL    HW2 7447   2.333   3.273   3.803
 2477SOL     OW 7448   3.526   3.142   4.381
 2477SOL    HW1 7449   3.625   3.150   4.395
 2477SOL    HW2 7450   3.481   3.226   4.412
 2478SOL     OW 7451   3.252   2.437   3.802
 2478SOL    HW1 7452   3.198   2.416   3.883
 2478SOL    HW2 7453   3.343   2.396   3.811
 2479SOL     OW 7454   2.389   2.118   4.052
 2479SOL    HW1 7455   2.416   2.059   3.977
 2479SOL    HW2 7456   2.389   2.213   4.021
 2480SOL     OW 7457   3.500   2.961   4.803
 2480SOL    HW1 7458   3.505   3.042   4.862
 2480SOL    HW2 7459   3.414   2.963   4.752
 2481SOL     OW 7460   2.567   2.912   4.092
 2481SOL    HW1 7461   2.553   2.919   4.191
 2481SOL    HW2 7462   2.651   2.861   4.074
 2482SOL     OW 7463   2.272   2.675   4.975
 2482SOL    HW1 7464   2.358   2.687   5.025
 2482SOL    HW2 7465   2.230   2.588   5.002
 2483SOL     OW 7466   2.229   2.962   4.225
 2483SOL    HW1 7467   2.222   3.045   4.169
 2483SOL    HW2 7468   2.233   2.882   4.165
 2484SOL     OW 7469   2.428   2.399   4.589
 2484SOL    HW1 7470   2.440   2.465   4.515
 2484SOL    HW2 7471   2.474   2.433   4.672
 2485SOL     OW 7472   3.114   3.210   4.112
 2485SOL    HW1 7473   3.164   3.287   4.152
 2485SOL    HW2 7474   3.019   3.212   4.144
 2486SOL     OW 7475   3.444   2.501   4.196
 2486SOL    HW1 7476   3.413   2.562   4.269
 2486SOL    HW2 7477   3.494   2.553   4.127
 2487SOL     OW 7478   2.435   2.732   4.753
 2487SOL    HW1 7479   2.479   2.821   4.744
 2487SOL    HW2 7480   2.372   2.732   4.830
 2488SOL     OW 7481   3.071   2.387   3.999
 2488SOL    HW1 7482   3.084   2.303   4.053
 2488SOL    HW2 7483   3.042   2.461   4.059
 2489SOL     OW 7484   2.169   2.075   4.955
 2489SOL    HW1 7485   2.146   2.112   5.045
 2489SOL    HW2 7486   2.139   1.980   4.949
 2490SOL     OW 7487   2.594   2.496   4.788
 2490SOL    HW1 7488   2.653   2.470   4.712
 2490SOL    HW2 7489   2.566   2.592   4.777
 2491SOL     OW 7490   2.169   1.925   4.342
 2491SOL    HW1 7491   2.158   2.019   4.375
 2491SOL    HW2 7492   2.164   1.862   4.419
 2492SOL     OW 7493   3.484   2.229   4.098
 2492SOL    HW1 7494   3.486   2.153   4.162
 2492SOL    HW2 7495   3.436   2.306   4.138
 2493SOL     OW 7496   2.885   2.628   4.690
 2493SOL    HW1 7497   2.900   2.649   4.786
 2493SOL    HW2 7498   2.855   2.533   4.681
 2494SOL     OW 7499   3.402   2.136   3.849
 2494SOL    HW1 7500   3.341   2.061   3.872
 2494SOL    HW2 7501   3.424   2.188   3.932
 2495SOL     OW 7502   3.165   2.700   3.766
 2495SOL    HW1 7503   3.199   2.607   3.781
 2495SOL    HW2 7504   3.183   2.727   3.671
 2496SOL     OW 7505   2.930   3.195   4.573
 2496SOL    HW1 7506   2.937   3.111   4.518
 2496SOL    HW2 7507   2.992   3.264   4.537
 2497SOL     OW 7508   2.181   2.672   4.673
 2497SOL    HW1 7509   2.274   2.708   4.678
 2497SOL    HW2 7510   2.175   2.587   4.725
 2498SOL     OW 7511   2.201   2.371   4.730
 2498SOL    HW1 7512   2.149   2.288   4.713
 2498SOL    HW2 7513   2.278   2.376   4.666
 2499SOL     OW 7514   1.870   3.188   3.924
 2499SOL    HW1 7515   1.777   3.209   3.893
 2499SOL    HW2 7516   1.880   3.089   3.937
 2500SOL     OW 7517   1.950   3.663   4.651
 2500SOL    HW1 7518   1.908   3.577   4.624
 2500SOL    HW2 7519   2.044   3.666   4.617
 2501SOL     OW 7520   2.366   3.430   4.634
 2501SOL    HW1 7521   2.432   3.504   4.643
 2501SOL    HW2 7522   2.410   3.351   4.592
 2502SOL     OW 7523   2.864   2.658   4.962
 2502SOL    HW1 7524   2.905   2.626   5.048
 2502SOL    HW2 7525   2.768   2.631   4.959
 2503SOL     OW 7526   1.902   2.406   4.838
 2503SOL    HW1 7527   1.987   2.373   4.797
 2503SOL    HW2 7528   1.915   2.421   4.936
 2504SOL     OW 7529   2.677   2.434   4.049
 2504SOL    HW1 7530   2.684   2.345   4.003
 2504SOL    HW2 7531   2.583   2.468   4.041
 2505SOL     OW 7532   2.533   2.326   4.993
 2505SOL    HW1 7533   2.499   2.237   4.963
 2505SOL    HW2 7534   2.559   2.380   4.913
 2506SOL     OW 7535   2.335   2.362   3.915
 2506SOL    HW1 7536   2.396   2.442   3.919
 2506SOL    HW2 7537   2.240   2.393   3.922
 2507SOL     OW 7538   3.164   2.717   4.033
 2507SOL    HW1 7539   3.078   2.686   4.075
 2507SOL    HW2 7540   3.160   2.703   3.934
 2508SOL     OW 7541   3.621   3.609   4.878
 2508SOL    HW1 7542   3.682   3.639   4.805
 2508SOL    HW2 7543   3.583   3.520   4.856
 2509SOL     OW 7544   1.945   3.120   4.746
 2509SOL    HW1 7545   1.940   3.119   4.846
 2509SOL    HW2 7546   1.862   3.079   4.708
 2510SOL     OW 7547   3.588   1.997   4.247
 2510SOL    HW1 7548   3.661   1.980   4.180
 2510SOL    HW2 7549   3.557   1.910   4.285
 2511SOL     OW 7550   3.250   3.435   4.201
 2511SOL    HW1 7551   3.317   3.447   4.127
 2511SOL    HW2 7552   3.210   3.524   4.224
 2512SOL     OW 7553   3.142   2.789   4.396
 2512SOL    HW1 7554   3.202   2.708   4.398
 2512SOL    HW2 7555   3.182   2.858   4.336
 2513SOL     OW 7556   2.534   3.478   3.878
 2513SOL    HW1 7557   2.543   3.488   3.779
 2513SOL    HW2 7558   2.494   3.389   3.899
 2514SOL     OW 7559   3.703   2.037   4.687
 2514SOL    HW1 7560   3.742   1.952   4.651
 2514SOL    HW2 7561   3.605   2.039   4.668
 2515SOL     OW 7562   2.125   2.188   4.444
 2515SOL    HW1 7563   2.046   2.239   4.410
 2515SOL    HW2 7564   2.116   2.173   4.542
 2516SOL     OW 7565   3.056   3.474   3.755
 2516SOL    HW1 7566   3.062   3.381   3.792
 2516SOL    HW2 7567   2.997   3.474   3.675
 2517SOL     OW 7568   2.778   2.772   4.015
 2517SOL    HW1 7569   2.841   2.810   3.947
 2517SOL    HW2 7570   2.818   2.689   4.054
 2518SOL     OW 7571   3.366   3.469   3.768
 2518SOL    HW1 7572   3.274   3.506   3.775
 2518SOL    HW2 7573   3.404   3.489   3.678
 2519SOL     OW 7574   2.901   2.960   4.420
 2519SOL    HW1 7575   2.831   2.913   4.474
 2519SOL    HW2 7576   2.960   2.892   4.377
 2520SOL     OW 7577   2.876   2.098   4.695
 2520SOL    HW1 7578   2.868   2.062   4.602
 2520SOL    HW2 7579   2.874   2.022   4.760
 2521SOL     OW 7580   2.452   3.349   4.215
 2521SOL    HW1 7581   2.494   3.291   4.145
 2521SOL    HW2 7582   2.408   3.428   4.171
 2522SOL     OW 7583   2.117   3.210   4.014
 2522SOL    HW1 7584   2.021   3.211   3.987
 2522SOL    HW2 7585   2.129   3.263   4.098
 2523SOL     OW 7586   1.937   2.207   3.757
 2523SOL    HW1 7587   1.845   2.179   3.728
 2523SOL    HW2 7588   1.968   2.284   3.701
 2524SOL     OW 7589   1.934   2.028   4.042
 2524SOL    HW1 7590   1.917   2.111   3.988
 2524SOL    HW2 7591   2.024   1.991   4.020
 2525SOL     OW 7592   3.045   3.197   3.843
 2525SOL    HW1 7593   2.946   3.186   3.845
 2525SOL    HW2 7594   3.079   3.212   3.936
 2526SOL     OW 7595   3.355   3.629   4.683
 2526SOL    HW1 7596   3.388   3.693   4.614
 2526SOL    HW2 7597   3.421   3.623   4.758
 2527SOL     OW 7598   3.536   2.745   4.978
 2527SOL    HW1 7599   3.509   2.656   4.941
 2527SOL    HW2 7600   3.537   2.813   4.905
 2528SOL     OW 7601   3.087   2.187   4.173
 2528SOL    HW1 7602   3.152   2.113   4.162
 2528SOL    HW2 7603   3.107   2.237   4.257
 2529SOL     OW 7604   2.456   2.607   4.376
 2529SOL    HW1 7605   2.506   2.692   4.357
 2529SOL    HW2 7606   2.368   2.609   4.328
 2530SOL     OW 7607   2.721   3.236   3.740
 2530SOL    HW1 7608   2.675   3.251   3.828
 2530SOL    HW2 7609   2.765   3.321   3.710
 2531SOL     OW 7610   2.523   3.652   4.677
 2531SOL    HW1 7611   2.477   3.740   4.664
 2531SOL    HW2 7612   2.622   3.664   4.670
 2532SOL     OW 7613   2.721   2.818   4.585
 2532SOL    HW1 7614   2.775   2.749   4.633
 2532SOL    HW2 7615   2.689   2.887   4.651
 2533SOL     OW 7616   2.945   2.846   3.811
 2533SOL    HW1 7617   2.922   2.899   3.729
 2533SOL    HW2 7618   3.026   2.790   3.792
 2534SOL     OW 7619   3.723   3.431   4.575
 2534SOL    HW1 7620   3.652   3.419   4.505
 2534SOL    HW2 7621   3.724   3.352   4.635
 2535SOL     OW 7622   1.941   3.102   4.377
 2535SOL    HW1 7623   1.940   3.055   4.465
 2535SOL    HW2 7624   2.023   3.074   4.326
 2536SOL     OW 7625   3.686   2.054   4.951
 2536SOL    HW1 7626   3.682   1.964   4.995
 2536SOL    HW2 7627   3.689   2.043   4.852
 2537SOL     OW 7628   2.290   2.286   4.244
 2537SOL    HW1 7629   2.320   2.214   4.182
 2537SOL    HW2 7630   2.251   2.246   4.327
 2538SOL     OW 7631   2.674   3.448   4.411
 2538SOL    HW1 7632   2.706   3.458   4.317
 2538SOL    HW2 7633   2.595   3.386   4.413
 2539SOL     OW 7634   3.286   2.076   4.836
 2539SOL    HW1 7635   3.338   2.011   4.891
 2539SOL    HW2 7636   3.237   2.139   4.897
 2540SOL     OW 7637   2.632   3.192   4.025
 2540SOL    HW1 7638   2.586   3.105   4.042
 2540SOL    HW2 7639   2.723   3.189   4.066
 2541SOL     OW 7640   3.214   1.914   3.892
 2541SOL    HW1 7641   3.249   1.873   3.808
 2541SOL    HW2 7642   3.124   1.876   3.912
 2542SOL     OW 7643   3.162   2.315   4.415
 2542SOL    HW1 7644   3.103   2.395   4.419
 2542SOL    HW2 7645   3.177   2.280   4.508
 2543SOL     OW 7646   3.455   2.083   4.606
 2543SOL    HW1 7647   3.371   2.082   4.660
 2543SOL    HW2 7648   3.457   2.166   4.550
 2544SOL     OW 7649   1.901   2.939   4.024
 2544SOL    HW1 7650   2.000   2.928   4.015
 2544SOL    HW2 7651   1.861   2.853   4.056
 2545SOL     OW 7652   2.737   3.508   4.061
 2545SOL    HW1 7653   2.660   3.473   4.007
 2545SOL    HW2 7654   2.705   3.579   4.123
 2546SOL     OW 7655   2.092   4.352   0.113
 2546SOL    HW1 7656   1.999   4.350   0.150
 2546SOL    HW2 7657   2.093   4.313   0.021
 2547SOL     OW 7658   2.087   3.999   0.996
 2547SOL    HW1 7659   2.122   3.982   1.088
 2547SOL    HW2 7660   1.999   3.954   0.984
 2548SOL     OW 7661   1.881   4.092   0.647
 2548SOL    HW1 7662   1.799   4.135   0.686
 2548SOL    HW2 7663   1.853   4.019   0.584
 2549SOL     OW 7664   2.997   4.427   0.717
 2549SOL    HW1 7665   3.054   4.505   0.692
 2549SOL    HW2 7666   2.937   4.453   0.793
 2550SOL     OW 7667   3.617   4.331   0.231
 2550SOL    HW1 7668   3.605   4.318   0.132
 2550SOL    HW2 7669   3.587   4.250   0.280
 2551SOL     OW 7670   2.630   4.868   1.023
 2551SOL    HW1 7671   2.552   4.885   1.083
 2551SOL    HW2 7672   2.664   4.955   0.987
 2552SOL     OW 7673   2.712   4.522   1.823
 2552SOL    HW1 7674   2.708   4.598   1.888
 2552SOL    HW2 7675   2.734   4.558   1.732
 2553SOL     OW 7676   2.547   4.736   0.665
 2553SOL    HW1 7677   2.616   4.720   0.735
 2553SOL    HW2 7678   2.474   4.793   0.703
 2554SOL     OW 7679   2.300   4.116   1.499
 2554SOL    HW1 7680   2.382   4.060   1.508
 2554SOL    HW2 7681   2.219   4.058   1.503
 2555SOL     OW 7682   3.465   4.171   0.737
 2555SOL    HW1 7683   3.391   4.217   0.687
 2555SOL    HW2 7684   3.516   4.239   0.790
 2556SOL     OW 7685   2.092   5.158   0.538
 2556SOL    HW1 7686   2.066   5.254   0.538
 2556SOL    HW2 7687   2.021   5.104   0.583
 2557SOL     OW 7688   2.102   4.815   0.886
 2557SOL    HW1 7689   2.116   4.731   0.938
 2557SOL    HW2 7690   2.047   4.879   0.941
 2558SOL     OW 7691   2.468   4.688   0.123
 2558SOL    HW1 7692   2.475   4.772   0.069
 2558SOL    HW2 7693   2.514   4.701   0.211
 2559SOL     OW 7694   3.456   3.838   1.480
 2559SOL    HW1 7695   3.438   3.905   1.408
 2559SOL    HW2 7696   3.453   3.884   1.569
 2560SOL     OW 7697   1.984   4.367   0.563
 2560SOL    HW1 7698   1.939   4.279   0.580
 2560SOL    HW2 7699   1.983   4.421   0.647
 2561SOL     OW 7700   3.551   4.646   0.612
 2561SOL    HW1 7701   3.646   4.617   0.620
 2561SOL    HW2 7702   3.543   4.711   0.537
 2562SOL     OW 7703   1.975   4.461   1.597
 2562SOL    HW1 7704   2.063   4.448   1.642
 2562SOL    HW2 7705   1.962   4.558   1.575
 2563SOL     OW 7706   3.155   4.952   1.423
 2563SOL    HW1 7707   3.192   4.879   1.365
 2563SOL    HW2 7708   3.207   4.957   1.508
 2564SOL     OW 7709   2.671   3.728   0.502
 2564SOL    HW1 7710   2.711   3.819   0.493
 2564SOL    HW2 7711   2.571   3.736   0.508
 2565SOL     OW 7712   2.059   4.700   1.264
 2565SOL    HW1 7713   2.148   4.655   1.250
 2565SOL    HW2 7714   1.986   4.635   1.245
 2566SOL     OW 7715   3.387   4.723   0.190
 2566SOL    HW1 7716   3.324   4.647   0.203
 2566SOL    HW2 7717   3.435   4.741   0.276
 2567SOL     OW 7718   2.179   3.975   1.801
 2567SOL    HW1 7719   2.250   4.046   1.807
 2567SOL    HW2 7720   2.091   4.014   1.829
 2568SOL     OW 7721   2.460   4.453   0.270
 2568SOL    HW1 7722   2.484   4.522   0.202
 2568SOL    HW2 7723   2.382   4.486   0.324
 2569SOL     OW 7724   3.143   4.069   0.944
 2569SOL    HW1 7725   3.057   4.019   0.931
 2569SOL    HW2 7726   3.205   4.015   1.000
 2570SOL     OW 7727   2.669   4.329   1.465
 2570SOL    HW1 7728   2.622   4.326   1.554
 2570SOL    HW2 7729   2.618   4.274   1.399
 2571SOL     OW 7730   3.256   4.193   1.674
 2571SOL    HW1 7731   3.236   4.236   1.762
 2571SOL    HW2 7732   3.334   4.131   1.683
 2572SOL     OW 7733   2.835   4.614   1.572
 2572SOL    HW1 7734   2.881   4.530   1.543
 2572SOL    HW2 7735   2.779   4.648   1.497
 2573SOL     OW 7736   2.853   4.134   1.242
 2573SOL    HW1 7737   2.776   4.168   1.296
 2573SOL    HW2 7738   2.819   4.083   1.163
 2574SOL     OW 7739   2.903   4.425   0.429
 2574SOL    HW1 7740   2.929   4.421   0.525
 2574SOL    HW2 7741   2.818   4.374   0.415
 2575SOL     OW 7742   1.938   4.535   0.789
 2575SOL    HW1 7743   2.037   4.523   0.798
 2575SOL    HW2 7744   1.914   4.630   0.810
 2576SOL     OW 7745   2.727   4.072   0.195
 2576SOL    HW1 7746   2.786   4.135   0.146
 2576SOL    HW2 7747   2.746   3.978   0.166
 2577SOL     OW 7748   3.581   4.309   1.831
 2577SOL    HW1 7749   3.555   4.398   1.795
 2577SOL    HW2 7750   3.579   4.241   1.758
 2578SOL     OW 7751   2.412   3.920   0.885
 2578SOL    HW1 7752   2.407   3.915   0.985
 2578SOL    HW2 7753   2.414   4.016   0.856
 2579SOL     OW 7754   3.657   4.790   0.873
 2579SOL    HW1 7755   3.595   4.775   0.797
 2579SOL    HW2 7756   3.605   4.801   0.958
 2580SOL     OW 7757   2.183   4.667   0.242
 2580SOL    HW1 7758   2.265   4.706   0.200
 2580SOL    HW2 7759   2.156   4.585   0.193
 2581SOL     OW 7760   3.320   4.459   0.728
 2581SOL    HW1 7761   3.315   4.394   0.803
 2581SOL    HW2 7762   3.400   4.518   0.741
 2582SOL     OW 7763   2.064   4.009   1.498
 2582SOL    HW1 7764   1.984   4.069   1.485
 2582SOL    HW2 7765   2.054   3.960   1.584
 2583SOL     OW 7766   3.262   3.831   0.426
 2583SOL    HW1 7767   3.238   3.794   0.336
 2583SOL    HW2 7768   3.361   3.847   0.430
 2584SOL     OW 7769   2.244   4.424   0.480
 2584SOL    HW1 7770   2.289   4.334   0.477
 2584SOL    HW2 7771   2.150   4.413   0.513
 2585SOL     OW 7772   3.409   3.946   1.729
 2585SOL    HW1 7773   3.404   3.983   1.821
 2585SOL    HW2 7774   3.337   3.877   1.717
 2586SOL     OW 7775   2.476   3.846   0.117
 2586SOL    HW1 7776   2.574   3.824   0.124
 2586SOL    HW2 7777   2.445   3.829   0.024
 2587SOL     OW 7778   2.643   3.988   1.749
 2587SOL    HW1 7779   2.710   3.927   1.792
 2587SOL    HW2 7780   2.570   4.007   1.814
 2588SOL     OW 7781   3.213   4.314   1.433
 2588SOL    HW1 7782   3.241   4.271   1.518
 2588SOL    HW2 7783   3.238   4.410   1.434
 2589SOL     OW 7784   2.784   4.227   0.899
 2589SOL    HW1 7785   2.759   4.218   0.803
 2589SOL    HW2 7786   2.832   4.145   0.930
 2590SOL     OW 7787   2.401   3.788   0.512
 2590SOL    HW1 7788   2.320   3.789   0.570
 2590SOL    HW2 7789   2.404   3.871   0.457
 2591SOL     OW 7790   2.797   3.960   0.480
 2591SOL    HW1 7791   2.749   4.001   0.402
 2591SOL    HW2 7792   2.896   3.958   0.461
 2592SOL     OW 7793   2.938   4.407   1.464
 2592SOL    HW1 7794   2.858   4.346   1.467
 2592SOL    HW2 7795   3.019   4.354   1.440
 2593SOL     OW 7796   2.894   4.273   0.016
 2593SOL    HW1 7797   2.853   4.355  -0.023
 2593SOL    HW2 7798   2.958   4.299   0.089
 2594SOL     OW 7799   1.940   4.280   1.386
 2594SOL    HW1 7800   2.032   4.279   1.345
 2594SOL    HW2 7801   1.934   4.354   1.453
 2595SOL     OW 7802   2.423   3.946   1.147
 2595SOL    HW1 7803   2.461   3.862   1.184
 2595SOL    HW2 7804   2.335   3.965   1.191
 2596SOL     OW 7805   2.728   4.178   0.642
 2596SOL    HW1 7806   2.696   4.250   0.580
 2596SOL    HW2 7807   2.752   4.097   0.589
 2597SOL     OW 7808   2.879   3.763   0.753
 2597SOL    HW1 7809   2.807   3.768   0.684
 2597SOL    HW2 7810   2.855   3.694   0.822
 2598SOL     OW 7811   3.291   4.897   0.867
 2598SOL    HW1 7812   3.236   4.813   0.860
 2598SOL    HW2 7813   3.317   4.926   0.775
 2599SOL     OW 7814   3.328   4.314   0.992
 2599SOL    HW1 7815   3.298   4.219   0.999
 2599SOL    HW2 7816   3.401   4.330   1.058
 2600SOL     OW 7817   3.719   4.557   0.377
 2600SOL    HW1 7818   3.761   4.493   0.441
 2600SOL    HW2 7819   3.681   4.506   0.299
 2601SOL     OW 7820   3.252   4.299   0.078
 2601SOL    HW1 7821   3.198   4.278   0.159
 2601SOL    HW2 7822   3.343   4.258   0.087
 2602SOL     OW 7823   2.389   3.980   0.328
 2602SOL    HW1 7824   2.416   3.921   0.253
 2602SOL    HW2 7825   2.389   4.075   0.297
 2603SOL     OW 7826   3.616   4.947   1.588
 2603SOL    HW1 7827   3.707   4.908   1.575
 2603SOL    HW2 7828   3.624   5.043   1.612
 2604SOL     OW 7829   3.500   4.823   1.079
 2604SOL    HW1 7830   3.505   4.904   1.138
 2604SOL    HW2 7831   3.414   4.825   1.028
 2605SOL     OW 7832   2.777   3.813   1.402
 2605SOL    HW1 7833   2.802   3.793   1.307
 2605SOL    HW2 7834   2.849   3.869   1.444
 2606SOL     OW 7835   2.272   4.537   1.251
 2606SOL    HW1 7836   2.358   4.549   1.301
 2606SOL    HW2 7837   2.230   4.450   1.278
 2607SOL     OW 7838   3.136   4.110   1.262
 2607SOL    HW1 7839   3.157   4.184   1.326
 2607SOL    HW2 7840   3.047   4.127   1.219
 2608SOL     OW 7841   2.428   4.261   0.865
 2608SOL    HW1 7842   2.440   4.327   0.791
 2608SOL    HW2 7843   2.474   4.295   0.948
 2609SOL     OW 7844   3.444   4.363   0.472
 2609SOL    HW1 7845   3.413   4.424   0.545
 2609SOL    HW2 7846   3.494   4.415   0.403
 2610SOL     OW 7847   2.264   4.475   1.598
 2610SOL    HW1 7848   2.332   4.530   1.551
 2610SOL    HW2 7849   2.304   4.387   1.625
 2611SOL     OW 7850   3.449   4.503   1.670
 2611SOL    HW1 7851   3.357   4.541   1.665
 2611SOL    HW2 7852   3.509   4.550   1.605
 2612SOL     OW 7853   2.875   3.829   1.770
 2612SOL    HW1 7854   2.881   3.914   1.718
 2612SOL    HW2 7855   2.907   3.753   1.713
 2613SOL     OW 7856   2.366   3.774   1.740
 2613SOL    HW1 7857   2.324   3.717   1.670
 2613SOL    HW2 7858   2.300   3.843   1.772
 2614SOL     OW 7859   2.435   4.594   1.029
 2614SOL    HW1 7860   2.479   4.683   1.020
 2614SOL    HW2 7861   2.372   4.594   1.106
 2615SOL     OW 7862   3.222   4.586   1.045
 2615SOL    HW1 7863   3.147   4.586   0.979
 2615SOL    HW2 7864   3.259   4.494   1.054
 2616SOL     OW 7865   3.071   4.249   0.275
 2616SOL    HW1 7866   3.084   4.165   0.329
 2616SOL    HW2 7867   3.042   4.323   0.335
 2617SOL     OW 7868   2.169   3.937   1.231
 2617SOL    HW1 7869   2.146   3.974   1.321
 2617SOL    HW2 7870   2.139   3.842   1.225
 2618SOL     OW 7871   2.594   4.358   1.064
 2618SOL    HW1 7872   2.653   4.332   0.988
 2618SOL    HW2 7873   2.566   4.454   1.053
 2619SOL     OW 7874   3.590   4.659   1.854
 2619SOL    HW1 7875   3.544   4.652   1.765
 2619SOL    HW2 7876   3.528   4.703   1.920
 2620SOL     OW 7877   2.169   3.787   0.618
 2620SOL    HW1 7878   2.158   3.881   0.651
 2620SOL    HW2 7879   2.164   3.724   0.695
 2621SOL     OW 7880   3.484   4.091   0.374
 2621SOL    HW1 7881   3.486   4.015   0.438
 2621SOL    HW2 7882   3.436   4.168   0.414
 2622SOL     OW 7883   2.885   4.490   0.966
 2622SOL    HW1 7884   2.900   4.511   1.062
 2622SOL    HW2 7885   2.855   4.395   0.957
 2623SOL     OW 7886   2.212   4.622   1.804
 2623SOL    HW1 7887   2.288   4.666   1.852
 2623SOL    HW2 7888   2.247   4.575   1.722
 2624SOL     OW 7889   3.402   3.998   0.125
 2624SOL    HW1 7890   3.341   3.923   0.148
 2624SOL    HW2 7891   3.424   4.050   0.208
 2625SOL     OW 7892   3.165   4.562   0.042
 2625SOL    HW1 7893   3.199   4.469   0.057
 2625SOL    HW2 7894   3.183   4.589  -0.053
 2626SOL     OW 7895   2.181   4.534   0.949
 2626SOL    HW1 7896   2.274   4.570   0.954
 2626SOL    HW2 7897   2.175   4.449   1.001
 2627SOL     OW 7898   2.201   4.233   1.006
 2627SOL    HW1 7899   2.149   4.150   0.989
 2627SOL    HW2 7900   2.278   4.238   0.942
 2628SOL     OW 7901   3.000   4.104   1.678
 2628SOL    HW1 7902   2.955   4.167   1.742
 2628SOL    HW2 7903   3.093   4.135   1.661
 2629SOL     OW 7904   3.022   3.931   1.477
 2629SOL    HW1 7905   3.022   3.995   1.554
 2629SOL    HW2 7906   3.050   3.979   1.394
 2630SOL     OW 7907   2.864   4.520   1.238
 2630SOL    HW1 7908   2.905   4.488   1.324
 2630SOL    HW2 7909   2.768   4.493   1.235
 2631SOL     OW 7910   1.902   4.268   1.114
 2631SOL    HW1 7911   1.987   4.235   1.073
 2631SOL    HW2 7912   1.915   4.283   1.212
 2632SOL     OW 7913   2.051   4.244   1.722
 2632SOL    HW1 7914   2.110   4.204   1.652
 2632SOL    HW2 7915   1.993   4.315   1.681
 2633SOL     OW 7916   3.231   4.674   1.660
 2633SOL    HW1 7917   3.270   4.763   1.680
 2633SOL    HW2 7918   3.241   4.654   1.563
 2634SOL     OW 7919   2.677   4.296   0.325
 2634SOL    HW1 7920   2.684   4.207   0.279
 2634SOL    HW2 7921   2.583   4.330   0.317
 2635SOL     OW 7922   3.519   4.328   1.206
 2635SOL    HW1 7923   3.481   4.259   1.268
 2635SOL    HW2 7924   3.601   4.292   1.162
 2636SOL     OW 7925   2.533   4.188   1.269
 2636SOL    HW1 7926   2.499   4.099   1.239
 2636SOL    HW2 7927   2.559   4.242   1.189
 2637SOL     OW 7928   2.335   4.224   0.191
 2637SOL    HW1 7929   2.396   4.304   0.195
 2637SOL    HW2 7930   2.240   4.255   0.198
 2638SOL     OW 7931   2.021   4.861   1.466
 2638SOL    HW1 7932   2.043   4.800   1.542
 2638SOL    HW2 7933   2.031   4.812   1.380
 2639SOL     OW 7934   3.209   4.783   1.234
 2639SOL    HW1 7935   3.233   4.720   1.160
 2639SOL    HW2 7936   3.119   4.823   1.216
 2640SOL     OW 7937   3.164   4.579   0.309
 2640SOL    HW1 7938   3.078   4.548   0.351
 2640SOL    HW2 7939   3.160   4.565   0.210
 2641SOL     OW 7940   2.765   3.810   0.133
 2641SOL    HW1 7941   2.816   3.811   0.047
 2641SOL    HW2 7942   2.821   3.768   0.204
 2642SOL     OW 7943   3.588   3.859   0.523
 2642SOL    HW1 7944   3.661   3.842   0.456
 2642SOL    HW2 7945   3.557   3.772   0.561
 2643SOL     OW 7946   3.142   4.651   0.672
 2643SOL    HW1 7947   3.202   4.570   0.674
 2643SOL    HW2 7948   3.182   4.720   0.612
 2644SOL     OW 7949   3.703   3.899   0.963
 2644SOL    HW1 7950   3.742   3.814   0.927
 2644SOL    HW2 7951   3.605   3.901   0.944
 2645SOL     OW 7952   2.125   4.050   0.720
 2645SOL    HW1 7953   2.046   4.101   0.686
 2645SOL    HW2 7954   2.116   4.035   0.818
 2646SOL     OW 7955   2.684   4.726   1.372
 2646SOL    HW1 7956   2.724   4.725   1.280
 2646SOL    HW2 7957   2.694   4.818   1.412
 2647SOL     OW 7958   2.778   4.634   0.291
 2647SOL    HW1 7959   2.841   4.672   0.223
 2647SOL    HW2 7960   2.818   4.551   0.330
 2648SOL     OW 7961   2.876   3.960   0.971
 2648SOL    HW1 7962   2.868   3.924   0.878
 2648SOL    HW2 7963   2.874   3.884   1.036
 2649SOL     OW 7964   3.571   4.109   1.381
 2649SOL    HW1 7965   3.644   4.178   1.385
 2649SOL    HW2 7966   3.599   4.034   1.322
 2650SOL     OW 7967   1.967   4.737   1.726
 2650SOL    HW1 7968   1.890   4.704   1.780
 2650SOL    HW2 7969   2.052   4.707   1.768
 2651SOL     OW 7970   2.534   3.927   1.489
 2651SOL    HW1 7971   2.624   3.911   1.449
 2651SOL    HW2 7972   2.542   3.932   1.588
 2652SOL     OW 7973   3.302   4.580   1.398
 2652SOL    HW1 7974   3.245   4.632   1.335
 2652SOL    HW2 7975   3.398   4.592   1.374
 2653SOL     OW 7976   1.934   3.890   0.318
 2653SOL    HW1 7977   1.917   3.973   0.264
 2653SOL    HW2 7978   2.024   3.853   0.296
 2654SOL     OW 7979   3.045   5.059   0.119
 2654SOL    HW1 7980   2.946   5.048   0.121
 2654SOL    HW2 7981   3.079   5.074   0.212
 2655SOL     OW 7982   2.475   4.566   1.431
 2655SOL    HW1 7983   2.531   4.647   1.414
 2655SOL    HW2 7984   2.534   4.486   1.434
 2656SOL     OW 7985   2.578   4.289   1.708
 2656SOL    HW1 7986   2.597   4.354   1.782
 2656SOL    HW2 7987   2.638   4.209   1.717
 2657SOL     OW 7988   3.536   4.607   1.254
 2657SOL    HW1 7989   3.509   4.518   1.217
 2657SOL    HW2 7990   3.537   4.675   1.181
 2658SOL     OW 7991   3.087   4.049   0.449
 2658SOL    HW1 7992   3.152   3.975   0.438
 2658SOL    HW2 7993   3.107   4.099   0.533
 2659SOL     OW 7994   2.456   4.469   0.652
 2659SOL    HW1 7995   2.506   4.554   0.633
 2659SOL    HW2 7996   2.368   4.471   0.604
 2660SOL     OW 7997   3.639   4.066   1.642
 2660SOL    HW1 7998   3.622   4.097   1.548
 2660SOL    HW2 7999   3.555   4.029   1.680
 2661SOL     OW 8000   3.592   4.658   1.517
 2661SOL    HW1 8001   3.630   4.749   1.532
 2661SOL    HW2 8002   3.584   4.641   1.418
 2662SOL     OW 8003   2.721   4.680   0.861
 2662SOL    HW1 8004   2.775   4.611   0.909
 2662SOL    HW2 8005   2.689   4.749   0.927
 2663SOL     OW 8006   2.945   4.708   0.087
 2663SOL    HW1 8007   2.922   4.761   0.005
 2663SOL    HW2 8008   3.026   4.652   0.068
 2664SOL     OW 8009   3.686   3.916   1.227
 2664SOL    HW1 8010   3.682   3.826   1.271
 2664SOL    HW2 8011   3.689   3.905   1.128
 2665SOL     OW 8012   2.290   4.148   0.520
 2665SOL    HW1 8013   2.320   4.076   0.458
 2665SOL    HW2 8014   2.251   4.108   0.603
 2666SOL     OW 8015   2.179   4.271   1.280
 2666SOL    HW1 8016   2.217   4.212   1.352
 2666SOL    HW2 8017   2.219   4.245   1.192
 2667SOL     OW 8018   3.286   3.938   1.112
 2667SOL    HW1 8019   3.338   3.873   1.167
 2667SOL    HW2 8020   3.237   4.001   1.173
 2668SOL     OW 8021   2.863   3.758   1.154
 2668SOL    HW1 8022   2.800   3.686   1.123
 2668SOL    HW2 8023   2.956   3.722   1.154
 2669SOL     OW 8024   3.214   3.776   0.168
 2669SOL    HW1 8025   3.249   3.735   0.084
 2669SOL    HW2 8026   3.124   3.738   0.188
 2670SOL     OW 8027   3.162   4.177   0.691
 2670SOL    HW1 8028   3.103   4.257   0.695
 2670SOL    HW2 8029   3.177   4.142   0.784
 2671SOL     OW 8030   3.455   3.945   0.882
 2671SOL    HW1 8031   3.371   3.944   0.936
 2671SOL    HW2 8032   3.457   4.028   0.826
 2672SOL     OW 8033   1.901   4.801   0.300
 2672SOL    HW1 8034   2.000   4.790   0.291
 2672SOL    HW2 8035   1.861   4.715   0.332
 2673SOL     OW 8036   2.092   4.352   1.975
 2673SOL    HW1 8037   1.999   4.350   2.012
 2673SOL    HW2 8038   2.093   4.313   1.883
 2674SOL     OW 8039   2.087   3.999   2.858
 2674SOL    HW1 8040   2.122   3.982   2.950
 2674SOL    HW2 8041   1.999   3.954   2.846
 2675SOL     OW 8042   1.881   4.092   2.509
 2675SOL    HW1 8043   1.799   4.135   2.548
 2675SOL    HW2 8044   1.853   4.019   2.446
 2676SOL     OW 8045   2.997   4.427   2.579
 2676SOL    HW1 8046   3.054   4.505   2.554
 2676SOL    HW2 8047   2.937   4.453   2.655
 2677SOL     OW 8048   3.617   4.331   2.093
 2677SOL    HW1 8049   3.605   4.318   1.994
 2677SOL    HW2 8050   3.587   4.250   2.142
 2678SOL     OW 8051   2.630   4.868   2.885
 2678SOL    HW1 8052   2.552   4.885   2.945
 2678SOL    HW2 8053   2.664   4.955   2.849
 2679SOL     OW 8054   2.712   4.522   3.685
 2679SOL    HW1 8055   2.708   4.598   3.750
 2679SOL    HW2 8056   2.734   4.558   3.594
 2680SOL     OW 8057   2.547   4.736   2.527
 2680SOL    HW1 8058   2.616   4.720   2.597
 2680SOL    HW2 8059   2.474   4.793   2.565
 2681SOL     OW 8060   2.300   4.116   3.361
 2681SOL    HW1 8061   2.382   4.060   3.370
 2681SOL    HW2 8062   2.219   4.058   3.365
 2682SOL     OW 8063   3.465   4.171   2.599
 2682SOL    HW1 8064   3.391   4.217   2.549
 2682SOL    HW2 8065   3.516   4.239   2.652
 2683SOL     OW 8066   2.092   5.158   2.400
 2683SOL    HW1 8067   2.066   5.254   2.400
 2683SOL    HW2 8068   2.021   5.104   2.445
 2684SOL     OW 8069   2.102   4.815   2.748
 2684SOL    HW1 8070   2.116   4.731   2.800
 2684SOL    HW2 8071   2.047   4.879   2.803
 2685SOL     OW 8072   2.468   4.688   1.985
 2685SOL    HW1 8073   2.475   4.772   1.931
 2685SOL    HW2 8074   2.514   4.701   2.073
 2686SOL     OW 8075   3.456   3.838   3.342
 2686SOL    HW1 8076   3.438   3.905   3.270
 2686SOL    HW2 8077   3.453   3.884   3.431
 2687SOL     OW 8078   1.984   4.367   2.425
 2687SOL    HW1 8079   1.939   4.279   2.442
 2687SOL    HW2 8080   1.983   4.421   2.509
 2688SOL     OW 8081   3.551   4.646   2.474
 2688SOL    HW1 8082   3.646   4.617   2.482
 2688SOL    HW2 8083   3.543   4.711   2.399
 2689SOL     OW 8084   1.975   4.461   3.459
 2689SOL    HW1 8085   2.063   4.448   3.504
 2689SOL    HW2 8086   1.962   4.558   3.437
 2690SOL     OW 8087   3.155   4.952   3.285
 2690SOL    HW1 8088   3.192   4.879   3.227
 2690SOL    HW2 8089   3.207   4.957   3.370
 2691SOL     OW 8090   2.671   3.728   2.364
 2691SOL    HW1 8091   2.711   3.819   2.355
 2691SOL    HW2 8092   2.571   3.736   2.370
 2692SOL     OW 8093   2.059   4.700   3.126
 2692SOL    HW1 8094   2.148   4.655   3.112
 2692SOL    HW2 8095   1.986   4.635   3.107
 2693SOL     OW 8096   3.387   4.723   2.052
 2693SOL    HW1 8097   3.324   4.647   2.065
 2693SOL    HW2 8098   3.435   4.741   2.138
 2694SOL     OW 8099   2.179   3.975   3.663
 2694SOL    HW1 8100   2.250   4.046   3.669
 2694SOL    HW2 8101   2.091   4.014   3.691
 2695SOL     OW 8102   2.460   4.453   2.132
 2695SOL    HW1 8103   2.484   4.522   2.064
 2695SOL    HW2 8104   2.382   4.486   2.186
 2696SOL     OW 8105   3.143   4.069   2.806
 2696SOL    HW1 8106   3.057   4.019   2.793
 2696SOL    HW2 8107   3.205   4.015   2.862
 2697SOL     OW 8108   2.669   4.329   3.327
 2697SOL    HW1 8109   2.622   4.326   3.416
 2697SOL    HW2 8110   2.618   4.274   3.261
 2698SOL     OW 8111   3.256   4.193   3.536
 2698SOL    HW1 8112   3.236   4.236   3.624
 2698SOL    HW2 8113   3.334   4.131   3.545
 2699SOL     OW 8114   2.835   4.614   3.434
 2699SOL    HW1 8115   2.881   4.530   3.405
 2699SOL    HW2 8116   2.779   4.648   3.359
 2700SOL     OW 8117   2.853   4.134   3.104
 2700SOL    HW1 8118   2.776   4.168   3.158
 2700SOL    HW2 8119   2.819   4.083   3.025
 2701SOL     OW 8120   2.903   4.425   2.291
 2701SOL    HW1 8121   2.929   4.421   2.387
 2701SOL    HW2 8122   2.818   4.374   2.277
 2702SOL     OW 8123   1.938   4.535   2.651
 2702SOL    HW1 8124   2.037   4.523   2.660
 2702SOL    HW2 8125   1.914   4.630   2.672
 2703SOL     OW 8126   2.727   4.072   2.057
 2703SOL    HW1 8127   2.786   4.135   2.008
 2703SOL    HW2 8128   2.746   3.978   2.028
 2704SOL     OW 8129   3.581   4.309   3.693
 2704SOL    HW1 8130   3.555   4.398   3.657
 2704SOL    HW2 8131   3.579   4.241   3.620
 2705SOL     OW 8132   2.412   3.920   2.747
 2705SOL    HW1 8133   2.407   3.915   2.847
 2705SOL    HW2 8134   2.414   4.016   2.718
 2706SOL     OW 8135   3.657   4.790   2.735
 2706SOL    HW1 8136   3.595   4.775   2.659
 2706SOL    HW2 8137   3.605   4.801   2.820
 2707SOL     OW 8138   2.183   4.667   2.104
 2707SOL    HW1 8139   2.265   4.706   2.062
 2707SOL    HW2 8140   2.156   4.585   2.055
 2708SOL     OW 8141   3.320   4.459   2.590
 2708SOL    HW1 8142   3.315   4.394   2.665
 2708SOL    HW2 8143   3.400   4.518   2.603
 2709SOL     OW 8144   2.064   4.009   3.360
 2709SOL    HW1 8145   1.984   4.069   3.347
 2709SOL    HW2 8146   2.054   3.960   3.446
 2710SOL     OW 8147   3.262   3.831   2.288
 2710SOL    HW1 8148   3.238   3.794   2.198
 2710SOL    HW2 8149   3.361   3.847   2.292
 2711SOL     OW 8150   2.244   4.424   2.342
 2711SOL    HW1 8151   2.289   4.334   2.339
 2711SOL    HW2 8152   2.150   4.413   2.375
 2712SOL     OW 8153   3.409   3.946   3.591
 2712SOL    HW1 8154   3.404   3.983   3.683
 2712SOL    HW2 8155   3.337   3.877   3.579
 2713SOL     OW 8156   2.476   3.846   1.979
 2713SOL    HW1 8157   2.574   3.824   1.986
 2713SOL    HW2 8158   2.445   3.829   1.886
 2714SOL     OW 8159   2.643   3.988   3.611
 2714SOL    HW1 8160   2.710   3.927   3.654
 2714SOL    HW2 8161   2.570   4.007   3.676
 2715SOL     OW 8162   3.213   4.314   3.295
 2715SOL    HW1 8163   3.241   4.271   3.380
 2715SOL    HW2 8164   3.238   4.410   3.296
 2716SOL     OW 8165   2.784   4.227   2.761
 2716SOL    HW1 8166   2.759   4.218   2.665
 2716SOL    HW2 8167   2.832   4.145   2.792
 2717SOL     OW 8168   2.401   3.788   2.374
 2717SOL    HW1 8169   2.320   3.789   2.432
 2717SOL    HW2 8170   2.404   3.871   2.319
 2718SOL     OW 8171   2.159   3.759   2.033
 2718SOL    HW1 8172   2.208   3.843   2.012
 2718SOL    HW2 8173   2.221   3.694   2.078
 2719SOL     OW 8174   2.797   3.960   2.342
 2719SOL    HW1 8175   2.749   4.001   2.264
 2719SOL    HW2 8176   2.896   3.958   2.323
 2720SOL     OW 8177   2.938   4.407   3.326
 2720SOL    HW1 8178   2.858   4.346   3.329
 2720SOL    HW2 8179   3.019   4.354   3.302
 2721SOL     OW 8180   2.894   4.273   1.878
 2721SOL    HW1 8181   2.853   4.355   1.839
 2721SOL    HW2 8182   2.958   4.299   1.951
 2722SOL     OW 8183   1.940   4.280   3.248
 2722SOL    HW1 8184   2.032   4.279   3.207
 2722SOL    HW2 8185   1.934   4.354   3.315
 2723SOL     OW 8186   2.423   3.946   3.009
 2723SOL    HW1 8187   2.461   3.862   3.046
 2723SOL    HW2 8188   2.335   3.965   3.053
 2724SOL     OW 8189   2.728   4.178   2.504
 2724SOL    HW1 8190   2.696   4.250   2.442
 2724SOL    HW2 8191   2.752   4.097   2.451
 2725SOL     OW 8192   2.879   3.763   2.615
 2725SOL    HW1 8193   2.807   3.768   2.546
 2725SOL    HW2 8194   2.855   3.694   2.684
 2726SOL     OW 8195   3.291   4.897   2.729
 2726SOL    HW1 8196   3.236   4.813   2.722
 2726SOL    HW2 8197   3.317   4.926   2.637
 2727SOL     OW 8198   3.328   4.314   2.854
 2727SOL    HW1 8199   3.298   4.219   2.861
 2727SOL    HW2 8200   3.401   4.330   2.920
 2728SOL     OW 8201   3.719   4.557   2.239
 2728SOL    HW1 8202   3.761   4.493   2.303
 2728SOL    HW2 8203   3.681   4.506   2.161
 2729SOL     OW 8204   3.252   4.299   1.940
 2729SOL    HW1 8205   3.198   4.278   2.021
 2729SOL    HW2 8206   3.343   4.258   1.949
 2730SOL     OW 8207   2.389   3.980   2.190
 2730SOL    HW1 8208   2.416   3.921   2.115
 2730SOL    HW2 8209   2.389   4.075   2.159
 2731SOL     OW 8210   3.616   4.947   3.450
 2731SOL    HW1 8211   3.707   4.908   3.437
 2731SOL    HW2 8212   3.624   5.043   3.474
 2732SOL     OW 8213   3.500   4.823   2.941
 2732SOL    HW1 8214   3.505   4.904   3.000
 2732SOL    HW2 8215   3.414   4.825   2.890
 2733SOL     OW 8216   2.777   3.813   3.264
 2733SOL    HW1 8217   2.802   3.793   3.169
 2733SOL    HW2 8218   2.849   3.869   3.306
 2734SOL     OW 8219   2.272   4.537   3.113
 2734SOL    HW1 8220   2.358   4.549   3.163
 2734SOL    HW2 8221   2.230   4.450   3.140
 2735SOL     OW 8222   3.136   4.110   3.124
 2735SOL    HW1 8223   3.157   4.184   3.188
 2735SOL    HW2 8224   3.047   4.127   3.081
 2736SOL     OW 8225   2.428   4.261   2.727
 2736SOL    HW1 8226   2.440   4.327   2.653
 2736SOL    HW2 8227   2.474   4.295   2.810
 2737SOL     OW 8228   3.444   4.363   2.334
 2737SOL    HW1 8229   3.413   4.424   2.407
 2737SOL    HW2 8230   3.494   4.415   2.265
 2738SOL     OW 8231   2.264   4.475   3.460
 2738SOL    HW1 8232   2.332   4.530   3.413
 2738SOL    HW2 8233   2.304   4.387   3.487
 2739SOL     OW 8234   3.449   4.503   3.532
 2739SOL    HW1 8235   3.357   4.541   3.527
 2739SOL    HW2 8236   3.509   4.550   3.467
 2740SOL     OW 8237   2.875   3.829   3.632
 2740SOL    HW1 8238   2.881   3.914   3.580
 2740SOL    HW2 8239   2.907   3.753   3.575
 2741SOL     OW 8240   2.366   3.774   3.602
 2741SOL    HW1 8241   2.324   3.717   3.532
 2741SOL    HW2 8242   2.300   3.843   3.634
 2742SOL     OW 8243   2.435   4.594   2.891
 2742SOL    HW1 8244   2.479   4.683   2.882
 2742SOL    HW2 8245   2.372   4.594   2.968
 2743SOL     OW 8246   3.222   4.586   2.907
 2743SOL    HW1 8247   3.147   4.586   2.841
 2743SOL    HW2 8248   3.259   4.494   2.916
 2744SOL     OW 8249   3.071   4.249   2.137
 2744SOL    HW1 8250   3.084   4.165   2.191
 2744SOL    HW2 8251   3.042   4.323   2.197
 2745SOL     OW 8252   2.169   3.937   3.093
 2745SOL    HW1 8253   2.146   3.974   3.183
 2745SOL    HW2 8254   2.139   3.842   3.087
 2746SOL     OW 8255   2.594   4.358   2.926
 2746SOL    HW1 8256   2.653   4.332   2.850
 2746SOL    HW2 8257   2.566   4.454   2.915
 2747SOL     OW 8258   3.590   4.659   3.716
 2747SOL    HW1 8259   3.544   4.652   3.627
 2747SOL    HW2 8260   3.528   4.703   3.782
 2748SOL     OW 8261   2.169   3.787   2.480
 2748SOL    HW1 8262   2.158   3.881   2.513
 2748SOL    HW2 8263   2.164   3.724   2.557
 2749SOL     OW 8264   3.484   4.091   2.236
 2749SOL    HW1 8265   3.486   4.015   2.300
 2749SOL    HW2 8266   3.436   4.168   2.276
 2750SOL     OW 8267   2.885   4.490   2.828
 2750SOL    HW1 8268   2.900   4.511   2.924
 2750SOL    HW2 8269   2.855   4.395   2.819
 2751SOL     OW 8270   2.212   4.622   3.666
 2751SOL    HW1 8271   2.288   4.666   3.714
 2751SOL    HW2 8272   2.247   4.575   3.584
 2752SOL     OW 8273   3.402   3.998   1.987
 2752SOL    HW1 8274   3.341   3.923   2.010
 2752SOL    HW2 8275   3.424   4.050   2.070
 2753SOL     OW 8276   3.165   4.562   1.904
 2753SOL    HW1 8277   3.199   4.469   1.919
 2753SOL    HW2 8278   3.183   4.589   1.809
 2754SOL     OW 8279   2.181   4.534   2.811
 2754SOL    HW1 8280   2.274   4.570   2.816
 2754SOL    HW2 8281   2.175   4.449   2.863
 2755SOL     OW 8282   2.201   4.233   2.868
 2755SOL    HW1 8283   2.149   4.150   2.851
 2755SOL    HW2 8284   2.278   4.238   2.804
 2756SOL     OW 8285   3.000   4.104   3.540
 2756SOL    HW1 8286   2.955   4.167   3.604
 2756SOL    HW2 8287   3.093   4.135   3.523
 2757SOL     OW 8288   3.022   3.931   3.339
 2757SOL    HW1 8289   3.022   3.995   3.416
 2757SOL    HW2 8290   3.050   3.979   3.256
 2758SOL     OW 8291   2.864   4.520   3.100
 2758SOL    HW1 8292   2.905   4.488   3.186
 2758SOL    HW2 8293   2.768   4.493   3.097
 2759SOL     OW 8294   1.902   4.268   2.976
 2759SOL    HW1 8295   1.987   4.235   2.935
 2759SOL    HW2 8296   1.915   4.283   3.074
 2760SOL     OW 8297   2.051   4.244   3.584
 2760SOL    HW1 8298   2.110   4.204   3.514
 2760SOL    HW2 8299   1.993   4.315   3.543
 2761SOL     OW 8300   3.231   4.674   3.522
 2761SOL    HW1 8301   3.270   4.763   3.542
 2761SOL    HW2 8302   3.241   4.654   3.425
 2762SOL     OW 8303   2.677   4.296   2.187
 2762SOL    HW1 8304   2.684   4.207   2.141
 2762SOL    HW2 8305   2.583   4.330   2.179
 2763SOL     OW 8306   3.519   4.328   3.068
 2763SOL    HW1 8307   3.481   4.259   3.130
 2763SOL    HW2 8308   3.601   4.292   3.024
 2764SOL     OW 8309   2.533   4.188   3.131
 2764SOL    HW1 8310   2.499   4.099   3.101
 2764SOL    HW2 8311   2.559   4.242   3.051
 2765SOL     OW 8312   2.335   4.224   2.053
 2765SOL    HW1 8313   2.396   4.304   2.057
 2765SOL    HW2 8314   2.240   4.255   2.060
 2766SOL     OW 8315   2.021   4.861   3.328
 2766SOL    HW1 8316   2.043   4.800   3.404
 2766SOL    HW2 8317   2.031   4.812   3.242
 2767SOL     OW 8318   3.209   4.783   3.096
 2767SOL    HW1 8319   3.233   4.720   3.022
 2767SOL    HW2 8320   3.119   4.823   3.078
 2768SOL     OW 8321   3.164   4.579   2.171
 2768SOL    HW1 8322   3.078   4.548   2.213
 2768SOL    HW2 8323   3.160   4.565   2.072
 2769SOL     OW 8324   3.588   3.859   2.385
 2769SOL    HW1 8325   3.661   3.842   2.318
 2769SOL    HW2 8326   3.557   3.772   2.423
 2770SOL     OW 8327   3.142   4.651   2.534
 2770SOL    HW1 8328   3.202   4.570   2.536
 2770SOL    HW2 8329   3.182   4.720   2.474
 2771SOL     OW 8330   3.703   3.899   2.825
 2771SOL    HW1 8331   3.742   3.814   2.789
 2771SOL    HW2 8332   3.605   3.901   2.806
 2772SOL     OW 8333   2.125   4.050   2.582
 2772SOL    HW1 8334   2.046   4.101   2.548
 2772SOL    HW2 8335   2.116   4.035   2.680
 2773SOL     OW 8336   2.684   4.726   3.234
 2773SOL    HW1 8337   2.724   4.725   3.142
 2773SOL    HW2 8338   2.694   4.818   3.274
 2774SOL     OW 8339   2.778   4.634   2.153
 2774SOL    HW1 8340   2.841   4.672   2.085
 2774SOL    HW2 8341   2.818   4.551   2.192
 2775SOL     OW 8342   2.876   3.960   2.833
 2775SOL    HW1 8343   2.868   3.924   2.740
 2775SOL    HW2 8344   2.874   3.884   2.898
 2776SOL     OW 8345   3.571   4.109   3.243
 2776SOL    HW1 8346   3.644   4.178   3.247
 2776SOL    HW2 8347   3.599   4.034   3.184
 2777SOL     OW 8348   1.967   4.737   3.588
 2777SOL    HW1 8349   1.890   4.704   3.642
 2777SOL    HW2 8350   2.052   4.707   3.630
 2778SOL     OW 8351   2.534   3.927   3.351
 2778SOL    HW1 8352   2.624   3.911   3.311
 2778SOL    HW2 8353   2.542   3.932   3.450
 2779SOL     OW 8354   1.937   4.069   1.895
 2779SOL    HW1 8355   1.845   4.041   1.866
 2779SOL    HW2 8356   1.968   4.146   1.839
 2780SOL     OW 8357   3.302   4.580   3.260
 2780SOL    HW1 8358   3.245   4.632   3.197
 2780SOL    HW2 8359   3.398   4.592   3.236
 2781SOL     OW 8360   1.934   3.890   2.180
 2781SOL    HW1 8361   1.917   3.973   2.126
 2781SOL    HW2 8362   2.024   3.853   2.158
 2782SOL     OW 8363   3.045   5.059   1.981
 2782SOL    HW1 8364   2.946   5.048   1.983
 2782SOL    HW2 8365   3.079   5.074   2.074
 2783SOL     OW 8366   2.475   4.566   3.293
 2783SOL    HW1 8367   2.531   4.647   3.276
 2783SOL    HW2 8368   2.534   4.486   3.296
 2784SOL     OW 8369   2.578   4.289   3.570
 2784SOL    HW1 8370   2.597   4.354   3.644
 2784SOL    HW2 8371   2.638   4.209   3.579
 2785SOL     OW 8372   3.536   4.607   3.116
 2785SOL    HW1 8373   3.509   4.518   3.079
 2785SOL    HW2 8374   3.537   4.675   3.043
 2786SOL     OW 8375   3.087   4.049   2.311
 2786SOL    HW1 8376   3.152   3.975   2.300
 2786SOL    HW2 8377   3.107   4.099   2.395
 2787SOL     OW 8378   2.456   4.469   2.514
 2787SOL    HW1 8379   2.506   4.554   2.495
 2787SOL    HW2 8380   2.368   4.471   2.466
 2788SOL     OW 8381   3.639   4.066   3.504
 2788SOL    HW1 8382   3.622   4.097   3.410
 2788SOL    HW2 8383   3.555   4.029   3.542
 2789SOL     OW 8384   3.592   4.658   3.379
 2789SOL    HW1 8385   3.630   4.749   3.394
 2789SOL    HW2 8386   3.584   4.641   3.280
 2790SOL     OW 8387   2.721   4.680   2.723
 2790SOL    HW1 8388   2.775   4.611   2.771
 2790SOL    HW2 8389   2.689   4.749   2.789
 2791SOL     OW 8390   2.945   4.708   1.949
 2791SOL    HW1 8391   2.922   4.761   1.867
 2791SOL    HW2 8392   3.026   4.652   1.930
 2792SOL     OW 8393   3.686   3.916   3.089
 2792SOL    HW1 8394   3.682   3.826   3.133
 2792SOL    HW2 8395   3.689   3.905   2.990
 2793SOL     OW 8396   2.290   4.148   2.382
 2793SOL    HW1 8397   2.320   4.076   2.320
 2793SOL    HW2 8398   2.251   4.108   2.465
 2794SOL     OW 8399   2.179   4.271   3.142
 2794SOL    HW1 8400   2.217   4.212   3.214
 2794SOL    HW2 8401   2.219   4.245   3.054
 2795SOL     OW 8402   3.286   3.938   2.974
 2795SOL    HW1 8403   3.338   3.873   3.029
 2795SOL    HW2 8404   3.237   4.001   3.035
 2796SOL     OW 8405   2.863   3.758   3.016
 2796SOL    HW1 8406   2.800   3.686   2.985
 2796SOL    HW2 8407   2.956   3.722   3.016
 2797SOL     OW 8408   3.214   3.776   2.030
 2797SOL    HW1 8409   3.249   3.735   1.946
 2797SOL    HW2 8410   3.124   3.738   2.050
 2798SOL     OW 8411   3.162   4.177   2.553
 2798SOL    HW1 8412   3.103   4.257   2.557
 2798SOL    HW2 8413   3.177   4.142   2.646
 2799SOL     OW 8414   3.455   3.945   2.744
 2799SOL    HW1 8415   3.371   3.944   2.798
 2799SOL    HW2 8416   3.457   4.028   2.688
 2800SOL     OW 8417   1.901   4.801   2.162
 2800SOL    HW1 8418   2.000   4.790   2.153
 2800SOL    HW2 8419   1.861   4.715   2.194
 2801SOL     OW 8420   2.092   4.352   3.837
 2801SOL    HW1 8421   1.999   4.350   3.874
 2801SOL    HW2 8422   2.093   4.313   3.745
 2802SOL     OW 8423   2.087   3.999   4.720
 2802SOL    HW1 8424   2.122   3.982   4.812
 2802SOL    HW2 8425   1.999   3.954   4.708
 2803SOL     OW 8426   1.881   4.092   4.371
 2803SOL    HW1 8427   1.799   4.135   4.410
 2803SOL    HW2 8428   1.853   4.019   4.308
 2804SOL     OW 8429   2.997   4.427   4.441
 2804SOL    HW1 8430   3.054   4.505   4.416
 2804SOL    HW2 8431   2.937   4.453   4.517
 2805SOL     OW 8432   3.617   4.331   3.955
 2805SOL    HW1 8433   3.605   4.318   3.856
 2805SOL    HW2 8434   3.587   4.250   4.004
 2806SOL     OW 8435   2.630   4.868   4.747
 2806SOL    HW1 8436   2.552   4.885   4.807
 2806SOL    HW2 8437   2.664   4.955   4.711
 2807SOL     OW 8438   2.547   4.736   4.389
 2807SOL    HW1 8439   2.616   4.720   4.459
 2807SOL    HW2 8440   2.474   4.793   4.427
 2808SOL     OW 8441   3.465   4.171   4.461
 2808SOL    HW1 8442   3.391   4.217   4.411
 2808SOL    HW2 8443   3.516   4.239   4.514
 2809SOL     OW 8444   2.092   5.158   4.262
 2809SOL    HW1 8445   2.066   5.254   4.262
 2809SOL    HW2 8446   2.021   5.104   4.307
 2810SOL     OW 8447   2.102   4.815   4.610
 2810SOL    HW1 8448   2.116   4.731   4.662
 2810SOL    HW2 8449   2.047   4.879   4.665
 2811SOL     OW 8450   2.468   4.688   3.847
 2811SOL    HW1 8451   2.475   4.772   3.793
 2811SOL    HW2 8452   2.514   4.701   3.935
 2812SOL     OW 8453   1.984   4.367   4.287
 2812SOL    HW1 8454   1.939   4.279   4.304
 2812SOL    HW2 8455   1.983   4.421   4.371
 2813SOL     OW 8456   3.551   4.646   4.336
 2813SOL    HW1 8457   3.646   4.617   4.344
 2813SOL    HW2 8458   3.543   4.711   4.261
 2814SOL     OW 8459   2.671   3.728   4.226
 2814SOL    HW1 8460   2.711   3.819   4.217
 2814SOL    HW2 8461   2.571   3.736   4.232
 2815SOL     OW 8462   3.387   4.723   3.914
 2815SOL    HW1 8463   3.324   4.647   3.927
 2815SOL    HW2 8464   3.435   4.741   4.000
 2816SOL     OW 8465   2.460   4.453   3.994
 2816SOL    HW1 8466   2.484   4.522   3.926
 2816SOL    HW2 8467   2.382   4.486   4.048
 2817SOL     OW 8468   3.143   4.069   4.668
 2817SOL    HW1 8469   3.057   4.019   4.655
 2817SOL    HW2 8470   3.205   4.015   4.724
 2818SOL     OW 8471   2.903   4.425   4.153
 2818SOL    HW1 8472   2.929   4.421   4.249
 2818SOL    HW2 8473   2.818   4.374   4.139
 2819SOL     OW 8474   1.938   4.535   4.513
 2819SOL    HW1 8475   2.037   4.523   4.522
 2819SOL    HW2 8476   1.914   4.630   4.534
 2820SOL     OW 8477   2.727   4.072   3.919
 2820SOL    HW1 8478   2.786   4.135   3.870
 2820SOL    HW2 8479   2.746   3.978   3.890
 2821SOL     OW 8480   2.412   3.920   4.609
 2821SOL    HW1 8481   2.407   3.915   4.709
 2821SOL    HW2 8482   2.414   4.016   4.580
 2822SOL     OW 8483   3.657   4.790   4.597
 2822SOL    HW1 8484   3.595   4.775   4.521
 2822SOL    HW2 8485   3.605   4.801   4.682
 2823SOL     OW 8486   2.183   4.667   3.966
 2823SOL    HW1 8487   2.265   4.706   3.924
 2823SOL    HW2 8488   2.156   4.585   3.917
 2824SOL     OW 8489   3.320   4.459   4.452
 2824SOL    HW1 8490   3.315   4.394   4.527
 2824SOL    HW2 8491   3.400   4.518   4.465
 2825SOL     OW 8492   3.262   3.831   4.150
 2825SOL    HW1 8493   3.238   3.794   4.060
 2825SOL    HW2 8494   3.361   3.847   4.154
 2826SOL     OW 8495   2.244   4.424   4.204
 2826SOL    HW1 8496   2.289   4.334   4.201
 2826SOL    HW2 8497   2.150   4.413   4.237
 2827SOL     OW 8498   2.476   3.846   3.841
 2827SOL    HW1 8499   2.574   3.824   3.848
 2827SOL    HW2 8500   2.445   3.829   3.748
 2828SOL     OW 8501   2.784   4.227   4.623
 2828SOL    HW1 8502   2.759   4.218   4.527
 2828SOL    HW2 8503   2.832   4.145   4.654
 2829SOL     OW 8504   2.401   3.788   4.236
 2829SOL    HW1 8505   2.320   3.789   4.294
 2829SOL    HW2 8506   2.404   3.871   4.181
 2830SOL     OW 8507   2.159   3.759   3.895
 2830SOL    HW1 8508   2.208   3.843   3.874
 2830SOL    HW2 8509   2.221   3.694   3.940
 2831SOL     OW 8510   2.797   3.960   4.204
 2831SOL    HW1 8511   2.749   4.001   4.126
 2831SOL    HW2 8512   2.896   3.958   4.185
 2832SOL     OW 8513   2.894   4.273   3.740
 2832SOL    HW1 8514   2.853   4.355   3.701
 2832SOL    HW2 8515   2.958   4.299   3.813
 2833SOL     OW 8516   2.728   4.178   4.366
 2833SOL    HW1 8517   2.696   4.250   4.304
 2833SOL    HW2 8518   2.752   4.097   4.313
 2834SOL     OW 8519   2.879   3.763   4.477
 2834SOL    HW1 8520   2.807   3.768   4.408
 2834SOL    HW2 8521   2.855   3.694   4.546
 2835SOL     OW 8522   3.291   4.897   4.591
 2835SOL    HW1 8523   3.236   4.813   4.584
 2835SOL    HW2 8524   3.317   4.926   4.499
 2836SOL     OW 8525   3.328   4.314   4.716
 2836SOL    HW1 8526   3.298   4.219   4.723
 2836SOL    HW2 8527   3.401   4.330   4.782
 2837SOL     OW 8528   3.719   4.557   4.101
 2837SOL    HW1 8529   3.761   4.493   4.165
 2837SOL    HW2 8530   3.681   4.506   4.023
 2838SOL     OW 8531   3.252   4.299   3.802
 2838SOL    HW1 8532   3.198   4.278   3.883
 2838SOL    HW2 8533   3.343   4.258   3.811
 2839SOL     OW 8534   2.389   3.980   4.052
 2839SOL    HW1 8535   2.416   3.921   3.977
 2839SOL    HW2 8536   2.389   4.075   4.021
 2840SOL     OW 8537   3.500   4.823   4.803
 2840SOL    HW1 8538   3.505   4.904   4.862
 2840SOL    HW2 8539   3.414   4.825   4.752
 2841SOL     OW 8540   2.272   4.537   4.975
 2841SOL    HW1 8541   2.358   4.549   5.025
 2841SOL    HW2 8542   2.230   4.450   5.002
 2842SOL     OW 8543   2.428   4.261   4.589
 2842SOL    HW1 8544   2.440   4.327   4.515
 2842SOL    HW2 8545   2.474   4.295   4.672
 2843SOL     OW 8546   3.444   4.363   4.196
 2843SOL    HW1 8547   3.413   4.424   4.269
 2843SOL    HW2 8548   3.494   4.415   4.127
 2844SOL     OW 8549   2.435   4.594   4.753
 2844SOL    HW1 8550   2.479   4.683   4.744
 2844SOL    HW2 8551   2.372   4.594   4.830
 2845SOL     OW 8552   3.071   4.249   3.999
 2845SOL    HW1 8553   3.084   4.165   4.053
 2845SOL    HW2 8554   3.042   4.323   4.059
 2846SOL     OW 8555   2.169   3.937   4.955
 2846SOL    HW1 8556   2.146   3.974   5.045
 2846SOL    HW2 8557   2.139   3.842   4.949
 2847SOL     OW 8558   2.594   4.358   4.788
 2847SOL    HW1 8559   2.653   4.332   4.712
 2847SOL    HW2 8560   2.566   4.454   4.777
 2848SOL     OW 8561   2.169   3.787   4.342
 2848SOL    HW1 8562   2.158   3.881   4.375
 2848SOL    HW2 8563   2.164   3.724   4.419
 2849SOL     OW 8564   3.484   4.091   4.098
 2849SOL    HW1 8565   3.486   4.015   4.162
 2849SOL    HW2 8566   3.436   4.168   4.138
 2850SOL     OW 8567   2.885   4.490   4.690
 2850SOL    HW1 8568   2.900   4.511   4.786
 2850SOL    HW2 8569   2.855   4.395   4.681
 2851SOL     OW 8570   3.402   3.998   3.849
 2851SOL    HW1 8571   3.341   3.923   3.872
 2851SOL    HW2 8572   3.424   4.050   3.932
 2852SOL     OW 8573   3.165   4.562   3.766
 2852SOL    HW1 8574   3.199   4.469   3.781
 2852SOL    HW2 8575   3.183   4.589   3.671
 2853SOL     OW 8576   2.181   4.534   4.673
 2853SOL    HW1 8577   2.274   4.570   4.678
 2853SOL    HW2 8578   2.175   4.449   4.725
 2854SOL     OW 8579   2.201   4.233   4.730
 2854SOL    HW1 8580   2.149   4.150   4.713
 2854SOL    HW2 8581   2.278   4.238   4.666
 2855SOL     OW 8582   2.864   4.520   4.962
 2855SOL    HW1 8583   2.905   4.488   5.048
 2855SOL    HW2 8584   2.768   4.493   4.959
 2856SOL     OW 8585   1.902   4.268   4.838
 2856SOL    HW1 8586   1.987   4.235   4.797
 2856SOL    HW2 8587   1.915   4.283   4.936
 2857SOL     OW 8588   2.677   4.296   4.049
 2857SOL    HW1 8589   2.684   4.207   4.003
 2857SOL    HW2 8590   2.583   4.330   4.041
 2858SOL     OW 8591   2.533   4.188   4.993
 2858SOL    HW1 8592   2.499   4.099   4.963
 2858SOL    HW2 8593   2.559   4.242   4.913
 2859SOL     OW 8594   2.335   4.224   3.915
 2859SOL    HW1 8595   2.396   4.304   3.919
 2859SOL    HW2 8596   2.240   4.255   3.922
 2860SOL     OW 8597   3.164   4.579   4.033
 2860SOL    HW1 8598   3.078   4.548   4.075
 2860SOL    HW2 8599   3.160   4.565   3.934
 2861SOL     OW 8600   3.588   3.859   4.247
 2861SOL    HW1 8601   3.661   3.842   4.180
 2861SOL    HW2 8602   3.557   3.772   4.285
 2862SOL     OW 8603   3.142   4.651   4.396
 2862SOL    HW1 8604   3.202   4.570   4.398
 2862SOL    HW2 8605   3.182   4.720   4.336
 2863SOL     OW 8606   3.703   3.899   4.687
 2863SOL    HW1 8607   3.742   3.814   4.651
 2863SOL    HW2 8608   3.605   3.901   4.668
 2864SOL     OW 8609   2.125   4.050   4.444
 2864SOL    HW1 8610   2.046   4.101   4.410
 2864SOL    HW2 8611   2.116   4.035   4.542
 2865SOL     OW 8612   2.778   4.634   4.015
 2865SOL    HW1 8613   2.841   4.672   3.947
 2865SOL    HW2 8614   2.818   4.551   4.054
 2866SOL     OW 8615   2.876   3.960   4.695
 2866SOL    HW1 8616   2.868   3.924   4.602
 2866SOL    HW2 8617   2.874   3.884   4.760
 2867SOL     OW 8618   1.937   4.069   3.757
 2867SOL    HW1 8619   1.845   4.041   3.728
 2867SOL    HW2 8620   1.968   4.146   3.701
 2868SOL     OW 8621   1.934   3.890   4.042
 2868SOL    HW1 8622   1.917   3.973   3.988
 2868SOL    HW2 8623   2.024   3.853   4.020
 2869SOL     OW 8624   3.045   5.059   3.843
 2869SOL    HW1 8625   2.946   5.048   3.845
 2869SOL    HW2 8626   3.079   5.074   3.936
 2870SOL     OW 8627   3.536   4.607   4.978
 2870SOL    HW1 8628   3.509   4.518   4.941
 2870SOL    HW2 8629   3.537   4.675   4.905
 2871SOL     OW 8630   3.087   4.049   4.173
 2871SOL    HW1 8631   3.152   3.975   4.162
 2871SOL    HW2 8632   3.107   4.099   4.257
 2872SOL     OW 8633   2.456   4.469   4.376
 2872SOL    HW1 8634   2.506   4.554   4.357
 2872SOL    HW2 8635   2.368   4.471   4.328
 2873SOL     OW 8636   2.721   4.680   4.585
 2873SOL    HW1 8637   2.775   4.611   4.633
 2873SOL    HW2 8638   2.689   4.749   4.651
 2874SOL     OW 8639   2.945   4.708   3.811
 2874SOL    HW1 8640   2.922   4.761   3.729
 2874SOL    HW2 8641   3.026   4.652   3.792
 2875SOL     OW 8642   3.686   3.916   4.951
 2875SOL    HW1 8643   3.682   3.826   4.995
 2875SOL    HW2 8644   3.689   3.905   4.852
 2876SOL     OW 8645   2.290   4.148   4.244
 2876SOL    HW1 8646   2.320   4.076   4.182
 2876SOL    HW2 8647   2.251   4.108   4.327
 2877SOL     OW 8648   3.286   3.938   4.836
 2877SOL    HW1 8649   3.338   3.873   4.891
 2877SOL    HW2 8650   3.237   4.001   4.897
 2878SOL     OW 8651   3.214   3.776   3.892
 2878SOL    HW1 8652   3.249   3.735   3.808
 2878SOL    HW2 8653   3.124   3.738   3.912
 2879SOL     OW 8654   3.162   4.177   4.415
 2879SOL    HW1 8655   3.103   4.257   4.419
 2879SOL    HW2 8656   3.177   4.142   4.508
 2880SOL     OW 8657   3.455   3.945   4.606
 2880SOL    HW1 8658   3.371   3.944   4.660
 2880SOL    HW2 8659   3.457   4.028   4.550
 2881SOL     OW 8660   1.901   4.801   4.024
 2881SOL    HW1 8661   2.000   4.790   4.015
 2881SOL    HW2 8662   1.861   4.715   4.056
 2882SOL     OW 8663   3.954   0.628   0.113
 2882SOL    HW1 8664   3.861   0.626   0.150
 2882SOL    HW2 8665   3.955   0.589   0.021
 2883SOL     OW 8666   3.949   0.275   0.996
 2883SOL    HW1 8667   3.984   0.258   1.088
 2883SOL    HW2 8668   3.861   0.230   0.984
 2884SOL     OW 8669   3.743   0.368   0.647
 2884SOL    HW1 8670   3.661   0.411   0.686
 2884SOL    HW2 8671   3.715   0.295   0.584
 2885SOL     OW 8672   4.293   1.275   1.165
 2885SOL    HW1 8673   4.200   1.268   1.128
 2885SOL    HW2 8674   4.304   1.364   1.209
 2886SOL     OW 8675   4.492   1.144   1.023
 2886SOL    HW1 8676   4.414   1.161   1.083
 2886SOL    HW2 8677   4.526   1.231   0.987
 2887SOL     OW 8678   4.574   0.798   1.823
 2887SOL    HW1 8679   4.570   0.874   1.888
 2887SOL    HW2 8680   4.596   0.834   1.732
 2888SOL     OW 8681   4.409   1.012   0.665
 2888SOL    HW1 8682   4.478   0.996   0.735
 2888SOL    HW2 8683   4.336   1.069   0.703
 2889SOL     OW 8684   4.410   1.161   1.803
 2889SOL    HW1 8685   4.470   1.240   1.817
 2889SOL    HW2 8686   4.324   1.192   1.762
 2890SOL     OW 8687   4.059   1.435   1.061
 2890SOL    HW1 8688   3.981   1.404   1.008
 2890SOL    HW2 8689   4.117   1.493   1.004
 2891SOL     OW 8690   4.162   0.392   1.499
 2891SOL    HW1 8691   4.244   0.336   1.508
 2891SOL    HW2 8692   4.081   0.334   1.503
 2892SOL     OW 8693   3.955   1.713   0.483
 2892SOL    HW1 8694   3.989   1.790   0.537
 2892SOL    HW2 8695   3.999   1.713   0.393
 2893SOL     OW 8696   4.851   1.341   1.690
 2893SOL    HW1 8697   4.898   1.341   1.778
 2893SOL    HW2 8698   4.803   1.254   1.679
 2894SOL     OW 8699   3.954   1.434   0.538
 2894SOL    HW1 8700   3.928   1.530   0.538
 2894SOL    HW2 8701   3.883   1.380   0.583
 2895SOL     OW 8702   3.964   1.091   0.886
 2895SOL    HW1 8703   3.978   1.007   0.938
 2895SOL    HW2 8704   3.909   1.155   0.941
 2896SOL     OW 8705   4.344   1.786   1.439
 2896SOL    HW1 8706   4.252   1.769   1.474
 2896SOL    HW2 8707   4.372   1.878   1.465
 2897SOL     OW 8708   4.330   0.964   0.123
 2897SOL    HW1 8709   4.337   1.048   0.069
 2897SOL    HW2 8710   4.376   0.977   0.211
 2898SOL     OW 8711   3.846   0.643   0.563
 2898SOL    HW1 8712   3.801   0.555   0.580
 2898SOL    HW2 8713   3.845   0.697   0.647
 2899SOL     OW 8714   3.751   1.596   0.117
 2899SOL    HW1 8715   3.732   1.500   0.138
 2899SOL    HW2 8716   3.718   1.654   0.192
 2900SOL     OW 8717   3.837   0.737   1.597
 2900SOL    HW1 8718   3.925   0.724   1.642
 2900SOL    HW2 8719   3.824   0.834   1.575
 2901SOL     OW 8720   4.337   1.365   0.726
 2901SOL    HW1 8721   4.288   1.278   0.735
 2901SOL    HW2 8722   4.314   1.408   0.639
 2902SOL     OW 8723   4.533   0.004   0.502
 2902SOL    HW1 8724   4.573   0.095   0.493
 2902SOL    HW2 8725   4.433   0.012   0.508
 2903SOL     OW 8726   3.921   0.976   1.264
 2903SOL    HW1 8727   4.010   0.931   1.250
 2903SOL    HW2 8728   3.848   0.911   1.245
 2904SOL     OW 8729   4.041   0.251   1.801
 2904SOL    HW1 8730   4.112   0.322   1.807
 2904SOL    HW2 8731   3.953   0.290   1.829
 2905SOL     OW 8732   4.322   0.729   0.270
 2905SOL    HW1 8733   4.346   0.798   0.202
 2905SOL    HW2 8734   4.244   0.762   0.324
 2906SOL     OW 8735   4.531   0.605   1.465
 2906SOL    HW1 8736   4.484   0.602   1.554
 2906SOL    HW2 8737   4.480   0.550   1.399
 2907SOL     OW 8738   4.697   0.890   1.572
 2907SOL    HW1 8739   4.743   0.806   1.543
 2907SOL    HW2 8740   4.641   0.924   1.497
 2908SOL     OW 8741   4.715   0.410   1.242
 2908SOL    HW1 8742   4.638   0.444   1.296
 2908SOL    HW2 8743   4.681   0.359   1.163
 2909SOL     OW 8744   4.765   0.701   0.429
 2909SOL    HW1 8745   4.791   0.697   0.525
 2909SOL    HW2 8746   4.680   0.650   0.415
 2910SOL     OW 8747   3.800   0.811   0.789
 2910SOL    HW1 8748   3.899   0.799   0.798
 2910SOL    HW2 8749   3.776   0.906   0.810
 2911SOL     OW 8750   3.854   1.821   1.571
 2911SOL    HW1 8751   3.844   1.806   1.670
 2911SOL    HW2 8752   3.768   1.857   1.535
 2912SOL     OW 8753   4.589   0.348   0.195
 2912SOL    HW1 8754   4.648   0.411   0.146
 2912SOL    HW2 8755   4.608   0.254   0.166
 2913SOL     OW 8756   4.274   0.196   0.885
 2913SOL    HW1 8757   4.269   0.191   0.985
 2913SOL    HW2 8758   4.276   0.292   0.856
 2914SOL     OW 8759   4.732   1.456   0.477
 2914SOL    HW1 8760   4.686   1.528   0.425
 2914SOL    HW2 8761   4.728   1.476   0.575
 2915SOL     OW 8762   4.075   1.801   0.853
 2915SOL    HW1 8763   4.125   1.715   0.859
 2915SOL    HW2 8764   4.140   1.878   0.850
 2916SOL     OW 8765   4.045   0.943   0.242
 2916SOL    HW1 8766   4.127   0.982   0.200
 2916SOL    HW2 8767   4.018   0.861   0.193
 2917SOL     OW 8768   4.185   1.266   1.727
 2917SOL    HW1 8769   4.135   1.267   1.641
 2917SOL    HW2 8770   4.122   1.248   1.803
 2918SOL     OW 8771   3.926   0.285   1.498
 2918SOL    HW1 8772   3.846   0.345   1.485
 2918SOL    HW2 8773   3.916   0.236   1.584
 2919SOL     OW 8774   4.188   1.743   0.323
 2919SOL    HW1 8775   4.221   1.782   0.409
 2919SOL    HW2 8776   4.264   1.736   0.258
 2920SOL     OW 8777   3.973   1.785   1.241
 2920SOL    HW1 8778   4.030   1.720   1.291
 2920SOL    HW2 8779   3.957   1.752   1.148
 2921SOL     OW 8780   4.664   1.698   0.904
 2921SOL    HW1 8781   4.744   1.641   0.925
 2921SOL    HW2 8782   4.615   1.658   0.827
 2922SOL     OW 8783   4.106   0.700   0.480
 2922SOL    HW1 8784   4.151   0.610   0.477
 2922SOL    HW2 8785   4.012   0.689   0.513
 2923SOL     OW 8786   4.338   0.122   0.117
 2923SOL    HW1 8787   4.436   0.100   0.124
 2923SOL    HW2 8788   4.307   0.105   0.024
 2924SOL     OW 8789   4.505   0.264   1.749
 2924SOL    HW1 8790   4.572   0.203   1.792
 2924SOL    HW2 8791   4.432   0.283   1.814
 2925SOL     OW 8792   4.612   1.514   1.195
 2925SOL    HW1 8793   4.589   1.489   1.101
 2925SOL    HW2 8794   4.673   1.445   1.234
 2926SOL     OW 8795   4.527   1.402   0.924
 2926SOL    HW1 8796   4.617   1.416   0.882
 2926SOL    HW2 8797   4.456   1.404   0.853
 2927SOL     OW 8798   4.646   0.503   0.899
 2927SOL    HW1 8799   4.621   0.494   0.803
 2927SOL    HW2 8800   4.694   0.421   0.930
 2928SOL     OW 8801   4.263   0.064   0.512
 2928SOL    HW1 8802   4.182   0.065   0.570
 2928SOL    HW2 8803   4.266   0.147   0.457
 2929SOL     OW 8804   5.158   1.188   0.041
 2929SOL    HW1 8805   5.190   1.112   0.098
 2929SOL    HW2 8806   5.066   1.215   0.071
 2930SOL     OW 8807   4.021   0.035   0.171
 2930SOL    HW1 8808   4.070   0.119   0.150
 2930SOL    HW2 8809   4.083  -0.030   0.216
 2931SOL     OW 8810   4.659   0.236   0.480
 2931SOL    HW1 8811   4.611   0.277   0.402
 2931SOL    HW2 8812   4.758   0.234   0.461
 2932SOL     OW 8813   4.951   1.570   0.793
 2932SOL    HW1 8814   4.972   1.644   0.728
 2932SOL    HW2 8815   5.019   1.570   0.866
 2933SOL     OW 8816   4.183   1.152   0.741
 2933SOL    HW1 8817   4.112   1.125   0.806
 2933SOL    HW2 8818   4.157   1.124   0.648
 2934SOL     OW 8819   4.756   0.549   0.016
 2934SOL    HW1 8820   4.715   0.631  -0.023
 2934SOL    HW2 8821   4.820   0.575   0.089
 2935SOL     OW 8822   3.802   0.556   1.386
 2935SOL    HW1 8823   3.894   0.555   1.345
 2935SOL    HW2 8824   3.796   0.630   1.453
 2936SOL     OW 8825   4.285   0.222   1.147
 2936SOL    HW1 8826   4.323   0.138   1.184
 2936SOL    HW2 8827   4.197   0.241   1.191
 2937SOL     OW 8828   4.590   0.454   0.642
 2937SOL    HW1 8829   4.558   0.526   0.580
 2937SOL    HW2 8830   4.614   0.373   0.589
 2938SOL     OW 8831   4.741   0.039   0.753
 2938SOL    HW1 8832   4.669   0.044   0.684
 2938SOL    HW2 8833   4.717  -0.030   0.822
 2939SOL     OW 8834   4.212   1.385   0.174
 2939SOL    HW1 8835   4.125   1.370   0.221
 2939SOL    HW2 8836   4.195   1.411   0.079
 2940SOL     OW 8837   4.251   0.256   0.328
 2940SOL    HW1 8838   4.278   0.197   0.253
 2940SOL    HW2 8839   4.251   0.351   0.297
 2941SOL     OW 8840   4.639   0.089   1.402
 2941SOL    HW1 8841   4.664   0.069   1.307
 2941SOL    HW2 8842   4.711   0.145   1.444
 2942SOL     OW 8843   4.704   1.116   1.719
 2942SOL    HW1 8844   4.605   1.122   1.729
 2942SOL    HW2 8845   4.727   1.036   1.663
 2943SOL     OW 8846   4.429   1.050   0.368
 2943SOL    HW1 8847   4.415   1.057   0.467
 2943SOL    HW2 8848   4.513   0.999   0.350
 2944SOL     OW 8849   4.134   0.813   1.251
 2944SOL    HW1 8850   4.220   0.825   1.301
 2944SOL    HW2 8851   4.092   0.726   1.278
 2945SOL     OW 8852   3.788   1.564   1.331
 2945SOL    HW1 8853   3.742   1.646   1.297
 2945SOL    HW2 8854   3.886   1.583   1.340
 2946SOL     OW 8855   4.091   1.100   0.501
 2946SOL    HW1 8856   4.084   1.183   0.445
 2946SOL    HW2 8857   4.095   1.020   0.441
 2947SOL     OW 8858   4.290   0.537   0.865
 2947SOL    HW1 8859   4.302   0.603   0.791
 2947SOL    HW2 8860   4.336   0.571   0.948
 2948SOL     OW 8861   4.078   1.510   1.329
 2948SOL    HW1 8862   4.057   1.466   1.242
 2948SOL    HW2 8863   4.175   1.536   1.332
 2949SOL     OW 8864   4.126   0.751   1.598
 2949SOL    HW1 8865   4.194   0.806   1.551
 2949SOL    HW2 8866   4.166   0.663   1.625
 2950SOL     OW 8867   4.737   0.105   1.770
 2950SOL    HW1 8868   4.743   0.190   1.718
 2950SOL    HW2 8869   4.769   0.029   1.713
 2951SOL     OW 8870   4.228   0.050   1.740
 2951SOL    HW1 8871   4.186  -0.007   1.670
 2951SOL    HW2 8872   4.162   0.119   1.772
 2952SOL     OW 8873   4.297   0.870   1.029
 2952SOL    HW1 8874   4.341   0.959   1.020
 2952SOL    HW2 8875   4.234   0.870   1.106
 2953SOL     OW 8876   4.933   0.525   0.275
 2953SOL    HW1 8877   4.946   0.441   0.329
 2953SOL    HW2 8878   4.904   0.599   0.335
 2954SOL     OW 8879   4.031   0.213   1.231
 2954SOL    HW1 8880   4.008   0.250   1.321
 2954SOL    HW2 8881   4.001   0.118   1.225
 2955SOL     OW 8882   3.761   1.310   1.282
 2955SOL    HW1 8883   3.814   1.261   1.350
 2955SOL    HW2 8884   3.783   1.408   1.287
 2956SOL     OW 8885   4.456   0.634   1.064
 2956SOL    HW1 8886   4.515   0.608   0.988
 2956SOL    HW2 8887   4.428   0.730   1.053
 2957SOL     OW 8888   4.031   0.063   0.618
 2957SOL    HW1 8889   4.020   0.157   0.651
 2957SOL    HW2 8890   4.026   0.000   0.695
 2958SOL     OW 8891   4.747   0.766   0.966
 2958SOL    HW1 8892   4.762   0.787   1.062
 2958SOL    HW2 8893   4.717   0.671   0.957
 2959SOL     OW 8894   4.704   1.573   1.700
 2959SOL    HW1 8895   4.684   1.617   1.612
 2959SOL    HW2 8896   4.743   1.482   1.684
 2960SOL     OW 8897   4.074   0.898   1.804
 2960SOL    HW1 8898   4.150   0.942   1.852
 2960SOL    HW2 8899   4.109   0.851   1.722
 2961SOL     OW 8900   4.792   1.333   0.849
 2961SOL    HW1 8901   4.799   1.249   0.794
 2961SOL    HW2 8902   4.854   1.402   0.813
 2962SOL     OW 8903   4.043   0.810   0.949
 2962SOL    HW1 8904   4.136   0.846   0.954
 2962SOL    HW2 8905   4.037   0.725   1.001
 2963SOL     OW 8906   4.063   0.509   1.006
 2963SOL    HW1 8907   4.011   0.426   0.989
 2963SOL    HW2 8908   4.140   0.514   0.942
 2964SOL     OW 8909   4.862   0.380   1.678
 2964SOL    HW1 8910   4.817   0.443   1.742
 2964SOL    HW2 8911   4.955   0.411   1.661
 2965SOL     OW 8912   3.732   1.326   0.200
 2965SOL    HW1 8913   3.639   1.347   0.169
 2965SOL    HW2 8914   3.742   1.227   0.213
 2966SOL     OW 8915   3.812   1.801   0.927
 2966SOL    HW1 8916   3.770   1.715   0.900
 2966SOL    HW2 8917   3.906   1.804   0.893
 2967SOL     OW 8918   4.228   1.568   0.910
 2967SOL    HW1 8919   4.294   1.642   0.919
 2967SOL    HW2 8920   4.272   1.489   0.868
 2968SOL     OW 8921   4.726   0.796   1.238
 2968SOL    HW1 8922   4.767   0.764   1.324
 2968SOL    HW2 8923   4.630   0.769   1.235
 2969SOL     OW 8924   3.764   0.544   1.114
 2969SOL    HW1 8925   3.849   0.511   1.073
 2969SOL    HW2 8926   3.777   0.559   1.212
 2970SOL     OW 8927   3.913   0.520   1.722
 2970SOL    HW1 8928   3.972   0.480   1.652
 2970SOL    HW2 8929   3.855   0.591   1.681
 2971SOL     OW 8930   4.539   0.572   0.325
 2971SOL    HW1 8931   4.546   0.483   0.279
 2971SOL    HW2 8932   4.445   0.606   0.317
 2972SOL     OW 8933   3.976   1.564   1.744
 2972SOL    HW1 8934   3.946   1.621   1.820
 2972SOL    HW2 8935   3.969   1.467   1.770
 2973SOL     OW 8936   4.395   0.464   1.269
 2973SOL    HW1 8937   4.361   0.375   1.239
 2973SOL    HW2 8938   4.421   0.518   1.189
 2974SOL     OW 8939   4.654   1.678   1.465
 2974SOL    HW1 8940   4.630   1.660   1.370
 2974SOL    HW2 8941   4.684   1.772   1.475
 2975SOL     OW 8942   4.197   0.500   0.191
 2975SOL    HW1 8943   4.258   0.580   0.195
 2975SOL    HW2 8944   4.102   0.531   0.198
 2976SOL     OW 8945   3.883   1.137   1.466
 2976SOL    HW1 8946   3.905   1.076   1.542
 2976SOL    HW2 8947   3.893   1.088   1.380
 2977SOL     OW 8948   5.026   0.855   0.309
 2977SOL    HW1 8949   4.940   0.824   0.351
 2977SOL    HW2 8950   5.022   0.841   0.210
 2978SOL     OW 8951   3.807   1.258   1.022
 2978SOL    HW1 8952   3.802   1.257   1.122
 2978SOL    HW2 8953   3.724   1.217   0.984
 2979SOL     OW 8954   4.412   1.662   1.716
 2979SOL    HW1 8955   4.356   1.743   1.725
 2979SOL    HW2 8956   4.464   1.666   1.630
 2980SOL     OW 8957   4.627   0.086   0.133
 2980SOL    HW1 8958   4.678   0.087   0.047
 2980SOL    HW2 8959   4.683   0.044   0.204
 2981SOL     OW 8960   3.854   1.794   1.851
 2981SOL    HW1 8961   3.813   1.720   1.904
 2981SOL    HW2 8962   3.918   1.845   1.909
 2982SOL     OW 8963   4.554   1.273   1.422
 2982SOL    HW1 8964   4.549   1.306   1.517
 2982SOL    HW2 8965   4.468   1.292   1.376
 2983SOL     OW 8966   4.396   1.616   0.154
 2983SOL    HW1 8967   4.405   1.626   0.055
 2983SOL    HW2 8968   4.356   1.527   0.175
 2984SOL     OW 8969   3.987   0.326   0.720
 2984SOL    HW1 8970   3.908   0.377   0.686
 2984SOL    HW2 8971   3.978   0.311   0.818
 2985SOL     OW 8972   4.546   1.002   1.372
 2985SOL    HW1 8973   4.586   1.001   1.280
 2985SOL    HW2 8974   4.556   1.094   1.412
 2986SOL     OW 8975   4.640   0.910   0.291
 2986SOL    HW1 8976   4.703   0.948   0.223
 2986SOL    HW2 8977   4.680   0.827   0.330
 2987SOL     OW 8978   4.096   1.288   1.490
 2987SOL    HW1 8979   4.083   1.381   1.456
 2987SOL    HW2 8980   4.012   1.236   1.477
 2988SOL     OW 8981   4.763   1.098   0.696
 2988SOL    HW1 8982   4.693   1.051   0.750
 2988SOL    HW2 8983   4.822   1.030   0.653
 2989SOL     OW 8984   4.738   0.236   0.971
 2989SOL    HW1 8985   4.730   0.200   0.878
 2989SOL    HW2 8986   4.736   0.160   1.036
 2990SOL     OW 8987   4.314   1.487   0.491
 2990SOL    HW1 8988   4.356   1.429   0.421
 2990SOL    HW2 8989   4.270   1.566   0.447
 2991SOL     OW 8990   3.979   1.348   0.290
 2991SOL    HW1 8991   3.883   1.349   0.263
 2991SOL    HW2 8992   3.991   1.401   0.374
 2992SOL     OW 8993   3.829   1.013   1.726
 2992SOL    HW1 8994   3.752   0.980   1.780
 2992SOL    HW2 8995   3.914   0.983   1.768
 2993SOL     OW 8996   4.396   0.203   1.489
 2993SOL    HW1 8997   4.486   0.187   1.449
 2993SOL    HW2 8998   4.404   0.208   1.588
 2994SOL     OW 8999   3.796   0.166   0.318
 2994SOL    HW1 9000   3.779   0.249   0.264
 2994SOL    HW2 9001   3.886   0.129   0.296
 2995SOL     OW 9002   4.337   0.842   1.431
 2995SOL    HW1 9003   4.393   0.923   1.414
 2995SOL    HW2 9004   4.396   0.762   1.434
 2996SOL     OW 9005   4.440   0.565   1.708
 2996SOL    HW1 9006   4.459   0.630   1.782
 2996SOL    HW2 9007   4.500   0.485   1.717
 2997SOL     OW 9008   4.114   1.741   1.560
 2997SOL    HW1 9009   4.023   1.782   1.558
 2997SOL    HW2 9010   4.107   1.647   1.592
 2998SOL     OW 9011   4.318   0.745   0.652
 2998SOL    HW1 9012   4.368   0.830   0.633
 2998SOL    HW2 9013   4.230   0.747   0.604
 2999SOL     OW 9014   4.583   1.374   0.016
 2999SOL    HW1 9015   4.537   1.389   0.104
 2999SOL    HW2 9016   4.627   1.459  -0.014
 3000SOL     OW 9017   4.385   1.790   0.953
 3000SOL    HW1 9018   4.339   1.878   0.940
 3000SOL    HW2 9019   4.484   1.802   0.946
 3001SOL     OW 9020   4.583   0.956   0.861
 3001SOL    HW1 9021   4.637   0.887   0.909
 3001SOL    HW2 9022   4.551   1.025   0.927
 3002SOL     OW 9023   4.807   0.984   0.087
 3002SOL    HW1 9024   4.784   1.037   0.005
 3002SOL    HW2 9025   4.888   0.928   0.068
 3003SOL     OW 9026   3.945   1.314   1.844
 3003SOL    HW1 9027   3.880   1.241   1.823
 3003SOL    HW2 9028   3.949   1.328   1.942
 3004SOL     OW 9029   3.803   1.240   0.653
 3004SOL    HW1 9030   3.802   1.193   0.741
 3004SOL    HW2 9031   3.885   1.212   0.602
 3005SOL     OW 9032   4.396   1.391   1.624
 3005SOL    HW1 9033   4.318   1.341   1.662
 3005SOL    HW2 9034   4.393   1.486   1.655
 3006SOL     OW 9035   4.152   0.424   0.520
 3006SOL    HW1 9036   4.182   0.352   0.458
 3006SOL    HW2 9037   4.113   0.384   0.603
 3007SOL     OW 9038   4.041   0.547   1.280
 3007SOL    HW1 9039   4.079   0.488   1.352
 3007SOL    HW2 9040   4.081   0.521   1.192
 3008SOL     OW 9041   4.536   1.586   0.687
 3008SOL    HW1 9042   4.568   1.596   0.593
 3008SOL    HW2 9043   4.457   1.524   0.689
 3009SOL     OW 9044   4.725   0.034   1.154
 3009SOL    HW1 9045   4.662  -0.038   1.123
 3009SOL    HW2 9046   4.818  -0.002   1.154
 3010SOL     OW 9047   4.494   1.330   0.301
 3010SOL    HW1 9048   4.448   1.243   0.318
 3010SOL    HW2 9049   4.585   1.327   0.342
 3011SOL     OW 9050   4.342   1.567   1.284
 3011SOL    HW1 9051   4.337   1.649   1.341
 3011SOL    HW2 9052   4.431   1.564   1.239
 3012SOL     OW 9053   3.763   1.077   0.300
 3012SOL    HW1 9054   3.862   1.066   0.291
 3012SOL    HW2 9055   3.723   0.991   0.332
 3013SOL     OW 9056   4.599   1.646   0.337
 3013SOL    HW1 9057   4.522   1.611   0.283
 3013SOL    HW2 9058   4.567   1.717   0.399
 3014SOL     OW 9059   3.954   0.628   1.975
 3014SOL    HW1 9060   3.861   0.626   2.012
 3014SOL    HW2 9061   3.955   0.589   1.883
 3015SOL     OW 9062   3.949   0.275   2.858
 3015SOL    HW1 9063   3.984   0.258   2.950
 3015SOL    HW2 9064   3.861   0.230   2.846
 3016SOL     OW 9065   3.743   0.368   2.509
 3016SOL    HW1 9066   3.661   0.411   2.548
 3016SOL    HW2 9067   3.715   0.295   2.446
 3017SOL     OW 9068   4.293   1.275   3.027
 3017SOL    HW1 9069   4.200   1.268   2.990
 3017SOL    HW2 9070   4.304   1.364   3.071
 3018SOL     OW 9071   4.492   1.144   2.885
 3018SOL    HW1 9072   4.414   1.161   2.945
 3018SOL    HW2 9073   4.526   1.231   2.849
 3019SOL     OW 9074   4.574   0.798   3.685
 3019SOL    HW1 9075   4.570   0.874   3.750
 3019SOL    HW2 9076   4.596   0.834   3.594
 3020SOL     OW 9077   4.409   1.012   2.527
 3020SOL    HW1 9078   4.478   0.996   2.597
 3020SOL    HW2 9079   4.336   1.069   2.565
 3021SOL     OW 9080   4.410   1.161   3.665
 3021SOL    HW1 9081   4.470   1.240   3.679
 3021SOL    HW2 9082   4.324   1.192   3.624
 3022SOL     OW 9083   4.059   1.435   2.923
 3022SOL    HW1 9084   3.981   1.404   2.870
 3022SOL    HW2 9085   4.117   1.493   2.866
 3023SOL     OW 9086   4.162   0.392   3.361
 3023SOL    HW1 9087   4.244   0.336   3.370
 3023SOL    HW2 9088   4.081   0.334   3.365
 3024SOL     OW 9089   3.955   1.713   2.345
 3024SOL    HW1 9090   3.989   1.790   2.399
 3024SOL    HW2 9091   3.999   1.713   2.255
 3025SOL     OW 9092   4.851   1.341   3.552
 3025SOL    HW1 9093   4.898   1.341   3.640
 3025SOL    HW2 9094   4.803   1.254   3.541
 3026SOL     OW 9095   3.954   1.434   2.400
 3026SOL    HW1 9096   3.928   1.530   2.400
 3026SOL    HW2 9097   3.883   1.380   2.445
 3027SOL     OW 9098   3.964   1.091   2.748
 3027SOL    HW1 9099   3.978   1.007   2.800
 3027SOL    HW2 9100   3.909   1.155   2.803
 3028SOL     OW 9101   4.344   1.786   3.301
 3028SOL    HW1 9102   4.252   1.769   3.336
 3028SOL    HW2 9103   4.372   1.878   3.327
 3029SOL     OW 9104   4.330   0.964   1.985
 3029SOL    HW1 9105   4.337   1.048   1.931
 3029SOL    HW2 9106   4.376   0.977   2.073
 3030SOL     OW 9107   3.846   0.643   2.425
 3030SOL    HW1 9108   3.801   0.555   2.442
 3030SOL    HW2 9109   3.845   0.697   2.509
 3031SOL     OW 9110   3.751   1.596   1.979
 3031SOL    HW1 9111   3.732   1.500   2.000
 3031SOL    HW2 9112   3.718   1.654   2.054
 3032SOL     OW 9113   3.837   0.737   3.459
 3032SOL    HW1 9114   3.925   0.724   3.504
 3032SOL    HW2 9115   3.824   0.834   3.437
 3033SOL     OW 9116   4.337   1.365   2.588
 3033SOL    HW1 9117   4.288   1.278   2.597
 3033SOL    HW2 9118   4.314   1.408   2.501
 3034SOL     OW 9119   4.533   0.004   2.364
 3034SOL    HW1 9120   4.573   0.095   2.355
 3034SOL    HW2 9121   4.433   0.012   2.370
 3035SOL     OW 9122   3.921   0.976   3.126
 3035SOL    HW1 9123   4.010   0.931   3.112
 3035SOL    HW2 9124   3.848   0.911   3.107
 3036SOL     OW 9125   4.041   0.251   3.663
 3036SOL    HW1 9126   4.112   0.322   3.669
 3036SOL    HW2 9127   3.953   0.290   3.691
 3037SOL     OW 9128   4.322   0.729   2.132
 3037SOL    HW1 9129   4.346   0.798   2.064
 3037SOL    HW2 9130   4.244   0.762   2.186
 3038SOL     OW 9131   4.531   0.605   3.327
 3038SOL    HW1 9132   4.484   0.602   3.416
 3038SOL    HW2 9133   4.480   0.550   3.261
 3039SOL     OW 9134   4.697   0.890   3.434
 3039SOL    HW1 9135   4.743   0.806   3.405
 3039SOL    HW2 9136   4.641   0.924   3.359
 3040SOL     OW 9137   4.715   0.410   3.104
 3040SOL    HW1 9138   4.638   0.444   3.158
 3040SOL    HW2 9139   4.681   0.359   3.025
 3041SOL     OW 9140   4.765   0.701   2.291
 3041SOL    HW1 9141   4.791   0.697   2.387
 3041SOL    HW2 9142   4.680   0.650   2.277
 3042SOL     OW 9143   3.800   0.811   2.651
 3042SOL    HW1 9144   3.899   0.799   2.660
 3042SOL    HW2 9145   3.776   0.906   2.672
 3043SOL     OW 9146   3.854   1.821   3.433
 3043SOL    HW1 9147   3.844   1.806   3.532
 3043SOL    HW2 9148   3.768   1.857   3.397
 3044SOL     OW 9149   4.589   0.348   2.057
 3044SOL    HW1 9150   4.648   0.411   2.008
 3044SOL    HW2 9151   4.608   0.254   2.028
 3045SOL     OW 9152   4.274   0.196   2.747
 3045SOL    HW1 9153   4.269   0.191   2.847
 3045SOL    HW2 9154   4.276   0.292   2.718
 3046SOL     OW 9155   4.732   1.456   2.339
 3046SOL    HW1 9156   4.686   1.528   2.287
 3046SOL    HW2 9157   4.728   1.476   2.437
 3047SOL     OW 9158   4.075   1.801   2.715
 3047SOL    HW1 9159   4.125   1.715   2.721
 3047SOL    HW2 9160   4.140   1.878   2.712
 3048SOL     OW 9161   4.045   0.943   2.104
 3048SOL    HW1 9162   4.127   0.982   2.062
 3048SOL    HW2 9163   4.018   0.861   2.055
 3049SOL     OW 9164   4.185   1.266   3.589
 3049SOL    HW1 9165   4.135   1.267   3.503
 3049SOL    HW2 9166   4.122   1.248   3.665
 3050SOL     OW 9167   3.926   0.285   3.360
 3050SOL    HW1 9168   3.846   0.345   3.347
 3050SOL    HW2 9169   3.916   0.236   3.446
 3051SOL     OW 9170   4.188   1.743   2.185
 3051SOL    HW1 9171   4.221   1.782   2.271
 3051SOL    HW2 9172   4.264   1.736   2.120
 3052SOL     OW 9173   3.973   1.785   3.103
 3052SOL    HW1 9174   4.030   1.720   3.153
 3052SOL    HW2 9175   3.957   1.752   3.010
 3053SOL     OW 9176   4.664   1.698   2.766
 3053SOL    HW1 9177   4.744   1.641   2.787
 3053SOL    HW2 9178   4.615   1.658   2.689
 3054SOL     OW 9179   4.106   0.700   2.342
 3054SOL    HW1 9180   4.151   0.610   2.339
 3054SOL    HW2 9181   4.012   0.689   2.375
 3055SOL     OW 9182   4.338   0.122   1.979
 3055SOL    HW1 9183   4.436   0.100   1.986
 3055SOL    HW2 9184   4.307   0.105   1.886
 3056SOL     OW 9185   4.505   0.264   3.611
 3056SOL    HW1 9186   4.572   0.203   3.654
 3056SOL    HW2 9187   4.432   0.283   3.676
 3057SOL     OW 9188   4.612   1.514   3.057
 3057SOL    HW1 9189   4.589   1.489   2.963
 3057SOL    HW2 9190   4.673   1.445   3.096
 3058SOL     OW 9191   4.527   1.402   2.786
 3058SOL    HW1 9192   4.617   1.416   2.744
 3058SOL    HW2 9193   4.456   1.404   2.715
 3059SOL     OW 9194   4.646   0.503   2.761
 3059SOL    HW1 9195   4.621   0.494   2.665
 3059SOL    HW2 9196   4.694   0.421   2.792
 3060SOL     OW 9197   4.263   0.064   2.374
 3060SOL    HW1 9198   4.182   0.065   2.432
 3060SOL    HW2 9199   4.266   0.147   2.319
 3061SOL     OW 9200   4.021   0.035   2.033
 3061SOL    HW1 9201   4.070   0.119   2.012
 3061SOL    HW2 9202   4.083  -0.030   2.078
 3062SOL     OW 9203   4.659   0.236   2.342
 3062SOL    HW1 9204   4.611   0.277   2.264
 3062SOL    HW2 9205   4.758   0.234   2.323
 3063SOL     OW 9206   4.951   1.570   2.655
 3063SOL    HW1 9207   4.972   1.644   2.590
 3063SOL    HW2 9208   5.019   1.570   2.728
 3064SOL     OW 9209   4.183   1.152   2.603
 3064SOL    HW1 9210   4.112   1.125   2.668
 3064SOL    HW2 9211   4.157   1.124   2.510
 3065SOL     OW 9212   4.756   0.549   1.878
 3065SOL    HW1 9213   4.715   0.631   1.839
 3065SOL    HW2 9214   4.820   0.575   1.951
 3066SOL     OW 9215   3.802   0.556   3.248
 3066SOL    HW1 9216   3.894   0.555   3.207
 3066SOL    HW2 9217   3.796   0.630   3.315
 3067SOL     OW 9218   4.285   0.222   3.009
 3067SOL    HW1 9219   4.323   0.138   3.046
 3067SOL    HW2 9220   4.197   0.241   3.053
 3068SOL     OW 9221   4.590   0.454   2.504
 3068SOL    HW1 9222   4.558   0.526   2.442
 3068SOL    HW2 9223   4.614   0.373   2.451
 3069SOL     OW 9224   4.741   0.039   2.615
 3069SOL    HW1 9225   4.669   0.044   2.546
 3069SOL    HW2 9226   4.717  -0.030   2.684
 3070SOL     OW 9227   4.212   1.385   2.036
 3070SOL    HW1 9228   4.125   1.370   2.083
 3070SOL    HW2 9229   4.195   1.411   1.941
 3071SOL     OW 9230   4.251   0.256   2.190
 3071SOL    HW1 9231   4.278   0.197   2.115
 3071SOL    HW2 9232   4.251   0.351   2.159
 3072SOL     OW 9233   4.639   0.089   3.264
 3072SOL    HW1 9234   4.664   0.069   3.169
 3072SOL    HW2 9235   4.711   0.145   3.306
 3073SOL     OW 9236   4.704   1.116   3.581
 3073SOL    HW1 9237   4.605   1.122   3.591
 3073SOL    HW2 9238   4.727   1.036   3.525
 3074SOL     OW 9239   4.429   1.050   2.230
 3074SOL    HW1 9240   4.415   1.057   2.329
 3074SOL    HW2 9241   4.513   0.999   2.212
 3075SOL     OW 9242   4.134   0.813   3.113
 3075SOL    HW1 9243   4.220   0.825   3.163
 3075SOL    HW2 9244   4.092   0.726   3.140
 3076SOL     OW 9245   3.788   1.564   3.193
 3076SOL    HW1 9246   3.742   1.646   3.159
 3076SOL    HW2 9247   3.886   1.583   3.202
 3077SOL     OW 9248   4.091   1.100   2.363
 3077SOL    HW1 9249   4.084   1.183   2.307
 3077SOL    HW2 9250   4.095   1.020   2.303
 3078SOL     OW 9251   4.290   0.537   2.727
 3078SOL    HW1 9252   4.302   0.603   2.653
 3078SOL    HW2 9253   4.336   0.571   2.810
 3079SOL     OW 9254   4.078   1.510   3.191
 3079SOL    HW1 9255   4.057   1.466   3.104
 3079SOL    HW2 9256   4.175   1.536   3.194
 3080SOL     OW 9257   4.126   0.751   3.460
 3080SOL    HW1 9258   4.194   0.806   3.413
 3080SOL    HW2 9259   4.166   0.663   3.487
 3081SOL     OW 9260   4.737   0.105   3.632
 3081SOL    HW1 9261   4.743   0.190   3.580
 3081SOL    HW2 9262   4.769   0.029   3.575
 3082SOL     OW 9263   4.228   0.050   3.602
 3082SOL    HW1 9264   4.186  -0.007   3.532
 3082SOL    HW2 9265   4.162   0.119   3.634
 3083SOL     OW 9266   4.297   0.870   2.891
 3083SOL    HW1 9267   4.341   0.959   2.882
 3083SOL    HW2 9268   4.234   0.870   2.968
 3084SOL     OW 9269   4.933   0.525   2.137
 3084SOL    HW1 9270   4.946   0.441   2.191
 3084SOL    HW2 9271   4.904   0.599   2.197
 3085SOL     OW 9272   4.031   0.213   3.093
 3085SOL    HW1 9273   4.008   0.250   3.183
 3085SOL    HW2 9274   4.001   0.118   3.087
 3086SOL     OW 9275   3.761   1.310   3.144
 3086SOL    HW1 9276   3.814   1.261   3.212
 3086SOL    HW2 9277   3.783   1.408   3.149
 3087SOL     OW 9278   4.456   0.634   2.926
 3087SOL    HW1 9279   4.515   0.608   2.850
 3087SOL    HW2 9280   4.428   0.730   2.915
 3088SOL     OW 9281   4.031   0.063   2.480
 3088SOL    HW1 9282   4.020   0.157   2.513
 3088SOL    HW2 9283   4.026   0.000   2.557
 3089SOL     OW 9284   4.747   0.766   2.828
 3089SOL    HW1 9285   4.762   0.787   2.924
 3089SOL    HW2 9286   4.717   0.671   2.819
 3090SOL     OW 9287   4.704   1.573   3.562
 3090SOL    HW1 9288   4.684   1.617   3.474
 3090SOL    HW2 9289   4.743   1.482   3.546
 3091SOL     OW 9290   4.074   0.898   3.666
 3091SOL    HW1 9291   4.150   0.942   3.714
 3091SOL    HW2 9292   4.109   0.851   3.584
 3092SOL     OW 9293   4.792   1.333   2.711
 3092SOL    HW1 9294   4.799   1.249   2.656
 3092SOL    HW2 9295   4.854   1.402   2.675
 3093SOL     OW 9296   4.043   0.810   2.811
 3093SOL    HW1 9297   4.136   0.846   2.816
 3093SOL    HW2 9298   4.037   0.725   2.863
 3094SOL     OW 9299   4.063   0.509   2.868
 3094SOL    HW1 9300   4.011   0.426   2.851
 3094SOL    HW2 9301   4.140   0.514   2.804
 3095SOL     OW 9302   4.862   0.380   3.540
 3095SOL    HW1 9303   4.817   0.443   3.604
 3095SOL    HW2 9304   4.955   0.411   3.523
 3096SOL     OW 9305   3.732   1.326   2.062
 3096SOL    HW1 9306   3.639   1.347   2.031
 3096SOL    HW2 9307   3.742   1.227   2.075
 3097SOL     OW 9308   3.812   1.801   2.789
 3097SOL    HW1 9309   3.770   1.715   2.762
 3097SOL    HW2 9310   3.906   1.804   2.755
 3098SOL     OW 9311   4.228   1.568   2.772
 3098SOL    HW1 9312   4.294   1.642   2.781
 3098SOL    HW2 9313   4.272   1.489   2.730
 3099SOL     OW 9314   4.726   0.796   3.100
 3099SOL    HW1 9315   4.767   0.764   3.186
 3099SOL    HW2 9316   4.630   0.769   3.097
 3100SOL     OW 9317   3.764   0.544   2.976
 3100SOL    HW1 9318   3.849   0.511   2.935
 3100SOL    HW2 9319   3.777   0.559   3.074
 3101SOL     OW 9320   3.913   0.520   3.584
 3101SOL    HW1 9321   3.972   0.480   3.514
 3101SOL    HW2 9322   3.855   0.591   3.543
 3102SOL     OW 9323   4.539   0.572   2.187
 3102SOL    HW1 9324   4.546   0.483   2.141
 3102SOL    HW2 9325   4.445   0.606   2.179
 3103SOL     OW 9326   3.976   1.564   3.606
 3103SOL    HW1 9327   3.946   1.621   3.682
 3103SOL    HW2 9328   3.969   1.467   3.632
 3104SOL     OW 9329   4.395   0.464   3.131
 3104SOL    HW1 9330   4.361   0.375   3.101
 3104SOL    HW2 9331   4.421   0.518   3.051
 3105SOL     OW 9332   4.654   1.678   3.327
 3105SOL    HW1 9333   4.630   1.660   3.232
 3105SOL    HW2 9334   4.684   1.772   3.337
 3106SOL     OW 9335   4.197   0.500   2.053
 3106SOL    HW1 9336   4.258   0.580   2.057
 3106SOL    HW2 9337   4.102   0.531   2.060
 3107SOL     OW 9338   3.883   1.137   3.328
 3107SOL    HW1 9339   3.905   1.076   3.404
 3107SOL    HW2 9340   3.893   1.088   3.242
 3108SOL     OW 9341   5.026   0.855   2.171
 3108SOL    HW1 9342   4.940   0.824   2.213
 3108SOL    HW2 9343   5.022   0.841   2.072
 3109SOL     OW 9344   3.807   1.258   2.884
 3109SOL    HW1 9345   3.802   1.257   2.984
 3109SOL    HW2 9346   3.724   1.217   2.846
 3110SOL     OW 9347   4.412   1.662   3.578
 3110SOL    HW1 9348   4.356   1.743   3.587
 3110SOL    HW2 9349   4.464   1.666   3.492
 3111SOL     OW 9350   3.854   1.794   3.713
 3111SOL    HW1 9351   3.813   1.720   3.766
 3111SOL    HW2 9352   3.918   1.845   3.771
 3112SOL     OW 9353   4.554   1.273   3.284
 3112SOL    HW1 9354   4.549   1.306   3.379
 3112SOL    HW2 9355   4.468   1.292   3.238
 3113SOL     OW 9356   4.396   1.616   2.016
 3113SOL    HW1 9357   4.405   1.626   1.917
 3113SOL    HW2 9358   4.356   1.527   2.037
 3114SOL     OW 9359   3.987   0.326   2.582
 3114SOL    HW1 9360   3.908   0.377   2.548
 3114SOL    HW2 9361   3.978   0.311   2.680
 3115SOL     OW 9362   4.546   1.002   3.234
 3115SOL    HW1 9363   4.586   1.001   3.142
 3115SOL    HW2 9364   4.556   1.094   3.274
 3116SOL     OW 9365   4.640   0.910   2.153
 3116SOL    HW1 9366   4.703   0.948   2.085
 3116SOL    HW2 9367   4.680   0.827   2.192
 3117SOL     OW 9368   4.096   1.288   3.352
 3117SOL    HW1 9369   4.083   1.381   3.318
 3117SOL    HW2 9370   4.012   1.236   3.339
 3118SOL     OW 9371   4.763   1.098   2.558
 3118SOL    HW1 9372   4.693   1.051   2.612
 3118SOL    HW2 9373   4.822   1.030   2.515
 3119SOL     OW 9374   4.738   0.236   2.833
 3119SOL    HW1 9375   4.730   0.200   2.740
 3119SOL    HW2 9376   4.736   0.160   2.898
 3120SOL     OW 9377   4.314   1.487   2.353
 3120SOL    HW1 9378   4.356   1.429   2.283
 3120SOL    HW2 9379   4.270   1.566   2.309
 3121SOL     OW 9380   3.979   1.348   2.152
 3121SOL    HW1 9381   3.883   1.349   2.125
 3121SOL    HW2 9382   3.991   1.401   2.236
 3122SOL     OW 9383   3.829   1.013   3.588
 3122SOL    HW1 9384   3.752   0.980   3.642
 3122SOL    HW2 9385   3.914   0.983   3.630
 3123SOL     OW 9386   4.396   0.203   3.351
 3123SOL    HW1 9387   4.486   0.187   3.311
 3123SOL    HW2 9388   4.404   0.208   3.450
 3124SOL     OW 9389   3.799   0.345   1.895
 3124SOL    HW1 9390   3.707   0.317   1.866
 3124SOL    HW2 9391   3.830   0.422   1.839
 3125SOL     OW 9392   3.796   0.166   2.180
 3125SOL    HW1 9393   3.779   0.249   2.126
 3125SOL    HW2 9394   3.886   0.129   2.158
 3126SOL     OW 9395   4.337   0.842   3.293
 3126SOL    HW1 9396   4.393   0.923   3.276
 3126SOL    HW2 9397   4.396   0.762   3.296
 3127SOL     OW 9398   4.440   0.565   3.570
 3127SOL    HW1 9399   4.459   0.630   3.644
 3127SOL    HW2 9400   4.500   0.485   3.579
 3128SOL     OW 9401   4.114   1.741   3.422
 3128SOL    HW1 9402   4.023   1.782   3.420
 3128SOL    HW2 9403   4.107   1.647   3.454
 3129SOL     OW 9404   4.318   0.745   2.514
 3129SOL    HW1 9405   4.368   0.830   2.495
 3129SOL    HW2 9406   4.230   0.747   2.466
 3130SOL     OW 9407   4.583   1.374   1.878
 3130SOL    HW1 9408   4.537   1.389   1.966
 3130SOL    HW2 9409   4.627   1.459   1.848
 3131SOL     OW 9410   4.385   1.790   2.815
 3131SOL    HW1 9411   4.339   1.878   2.802
 3131SOL    HW2 9412   4.484   1.802   2.808
 3132SOL     OW 9413   4.583   0.956   2.723
 3132SOL    HW1 9414   4.637   0.887   2.771
 3132SOL    HW2 9415   4.551   1.025   2.789
 3133SOL     OW 9416   4.807   0.984   1.949
 3133SOL    HW1 9417   4.784   1.037   1.867
 3133SOL    HW2 9418   4.888   0.928   1.930
 3134SOL     OW 9419   3.945   1.314   3.706
 3134SOL    HW1 9420   3.880   1.241   3.685
 3134SOL    HW2 9421   3.949   1.328   3.804
 3135SOL     OW 9422   3.803   1.240   2.515
 3135SOL    HW1 9423   3.802   1.193   2.603
 3135SOL    HW2 9424   3.885   1.212   2.464
 3136SOL     OW 9425   4.396   1.391   3.486
 3136SOL    HW1 9426   4.318   1.341   3.524
 3136SOL    HW2 9427   4.393   1.486   3.517
 3137SOL     OW 9428   4.152   0.424   2.382
 3137SOL    HW1 9429   4.182   0.352   2.320
 3137SOL    HW2 9430   4.113   0.384   2.465
 3138SOL     OW 9431   4.041   0.547   3.142
 3138SOL    HW1 9432   4.079   0.488   3.214
 3138SOL    HW2 9433   4.081   0.521   3.054
 3139SOL     OW 9434   4.536   1.586   2.549
 3139SOL    HW1 9435   4.568   1.596   2.455
 3139SOL    HW2 9436   4.457   1.524   2.551
 3140SOL     OW 9437   4.725   0.034   3.016
 3140SOL    HW1 9438   4.662  -0.038   2.985
 3140SOL    HW2 9439   4.818  -0.002   3.016
 3141SOL     OW 9440   4.494   1.330   2.163
 3141SOL    HW1 9441   4.448   1.243   2.180
 3141SOL    HW2 9442   4.585   1.327   2.204
 3142SOL     OW 9443   4.342   1.567   3.146
 3142SOL    HW1 9444   4.337   1.649   3.203
 3142SOL    HW2 9445   4.431   1.564   3.101
 3143SOL     OW 9446   3.763   1.077   2.162
 3143SOL    HW1 9447   3.862   1.066   2.153
 3143SOL    HW2 9448   3.723   0.991   2.194
 3144SOL     OW 9449   4.599   1.646   2.199
 3144SOL    HW1 9450   4.522   1.611   2.145
 3144SOL    HW2 9451   4.567   1.717   2.261
 3145SOL     OW 9452   3.954   0.628   3.837
 3145SOL    HW1 9453   3.861   0.626   3.874
 3145SOL    HW2 9454   3.955   0.589   3.745
 3146SOL     OW 9455   3.949   0.275   4.720
 3146SOL    HW1 9456   3.984   0.258   4.812
 3146SOL    HW2 9457   3.861   0.230   4.708
 3147SOL     OW 9458   3.743   0.368   4.371
 3147SOL    HW1 9459   3.661   0.411   4.410
 3147SOL    HW2 9460   3.715   0.295   4.308
 3148SOL     OW 9461   4.492   1.144   4.747
 3148SOL    HW1 9462   4.414   1.161   4.807
 3148SOL    HW2 9463   4.526   1.231   4.711
 3149SOL     OW 9464   4.409   1.012   4.389
 3149SOL    HW1 9465   4.478   0.996   4.459
 3149SOL    HW2 9466   4.336   1.069   4.427
 3150SOL     OW 9467   4.059   1.435   4.785
 3150SOL    HW1 9468   3.981   1.404   4.732
 3150SOL    HW2 9469   4.117   1.493   4.728
 3151SOL     OW 9470   3.955   1.713   4.207
 3151SOL    HW1 9471   3.989   1.790   4.261
 3151SOL    HW2 9472   3.999   1.713   4.117
 3152SOL     OW 9473   3.954   1.434   4.262
 3152SOL    HW1 9474   3.928   1.530   4.262
 3152SOL    HW2 9475   3.883   1.380   4.307
 3153SOL     OW 9476   3.964   1.091   4.610
 3153SOL    HW1 9477   3.978   1.007   4.662
 3153SOL    HW2 9478   3.909   1.155   4.665
 3154SOL     OW 9479   4.330   0.964   3.847
 3154SOL    HW1 9480   4.337   1.048   3.793
 3154SOL    HW2 9481   4.376   0.977   3.935
 3155SOL     OW 9482   3.846   0.643   4.287
 3155SOL    HW1 9483   3.801   0.555   4.304
 3155SOL    HW2 9484   3.845   0.697   4.371
 3156SOL     OW 9485   3.751   1.596   3.841
 3156SOL    HW1 9486   3.732   1.500   3.862
 3156SOL    HW2 9487   3.718   1.654   3.916
 3157SOL     OW 9488   4.337   1.365   4.450
 3157SOL    HW1 9489   4.288   1.278   4.459
 3157SOL    HW2 9490   4.314   1.408   4.363
 3158SOL     OW 9491   4.533   0.004   4.226
 3158SOL    HW1 9492   4.573   0.095   4.217
 3158SOL    HW2 9493   4.433   0.012   4.232
 3159SOL     OW 9494   4.322   0.729   3.994
 3159SOL    HW1 9495   4.346   0.798   3.926
 3159SOL    HW2 9496   4.244   0.762   4.048
 3160SOL     OW 9497   4.765   0.701   4.153
 3160SOL    HW1 9498   4.791   0.697   4.249
 3160SOL    HW2 9499   4.680   0.650   4.139
 3161SOL     OW 9500   3.800   0.811   4.513
 3161SOL    HW1 9501   3.899   0.799   4.522
 3161SOL    HW2 9502   3.776   0.906   4.534
 3162SOL     OW 9503   4.589   0.348   3.919
 3162SOL    HW1 9504   4.648   0.411   3.870
 3162SOL    HW2 9505   4.608   0.254   3.890
 3163SOL     OW 9506   4.274   0.196   4.609
 3163SOL    HW1 9507   4.269   0.191   4.709
 3163SOL    HW2 9508   4.276   0.292   4.580
 3164SOL     OW 9509   4.732   1.456   4.201
 3164SOL    HW1 9510   4.686   1.528   4.149
 3164SOL    HW2 9511   4.728   1.476   4.299
 3165SOL     OW 9512   4.075   1.801   4.577
 3165SOL    HW1 9513   4.125   1.715   4.583
 3165SOL    HW2 9514   4.140   1.878   4.574
 3166SOL     OW 9515   4.045   0.943   3.966
 3166SOL    HW1 9516   4.127   0.982   3.924
 3166SOL    HW2 9517   4.018   0.861   3.917
 3167SOL     OW 9518   4.188   1.743   4.047
 3167SOL    HW1 9519   4.221   1.782   4.133
 3167SOL    HW2 9520   4.264   1.736   3.982
 3168SOL     OW 9521   3.973   1.785   4.965
 3168SOL    HW1 9522   4.030   1.720   5.015
 3168SOL    HW2 9523   3.957   1.752   4.872
 3169SOL     OW 9524   4.664   1.698   4.628
 3169SOL    HW1 9525   4.744   1.641   4.649
 3169SOL    HW2 9526   4.615   1.658   4.551
 3170SOL     OW 9527   4.106   0.700   4.204
 3170SOL    HW1 9528   4.151   0.610   4.201
 3170SOL    HW2 9529   4.012   0.689   4.237
 3171SOL     OW 9530   4.338   0.122   3.841
 3171SOL    HW1 9531   4.436   0.100   3.848
 3171SOL    HW2 9532   4.307   0.105   3.748
 3172SOL     OW 9533   4.527   1.402   4.648
 3172SOL    HW1 9534   4.617   1.416   4.606
 3172SOL    HW2 9535   4.456   1.404   4.577
 3173SOL     OW 9536   4.646   0.503   4.623
 3173SOL    HW1 9537   4.621   0.494   4.527
 3173SOL    HW2 9538   4.694   0.421   4.654
 3174SOL     OW 9539   4.263   0.064   4.236
 3174SOL    HW1 9540   4.182   0.065   4.294
 3174SOL    HW2 9541   4.266   0.147   4.181
 3175SOL     OW 9542   4.021   0.035   3.895
 3175SOL    HW1 9543   4.070   0.119   3.874
 3175SOL    HW2 9544   4.083  -0.030   3.940
 3176SOL     OW 9545   4.659   0.236   4.204
 3176SOL    HW1 9546   4.611   0.277   4.126
 3176SOL    HW2 9547   4.758   0.234   4.185
 3177SOL     OW 9548   4.951   1.570   4.517
 3177SOL    HW1 9549   4.972   1.644   4.452
 3177SOL    HW2 9550   5.019   1.570   4.590
 3178SOL     OW 9551   4.183   1.152   4.465
 3178SOL    HW1 9552   4.112   1.125   4.530
 3178SOL    HW2 9553   4.157   1.124   4.372
 3179SOL     OW 9554   4.756   0.549   3.740
 3179SOL    HW1 9555   4.715   0.631   3.701
 3179SOL    HW2 9556   4.820   0.575   3.813
 3180SOL     OW 9557   4.590   0.454   4.366
 3180SOL    HW1 9558   4.558   0.526   4.304
 3180SOL    HW2 9559   4.614   0.373   4.313
 3181SOL     OW 9560   4.741   0.039   4.477
 3181SOL    HW1 9561   4.669   0.044   4.408
 3181SOL    HW2 9562   4.717  -0.030   4.546
 3182SOL     OW 9563   4.212   1.385   3.898
 3182SOL    HW1 9564   4.125   1.370   3.945
 3182SOL    HW2 9565   4.195   1.411   3.803
 3183SOL     OW 9566   4.251   0.256   4.052
 3183SOL    HW1 9567   4.278   0.197   3.977
 3183SOL    HW2 9568   4.251   0.351   4.021
 3184SOL     OW 9569   4.429   1.050   4.092
 3184SOL    HW1 9570   4.415   1.057   4.191
 3184SOL    HW2 9571   4.513   0.999   4.074
 3185SOL     OW 9572   4.134   0.813   4.975
 3185SOL    HW1 9573   4.220   0.825   5.025
 3185SOL    HW2 9574   4.092   0.726   5.002
 3186SOL     OW 9575   4.091   1.100   4.225
 3186SOL    HW1 9576   4.084   1.183   4.169
 3186SOL    HW2 9577   4.095   1.020   4.165
 3187SOL     OW 9578   4.290   0.537   4.589
 3187SOL    HW1 9579   4.302   0.603   4.515
 3187SOL    HW2 9580   4.336   0.571   4.672
 3188SOL     OW 9581   4.297   0.870   4.753
 3188SOL    HW1 9582   4.341   0.959   4.744
 3188SOL    HW2 9583   4.234   0.870   4.830
 3189SOL     OW 9584   4.933   0.525   3.999
 3189SOL    HW1 9585   4.946   0.441   4.053
 3189SOL    HW2 9586   4.904   0.599   4.059
 3190SOL     OW 9587   4.456   0.634   4.788
 3190SOL    HW1 9588   4.515   0.608   4.712
 3190SOL    HW2 9589   4.428   0.730   4.777
 3191SOL     OW 9590   4.031   0.063   4.342
 3191SOL    HW1 9591   4.020   0.157   4.375
 3191SOL    HW2 9592   4.026   0.000   4.419
 3192SOL     OW 9593   4.747   0.766   4.690
 3192SOL    HW1 9594   4.762   0.787   4.786
 3192SOL    HW2 9595   4.717   0.671   4.681
 3193SOL     OW 9596   4.792   1.333   4.573
 3193SOL    HW1 9597   4.799   1.249   4.518
 3193SOL    HW2 9598   4.854   1.402   4.537
 3194SOL     OW 9599   4.043   0.810   4.673
 3194SOL    HW1 9600   4.136   0.846   4.678
 3194SOL    HW2 9601   4.037   0.725   4.725
 3195SOL     OW 9602   4.063   0.509   4.730
 3195SOL    HW1 9603   4.011   0.426   4.713
 3195SOL    HW2 9604   4.140   0.514   4.666
 3196SOL     OW 9605   3.732   1.326   3.924
 3196SOL    HW1 9606   3.639   1.347   3.893
 3196SOL    HW2 9607   3.742   1.227   3.937
 3197SOL     OW 9608   3.812   1.801   4.651
 3197SOL    HW1 9609   3.770   1.715   4.624
 3197SOL    HW2 9610   3.906   1.804   4.617
 3198SOL     OW 9611   4.228   1.568   4.634
 3198SOL    HW1 9612   4.294   1.642   4.643
 3198SOL    HW2 9613   4.272   1.489   4.592
 3199SOL     OW 9614   4.726   0.796   4.962
 3199SOL    HW1 9615   4.767   0.764   5.048
 3199SOL    HW2 9616   4.630   0.769   4.959
 3200SOL     OW 9617   3.764   0.544   4.838
 3200SOL    HW1 9618   3.849   0.511   4.797
 3200SOL    HW2 9619   3.777   0.559   4.936
 3201SOL     OW 9620   4.539   0.572   4.049
 3201SOL    HW1 9621   4.546   0.483   4.003
 3201SOL    HW2 9622   4.445   0.606   4.041
 3202SOL     OW 9623   4.395   0.464   4.993
 3202SOL    HW1 9624   4.361   0.375   4.963
 3202SOL    HW2 9625   4.421   0.518   4.913
 3203SOL     OW 9626   4.197   0.500   3.915
 3203SOL    HW1 9627   4.258   0.580   3.919
 3203SOL    HW2 9628   4.102   0.531   3.922
 3204SOL     OW 9629   5.026   0.855   4.033
 3204SOL    HW1 9630   4.940   0.824   4.075
 3204SOL    HW2 9631   5.022   0.841   3.934
 3205SOL     OW 9632   3.807   1.258   4.746
 3205SOL    HW1 9633   3.802   1.257   4.846
 3205SOL    HW2 9634   3.724   1.217   4.708
 3206SOL     OW 9635   4.396   1.616   3.878
 3206SOL    HW1 9636   4.405   1.626   3.779
 3206SOL    HW2 9637   4.356   1.527   3.899
 3207SOL     OW 9638   3.987   0.326   4.444
 3207SOL    HW1 9639   3.908   0.377   4.410
 3207SOL    HW2 9640   3.978   0.311   4.542
 3208SOL     OW 9641   4.640   0.910   4.015
 3208SOL    HW1 9642   4.703   0.948   3.947
 3208SOL    HW2 9643   4.680   0.827   4.054
 3209SOL     OW 9644   4.763   1.098   4.420
 3209SOL    HW1 9645   4.693   1.051   4.474
 3209SOL    HW2 9646   4.822   1.030   4.377
 3210SOL     OW 9647   4.738   0.236   4.695
 3210SOL    HW1 9648   4.730   0.200   4.602
 3210SOL    HW2 9649   4.736   0.160   4.760
 3211SOL     OW 9650   4.314   1.487   4.215
 3211SOL    HW1 9651   4.356   1.429   4.145
 3211SOL    HW2 9652   4.270   1.566   4.171
 3212SOL     OW 9653   3.979   1.348   4.014
 3212SOL    HW1 9654   3.883   1.349   3.987
 3212SOL    HW2 9655   3.991   1.401   4.098
 3213SOL     OW 9656   3.799   0.345   3.757
 3213SOL    HW1 9657   3.707   0.317   3.728
 3213SOL    HW2 9658   3.830   0.422   3.701
 3214SOL     OW 9659   3.796   0.166   4.042
 3214SOL    HW1 9660   3.779   0.249   3.988
 3214SOL    HW2 9661   3.886   0.129   4.020
 3215SOL     OW 9662   4.318   0.745   4.376
 3215SOL    HW1 9663   4.368   0.830   4.357
 3215SOL    HW2 9664   4.230   0.747   4.328
 3216SOL     OW 9665   4.583   1.374   3.740
 3216SOL    HW1 9666   4.537   1.389   3.828
 3216SOL    HW2 9667   4.627   1.459   3.710
 3217SOL     OW 9668   4.385   1.790   4.677
 3217SOL    HW1 9669   4.339   1.878   4.664
 3217SOL    HW2 9670   4.484   1.802   4.670
 3218SOL     OW 9671   4.583   0.956   4.585
 3218SOL    HW1 9672   4.637   0.887   4.633
 3218SOL    HW2 9673   4.551   1.025   4.651
 3219SOL     OW 9674   4.807   0.984   3.811
 3219SOL    HW1 9675   4.784   1.037   3.729
 3219SOL    HW2 9676   4.888   0.928   3.792
 3220SOL     OW 9677   3.803   1.240   4.377
 3220SOL    HW1 9678   3.802   1.193   4.465
 3220SOL    HW2 9679   3.885   1.212   4.326
 3221SOL     OW 9680   4.152   0.424   4.244
 3221SOL    HW1 9681   4.182   0.352   4.182
 3221SOL    HW2 9682   4.113   0.384   4.327
 3222SOL     OW 9683   4.536   1.586   4.411
 3222SOL    HW1 9684   4.568   1.596   4.317
 3222SOL    HW2 9685   4.457   1.524   4.413
 3223SOL     OW 9686   4.494   1.330   4.025
 3223SOL    HW1 9687   4.448   1.243   4.042
 3223SOL    HW2 9688   4.585   1.327   4.066
 3224SOL     OW 9689   3.763   1.077   4.024
 3224SOL    HW1 9690   3.862   1.066   4.015
 3224SOL    HW2 9691   3.723   0.991   4.056
 3225SOL     OW 9692   4.599   1.646   4.061
 3225SOL    HW1 9693   4.522   1.611   4.007
 3225SOL    HW2 9694   4.567   1.717   4.123
 3226SOL     OW 9695   3.954   2.490   0.113
 3226SOL    HW1 9696   3.861   2.488   0.150
 3226SOL    HW2 9697   3.955   2.451   0.021
 3227SOL     OW 9698   3.949   2.137   0.996
 3227SOL    HW1 9699   3.984   2.120   1.088
 3227SOL    HW2 9700   3.861   2.092   0.984
 3228SOL     OW 9701   3.743   2.230   0.647
 3228SOL    HW1 9702   3.661   2.273   0.686
 3228SOL    HW2 9703   3.715   2.157   0.584
 3229SOL     OW 9704   4.293   3.137   1.165
 3229SOL    HW1 9705   4.200   3.130   1.128
 3229SOL    HW2 9706   4.304   3.226   1.209
 3230SOL     OW 9707   4.492   3.006   1.023
 3230SOL    HW1 9708   4.414   3.023   1.083
 3230SOL    HW2 9709   4.526   3.093   0.987
 3231SOL     OW 9710   4.574   2.660   1.823
 3231SOL    HW1 9711   4.570   2.736   1.888
 3231SOL    HW2 9712   4.596   2.696   1.732
 3232SOL     OW 9713   4.409   2.874   0.665
 3232SOL    HW1 9714   4.478   2.858   0.735
 3232SOL    HW2 9715   4.336   2.931   0.703
 3233SOL     OW 9716   4.410   3.023   1.803
 3233SOL    HW1 9717   4.470   3.102   1.817
 3233SOL    HW2 9718   4.324   3.054   1.762
 3234SOL     OW 9719   4.059   3.297   1.061
 3234SOL    HW1 9720   3.981   3.266   1.008
 3234SOL    HW2 9721   4.117   3.355   1.004
 3235SOL     OW 9722   4.162   2.254   1.499
 3235SOL    HW1 9723   4.244   2.198   1.508
 3235SOL    HW2 9724   4.081   2.196   1.503
 3236SOL     OW 9725   3.955   3.575   0.483
 3236SOL    HW1 9726   3.989   3.652   0.537
 3236SOL    HW2 9727   3.999   3.575   0.393
 3237SOL     OW 9728   4.851   3.203   1.690
 3237SOL    HW1 9729   4.898   3.203   1.778
 3237SOL    HW2 9730   4.803   3.116   1.679
 3238SOL     OW 9731   3.954   3.296   0.538
 3238SOL    HW1 9732   3.928   3.392   0.538
 3238SOL    HW2 9733   3.883   3.242   0.583
 3239SOL     OW 9734   3.964   2.953   0.886
 3239SOL    HW1 9735   3.978   2.869   0.938
 3239SOL    HW2 9736   3.909   3.017   0.941
 3240SOL     OW 9737   4.344   3.648   1.439
 3240SOL    HW1 9738   4.252   3.631   1.474
 3240SOL    HW2 9739   4.372   3.740   1.465
 3241SOL     OW 9740   4.330   2.826   0.123
 3241SOL    HW1 9741   4.337   2.910   0.069
 3241SOL    HW2 9742   4.376   2.839   0.211
 3242SOL     OW 9743   3.846   2.505   0.563
 3242SOL    HW1 9744   3.801   2.417   0.580
 3242SOL    HW2 9745   3.845   2.559   0.647
 3243SOL     OW 9746   3.751   3.458   0.117
 3243SOL    HW1 9747   3.732   3.362   0.138
 3243SOL    HW2 9748   3.718   3.516   0.192
 3244SOL     OW 9749   3.837   2.599   1.597
 3244SOL    HW1 9750   3.925   2.586   1.642
 3244SOL    HW2 9751   3.824   2.696   1.575
 3245SOL     OW 9752   4.337   3.227   0.726
 3245SOL    HW1 9753   4.288   3.140   0.735
 3245SOL    HW2 9754   4.314   3.270   0.639
 3246SOL     OW 9755   4.533   1.866   0.502
 3246SOL    HW1 9756   4.573   1.957   0.493
 3246SOL    HW2 9757   4.433   1.874   0.508
 3247SOL     OW 9758   3.921   2.838   1.264
 3247SOL    HW1 9759   4.010   2.793   1.250
 3247SOL    HW2 9760   3.848   2.773   1.245
 3248SOL     OW 9761   4.041   2.113   1.801
 3248SOL    HW1 9762   4.112   2.184   1.807
 3248SOL    HW2 9763   3.953   2.152   1.829
 3249SOL     OW 9764   4.322   2.591   0.270
 3249SOL    HW1 9765   4.346   2.660   0.202
 3249SOL    HW2 9766   4.244   2.624   0.324
 3250SOL     OW 9767   4.531   2.467   1.465
 3250SOL    HW1 9768   4.484   2.464   1.554
 3250SOL    HW2 9769   4.480   2.412   1.399
 3251SOL     OW 9770   4.697   2.752   1.572
 3251SOL    HW1 9771   4.743   2.668   1.543
 3251SOL    HW2 9772   4.641   2.786   1.497
 3252SOL     OW 9773   4.715   2.272   1.242
 3252SOL    HW1 9774   4.638   2.306   1.296
 3252SOL    HW2 9775   4.681   2.221   1.163
 3253SOL     OW 9776   4.765   2.563   0.429
 3253SOL    HW1 9777   4.791   2.559   0.525
 3253SOL    HW2 9778   4.680   2.512   0.415
 3254SOL     OW 9779   3.800   2.673   0.789
 3254SOL    HW1 9780   3.899   2.661   0.798
 3254SOL    HW2 9781   3.776   2.768   0.810
 3255SOL     OW 9782   3.854   3.683   1.571
 3255SOL    HW1 9783   3.844   3.668   1.670
 3255SOL    HW2 9784   3.768   3.719   1.535
 3256SOL     OW 9785   4.589   2.210   0.195
 3256SOL    HW1 9786   4.648   2.273   0.146
 3256SOL    HW2 9787   4.608   2.116   0.166
 3257SOL     OW 9788   4.274   2.058   0.885
 3257SOL    HW1 9789   4.269   2.053   0.985
 3257SOL    HW2 9790   4.276   2.154   0.856
 3258SOL     OW 9791   4.732   3.318   0.477
 3258SOL    HW1 9792   4.686   3.390   0.425
 3258SOL    HW2 9793   4.728   3.338   0.575
 3259SOL     OW 9794   4.075   3.663   0.853
 3259SOL    HW1 9795   4.125   3.577   0.859
 3259SOL    HW2 9796   4.140   3.740   0.850
 3260SOL     OW 9797   4.045   2.805   0.242
 3260SOL    HW1 9798   4.127   2.844   0.200
 3260SOL    HW2 9799   4.018   2.723   0.193
 3261SOL     OW 9800   4.185   3.128   1.727
 3261SOL    HW1 9801   4.135   3.129   1.641
 3261SOL    HW2 9802   4.122   3.110   1.803
 3262SOL     OW 9803   3.926   2.147   1.498
 3262SOL    HW1 9804   3.846   2.207   1.485
 3262SOL    HW2 9805   3.916   2.098   1.584
 3263SOL     OW 9806   4.188   3.605   0.323
 3263SOL    HW1 9807   4.221   3.644   0.409
 3263SOL    HW2 9808   4.264   3.598   0.258
 3264SOL     OW 9809   3.973   3.647   1.241
 3264SOL    HW1 9810   4.030   3.582   1.291
 3264SOL    HW2 9811   3.957   3.614   1.148
 3265SOL     OW 9812   4.664   3.560   0.904
 3265SOL    HW1 9813   4.744   3.503   0.925
 3265SOL    HW2 9814   4.615   3.520   0.827
 3266SOL     OW 9815   4.106   2.562   0.480
 3266SOL    HW1 9816   4.151   2.472   0.477
 3266SOL    HW2 9817   4.012   2.551   0.513
 3267SOL     OW 9818   4.338   1.984   0.117
 3267SOL    HW1 9819   4.436   1.962   0.124
 3267SOL    HW2 9820   4.307   1.967   0.024
 3268SOL     OW 9821   4.505   2.126   1.749
 3268SOL    HW1 9822   4.572   2.065   1.792
 3268SOL    HW2 9823   4.432   2.145   1.814
 3269SOL     OW 9824   4.612   3.376   1.195
 3269SOL    HW1 9825   4.589   3.351   1.101
 3269SOL    HW2 9826   4.673   3.307   1.234
 3270SOL     OW 9827   4.527   3.264   0.924
 3270SOL    HW1 9828   4.617   3.278   0.882
 3270SOL    HW2 9829   4.456   3.266   0.853
 3271SOL     OW 9830   4.646   2.365   0.899
 3271SOL    HW1 9831   4.621   2.356   0.803
 3271SOL    HW2 9832   4.694   2.283   0.930
 3272SOL     OW 9833   4.263   1.926   0.512
 3272SOL    HW1 9834   4.182   1.927   0.570
 3272SOL    HW2 9835   4.266   2.009   0.457
 3273SOL     OW 9836   5.158   3.050   0.041
 3273SOL    HW1 9837   5.190   2.974   0.098
 3273SOL    HW2 9838   5.066   3.077   0.071
 3274SOL     OW 9839   4.659   2.098   0.480
 3274SOL    HW1 9840   4.611   2.139   0.402
 3274SOL    HW2 9841   4.758   2.096   0.461
 3275SOL     OW 9842   4.951   3.432   0.793
 3275SOL    HW1 9843   4.972   3.506   0.728
 3275SOL    HW2 9844   5.019   3.432   0.866
 3276SOL     OW 9845   4.183   3.014   0.741
 3276SOL    HW1 9846   4.112   2.987   0.806
 3276SOL    HW2 9847   4.157   2.986   0.648
 3277SOL     OW 9848   4.756   2.411   0.016
 3277SOL    HW1 9849   4.715   2.493  -0.023
 3277SOL    HW2 9850   4.820   2.437   0.089
 3278SOL     OW 9851   3.802   2.418   1.386
 3278SOL    HW1 9852   3.894   2.417   1.345
 3278SOL    HW2 9853   3.796   2.492   1.453
 3279SOL     OW 9854   4.285   2.084   1.147
 3279SOL    HW1 9855   4.323   2.000   1.184
 3279SOL    HW2 9856   4.197   2.103   1.191
 3280SOL     OW 9857   4.590   2.316   0.642
 3280SOL    HW1 9858   4.558   2.388   0.580
 3280SOL    HW2 9859   4.614   2.235   0.589
 3281SOL     OW 9860   4.741   1.901   0.753
 3281SOL    HW1 9861   4.669   1.906   0.684
 3281SOL    HW2 9862   4.717   1.832   0.822
 3282SOL     OW 9863   4.212   3.247   0.174
 3282SOL    HW1 9864   4.125   3.232   0.221
 3282SOL    HW2 9865   4.195   3.273   0.079
 3283SOL     OW 9866   4.251   2.118   0.328
 3283SOL    HW1 9867   4.278   2.059   0.253
 3283SOL    HW2 9868   4.251   2.213   0.297
 3284SOL     OW 9869   4.639   1.951   1.402
 3284SOL    HW1 9870   4.664   1.931   1.307
 3284SOL    HW2 9871   4.711   2.007   1.444
 3285SOL     OW 9872   4.704   2.978   1.719
 3285SOL    HW1 9873   4.605   2.984   1.729
 3285SOL    HW2 9874   4.727   2.898   1.663
 3286SOL     OW 9875   4.429   2.912   0.368
 3286SOL    HW1 9876   4.415   2.919   0.467
 3286SOL    HW2 9877   4.513   2.861   0.350
 3287SOL     OW 9878   4.134   2.675   1.251
 3287SOL    HW1 9879   4.220   2.687   1.301
 3287SOL    HW2 9880   4.092   2.588   1.278
 3288SOL     OW 9881   3.788   3.426   1.331
 3288SOL    HW1 9882   3.742   3.508   1.297
 3288SOL    HW2 9883   3.886   3.445   1.340
 3289SOL     OW 9884   4.091   2.962   0.501
 3289SOL    HW1 9885   4.084   3.045   0.445
 3289SOL    HW2 9886   4.095   2.882   0.441
 3290SOL     OW 9887   4.290   2.399   0.865
 3290SOL    HW1 9888   4.302   2.465   0.791
 3290SOL    HW2 9889   4.336   2.433   0.948
 3291SOL     OW 9890   4.078   3.372   1.329
 3291SOL    HW1 9891   4.057   3.328   1.242
 3291SOL    HW2 9892   4.175   3.398   1.332
 3292SOL     OW 9893   4.126   2.613   1.598
 3292SOL    HW1 9894   4.194   2.668   1.551
 3292SOL    HW2 9895   4.166   2.525   1.625
 3293SOL     OW 9896   4.737   1.967   1.770
 3293SOL    HW1 9897   4.743   2.052   1.718
 3293SOL    HW2 9898   4.769   1.891   1.713
 3294SOL     OW 9899   4.228   1.912   1.740
 3294SOL    HW1 9900   4.186   1.855   1.670
 3294SOL    HW2 9901   4.162   1.981   1.772
 3295SOL     OW 9902   4.297   2.732   1.029
 3295SOL    HW1 9903   4.341   2.821   1.020
 3295SOL    HW2 9904   4.234   2.732   1.106
 3296SOL     OW 9905   4.933   2.387   0.275
 3296SOL    HW1 9906   4.946   2.303   0.329
 3296SOL    HW2 9907   4.904   2.461   0.335
 3297SOL     OW 9908   4.031   2.075   1.231
 3297SOL    HW1 9909   4.008   2.112   1.321
 3297SOL    HW2 9910   4.001   1.980   1.225
 3298SOL     OW 9911   3.761   3.172   1.282
 3298SOL    HW1 9912   3.814   3.123   1.350
 3298SOL    HW2 9913   3.783   3.270   1.287
 3299SOL     OW 9914   4.456   2.496   1.064
 3299SOL    HW1 9915   4.515   2.470   0.988
 3299SOL    HW2 9916   4.428   2.592   1.053
 3300SOL     OW 9917   4.031   1.925   0.618
 3300SOL    HW1 9918   4.020   2.019   0.651
 3300SOL    HW2 9919   4.026   1.862   0.695
 3301SOL     OW 9920   4.747   2.628   0.966
 3301SOL    HW1 9921   4.762   2.649   1.062
 3301SOL    HW2 9922   4.717   2.533   0.957
 3302SOL     OW 9923   4.704   3.435   1.700
 3302SOL    HW1 9924   4.684   3.479   1.612
 3302SOL    HW2 9925   4.743   3.344   1.684
 3303SOL     OW 9926   4.074   2.760   1.804
 3303SOL    HW1 9927   4.150   2.804   1.852
 3303SOL    HW2 9928   4.109   2.713   1.722
 3304SOL     OW 9929   4.792   3.195   0.849
 3304SOL    HW1 9930   4.799   3.111   0.794
 3304SOL    HW2 9931   4.854   3.264   0.813
 3305SOL     OW 9932   4.043   2.672   0.949
 3305SOL    HW1 9933   4.136   2.708   0.954
 3305SOL    HW2 9934   4.037   2.587   1.001
 3306SOL     OW 9935   4.063   2.371   1.006
 3306SOL    HW1 9936   4.011   2.288   0.989
 3306SOL    HW2 9937   4.140   2.376   0.942
 3307SOL     OW 9938   4.862   2.242   1.678
 3307SOL    HW1 9939   4.817   2.305   1.742
 3307SOL    HW2 9940   4.955   2.273   1.661
 3308SOL     OW 9941   4.884   2.069   1.477
 3308SOL    HW1 9942   4.884   2.133   1.554
 3308SOL    HW2 9943   4.912   2.117   1.394
 3309SOL     OW 9944   3.732   3.188   0.200
 3309SOL    HW1 9945   3.639   3.209   0.169
 3309SOL    HW2 9946   3.742   3.089   0.213
 3310SOL     OW 9947   3.812   3.663   0.927
 3310SOL    HW1 9948   3.770   3.577   0.900
 3310SOL    HW2 9949   3.906   3.666   0.893
 3311SOL     OW 9950   4.228   3.430   0.910
 3311SOL    HW1 9951   4.294   3.504   0.919
 3311SOL    HW2 9952   4.272   3.351   0.868
 3312SOL     OW 9953   4.726   2.658   1.238
 3312SOL    HW1 9954   4.767   2.626   1.324
 3312SOL    HW2 9955   4.630   2.631   1.235
 3313SOL     OW 9956   3.764   2.406   1.114
 3313SOL    HW1 9957   3.849   2.373   1.073
 3313SOL    HW2 9958   3.777   2.421   1.212
 3314SOL     OW 9959   3.913   2.382   1.722
 3314SOL    HW1 9960   3.972   2.342   1.652
 3314SOL    HW2 9961   3.855   2.453   1.681
 3315SOL     OW 9962   4.539   2.434   0.325
 3315SOL    HW1 9963   4.546   2.345   0.279
 3315SOL    HW2 9964   4.445   2.468   0.317
 3316SOL     OW 9965   3.976   3.426   1.744
 3316SOL    HW1 9966   3.946   3.483   1.820
 3316SOL    HW2 9967   3.969   3.329   1.770
 3317SOL     OW 9968   4.395   2.326   1.269
 3317SOL    HW1 9969   4.361   2.237   1.239
 3317SOL    HW2 9970   4.421   2.380   1.189
 3318SOL     OW 9971   4.654   3.540   1.465
 3318SOL    HW1 9972   4.630   3.522   1.370
 3318SOL    HW2 9973   4.684   3.634   1.475
 3319SOL     OW 9974   4.197   2.362   0.191
 3319SOL    HW1 9975   4.258   2.442   0.195
 3319SOL    HW2 9976   4.102   2.393   0.198
 3320SOL     OW 9977   3.883   2.999   1.466
 3320SOL    HW1 9978   3.905   2.938   1.542
 3320SOL    HW2 9979   3.893   2.950   1.380
 3321SOL     OW 9980   5.026   2.717   0.309
 3321SOL    HW1 9981   4.940   2.686   0.351
 3321SOL    HW2 9982   5.022   2.703   0.210
 3322SOL     OW 9983   3.807   3.120   1.022
 3322SOL    HW1 9984   3.802   3.119   1.122
 3322SOL    HW2 9985   3.724   3.079   0.984
 3323SOL     OW 9986   4.412   3.524   1.716
 3323SOL    HW1 9987   4.356   3.605   1.725
 3323SOL    HW2 9988   4.464   3.528   1.630
 3324SOL     OW 9989   4.627   1.948   0.133
 3324SOL    HW1 9990   4.678   1.949   0.047
 3324SOL    HW2 9991   4.683   1.906   0.204
 3325SOL     OW 9992   3.854   3.656   1.851
 3325SOL    HW1 9993   3.813   3.582   1.904
 3325SOL    HW2 9994   3.918   3.707   1.909
 3326SOL     OW 9995   4.554   3.135   1.422
 3326SOL    HW1 9996   4.549   3.168   1.517
 3326SOL    HW2 9997   4.468   3.154   1.376
 3327SOL     OW 9998   4.396   3.478   0.154
 3327SOL    HW1 9999   4.405   3.488   0.055
 3327SOL    HW210000   4.356   3.389   0.175
 3328SOL     OW10001   3.987   2.188   0.720
 3328SOL    HW110002   3.908   2.239   0.686
 3328SOL    HW210003   3.978   2.173   0.818
 3329SOL     OW10004   4.546   2.864   1.372
 3329SOL    HW110005   4.586   2.863   1.280
 3329SOL    HW210006   4.556   2.956   1.412
 3330SOL     OW10007   4.640   2.772   0.291
 3330SOL    HW110008   4.703   2.810   0.223
 3330SOL    HW210009   4.680   2.689   0.330
 3331SOL     OW10010   4.096   3.150   1.490
 3331SOL    HW110011   4.083   3.243   1.456
 3331SOL    HW210012   4.012   3.098   1.477
 3332SOL     OW10013   4.763   2.960   0.696
 3332SOL    HW110014   4.693   2.913   0.750
 3332SOL    HW210015   4.822   2.892   0.653
 3333SOL     OW10016   4.738   2.098   0.971
 3333SOL    HW110017   4.730   2.062   0.878
 3333SOL    HW210018   4.736   2.022   1.036
 3334SOL     OW10019   4.314   3.349   0.491
 3334SOL    HW110020   4.356   3.291   0.421
 3334SOL    HW210021   4.270   3.428   0.447
 3335SOL     OW10022   3.979   3.210   0.290
 3335SOL    HW110023   3.883   3.211   0.263
 3335SOL    HW210024   3.991   3.263   0.374
 3336SOL     OW10025   3.829   2.875   1.726
 3336SOL    HW110026   3.752   2.842   1.780
 3336SOL    HW210027   3.914   2.845   1.768
 3337SOL     OW10028   4.396   2.065   1.489
 3337SOL    HW110029   4.486   2.049   1.449
 3337SOL    HW210030   4.404   2.070   1.588
 3338SOL     OW10031   3.796   2.028   0.318
 3338SOL    HW110032   3.779   2.111   0.264
 3338SOL    HW210033   3.886   1.991   0.296
 3339SOL     OW10034   4.337   2.704   1.431
 3339SOL    HW110035   4.393   2.785   1.414
 3339SOL    HW210036   4.396   2.624   1.434
 3340SOL     OW10037   4.440   2.427   1.708
 3340SOL    HW110038   4.459   2.492   1.782
 3340SOL    HW210039   4.500   2.347   1.717
 3341SOL     OW10040   4.114   3.603   1.560
 3341SOL    HW110041   4.023   3.644   1.558
 3341SOL    HW210042   4.107   3.509   1.592
 3342SOL     OW10043   4.318   2.607   0.652
 3342SOL    HW110044   4.368   2.692   0.633
 3342SOL    HW210045   4.230   2.609   0.604
 3343SOL     OW10046   4.583   3.236   0.016
 3343SOL    HW110047   4.537   3.251   0.104
 3343SOL    HW210048   4.627   3.321  -0.014
 3344SOL     OW10049   4.385   3.652   0.953
 3344SOL    HW110050   4.339   3.740   0.940
 3344SOL    HW210051   4.484   3.664   0.946
 3345SOL     OW10052   4.583   2.818   0.861
 3345SOL    HW110053   4.637   2.749   0.909
 3345SOL    HW210054   4.551   2.887   0.927
 3346SOL     OW10055   4.807   2.846   0.087
 3346SOL    HW110056   4.784   2.899   0.005
 3346SOL    HW210057   4.888   2.790   0.068
 3347SOL     OW10058   3.945   3.176   1.844
 3347SOL    HW110059   3.880   3.103   1.823
 3347SOL    HW210060   3.949   3.190   1.942
 3348SOL     OW10061   3.803   3.102   0.653
 3348SOL    HW110062   3.802   3.055   0.741
 3348SOL    HW210063   3.885   3.074   0.602
 3349SOL     OW10064   4.396   3.253   1.624
 3349SOL    HW110065   4.318   3.203   1.662
 3349SOL    HW210066   4.393   3.348   1.655
 3350SOL     OW10067   4.152   2.286   0.520
 3350SOL    HW110068   4.182   2.214   0.458
 3350SOL    HW210069   4.113   2.246   0.603
 3351SOL     OW10070   4.041   2.409   1.280
 3351SOL    HW110071   4.079   2.350   1.352
 3351SOL    HW210072   4.081   2.383   1.192
 3352SOL     OW10073   4.536   3.448   0.687
 3352SOL    HW110074   4.568   3.458   0.593
 3352SOL    HW210075   4.457   3.386   0.689
 3353SOL     OW10076   4.725   1.896   1.154
 3353SOL    HW110077   4.662   1.824   1.123
 3353SOL    HW210078   4.818   1.860   1.154
 3354SOL     OW10079   4.494   3.192   0.301
 3354SOL    HW110080   4.448   3.105   0.318
 3354SOL    HW210081   4.585   3.189   0.342
 3355SOL     OW10082   4.342   3.429   1.284
 3355SOL    HW110083   4.337   3.511   1.341
 3355SOL    HW210084   4.431   3.426   1.239
 3356SOL     OW10085   3.763   2.939   0.300
 3356SOL    HW110086   3.862   2.928   0.291
 3356SOL    HW210087   3.723   2.853   0.332
 3357SOL     OW10088   4.599   3.508   0.337
 3357SOL    HW110089   4.522   3.473   0.283
 3357SOL    HW210090   4.567   3.579   0.399
 3358SOL     OW10091   3.954   2.490   1.975
 3358SOL    HW110092   3.861   2.488   2.012
 3358SOL    HW210093   3.955   2.451   1.883
 3359SOL     OW10094   3.949   2.137   2.858
 3359SOL    HW110095   3.984   2.120   2.950
 3359SOL    HW210096   3.861   2.092   2.846
 3360SOL     OW10097   3.743   2.230   2.509
 3360SOL    HW110098   3.661   2.273   2.548
 3360SOL    HW210099   3.715   2.157   2.446
 3361SOL     OW10100   4.293   3.137   3.027
 3361SOL    HW110101   4.200   3.130   2.990
 3361SOL    HW210102   4.304   3.226   3.071
 3362SOL     OW10103   4.492   3.006   2.885
 3362SOL    HW110104   4.414   3.023   2.945
 3362SOL    HW210105   4.526   3.093   2.849
 3363SOL     OW10106   4.574   2.660   3.685
 3363SOL    HW110107   4.570   2.736   3.750
 3363SOL    HW210108   4.596   2.696   3.594
 3364SOL     OW10109   4.409   2.874   2.527
 3364SOL    HW110110   4.478   2.858   2.597
 3364SOL    HW210111   4.336   2.931   2.565
 3365SOL     OW10112   4.410   3.023   3.665
 3365SOL    HW110113   4.470   3.102   3.679
 3365SOL    HW210114   4.324   3.054   3.624
 3366SOL     OW10115   4.059   3.297   2.923
 3366SOL    HW110116   3.981   3.266   2.870
 3366SOL    HW210117   4.117   3.355   2.866
 3367SOL     OW10118   4.162   2.254   3.361
 3367SOL    HW110119   4.244   2.198   3.370
 3367SOL    HW210120   4.081   2.196   3.365
 3368SOL     OW10121   3.955   3.575   2.345
 3368SOL    HW110122   3.989   3.652   2.399
 3368SOL    HW210123   3.999   3.575   2.255
 3369SOL     OW10124   4.851   3.203   3.552
 3369SOL    HW110125   4.898   3.203   3.640
 3369SOL    HW210126   4.803   3.116   3.541
 3370SOL     OW10127   3.954   3.296   2.400
 3370SOL    HW110128   3.928   3.392   2.400
 3370SOL    HW210129   3.883   3.242   2.445
 3371SOL     OW10130   3.964   2.953   2.748
 3371SOL    HW110131   3.978   2.869   2.800
 3371SOL    HW210132   3.909   3.017   2.803
 3372SOL     OW10133   4.344   3.648   3.301
 3372SOL    HW110134   4.252   3.631   3.336
 3372SOL    HW210135   4.372   3.740   3.327
 3373SOL     OW10136   4.330   2.826   1.985
 3373SOL    HW110137   4.337   2.910   1.931
 3373SOL    HW210138   4.376   2.839   2.073
 3374SOL     OW10139   3.846   2.505   2.425
 3374SOL    HW110140   3.801   2.417   2.442
 3374SOL    HW210141   3.845   2.559   2.509
 3375SOL     OW10142   3.751   3.458   1.979
 3375SOL    HW110143   3.732   3.362   2.000
 3375SOL    HW210144   3.718   3.516   2.054
 3376SOL     OW10145   3.837   2.599   3.459
 3376SOL    HW110146   3.925   2.586   3.504
 3376SOL    HW210147   3.824   2.696   3.437
 3377SOL     OW10148   4.337   3.227   2.588
 3377SOL    HW110149   4.288   3.140   2.597
 3377SOL    HW210150   4.314   3.270   2.501
 3378SOL     OW10151   4.533   1.866   2.364
 3378SOL    HW110152   4.573   1.957   2.355
 3378SOL    HW210153   4.433   1.874   2.370
 3379SOL     OW10154   3.921   2.838   3.126
 3379SOL    HW110155   4.010   2.793   3.112
 3379SOL    HW210156   3.848   2.773   3.107
 3380SOL     OW10157   4.041   2.113   3.663
 3380SOL    HW110158   4.112   2.184   3.669
 3380SOL    HW210159   3.953   2.152   3.691
 3381SOL     OW10160   4.322   2.591   2.132
 3381SOL    HW110161   4.346   2.660   2.064
 3381SOL    HW210162   4.244   2.624   2.186
 3382SOL     OW10163   4.531   2.467   3.327
 3382SOL    HW110164   4.484   2.464   3.416
 3382SOL    HW210165   4.480   2.412   3.261
 3383SOL     OW10166   4.697   2.752   3.434
 3383SOL    HW110167   4.743   2.668   3.405
 3383SOL    HW210168   4.641   2.786   3.359
 3384SOL     OW10169   4.715   2.272   3.104
 3384SOL    HW110170   4.638   2.306   3.158
 3384SOL    HW210171   4.681   2.221   3.025
 3385SOL     OW10172   4.765   2.563   2.291
 3385SOL    HW110173   4.791   2.559   2.387
 3385SOL    HW210174   4.680   2.512   2.277
 3386SOL     OW10175   3.800   2.673   2.651
 3386SOL    HW110176   3.899   2.661   2.660
 3386SOL    HW210177   3.776   2.768   2.672
 3387SOL     OW10178   3.854   3.683   3.433
 3387SOL    HW110179   3.844   3.668   3.532
 3387SOL    HW210180   3.768   3.719   3.397
 3388SOL     OW10181   4.589   2.210   2.057
 3388SOL    HW110182   4.648   2.273   2.008
 3388SOL    HW210183   4.608   2.116   2.028
 3389SOL     OW10184   4.274   2.058   2.747
 3389SOL    HW110185   4.269   2.053   2.847
 3389SOL    HW210186   4.276   2.154   2.718
 3390SOL     OW10187   4.732   3.318   2.339
 3390SOL    HW110188   4.686   3.390   2.287
 3390SOL    HW210189   4.728   3.338   2.437
 3391SOL     OW10190   4.075   3.663   2.715
 3391SOL    HW110191   4.125   3.577   2.721
 3391SOL    HW210192   4.140   3.740   2.712
 3392SOL     OW10193   4.045   2.805   2.104
 3392SOL    HW110194   4.127   2.844   2.062
 3392SOL    HW210195   4.018   2.723   2.055
 3393SOL     OW10196   4.185   3.128   3.589
 3393SOL    HW110197   4.135   3.129   3.503
 3393SOL    HW210198   4.122   3.110   3.665
 3394SOL     OW10199   3.926   2.147   3.360
 3394SOL    HW110200   3.846   2.207   3.347
 3394SOL    HW210201   3.916   2.098   3.446
 3395SOL     OW10202   4.188   3.605   2.185
 3395SOL    HW110203   4.221   3.644   2.271
 3395SOL    HW210204   4.264   3.598   2.120
 3396SOL     OW10205   3.973   3.647   3.103
 3396SOL    HW110206   4.030   3.582   3.153
 3396SOL    HW210207   3.957   3.614   3.010
 3397SOL     OW10208   4.664   3.560   2.766
 3397SOL    HW110209   4.744   3.503   2.787
 3397SOL    HW210210   4.615   3.520   2.689
 3398SOL     OW10211   4.106   2.562   2.342
 3398SOL    HW110212   4.151   2.472   2.339
 3398SOL    HW210213   4.012   2.551   2.375
 3399SOL     OW10214   4.338   1.984   1.979
 3399SOL    HW110215   4.436   1.962   1.986
 3399SOL    HW210216   4.307   1.967   1.886
 3400SOL     OW10217   4.505   2.126   3.611
 3400SOL    HW110218   4.572   2.065   3.654
 3400SOL    HW210219   4.432   2.145   3.676
 3401SOL     OW10220   4.612   3.376   3.057
 3401SOL    HW110221   4.589   3.351   2.963
 3401SOL    HW210222   4.673   3.307   3.096
 3402SOL     OW10223   4.527   3.264   2.786
 3402SOL    HW110224   4.617   3.278   2.744
 3402SOL    HW210225   4.456   3.266   2.715
 3403SOL     OW10226   4.646   2.365   2.761
 3403SOL    HW110227   4.621   2.356   2.665
 3403SOL    HW210228   4.694   2.283   2.792
 3404SOL     OW10229   4.263   1.926   2.374
 3404SOL    HW110230   4.182   1.927   2.432
 3404SOL    HW210231   4.266   2.009   2.319
 3405SOL     OW10232   4.021   1.897   2.033
 3405SOL    HW110233   4.070   1.981   2.012
 3405SOL    HW210234   4.083   1.832   2.078
 3406SOL     OW10235   4.659   2.098   2.342
 3406SOL    HW110236   4.611   2.139   2.264
 3406SOL    HW210237   4.758   2.096   2.323
 3407SOL     OW10238   4.951   3.432   2.655
 3407SOL    HW110239   4.972   3.506   2.590
 3407SOL    HW210240   5.019   3.432   2.728
 3408SOL     OW10241   4.183   3.014   2.603
 3408SOL    HW110242   4.112   2.987   2.668
 3408SOL    HW210243   4.157   2.986   2.510
 3409SOL     OW10244   4.756   2.411   1.878
 3409SOL    HW110245   4.715   2.493   1.839
 3409SOL    HW210246   4.820   2.437   1.951
 3410SOL     OW10247   3.802   2.418   3.248
 3410SOL    HW110248   3.894   2.417   3.207
 3410SOL    HW210249   3.796   2.492   3.315
 3411SOL     OW10250   4.285   2.084   3.009
 3411SOL    HW110251   4.323   2.000   3.046
 3411SOL    HW210252   4.197   2.103   3.053
 3412SOL     OW10253   4.590   2.316   2.504
 3412SOL    HW110254   4.558   2.388   2.442
 3412SOL    HW210255   4.614   2.235   2.451
 3413SOL     OW10256   4.741   1.901   2.615
 3413SOL    HW110257   4.669   1.906   2.546
 3413SOL    HW210258   4.717   1.832   2.684
 3414SOL     OW10259   4.212   3.247   2.036
 3414SOL    HW110260   4.125   3.232   2.083
 3414SOL    HW210261   4.195   3.273   1.941
 3415SOL     OW10262   4.251   2.118   2.190
 3415SOL    HW110263   4.278   2.059   2.115
 3415SOL    HW210264   4.251   2.213   2.159
 3416SOL     OW10265   4.639   1.951   3.264
 3416SOL    HW110266   4.664   1.931   3.169
 3416SOL    HW210267   4.711   2.007   3.306
 3417SOL     OW10268   4.704   2.978   3.581
 3417SOL    HW110269   4.605   2.984   3.591
 3417SOL    HW210270   4.727   2.898   3.525
 3418SOL     OW10271   4.429   2.912   2.230
 3418SOL    HW110272   4.415   2.919   2.329
 3418SOL    HW210273   4.513   2.861   2.212
 3419SOL     OW10274   4.134   2.675   3.113
 3419SOL    HW110275   4.220   2.687   3.163
 3419SOL    HW210276   4.092   2.588   3.140
 3420SOL     OW10277   3.788   3.426   3.193
 3420SOL    HW110278   3.742   3.508   3.159
 3420SOL    HW210279   3.886   3.445   3.202
 3421SOL     OW10280   4.091   2.962   2.363
 3421SOL    HW110281   4.084   3.045   2.307
 3421SOL    HW210282   4.095   2.882   2.303
 3422SOL     OW10283   4.290   2.399   2.727
 3422SOL    HW110284   4.302   2.465   2.653
 3422SOL    HW210285   4.336   2.433   2.810
 3423SOL     OW10286   4.078   3.372   3.191
 3423SOL    HW110287   4.057   3.328   3.104
 3423SOL    HW210288   4.175   3.398   3.194
 3424SOL     OW10289   4.126   2.613   3.460
 3424SOL    HW110290   4.194   2.668   3.413
 3424SOL    HW210291   4.166   2.525   3.487
 3425SOL     OW10292   4.737   1.967   3.632
 3425SOL    HW110293   4.743   2.052   3.580
 3425SOL    HW210294   4.769   1.891   3.575
 3426SOL     OW10295   4.228   1.912   3.602
 3426SOL    HW110296   4.186   1.855   3.532
 3426SOL    HW210297   4.162   1.981   3.634
 3427SOL     OW10298   4.297   2.732   2.891
 3427SOL    HW110299   4.341   2.821   2.882
 3427SOL    HW210300   4.234   2.732   2.968
 3428SOL     OW10301   4.933   2.387   2.137
 3428SOL    HW110302   4.946   2.303   2.191
 3428SOL    HW210303   4.904   2.461   2.197
 3429SOL     OW10304   4.031   2.075   3.093
 3429SOL    HW110305   4.008   2.112   3.183
 3429SOL    HW210306   4.001   1.980   3.087
 3430SOL     OW10307   3.761   3.172   3.144
 3430SOL    HW110308   3.814   3.123   3.212
 3430SOL    HW210309   3.783   3.270   3.149
 3431SOL     OW10310   4.456   2.496   2.926
 3431SOL    HW110311   4.515   2.470   2.850
 3431SOL    HW210312   4.428   2.592   2.915
 3432SOL     OW10313   4.031   1.925   2.480
 3432SOL    HW110314   4.020   2.019   2.513
 3432SOL    HW210315   4.026   1.862   2.557
 3433SOL     OW10316   4.747   2.628   2.828
 3433SOL    HW110317   4.762   2.649   2.924
 3433SOL    HW210318   4.717   2.533   2.819
 3434SOL     OW10319   4.704   3.435   3.562
 3434SOL    HW110320   4.684   3.479   3.474
 3434SOL    HW210321   4.743   3.344   3.546
 3435SOL     OW10322   4.074   2.760   3.666
 3435SOL    HW110323   4.150   2.804   3.714
 3435SOL    HW210324   4.109   2.713   3.584
 3436SOL     OW10325   4.792   3.195   2.711
 3436SOL    HW110326   4.799   3.111   2.656
 3436SOL    HW210327   4.854   3.264   2.675
 3437SOL     OW10328   4.043   2.672   2.811
 3437SOL    HW110329   4.136   2.708   2.816
 3437SOL    HW210330   4.037   2.587   2.863
 3438SOL     OW10331   4.063   2.371   2.868
 3438SOL    HW110332   4.011   2.288   2.851
 3438SOL    HW210333   4.140   2.376   2.804
 3439SOL     OW10334   4.862   2.242   3.540
 3439SOL    HW110335   4.817   2.305   3.604
 3439SOL    HW210336   4.955   2.273   3.523
 3440SOL     OW10337   4.884   2.069   3.339
 3440SOL    HW110338   4.884   2.133   3.416
 3440SOL    HW210339   4.912   2.117   3.256
 3441SOL     OW10340   3.732   3.188   2.062
 3441SOL    HW110341   3.639   3.209   2.031
 3441SOL    HW210342   3.742   3.089   2.075
 3442SOL     OW10343   3.812   3.663   2.789
 3442SOL    HW110344   3.770   3.577   2.762
 3442SOL    HW210345   3.906   3.666   2.755
 3443SOL     OW10346   4.228   3.430   2.772
 3443SOL    HW110347   4.294   3.504   2.781
 3443SOL    HW210348   4.272   3.351   2.730
 3444SOL     OW10349   4.726   2.658   3.100
 3444SOL    HW110350   4.767   2.626   3.186
 3444SOL    HW210351   4.630   2.631   3.097
 3445SOL     OW10352   3.764   2.406   2.976
 3445SOL    HW110353   3.849   2.373   2.935
 3445SOL    HW210354   3.777   2.421   3.074
 3446SOL     OW10355   3.913   2.382   3.584
 3446SOL    HW110356   3.972   2.342   3.514
 3446SOL    HW210357   3.855   2.453   3.543
 3447SOL     OW10358   4.539   2.434   2.187
 3447SOL    HW110359   4.546   2.345   2.141
 3447SOL    HW210360   4.445   2.468   2.179
 3448SOL     OW10361   3.976   3.426   3.606
 3448SOL    HW110362   3.946   3.483   3.682
 3448SOL    HW210363   3.969   3.329   3.632
 3449SOL     OW10364   4.395   2.326   3.131
 3449SOL    HW110365   4.361   2.237   3.101
 3449SOL    HW210366   4.421   2.380   3.051
 3450SOL     OW10367   4.654   3.540   3.327
 3450SOL    HW110368   4.630   3.522   3.232
 3450SOL    HW210369   4.684   3.634   3.337
 3451SOL     OW10370   4.197   2.362   2.053
 3451SOL    HW110371   4.258   2.442   2.057
 3451SOL    HW210372   4.102   2.393   2.060
 3452SOL     OW10373   3.883   2.999   3.328
 3452SOL    HW110374   3.905   2.938   3.404
 3452SOL    HW210375   3.893   2.950   3.242
 3453SOL     OW10376   5.026   2.717   2.171
 3453SOL    HW110377   4.940   2.686   2.213
 3453SOL    HW210378   5.022   2.703   2.072
 3454SOL     OW10379   3.807   3.120   2.884
 3454SOL    HW110380   3.802   3.119   2.984
 3454SOL    HW210381   3.724   3.079   2.846
 3455SOL     OW10382   4.412   3.524   3.578
 3455SOL    HW110383   4.356   3.605   3.587
 3455SOL    HW210384   4.464   3.528   3.492
 3456SOL     OW10385   3.854   3.656   3.713
 3456SOL    HW110386   3.813   3.582   3.766
 3456SOL    HW210387   3.918   3.707   3.771
 3457SOL     OW10388   4.554   3.135   3.284
 3457SOL    HW110389   4.549   3.168   3.379
 3457SOL    HW210390   4.468   3.154   3.238
 3458SOL     OW10391   4.396   3.478   2.016
 3458SOL    HW110392   4.405   3.488   1.917
 3458SOL    HW210393   4.356   3.389   2.037
 3459SOL     OW10394   3.987   2.188   2.582
 3459SOL    HW110395   3.908   2.239   2.548
 3459SOL    HW210396   3.978   2.173   2.680
 3460SOL     OW10397   4.546   2.864   3.234
 3460SOL    HW110398   4.586   2.863   3.142
 3460SOL    HW210399   4.556   2.956   3.274
 3461SOL     OW10400   4.640   2.772   2.153
 3461SOL    HW110401   4.703   2.810   2.085
 3461SOL    HW210402   4.680   2.689   2.192
 3462SOL     OW10403   4.096   3.150   3.352
 3462SOL    HW110404   4.083   3.243   3.318
 3462SOL    HW210405   4.012   3.098   3.339
 3463SOL     OW10406   4.763   2.960   2.558
 3463SOL    HW110407   4.693   2.913   2.612
 3463SOL    HW210408   4.822   2.892   2.515
 3464SOL     OW10409   4.738   2.098   2.833
 3464SOL    HW110410   4.730   2.062   2.740
 3464SOL    HW210411   4.736   2.022   2.898
 3465SOL     OW10412   4.314   3.349   2.353
 3465SOL    HW110413   4.356   3.291   2.283
 3465SOL    HW210414   4.270   3.428   2.309
 3466SOL     OW10415   3.979   3.210   2.152
 3466SOL    HW110416   3.883   3.211   2.125
 3466SOL    HW210417   3.991   3.263   2.236
 3467SOL     OW10418   3.829   2.875   3.588
 3467SOL    HW110419   3.752   2.842   3.642
 3467SOL    HW210420   3.914   2.845   3.630
 3468SOL     OW10421   4.396   2.065   3.351
 3468SOL    HW110422   4.486   2.049   3.311
 3468SOL    HW210423   4.404   2.070   3.450
 3469SOL     OW10424   3.799   2.207   1.895
 3469SOL    HW110425   3.707   2.179   1.866
 3469SOL    HW210426   3.830   2.284   1.839
 3470SOL     OW10427   3.796   2.028   2.180
 3470SOL    HW110428   3.779   2.111   2.126
 3470SOL    HW210429   3.886   1.991   2.158
 3471SOL     OW10430   4.337   2.704   3.293
 3471SOL    HW110431   4.393   2.785   3.276
 3471SOL    HW210432   4.396   2.624   3.296
 3472SOL     OW10433   4.440   2.427   3.570
 3472SOL    HW110434   4.459   2.492   3.644
 3472SOL    HW210435   4.500   2.347   3.579
 3473SOL     OW10436   4.114   3.603   3.422
 3473SOL    HW110437   4.023   3.644   3.420
 3473SOL    HW210438   4.107   3.509   3.454
 3474SOL     OW10439   4.318   2.607   2.514
 3474SOL    HW110440   4.368   2.692   2.495
 3474SOL    HW210441   4.230   2.609   2.466
 3475SOL     OW10442   4.583   3.236   1.878
 3475SOL    HW110443   4.537   3.251   1.966
 3475SOL    HW210444   4.627   3.321   1.848
 3476SOL     OW10445   4.385   3.652   2.815
 3476SOL    HW110446   4.339   3.740   2.802
 3476SOL    HW210447   4.484   3.664   2.808
 3477SOL     OW10448   4.583   2.818   2.723
 3477SOL    HW110449   4.637   2.749   2.771
 3477SOL    HW210450   4.551   2.887   2.789
 3478SOL     OW10451   4.807   2.846   1.949
 3478SOL    HW110452   4.784   2.899   1.867
 3478SOL    HW210453   4.888   2.790   1.930
 3479SOL     OW10454   3.945   3.176   3.706
 3479SOL    HW110455   3.880   3.103   3.685
 3479SOL    HW210456   3.949   3.190   3.804
 3480SOL     OW10457   3.803   3.102   2.515
 3480SOL    HW110458   3.802   3.055   2.603
 3480SOL    HW210459   3.885   3.074   2.464
 3481SOL     OW10460   4.396   3.253   3.486
 3481SOL    HW110461   4.318   3.203   3.524
 3481SOL    HW210462   4.393   3.348   3.517
 3482SOL     OW10463   4.152   2.286   2.382
 3482SOL    HW110464   4.182   2.214   2.320
 3482SOL    HW210465   4.113   2.246   2.465
 3483SOL     OW10466   4.041   2.409   3.142
 3483SOL    HW110467   4.079   2.350   3.214
 3483SOL    HW210468   4.081   2.383   3.054
 3484SOL     OW10469   4.536   3.448   2.549
 3484SOL    HW110470   4.568   3.458   2.455
 3484SOL    HW210471   4.457   3.386   2.551
 3485SOL     OW10472   4.725   1.896   3.016
 3485SOL    HW110473   4.662   1.824   2.985
 3485SOL    HW210474   4.818   1.860   3.016
 3486SOL     OW10475   4.494   3.192   2.163
 3486SOL    HW110476   4.448   3.105   2.180
 3486SOL    HW210477   4.585   3.189   2.204
 3487SOL     OW10478   4.342   3.429   3.146
 3487SOL    HW110479   4.337   3.511   3.203
 3487SOL    HW210480   4.431   3.426   3.101
 3488SOL     OW10481   3.763   2.939   2.162
 3488SOL    HW110482   3.862   2.928   2.153
 3488SOL    HW210483   3.723   2.853   2.194
 3489SOL     OW10484   4.599   3.508   2.199
 3489SOL    HW110485   4.522   3.473   2.145
 3489SOL    HW210486   4.567   3.579   2.261
 3490SOL     OW10487   3.954   2.490   3.837
 3490SOL    HW110488   3.861   2.488   3.874
 3490SOL    HW210489   3.955   2.451   3.745
 3491SOL     OW10490   3.949   2.137   4.720
 3491SOL    HW110491   3.984   2.120   4.812
 3491SOL    HW210492   3.861   2.092   4.708
 3492SOL     OW10493   3.743   2.230   4.371
 3492SOL    HW110494   3.661   2.273   4.410
 3492SOL    HW210495   3.715   2.157   4.308
 3493SOL     OW10496   4.492   3.006   4.747
 3493SOL    HW110497   4.414   3.023   4.807
 3493SOL    HW210498   4.526   3.093   4.711
 3494SOL     OW10499   4.409   2.874   4.389
 3494SOL    HW110500   4.478   2.858   4.459
 3494SOL    HW210501   4.336   2.931   4.427
 3495SOL     OW10502   4.059   3.297   4.785
 3495SOL    HW110503   3.981   3.266   4.732
 3495SOL    HW210504   4.117   3.355   4.728
 3496SOL     OW10505   3.955   3.575   4.207
 3496SOL    HW110506   3.989   3.652   4.261
 3496SOL    HW210507   3.999   3.575   4.117
 3497SOL     OW10508   3.954   3.296   4.262
 3497SOL    HW110509   3.928   3.392   4.262
 3497SOL    HW210510   3.883   3.242   4.307
 3498SOL     OW10511   3.964   2.953   4.610
 3498SOL    HW110512   3.978   2.869   4.662
 3498SOL    HW210513   3.909   3.017   4.665
 3499SOL     OW10514   4.330   2.826   3.847
 3499SOL    HW110515   4.337   2.910   3.793
 3499SOL    HW210516   4.376   2.839   3.935
 3500SOL     OW10517   3.846   2.505   4.287
 3500SOL    HW110518   3.801   2.417   4.304
 3500SOL    HW210519   3.845   2.559   4.371
 3501SOL     OW10520   3.751   3.458   3.841
 3501SOL    HW110521   3.732   3.362   3.862
 3501SOL    HW210522   3.718   3.516   3.916
 3502SOL     OW10523   4.337   3.227   4.450
 3502SOL    HW110524   4.288   3.140   4.459
 3502SOL    HW210525   4.314   3.270   4.363
 3503SOL     OW10526   4.533   1.866   4.226
 3503SOL    HW110527   4.573   1.957   4.217
 3503SOL    HW210528   4.433   1.874   4.232
 3504SOL     OW10529   4.322   2.591   3.994
 3504SOL    HW110530   4.346   2.660   3.926
 3504SOL    HW210531   4.244   2.624   4.048
 3505SOL     OW10532   4.765   2.563   4.153
 3505SOL    HW110533   4.791   2.559   4.249
 3505SOL    HW210534   4.680   2.512   4.139
 3506SOL     OW10535   3.800   2.673   4.513
 3506SOL    HW110536   3.899   2.661   4.522
 3506SOL    HW210537   3.776   2.768   4.534
 3507SOL     OW10538   4.589   2.210   3.919
 3507SOL    HW110539   4.648   2.273   3.870
 3507SOL    HW210540   4.608   2.116   3.890
 3508SOL     OW10541   4.274   2.058   4.609
 3508SOL    HW110542   4.269   2.053   4.709
 3508SOL    HW210543   4.276   2.154   4.580
 3509SOL     OW10544   4.732   3.318   4.201
 3509SOL    HW110545   4.686   3.390   4.149
 3509SOL    HW210546   4.728   3.338   4.299
 3510SOL     OW10547   4.075   3.663   4.577
 3510SOL    HW110548   4.125   3.577   4.583
 3510SOL    HW210549   4.140   3.740   4.574
 3511SOL     OW10550   4.045   2.805   3.966
 3511SOL    HW110551   4.127   2.844   3.924
 3511SOL    HW210552   4.018   2.723   3.917
 3512SOL     OW10553   4.188   3.605   4.047
 3512SOL    HW110554   4.221   3.644   4.133
 3512SOL    HW210555   4.264   3.598   3.982
 3513SOL     OW10556   3.973   3.647   4.965
 3513SOL    HW110557   4.030   3.582   5.015
 3513SOL    HW210558   3.957   3.614   4.872
 3514SOL     OW10559   4.664   3.560   4.628
 3514SOL    HW110560   4.744   3.503   4.649
 3514SOL    HW210561   4.615   3.520   4.551
 3515SOL     OW10562   4.106   2.562   4.204
 3515SOL    HW110563   4.151   2.472   4.201
 3515SOL    HW210564   4.012   2.551   4.237
 3516SOL     OW10565   4.338   1.984   3.841
 3516SOL    HW110566   4.436   1.962   3.848
 3516SOL    HW210567   4.307   1.967   3.748
 3517SOL     OW10568   4.527   3.264   4.648
 3517SOL    HW110569   4.617   3.278   4.606
 3517SOL    HW210570   4.456   3.266   4.577
 3518SOL     OW10571   4.646   2.365   4.623
 3518SOL    HW110572   4.621   2.356   4.527
 3518SOL    HW210573   4.694   2.283   4.654
 3519SOL     OW10574   4.263   1.926   4.236
 3519SOL    HW110575   4.182   1.927   4.294
 3519SOL    HW210576   4.266   2.009   4.181
 3520SOL     OW10577   4.021   1.897   3.895
 3520SOL    HW110578   4.070   1.981   3.874
 3520SOL    HW210579   4.083   1.832   3.940
 3521SOL     OW10580   4.659   2.098   4.204
 3521SOL    HW110581   4.611   2.139   4.126
 3521SOL    HW210582   4.758   2.096   4.185
 3522SOL     OW10583   4.951   3.432   4.517
 3522SOL    HW110584   4.972   3.506   4.452
 3522SOL    HW210585   5.019   3.432   4.590
 3523SOL     OW10586   4.183   3.014   4.465
 3523SOL    HW110587   4.112   2.987   4.530
 3523SOL    HW210588   4.157   2.986   4.372
 3524SOL     OW10589   4.756   2.411   3.740
 3524SOL    HW110590   4.715   2.493   3.701
 3524SOL    HW210591   4.820   2.437   3.813
 3525SOL     OW10592   4.590   2.316   4.366
 3525SOL    HW110593   4.558   2.388   4.304
 3525SOL    HW210594   4.614   2.235   4.313
 3526SOL     OW10595   4.741   1.901   4.477
 3526SOL    HW110596   4.669   1.906   4.408
 3526SOL    HW210597   4.717   1.832   4.546
 3527SOL     OW10598   4.212   3.247   3.898
 3527SOL    HW110599   4.125   3.232   3.945
 3527SOL    HW210600   4.195   3.273   3.803
 3528SOL     OW10601   4.251   2.118   4.052
 3528SOL    HW110602   4.278   2.059   3.977
 3528SOL    HW210603   4.251   2.213   4.021
 3529SOL     OW10604   4.429   2.912   4.092
 3529SOL    HW110605   4.415   2.919   4.191
 3529SOL    HW210606   4.513   2.861   4.074
 3530SOL     OW10607   4.134   2.675   4.975
 3530SOL    HW110608   4.220   2.687   5.025
 3530SOL    HW210609   4.092   2.588   5.002
 3531SOL     OW10610   4.091   2.962   4.225
 3531SOL    HW110611   4.084   3.045   4.169
 3531SOL    HW210612   4.095   2.882   4.165
 3532SOL     OW10613   4.290   2.399   4.589
 3532SOL    HW110614   4.302   2.465   4.515
 3532SOL    HW210615   4.336   2.433   4.672
 3533SOL     OW10616   4.297   2.732   4.753
 3533SOL    HW110617   4.341   2.821   4.744
 3533SOL    HW210618   4.234   2.732   4.830
 3534SOL     OW10619   4.933   2.387   3.999
 3534SOL    HW110620   4.946   2.303   4.053
 3534SOL    HW210621   4.904   2.461   4.059
 3535SOL     OW10622   4.031   2.075   4.955
 3535SOL    HW110623   4.008   2.112   5.045
 3535SOL    HW210624   4.001   1.980   4.949
 3536SOL     OW10625   4.456   2.496   4.788
 3536SOL    HW110626   4.515   2.470   4.712
 3536SOL    HW210627   4.428   2.592   4.777
 3537SOL     OW10628   4.031   1.925   4.342
 3537SOL    HW110629   4.020   2.019   4.375
 3537SOL    HW210630   4.026   1.862   4.419
 3538SOL     OW10631   4.747   2.628   4.690
 3538SOL    HW110632   4.762   2.649   4.786
 3538SOL    HW210633   4.717   2.533   4.681
 3539SOL     OW10634   4.792   3.195   4.573
 3539SOL    HW110635   4.799   3.111   4.518
 3539SOL    HW210636   4.854   3.264   4.537
 3540SOL     OW10637   4.043   2.672   4.673
 3540SOL    HW110638   4.136   2.708   4.678
 3540SOL    HW210639   4.037   2.587   4.725
 3541SOL     OW10640   4.063   2.371   4.730
 3541SOL    HW110641   4.011   2.288   4.713
 3541SOL    HW210642   4.140   2.376   4.666
 3542SOL     OW10643   3.732   3.188   3.924
 3542SOL    HW110644   3.639   3.209   3.893
 3542SOL    HW210645   3.742   3.089   3.937
 3543SOL     OW10646   3.812   3.663   4.651
 3543SOL    HW110647   3.770   3.577   4.624
 3543SOL    HW210648   3.906   3.666   4.617
 3544SOL     OW10649   4.228   3.430   4.634
 3544SOL    HW110650   4.294   3.504   4.643
 3544SOL    HW210651   4.272   3.351   4.592
 3545SOL     OW10652   4.726   2.658   4.962
 3545SOL    HW110653   4.767   2.626   5.048
 3545SOL    HW210654   4.630   2.631   4.959
 3546SOL     OW10655   3.764   2.406   4.838
 3546SOL    HW110656   3.849   2.373   4.797
 3546SOL    HW210657   3.777   2.421   4.936
 3547SOL     OW10658   4.539   2.434   4.049
 3547SOL    HW110659   4.546   2.345   4.003
 3547SOL    HW210660   4.445   2.468   4.041
 3548SOL     OW10661   4.395   2.326   4.993
 3548SOL    HW110662   4.361   2.237   4.963
 3548SOL    HW210663   4.421   2.380   4.913
 3549SOL     OW10664   4.197   2.362   3.915
 3549SOL    HW110665   4.258   2.442   3.919
 3549SOL    HW210666   4.102   2.393   3.922
 3550SOL     OW10667   5.026   2.717   4.033
 3550SOL    HW110668   4.940   2.686   4.075
 3550SOL    HW210669   5.022   2.703   3.934
 3551SOL     OW10670   3.807   3.120   4.746
 3551SOL    HW110671   3.802   3.119   4.846
 3551SOL    HW210672   3.724   3.079   4.708
 3552SOL     OW10673   4.396   3.478   3.878
 3552SOL    HW110674   4.405   3.488   3.779
 3552SOL    HW210675   4.356   3.389   3.899
 3553SOL     OW10676   3.987   2.188   4.444
 3553SOL    HW110677   3.908   2.239   4.410
 3553SOL    HW210678   3.978   2.173   4.542
 3554SOL     OW10679   4.640   2.772   4.015
 3554SOL    HW110680   4.703   2.810   3.947
 3554SOL    HW210681   4.680   2.689   4.054
 3555SOL     OW10682   4.763   2.960   4.420
 3555SOL    HW110683   4.693   2.913   4.474
 3555SOL    HW210684   4.822   2.892   4.377
 3556SOL     OW10685   4.738   2.098   4.695
 3556SOL    HW110686   4.730   2.062   4.602
 3556SOL    HW210687   4.736   2.022   4.760
 3557SOL     OW10688   4.314   3.349   4.215
 3557SOL    HW110689   4.356   3.291   4.145
 3557SOL    HW210690   4.270   3.428   4.171
 3558SOL     OW10691   3.979   3.210   4.014
 3558SOL    HW110692   3.883   3.211   3.987
 3558SOL    HW210693   3.991   3.263   4.098
 3559SOL     OW10694   3.799   2.207   3.757
 3559SOL    HW110695   3.707   2.179   3.728
 3559SOL    HW210696   3.830   2.284   3.701
 3560SOL     OW10697   3.796   2.028   4.042
 3560SOL    HW110698   3.779   2.111   3.988
 3560SOL    HW210699   3.886   1.991   4.020
 3561SOL     OW10700   4.318   2.607   4.376
 3561SOL    HW110701   4.368   2.692   4.357
 3561SOL    HW210702   4.230   2.609   4.328
 3562SOL     OW10703   4.583   3.236   3.740
 3562SOL    HW110704   4.537   3.251   3.828
 3562SOL    HW210705   4.627   3.321   3.710
 3563SOL     OW10706   4.385   3.652   4.677
 3563SOL    HW110707   4.339   3.740   4.664
 3563SOL    HW210708   4.484   3.664   4.670
 3564SOL     OW10709   4.583   2.818   4.585
 3564SOL    HW110710   4.637   2.749   4.633
 3564SOL    HW210711   4.551   2.887   4.651
 3565SOL     OW10712   4.807   2.846   3.811
 3565SOL    HW110713   4.784   2.899   3.729
 3565SOL    HW210714   4.888   2.790   3.792
 3566SOL     OW10715   3.803   3.102   4.377
 3566SOL    HW110716   3.802   3.055   4.465
 3566SOL    HW210717   3.885   3.074   4.326
 3567SOL     OW10718   4.152   2.286   4.244
 3567SOL    HW110719   4.182   2.214   4.182
 3567SOL    HW210720   4.113   2.246   4.327
 3568SOL     OW10721   4.536   3.448   4.411
 3568SOL    HW110722   4.568   3.458   4.317
 3568SOL    HW210723   4.457   3.386   4.413
 3569SOL     OW10724   4.494   3.192   4.025
 3569SOL    HW110725   4.448   3.105   4.042
 3569SOL    HW210726   4.585   3.189   4.066
 3570SOL     OW10727   3.763   2.939   4.024
 3570SOL    HW110728   3.862   2.928   4.015
 3570SOL    HW210729   3.723   2.853   4.056
 3571SOL     OW10730   4.599   3.508   4.061
 3571SOL    HW110731   4.522   3.473   4.007
 3571SOL    HW210732   4.567   3.579   4.123
 3572SOL     OW10733   3.954   4.352   0.113
 3572SOL    HW110734   3.861   4.350   0.150
 3572SOL    HW210735   3.955   4.313   0.021
 3573SOL     OW10736   3.949   3.999   0.996
 3573SOL    HW110737   3.984   3.982   1.088
 3573SOL    HW210738   3.861   3.954   0.984
 3574SOL     OW10739   3.743   4.092   0.647
 3574SOL    HW110740   3.661   4.135   0.686
 3574SOL    HW210741   3.715   4.019   0.584
 3575SOL     OW10742   4.492   4.868   1.023
 3575SOL    HW110743   4.414   4.885   1.083
 3575SOL    HW210744   4.526   4.955   0.987
 3576SOL     OW10745   4.574   4.522   1.823
 3576SOL    HW110746   4.570   4.598   1.888
 3576SOL    HW210747   4.596   4.558   1.732
 3577SOL     OW10748   4.409   4.736   0.665
 3577SOL    HW110749   4.478   4.720   0.735
 3577SOL    HW210750   4.336   4.793   0.703
 3578SOL     OW10751   4.162   4.116   1.499
 3578SOL    HW110752   4.244   4.060   1.508
 3578SOL    HW210753   4.081   4.058   1.503
 3579SOL     OW10754   3.954   5.158   0.538
 3579SOL    HW110755   3.928   5.254   0.538
 3579SOL    HW210756   3.883   5.104   0.583
 3580SOL     OW10757   3.964   4.815   0.886
 3580SOL    HW110758   3.978   4.731   0.938
 3580SOL    HW210759   3.909   4.879   0.941
 3581SOL     OW10760   4.330   4.688   0.123
 3581SOL    HW110761   4.337   4.772   0.069
 3581SOL    HW210762   4.376   4.701   0.211
 3582SOL     OW10763   3.846   4.367   0.563
 3582SOL    HW110764   3.801   4.279   0.580
 3582SOL    HW210765   3.845   4.421   0.647
 3583SOL     OW10766   3.837   4.461   1.597
 3583SOL    HW110767   3.925   4.448   1.642
 3583SOL    HW210768   3.824   4.558   1.575
 3584SOL     OW10769   4.533   3.728   0.502
 3584SOL    HW110770   4.573   3.819   0.493
 3584SOL    HW210771   4.433   3.736   0.508
 3585SOL     OW10772   3.921   4.700   1.264
 3585SOL    HW110773   4.010   4.655   1.250
 3585SOL    HW210774   3.848   4.635   1.245
 3586SOL     OW10775   4.041   3.975   1.801
 3586SOL    HW110776   4.112   4.046   1.807
 3586SOL    HW210777   3.953   4.014   1.829
 3587SOL     OW10778   4.322   4.453   0.270
 3587SOL    HW110779   4.346   4.522   0.202
 3587SOL    HW210780   4.244   4.486   0.324
 3588SOL     OW10781   4.531   4.329   1.465
 3588SOL    HW110782   4.484   4.326   1.554
 3588SOL    HW210783   4.480   4.274   1.399
 3589SOL     OW10784   4.697   4.614   1.572
 3589SOL    HW110785   4.743   4.530   1.543
 3589SOL    HW210786   4.641   4.648   1.497
 3590SOL     OW10787   4.715   4.134   1.242
 3590SOL    HW110788   4.638   4.168   1.296
 3590SOL    HW210789   4.681   4.083   1.163
 3591SOL     OW10790   4.765   4.425   0.429
 3591SOL    HW110791   4.791   4.421   0.525
 3591SOL    HW210792   4.680   4.374   0.415
 3592SOL     OW10793   3.800   4.535   0.789
 3592SOL    HW110794   3.899   4.523   0.798
 3592SOL    HW210795   3.776   4.630   0.810
 3593SOL     OW10796   4.589   4.072   0.195
 3593SOL    HW110797   4.648   4.135   0.146
 3593SOL    HW210798   4.608   3.978   0.166
 3594SOL     OW10799   4.274   3.920   0.885
 3594SOL    HW110800   4.269   3.915   0.985
 3594SOL    HW210801   4.276   4.016   0.856
 3595SOL     OW10802   4.045   4.667   0.242
 3595SOL    HW110803   4.127   4.706   0.200
 3595SOL    HW210804   4.018   4.585   0.193
 3596SOL     OW10805   3.926   4.009   1.498
 3596SOL    HW110806   3.846   4.069   1.485
 3596SOL    HW210807   3.916   3.960   1.584
 3597SOL     OW10808   4.106   4.424   0.480
 3597SOL    HW110809   4.151   4.334   0.477
 3597SOL    HW210810   4.012   4.413   0.513
 3598SOL     OW10811   4.338   3.846   0.117
 3598SOL    HW110812   4.436   3.824   0.124
 3598SOL    HW210813   4.307   3.829   0.024
 3599SOL     OW10814   4.505   3.988   1.749
 3599SOL    HW110815   4.572   3.927   1.792
 3599SOL    HW210816   4.432   4.007   1.814
 3600SOL     OW10817   4.646   4.227   0.899
 3600SOL    HW110818   4.621   4.218   0.803
 3600SOL    HW210819   4.694   4.145   0.930
 3601SOL     OW10820   4.263   3.788   0.512
 3601SOL    HW110821   4.182   3.789   0.570
 3601SOL    HW210822   4.266   3.871   0.457
 3602SOL     OW10823   4.659   3.960   0.480
 3602SOL    HW110824   4.611   4.001   0.402
 3602SOL    HW210825   4.758   3.958   0.461
 3603SOL     OW10826   4.756   4.273   0.016
 3603SOL    HW110827   4.715   4.355  -0.023
 3603SOL    HW210828   4.820   4.299   0.089
 3604SOL     OW10829   3.802   4.280   1.386
 3604SOL    HW110830   3.894   4.279   1.345
 3604SOL    HW210831   3.796   4.354   1.453
 3605SOL     OW10832   4.285   3.946   1.147
 3605SOL    HW110833   4.323   3.862   1.184
 3605SOL    HW210834   4.197   3.965   1.191
 3606SOL     OW10835   4.590   4.178   0.642
 3606SOL    HW110836   4.558   4.250   0.580
 3606SOL    HW210837   4.614   4.097   0.589
 3607SOL     OW10838   4.741   3.763   0.753
 3607SOL    HW110839   4.669   3.768   0.684
 3607SOL    HW210840   4.717   3.694   0.822
 3608SOL     OW10841   4.251   3.980   0.328
 3608SOL    HW110842   4.278   3.921   0.253
 3608SOL    HW210843   4.251   4.075   0.297
 3609SOL     OW10844   4.639   3.813   1.402
 3609SOL    HW110845   4.664   3.793   1.307
 3609SOL    HW210846   4.711   3.869   1.444
 3610SOL     OW10847   4.134   4.537   1.251
 3610SOL    HW110848   4.220   4.549   1.301
 3610SOL    HW210849   4.092   4.450   1.278
 3611SOL     OW10850   4.290   4.261   0.865
 3611SOL    HW110851   4.302   4.327   0.791
 3611SOL    HW210852   4.336   4.295   0.948
 3612SOL     OW10853   4.126   4.475   1.598
 3612SOL    HW110854   4.194   4.530   1.551
 3612SOL    HW210855   4.166   4.387   1.625
 3613SOL     OW10856   4.737   3.829   1.770
 3613SOL    HW110857   4.743   3.914   1.718
 3613SOL    HW210858   4.769   3.753   1.713
 3614SOL     OW10859   4.228   3.774   1.740
 3614SOL    HW110860   4.186   3.717   1.670
 3614SOL    HW210861   4.162   3.843   1.772
 3615SOL     OW10862   4.297   4.594   1.029
 3615SOL    HW110863   4.341   4.683   1.020
 3615SOL    HW210864   4.234   4.594   1.106
 3616SOL     OW10865   4.933   4.249   0.275
 3616SOL    HW110866   4.946   4.165   0.329
 3616SOL    HW210867   4.904   4.323   0.335
 3617SOL     OW10868   4.031   3.937   1.231
 3617SOL    HW110869   4.008   3.974   1.321
 3617SOL    HW210870   4.001   3.842   1.225
 3618SOL     OW10871   4.456   4.358   1.064
 3618SOL    HW110872   4.515   4.332   0.988
 3618SOL    HW210873   4.428   4.454   1.053
 3619SOL     OW10874   4.031   3.787   0.618
 3619SOL    HW110875   4.020   3.881   0.651
 3619SOL    HW210876   4.026   3.724   0.695
 3620SOL     OW10877   4.747   4.490   0.966
 3620SOL    HW110878   4.762   4.511   1.062
 3620SOL    HW210879   4.717   4.395   0.957
 3621SOL     OW10880   4.074   4.622   1.804
 3621SOL    HW110881   4.150   4.666   1.852
 3621SOL    HW210882   4.109   4.575   1.722
 3622SOL     OW10883   4.043   4.534   0.949
 3622SOL    HW110884   4.136   4.570   0.954
 3622SOL    HW210885   4.037   4.449   1.001
 3623SOL     OW10886   4.063   4.233   1.006
 3623SOL    HW110887   4.011   4.150   0.989
 3623SOL    HW210888   4.140   4.238   0.942
 3624SOL     OW10889   4.862   4.104   1.678
 3624SOL    HW110890   4.817   4.167   1.742
 3624SOL    HW210891   4.955   4.135   1.661
 3625SOL     OW10892   4.884   3.931   1.477
 3625SOL    HW110893   4.884   3.995   1.554
 3625SOL    HW210894   4.912   3.979   1.394
 3626SOL     OW10895   4.726   4.520   1.238
 3626SOL    HW110896   4.767   4.488   1.324
 3626SOL    HW210897   4.630   4.493   1.235
 3627SOL     OW10898   3.764   4.268   1.114
 3627SOL    HW110899   3.849   4.235   1.073
 3627SOL    HW210900   3.777   4.283   1.212
 3628SOL     OW10901   3.913   4.244   1.722
 3628SOL    HW110902   3.972   4.204   1.652
 3628SOL    HW210903   3.855   4.315   1.681
 3629SOL     OW10904   4.539   4.296   0.325
 3629SOL    HW110905   4.546   4.207   0.279
 3629SOL    HW210906   4.445   4.330   0.317
 3630SOL     OW10907   4.395   4.188   1.269
 3630SOL    HW110908   4.361   4.099   1.239
 3630SOL    HW210909   4.421   4.242   1.189
 3631SOL     OW10910   4.197   4.224   0.191
 3631SOL    HW110911   4.258   4.304   0.195
 3631SOL    HW210912   4.102   4.255   0.198
 3632SOL     OW10913   3.883   4.861   1.466
 3632SOL    HW110914   3.905   4.800   1.542
 3632SOL    HW210915   3.893   4.812   1.380
 3633SOL     OW10916   5.026   4.579   0.309
 3633SOL    HW110917   4.940   4.548   0.351
 3633SOL    HW210918   5.022   4.565   0.210
 3634SOL     OW10919   4.627   3.810   0.133
 3634SOL    HW110920   4.678   3.811   0.047
 3634SOL    HW210921   4.683   3.768   0.204
 3635SOL     OW10922   3.987   4.050   0.720
 3635SOL    HW110923   3.908   4.101   0.686
 3635SOL    HW210924   3.978   4.035   0.818
 3636SOL     OW10925   4.546   4.726   1.372
 3636SOL    HW110926   4.586   4.725   1.280
 3636SOL    HW210927   4.556   4.818   1.412
 3637SOL     OW10928   4.640   4.634   0.291
 3637SOL    HW110929   4.703   4.672   0.223
 3637SOL    HW210930   4.680   4.551   0.330
 3638SOL     OW10931   4.738   3.960   0.971
 3638SOL    HW110932   4.730   3.924   0.878
 3638SOL    HW210933   4.736   3.884   1.036
 3639SOL     OW10934   3.829   4.737   1.726
 3639SOL    HW110935   3.752   4.704   1.780
 3639SOL    HW210936   3.914   4.707   1.768
 3640SOL     OW10937   4.396   3.927   1.489
 3640SOL    HW110938   4.486   3.911   1.449
 3640SOL    HW210939   4.404   3.932   1.588
 3641SOL     OW10940   3.796   3.890   0.318
 3641SOL    HW110941   3.779   3.973   0.264
 3641SOL    HW210942   3.886   3.853   0.296
 3642SOL     OW10943   4.337   4.566   1.431
 3642SOL    HW110944   4.393   4.647   1.414
 3642SOL    HW210945   4.396   4.486   1.434
 3643SOL     OW10946   4.440   4.289   1.708
 3643SOL    HW110947   4.459   4.354   1.782
 3643SOL    HW210948   4.500   4.209   1.717
 3644SOL     OW10949   4.318   4.469   0.652
 3644SOL    HW110950   4.368   4.554   0.633
 3644SOL    HW210951   4.230   4.471   0.604
 3645SOL     OW10952   4.583   4.680   0.861
 3645SOL    HW110953   4.637   4.611   0.909
 3645SOL    HW210954   4.551   4.749   0.927
 3646SOL     OW10955   4.807   4.708   0.087
 3646SOL    HW110956   4.784   4.761   0.005
 3646SOL    HW210957   4.888   4.652   0.068
 3647SOL     OW10958   4.152   4.148   0.520
 3647SOL    HW110959   4.182   4.076   0.458
 3647SOL    HW210960   4.113   4.108   0.603
 3648SOL     OW10961   4.041   4.271   1.280
 3648SOL    HW110962   4.079   4.212   1.352
 3648SOL    HW210963   4.081   4.245   1.192
 3649SOL     OW10964   4.725   3.758   1.154
 3649SOL    HW110965   4.662   3.686   1.123
 3649SOL    HW210966   4.818   3.722   1.154
 3650SOL     OW10967   3.763   4.801   0.300
 3650SOL    HW110968   3.862   4.790   0.291
 3650SOL    HW210969   3.723   4.715   0.332
 3651SOL     OW10970   3.954   4.352   1.975
 3651SOL    HW110971   3.861   4.350   2.012
 3651SOL    HW210972   3.955   4.313   1.883
 3652SOL     OW10973   3.949   3.999   2.858
 3652SOL    HW110974   3.984   3.982   2.950
 3652SOL    HW210975   3.861   3.954   2.846
 3653SOL     OW10976   3.743   4.092   2.509
 3653SOL    HW110977   3.661   4.135   2.548
 3653SOL    HW210978   3.715   4.019   2.446
 3654SOL     OW10979   4.492   4.868   2.885
 3654SOL    HW110980   4.414   4.885   2.945
 3654SOL    HW210981   4.526   4.955   2.849
 3655SOL     OW10982   4.574   4.522   3.685
 3655SOL    HW110983   4.570   4.598   3.750
 3655SOL    HW210984   4.596   4.558   3.594
 3656SOL     OW10985   4.409   4.736   2.527
 3656SOL    HW110986   4.478   4.720   2.597
 3656SOL    HW210987   4.336   4.793   2.565
 3657SOL     OW10988   4.162   4.116   3.361
 3657SOL    HW110989   4.244   4.060   3.370
 3657SOL    HW210990   4.081   4.058   3.365
 3658SOL     OW10991   3.954   5.158   2.400
 3658SOL    HW110992   3.928   5.254   2.400
 3658SOL    HW210993   3.883   5.104   2.445
 3659SOL     OW10994   3.964   4.815   2.748
 3659SOL    HW110995   3.978   4.731   2.800
 3659SOL    HW210996   3.909   4.879   2.803
 3660SOL     OW10997   4.330   4.688   1.985
 3660SOL    HW110998   4.337   4.772   1.931
 3660SOL    HW210999   4.376   4.701   2.073
 3661SOL     OW11000   3.846   4.367   2.425
 3661SOL    HW111001   3.801   4.279   2.442
 3661SOL    HW211002   3.845   4.421   2.509
 3662SOL     OW11003   3.837   4.461   3.459
 3662SOL    HW111004   3.925   4.448   3.504
 3662SOL    HW211005   3.824   4.558   3.437
 3663SOL     OW11006   4.533   3.728   2.364
 3663SOL    HW111007   4.573   3.819   2.355
 3663SOL    HW211008   4.433   3.736   2.370
 3664SOL     OW11009   3.921   4.700   3.126
 3664SOL    HW111010   4.010   4.655   3.112
 3664SOL    HW211011   3.848   4.635   3.107
 3665SOL     OW11012   4.041   3.975   3.663
 3665SOL    HW111013   4.112   4.046   3.669
 3665SOL    HW211014   3.953   4.014   3.691
 3666SOL     OW11015   4.322   4.453   2.132
 3666SOL    HW111016   4.346   4.522   2.064
 3666SOL    HW211017   4.244   4.486   2.186
 3667SOL     OW11018   4.531   4.329   3.327
 3667SOL    HW111019   4.484   4.326   3.416
 3667SOL    HW211020   4.480   4.274   3.261
 3668SOL     OW11021   4.697   4.614   3.434
 3668SOL    HW111022   4.743   4.530   3.405
 3668SOL    HW211023   4.641   4.648   3.359
 3669SOL     OW11024   4.715   4.134   3.104
 3669SOL    HW111025   4.638   4.168   3.158
 3669SOL    HW211026   4.681   4.083   3.025
 3670SOL     OW11027   4.765   4.425   2.291
 3670SOL    HW111028   4.791   4.421   2.387
 3670SOL    HW211029   4.680   4.374   2.277
 3671SOL     OW11030   3.800   4.535   2.651
 3671SOL    HW111031   3.899   4.523   2.660
 3671SOL    HW211032   3.776   4.630   2.672
 3672SOL     OW11033   4.589   4.072   2.057
 3672SOL    HW111034   4.648   4.135   2.008
 3672SOL    HW211035   4.608   3.978   2.028
 3673SOL     OW11036   4.274   3.920   2.747
 3673SOL    HW111037   4.269   3.915   2.847
 3673SOL    HW211038   4.276   4.016   2.718
 3674SOL     OW11039   4.045   4.667   2.104
 3674SOL    HW111040   4.127   4.706   2.062
 3674SOL    HW211041   4.018   4.585   2.055
 3675SOL     OW11042   3.926   4.009   3.360
 3675SOL    HW111043   3.846   4.069   3.347
 3675SOL    HW211044   3.916   3.960   3.446
 3676SOL     OW11045   4.106   4.424   2.342
 3676SOL    HW111046   4.151   4.334   2.339
 3676SOL    HW211047   4.012   4.413   2.375
 3677SOL     OW11048   4.338   3.846   1.979
 3677SOL    HW111049   4.436   3.824   1.986
 3677SOL    HW211050   4.307   3.829   1.886
 3678SOL     OW11051   4.505   3.988   3.611
 3678SOL    HW111052   4.572   3.927   3.654
 3678SOL    HW211053   4.432   4.007   3.676
 3679SOL     OW11054   4.646   4.227   2.761
 3679SOL    HW111055   4.621   4.218   2.665
 3679SOL    HW211056   4.694   4.145   2.792
 3680SOL     OW11057   4.263   3.788   2.374
 3680SOL    HW111058   4.182   3.789   2.432
 3680SOL    HW211059   4.266   3.871   2.319
 3681SOL     OW11060   4.021   3.759   2.033
 3681SOL    HW111061   4.070   3.843   2.012
 3681SOL    HW211062   4.083   3.694   2.078
 3682SOL     OW11063   4.659   3.960   2.342
 3682SOL    HW111064   4.611   4.001   2.264
 3682SOL    HW211065   4.758   3.958   2.323
 3683SOL     OW11066   4.756   4.273   1.878
 3683SOL    HW111067   4.715   4.355   1.839
 3683SOL    HW211068   4.820   4.299   1.951
 3684SOL     OW11069   3.802   4.280   3.248
 3684SOL    HW111070   3.894   4.279   3.207
 3684SOL    HW211071   3.796   4.354   3.315
 3685SOL     OW11072   4.285   3.946   3.009
 3685SOL    HW111073   4.323   3.862   3.046
 3685SOL    HW211074   4.197   3.965   3.053
 3686SOL     OW11075   4.590   4.178   2.504
 3686SOL    HW111076   4.558   4.250   2.442
 3686SOL    HW211077   4.614   4.097   2.451
 3687SOL     OW11078   4.741   3.763   2.615
 3687SOL    HW111079   4.669   3.768   2.546
 3687SOL    HW211080   4.717   3.694   2.684
 3688SOL     OW11081   4.251   3.980   2.190
 3688SOL    HW111082   4.278   3.921   2.115
 3688SOL    HW211083   4.251   4.075   2.159
 3689SOL     OW11084   4.639   3.813   3.264
 3689SOL    HW111085   4.664   3.793   3.169
 3689SOL    HW211086   4.711   3.869   3.306
 3690SOL     OW11087   4.134   4.537   3.113
 3690SOL    HW111088   4.220   4.549   3.163
 3690SOL    HW211089   4.092   4.450   3.140
 3691SOL     OW11090   4.290   4.261   2.727
 3691SOL    HW111091   4.302   4.327   2.653
 3691SOL    HW211092   4.336   4.295   2.810
 3692SOL     OW11093   4.126   4.475   3.460
 3692SOL    HW111094   4.194   4.530   3.413
 3692SOL    HW211095   4.166   4.387   3.487
 3693SOL     OW11096   4.737   3.829   3.632
 3693SOL    HW111097   4.743   3.914   3.580
 3693SOL    HW211098   4.769   3.753   3.575
 3694SOL     OW11099   4.228   3.774   3.602
 3694SOL    HW111100   4.186   3.717   3.532
 3694SOL    HW211101   4.162   3.843   3.634
 3695SOL     OW11102   4.297   4.594   2.891
 3695SOL    HW111103   4.341   4.683   2.882
 3695SOL    HW211104   4.234   4.594   2.968
 3696SOL     OW11105   4.933   4.249   2.137
 3696SOL    HW111106   4.946   4.165   2.191
 3696SOL    HW211107   4.904   4.323   2.197
 3697SOL     OW11108   4.031   3.937   3.093
 3697SOL    HW111109   4.008   3.974   3.183
 3697SOL    HW211110   4.001   3.842   3.087
 3698SOL     OW11111   4.456   4.358   2.926
 3698SOL    HW111112   4.515   4.332   2.850
 3698SOL    HW211113   4.428   4.454   2.915
 3699SOL     OW11114   4.031   3.787   2.480
 3699SOL    HW111115   4.020   3.881   2.513
 3699SOL    HW211116   4.026   3.724   2.557
 3700SOL     OW11117   4.747   4.490   2.828
 3700SOL    HW111118   4.762   4.511   2.924
 3700SOL    HW211119   4.717   4.395   2.819
 3701SOL     OW11120   4.074   4.622   3.666
 3701SOL    HW111121   4.150   4.666   3.714
 3701SOL    HW211122   4.109   4.575   3.584
 3702SOL     OW11123   4.043   4.534   2.811
 3702SOL    HW111124   4.136   4.570   2.816
 3702SOL    HW211125   4.037   4.449   2.863
 3703SOL     OW11126   4.063   4.233   2.868
 3703SOL    HW111127   4.011   4.150   2.851
 3703SOL    HW211128   4.140   4.238   2.804
 3704SOL     OW11129   4.862   4.104   3.540
 3704SOL    HW111130   4.817   4.167   3.604
 3704SOL    HW211131   4.955   4.135   3.523
 3705SOL     OW11132   4.884   3.931   3.339
 3705SOL    HW111133   4.884   3.995   3.416
 3705SOL    HW211134   4.912   3.979   3.256
 3706SOL     OW11135   4.726   4.520   3.100
 3706SOL    HW111136   4.767   4.488   3.186
 3706SOL    HW211137   4.630   4.493   3.097
 3707SOL     OW11138   3.764   4.268   2.976
 3707SOL    HW111139   3.849   4.235   2.935
 3707SOL    HW211140   3.777   4.283   3.074
 3708SOL     OW11141   3.913   4.244   3.584
 3708SOL    HW111142   3.972   4.204   3.514
 3708SOL    HW211143   3.855   4.315   3.543
 3709SOL     OW11144   4.539   4.296   2.187
 3709SOL    HW111145   4.546   4.207   2.141
 3709SOL    HW211146   4.445   4.330   2.179
 3710SOL     OW11147   4.395   4.188   3.131
 3710SOL    HW111148   4.361   4.099   3.101
 3710SOL    HW211149   4.421   4.242   3.051
 3711SOL     OW11150   4.197   4.224   2.053
 3711SOL    HW111151   4.258   4.304   2.057
 3711SOL    HW211152   4.102   4.255   2.060
 3712SOL     OW11153   3.883   4.861   3.328
 3712SOL    HW111154   3.905   4.800   3.404
 3712SOL    HW211155   3.893   4.812   3.242
 3713SOL     OW11156   5.026   4.579   2.171
 3713SOL    HW111157   4.940   4.548   2.213
 3713SOL    HW211158   5.022   4.565   2.072
 3714SOL     OW11159   3.987   4.050   2.582
 3714SOL    HW111160   3.908   4.101   2.548
 3714SOL    HW211161   3.978   4.035   2.680
 3715SOL     OW11162   4.546   4.726   3.234
 3715SOL    HW111163   4.586   4.725   3.142
 3715SOL    HW211164   4.556   4.818   3.274
 3716SOL     OW11165   4.640   4.634   2.153
 3716SOL    HW111166   4.703   4.672   2.085
 3716SOL    HW211167   4.680   4.551   2.192
 3717SOL     OW11168   4.738   3.960   2.833
 3717SOL    HW111169   4.730   3.924   2.740
 3717SOL    HW211170   4.736   3.884   2.898
 3718SOL     OW11171   3.829   4.737   3.588
 3718SOL    HW111172   3.752   4.704   3.642
 3718SOL    HW211173   3.914   4.707   3.630
 3719SOL     OW11174   4.396   3.927   3.351
 3719SOL    HW111175   4.486   3.911   3.311
 3719SOL    HW211176   4.404   3.932   3.450
 3720SOL     OW11177   3.799   4.069   1.895
 3720SOL    HW111178   3.707   4.041   1.866
 3720SOL    HW211179   3.830   4.146   1.839
 3721SOL     OW11180   3.796   3.890   2.180
 3721SOL    HW111181   3.779   3.973   2.126
 3721SOL    HW211182   3.886   3.853   2.158
 3722SOL     OW11183   4.337   4.566   3.293
 3722SOL    HW111184   4.393   4.647   3.276
 3722SOL    HW211185   4.396   4.486   3.296
 3723SOL     OW11186   4.440   4.289   3.570
 3723SOL    HW111187   4.459   4.354   3.644
 3723SOL    HW211188   4.500   4.209   3.579
 3724SOL     OW11189   4.318   4.469   2.514
 3724SOL    HW111190   4.368   4.554   2.495
 3724SOL    HW211191   4.230   4.471   2.466
 3725SOL     OW11192   4.583   4.680   2.723
 3725SOL    HW111193   4.637   4.611   2.771
 3725SOL    HW211194   4.551   4.749   2.789
 3726SOL     OW11195   4.807   4.708   1.949
 3726SOL    HW111196   4.784   4.761   1.867
 3726SOL    HW211197   4.888   4.652   1.930
 3727SOL     OW11198   4.152   4.148   2.382
 3727SOL    HW111199   4.182   4.076   2.320
 3727SOL    HW211200   4.113   4.108   2.465
 3728SOL     OW11201   4.041   4.271   3.142
 3728SOL    HW111202   4.079   4.212   3.214
 3728SOL    HW211203   4.081   4.245   3.054
 3729SOL     OW11204   4.725   3.758   3.016
 3729SOL    HW111205   4.662   3.686   2.985
 3729SOL    HW211206   4.818   3.722   3.016
 3730SOL     OW11207   3.763   4.801   2.162
 3730SOL    HW111208   3.862   4.790   2.153
 3730SOL    HW211209   3.723   4.715   2.194
 3731SOL     OW11210   3.954   4.352   3.837
 3731SOL    HW111211   3.861   4.350   3.874
 3731SOL    HW211212   3.955   4.313   3.745
 3732SOL     OW11213   3.949   3.999   4.720
 3732SOL    HW111214   3.984   3.982   4.812
 3732SOL    HW211215   3.861   3.954   4.708
 3733SOL     OW11216   3.743   4.092   4.371
 3733SOL    HW111217   3.661   4.135   4.410
 3733SOL    HW211218   3.715   4.019   4.308
 3734SOL     OW11219   4.492   4.868   4.747
 3734SOL    HW111220   4.414   4.885   4.807
 3734SOL    HW211221   4.526   4.955   4.711
 3735SOL     OW11222   4.409   4.736   4.389
 3735SOL    HW111223   4.478   4.720   4.459
 3735SOL    HW211224   4.336   4.793   4.427
 3736SOL     OW11225   3.954   5.158   4.262
 3736SOL    HW111226   3.928   5.254   4.262
 3736SOL    HW211227   3.883   5.104   4.307
 3737SOL     OW11228   3.964   4.815   4.610
 3737SOL    HW111229   3.978   4.731   4.662
 3737SOL    HW211230   3.909   4.879   4.665
 3738SOL     OW11231   4.330   4.688   3.847
 3738SOL    HW111232   4.337   4.772   3.793
 3738SOL    HW211233   4.376   4.701   3.935
 3739SOL     OW11234   3.846   4.367   4.287
 3739SOL    HW111235   3.801   4.279   4.304
 3739SOL    HW211236   3.845   4.421   4.371
 3740SOL     OW11237   4.533   3.728   4.226
 3740SOL    HW111238   4.573   3.819   4.217
 3740SOL    HW211239   4.433   3.736   4.232
 3741SOL     OW11240   4.322   4.453   3.994
 3741SOL    HW111241   4.346   4.522   3.926
 3741SOL    HW211242   4.244   4.486   4.048
 3742SOL     OW11243   4.765   4.425   4.153
 3742SOL    HW111244   4.791   4.421   4.249
 3742SOL    HW211245   4.680   4.374   4.139
 3743SOL     OW11246   3.800   4.535   4.513
 3743SOL    HW111247   3.899   4.523   4.522
 3743SOL    HW211248   3.776   4.630   4.534
 3744SOL     OW11249   4.589   4.072   3.919
 3744SOL    HW111250   4.648   4.135   3.870
 3744SOL    HW211251   4.608   3.978   3.890
 3745SOL     OW11252   4.274   3.920   4.609
 3745SOL    HW111253   4.269   3.915   4.709
 3745SOL    HW211254   4.276   4.016   4.580
 3746SOL     OW11255   4.045   4.667   3.966
 3746SOL    HW111256   4.127   4.706   3.924
 3746SOL    HW211257   4.018   4.585   3.917
 3747SOL     OW11258   4.106   4.424   4.204
 3747SOL    HW111259   4.151   4.334   4.201
 3747SOL    HW211260   4.012   4.413   4.237
 3748SOL     OW11261   4.338   3.846   3.841
 3748SOL    HW111262   4.436   3.824   3.848
 3748SOL    HW211263   4.307   3.829   3.748
 3749SOL     OW11264   4.646   4.227   4.623
 3749SOL    HW111265   4.621   4.218   4.527
 3749SOL    HW211266   4.694   4.145   4.654
 3750SOL     OW11267   4.263   3.788   4.236
 3750SOL    HW111268   4.182   3.789   4.294
 3750SOL    HW211269   4.266   3.871   4.181
 3751SOL     OW11270   4.021   3.759   3.895
 3751SOL    HW111271   4.070   3.843   3.874
 3751SOL    HW211272   4.083   3.694   3.940
 3752SOL     OW11273   4.659   3.960   4.204
 3752SOL    HW111274   4.611   4.001   4.126
 3752SOL    HW211275   4.758   3.958   4.185
 3753SOL     OW11276   4.756   4.273   3.740
 3753SOL    HW111277   4.715   4.355   3.701
 3753SOL    HW211278   4.820   4.299   3.813
 3754SOL     OW11279   4.590   4.178   4.366
 3754SOL    HW111280   4.558   4.250   4.304
 3754SOL    HW211281   4.614   4.097   4.313
 3755SOL     OW11282   4.741   3.763   4.477
 3755SOL    HW111283   4.669   3.768   4.408
 3755SOL    HW211284   4.717   3.694   4.546
 3756SOL     OW11285   4.251   3.980   4.052
 3756SOL    HW111286   4.278   3.921   3.977
 3756SOL    HW211287   4.251   4.075   4.021
 3757SOL     OW11288   4.134   4.537   4.975
 3757SOL    HW111289   4.220   4.549   5.025
 3757SOL    HW211290   4.092   4.450   5.002
 3758SOL     OW11291   4.290   4.261   4.589
 3758SOL    HW111292   4.302   4.327   4.515
 3758SOL    HW211293   4.336   4.295   4.672
 3759SOL     OW11294   4.297   4.594   4.753
 3759SOL    HW111295   4.341   4.683   4.744
 3759SOL    HW211296   4.234   4.594   4.830
 3760SOL     OW11297   4.933   4.249   3.999
 3760SOL    HW111298   4.946   4.165   4.053
 3760SOL    HW211299   4.904   4.323   4.059
 3761SOL     OW11300   4.031   3.937   4.955
 3761SOL    HW111301   4.008   3.974   5.045
 3761SOL    HW211302   4.001   3.842   4.949
 3762SOL     OW11303   4.456   4.358   4.788
 3762SOL    HW111304   4.515   4.332   4.712
 3762SOL    HW211305   4.428   4.454   4.777
 3763SOL     OW11306   4.031   3.787   4.342
 3763SOL    HW111307   4.020   3.881   4.375
 3763SOL    HW211308   4.026   3.724   4.419
 3764SOL     OW11309   4.747   4.490   4.690
 3764SOL    HW111310   4.762   4.511   4.786
 3764SOL    HW211311   4.717   4.395   4.681
 3765SOL     OW11312   4.043   4.534   4.673
 3765SOL    HW111313   4.136   4.570   4.678
 3765SOL    HW211314   4.037   4.449   4.725
 3766SOL     OW11315   4.063   4.233   4.730
 3766SOL    HW111316   4.011   4.150   4.713
 3766SOL    HW211317   4.140   4.238   4.666
 3767SOL     OW11318   4.726   4.520   4.962
 3767SOL    HW111319   4.767   4.488   5.048
 3767SOL    HW211320   4.630   4.493   4.959
 3768SOL     OW11321   3.764   4.268   4.838
 3768SOL    HW111322   3.849   4.235   4.797
 3768SOL    HW211323   3.777   4.283   4.936
 3769SOL     OW11324   4.539   4.296   4.049
 3769SOL    HW111325   4.546   4.207   4.003
 3769SOL    HW211326   4.445   4.330   4.041
 3770SOL     OW11327   4.395   4.188   4.993
 3770SOL    HW111328   4.361   4.099   4.963
 3770SOL    HW211329   4.421   4.242   4.913
 3771SOL     OW11330   4.197   4.224   3.915
 3771SOL    HW111331   4.258   4.304   3.919
 3771SOL    HW211332   4.102   4.255   3.922
 3772SOL     OW11333   5.071   4.783   4.958
 3772SOL    HW111334   5.095   4.720   4.884
 3772SOL    HW211335   4.981   4.823   4.940
 3773SOL     OW11336   5.026   4.579   4.033
 3773SOL    HW111337   4.940   4.548   4.075
 3773SOL    HW211338   5.022   4.565   3.934
 3774SOL     OW11339   3.987   4.050   4.444
 3774SOL    HW111340   3.908   4.101   4.410
 3774SOL    HW211341   3.978   4.035   4.542
 3775SOL     OW11342   4.640   4.634   4.015
 3775SOL    HW111343   4.703   4.672   3.947
 3775SOL    HW211344   4.680   4.551   4.054
 3776SOL     OW11345   4.738   3.960   4.695
 3776SOL    HW111346   4.730   3.924   4.602
 3776SOL    HW211347   4.736   3.884   4.760
 3777SOL     OW11348   3.799   4.069   3.757
 3777SOL    HW111349   3.707   4.041   3.728
 3777SOL    HW211350   3.830   4.146   3.701
 3778SOL     OW11351   3.796   3.890   4.042
 3778SOL    HW111352   3.779   3.973   3.988
 3778SOL    HW211353   3.886   3.853   4.020
 3779SOL     OW11354   4.318   4.469   4.376
 3779SOL    HW111355   4.368   4.554   4.357
 3779SOL    HW211356   4.230   4.471   4.328
 3780SOL     OW11357   4.583   4.680   4.585
 3780SOL    HW111358   4.637   4.611   4.633
 3780SOL    HW211359   4.551   4.749   4.651
 3781SOL     OW11360   4.807   4.708   3.811
 3781SOL    HW111361   4.784   4.761   3.729
 3781SOL    HW211362   4.888   4.652   3.792
 3782SOL     OW11363   4.152   4.148   4.244
 3782SOL    HW111364   4.182   4.076   4.182
 3782SOL    HW211365   4.113   4.108   4.327
 3783SOL     OW11366   3.763   4.801   4.024
 3783SOL    HW111367   3.862   4.790   4.015
 3783SOL    HW211368   3.723   4.715   4.056
   4.87317   4.87317   4.87317
