mobley_755351_GMX.gro created by acpype (v: 2023.10.27) on Wed May 20 23:56:23 2026
 18
    1  MOL   C1    1   0.083  -0.040   0.057
    1  MOL   C2    2   0.190  -0.101  -0.008
    1  MOL   C3    3   0.084  -0.028   0.197
    1  MOL   C4    4   0.297  -0.141   0.205
    1  MOL   C5    5   0.297  -0.152   0.066
    1  MOL   C6    6   0.190  -0.079   0.270
    1  MOL   C7    7   0.079  -0.004   0.466
    1  MOL   N1    8   0.405  -0.215   0.000
    1  MOL   O1    9   0.191  -0.068   0.406
    1  MOL   H1   10  -0.000  -0.000   0.000
    1  MOL   H2   11   0.189  -0.110  -0.116
    1  MOL   H3   12   0.000   0.020   0.247
    1  MOL   H4   13   0.380  -0.180   0.263
    1  MOL   H5   14  -0.000  -0.077   0.485
    1  MOL   H6   15   0.042   0.075   0.400
    1  MOL   H7   16   0.110   0.041   0.561
    1  MOL   H8   17   0.386  -0.277  -0.076
    1  MOL   H9   18   0.497  -0.203   0.037
    9.94600     7.03000    13.54200
