3_methoxyaniline
    18
   0.8320000  -0.3950000   0.5750000   1.8990000  -1.0140000  -0.0770000
   0.8350000  -0.2830000   1.9660000   2.9710000  -1.4090000   2.0520000
   2.9680000  -1.5200000   0.6620000   1.9040000  -0.7900000   2.7040000
   0.7850000  -0.0360000   4.6620000   4.0480000  -2.1450000   0.0030000
   1.9070000  -0.6800000   4.0610000  -0.0000000  -0.0010000   0.0000000
   1.8870000  -1.0960000  -1.1610000   0.0010000   0.2000000   2.4680000
   3.8020000  -1.8020000   2.6320000  -0.0010000  -0.7710000   4.8490000
   0.4150000   0.7490000   3.9980000   1.0970000   0.4090000   5.6100000
   3.8610000  -2.7660000  -0.7580000   4.9720000  -2.0310000   0.3660000
