; mobley_755351_GMX_OPLS.top created by acpype (v: 2023.10.27) on Wed May 20 23:56:23 2026

; Include forcefield parameters
#include "ffoplsaa.itp"

; Include mobley_755351_GMX.itp topology
#include "mobley_755351_GMX.itp"

; Ligand position restraints
#ifdef POSRES_LIG
#include "posre_mobley_755351.itp"
#endif

[ system ]
 mobley_755351

[ molecules ]
; Compound        nmols
 mobley_755351    1     
