mobley_7326982_GMX.gro created by acpype (v: 2023.10.27) on Wed May 20 23:56:23 2026
   12
    1MOL     C1    1   2.150   2.137   2.134
    1MOL     C2    2   2.326   2.236   2.284
    1MOL     C3    3   2.177   2.224   2.255
    1MOL     O1    4   2.123   2.354   2.233
    1MOL     H1    5   2.187   2.035   2.148
    1MOL     H2    6   2.042   2.132   2.114
    1MOL     H3    7   2.196   2.179   2.044
    1MOL     H4    8   2.371   2.138   2.304
    1MOL     H5    9   2.343   2.301   2.370
    1MOL     H6   10   2.379   2.282   2.199
    1MOL     H7   11   2.127   2.182   2.343
    1MOL     H8   12   2.155   2.383   2.147
   4.42977   4.42977   4.42977
