mobley_3040612_GMX.gro created by acpype (v: 2023.10.27) on Wed May 20 23:59:15 2026
   21
    1MOL     C1    1   2.556   2.254   2.207
    1MOL     C2    2   2.463   2.319   2.126
    1MOL     C3    3   2.544   2.261   2.346
    1MOL     C4    4   2.360   2.392   2.183
    1MOL     C5    5   2.440   2.334   2.403
    1MOL     C6    6   2.348   2.400   2.322
    1MOL     C7    7   2.430   2.340   2.552
    1MOL     C8    8   2.123   2.389   2.433
    1MOL     C9    9   2.236   2.479   2.382
    1MOL     H1   10   2.637   2.197   2.162
    1MOL     H2   11   2.472   2.314   2.017
    1MOL     H3   12   2.617   2.209   2.408
    1MOL     H4   13   2.288   2.443   2.119
    1MOL     H5   14   2.487   2.426   2.591
    1MOL     H6   15   2.325   2.350   2.584
    1MOL     H7   16   2.469   2.249   2.599
    1MOL     H8   17   2.084   2.325   2.353
    1MOL     H9   18   2.041   2.450   2.472
    1MOL    H10   19   2.158   2.324   2.514
    1MOL    H11   20   2.273   2.541   2.464
    1MOL    H12   21   2.195   2.549   2.307
   4.71786   4.71786   4.71786
