mobley_3040612_GMX.gro created by acpype (v: 2023.10.27) on Wed May 20 23:59:15 2026
10224
    1MOL     C1    1   2.556   2.254   2.207
    1MOL     C2    2   2.463   2.319   2.126
    1MOL     C3    3   2.544   2.261   2.346
    1MOL     C4    4   2.360   2.392   2.183
    1MOL     C5    5   2.440   2.334   2.403
    1MOL     C6    6   2.348   2.400   2.322
    1MOL     C7    7   2.430   2.340   2.552
    1MOL     C8    8   2.123   2.389   2.433
    1MOL     C9    9   2.236   2.479   2.382
    1MOL     H1   10   2.637   2.197   2.162
    1MOL     H2   11   2.472   2.314   2.017
    1MOL     H3   12   2.617   2.209   2.408
    1MOL     H4   13   2.288   2.443   2.119
    1MOL     H5   14   2.487   2.426   2.591
    1MOL     H6   15   2.325   2.350   2.584
    1MOL     H7   16   2.469   2.249   2.599
    1MOL     H8   17   2.084   2.325   2.353
    1MOL     H9   18   2.041   2.450   2.472
    1MOL    H10   19   2.158   2.324   2.514
    1MOL    H11   20   2.273   2.541   2.464
    1MOL    H12   21   2.195   2.549   2.307
    2SOL     OW   22   0.230   0.628   0.113
    2SOL    HW1   23   0.137   0.626   0.150
    2SOL    HW2   24   0.231   0.589   0.021
    3SOL     OW   25   0.225   0.275   0.996
    3SOL    HW1   26   0.260   0.258   1.088
    3SOL    HW2   27   0.137   0.230   0.984
    4SOL     OW   28   0.019   0.368   0.647
    4SOL    HW1   29  -0.063   0.411   0.686
    4SOL    HW2   30  -0.009   0.295   0.584
    5SOL     OW   31   0.569   1.275   1.165
    5SOL    HW1   32   0.476   1.268   1.128
    5SOL    HW2   33   0.580   1.364   1.209
    6SOL     OW   34   1.555   1.511   0.703
    6SOL    HW1   35   1.498   1.495   0.784
    6SOL    HW2   36   1.496   1.521   0.623
    7SOL     OW   37   1.135   0.703   0.717
    7SOL    HW1   38   1.192   0.781   0.692
    7SOL    HW2   39   1.075   0.729   0.793
    8SOL     OW   40   1.755   0.607   0.231
    8SOL    HW1   41   1.743   0.594   0.132
    8SOL    HW2   42   1.725   0.526   0.280
    9SOL     OW   43   0.768   1.144   1.023
    9SOL    HW1   44   0.690   1.161   1.083
    9SOL    HW2   45   0.802   1.231   0.987
   10SOL     OW   46   0.850   0.798   1.823
   10SOL    HW1   47   0.846   0.874   1.888
   10SOL    HW2   48   0.872   0.834   1.732
   11SOL     OW   49   0.685   1.012   0.665
   11SOL    HW1   50   0.754   0.996   0.735
   11SOL    HW2   51   0.612   1.069   0.703
   12SOL     OW   52   0.686   1.161   1.803
   12SOL    HW1   53   0.746   1.240   1.817
   12SOL    HW2   54   0.600   1.192   1.762
   13SOL     OW   55   0.335   1.435   1.061
   13SOL    HW1   56   0.257   1.404   1.008
   13SOL    HW2   57   0.393   1.493   1.004
   14SOL     OW   58   1.460   1.505   1.339
   14SOL    HW1   59   1.484   1.599   1.365
   14SOL    HW2   60   1.444   1.451   1.421
   15SOL     OW   61   0.438   0.392   1.499
   15SOL    HW1   62   0.520   0.336   1.508
   15SOL    HW2   63   0.357   0.334   1.503
   16SOL     OW   64   1.603   0.447   0.737
   16SOL    HW1   65   1.529   0.493   0.687
   16SOL    HW2   66   1.654   0.515   0.790
   17SOL     OW   67   0.231   1.713   0.483
   17SOL    HW1   68   0.265   1.790   0.537
   17SOL    HW2   69   0.275   1.713   0.393
   18SOL     OW   70   1.127   1.341   1.690
   18SOL    HW1   71   1.174   1.341   1.778
   18SOL    HW2   72   1.079   1.254   1.679
   19SOL     OW   73   0.230   1.434   0.538
   19SOL    HW1   74   0.204   1.530   0.538
   19SOL    HW2   75   0.159   1.380   0.583
   20SOL     OW   76   0.240   1.091   0.886
   20SOL    HW1   77   0.254   1.007   0.938
   20SOL    HW2   78   0.185   1.155   0.941
   21SOL     OW   79   0.620   1.786   1.439
   21SOL    HW1   80   0.528   1.769   1.474
   21SOL    HW2   81   0.648   1.878   1.465
   22SOL     OW   82   0.606   0.964   0.123
   22SOL    HW1   83   0.613   1.048   0.069
   22SOL    HW2   84   0.652   0.977   0.211
   23SOL     OW   85   1.594   0.114   1.480
   23SOL    HW1   86   1.576   0.181   1.408
   23SOL    HW2   87   1.591   0.160   1.569
   24SOL     OW   88   0.122   0.643   0.563
   24SOL    HW1   89   0.077   0.555   0.580
   24SOL    HW2   90   0.121   0.697   0.647
   25SOL     OW   91   1.842   1.767   0.359
   25SOL    HW1   92   1.896   1.738   0.439
   25SOL    HW2   93   1.872   1.857   0.330
   26SOL     OW   94   0.027   1.596   0.117
   26SOL    HW1   95   0.008   1.500   0.138
   26SOL    HW2   96  -0.006   1.654   0.192
   27SOL     OW   97   1.689   0.922   0.612
   27SOL    HW1   98   1.784   0.893   0.620
   27SOL    HW2   99   1.681   0.987   0.537
   28SOL     OW  100   1.641   1.108   0.432
   28SOL    HW1  101   1.727   1.110   0.380
   28SOL    HW2  102   1.655   1.155   0.520
   29SOL     OW  103   0.113   0.737   1.597
   29SOL    HW1  104   0.201   0.724   1.642
   29SOL    HW2  105   0.100   0.834   1.575
   30SOL     OW  106   0.613   1.365   0.726
   30SOL    HW1  107   0.564   1.278   0.735
   30SOL    HW2  108   0.590   1.408   0.639
   31SOL     OW  109   1.293   1.228   1.423
   31SOL    HW1  110   1.330   1.155   1.365
   31SOL    HW2  111   1.345   1.233   1.508
   32SOL     OW  112   0.809   0.004   0.502
   32SOL    HW1  113   0.849   0.095   0.493
   32SOL    HW2  114   0.709   0.012   0.508
   33SOL     OW  115   0.197   0.976   1.264
   33SOL    HW1  116   0.286   0.931   1.250
   33SOL    HW2  117   0.124   0.911   1.245
   34SOL     OW  118   1.525   0.999   0.190
   34SOL    HW1  119   1.462   0.923   0.203
   34SOL    HW2  120   1.573   1.017   0.276
   35SOL     OW  121   1.187   1.792   1.616
   35SOL    HW1  122   1.211   1.852   1.540
   35SOL    HW2  123   1.194   1.697   1.586
   36SOL     OW  124   0.317   0.251   1.801
   36SOL    HW1  125   0.388   0.322   1.807
   36SOL    HW2  126   0.229   0.290   1.829
   37SOL     OW  127   1.466   1.417   0.953
   37SOL    HW1  128   1.407   1.423   1.033
   37SOL    HW2  129   1.451   1.329   0.907
   38SOL     OW  130   1.667   1.714   0.572
   38SOL    HW1  131   1.626   1.691   0.484
   38SOL    HW2  132   1.649   1.640   0.637
   39SOL     OW  133   0.598   0.729   0.270
   39SOL    HW1  134   0.622   0.798   0.202
   39SOL    HW2  135   0.520   0.762   0.324
   40SOL     OW  136   1.281   0.345   0.944
   40SOL    HW1  137   1.195   0.295   0.931
   40SOL    HW2  138   1.343   0.291   1.000
   41SOL     OW  139   1.576   1.662   0.307
   41SOL    HW1  140   1.665   1.708   0.310
   41SOL    HW2  141   1.555   1.638   0.212
   42SOL     OW  142   0.807   0.605   1.465
   42SOL    HW1  143   0.760   0.602   1.554
   42SOL    HW2  144   0.756   0.550   1.399
   43SOL     OW  145   1.394   0.469   1.674
   43SOL    HW1  146   1.374   0.512   1.762
   43SOL    HW2  147   1.472   0.407   1.683
   44SOL     OW  148   0.973   0.890   1.572
   44SOL    HW1  149   1.019   0.806   1.543
   44SOL    HW2  150   0.917   0.924   1.497
   45SOL     OW  151   0.991   0.410   1.242
   45SOL    HW1  152   0.914   0.444   1.296
   45SOL    HW2  153   0.957   0.359   1.163
   46SOL     OW  154   1.041   0.701   0.429
   46SOL    HW1  155   1.067   0.697   0.525
   46SOL    HW2  156   0.956   0.650   0.415
   47SOL     OW  157   0.076   0.811   0.789
   47SOL    HW1  158   0.175   0.799   0.798
   47SOL    HW2  159   0.052   0.906   0.810
   48SOL     OW  160   0.130   1.821   1.571
   48SOL    HW1  161   0.120   1.806   1.670
   48SOL    HW2  162   0.044   1.857   1.535
   49SOL     OW  163   0.865   0.348   0.195
   49SOL    HW1  164   0.924   0.411   0.146
   49SOL    HW2  165   0.884   0.254   0.166
   50SOL     OW  166   1.719   0.585   1.831
   50SOL    HW1  167   1.693   0.674   1.795
   50SOL    HW2  168   1.717   0.517   1.758
   51SOL     OW  169   1.362   1.144   0.545
   51SOL    HW1  170   1.445   1.115   0.497
   51SOL    HW2  171   1.313   1.211   0.489
   52SOL     OW  172   0.550   0.196   0.885
   52SOL    HW1  173   0.545   0.191   0.985
   52SOL    HW2  174   0.552   0.292   0.856
   53SOL     OW  175   1.008   1.456   0.477
   53SOL    HW1  176   0.962   1.528   0.425
   53SOL    HW2  177   1.004   1.476   0.575
   54SOL     OW  178   0.351   1.801   0.853
   54SOL    HW1  179   0.401   1.715   0.859
   54SOL    HW2  180   0.416   1.878   0.850
   55SOL     OW  181   1.795   1.066   0.873
   55SOL    HW1  182   1.733   1.051   0.797
   55SOL    HW2  183   1.743   1.077   0.958
   56SOL     OW  184   1.227   1.550   1.506
   56SOL    HW1  185   1.233   1.473   1.570
   56SOL    HW2  186   1.175   1.524   1.426
   57SOL     OW  187   0.321   0.943   0.242
   57SOL    HW1  188   0.403   0.982   0.200
   57SOL    HW2  189   0.294   0.861   0.193
   58SOL     OW  190   1.458   0.735   0.728
   58SOL    HW1  191   1.453   0.670   0.803
   58SOL    HW2  192   1.538   0.794   0.741
   59SOL     OW  193   0.461   1.266   1.727
   59SOL    HW1  194   0.411   1.267   1.641
   59SOL    HW2  195   0.398   1.248   1.803
   60SOL     OW  196   1.111   1.776   0.237
   60SOL    HW1  197   1.051   1.714   0.287
   60SOL    HW2  198   1.142   1.732   0.152
   61SOL     OW  199   0.202   0.285   1.498
   61SOL    HW1  200   0.122   0.345   1.485
   61SOL    HW2  201   0.192   0.236   1.584
   62SOL     OW  202   1.632   1.377   0.081
   62SOL    HW1  203   1.600   1.471   0.071
   62SOL    HW2  204   1.556   1.314   0.069
   63SOL     OW  205   0.464   1.743   0.323
   63SOL    HW1  206   0.497   1.782   0.409
   63SOL    HW2  207   0.540   1.736   0.258
   64SOL     OW  208   1.400   0.107   0.426
   64SOL    HW1  209   1.376   0.070   0.336
   64SOL    HW2  210   1.499   0.123   0.430
   65SOL     OW  211   0.249   1.785   1.241
   65SOL    HW1  212   0.306   1.720   1.291
   65SOL    HW2  213   0.233   1.752   1.148
   66SOL     OW  214   0.940   1.698   0.904
   66SOL    HW1  215   1.020   1.641   0.925
   66SOL    HW2  216   0.891   1.658   0.827
   67SOL     OW  217   0.382   0.700   0.480
   67SOL    HW1  218   0.427   0.610   0.477
   67SOL    HW2  219   0.288   0.689   0.513
   68SOL     OW  220   1.547   0.222   1.729
   68SOL    HW1  221   1.542   0.259   1.821
   68SOL    HW2  222   1.475   0.153   1.717
   69SOL     OW  223   0.614   0.122   0.117
   69SOL    HW1  224   0.712   0.100   0.124
   69SOL    HW2  225   0.583   0.105   0.024
   70SOL     OW  226   0.781   0.264   1.749
   70SOL    HW1  227   0.848   0.203   1.792
   70SOL    HW2  228   0.708   0.283   1.814
   71SOL     OW  229   0.888   1.514   1.195
   71SOL    HW1  230   0.865   1.489   1.101
   71SOL    HW2  231   0.949   1.445   1.234
   72SOL     OW  232   1.351   0.590   1.433
   72SOL    HW1  233   1.379   0.547   1.518
   72SOL    HW2  234   1.376   0.686   1.434
   73SOL     OW  235   0.803   1.402   0.924
   73SOL    HW1  236   0.893   1.416   0.882
   73SOL    HW2  237   0.732   1.404   0.853
   74SOL     OW  238   0.922   0.503   0.899
   74SOL    HW1  239   0.897   0.494   0.803
   74SOL    HW2  240   0.970   0.421   0.930
   75SOL     OW  241   0.539   0.064   0.512
   75SOL    HW1  242   0.458   0.065   0.570
   75SOL    HW2  243   0.542   0.147   0.457
   76SOL     OW  244   1.434   1.188   0.041
   76SOL    HW1  245   1.466   1.112   0.098
   76SOL    HW2  246   1.342   1.215   0.071
   77SOL     OW  247   0.297   0.035   0.171
   77SOL    HW1  248   0.346   0.119   0.150
   77SOL    HW2  249   0.359  -0.030   0.216
   78SOL     OW  250   0.935   0.236   0.480
   78SOL    HW1  251   0.887   0.277   0.402
   78SOL    HW2  252   1.034   0.234   0.461
   79SOL     OW  253   1.076   0.683   1.464
   79SOL    HW1  254   0.996   0.622   1.467
   79SOL    HW2  255   1.157   0.630   1.440
   80SOL     OW  256   1.227   1.570   0.793
   80SOL    HW1  257   1.248   1.644   0.728
   80SOL    HW2  258   1.295   1.570   0.866
   81SOL     OW  259   0.459   1.152   0.741
   81SOL    HW1  260   0.388   1.125   0.806
   81SOL    HW2  261   0.433   1.124   0.648
   82SOL     OW  262   1.271   1.797   0.591
   82SOL    HW1  263   1.315   1.861   0.527
   82SOL    HW2  264   1.221   1.849   0.661
   83SOL     OW  265   1.032   0.549   0.016
   83SOL    HW1  266   0.991   0.631  -0.023
   83SOL    HW2  267   1.096   0.575   0.089
   84SOL     OW  268   0.078   0.556   1.386
   84SOL    HW1  269   0.170   0.555   1.345
   84SOL    HW2  270   0.072   0.630   1.453
   85SOL     OW  271   0.561   0.222   1.147
   85SOL    HW1  272   0.599   0.138   1.184
   85SOL    HW2  273   0.473   0.241   1.191
   86SOL     OW  274   0.866   0.454   0.642
   86SOL    HW1  275   0.834   0.526   0.580
   86SOL    HW2  276   0.890   0.373   0.589
   87SOL     OW  277   1.017   0.039   0.753
   87SOL    HW1  278   0.945   0.044   0.684
   87SOL    HW2  279   0.993  -0.030   0.822
   88SOL     OW  280   1.429   1.173   0.867
   88SOL    HW1  281   1.374   1.089   0.860
   88SOL    HW2  282   1.455   1.202   0.775
   89SOL     OW  283   1.466   0.590   0.992
   89SOL    HW1  284   1.436   0.495   0.999
   89SOL    HW2  285   1.539   0.606   1.058
   90SOL     OW  286   1.857   0.833   0.377
   90SOL    HW1  287   1.899   0.769   0.441
   90SOL    HW2  288   1.819   0.782   0.299
   91SOL     OW  289   0.488   1.385   0.174
   91SOL    HW1  290   0.401   1.370   0.221
   91SOL    HW2  291   0.471   1.411   0.079
   92SOL     OW  292   1.664   1.280   0.657
   92SOL    HW1  293   1.763   1.288   0.671
   92SOL    HW2  294   1.619   1.364   0.688
   93SOL     OW  295   1.390   0.575   0.078
   93SOL    HW1  296   1.336   0.554   0.159
   93SOL    HW2  297   1.481   0.534   0.087
   94SOL     OW  298   0.527   0.256   0.328
   94SOL    HW1  299   0.554   0.197   0.253
   94SOL    HW2  300   0.527   0.351   0.297
   95SOL     OW  301   1.754   1.223   1.588
   95SOL    HW1  302   1.845   1.184   1.575
   95SOL    HW2  303   1.762   1.319   1.612
   96SOL     OW  304   1.064   1.347   1.340
   96SOL    HW1  305   0.984   1.324   1.395
   96SOL    HW2  306   1.147   1.321   1.389
   97SOL     OW  307   1.592   1.629   1.625
   97SOL    HW1  308   1.619   1.663   1.535
   97SOL    HW2  309   1.671   1.591   1.671
   98SOL     OW  310   1.111   1.195   1.100
   98SOL    HW1  311   1.071   1.239   1.181
   98SOL    HW2  312   1.070   1.232   1.017
   99SOL     OW  313   1.638   1.099   1.079
   99SOL    HW1  314   1.643   1.180   1.138
   99SOL    HW2  315   1.552   1.101   1.028
  100SOL     OW  316   0.915   0.089   1.402
  100SOL    HW1  317   0.940   0.069   1.307
  100SOL    HW2  318   0.987   0.145   1.444
  101SOL     OW  319   0.980   1.116   1.719
  101SOL    HW1  320   0.881   1.122   1.729
  101SOL    HW2  321   1.003   1.036   1.663
  102SOL     OW  322   0.705   1.050   0.368
  102SOL    HW1  323   0.691   1.057   0.467
  102SOL    HW2  324   0.789   0.999   0.350
  103SOL     OW  325   0.410   0.813   1.251
  103SOL    HW1  326   0.496   0.825   1.301
  103SOL    HW2  327   0.368   0.726   1.278
  104SOL     OW  328   1.274   0.386   1.262
  104SOL    HW1  329   1.295   0.460   1.326
  104SOL    HW2  330   1.185   0.403   1.219
  105SOL     OW  331   0.064   1.564   1.331
  105SOL    HW1  332   0.018   1.646   1.297
  105SOL    HW2  333   0.162   1.583   1.340
  106SOL     OW  334   0.367   1.100   0.501
  106SOL    HW1  335   0.360   1.183   0.445
  106SOL    HW2  336   0.371   1.020   0.441
  107SOL     OW  337   0.566   0.537   0.865
  107SOL    HW1  338   0.578   0.603   0.791
  107SOL    HW2  339   0.612   0.571   0.948
  108SOL     OW  340   1.252   1.348   0.388
  108SOL    HW1  341   1.302   1.425   0.428
  108SOL    HW2  342   1.157   1.350   0.420
  109SOL     OW  343   1.272   1.445   1.142
  109SOL    HW1  344   1.319   1.458   1.229
  109SOL    HW2  345   1.206   1.371   1.151
  110SOL     OW  346   1.582   0.639   0.472
  110SOL    HW1  347   1.551   0.700   0.545
  110SOL    HW2  348   1.632   0.691   0.403
  111SOL     OW  349   0.354   1.510   1.329
  111SOL    HW1  350   0.333   1.466   1.242
  111SOL    HW2  351   0.451   1.536   1.332
  112SOL     OW  352   0.402   0.751   1.598
  112SOL    HW1  353   0.470   0.806   1.551
  112SOL    HW2  354   0.442   0.663   1.625
  113SOL     OW  355   1.587   0.779   1.670
  113SOL    HW1  356   1.495   0.817   1.665
  113SOL    HW2  357   1.647   0.826   1.605
  114SOL     OW  358   1.013   0.105   1.770
  114SOL    HW1  359   1.019   0.190   1.718
  114SOL    HW2  360   1.045   0.029   1.713
  115SOL     OW  361   0.504   0.050   1.740
  115SOL    HW1  362   0.462  -0.007   1.670
  115SOL    HW2  363   0.438   0.119   1.772
  116SOL     OW  364   0.573   0.870   1.029
  116SOL    HW1  365   0.617   0.959   1.020
  116SOL    HW2  366   0.510   0.870   1.106
  117SOL     OW  367   1.360   0.862   1.045
  117SOL    HW1  368   1.285   0.862   0.979
  117SOL    HW2  369   1.397   0.770   1.054
  118SOL     OW  370   1.209   0.525   0.275
  118SOL    HW1  371   1.222   0.441   0.329
  118SOL    HW2  372   1.180   0.599   0.335
  119SOL     OW  373   0.307   0.213   1.231
  119SOL    HW1  374   0.284   0.250   1.321
  119SOL    HW2  375   0.277   0.118   1.225
  120SOL     OW  376   0.037   1.310   1.282
  120SOL    HW1  377   0.090   1.261   1.350
  120SOL    HW2  378   0.059   1.408   1.287
  121SOL     OW  379   0.732   0.634   1.064
  121SOL    HW1  380   0.791   0.608   0.988
  121SOL    HW2  381   0.704   0.730   1.053
  122SOL     OW  382   1.728   0.935   1.854
  122SOL    HW1  383   1.682   0.928   1.765
  122SOL    HW2  384   1.666   0.979   1.920
  123SOL     OW  385   0.307   0.063   0.618
  123SOL    HW1  386   0.296   0.157   0.651
  123SOL    HW2  387   0.302   0.000   0.695
  124SOL     OW  388   1.622   0.367   0.374
  124SOL    HW1  389   1.624   0.291   0.438
  124SOL    HW2  390   1.574   0.444   0.414
  125SOL     OW  391   1.023   0.766   0.966
  125SOL    HW1  392   1.038   0.787   1.062
  125SOL    HW2  393   0.993   0.671   0.957
  126SOL     OW  394   0.980   1.573   1.700
  126SOL    HW1  395   0.960   1.617   1.612
  126SOL    HW2  396   1.019   1.482   1.684
  127SOL     OW  397   1.859   1.518   1.605
  127SOL    HW1  398   1.873   1.545   1.510
  127SOL    HW2  399   1.942   1.540   1.658
  128SOL     OW  400   0.350   0.898   1.804
  128SOL    HW1  401   0.426   0.942   1.852
  128SOL    HW2  402   0.385   0.851   1.722
  129SOL     OW  403   1.540   0.274   0.125
  129SOL    HW1  404   1.479   0.199   0.148
  129SOL    HW2  405   1.562   0.326   0.208
  130SOL     OW  406   1.303   0.838   0.042
  130SOL    HW1  407   1.337   0.745   0.057
  130SOL    HW2  408   1.321   0.865  -0.053
  131SOL     OW  409   1.068   1.333   0.849
  131SOL    HW1  410   1.075   1.249   0.794
  131SOL    HW2  411   1.130   1.402   0.813
  132SOL     OW  412   0.319   0.810   0.949
  132SOL    HW1  413   0.412   0.846   0.954
  132SOL    HW2  414   0.313   0.725   1.001
  133SOL     OW  415   0.339   0.509   1.006
  133SOL    HW1  416   0.287   0.426   0.989
  133SOL    HW2  417   0.416   0.514   0.942
  134SOL     OW  418   1.138   0.380   1.678
  134SOL    HW1  419   1.093   0.443   1.742
  134SOL    HW2  420   1.231   0.411   1.661
  135SOL     OW  421   1.160   0.207   1.477
  135SOL    HW1  422   1.160   0.271   1.554
  135SOL    HW2  423   1.188   0.255   1.394
  136SOL     OW  424   0.008   1.326   0.200
  136SOL    HW1  425  -0.085   1.347   0.169
  136SOL    HW2  426   0.018   1.227   0.213
  137SOL     OW  427   0.088   1.801   0.927
  137SOL    HW1  428   0.046   1.715   0.900
  137SOL    HW2  429   0.182   1.804   0.893
  138SOL     OW  430   0.504   1.568   0.910
  138SOL    HW1  431   0.570   1.642   0.919
  138SOL    HW2  432   0.548   1.489   0.868
  139SOL     OW  433   1.002   0.796   1.238
  139SOL    HW1  434   1.043   0.764   1.324
  139SOL    HW2  435   0.906   0.769   1.235
  140SOL     OW  436   0.040   0.544   1.114
  140SOL    HW1  437   0.125   0.511   1.073
  140SOL    HW2  438   0.053   0.559   1.212
  141SOL     OW  439   0.189   0.520   1.722
  141SOL    HW1  440   0.248   0.480   1.652
  141SOL    HW2  441   0.131   0.591   1.681
  142SOL     OW  442   1.369   0.950   1.660
  142SOL    HW1  443   1.408   1.039   1.680
  142SOL    HW2  444   1.379   0.930   1.563
  143SOL     OW  445   0.815   0.572   0.325
  143SOL    HW1  446   0.822   0.483   0.279
  143SOL    HW2  447   0.721   0.606   0.317
  144SOL     OW  448   1.657   0.604   1.206
  144SOL    HW1  449   1.619   0.535   1.268
  144SOL    HW2  450   1.739   0.568   1.162
  145SOL     OW  451   0.252   1.564   1.744
  145SOL    HW1  452   0.222   1.621   1.820
  145SOL    HW2  453   0.245   1.467   1.770
  146SOL     OW  454   0.671   0.464   1.269
  146SOL    HW1  455   0.637   0.375   1.239
  146SOL    HW2  456   0.697   0.518   1.189
  147SOL     OW  457   0.930   1.678   1.465
  147SOL    HW1  458   0.906   1.660   1.370
  147SOL    HW2  459   0.960   1.772   1.475
  148SOL     OW  460   0.473   0.500   0.191
  148SOL    HW1  461   0.534   0.580   0.195
  148SOL    HW2  462   0.378   0.531   0.198
  149SOL     OW  463   0.159   1.137   1.466
  149SOL    HW1  464   0.181   1.076   1.542
  149SOL    HW2  465   0.169   1.088   1.380
  150SOL     OW  466   1.347   1.059   1.234
  150SOL    HW1  467   1.371   0.996   1.160
  150SOL    HW2  468   1.257   1.099   1.216
  151SOL     OW  469   1.302   0.855   0.309
  151SOL    HW1  470   1.216   0.824   0.351
  151SOL    HW2  471   1.298   0.841   0.210
  152SOL     OW  472   1.759   1.747   1.154
  152SOL    HW1  473   1.820   1.777   1.081
  152SOL    HW2  474   1.721   1.658   1.132
  153SOL     OW  475   1.252   1.731   1.128
  153SOL    HW1  476   1.336   1.736   1.074
  153SOL    HW2  477   1.229   1.635   1.146
  154SOL     OW  478   0.083   1.258   1.022
  154SOL    HW1  479   0.078   1.257   1.122
  154SOL    HW2  480   0.000   1.217   0.984
  155SOL     OW  481   0.688   1.662   1.716
  155SOL    HW1  482   0.632   1.743   1.725
  155SOL    HW2  483   0.740   1.666   1.630
  156SOL     OW  484   0.903   0.086   0.133
  156SOL    HW1  485   0.954   0.087   0.047
  156SOL    HW2  486   0.959   0.044   0.204
  157SOL     OW  487   1.726   0.135   0.523
  157SOL    HW1  488   1.799   0.118   0.456
  157SOL    HW2  489   1.695   0.048   0.561
  158SOL     OW  490   1.388   1.573   0.477
  158SOL    HW1  491   1.455   1.585   0.403
  158SOL    HW2  492   1.348   1.662   0.500
  159SOL     OW  493   0.130   1.794   1.851
  159SOL    HW1  494   0.089   1.720   1.904
  159SOL    HW2  495   0.194   1.845   1.909
  160SOL     OW  496   1.280   0.927   0.672
  160SOL    HW1  497   1.340   0.846   0.674
  160SOL    HW2  498   1.320   0.996   0.612
  161SOL     OW  499   0.830   1.273   1.422
  161SOL    HW1  500   0.825   1.306   1.517
  161SOL    HW2  501   0.744   1.292   1.376
  162SOL     OW  502   0.672   1.616   0.154
  162SOL    HW1  503   0.681   1.626   0.055
  162SOL    HW2  504   0.632   1.527   0.175
  163SOL     OW  505   1.650   1.720   1.394
  163SOL    HW1  506   1.703   1.730   1.310
  163SOL    HW2  507   1.623   1.810   1.428
  164SOL     OW  508   1.841   0.175   0.963
  164SOL    HW1  509   1.880   0.090   0.927
  164SOL    HW2  510   1.743   0.177   0.944
  165SOL     OW  511   0.263   0.326   0.720
  165SOL    HW1  512   0.184   0.377   0.686
  165SOL    HW2  513   0.254   0.311   0.818
  166SOL     OW  514   1.194   1.612   0.031
  166SOL    HW1  515   1.200   1.519   0.068
  166SOL    HW2  516   1.135   1.612  -0.049
  167SOL     OW  517   0.822   1.002   1.372
  167SOL    HW1  518   0.862   1.001   1.280
  167SOL    HW2  519   0.832   1.094   1.412
  168SOL     OW  520   0.916   0.910   0.291
  168SOL    HW1  521   0.979   0.948   0.223
  168SOL    HW2  522   0.956   0.827   0.330
  169SOL     OW  523   1.504   1.607   0.044
  169SOL    HW1  524   1.412   1.644   0.051
  169SOL    HW2  525   1.542   1.627  -0.046
  170SOL     OW  526   0.372   1.288   1.490
  170SOL    HW1  527   0.359   1.381   1.456
  170SOL    HW2  528   0.288   1.236   1.477
  171SOL     OW  529   1.614   1.292   1.289
  171SOL    HW1  530   1.674   1.295   1.369
  171SOL    HW2  531   1.539   1.356   1.302
  172SOL     OW  532   1.039   1.098   0.696
  172SOL    HW1  533   0.969   1.051   0.750
  172SOL    HW2  534   1.098   1.030   0.653
  173SOL     OW  535   1.014   0.236   0.971
  173SOL    HW1  536   1.006   0.200   0.878
  173SOL    HW2  537   1.012   0.160   1.036
  174SOL     OW  538   0.590   1.487   0.491
  174SOL    HW1  539   0.632   1.429   0.421
  174SOL    HW2  540   0.546   1.566   0.447
  175SOL     OW  541   1.709   0.385   1.381
  175SOL    HW1  542   1.782   0.454   1.385
  175SOL    HW2  543   1.737   0.310   1.322
  176SOL     OW  544   0.255   1.348   0.290
  176SOL    HW1  545   0.159   1.349   0.263
  176SOL    HW2  546   0.267   1.401   0.374
  177SOL     OW  547   0.105   1.013   1.726
  177SOL    HW1  548   0.028   0.980   1.780
  177SOL    HW2  549   0.190   0.983   1.768
  178SOL     OW  550   0.672   0.203   1.489
  178SOL    HW1  551   0.762   0.187   1.449
  178SOL    HW2  552   0.680   0.208   1.588
  179SOL     OW  553   0.075   0.345   0.033
  179SOL    HW1  554  -0.017   0.317   0.004
  179SOL    HW2  555   0.106   0.422  -0.023
  180SOL     OW  556   1.440   0.856   1.398
  180SOL    HW1  557   1.383   0.908   1.335
  180SOL    HW2  558   1.536   0.868   1.374
  181SOL     OW  559   0.072   0.166   0.318
  181SOL    HW1  560   0.055   0.249   0.264
  181SOL    HW2  561   0.162   0.129   0.296
  182SOL     OW  562   1.183   1.335   0.119
  182SOL    HW1  563   1.084   1.324   0.121
  182SOL    HW2  564   1.217   1.350   0.212
  183SOL     OW  565   0.613   0.842   1.431
  183SOL    HW1  566   0.669   0.923   1.414
  183SOL    HW2  567   0.672   0.762   1.434
  184SOL     OW  568   1.493   1.767   0.959
  184SOL    HW1  569   1.526   1.831   0.890
  184SOL    HW2  570   1.559   1.761   1.034
  185SOL     OW  571   0.716   0.565   1.708
  185SOL    HW1  572   0.735   0.630   1.782
  185SOL    HW2  573   0.776   0.485   1.717
  186SOL     OW  574   1.450   1.220   1.633
  186SOL    HW1  575   1.441   1.210   1.732
  186SOL    HW2  576   1.546   1.213   1.607
  187SOL     OW  577   0.390   1.741   1.560
  187SOL    HW1  578   0.299   1.782   1.558
  187SOL    HW2  579   0.383   1.647   1.592
  188SOL     OW  580   1.674   0.883   1.254
  188SOL    HW1  581   1.647   0.794   1.217
  188SOL    HW2  582   1.675   0.951   1.181
  189SOL     OW  583   1.225   0.325   0.449
  189SOL    HW1  584   1.290   0.251   0.438
  189SOL    HW2  585   1.245   0.375   0.533
  190SOL     OW  586   0.594   0.745   0.652
  190SOL    HW1  587   0.644   0.830   0.633
  190SOL    HW2  588   0.506   0.747   0.604
  191SOL     OW  589   1.777   0.342   1.642
  191SOL    HW1  590   1.760   0.373   1.548
  191SOL    HW2  591   1.693   0.305   1.680
  192SOL     OW  592   1.730   0.934   1.517
  192SOL    HW1  593   1.768   1.025   1.532
  192SOL    HW2  594   1.722   0.917   1.418
  193SOL     OW  595   0.859   1.374   0.016
  193SOL    HW1  596   0.813   1.389   0.104
  193SOL    HW2  597   0.903   1.459  -0.014
  194SOL     OW  598   0.661   1.790   0.953
  194SOL    HW1  599   0.615   1.878   0.940
  194SOL    HW2  600   0.760   1.802   0.946
  195SOL     OW  601   0.859   0.956   0.861
  195SOL    HW1  602   0.913   0.887   0.909
  195SOL    HW2  603   0.827   1.025   0.927
  196SOL     OW  604   1.083   0.984   0.087
  196SOL    HW1  605   1.060   1.037   0.005
  196SOL    HW2  606   1.164   0.928   0.068
  197SOL     OW  607   1.861   1.569   0.851
  197SOL    HW1  608   1.790   1.557   0.781
  197SOL    HW2  609   1.862   1.490   0.911
  198SOL     OW  610   0.221   1.314   1.844
  198SOL    HW1  611   0.156   1.241   1.823
  198SOL    HW2  612   0.225   1.328   1.942
  199SOL     OW  613   0.079   1.240   0.653
  199SOL    HW1  614   0.078   1.193   0.741
  199SOL    HW2  615   0.161   1.212   0.602
  200SOL     OW  616   0.672   1.391   1.624
  200SOL    HW1  617   0.594   1.341   1.662
  200SOL    HW2  618   0.669   1.486   1.655
  201SOL     OW  619   1.824   0.192   1.227
  201SOL    HW1  620   1.820   0.102   1.271
  201SOL    HW2  621   1.827   0.181   1.128
  202SOL     OW  622   0.428   0.424   0.520
  202SOL    HW1  623   0.458   0.352   0.458
  202SOL    HW2  624   0.389   0.384   0.603
  203SOL     OW  625   1.705   1.487   1.104
  203SOL    HW1  626   1.612   1.462   1.077
  203SOL    HW2  627   1.731   1.437   1.186
  204SOL     OW  628   0.317   0.547   1.280
  204SOL    HW1  629   0.355   0.488   1.352
  204SOL    HW2  630   0.357   0.521   1.192
  205SOL     OW  631   0.812   1.586   0.687
  205SOL    HW1  632   0.844   1.596   0.593
  205SOL    HW2  633   0.733   1.524   0.689
  206SOL     OW  634   1.424   0.214   1.112
  206SOL    HW1  635   1.476   0.149   1.167
  206SOL    HW2  636   1.375   0.277   1.173
  207SOL     OW  637   1.001   0.034   1.154
  207SOL    HW1  638   0.938  -0.038   1.123
  207SOL    HW2  639   1.094  -0.002   1.154
  208SOL     OW  640   0.770   1.330   0.301
  208SOL    HW1  641   0.724   1.243   0.318
  208SOL    HW2  642   0.861   1.327   0.342
  209SOL     OW  643   0.618   1.567   1.284
  209SOL    HW1  644   0.613   1.649   1.341
  209SOL    HW2  645   0.707   1.564   1.239
  210SOL     OW  646   1.352   0.052   0.168
  210SOL    HW1  647   1.387   0.011   0.084
  210SOL    HW2  648   1.262   0.014   0.188
  211SOL     OW  649   1.300   0.453   0.691
  211SOL    HW1  650   1.241   0.533   0.695
  211SOL    HW2  651   1.315   0.418   0.784
  212SOL     OW  652   1.593   0.221   0.882
  212SOL    HW1  653   1.509   0.220   0.936
  212SOL    HW2  654   1.595   0.304   0.826
  213SOL     OW  655   0.039   1.077   0.300
  213SOL    HW1  656   0.138   1.066   0.291
  213SOL    HW2  657  -0.001   0.991   0.332
  214SOL     OW  658   0.875   1.646   0.337
  214SOL    HW1  659   0.798   1.611   0.283
  214SOL    HW2  660   0.843   1.717   0.399
  215SOL     OW  661   0.230   0.628   1.975
  215SOL    HW1  662   0.137   0.626   2.012
  215SOL    HW2  663   0.231   0.589   1.883
  216SOL     OW  664   0.225   0.275   2.858
  216SOL    HW1  665   0.260   0.258   2.950
  216SOL    HW2  666   0.137   0.230   2.846
  217SOL     OW  667   0.019   0.368   2.509
  217SOL    HW1  668  -0.063   0.411   2.548
  217SOL    HW2  669  -0.009   0.295   2.446
  218SOL     OW  670   0.569   1.275   3.027
  218SOL    HW1  671   0.476   1.268   2.990
  218SOL    HW2  672   0.580   1.364   3.071
  219SOL     OW  673   1.555   1.511   2.565
  219SOL    HW1  674   1.498   1.495   2.646
  219SOL    HW2  675   1.496   1.521   2.485
  220SOL     OW  676   1.135   0.703   2.579
  220SOL    HW1  677   1.192   0.781   2.554
  220SOL    HW2  678   1.075   0.729   2.655
  221SOL     OW  679   1.755   0.607   2.093
  221SOL    HW1  680   1.743   0.594   1.994
  221SOL    HW2  681   1.725   0.526   2.142
  222SOL     OW  682   0.768   1.144   2.885
  222SOL    HW1  683   0.690   1.161   2.945
  222SOL    HW2  684   0.802   1.231   2.849
  223SOL     OW  685   0.850   0.798   3.685
  223SOL    HW1  686   0.846   0.874   3.750
  223SOL    HW2  687   0.872   0.834   3.594
  224SOL     OW  688   0.685   1.012   2.527
  224SOL    HW1  689   0.754   0.996   2.597
  224SOL    HW2  690   0.612   1.069   2.565
  225SOL     OW  691   0.686   1.161   3.665
  225SOL    HW1  692   0.746   1.240   3.679
  225SOL    HW2  693   0.600   1.192   3.624
  226SOL     OW  694   0.335   1.435   2.923
  226SOL    HW1  695   0.257   1.404   2.870
  226SOL    HW2  696   0.393   1.493   2.866
  227SOL     OW  697   1.460   1.505   3.201
  227SOL    HW1  698   1.484   1.599   3.227
  227SOL    HW2  699   1.444   1.451   3.283
  228SOL     OW  700   0.438   0.392   3.361
  228SOL    HW1  701   0.520   0.336   3.370
  228SOL    HW2  702   0.357   0.334   3.365
  229SOL     OW  703   1.603   0.447   2.599
  229SOL    HW1  704   1.529   0.493   2.549
  229SOL    HW2  705   1.654   0.515   2.652
  230SOL     OW  706   0.231   1.713   2.345
  230SOL    HW1  707   0.265   1.790   2.399
  230SOL    HW2  708   0.275   1.713   2.255
  231SOL     OW  709   1.127   1.341   3.552
  231SOL    HW1  710   1.174   1.341   3.640
  231SOL    HW2  711   1.079   1.254   3.541
  232SOL     OW  712   0.230   1.434   2.400
  232SOL    HW1  713   0.204   1.530   2.400
  232SOL    HW2  714   0.159   1.380   2.445
  233SOL     OW  715   0.240   1.091   2.748
  233SOL    HW1  716   0.254   1.007   2.800
  233SOL    HW2  717   0.185   1.155   2.803
  234SOL     OW  718   0.620   1.786   3.301
  234SOL    HW1  719   0.528   1.769   3.336
  234SOL    HW2  720   0.648   1.878   3.327
  235SOL     OW  721   0.606   0.964   1.985
  235SOL    HW1  722   0.613   1.048   1.931
  235SOL    HW2  723   0.652   0.977   2.073
  236SOL     OW  724   1.594   0.114   3.342
  236SOL    HW1  725   1.576   0.181   3.270
  236SOL    HW2  726   1.591   0.160   3.431
  237SOL     OW  727   0.122   0.643   2.425
  237SOL    HW1  728   0.077   0.555   2.442
  237SOL    HW2  729   0.121   0.697   2.509
  238SOL     OW  730   1.842   1.767   2.221
  238SOL    HW1  731   1.896   1.738   2.301
  238SOL    HW2  732   1.872   1.857   2.192
  239SOL     OW  733   0.027   1.596   1.979
  239SOL    HW1  734   0.008   1.500   2.000
  239SOL    HW2  735  -0.006   1.654   2.054
  240SOL     OW  736   1.689   0.922   2.474
  240SOL    HW1  737   1.784   0.893   2.482
  240SOL    HW2  738   1.681   0.987   2.399
  241SOL     OW  739   1.641   1.108   2.294
  241SOL    HW1  740   1.727   1.110   2.242
  241SOL    HW2  741   1.655   1.155   2.382
  242SOL     OW  742   0.113   0.737   3.459
  242SOL    HW1  743   0.201   0.724   3.504
  242SOL    HW2  744   0.100   0.834   3.437
  243SOL     OW  745   0.613   1.365   2.588
  243SOL    HW1  746   0.564   1.278   2.597
  243SOL    HW2  747   0.590   1.408   2.501
  244SOL     OW  748   1.293   1.228   3.285
  244SOL    HW1  749   1.330   1.155   3.227
  244SOL    HW2  750   1.345   1.233   3.370
  245SOL     OW  751   0.809   0.004   2.364
  245SOL    HW1  752   0.849   0.095   2.355
  245SOL    HW2  753   0.709   0.012   2.370
  246SOL     OW  754   0.197   0.976   3.126
  246SOL    HW1  755   0.286   0.931   3.112
  246SOL    HW2  756   0.124   0.911   3.107
  247SOL     OW  757   1.525   0.999   2.052
  247SOL    HW1  758   1.462   0.923   2.065
  247SOL    HW2  759   1.573   1.017   2.138
  248SOL     OW  760   1.187   1.792   3.478
  248SOL    HW1  761   1.211   1.852   3.402
  248SOL    HW2  762   1.194   1.697   3.448
  249SOL     OW  763   0.317   0.251   3.663
  249SOL    HW1  764   0.388   0.322   3.669
  249SOL    HW2  765   0.229   0.290   3.691
  250SOL     OW  766   1.466   1.417   2.815
  250SOL    HW1  767   1.407   1.423   2.895
  250SOL    HW2  768   1.451   1.329   2.769
  251SOL     OW  769   1.667   1.714   2.434
  251SOL    HW1  770   1.626   1.691   2.346
  251SOL    HW2  771   1.649   1.640   2.499
  252SOL     OW  772   0.598   0.729   2.132
  252SOL    HW1  773   0.622   0.798   2.064
  252SOL    HW2  774   0.520   0.762   2.186
  253SOL     OW  775   1.281   0.345   2.806
  253SOL    HW1  776   1.195   0.295   2.793
  253SOL    HW2  777   1.343   0.291   2.862
  254SOL     OW  778   1.576   1.662   2.169
  254SOL    HW1  779   1.665   1.708   2.172
  254SOL    HW2  780   1.555   1.638   2.074
  255SOL     OW  781   0.807   0.605   3.327
  255SOL    HW1  782   0.760   0.602   3.416
  255SOL    HW2  783   0.756   0.550   3.261
  256SOL     OW  784   1.394   0.469   3.536
  256SOL    HW1  785   1.374   0.512   3.624
  256SOL    HW2  786   1.472   0.407   3.545
  257SOL     OW  787   0.973   0.890   3.434
  257SOL    HW1  788   1.019   0.806   3.405
  257SOL    HW2  789   0.917   0.924   3.359
  258SOL     OW  790   0.991   0.410   3.104
  258SOL    HW1  791   0.914   0.444   3.158
  258SOL    HW2  792   0.957   0.359   3.025
  259SOL     OW  793   1.041   0.701   2.291
  259SOL    HW1  794   1.067   0.697   2.387
  259SOL    HW2  795   0.956   0.650   2.277
  260SOL     OW  796   0.076   0.811   2.651
  260SOL    HW1  797   0.175   0.799   2.660
  260SOL    HW2  798   0.052   0.906   2.672
  261SOL     OW  799   0.130   1.821   3.433
  261SOL    HW1  800   0.120   1.806   3.532
  261SOL    HW2  801   0.044   1.857   3.397
  262SOL     OW  802   0.865   0.348   2.057
  262SOL    HW1  803   0.924   0.411   2.008
  262SOL    HW2  804   0.884   0.254   2.028
  263SOL     OW  805   1.719   0.585   3.693
  263SOL    HW1  806   1.693   0.674   3.657
  263SOL    HW2  807   1.717   0.517   3.620
  264SOL     OW  808   1.362   1.144   2.407
  264SOL    HW1  809   1.445   1.115   2.359
  264SOL    HW2  810   1.313   1.211   2.351
  265SOL     OW  811   0.550   0.196   2.747
  265SOL    HW1  812   0.545   0.191   2.847
  265SOL    HW2  813   0.552   0.292   2.718
  266SOL     OW  814   1.008   1.456   2.339
  266SOL    HW1  815   0.962   1.528   2.287
  266SOL    HW2  816   1.004   1.476   2.437
  267SOL     OW  817   0.351   1.801   2.715
  267SOL    HW1  818   0.401   1.715   2.721
  267SOL    HW2  819   0.416   1.878   2.712
  268SOL     OW  820   1.795   1.066   2.735
  268SOL    HW1  821   1.733   1.051   2.659
  268SOL    HW2  822   1.743   1.077   2.820
  269SOL     OW  823   1.227   1.550   3.368
  269SOL    HW1  824   1.233   1.473   3.432
  269SOL    HW2  825   1.175   1.524   3.288
  270SOL     OW  826   0.321   0.943   2.104
  270SOL    HW1  827   0.403   0.982   2.062
  270SOL    HW2  828   0.294   0.861   2.055
  271SOL     OW  829   1.458   0.735   2.590
  271SOL    HW1  830   1.453   0.670   2.665
  271SOL    HW2  831   1.538   0.794   2.603
  272SOL     OW  832   0.461   1.266   3.589
  272SOL    HW1  833   0.411   1.267   3.503
  272SOL    HW2  834   0.398   1.248   3.665
  273SOL     OW  835   1.111   1.776   2.099
  273SOL    HW1  836   1.051   1.714   2.149
  273SOL    HW2  837   1.142   1.732   2.014
  274SOL     OW  838   0.202   0.285   3.360
  274SOL    HW1  839   0.122   0.345   3.347
  274SOL    HW2  840   0.192   0.236   3.446
  275SOL     OW  841   1.632   1.377   1.943
  275SOL    HW1  842   1.600   1.471   1.933
  275SOL    HW2  843   1.556   1.314   1.931
  276SOL     OW  844   0.464   1.743   2.185
  276SOL    HW1  845   0.497   1.782   2.271
  276SOL    HW2  846   0.540   1.736   2.120
  277SOL     OW  847   1.400   0.107   2.288
  277SOL    HW1  848   1.376   0.070   2.198
  277SOL    HW2  849   1.499   0.123   2.292
  278SOL     OW  850   0.249   1.785   3.103
  278SOL    HW1  851   0.306   1.720   3.153
  278SOL    HW2  852   0.233   1.752   3.010
  279SOL     OW  853   0.940   1.698   2.766
  279SOL    HW1  854   1.020   1.641   2.787
  279SOL    HW2  855   0.891   1.658   2.689
  280SOL     OW  856   0.382   0.700   2.342
  280SOL    HW1  857   0.427   0.610   2.339
  280SOL    HW2  858   0.288   0.689   2.375
  281SOL     OW  859   1.547   0.222   3.591
  281SOL    HW1  860   1.542   0.259   3.683
  281SOL    HW2  861   1.475   0.153   3.579
  282SOL     OW  862   0.614   0.122   1.979
  282SOL    HW1  863   0.712   0.100   1.986
  282SOL    HW2  864   0.583   0.105   1.886
  283SOL     OW  865   0.781   0.264   3.611
  283SOL    HW1  866   0.848   0.203   3.654
  283SOL    HW2  867   0.708   0.283   3.676
  284SOL     OW  868   0.888   1.514   3.057
  284SOL    HW1  869   0.865   1.489   2.963
  284SOL    HW2  870   0.949   1.445   3.096
  285SOL     OW  871   1.351   0.590   3.295
  285SOL    HW1  872   1.379   0.547   3.380
  285SOL    HW2  873   1.376   0.686   3.296
  286SOL     OW  874   0.803   1.402   2.786
  286SOL    HW1  875   0.893   1.416   2.744
  286SOL    HW2  876   0.732   1.404   2.715
  287SOL     OW  877   0.922   0.503   2.761
  287SOL    HW1  878   0.897   0.494   2.665
  287SOL    HW2  879   0.970   0.421   2.792
  288SOL     OW  880   0.539   0.064   2.374
  288SOL    HW1  881   0.458   0.065   2.432
  288SOL    HW2  882   0.542   0.147   2.319
  289SOL     OW  883   1.434   1.188   1.903
  289SOL    HW1  884   1.466   1.112   1.960
  289SOL    HW2  885   1.342   1.215   1.933
  290SOL     OW  886   0.297   0.035   2.033
  290SOL    HW1  887   0.346   0.119   2.012
  290SOL    HW2  888   0.359  -0.030   2.078
  291SOL     OW  889   0.935   0.236   2.342
  291SOL    HW1  890   0.887   0.277   2.264
  291SOL    HW2  891   1.034   0.234   2.323
  292SOL     OW  892   1.076   0.683   3.326
  292SOL    HW1  893   0.996   0.622   3.329
  292SOL    HW2  894   1.157   0.630   3.302
  293SOL     OW  895   1.227   1.570   2.655
  293SOL    HW1  896   1.248   1.644   2.590
  293SOL    HW2  897   1.295   1.570   2.728
  294SOL     OW  898   0.459   1.152   2.603
  294SOL    HW1  899   0.388   1.125   2.668
  294SOL    HW2  900   0.433   1.124   2.510
  295SOL     OW  901   1.271   1.797   2.453
  295SOL    HW1  902   1.315   1.861   2.389
  295SOL    HW2  903   1.221   1.849   2.523
  296SOL     OW  904   1.032   0.549   1.878
  296SOL    HW1  905   0.991   0.631   1.839
  296SOL    HW2  906   1.096   0.575   1.951
  297SOL     OW  907   0.078   0.556   3.248
  297SOL    HW1  908   0.170   0.555   3.207
  297SOL    HW2  909   0.072   0.630   3.315
  298SOL     OW  910   0.561   0.222   3.009
  298SOL    HW1  911   0.599   0.138   3.046
  298SOL    HW2  912   0.473   0.241   3.053
  299SOL     OW  913   0.866   0.454   2.504
  299SOL    HW1  914   0.834   0.526   2.442
  299SOL    HW2  915   0.890   0.373   2.451
  300SOL     OW  916   1.017   0.039   2.615
  300SOL    HW1  917   0.945   0.044   2.546
  300SOL    HW2  918   0.993  -0.030   2.684
  301SOL     OW  919   1.429   1.173   2.729
  301SOL    HW1  920   1.374   1.089   2.722
  301SOL    HW2  921   1.455   1.202   2.637
  302SOL     OW  922   1.466   0.590   2.854
  302SOL    HW1  923   1.436   0.495   2.861
  302SOL    HW2  924   1.539   0.606   2.920
  303SOL     OW  925   1.857   0.833   2.239
  303SOL    HW1  926   1.899   0.769   2.303
  303SOL    HW2  927   1.819   0.782   2.161
  304SOL     OW  928   0.488   1.385   2.036
  304SOL    HW1  929   0.401   1.370   2.083
  304SOL    HW2  930   0.471   1.411   1.941
  305SOL     OW  931   1.664   1.280   2.519
  305SOL    HW1  932   1.763   1.288   2.533
  305SOL    HW2  933   1.619   1.364   2.550
  306SOL     OW  934   1.390   0.575   1.940
  306SOL    HW1  935   1.336   0.554   2.021
  306SOL    HW2  936   1.481   0.534   1.949
  307SOL     OW  937   0.527   0.256   2.190
  307SOL    HW1  938   0.554   0.197   2.115
  307SOL    HW2  939   0.527   0.351   2.159
  308SOL     OW  940   1.754   1.223   3.450
  308SOL    HW1  941   1.845   1.184   3.437
  308SOL    HW2  942   1.762   1.319   3.474
  309SOL     OW  943   1.064   1.347   3.202
  309SOL    HW1  944   0.984   1.324   3.257
  309SOL    HW2  945   1.147   1.321   3.251
  310SOL     OW  946   1.592   1.629   3.487
  310SOL    HW1  947   1.619   1.663   3.397
  310SOL    HW2  948   1.671   1.591   3.533
  311SOL     OW  949   1.111   1.195   2.962
  311SOL    HW1  950   1.071   1.239   3.043
  311SOL    HW2  951   1.070   1.232   2.879
  312SOL     OW  952   1.638   1.099   2.941
  312SOL    HW1  953   1.643   1.180   3.000
  312SOL    HW2  954   1.552   1.101   2.890
  313SOL     OW  955   0.915   0.089   3.264
  313SOL    HW1  956   0.940   0.069   3.169
  313SOL    HW2  957   0.987   0.145   3.306
  314SOL     OW  958   0.980   1.116   3.581
  314SOL    HW1  959   0.881   1.122   3.591
  314SOL    HW2  960   1.003   1.036   3.525
  315SOL     OW  961   0.705   1.050   2.230
  315SOL    HW1  962   0.691   1.057   2.329
  315SOL    HW2  963   0.789   0.999   2.212
  316SOL     OW  964   0.410   0.813   3.113
  316SOL    HW1  965   0.496   0.825   3.163
  316SOL    HW2  966   0.368   0.726   3.140
  317SOL     OW  967   1.274   0.386   3.124
  317SOL    HW1  968   1.295   0.460   3.188
  317SOL    HW2  969   1.185   0.403   3.081
  318SOL     OW  970   0.064   1.564   3.193
  318SOL    HW1  971   0.018   1.646   3.159
  318SOL    HW2  972   0.162   1.583   3.202
  319SOL     OW  973   0.367   1.100   2.363
  319SOL    HW1  974   0.360   1.183   2.307
  319SOL    HW2  975   0.371   1.020   2.303
  320SOL     OW  976   0.566   0.537   2.727
  320SOL    HW1  977   0.578   0.603   2.653
  320SOL    HW2  978   0.612   0.571   2.810
  321SOL     OW  979   1.252   1.348   2.250
  321SOL    HW1  980   1.302   1.425   2.290
  321SOL    HW2  981   1.157   1.350   2.282
  322SOL     OW  982   1.272   1.445   3.004
  322SOL    HW1  983   1.319   1.458   3.091
  322SOL    HW2  984   1.206   1.371   3.013
  323SOL     OW  985   1.582   0.639   2.334
  323SOL    HW1  986   1.551   0.700   2.407
  323SOL    HW2  987   1.632   0.691   2.265
  324SOL     OW  988   0.354   1.510   3.191
  324SOL    HW1  989   0.333   1.466   3.104
  324SOL    HW2  990   0.451   1.536   3.194
  325SOL     OW  991   0.402   0.751   3.460
  325SOL    HW1  992   0.470   0.806   3.413
  325SOL    HW2  993   0.442   0.663   3.487
  326SOL     OW  994   1.587   0.779   3.532
  326SOL    HW1  995   1.495   0.817   3.527
  326SOL    HW2  996   1.647   0.826   3.467
  327SOL     OW  997   1.013   0.105   3.632
  327SOL    HW1  998   1.019   0.190   3.580
  327SOL    HW2  999   1.045   0.029   3.575
  328SOL     OW 1000   0.504   0.050   3.602
  328SOL    HW1 1001   0.462  -0.007   3.532
  328SOL    HW2 1002   0.438   0.119   3.634
  329SOL     OW 1003   0.573   0.870   2.891
  329SOL    HW1 1004   0.617   0.959   2.882
  329SOL    HW2 1005   0.510   0.870   2.968
  330SOL     OW 1006   1.360   0.862   2.907
  330SOL    HW1 1007   1.285   0.862   2.841
  330SOL    HW2 1008   1.397   0.770   2.916
  331SOL     OW 1009   1.209   0.525   2.137
  331SOL    HW1 1010   1.222   0.441   2.191
  331SOL    HW2 1011   1.180   0.599   2.197
  332SOL     OW 1012   0.307   0.213   3.093
  332SOL    HW1 1013   0.284   0.250   3.183
  332SOL    HW2 1014   0.277   0.118   3.087
  333SOL     OW 1015   0.037   1.310   3.144
  333SOL    HW1 1016   0.090   1.261   3.212
  333SOL    HW2 1017   0.059   1.408   3.149
  334SOL     OW 1018   0.732   0.634   2.926
  334SOL    HW1 1019   0.791   0.608   2.850
  334SOL    HW2 1020   0.704   0.730   2.915
  335SOL     OW 1021   1.728   0.935   3.716
  335SOL    HW1 1022   1.682   0.928   3.627
  335SOL    HW2 1023   1.666   0.979   3.782
  336SOL     OW 1024   0.307   0.063   2.480
  336SOL    HW1 1025   0.296   0.157   2.513
  336SOL    HW2 1026   0.302   0.000   2.557
  337SOL     OW 1027   1.622   0.367   2.236
  337SOL    HW1 1028   1.624   0.291   2.300
  337SOL    HW2 1029   1.574   0.444   2.276
  338SOL     OW 1030   1.023   0.766   2.828
  338SOL    HW1 1031   1.038   0.787   2.924
  338SOL    HW2 1032   0.993   0.671   2.819
  339SOL     OW 1033   0.980   1.573   3.562
  339SOL    HW1 1034   0.960   1.617   3.474
  339SOL    HW2 1035   1.019   1.482   3.546
  340SOL     OW 1036   1.859   1.518   3.467
  340SOL    HW1 1037   1.873   1.545   3.372
  340SOL    HW2 1038   1.942   1.540   3.520
  341SOL     OW 1039   0.350   0.898   3.666
  341SOL    HW1 1040   0.426   0.942   3.714
  341SOL    HW2 1041   0.385   0.851   3.584
  342SOL     OW 1042   1.540   0.274   1.987
  342SOL    HW1 1043   1.479   0.199   2.010
  342SOL    HW2 1044   1.562   0.326   2.070
  343SOL     OW 1045   1.303   0.838   1.904
  343SOL    HW1 1046   1.337   0.745   1.919
  343SOL    HW2 1047   1.321   0.865   1.809
  344SOL     OW 1048   1.068   1.333   2.711
  344SOL    HW1 1049   1.075   1.249   2.656
  344SOL    HW2 1050   1.130   1.402   2.675
  345SOL     OW 1051   0.319   0.810   2.811
  345SOL    HW1 1052   0.412   0.846   2.816
  345SOL    HW2 1053   0.313   0.725   2.863
  346SOL     OW 1054   0.339   0.509   2.868
  346SOL    HW1 1055   0.287   0.426   2.851
  346SOL    HW2 1056   0.416   0.514   2.804
  347SOL     OW 1057   1.138   0.380   3.540
  347SOL    HW1 1058   1.093   0.443   3.604
  347SOL    HW2 1059   1.231   0.411   3.523
  348SOL     OW 1060   1.160   0.207   3.339
  348SOL    HW1 1061   1.160   0.271   3.416
  348SOL    HW2 1062   1.188   0.255   3.256
  349SOL     OW 1063   0.008   1.326   2.062
  349SOL    HW1 1064  -0.085   1.347   2.031
  349SOL    HW2 1065   0.018   1.227   2.075
  350SOL     OW 1066   0.088   1.801   2.789
  350SOL    HW1 1067   0.046   1.715   2.762
  350SOL    HW2 1068   0.182   1.804   2.755
  351SOL     OW 1069   0.504   1.568   2.772
  351SOL    HW1 1070   0.570   1.642   2.781
  351SOL    HW2 1071   0.548   1.489   2.730
  352SOL     OW 1072   1.002   0.796   3.100
  352SOL    HW1 1073   1.043   0.764   3.186
  352SOL    HW2 1074   0.906   0.769   3.097
  353SOL     OW 1075   0.040   0.544   2.976
  353SOL    HW1 1076   0.125   0.511   2.935
  353SOL    HW2 1077   0.053   0.559   3.074
  354SOL     OW 1078   0.189   0.520   3.584
  354SOL    HW1 1079   0.248   0.480   3.514
  354SOL    HW2 1080   0.131   0.591   3.543
  355SOL     OW 1081   1.369   0.950   3.522
  355SOL    HW1 1082   1.408   1.039   3.542
  355SOL    HW2 1083   1.379   0.930   3.425
  356SOL     OW 1084   0.815   0.572   2.187
  356SOL    HW1 1085   0.822   0.483   2.141
  356SOL    HW2 1086   0.721   0.606   2.179
  357SOL     OW 1087   1.657   0.604   3.068
  357SOL    HW1 1088   1.619   0.535   3.130
  357SOL    HW2 1089   1.739   0.568   3.024
  358SOL     OW 1090   0.252   1.564   3.606
  358SOL    HW1 1091   0.222   1.621   3.682
  358SOL    HW2 1092   0.245   1.467   3.632
  359SOL     OW 1093   0.671   0.464   3.131
  359SOL    HW1 1094   0.637   0.375   3.101
  359SOL    HW2 1095   0.697   0.518   3.051
  360SOL     OW 1096   0.930   1.678   3.327
  360SOL    HW1 1097   0.906   1.660   3.232
  360SOL    HW2 1098   0.960   1.772   3.337
  361SOL     OW 1099   0.473   0.500   2.053
  361SOL    HW1 1100   0.534   0.580   2.057
  361SOL    HW2 1101   0.378   0.531   2.060
  362SOL     OW 1102   0.159   1.137   3.328
  362SOL    HW1 1103   0.181   1.076   3.404
  362SOL    HW2 1104   0.169   1.088   3.242
  363SOL     OW 1105   1.347   1.059   3.096
  363SOL    HW1 1106   1.371   0.996   3.022
  363SOL    HW2 1107   1.257   1.099   3.078
  364SOL     OW 1108   1.302   0.855   2.171
  364SOL    HW1 1109   1.216   0.824   2.213
  364SOL    HW2 1110   1.298   0.841   2.072
  365SOL     OW 1111   1.759   1.747   3.016
  365SOL    HW1 1112   1.820   1.777   2.943
  365SOL    HW2 1113   1.721   1.658   2.994
  366SOL     OW 1114   1.252   1.731   2.990
  366SOL    HW1 1115   1.336   1.736   2.936
  366SOL    HW2 1116   1.229   1.635   3.008
  367SOL     OW 1117   0.083   1.258   2.884
  367SOL    HW1 1118   0.078   1.257   2.984
  367SOL    HW2 1119   0.000   1.217   2.846
  368SOL     OW 1120   0.688   1.662   3.578
  368SOL    HW1 1121   0.632   1.743   3.587
  368SOL    HW2 1122   0.740   1.666   3.492
  369SOL     OW 1123   1.726   0.135   2.385
  369SOL    HW1 1124   1.799   0.118   2.318
  369SOL    HW2 1125   1.695   0.048   2.423
  370SOL     OW 1126   1.388   1.573   2.339
  370SOL    HW1 1127   1.455   1.585   2.265
  370SOL    HW2 1128   1.348   1.662   2.362
  371SOL     OW 1129   0.130   1.794   3.713
  371SOL    HW1 1130   0.089   1.720   3.766
  371SOL    HW2 1131   0.194   1.845   3.771
  372SOL     OW 1132   1.280   0.927   2.534
  372SOL    HW1 1133   1.340   0.846   2.536
  372SOL    HW2 1134   1.320   0.996   2.474
  373SOL     OW 1135   0.830   1.273   3.284
  373SOL    HW1 1136   0.825   1.306   3.379
  373SOL    HW2 1137   0.744   1.292   3.238
  374SOL     OW 1138   0.672   1.616   2.016
  374SOL    HW1 1139   0.681   1.626   1.917
  374SOL    HW2 1140   0.632   1.527   2.037
  375SOL     OW 1141   1.650   1.720   3.256
  375SOL    HW1 1142   1.703   1.730   3.172
  375SOL    HW2 1143   1.623   1.810   3.290
  376SOL     OW 1144   1.841   0.175   2.825
  376SOL    HW1 1145   1.880   0.090   2.789
  376SOL    HW2 1146   1.743   0.177   2.806
  377SOL     OW 1147   0.263   0.326   2.582
  377SOL    HW1 1148   0.184   0.377   2.548
  377SOL    HW2 1149   0.254   0.311   2.680
  378SOL     OW 1150   1.194   1.612   1.893
  378SOL    HW1 1151   1.200   1.519   1.930
  378SOL    HW2 1152   1.135   1.612   1.813
  379SOL     OW 1153   0.822   1.002   3.234
  379SOL    HW1 1154   0.862   1.001   3.142
  379SOL    HW2 1155   0.832   1.094   3.274
  380SOL     OW 1156   0.916   0.910   2.153
  380SOL    HW1 1157   0.979   0.948   2.085
  380SOL    HW2 1158   0.956   0.827   2.192
  381SOL     OW 1159   1.504   1.607   1.906
  381SOL    HW1 1160   1.412   1.644   1.913
  381SOL    HW2 1161   1.542   1.627   1.816
  382SOL     OW 1162   0.372   1.288   3.352
  382SOL    HW1 1163   0.359   1.381   3.318
  382SOL    HW2 1164   0.288   1.236   3.339
  383SOL     OW 1165   1.614   1.292   3.151
  383SOL    HW1 1166   1.674   1.295   3.231
  383SOL    HW2 1167   1.539   1.356   3.164
  384SOL     OW 1168   1.039   1.098   2.558
  384SOL    HW1 1169   0.969   1.051   2.612
  384SOL    HW2 1170   1.098   1.030   2.515
  385SOL     OW 1171   1.014   0.236   2.833
  385SOL    HW1 1172   1.006   0.200   2.740
  385SOL    HW2 1173   1.012   0.160   2.898
  386SOL     OW 1174   0.590   1.487   2.353
  386SOL    HW1 1175   0.632   1.429   2.283
  386SOL    HW2 1176   0.546   1.566   2.309
  387SOL     OW 1177   1.709   0.385   3.243
  387SOL    HW1 1178   1.782   0.454   3.247
  387SOL    HW2 1179   1.737   0.310   3.184
  388SOL     OW 1180   0.255   1.348   2.152
  388SOL    HW1 1181   0.159   1.349   2.125
  388SOL    HW2 1182   0.267   1.401   2.236
  389SOL     OW 1183   0.105   1.013   3.588
  389SOL    HW1 1184   0.028   0.980   3.642
  389SOL    HW2 1185   0.190   0.983   3.630
  390SOL     OW 1186   0.672   0.203   3.351
  390SOL    HW1 1187   0.762   0.187   3.311
  390SOL    HW2 1188   0.680   0.208   3.450
  391SOL     OW 1189   0.075   0.345   1.895
  391SOL    HW1 1190  -0.017   0.317   1.866
  391SOL    HW2 1191   0.106   0.422   1.839
  392SOL     OW 1192   1.440   0.856   3.260
  392SOL    HW1 1193   1.383   0.908   3.197
  392SOL    HW2 1194   1.536   0.868   3.236
  393SOL     OW 1195   0.072   0.166   2.180
  393SOL    HW1 1196   0.055   0.249   2.126
  393SOL    HW2 1197   0.162   0.129   2.158
  394SOL     OW 1198   1.183   1.335   1.981
  394SOL    HW1 1199   1.084   1.324   1.983
  394SOL    HW2 1200   1.217   1.350   2.074
  395SOL     OW 1201   0.613   0.842   3.293
  395SOL    HW1 1202   0.669   0.923   3.276
  395SOL    HW2 1203   0.672   0.762   3.296
  396SOL     OW 1204   1.493   1.767   2.821
  396SOL    HW1 1205   1.526   1.831   2.752
  396SOL    HW2 1206   1.559   1.761   2.896
  397SOL     OW 1207   0.716   0.565   3.570
  397SOL    HW1 1208   0.735   0.630   3.644
  397SOL    HW2 1209   0.776   0.485   3.579
  398SOL     OW 1210   1.450   1.220   3.495
  398SOL    HW1 1211   1.441   1.210   3.594
  398SOL    HW2 1212   1.546   1.213   3.469
  399SOL     OW 1213   0.390   1.741   3.422
  399SOL    HW1 1214   0.299   1.782   3.420
  399SOL    HW2 1215   0.383   1.647   3.454
  400SOL     OW 1216   1.674   0.883   3.116
  400SOL    HW1 1217   1.647   0.794   3.079
  400SOL    HW2 1218   1.675   0.951   3.043
  401SOL     OW 1219   1.225   0.325   2.311
  401SOL    HW1 1220   1.290   0.251   2.300
  401SOL    HW2 1221   1.245   0.375   2.395
  402SOL     OW 1222   0.594   0.745   2.514
  402SOL    HW1 1223   0.644   0.830   2.495
  402SOL    HW2 1224   0.506   0.747   2.466
  403SOL     OW 1225   1.777   0.342   3.504
  403SOL    HW1 1226   1.760   0.373   3.410
  403SOL    HW2 1227   1.693   0.305   3.542
  404SOL     OW 1228   1.730   0.934   3.379
  404SOL    HW1 1229   1.768   1.025   3.394
  404SOL    HW2 1230   1.722   0.917   3.280
  405SOL     OW 1231   0.859   1.374   1.878
  405SOL    HW1 1232   0.813   1.389   1.966
  405SOL    HW2 1233   0.903   1.459   1.848
  406SOL     OW 1234   0.661   1.790   2.815
  406SOL    HW1 1235   0.615   1.878   2.802
  406SOL    HW2 1236   0.760   1.802   2.808
  407SOL     OW 1237   0.859   0.956   2.723
  407SOL    HW1 1238   0.913   0.887   2.771
  407SOL    HW2 1239   0.827   1.025   2.789
  408SOL     OW 1240   1.083   0.984   1.949
  408SOL    HW1 1241   1.060   1.037   1.867
  408SOL    HW2 1242   1.164   0.928   1.930
  409SOL     OW 1243   1.861   1.569   2.713
  409SOL    HW1 1244   1.790   1.557   2.643
  409SOL    HW2 1245   1.862   1.490   2.773
  410SOL     OW 1246   0.221   1.314   3.706
  410SOL    HW1 1247   0.156   1.241   3.685
  410SOL    HW2 1248   0.225   1.328   3.804
  411SOL     OW 1249   0.079   1.240   2.515
  411SOL    HW1 1250   0.078   1.193   2.603
  411SOL    HW2 1251   0.161   1.212   2.464
  412SOL     OW 1252   0.672   1.391   3.486
  412SOL    HW1 1253   0.594   1.341   3.524
  412SOL    HW2 1254   0.669   1.486   3.517
  413SOL     OW 1255   1.824   0.192   3.089
  413SOL    HW1 1256   1.820   0.102   3.133
  413SOL    HW2 1257   1.827   0.181   2.990
  414SOL     OW 1258   0.428   0.424   2.382
  414SOL    HW1 1259   0.458   0.352   2.320
  414SOL    HW2 1260   0.389   0.384   2.465
  415SOL     OW 1261   1.705   1.487   2.966
  415SOL    HW1 1262   1.612   1.462   2.939
  415SOL    HW2 1263   1.731   1.437   3.048
  416SOL     OW 1264   0.317   0.547   3.142
  416SOL    HW1 1265   0.355   0.488   3.214
  416SOL    HW2 1266   0.357   0.521   3.054
  417SOL     OW 1267   0.812   1.586   2.549
  417SOL    HW1 1268   0.844   1.596   2.455
  417SOL    HW2 1269   0.733   1.524   2.551
  418SOL     OW 1270   1.424   0.214   2.974
  418SOL    HW1 1271   1.476   0.149   3.029
  418SOL    HW2 1272   1.375   0.277   3.035
  419SOL     OW 1273   1.001   0.034   3.016
  419SOL    HW1 1274   0.938  -0.038   2.985
  419SOL    HW2 1275   1.094  -0.002   3.016
  420SOL     OW 1276   0.770   1.330   2.163
  420SOL    HW1 1277   0.724   1.243   2.180
  420SOL    HW2 1278   0.861   1.327   2.204
  421SOL     OW 1279   0.618   1.567   3.146
  421SOL    HW1 1280   0.613   1.649   3.203
  421SOL    HW2 1281   0.707   1.564   3.101
  422SOL     OW 1282   1.352   0.052   2.030
  422SOL    HW1 1283   1.387   0.011   1.946
  422SOL    HW2 1284   1.262   0.014   2.050
  423SOL     OW 1285   1.300   0.453   2.553
  423SOL    HW1 1286   1.241   0.533   2.557
  423SOL    HW2 1287   1.315   0.418   2.646
  424SOL     OW 1288   1.593   0.221   2.744
  424SOL    HW1 1289   1.509   0.220   2.798
  424SOL    HW2 1290   1.595   0.304   2.688
  425SOL     OW 1291   0.039   1.077   2.162
  425SOL    HW1 1292   0.138   1.066   2.153
  425SOL    HW2 1293  -0.001   0.991   2.194
  426SOL     OW 1294   0.875   1.646   2.199
  426SOL    HW1 1295   0.798   1.611   2.145
  426SOL    HW2 1296   0.843   1.717   2.261
  427SOL     OW 1297   0.230   0.628   3.837
  427SOL    HW1 1298   0.137   0.626   3.874
  427SOL    HW2 1299   0.231   0.589   3.745
  428SOL     OW 1300   0.019   0.368   4.371
  428SOL    HW1 1301  -0.063   0.411   4.410
  428SOL    HW2 1302  -0.009   0.295   4.308
  429SOL     OW 1303   1.555   1.511   4.427
  429SOL    HW1 1304   1.498   1.495   4.508
  429SOL    HW2 1305   1.496   1.521   4.347
  430SOL     OW 1306   1.135   0.703   4.441
  430SOL    HW1 1307   1.192   0.781   4.416
  430SOL    HW2 1308   1.075   0.729   4.517
  431SOL     OW 1309   1.755   0.607   3.955
  431SOL    HW1 1310   1.743   0.594   3.856
  431SOL    HW2 1311   1.725   0.526   4.004
  432SOL     OW 1312   0.768   1.144   4.747
  432SOL    HW1 1313   0.690   1.161   4.807
  432SOL    HW2 1314   0.802   1.231   4.711
  433SOL     OW 1315   0.685   1.012   4.389
  433SOL    HW1 1316   0.754   0.996   4.459
  433SOL    HW2 1317   0.612   1.069   4.427
  434SOL     OW 1318   1.603   0.447   4.461
  434SOL    HW1 1319   1.529   0.493   4.411
  434SOL    HW2 1320   1.654   0.515   4.514
  435SOL     OW 1321   0.231   1.713   4.207
  435SOL    HW1 1322   0.265   1.790   4.261
  435SOL    HW2 1323   0.275   1.713   4.117
  436SOL     OW 1324   0.230   1.434   4.262
  436SOL    HW1 1325   0.204   1.530   4.262
  436SOL    HW2 1326   0.159   1.380   4.307
  437SOL     OW 1327   0.240   1.091   4.610
  437SOL    HW1 1328   0.254   1.007   4.662
  437SOL    HW2 1329   0.185   1.155   4.665
  438SOL     OW 1330   0.606   0.964   3.847
  438SOL    HW1 1331   0.613   1.048   3.793
  438SOL    HW2 1332   0.652   0.977   3.935
  439SOL     OW 1333   0.122   0.643   4.287
  439SOL    HW1 1334   0.077   0.555   4.304
  439SOL    HW2 1335   0.121   0.697   4.371
  440SOL     OW 1336   1.842   1.767   4.083
  440SOL    HW1 1337   1.896   1.738   4.163
  440SOL    HW2 1338   1.872   1.857   4.054
  441SOL     OW 1339   0.027   1.596   3.841
  441SOL    HW1 1340   0.008   1.500   3.862
  441SOL    HW2 1341  -0.006   1.654   3.916
  442SOL     OW 1342   1.689   0.922   4.336
  442SOL    HW1 1343   1.784   0.893   4.344
  442SOL    HW2 1344   1.681   0.987   4.261
  443SOL     OW 1345   1.641   1.108   4.156
  443SOL    HW1 1346   1.727   1.110   4.104
  443SOL    HW2 1347   1.655   1.155   4.244
  444SOL     OW 1348   0.613   1.365   4.450
  444SOL    HW1 1349   0.564   1.278   4.459
  444SOL    HW2 1350   0.590   1.408   4.363
  445SOL     OW 1351   0.809   0.004   4.226
  445SOL    HW1 1352   0.849   0.095   4.217
  445SOL    HW2 1353   0.709   0.012   4.232
  446SOL     OW 1354   1.525   0.999   3.914
  446SOL    HW1 1355   1.462   0.923   3.927
  446SOL    HW2 1356   1.573   1.017   4.000
  447SOL     OW 1357   1.466   1.417   4.677
  447SOL    HW1 1358   1.407   1.423   4.757
  447SOL    HW2 1359   1.451   1.329   4.631
  448SOL     OW 1360   1.667   1.714   4.296
  448SOL    HW1 1361   1.626   1.691   4.208
  448SOL    HW2 1362   1.649   1.640   4.361
  449SOL     OW 1363   0.598   0.729   3.994
  449SOL    HW1 1364   0.622   0.798   3.926
  449SOL    HW2 1365   0.520   0.762   4.048
  450SOL     OW 1366   1.281   0.345   4.668
  450SOL    HW1 1367   1.195   0.295   4.655
  450SOL    HW2 1368   1.343   0.291   4.724
  451SOL     OW 1369   1.576   1.662   4.031
  451SOL    HW1 1370   1.665   1.708   4.034
  451SOL    HW2 1371   1.555   1.638   3.936
  452SOL     OW 1372   1.041   0.701   4.153
  452SOL    HW1 1373   1.067   0.697   4.249
  452SOL    HW2 1374   0.956   0.650   4.139
  453SOL     OW 1375   0.076   0.811   4.513
  453SOL    HW1 1376   0.175   0.799   4.522
  453SOL    HW2 1377   0.052   0.906   4.534
  454SOL     OW 1378   0.865   0.348   3.919
  454SOL    HW1 1379   0.924   0.411   3.870
  454SOL    HW2 1380   0.884   0.254   3.890
  455SOL     OW 1381   1.362   1.144   4.269
  455SOL    HW1 1382   1.445   1.115   4.221
  455SOL    HW2 1383   1.313   1.211   4.213
  456SOL     OW 1384   1.008   1.456   4.201
  456SOL    HW1 1385   0.962   1.528   4.149
  456SOL    HW2 1386   1.004   1.476   4.299
  457SOL     OW 1387   0.351   1.801   4.577
  457SOL    HW1 1388   0.401   1.715   4.583
  457SOL    HW2 1389   0.416   1.878   4.574
  458SOL     OW 1390   1.795   1.066   4.597
  458SOL    HW1 1391   1.733   1.051   4.521
  458SOL    HW2 1392   1.743   1.077   4.682
  459SOL     OW 1393   0.321   0.943   3.966
  459SOL    HW1 1394   0.403   0.982   3.924
  459SOL    HW2 1395   0.294   0.861   3.917
  460SOL     OW 1396   1.458   0.735   4.452
  460SOL    HW1 1397   1.453   0.670   4.527
  460SOL    HW2 1398   1.538   0.794   4.465
  461SOL     OW 1399   1.111   1.776   3.961
  461SOL    HW1 1400   1.051   1.714   4.011
  461SOL    HW2 1401   1.142   1.732   3.876
  462SOL     OW 1402   1.632   1.377   3.805
  462SOL    HW1 1403   1.600   1.471   3.795
  462SOL    HW2 1404   1.556   1.314   3.793
  463SOL     OW 1405   0.464   1.743   4.047
  463SOL    HW1 1406   0.497   1.782   4.133
  463SOL    HW2 1407   0.540   1.736   3.982
  464SOL     OW 1408   1.400   0.107   4.150
  464SOL    HW1 1409   1.376   0.070   4.060
  464SOL    HW2 1410   1.499   0.123   4.154
  465SOL     OW 1411   0.382   0.700   4.204
  465SOL    HW1 1412   0.427   0.610   4.201
  465SOL    HW2 1413   0.288   0.689   4.237
  466SOL     OW 1414   0.614   0.122   3.841
  466SOL    HW1 1415   0.712   0.100   3.848
  466SOL    HW2 1416   0.583   0.105   3.748
  467SOL     OW 1417   0.539   0.064   4.236
  467SOL    HW1 1418   0.458   0.065   4.294
  467SOL    HW2 1419   0.542   0.147   4.181
  468SOL     OW 1420   1.434   1.188   3.765
  468SOL    HW1 1421   1.466   1.112   3.822
  468SOL    HW2 1422   1.342   1.215   3.795
  469SOL     OW 1423   0.297   0.035   3.895
  469SOL    HW1 1424   0.346   0.119   3.874
  469SOL    HW2 1425   0.359  -0.030   3.940
  470SOL     OW 1426   0.935   0.236   4.204
  470SOL    HW1 1427   0.887   0.277   4.126
  470SOL    HW2 1428   1.034   0.234   4.185
  471SOL     OW 1429   1.227   1.570   4.517
  471SOL    HW1 1430   1.248   1.644   4.452
  471SOL    HW2 1431   1.295   1.570   4.590
  472SOL     OW 1432   0.459   1.152   4.465
  472SOL    HW1 1433   0.388   1.125   4.530
  472SOL    HW2 1434   0.433   1.124   4.372
  473SOL     OW 1435   1.271   1.797   4.315
  473SOL    HW1 1436   1.315   1.861   4.251
  473SOL    HW2 1437   1.221   1.849   4.385
  474SOL     OW 1438   1.032   0.549   3.740
  474SOL    HW1 1439   0.991   0.631   3.701
  474SOL    HW2 1440   1.096   0.575   3.813
  475SOL     OW 1441   0.866   0.454   4.366
  475SOL    HW1 1442   0.834   0.526   4.304
  475SOL    HW2 1443   0.890   0.373   4.313
  476SOL     OW 1444   1.017   0.039   4.477
  476SOL    HW1 1445   0.945   0.044   4.408
  476SOL    HW2 1446   0.993  -0.030   4.546
  477SOL     OW 1447   1.857   0.833   4.101
  477SOL    HW1 1448   1.899   0.769   4.165
  477SOL    HW2 1449   1.819   0.782   4.023
  478SOL     OW 1450   0.488   1.385   3.898
  478SOL    HW1 1451   0.401   1.370   3.945
  478SOL    HW2 1452   0.471   1.411   3.803
  479SOL     OW 1453   1.664   1.280   4.381
  479SOL    HW1 1454   1.763   1.288   4.395
  479SOL    HW2 1455   1.619   1.364   4.412
  480SOL     OW 1456   1.390   0.575   3.802
  480SOL    HW1 1457   1.336   0.554   3.883
  480SOL    HW2 1458   1.481   0.534   3.811
  481SOL     OW 1459   0.527   0.256   4.052
  481SOL    HW1 1460   0.554   0.197   3.977
  481SOL    HW2 1461   0.527   0.351   4.021
  482SOL     OW 1462   0.705   1.050   4.092
  482SOL    HW1 1463   0.691   1.057   4.191
  482SOL    HW2 1464   0.789   0.999   4.074
  483SOL     OW 1465   0.367   1.100   4.225
  483SOL    HW1 1466   0.360   1.183   4.169
  483SOL    HW2 1467   0.371   1.020   4.165
  484SOL     OW 1468   0.566   0.537   4.589
  484SOL    HW1 1469   0.578   0.603   4.515
  484SOL    HW2 1470   0.612   0.571   4.672
  485SOL     OW 1471   1.252   1.348   4.112
  485SOL    HW1 1472   1.302   1.425   4.152
  485SOL    HW2 1473   1.157   1.350   4.144
  486SOL     OW 1474   1.582   0.639   4.196
  486SOL    HW1 1475   1.551   0.700   4.269
  486SOL    HW2 1476   1.632   0.691   4.127
  487SOL     OW 1477   1.209   0.525   3.999
  487SOL    HW1 1478   1.222   0.441   4.053
  487SOL    HW2 1479   1.180   0.599   4.059
  488SOL     OW 1480   0.732   0.634   4.788
  488SOL    HW1 1481   0.791   0.608   4.712
  488SOL    HW2 1482   0.704   0.730   4.777
  489SOL     OW 1483   0.307   0.063   4.342
  489SOL    HW1 1484   0.296   0.157   4.375
  489SOL    HW2 1485   0.302   0.000   4.419
  490SOL     OW 1486   1.622   0.367   4.098
  490SOL    HW1 1487   1.624   0.291   4.162
  490SOL    HW2 1488   1.574   0.444   4.138
  491SOL     OW 1489   1.540   0.274   3.849
  491SOL    HW1 1490   1.479   0.199   3.872
  491SOL    HW2 1491   1.562   0.326   3.932
  492SOL     OW 1492   1.303   0.838   3.766
  492SOL    HW1 1493   1.337   0.745   3.781
  492SOL    HW2 1494   1.321   0.865   3.671
  493SOL     OW 1495   1.068   1.333   4.573
  493SOL    HW1 1496   1.075   1.249   4.518
  493SOL    HW2 1497   1.130   1.402   4.537
  494SOL     OW 1498   0.319   0.810   4.673
  494SOL    HW1 1499   0.412   0.846   4.678
  494SOL    HW2 1500   0.313   0.725   4.725
  495SOL     OW 1501   0.008   1.326   3.924
  495SOL    HW1 1502  -0.085   1.347   3.893
  495SOL    HW2 1503   0.018   1.227   3.937
  496SOL     OW 1504   0.088   1.801   4.651
  496SOL    HW1 1505   0.046   1.715   4.624
  496SOL    HW2 1506   0.182   1.804   4.617
  497SOL     OW 1507   0.504   1.568   4.634
  497SOL    HW1 1508   0.570   1.642   4.643
  497SOL    HW2 1509   0.548   1.489   4.592
  498SOL     OW 1510   0.815   0.572   4.049
  498SOL    HW1 1511   0.822   0.483   4.003
  498SOL    HW2 1512   0.721   0.606   4.041
  499SOL     OW 1513   0.473   0.500   3.915
  499SOL    HW1 1514   0.534   0.580   3.919
  499SOL    HW2 1515   0.378   0.531   3.922
  500SOL     OW 1516   1.302   0.855   4.033
  500SOL    HW1 1517   1.216   0.824   4.075
  500SOL    HW2 1518   1.298   0.841   3.934
  501SOL     OW 1519   1.759   1.747   4.878
  501SOL    HW1 1520   1.820   1.777   4.805
  501SOL    HW2 1521   1.721   1.658   4.856
  502SOL     OW 1522   1.726   0.135   4.247
  502SOL    HW1 1523   1.799   0.118   4.180
  502SOL    HW2 1524   1.695   0.048   4.285
  503SOL     OW 1525   1.388   1.573   4.201
  503SOL    HW1 1526   1.455   1.585   4.127
  503SOL    HW2 1527   1.348   1.662   4.224
  504SOL     OW 1528   1.280   0.927   4.396
  504SOL    HW1 1529   1.340   0.846   4.398
  504SOL    HW2 1530   1.320   0.996   4.336
  505SOL     OW 1531   0.672   1.616   3.878
  505SOL    HW1 1532   0.681   1.626   3.779
  505SOL    HW2 1533   0.632   1.527   3.899
  506SOL     OW 1534   1.841   0.175   4.687
  506SOL    HW1 1535   1.880   0.090   4.651
  506SOL    HW2 1536   1.743   0.177   4.668
  507SOL     OW 1537   0.263   0.326   4.444
  507SOL    HW1 1538   0.184   0.377   4.410
  507SOL    HW2 1539   0.254   0.311   4.542
  508SOL     OW 1540   1.194   1.612   3.755
  508SOL    HW1 1541   1.200   1.519   3.792
  508SOL    HW2 1542   1.135   1.612   3.675
  509SOL     OW 1543   0.916   0.910   4.015
  509SOL    HW1 1544   0.979   0.948   3.947
  509SOL    HW2 1545   0.956   0.827   4.054
  510SOL     OW 1546   1.504   1.607   3.768
  510SOL    HW1 1547   1.412   1.644   3.775
  510SOL    HW2 1548   1.542   1.627   3.678
  511SOL     OW 1549   1.039   1.098   4.420
  511SOL    HW1 1550   0.969   1.051   4.474
  511SOL    HW2 1551   1.098   1.030   4.377
  512SOL     OW 1552   0.590   1.487   4.215
  512SOL    HW1 1553   0.632   1.429   4.145
  512SOL    HW2 1554   0.546   1.566   4.171
  513SOL     OW 1555   0.255   1.348   4.014
  513SOL    HW1 1556   0.159   1.349   3.987
  513SOL    HW2 1557   0.267   1.401   4.098
  514SOL     OW 1558   0.075   0.345   3.757
  514SOL    HW1 1559  -0.017   0.317   3.728
  514SOL    HW2 1560   0.106   0.422   3.701
  515SOL     OW 1561   0.072   0.166   4.042
  515SOL    HW1 1562   0.055   0.249   3.988
  515SOL    HW2 1563   0.162   0.129   4.020
  516SOL     OW 1564   1.183   1.335   3.843
  516SOL    HW1 1565   1.084   1.324   3.845
  516SOL    HW2 1566   1.217   1.350   3.936
  517SOL     OW 1567   1.674   0.883   4.978
  517SOL    HW1 1568   1.647   0.794   4.941
  517SOL    HW2 1569   1.675   0.951   4.905
  518SOL     OW 1570   1.225   0.325   4.173
  518SOL    HW1 1571   1.290   0.251   4.162
  518SOL    HW2 1572   1.245   0.375   4.257
  519SOL     OW 1573   0.594   0.745   4.376
  519SOL    HW1 1574   0.644   0.830   4.357
  519SOL    HW2 1575   0.506   0.747   4.328
  520SOL     OW 1576   0.859   1.374   3.740
  520SOL    HW1 1577   0.813   1.389   3.828
  520SOL    HW2 1578   0.903   1.459   3.710
  521SOL     OW 1579   0.661   1.790   4.677
  521SOL    HW1 1580   0.615   1.878   4.664
  521SOL    HW2 1581   0.760   1.802   4.670
  522SOL     OW 1582   0.859   0.956   4.585
  522SOL    HW1 1583   0.913   0.887   4.633
  522SOL    HW2 1584   0.827   1.025   4.651
  523SOL     OW 1585   1.083   0.984   3.811
  523SOL    HW1 1586   1.060   1.037   3.729
  523SOL    HW2 1587   1.164   0.928   3.792
  524SOL     OW 1588   1.861   1.569   4.575
  524SOL    HW1 1589   1.790   1.557   4.505
  524SOL    HW2 1590   1.862   1.490   4.635
  525SOL     OW 1591   0.079   1.240   4.377
  525SOL    HW1 1592   0.078   1.193   4.465
  525SOL    HW2 1593   0.161   1.212   4.326
  526SOL     OW 1594   1.824   0.192   4.951
  526SOL    HW1 1595   1.820   0.102   4.995
  526SOL    HW2 1596   1.827   0.181   4.852
  527SOL     OW 1597   0.428   0.424   4.244
  527SOL    HW1 1598   0.458   0.352   4.182
  527SOL    HW2 1599   0.389   0.384   4.327
  528SOL     OW 1600   0.812   1.586   4.411
  528SOL    HW1 1601   0.844   1.596   4.317
  528SOL    HW2 1602   0.733   1.524   4.413
  529SOL     OW 1603   0.770   1.330   4.025
  529SOL    HW1 1604   0.724   1.243   4.042
  529SOL    HW2 1605   0.861   1.327   4.066
  530SOL     OW 1606   1.352   0.052   3.892
  530SOL    HW1 1607   1.387   0.011   3.808
  530SOL    HW2 1608   1.262   0.014   3.912
  531SOL     OW 1609   1.300   0.453   4.415
  531SOL    HW1 1610   1.241   0.533   4.419
  531SOL    HW2 1611   1.315   0.418   4.508
  532SOL     OW 1612   1.593   0.221   4.606
  532SOL    HW1 1613   1.509   0.220   4.660
  532SOL    HW2 1614   1.595   0.304   4.550
  533SOL     OW 1615   0.039   1.077   4.024
  533SOL    HW1 1616   0.138   1.066   4.015
  533SOL    HW2 1617  -0.001   0.991   4.056
  534SOL     OW 1618   0.875   1.646   4.061
  534SOL    HW1 1619   0.798   1.611   4.007
  534SOL    HW2 1620   0.843   1.717   4.123
  535SOL     OW 1621   0.230   2.490   0.113
  535SOL    HW1 1622   0.137   2.488   0.150
  535SOL    HW2 1623   0.231   2.451   0.021
  536SOL     OW 1624   0.225   2.137   0.996
  536SOL    HW1 1625   0.260   2.120   1.088
  536SOL    HW2 1626   0.137   2.092   0.984
  537SOL     OW 1627   0.019   2.230   0.647
  537SOL    HW1 1628  -0.063   2.273   0.686
  537SOL    HW2 1629  -0.009   2.157   0.584
  538SOL     OW 1630   0.569   3.137   1.165
  538SOL    HW1 1631   0.476   3.130   1.128
  538SOL    HW2 1632   0.580   3.226   1.209
  539SOL     OW 1633   1.555   3.373   0.703
  539SOL    HW1 1634   1.498   3.357   0.784
  539SOL    HW2 1635   1.496   3.383   0.623
  540SOL     OW 1636   1.135   2.565   0.717
  540SOL    HW1 1637   1.192   2.643   0.692
  540SOL    HW2 1638   1.075   2.591   0.793
  541SOL     OW 1639   1.755   2.469   0.231
  541SOL    HW1 1640   1.743   2.456   0.132
  541SOL    HW2 1641   1.725   2.388   0.280
  542SOL     OW 1642   0.768   3.006   1.023
  542SOL    HW1 1643   0.690   3.023   1.083
  542SOL    HW2 1644   0.802   3.093   0.987
  543SOL     OW 1645   0.850   2.660   1.823
  543SOL    HW1 1646   0.846   2.736   1.888
  543SOL    HW2 1647   0.872   2.696   1.732
  544SOL     OW 1648   0.685   2.874   0.665
  544SOL    HW1 1649   0.754   2.858   0.735
  544SOL    HW2 1650   0.612   2.931   0.703
  545SOL     OW 1651   0.686   3.023   1.803
  545SOL    HW1 1652   0.746   3.102   1.817
  545SOL    HW2 1653   0.600   3.054   1.762
  546SOL     OW 1654   0.335   3.297   1.061
  546SOL    HW1 1655   0.257   3.266   1.008
  546SOL    HW2 1656   0.393   3.355   1.004
  547SOL     OW 1657   1.460   3.367   1.339
  547SOL    HW1 1658   1.484   3.461   1.365
  547SOL    HW2 1659   1.444   3.313   1.421
  548SOL     OW 1660   0.438   2.254   1.499
  548SOL    HW1 1661   0.520   2.198   1.508
  548SOL    HW2 1662   0.357   2.196   1.503
  549SOL     OW 1663   1.603   2.309   0.737
  549SOL    HW1 1664   1.529   2.355   0.687
  549SOL    HW2 1665   1.654   2.377   0.790
  550SOL     OW 1666   0.231   3.575   0.483
  550SOL    HW1 1667   0.265   3.652   0.537
  550SOL    HW2 1668   0.275   3.575   0.393
  551SOL     OW 1669   1.127   3.203   1.690
  551SOL    HW1 1670   1.174   3.203   1.778
  551SOL    HW2 1671   1.079   3.116   1.679
  552SOL     OW 1672   0.230   3.296   0.538
  552SOL    HW1 1673   0.204   3.392   0.538
  552SOL    HW2 1674   0.159   3.242   0.583
  553SOL     OW 1675   0.240   2.953   0.886
  553SOL    HW1 1676   0.254   2.869   0.938
  553SOL    HW2 1677   0.185   3.017   0.941
  554SOL     OW 1678   0.620   3.648   1.439
  554SOL    HW1 1679   0.528   3.631   1.474
  554SOL    HW2 1680   0.648   3.740   1.465
  555SOL     OW 1681   0.606   2.826   0.123
  555SOL    HW1 1682   0.613   2.910   0.069
  555SOL    HW2 1683   0.652   2.839   0.211
  556SOL     OW 1684   1.594   1.976   1.480
  556SOL    HW1 1685   1.576   2.043   1.408
  556SOL    HW2 1686   1.591   2.022   1.569
  557SOL     OW 1687   0.122   2.505   0.563
  557SOL    HW1 1688   0.077   2.417   0.580
  557SOL    HW2 1689   0.121   2.559   0.647
  558SOL     OW 1690   1.842   3.629   0.359
  558SOL    HW1 1691   1.896   3.600   0.439
  558SOL    HW2 1692   1.872   3.719   0.330
  559SOL     OW 1693   0.027   3.458   0.117
  559SOL    HW1 1694   0.008   3.362   0.138
  559SOL    HW2 1695  -0.006   3.516   0.192
  560SOL     OW 1696   1.689   2.784   0.612
  560SOL    HW1 1697   1.784   2.755   0.620
  560SOL    HW2 1698   1.681   2.849   0.537
  561SOL     OW 1699   1.641   2.970   0.432
  561SOL    HW1 1700   1.727   2.972   0.380
  561SOL    HW2 1701   1.655   3.017   0.520
  562SOL     OW 1702   0.113   2.599   1.597
  562SOL    HW1 1703   0.201   2.586   1.642
  562SOL    HW2 1704   0.100   2.696   1.575
  563SOL     OW 1705   0.613   3.227   0.726
  563SOL    HW1 1706   0.564   3.140   0.735
  563SOL    HW2 1707   0.590   3.270   0.639
  564SOL     OW 1708   1.293   3.090   1.423
  564SOL    HW1 1709   1.330   3.017   1.365
  564SOL    HW2 1710   1.345   3.095   1.508
  565SOL     OW 1711   0.809   1.866   0.502
  565SOL    HW1 1712   0.849   1.957   0.493
  565SOL    HW2 1713   0.709   1.874   0.508
  566SOL     OW 1714   0.197   2.838   1.264
  566SOL    HW1 1715   0.286   2.793   1.250
  566SOL    HW2 1716   0.124   2.773   1.245
  567SOL     OW 1717   1.525   2.861   0.190
  567SOL    HW1 1718   1.462   2.785   0.203
  567SOL    HW2 1719   1.573   2.879   0.276
  568SOL     OW 1720   1.187   3.654   1.616
  568SOL    HW1 1721   1.211   3.714   1.540
  568SOL    HW2 1722   1.194   3.559   1.586
  569SOL     OW 1723   0.317   2.113   1.801
  569SOL    HW1 1724   0.388   2.184   1.807
  569SOL    HW2 1725   0.229   2.152   1.829
  570SOL     OW 1726   1.466   3.279   0.953
  570SOL    HW1 1727   1.407   3.285   1.033
  570SOL    HW2 1728   1.451   3.191   0.907
  571SOL     OW 1729   1.667   3.576   0.572
  571SOL    HW1 1730   1.626   3.553   0.484
  571SOL    HW2 1731   1.649   3.502   0.637
  572SOL     OW 1732   0.598   2.591   0.270
  572SOL    HW1 1733   0.622   2.660   0.202
  572SOL    HW2 1734   0.520   2.624   0.324
  573SOL     OW 1735   1.281   2.207   0.944
  573SOL    HW1 1736   1.195   2.157   0.931
  573SOL    HW2 1737   1.343   2.153   1.000
  574SOL     OW 1738   1.576   3.524   0.307
  574SOL    HW1 1739   1.665   3.570   0.310
  574SOL    HW2 1740   1.555   3.500   0.212
  575SOL     OW 1741   0.807   2.467   1.465
  575SOL    HW1 1742   0.760   2.464   1.554
  575SOL    HW2 1743   0.756   2.412   1.399
  576SOL     OW 1744   1.394   2.331   1.674
  576SOL    HW1 1745   1.374   2.374   1.762
  576SOL    HW2 1746   1.472   2.269   1.683
  577SOL     OW 1747   0.973   2.752   1.572
  577SOL    HW1 1748   1.019   2.668   1.543
  577SOL    HW2 1749   0.917   2.786   1.497
  578SOL     OW 1750   0.991   2.272   1.242
  578SOL    HW1 1751   0.914   2.306   1.296
  578SOL    HW2 1752   0.957   2.221   1.163
  579SOL     OW 1753   1.041   2.563   0.429
  579SOL    HW1 1754   1.067   2.559   0.525
  579SOL    HW2 1755   0.956   2.512   0.415
  580SOL     OW 1756   0.076   2.673   0.789
  580SOL    HW1 1757   0.175   2.661   0.798
  580SOL    HW2 1758   0.052   2.768   0.810
  581SOL     OW 1759   0.130   3.683   1.571
  581SOL    HW1 1760   0.120   3.668   1.670
  581SOL    HW2 1761   0.044   3.719   1.535
  582SOL     OW 1762   0.865   2.210   0.195
  582SOL    HW1 1763   0.924   2.273   0.146
  582SOL    HW2 1764   0.884   2.116   0.166
  583SOL     OW 1765   1.719   2.447   1.831
  583SOL    HW1 1766   1.693   2.536   1.795
  583SOL    HW2 1767   1.717   2.379   1.758
  584SOL     OW 1768   1.362   3.006   0.545
  584SOL    HW1 1769   1.445   2.977   0.497
  584SOL    HW2 1770   1.313   3.073   0.489
  585SOL     OW 1771   0.550   2.058   0.885
  585SOL    HW1 1772   0.545   2.053   0.985
  585SOL    HW2 1773   0.552   2.154   0.856
  586SOL     OW 1774   1.008   3.318   0.477
  586SOL    HW1 1775   0.962   3.390   0.425
  586SOL    HW2 1776   1.004   3.338   0.575
  587SOL     OW 1777   0.351   3.663   0.853
  587SOL    HW1 1778   0.401   3.577   0.859
  587SOL    HW2 1779   0.416   3.740   0.850
  588SOL     OW 1780   1.795   2.928   0.873
  588SOL    HW1 1781   1.733   2.913   0.797
  588SOL    HW2 1782   1.743   2.939   0.958
  589SOL     OW 1783   1.227   3.412   1.506
  589SOL    HW1 1784   1.233   3.335   1.570
  589SOL    HW2 1785   1.175   3.386   1.426
  590SOL     OW 1786   0.321   2.805   0.242
  590SOL    HW1 1787   0.403   2.844   0.200
  590SOL    HW2 1788   0.294   2.723   0.193
  591SOL     OW 1789   1.458   2.597   0.728
  591SOL    HW1 1790   1.453   2.532   0.803
  591SOL    HW2 1791   1.538   2.656   0.741
  592SOL     OW 1792   0.461   3.128   1.727
  592SOL    HW1 1793   0.411   3.129   1.641
  592SOL    HW2 1794   0.398   3.110   1.803
  593SOL     OW 1795   1.111   3.638   0.237
  593SOL    HW1 1796   1.051   3.576   0.287
  593SOL    HW2 1797   1.142   3.594   0.152
  594SOL     OW 1798   0.202   2.147   1.498
  594SOL    HW1 1799   0.122   2.207   1.485
  594SOL    HW2 1800   0.192   2.098   1.584
  595SOL     OW 1801   1.632   3.239   0.081
  595SOL    HW1 1802   1.600   3.333   0.071
  595SOL    HW2 1803   1.556   3.176   0.069
  596SOL     OW 1804   0.464   3.605   0.323
  596SOL    HW1 1805   0.497   3.644   0.409
  596SOL    HW2 1806   0.540   3.598   0.258
  597SOL     OW 1807   1.400   1.969   0.426
  597SOL    HW1 1808   1.376   1.932   0.336
  597SOL    HW2 1809   1.499   1.985   0.430
  598SOL     OW 1810   0.249   3.647   1.241
  598SOL    HW1 1811   0.306   3.582   1.291
  598SOL    HW2 1812   0.233   3.614   1.148
  599SOL     OW 1813   0.940   3.560   0.904
  599SOL    HW1 1814   1.020   3.503   0.925
  599SOL    HW2 1815   0.891   3.520   0.827
  600SOL     OW 1816   0.382   2.562   0.480
  600SOL    HW1 1817   0.427   2.472   0.477
  600SOL    HW2 1818   0.288   2.551   0.513
  601SOL     OW 1819   1.547   2.084   1.729
  601SOL    HW1 1820   1.542   2.121   1.821
  601SOL    HW2 1821   1.475   2.015   1.717
  602SOL     OW 1822   0.781   2.126   1.749
  602SOL    HW1 1823   0.848   2.065   1.792
  602SOL    HW2 1824   0.708   2.145   1.814
  603SOL     OW 1825   0.888   3.376   1.195
  603SOL    HW1 1826   0.865   3.351   1.101
  603SOL    HW2 1827   0.949   3.307   1.234
  604SOL     OW 1828   1.351   2.452   1.433
  604SOL    HW1 1829   1.379   2.409   1.518
  604SOL    HW2 1830   1.376   2.548   1.434
  605SOL     OW 1831   0.803   3.264   0.924
  605SOL    HW1 1832   0.893   3.278   0.882
  605SOL    HW2 1833   0.732   3.266   0.853
  606SOL     OW 1834   0.922   2.365   0.899
  606SOL    HW1 1835   0.897   2.356   0.803
  606SOL    HW2 1836   0.970   2.283   0.930
  607SOL     OW 1837   0.539   1.926   0.512
  607SOL    HW1 1838   0.458   1.927   0.570
  607SOL    HW2 1839   0.542   2.009   0.457
  608SOL     OW 1840   1.434   3.050   0.041
  608SOL    HW1 1841   1.466   2.974   0.098
  608SOL    HW2 1842   1.342   3.077   0.071
  609SOL     OW 1843   0.297   1.897   0.171
  609SOL    HW1 1844   0.346   1.981   0.150
  609SOL    HW2 1845   0.359   1.832   0.216
  610SOL     OW 1846   0.935   2.098   0.480
  610SOL    HW1 1847   0.887   2.139   0.402
  610SOL    HW2 1848   1.034   2.096   0.461
  611SOL     OW 1849   1.076   2.545   1.464
  611SOL    HW1 1850   0.996   2.484   1.467
  611SOL    HW2 1851   1.157   2.492   1.440
  612SOL     OW 1852   1.227   3.432   0.793
  612SOL    HW1 1853   1.248   3.506   0.728
  612SOL    HW2 1854   1.295   3.432   0.866
  613SOL     OW 1855   0.459   3.014   0.741
  613SOL    HW1 1856   0.388   2.987   0.806
  613SOL    HW2 1857   0.433   2.986   0.648
  614SOL     OW 1858   1.271   3.659   0.591
  614SOL    HW1 1859   1.315   3.723   0.527
  614SOL    HW2 1860   1.221   3.711   0.661
  615SOL     OW 1861   1.032   2.411   0.016
  615SOL    HW1 1862   0.991   2.493  -0.023
  615SOL    HW2 1863   1.096   2.437   0.089
  616SOL     OW 1864   0.078   2.418   1.386
  616SOL    HW1 1865   0.170   2.417   1.345
  616SOL    HW2 1866   0.072   2.492   1.453
  617SOL     OW 1867   0.561   2.084   1.147
  617SOL    HW1 1868   0.599   2.000   1.184
  617SOL    HW2 1869   0.473   2.103   1.191
  618SOL     OW 1870   0.866   2.316   0.642
  618SOL    HW1 1871   0.834   2.388   0.580
  618SOL    HW2 1872   0.890   2.235   0.589
  619SOL     OW 1873   1.017   1.901   0.753
  619SOL    HW1 1874   0.945   1.906   0.684
  619SOL    HW2 1875   0.993   1.832   0.822
  620SOL     OW 1876   1.429   3.035   0.867
  620SOL    HW1 1877   1.374   2.951   0.860
  620SOL    HW2 1878   1.455   3.064   0.775
  621SOL     OW 1879   1.466   2.452   0.992
  621SOL    HW1 1880   1.436   2.357   0.999
  621SOL    HW2 1881   1.539   2.468   1.058
  622SOL     OW 1882   1.857   2.695   0.377
  622SOL    HW1 1883   1.899   2.631   0.441
  622SOL    HW2 1884   1.819   2.644   0.299
  623SOL     OW 1885   0.488   3.247   0.174
  623SOL    HW1 1886   0.401   3.232   0.221
  623SOL    HW2 1887   0.471   3.273   0.079
  624SOL     OW 1888   1.664   3.142   0.657
  624SOL    HW1 1889   1.763   3.150   0.671
  624SOL    HW2 1890   1.619   3.226   0.688
  625SOL     OW 1891   1.390   2.437   0.078
  625SOL    HW1 1892   1.336   2.416   0.159
  625SOL    HW2 1893   1.481   2.396   0.087
  626SOL     OW 1894   0.527   2.118   0.328
  626SOL    HW1 1895   0.554   2.059   0.253
  626SOL    HW2 1896   0.527   2.213   0.297
  627SOL     OW 1897   1.754   3.085   1.588
  627SOL    HW1 1898   1.845   3.046   1.575
  627SOL    HW2 1899   1.762   3.181   1.612
  628SOL     OW 1900   1.064   3.209   1.340
  628SOL    HW1 1901   0.984   3.186   1.395
  628SOL    HW2 1902   1.147   3.183   1.389
  629SOL     OW 1903   1.592   3.491   1.625
  629SOL    HW1 1904   1.619   3.525   1.535
  629SOL    HW2 1905   1.671   3.453   1.671
  630SOL     OW 1906   1.111   3.057   1.100
  630SOL    HW1 1907   1.071   3.101   1.181
  630SOL    HW2 1908   1.070   3.094   1.017
  631SOL     OW 1909   1.638   2.961   1.079
  631SOL    HW1 1910   1.643   3.042   1.138
  631SOL    HW2 1911   1.552   2.963   1.028
  632SOL     OW 1912   0.915   1.951   1.402
  632SOL    HW1 1913   0.940   1.931   1.307
  632SOL    HW2 1914   0.987   2.007   1.444
  633SOL     OW 1915   0.980   2.978   1.719
  633SOL    HW1 1916   0.881   2.984   1.729
  633SOL    HW2 1917   1.003   2.898   1.663
  634SOL     OW 1918   0.705   2.912   0.368
  634SOL    HW1 1919   0.691   2.919   0.467
  634SOL    HW2 1920   0.789   2.861   0.350
  635SOL     OW 1921   0.410   2.675   1.251
  635SOL    HW1 1922   0.496   2.687   1.301
  635SOL    HW2 1923   0.368   2.588   1.278
  636SOL     OW 1924   1.274   2.248   1.262
  636SOL    HW1 1925   1.295   2.322   1.326
  636SOL    HW2 1926   1.185   2.265   1.219
  637SOL     OW 1927   0.064   3.426   1.331
  637SOL    HW1 1928   0.018   3.508   1.297
  637SOL    HW2 1929   0.162   3.445   1.340
  638SOL     OW 1930   0.367   2.962   0.501
  638SOL    HW1 1931   0.360   3.045   0.445
  638SOL    HW2 1932   0.371   2.882   0.441
  639SOL     OW 1933   0.566   2.399   0.865
  639SOL    HW1 1934   0.578   2.465   0.791
  639SOL    HW2 1935   0.612   2.433   0.948
  640SOL     OW 1936   1.252   3.210   0.388
  640SOL    HW1 1937   1.302   3.287   0.428
  640SOL    HW2 1938   1.157   3.212   0.420
  641SOL     OW 1939   1.272   3.307   1.142
  641SOL    HW1 1940   1.319   3.320   1.229
  641SOL    HW2 1941   1.206   3.233   1.151
  642SOL     OW 1942   1.582   2.501   0.472
  642SOL    HW1 1943   1.551   2.562   0.545
  642SOL    HW2 1944   1.632   2.553   0.403
  643SOL     OW 1945   0.354   3.372   1.329
  643SOL    HW1 1946   0.333   3.328   1.242
  643SOL    HW2 1947   0.451   3.398   1.332
  644SOL     OW 1948   0.402   2.613   1.598
  644SOL    HW1 1949   0.470   2.668   1.551
  644SOL    HW2 1950   0.442   2.525   1.625
  645SOL     OW 1951   1.587   2.641   1.670
  645SOL    HW1 1952   1.495   2.679   1.665
  645SOL    HW2 1953   1.647   2.688   1.605
  646SOL     OW 1954   1.013   1.967   1.770
  646SOL    HW1 1955   1.019   2.052   1.718
  646SOL    HW2 1956   1.045   1.891   1.713
  647SOL     OW 1957   0.504   1.912   1.740
  647SOL    HW1 1958   0.462   1.855   1.670
  647SOL    HW2 1959   0.438   1.981   1.772
  648SOL     OW 1960   0.573   2.732   1.029
  648SOL    HW1 1961   0.617   2.821   1.020
  648SOL    HW2 1962   0.510   2.732   1.106
  649SOL     OW 1963   1.360   2.724   1.045
  649SOL    HW1 1964   1.285   2.724   0.979
  649SOL    HW2 1965   1.397   2.632   1.054
  650SOL     OW 1966   1.209   2.387   0.275
  650SOL    HW1 1967   1.222   2.303   0.329
  650SOL    HW2 1968   1.180   2.461   0.335
  651SOL     OW 1969   0.307   2.075   1.231
  651SOL    HW1 1970   0.284   2.112   1.321
  651SOL    HW2 1971   0.277   1.980   1.225
  652SOL     OW 1972   0.037   3.172   1.282
  652SOL    HW1 1973   0.090   3.123   1.350
  652SOL    HW2 1974   0.059   3.270   1.287
  653SOL     OW 1975   0.732   2.496   1.064
  653SOL    HW1 1976   0.791   2.470   0.988
  653SOL    HW2 1977   0.704   2.592   1.053
  654SOL     OW 1978   1.728   2.797   1.854
  654SOL    HW1 1979   1.682   2.790   1.765
  654SOL    HW2 1980   1.666   2.841   1.920
  655SOL     OW 1981   0.307   1.925   0.618
  655SOL    HW1 1982   0.296   2.019   0.651
  655SOL    HW2 1983   0.302   1.862   0.695
  656SOL     OW 1984   1.622   2.229   0.374
  656SOL    HW1 1985   1.624   2.153   0.438
  656SOL    HW2 1986   1.574   2.306   0.414
  657SOL     OW 1987   1.023   2.628   0.966
  657SOL    HW1 1988   1.038   2.649   1.062
  657SOL    HW2 1989   0.993   2.533   0.957
  658SOL     OW 1990   0.980   3.435   1.700
  658SOL    HW1 1991   0.960   3.479   1.612
  658SOL    HW2 1992   1.019   3.344   1.684
  659SOL     OW 1993   1.859   3.380   1.605
  659SOL    HW1 1994   1.873   3.407   1.510
  659SOL    HW2 1995   1.942   3.402   1.658
  660SOL     OW 1996   0.350   2.760   1.804
  660SOL    HW1 1997   0.426   2.804   1.852
  660SOL    HW2 1998   0.385   2.713   1.722
  661SOL     OW 1999   1.540   2.136   0.125
  661SOL    HW1 2000   1.479   2.061   0.148
  661SOL    HW2 2001   1.562   2.188   0.208
  662SOL     OW 2002   1.303   2.700   0.042
  662SOL    HW1 2003   1.337   2.607   0.057
  662SOL    HW2 2004   1.321   2.727  -0.053
  663SOL     OW 2005   1.068   3.195   0.849
  663SOL    HW1 2006   1.075   3.111   0.794
  663SOL    HW2 2007   1.130   3.264   0.813
  664SOL     OW 2008   0.319   2.672   0.949
  664SOL    HW1 2009   0.412   2.708   0.954
  664SOL    HW2 2010   0.313   2.587   1.001
  665SOL     OW 2011   0.339   2.371   1.006
  665SOL    HW1 2012   0.287   2.288   0.989
  665SOL    HW2 2013   0.416   2.376   0.942
  666SOL     OW 2014   1.138   2.242   1.678
  666SOL    HW1 2015   1.093   2.305   1.742
  666SOL    HW2 2016   1.231   2.273   1.661
  667SOL     OW 2017   1.160   2.069   1.477
  667SOL    HW1 2018   1.160   2.133   1.554
  667SOL    HW2 2019   1.188   2.117   1.394
  668SOL     OW 2020   0.008   3.188   0.200
  668SOL    HW1 2021  -0.085   3.209   0.169
  668SOL    HW2 2022   0.018   3.089   0.213
  669SOL     OW 2023   0.088   3.663   0.927
  669SOL    HW1 2024   0.046   3.577   0.900
  669SOL    HW2 2025   0.182   3.666   0.893
  670SOL     OW 2026   0.504   3.430   0.910
  670SOL    HW1 2027   0.570   3.504   0.919
  670SOL    HW2 2028   0.548   3.351   0.868
  671SOL     OW 2029   1.002   2.658   1.238
  671SOL    HW1 2030   1.043   2.626   1.324
  671SOL    HW2 2031   0.906   2.631   1.235
  672SOL     OW 2032   0.040   2.406   1.114
  672SOL    HW1 2033   0.125   2.373   1.073
  672SOL    HW2 2034   0.053   2.421   1.212
  673SOL     OW 2035   0.189   2.382   1.722
  673SOL    HW1 2036   0.248   2.342   1.652
  673SOL    HW2 2037   0.131   2.453   1.681
  674SOL     OW 2038   1.369   2.812   1.660
  674SOL    HW1 2039   1.408   2.901   1.680
  674SOL    HW2 2040   1.379   2.792   1.563
  675SOL     OW 2041   0.815   2.434   0.325
  675SOL    HW1 2042   0.822   2.345   0.279
  675SOL    HW2 2043   0.721   2.468   0.317
  676SOL     OW 2044   1.657   2.466   1.206
  676SOL    HW1 2045   1.619   2.397   1.268
  676SOL    HW2 2046   1.739   2.430   1.162
  677SOL     OW 2047   0.252   3.426   1.744
  677SOL    HW1 2048   0.222   3.483   1.820
  677SOL    HW2 2049   0.245   3.329   1.770
  678SOL     OW 2050   0.671   2.326   1.269
  678SOL    HW1 2051   0.637   2.237   1.239
  678SOL    HW2 2052   0.697   2.380   1.189
  679SOL     OW 2053   0.930   3.540   1.465
  679SOL    HW1 2054   0.906   3.522   1.370
  679SOL    HW2 2055   0.960   3.634   1.475
  680SOL     OW 2056   0.473   2.362   0.191
  680SOL    HW1 2057   0.534   2.442   0.195
  680SOL    HW2 2058   0.378   2.393   0.198
  681SOL     OW 2059   0.159   2.999   1.466
  681SOL    HW1 2060   0.181   2.938   1.542
  681SOL    HW2 2061   0.169   2.950   1.380
  682SOL     OW 2062   1.347   2.921   1.234
  682SOL    HW1 2063   1.371   2.858   1.160
  682SOL    HW2 2064   1.257   2.961   1.216
  683SOL     OW 2065   1.302   2.717   0.309
  683SOL    HW1 2066   1.216   2.686   0.351
  683SOL    HW2 2067   1.298   2.703   0.210
  684SOL     OW 2068   1.759   3.609   1.154
  684SOL    HW1 2069   1.820   3.639   1.081
  684SOL    HW2 2070   1.721   3.520   1.132
  685SOL     OW 2071   1.252   3.593   1.128
  685SOL    HW1 2072   1.336   3.598   1.074
  685SOL    HW2 2073   1.229   3.497   1.146
  686SOL     OW 2074   0.083   3.120   1.022
  686SOL    HW1 2075   0.078   3.119   1.122
  686SOL    HW2 2076   0.000   3.079   0.984
  687SOL     OW 2077   0.688   3.524   1.716
  687SOL    HW1 2078   0.632   3.605   1.725
  687SOL    HW2 2079   0.740   3.528   1.630
  688SOL     OW 2080   0.903   1.948   0.133
  688SOL    HW1 2081   0.954   1.949   0.047
  688SOL    HW2 2082   0.959   1.906   0.204
  689SOL     OW 2083   1.726   1.997   0.523
  689SOL    HW1 2084   1.799   1.980   0.456
  689SOL    HW2 2085   1.695   1.910   0.561
  690SOL     OW 2086   1.388   3.435   0.477
  690SOL    HW1 2087   1.455   3.447   0.403
  690SOL    HW2 2088   1.348   3.524   0.500
  691SOL     OW 2089   0.130   3.656   1.851
  691SOL    HW1 2090   0.089   3.582   1.904
  691SOL    HW2 2091   0.194   3.707   1.909
  692SOL     OW 2092   1.280   2.789   0.672
  692SOL    HW1 2093   1.340   2.708   0.674
  692SOL    HW2 2094   1.320   2.858   0.612
  693SOL     OW 2095   0.830   3.135   1.422
  693SOL    HW1 2096   0.825   3.168   1.517
  693SOL    HW2 2097   0.744   3.154   1.376
  694SOL     OW 2098   0.672   3.478   0.154
  694SOL    HW1 2099   0.681   3.488   0.055
  694SOL    HW2 2100   0.632   3.389   0.175
  695SOL     OW 2101   1.650   3.582   1.394
  695SOL    HW1 2102   1.703   3.592   1.310
  695SOL    HW2 2103   1.623   3.672   1.428
  696SOL     OW 2104   1.841   2.037   0.963
  696SOL    HW1 2105   1.880   1.952   0.927
  696SOL    HW2 2106   1.743   2.039   0.944
  697SOL     OW 2107   0.263   2.188   0.720
  697SOL    HW1 2108   0.184   2.239   0.686
  697SOL    HW2 2109   0.254   2.173   0.818
  698SOL     OW 2110   1.194   3.474   0.031
  698SOL    HW1 2111   1.200   3.381   0.068
  698SOL    HW2 2112   1.135   3.474  -0.049
  699SOL     OW 2113   0.822   2.864   1.372
  699SOL    HW1 2114   0.862   2.863   1.280
  699SOL    HW2 2115   0.832   2.956   1.412
  700SOL     OW 2116   0.916   2.772   0.291
  700SOL    HW1 2117   0.979   2.810   0.223
  700SOL    HW2 2118   0.956   2.689   0.330
  701SOL     OW 2119   1.504   3.469   0.044
  701SOL    HW1 2120   1.412   3.506   0.051
  701SOL    HW2 2121   1.542   3.489  -0.046
  702SOL     OW 2122   0.372   3.150   1.490
  702SOL    HW1 2123   0.359   3.243   1.456
  702SOL    HW2 2124   0.288   3.098   1.477
  703SOL     OW 2125   1.614   3.154   1.289
  703SOL    HW1 2126   1.674   3.157   1.369
  703SOL    HW2 2127   1.539   3.218   1.302
  704SOL     OW 2128   1.039   2.960   0.696
  704SOL    HW1 2129   0.969   2.913   0.750
  704SOL    HW2 2130   1.098   2.892   0.653
  705SOL     OW 2131   1.014   2.098   0.971
  705SOL    HW1 2132   1.006   2.062   0.878
  705SOL    HW2 2133   1.012   2.022   1.036
  706SOL     OW 2134   0.590   3.349   0.491
  706SOL    HW1 2135   0.632   3.291   0.421
  706SOL    HW2 2136   0.546   3.428   0.447
  707SOL     OW 2137   1.709   2.247   1.381
  707SOL    HW1 2138   1.782   2.316   1.385
  707SOL    HW2 2139   1.737   2.172   1.322
  708SOL     OW 2140   0.255   3.210   0.290
  708SOL    HW1 2141   0.159   3.211   0.263
  708SOL    HW2 2142   0.267   3.263   0.374
  709SOL     OW 2143   0.105   2.875   1.726
  709SOL    HW1 2144   0.028   2.842   1.780
  709SOL    HW2 2145   0.190   2.845   1.768
  710SOL     OW 2146   0.672   2.065   1.489
  710SOL    HW1 2147   0.762   2.049   1.449
  710SOL    HW2 2148   0.680   2.070   1.588
  711SOL     OW 2149   0.075   2.207   0.033
  711SOL    HW1 2150  -0.017   2.179   0.004
  711SOL    HW2 2151   0.106   2.284  -0.023
  712SOL     OW 2152   1.440   2.718   1.398
  712SOL    HW1 2153   1.383   2.770   1.335
  712SOL    HW2 2154   1.536   2.730   1.374
  713SOL     OW 2155   0.072   2.028   0.318
  713SOL    HW1 2156   0.055   2.111   0.264
  713SOL    HW2 2157   0.162   1.991   0.296
  714SOL     OW 2158   1.183   3.197   0.119
  714SOL    HW1 2159   1.084   3.186   0.121
  714SOL    HW2 2160   1.217   3.212   0.212
  715SOL     OW 2161   0.613   2.704   1.431
  715SOL    HW1 2162   0.669   2.785   1.414
  715SOL    HW2 2163   0.672   2.624   1.434
  716SOL     OW 2164   1.493   3.629   0.959
  716SOL    HW1 2165   1.526   3.693   0.890
  716SOL    HW2 2166   1.559   3.623   1.034
  717SOL     OW 2167   0.716   2.427   1.708
  717SOL    HW1 2168   0.735   2.492   1.782
  717SOL    HW2 2169   0.776   2.347   1.717
  718SOL     OW 2170   1.450   3.082   1.633
  718SOL    HW1 2171   1.441   3.072   1.732
  718SOL    HW2 2172   1.546   3.075   1.607
  719SOL     OW 2173   0.390   3.603   1.560
  719SOL    HW1 2174   0.299   3.644   1.558
  719SOL    HW2 2175   0.383   3.509   1.592
  720SOL     OW 2176   1.674   2.745   1.254
  720SOL    HW1 2177   1.647   2.656   1.217
  720SOL    HW2 2178   1.675   2.813   1.181
  721SOL     OW 2179   1.225   2.187   0.449
  721SOL    HW1 2180   1.290   2.113   0.438
  721SOL    HW2 2181   1.245   2.237   0.533
  722SOL     OW 2182   0.594   2.607   0.652
  722SOL    HW1 2183   0.644   2.692   0.633
  722SOL    HW2 2184   0.506   2.609   0.604
  723SOL     OW 2185   1.777   2.204   1.642
  723SOL    HW1 2186   1.760   2.235   1.548
  723SOL    HW2 2187   1.693   2.167   1.680
  724SOL     OW 2188   1.730   2.796   1.517
  724SOL    HW1 2189   1.768   2.887   1.532
  724SOL    HW2 2190   1.722   2.779   1.418
  725SOL     OW 2191   0.859   3.236   0.016
  725SOL    HW1 2192   0.813   3.251   0.104
  725SOL    HW2 2193   0.903   3.321  -0.014
  726SOL     OW 2194   0.661   3.652   0.953
  726SOL    HW1 2195   0.615   3.740   0.940
  726SOL    HW2 2196   0.760   3.664   0.946
  727SOL     OW 2197   0.859   2.818   0.861
  727SOL    HW1 2198   0.913   2.749   0.909
  727SOL    HW2 2199   0.827   2.887   0.927
  728SOL     OW 2200   1.083   2.846   0.087
  728SOL    HW1 2201   1.060   2.899   0.005
  728SOL    HW2 2202   1.164   2.790   0.068
  729SOL     OW 2203   1.861   3.431   0.851
  729SOL    HW1 2204   1.790   3.419   0.781
  729SOL    HW2 2205   1.862   3.352   0.911
  730SOL     OW 2206   0.221   3.176   1.844
  730SOL    HW1 2207   0.156   3.103   1.823
  730SOL    HW2 2208   0.225   3.190   1.942
  731SOL     OW 2209   0.079   3.102   0.653
  731SOL    HW1 2210   0.078   3.055   0.741
  731SOL    HW2 2211   0.161   3.074   0.602
  732SOL     OW 2212   0.672   3.253   1.624
  732SOL    HW1 2213   0.594   3.203   1.662
  732SOL    HW2 2214   0.669   3.348   1.655
  733SOL     OW 2215   1.824   2.054   1.227
  733SOL    HW1 2216   1.820   1.964   1.271
  733SOL    HW2 2217   1.827   2.043   1.128
  734SOL     OW 2218   0.428   2.286   0.520
  734SOL    HW1 2219   0.458   2.214   0.458
  734SOL    HW2 2220   0.389   2.246   0.603
  735SOL     OW 2221   1.705   3.349   1.104
  735SOL    HW1 2222   1.612   3.324   1.077
  735SOL    HW2 2223   1.731   3.299   1.186
  736SOL     OW 2224   0.317   2.409   1.280
  736SOL    HW1 2225   0.355   2.350   1.352
  736SOL    HW2 2226   0.357   2.383   1.192
  737SOL     OW 2227   0.812   3.448   0.687
  737SOL    HW1 2228   0.844   3.458   0.593
  737SOL    HW2 2229   0.733   3.386   0.689
  738SOL     OW 2230   1.424   2.076   1.112
  738SOL    HW1 2231   1.476   2.011   1.167
  738SOL    HW2 2232   1.375   2.139   1.173
  739SOL     OW 2233   1.001   1.896   1.154
  739SOL    HW1 2234   0.938   1.824   1.123
  739SOL    HW2 2235   1.094   1.860   1.154
  740SOL     OW 2236   0.770   3.192   0.301
  740SOL    HW1 2237   0.724   3.105   0.318
  740SOL    HW2 2238   0.861   3.189   0.342
  741SOL     OW 2239   0.618   3.429   1.284
  741SOL    HW1 2240   0.613   3.511   1.341
  741SOL    HW2 2241   0.707   3.426   1.239
  742SOL     OW 2242   1.352   1.914   0.168
  742SOL    HW1 2243   1.387   1.873   0.084
  742SOL    HW2 2244   1.262   1.876   0.188
  743SOL     OW 2245   1.300   2.315   0.691
  743SOL    HW1 2246   1.241   2.395   0.695
  743SOL    HW2 2247   1.315   2.280   0.784
  744SOL     OW 2248   1.593   2.083   0.882
  744SOL    HW1 2249   1.509   2.082   0.936
  744SOL    HW2 2250   1.595   2.166   0.826
  745SOL     OW 2251   0.039   2.939   0.300
  745SOL    HW1 2252   0.138   2.928   0.291
  745SOL    HW2 2253  -0.001   2.853   0.332
  746SOL     OW 2254   0.875   3.508   0.337
  746SOL    HW1 2255   0.798   3.473   0.283
  746SOL    HW2 2256   0.843   3.579   0.399
  747SOL     OW 2257   0.230   2.490   1.975
  747SOL    HW1 2258   0.137   2.488   2.012
  747SOL    HW2 2259   0.231   2.451   1.883
  748SOL     OW 2260   0.225   2.137   2.858
  748SOL    HW1 2261   0.260   2.120   2.950
  748SOL    HW2 2262   0.137   2.092   2.846
  749SOL     OW 2263   0.019   2.230   2.509
  749SOL    HW1 2264  -0.063   2.273   2.548
  749SOL    HW2 2265  -0.009   2.157   2.446
  750SOL     OW 2266   0.569   3.137   3.027
  750SOL    HW1 2267   0.476   3.130   2.990
  750SOL    HW2 2268   0.580   3.226   3.071
  751SOL     OW 2269   1.555   3.373   2.565
  751SOL    HW1 2270   1.498   3.357   2.646
  751SOL    HW2 2271   1.496   3.383   2.485
  752SOL     OW 2272   1.135   2.565   2.579
  752SOL    HW1 2273   1.192   2.643   2.554
  752SOL    HW2 2274   1.075   2.591   2.655
  753SOL     OW 2275   1.755   2.469   2.093
  753SOL    HW1 2276   1.743   2.456   1.994
  753SOL    HW2 2277   1.725   2.388   2.142
  754SOL     OW 2278   0.768   3.006   2.885
  754SOL    HW1 2279   0.690   3.023   2.945
  754SOL    HW2 2280   0.802   3.093   2.849
  755SOL     OW 2281   0.850   2.660   3.685
  755SOL    HW1 2282   0.846   2.736   3.750
  755SOL    HW2 2283   0.872   2.696   3.594
  756SOL     OW 2284   0.685   2.874   2.527
  756SOL    HW1 2285   0.754   2.858   2.597
  756SOL    HW2 2286   0.612   2.931   2.565
  757SOL     OW 2287   0.686   3.023   3.665
  757SOL    HW1 2288   0.746   3.102   3.679
  757SOL    HW2 2289   0.600   3.054   3.624
  758SOL     OW 2290   0.335   3.297   2.923
  758SOL    HW1 2291   0.257   3.266   2.870
  758SOL    HW2 2292   0.393   3.355   2.866
  759SOL     OW 2293   1.460   3.367   3.201
  759SOL    HW1 2294   1.484   3.461   3.227
  759SOL    HW2 2295   1.444   3.313   3.283
  760SOL     OW 2296   0.438   2.254   3.361
  760SOL    HW1 2297   0.520   2.198   3.370
  760SOL    HW2 2298   0.357   2.196   3.365
  761SOL     OW 2299   1.603   2.309   2.599
  761SOL    HW1 2300   1.529   2.355   2.549
  761SOL    HW2 2301   1.654   2.377   2.652
  762SOL     OW 2302   0.231   3.575   2.345
  762SOL    HW1 2303   0.265   3.652   2.399
  762SOL    HW2 2304   0.275   3.575   2.255
  763SOL     OW 2305   1.127   3.203   3.552
  763SOL    HW1 2306   1.174   3.203   3.640
  763SOL    HW2 2307   1.079   3.116   3.541
  764SOL     OW 2308   0.230   3.296   2.400
  764SOL    HW1 2309   0.204   3.392   2.400
  764SOL    HW2 2310   0.159   3.242   2.445
  765SOL     OW 2311   0.240   2.953   2.748
  765SOL    HW1 2312   0.254   2.869   2.800
  765SOL    HW2 2313   0.185   3.017   2.803
  766SOL     OW 2314   0.620   3.648   3.301
  766SOL    HW1 2315   0.528   3.631   3.336
  766SOL    HW2 2316   0.648   3.740   3.327
  767SOL     OW 2317   0.606   2.826   1.985
  767SOL    HW1 2318   0.613   2.910   1.931
  767SOL    HW2 2319   0.652   2.839   2.073
  768SOL     OW 2320   1.594   1.976   3.342
  768SOL    HW1 2321   1.576   2.043   3.270
  768SOL    HW2 2322   1.591   2.022   3.431
  769SOL     OW 2323   0.122   2.505   2.425
  769SOL    HW1 2324   0.077   2.417   2.442
  769SOL    HW2 2325   0.121   2.559   2.509
  770SOL     OW 2326   1.842   3.629   2.221
  770SOL    HW1 2327   1.896   3.600   2.301
  770SOL    HW2 2328   1.872   3.719   2.192
  771SOL     OW 2329   0.027   3.458   1.979
  771SOL    HW1 2330   0.008   3.362   2.000
  771SOL    HW2 2331  -0.006   3.516   2.054
  772SOL     OW 2332   1.689   2.784   2.474
  772SOL    HW1 2333   1.784   2.755   2.482
  772SOL    HW2 2334   1.681   2.849   2.399
  773SOL     OW 2335   1.641   2.970   2.294
  773SOL    HW1 2336   1.727   2.972   2.242
  773SOL    HW2 2337   1.655   3.017   2.382
  774SOL     OW 2338   0.113   2.599   3.459
  774SOL    HW1 2339   0.201   2.586   3.504
  774SOL    HW2 2340   0.100   2.696   3.437
  775SOL     OW 2341   0.613   3.227   2.588
  775SOL    HW1 2342   0.564   3.140   2.597
  775SOL    HW2 2343   0.590   3.270   2.501
  776SOL     OW 2344   1.293   3.090   3.285
  776SOL    HW1 2345   1.330   3.017   3.227
  776SOL    HW2 2346   1.345   3.095   3.370
  777SOL     OW 2347   0.809   1.866   2.364
  777SOL    HW1 2348   0.849   1.957   2.355
  777SOL    HW2 2349   0.709   1.874   2.370
  778SOL     OW 2350   0.197   2.838   3.126
  778SOL    HW1 2351   0.286   2.793   3.112
  778SOL    HW2 2352   0.124   2.773   3.107
  779SOL     OW 2353   1.525   2.861   2.052
  779SOL    HW1 2354   1.462   2.785   2.065
  779SOL    HW2 2355   1.573   2.879   2.138
  780SOL     OW 2356   1.187   3.654   3.478
  780SOL    HW1 2357   1.211   3.714   3.402
  780SOL    HW2 2358   1.194   3.559   3.448
  781SOL     OW 2359   0.317   2.113   3.663
  781SOL    HW1 2360   0.388   2.184   3.669
  781SOL    HW2 2361   0.229   2.152   3.691
  782SOL     OW 2362   1.466   3.279   2.815
  782SOL    HW1 2363   1.407   3.285   2.895
  782SOL    HW2 2364   1.451   3.191   2.769
  783SOL     OW 2365   1.667   3.576   2.434
  783SOL    HW1 2366   1.626   3.553   2.346
  783SOL    HW2 2367   1.649   3.502   2.499
  784SOL     OW 2368   0.598   2.591   2.132
  784SOL    HW1 2369   0.622   2.660   2.064
  784SOL    HW2 2370   0.520   2.624   2.186
  785SOL     OW 2371   1.281   2.207   2.806
  785SOL    HW1 2372   1.195   2.157   2.793
  785SOL    HW2 2373   1.343   2.153   2.862
  786SOL     OW 2374   1.576   3.524   2.169
  786SOL    HW1 2375   1.665   3.570   2.172
  786SOL    HW2 2376   1.555   3.500   2.074
  787SOL     OW 2377   0.807   2.467   3.327
  787SOL    HW1 2378   0.760   2.464   3.416
  787SOL    HW2 2379   0.756   2.412   3.261
  788SOL     OW 2380   1.394   2.331   3.536
  788SOL    HW1 2381   1.374   2.374   3.624
  788SOL    HW2 2382   1.472   2.269   3.545
  789SOL     OW 2383   0.973   2.752   3.434
  789SOL    HW1 2384   1.019   2.668   3.405
  789SOL    HW2 2385   0.917   2.786   3.359
  790SOL     OW 2386   0.991   2.272   3.104
  790SOL    HW1 2387   0.914   2.306   3.158
  790SOL    HW2 2388   0.957   2.221   3.025
  791SOL     OW 2389   1.041   2.563   2.291
  791SOL    HW1 2390   1.067   2.559   2.387
  791SOL    HW2 2391   0.956   2.512   2.277
  792SOL     OW 2392   0.076   2.673   2.651
  792SOL    HW1 2393   0.175   2.661   2.660
  792SOL    HW2 2394   0.052   2.768   2.672
  793SOL     OW 2395   0.130   3.683   3.433
  793SOL    HW1 2396   0.120   3.668   3.532
  793SOL    HW2 2397   0.044   3.719   3.397
  794SOL     OW 2398   0.865   2.210   2.057
  794SOL    HW1 2399   0.924   2.273   2.008
  794SOL    HW2 2400   0.884   2.116   2.028
  795SOL     OW 2401   1.719   2.447   3.693
  795SOL    HW1 2402   1.693   2.536   3.657
  795SOL    HW2 2403   1.717   2.379   3.620
  796SOL     OW 2404   1.362   3.006   2.407
  796SOL    HW1 2405   1.445   2.977   2.359
  796SOL    HW2 2406   1.313   3.073   2.351
  797SOL     OW 2407   0.550   2.058   2.747
  797SOL    HW1 2408   0.545   2.053   2.847
  797SOL    HW2 2409   0.552   2.154   2.718
  798SOL     OW 2410   1.008   3.318   2.339
  798SOL    HW1 2411   0.962   3.390   2.287
  798SOL    HW2 2412   1.004   3.338   2.437
  799SOL     OW 2413   0.351   3.663   2.715
  799SOL    HW1 2414   0.401   3.577   2.721
  799SOL    HW2 2415   0.416   3.740   2.712
  800SOL     OW 2416   1.795   2.928   2.735
  800SOL    HW1 2417   1.733   2.913   2.659
  800SOL    HW2 2418   1.743   2.939   2.820
  801SOL     OW 2419   1.227   3.412   3.368
  801SOL    HW1 2420   1.233   3.335   3.432
  801SOL    HW2 2421   1.175   3.386   3.288
  802SOL     OW 2422   0.321   2.805   2.104
  802SOL    HW1 2423   0.403   2.844   2.062
  802SOL    HW2 2424   0.294   2.723   2.055
  803SOL     OW 2425   1.458   2.597   2.590
  803SOL    HW1 2426   1.453   2.532   2.665
  803SOL    HW2 2427   1.538   2.656   2.603
  804SOL     OW 2428   0.461   3.128   3.589
  804SOL    HW1 2429   0.411   3.129   3.503
  804SOL    HW2 2430   0.398   3.110   3.665
  805SOL     OW 2431   1.111   3.638   2.099
  805SOL    HW1 2432   1.051   3.576   2.149
  805SOL    HW2 2433   1.142   3.594   2.014
  806SOL     OW 2434   0.202   2.147   3.360
  806SOL    HW1 2435   0.122   2.207   3.347
  806SOL    HW2 2436   0.192   2.098   3.446
  807SOL     OW 2437   1.632   3.239   1.943
  807SOL    HW1 2438   1.600   3.333   1.933
  807SOL    HW2 2439   1.556   3.176   1.931
  808SOL     OW 2440   0.464   3.605   2.185
  808SOL    HW1 2441   0.497   3.644   2.271
  808SOL    HW2 2442   0.540   3.598   2.120
  809SOL     OW 2443   1.400   1.969   2.288
  809SOL    HW1 2444   1.376   1.932   2.198
  809SOL    HW2 2445   1.499   1.985   2.292
  810SOL     OW 2446   0.249   3.647   3.103
  810SOL    HW1 2447   0.306   3.582   3.153
  810SOL    HW2 2448   0.233   3.614   3.010
  811SOL     OW 2449   0.940   3.560   2.766
  811SOL    HW1 2450   1.020   3.503   2.787
  811SOL    HW2 2451   0.891   3.520   2.689
  812SOL     OW 2452   0.382   2.562   2.342
  812SOL    HW1 2453   0.427   2.472   2.339
  812SOL    HW2 2454   0.288   2.551   2.375
  813SOL     OW 2455   1.547   2.084   3.591
  813SOL    HW1 2456   1.542   2.121   3.683
  813SOL    HW2 2457   1.475   2.015   3.579
  814SOL     OW 2458   0.614   1.984   1.979
  814SOL    HW1 2459   0.712   1.962   1.986
  814SOL    HW2 2460   0.583   1.967   1.886
  815SOL     OW 2461   0.781   2.126   3.611
  815SOL    HW1 2462   0.848   2.065   3.654
  815SOL    HW2 2463   0.708   2.145   3.676
  816SOL     OW 2464   0.888   3.376   3.057
  816SOL    HW1 2465   0.865   3.351   2.963
  816SOL    HW2 2466   0.949   3.307   3.096
  817SOL     OW 2467   1.351   2.452   3.295
  817SOL    HW1 2468   1.379   2.409   3.380
  817SOL    HW2 2469   1.376   2.548   3.296
  818SOL     OW 2470   0.803   3.264   2.786
  818SOL    HW1 2471   0.893   3.278   2.744
  818SOL    HW2 2472   0.732   3.266   2.715
  819SOL     OW 2473   0.922   2.365   2.761
  819SOL    HW1 2474   0.897   2.356   2.665
  819SOL    HW2 2475   0.970   2.283   2.792
  820SOL     OW 2476   0.539   1.926   2.374
  820SOL    HW1 2477   0.458   1.927   2.432
  820SOL    HW2 2478   0.542   2.009   2.319
  821SOL     OW 2479   1.434   3.050   1.903
  821SOL    HW1 2480   1.466   2.974   1.960
  821SOL    HW2 2481   1.342   3.077   1.933
  822SOL     OW 2482   0.297   1.897   2.033
  822SOL    HW1 2483   0.346   1.981   2.012
  822SOL    HW2 2484   0.359   1.832   2.078
  823SOL     OW 2485   0.935   2.098   2.342
  823SOL    HW1 2486   0.887   2.139   2.264
  823SOL    HW2 2487   1.034   2.096   2.323
  824SOL     OW 2488   1.076   2.545   3.326
  824SOL    HW1 2489   0.996   2.484   3.329
  824SOL    HW2 2490   1.157   2.492   3.302
  825SOL     OW 2491   1.227   3.432   2.655
  825SOL    HW1 2492   1.248   3.506   2.590
  825SOL    HW2 2493   1.295   3.432   2.728
  826SOL     OW 2494   0.459   3.014   2.603
  826SOL    HW1 2495   0.388   2.987   2.668
  826SOL    HW2 2496   0.433   2.986   2.510
  827SOL     OW 2497   1.271   3.659   2.453
  827SOL    HW1 2498   1.315   3.723   2.389
  827SOL    HW2 2499   1.221   3.711   2.523
  828SOL     OW 2500   1.032   2.411   1.878
  828SOL    HW1 2501   0.991   2.493   1.839
  828SOL    HW2 2502   1.096   2.437   1.951
  829SOL     OW 2503   0.078   2.418   3.248
  829SOL    HW1 2504   0.170   2.417   3.207
  829SOL    HW2 2505   0.072   2.492   3.315
  830SOL     OW 2506   0.561   2.084   3.009
  830SOL    HW1 2507   0.599   2.000   3.046
  830SOL    HW2 2508   0.473   2.103   3.053
  831SOL     OW 2509   0.866   2.316   2.504
  831SOL    HW1 2510   0.834   2.388   2.442
  831SOL    HW2 2511   0.890   2.235   2.451
  832SOL     OW 2512   1.017   1.901   2.615
  832SOL    HW1 2513   0.945   1.906   2.546
  832SOL    HW2 2514   0.993   1.832   2.684
  833SOL     OW 2515   1.429   3.035   2.729
  833SOL    HW1 2516   1.374   2.951   2.722
  833SOL    HW2 2517   1.455   3.064   2.637
  834SOL     OW 2518   1.466   2.452   2.854
  834SOL    HW1 2519   1.436   2.357   2.861
  834SOL    HW2 2520   1.539   2.468   2.920
  835SOL     OW 2521   1.857   2.695   2.239
  835SOL    HW1 2522   1.899   2.631   2.303
  835SOL    HW2 2523   1.819   2.644   2.161
  836SOL     OW 2524   0.488   3.247   2.036
  836SOL    HW1 2525   0.401   3.232   2.083
  836SOL    HW2 2526   0.471   3.273   1.941
  837SOL     OW 2527   1.664   3.142   2.519
  837SOL    HW1 2528   1.763   3.150   2.533
  837SOL    HW2 2529   1.619   3.226   2.550
  838SOL     OW 2530   1.390   2.437   1.940
  838SOL    HW1 2531   1.336   2.416   2.021
  838SOL    HW2 2532   1.481   2.396   1.949
  839SOL     OW 2533   0.527   2.118   2.190
  839SOL    HW1 2534   0.554   2.059   2.115
  839SOL    HW2 2535   0.527   2.213   2.159
  840SOL     OW 2536   1.754   3.085   3.450
  840SOL    HW1 2537   1.845   3.046   3.437
  840SOL    HW2 2538   1.762   3.181   3.474
  841SOL     OW 2539   1.064   3.209   3.202
  841SOL    HW1 2540   0.984   3.186   3.257
  841SOL    HW2 2541   1.147   3.183   3.251
  842SOL     OW 2542   1.592   3.491   3.487
  842SOL    HW1 2543   1.619   3.525   3.397
  842SOL    HW2 2544   1.671   3.453   3.533
  843SOL     OW 2545   1.111   3.057   2.962
  843SOL    HW1 2546   1.071   3.101   3.043
  843SOL    HW2 2547   1.070   3.094   2.879
  844SOL     OW 2548   1.638   2.961   2.941
  844SOL    HW1 2549   1.643   3.042   3.000
  844SOL    HW2 2550   1.552   2.963   2.890
  845SOL     OW 2551   0.915   1.951   3.264
  845SOL    HW1 2552   0.940   1.931   3.169
  845SOL    HW2 2553   0.987   2.007   3.306
  846SOL     OW 2554   0.980   2.978   3.581
  846SOL    HW1 2555   0.881   2.984   3.591
  846SOL    HW2 2556   1.003   2.898   3.525
  847SOL     OW 2557   0.705   2.912   2.230
  847SOL    HW1 2558   0.691   2.919   2.329
  847SOL    HW2 2559   0.789   2.861   2.212
  848SOL     OW 2560   0.410   2.675   3.113
  848SOL    HW1 2561   0.496   2.687   3.163
  848SOL    HW2 2562   0.368   2.588   3.140
  849SOL     OW 2563   1.274   2.248   3.124
  849SOL    HW1 2564   1.295   2.322   3.188
  849SOL    HW2 2565   1.185   2.265   3.081
  850SOL     OW 2566   0.064   3.426   3.193
  850SOL    HW1 2567   0.018   3.508   3.159
  850SOL    HW2 2568   0.162   3.445   3.202
  851SOL     OW 2569   0.367   2.962   2.363
  851SOL    HW1 2570   0.360   3.045   2.307
  851SOL    HW2 2571   0.371   2.882   2.303
  852SOL     OW 2572   0.566   2.399   2.727
  852SOL    HW1 2573   0.578   2.465   2.653
  852SOL    HW2 2574   0.612   2.433   2.810
  853SOL     OW 2575   1.252   3.210   2.250
  853SOL    HW1 2576   1.302   3.287   2.290
  853SOL    HW2 2577   1.157   3.212   2.282
  854SOL     OW 2578   1.272   3.307   3.004
  854SOL    HW1 2579   1.319   3.320   3.091
  854SOL    HW2 2580   1.206   3.233   3.013
  855SOL     OW 2581   1.582   2.501   2.334
  855SOL    HW1 2582   1.551   2.562   2.407
  855SOL    HW2 2583   1.632   2.553   2.265
  856SOL     OW 2584   0.354   3.372   3.191
  856SOL    HW1 2585   0.333   3.328   3.104
  856SOL    HW2 2586   0.451   3.398   3.194
  857SOL     OW 2587   0.402   2.613   3.460
  857SOL    HW1 2588   0.470   2.668   3.413
  857SOL    HW2 2589   0.442   2.525   3.487
  858SOL     OW 2590   1.587   2.641   3.532
  858SOL    HW1 2591   1.495   2.679   3.527
  858SOL    HW2 2592   1.647   2.688   3.467
  859SOL     OW 2593   1.013   1.967   3.632
  859SOL    HW1 2594   1.019   2.052   3.580
  859SOL    HW2 2595   1.045   1.891   3.575
  860SOL     OW 2596   0.504   1.912   3.602
  860SOL    HW1 2597   0.462   1.855   3.532
  860SOL    HW2 2598   0.438   1.981   3.634
  861SOL     OW 2599   0.573   2.732   2.891
  861SOL    HW1 2600   0.617   2.821   2.882
  861SOL    HW2 2601   0.510   2.732   2.968
  862SOL     OW 2602   1.360   2.724   2.907
  862SOL    HW1 2603   1.285   2.724   2.841
  862SOL    HW2 2604   1.397   2.632   2.916
  863SOL     OW 2605   1.209   2.387   2.137
  863SOL    HW1 2606   1.222   2.303   2.191
  863SOL    HW2 2607   1.180   2.461   2.197
  864SOL     OW 2608   0.307   2.075   3.093
  864SOL    HW1 2609   0.284   2.112   3.183
  864SOL    HW2 2610   0.277   1.980   3.087
  865SOL     OW 2611   0.037   3.172   3.144
  865SOL    HW1 2612   0.090   3.123   3.212
  865SOL    HW2 2613   0.059   3.270   3.149
  866SOL     OW 2614   0.732   2.496   2.926
  866SOL    HW1 2615   0.791   2.470   2.850
  866SOL    HW2 2616   0.704   2.592   2.915
  867SOL     OW 2617   1.728   2.797   3.716
  867SOL    HW1 2618   1.682   2.790   3.627
  867SOL    HW2 2619   1.666   2.841   3.782
  868SOL     OW 2620   0.307   1.925   2.480
  868SOL    HW1 2621   0.296   2.019   2.513
  868SOL    HW2 2622   0.302   1.862   2.557
  869SOL     OW 2623   1.622   2.229   2.236
  869SOL    HW1 2624   1.624   2.153   2.300
  869SOL    HW2 2625   1.574   2.306   2.276
  870SOL     OW 2626   1.023   2.628   2.828
  870SOL    HW1 2627   1.038   2.649   2.924
  870SOL    HW2 2628   0.993   2.533   2.819
  871SOL     OW 2629   0.980   3.435   3.562
  871SOL    HW1 2630   0.960   3.479   3.474
  871SOL    HW2 2631   1.019   3.344   3.546
  872SOL     OW 2632   1.859   3.380   3.467
  872SOL    HW1 2633   1.873   3.407   3.372
  872SOL    HW2 2634   1.942   3.402   3.520
  873SOL     OW 2635   0.350   2.760   3.666
  873SOL    HW1 2636   0.426   2.804   3.714
  873SOL    HW2 2637   0.385   2.713   3.584
  874SOL     OW 2638   1.540   2.136   1.987
  874SOL    HW1 2639   1.479   2.061   2.010
  874SOL    HW2 2640   1.562   2.188   2.070
  875SOL     OW 2641   1.303   2.700   1.904
  875SOL    HW1 2642   1.337   2.607   1.919
  875SOL    HW2 2643   1.321   2.727   1.809
  876SOL     OW 2644   1.068   3.195   2.711
  876SOL    HW1 2645   1.075   3.111   2.656
  876SOL    HW2 2646   1.130   3.264   2.675
  877SOL     OW 2647   0.319   2.672   2.811
  877SOL    HW1 2648   0.412   2.708   2.816
  877SOL    HW2 2649   0.313   2.587   2.863
  878SOL     OW 2650   0.339   2.371   2.868
  878SOL    HW1 2651   0.287   2.288   2.851
  878SOL    HW2 2652   0.416   2.376   2.804
  879SOL     OW 2653   1.138   2.242   3.540
  879SOL    HW1 2654   1.093   2.305   3.604
  879SOL    HW2 2655   1.231   2.273   3.523
  880SOL     OW 2656   1.160   2.069   3.339
  880SOL    HW1 2657   1.160   2.133   3.416
  880SOL    HW2 2658   1.188   2.117   3.256
  881SOL     OW 2659   0.008   3.188   2.062
  881SOL    HW1 2660  -0.085   3.209   2.031
  881SOL    HW2 2661   0.018   3.089   2.075
  882SOL     OW 2662   0.088   3.663   2.789
  882SOL    HW1 2663   0.046   3.577   2.762
  882SOL    HW2 2664   0.182   3.666   2.755
  883SOL     OW 2665   0.504   3.430   2.772
  883SOL    HW1 2666   0.570   3.504   2.781
  883SOL    HW2 2667   0.548   3.351   2.730
  884SOL     OW 2668   1.002   2.658   3.100
  884SOL    HW1 2669   1.043   2.626   3.186
  884SOL    HW2 2670   0.906   2.631   3.097
  885SOL     OW 2671   0.040   2.406   2.976
  885SOL    HW1 2672   0.125   2.373   2.935
  885SOL    HW2 2673   0.053   2.421   3.074
  886SOL     OW 2674   0.189   2.382   3.584
  886SOL    HW1 2675   0.248   2.342   3.514
  886SOL    HW2 2676   0.131   2.453   3.543
  887SOL     OW 2677   1.369   2.812   3.522
  887SOL    HW1 2678   1.408   2.901   3.542
  887SOL    HW2 2679   1.379   2.792   3.425
  888SOL     OW 2680   0.815   2.434   2.187
  888SOL    HW1 2681   0.822   2.345   2.141
  888SOL    HW2 2682   0.721   2.468   2.179
  889SOL     OW 2683   1.657   2.466   3.068
  889SOL    HW1 2684   1.619   2.397   3.130
  889SOL    HW2 2685   1.739   2.430   3.024
  890SOL     OW 2686   0.252   3.426   3.606
  890SOL    HW1 2687   0.222   3.483   3.682
  890SOL    HW2 2688   0.245   3.329   3.632
  891SOL     OW 2689   0.671   2.326   3.131
  891SOL    HW1 2690   0.637   2.237   3.101
  891SOL    HW2 2691   0.697   2.380   3.051
  892SOL     OW 2692   0.930   3.540   3.327
  892SOL    HW1 2693   0.906   3.522   3.232
  892SOL    HW2 2694   0.960   3.634   3.337
  893SOL     OW 2695   0.473   2.362   2.053
  893SOL    HW1 2696   0.534   2.442   2.057
  893SOL    HW2 2697   0.378   2.393   2.060
  894SOL     OW 2698   0.159   2.999   3.328
  894SOL    HW1 2699   0.181   2.938   3.404
  894SOL    HW2 2700   0.169   2.950   3.242
  895SOL     OW 2701   1.347   2.921   3.096
  895SOL    HW1 2702   1.371   2.858   3.022
  895SOL    HW2 2703   1.257   2.961   3.078
  896SOL     OW 2704   1.302   2.717   2.171
  896SOL    HW1 2705   1.216   2.686   2.213
  896SOL    HW2 2706   1.298   2.703   2.072
  897SOL     OW 2707   1.759   3.609   3.016
  897SOL    HW1 2708   1.820   3.639   2.943
  897SOL    HW2 2709   1.721   3.520   2.994
  898SOL     OW 2710   1.252   3.593   2.990
  898SOL    HW1 2711   1.336   3.598   2.936
  898SOL    HW2 2712   1.229   3.497   3.008
  899SOL     OW 2713   0.083   3.120   2.884
  899SOL    HW1 2714   0.078   3.119   2.984
  899SOL    HW2 2715   0.000   3.079   2.846
  900SOL     OW 2716   0.688   3.524   3.578
  900SOL    HW1 2717   0.632   3.605   3.587
  900SOL    HW2 2718   0.740   3.528   3.492
  901SOL     OW 2719   1.726   1.997   2.385
  901SOL    HW1 2720   1.799   1.980   2.318
  901SOL    HW2 2721   1.695   1.910   2.423
  902SOL     OW 2722   1.388   3.435   2.339
  902SOL    HW1 2723   1.455   3.447   2.265
  902SOL    HW2 2724   1.348   3.524   2.362
  903SOL     OW 2725   0.130   3.656   3.713
  903SOL    HW1 2726   0.089   3.582   3.766
  903SOL    HW2 2727   0.194   3.707   3.771
  904SOL     OW 2728   1.280   2.789   2.534
  904SOL    HW1 2729   1.340   2.708   2.536
  904SOL    HW2 2730   1.320   2.858   2.474
  905SOL     OW 2731   0.830   3.135   3.284
  905SOL    HW1 2732   0.825   3.168   3.379
  905SOL    HW2 2733   0.744   3.154   3.238
  906SOL     OW 2734   0.672   3.478   2.016
  906SOL    HW1 2735   0.681   3.488   1.917
  906SOL    HW2 2736   0.632   3.389   2.037
  907SOL     OW 2737   1.650   3.582   3.256
  907SOL    HW1 2738   1.703   3.592   3.172
  907SOL    HW2 2739   1.623   3.672   3.290
  908SOL     OW 2740   1.841   2.037   2.825
  908SOL    HW1 2741   1.880   1.952   2.789
  908SOL    HW2 2742   1.743   2.039   2.806
  909SOL     OW 2743   0.263   2.188   2.582
  909SOL    HW1 2744   0.184   2.239   2.548
  909SOL    HW2 2745   0.254   2.173   2.680
  910SOL     OW 2746   1.194   3.474   1.893
  910SOL    HW1 2747   1.200   3.381   1.930
  910SOL    HW2 2748   1.135   3.474   1.813
  911SOL     OW 2749   0.822   2.864   3.234
  911SOL    HW1 2750   0.862   2.863   3.142
  911SOL    HW2 2751   0.832   2.956   3.274
  912SOL     OW 2752   0.916   2.772   2.153
  912SOL    HW1 2753   0.979   2.810   2.085
  912SOL    HW2 2754   0.956   2.689   2.192
  913SOL     OW 2755   1.504   3.469   1.906
  913SOL    HW1 2756   1.412   3.506   1.913
  913SOL    HW2 2757   1.542   3.489   1.816
  914SOL     OW 2758   0.372   3.150   3.352
  914SOL    HW1 2759   0.359   3.243   3.318
  914SOL    HW2 2760   0.288   3.098   3.339
  915SOL     OW 2761   1.614   3.154   3.151
  915SOL    HW1 2762   1.674   3.157   3.231
  915SOL    HW2 2763   1.539   3.218   3.164
  916SOL     OW 2764   1.039   2.960   2.558
  916SOL    HW1 2765   0.969   2.913   2.612
  916SOL    HW2 2766   1.098   2.892   2.515
  917SOL     OW 2767   1.014   2.098   2.833
  917SOL    HW1 2768   1.006   2.062   2.740
  917SOL    HW2 2769   1.012   2.022   2.898
  918SOL     OW 2770   0.590   3.349   2.353
  918SOL    HW1 2771   0.632   3.291   2.283
  918SOL    HW2 2772   0.546   3.428   2.309
  919SOL     OW 2773   1.709   2.247   3.243
  919SOL    HW1 2774   1.782   2.316   3.247
  919SOL    HW2 2775   1.737   2.172   3.184
  920SOL     OW 2776   0.255   3.210   2.152
  920SOL    HW1 2777   0.159   3.211   2.125
  920SOL    HW2 2778   0.267   3.263   2.236
  921SOL     OW 2779   0.105   2.875   3.588
  921SOL    HW1 2780   0.028   2.842   3.642
  921SOL    HW2 2781   0.190   2.845   3.630
  922SOL     OW 2782   0.672   2.065   3.351
  922SOL    HW1 2783   0.762   2.049   3.311
  922SOL    HW2 2784   0.680   2.070   3.450
  923SOL     OW 2785   0.075   2.207   1.895
  923SOL    HW1 2786  -0.017   2.179   1.866
  923SOL    HW2 2787   0.106   2.284   1.839
  924SOL     OW 2788   1.440   2.718   3.260
  924SOL    HW1 2789   1.383   2.770   3.197
  924SOL    HW2 2790   1.536   2.730   3.236
  925SOL     OW 2791   0.072   2.028   2.180
  925SOL    HW1 2792   0.055   2.111   2.126
  925SOL    HW2 2793   0.162   1.991   2.158
  926SOL     OW 2794   1.183   3.197   1.981
  926SOL    HW1 2795   1.084   3.186   1.983
  926SOL    HW2 2796   1.217   3.212   2.074
  927SOL     OW 2797   0.613   2.704   3.293
  927SOL    HW1 2798   0.669   2.785   3.276
  927SOL    HW2 2799   0.672   2.624   3.296
  928SOL     OW 2800   1.493   3.629   2.821
  928SOL    HW1 2801   1.526   3.693   2.752
  928SOL    HW2 2802   1.559   3.623   2.896
  929SOL     OW 2803   0.716   2.427   3.570
  929SOL    HW1 2804   0.735   2.492   3.644
  929SOL    HW2 2805   0.776   2.347   3.579
  930SOL     OW 2806   1.450   3.082   3.495
  930SOL    HW1 2807   1.441   3.072   3.594
  930SOL    HW2 2808   1.546   3.075   3.469
  931SOL     OW 2809   0.390   3.603   3.422
  931SOL    HW1 2810   0.299   3.644   3.420
  931SOL    HW2 2811   0.383   3.509   3.454
  932SOL     OW 2812   1.674   2.745   3.116
  932SOL    HW1 2813   1.647   2.656   3.079
  932SOL    HW2 2814   1.675   2.813   3.043
  933SOL     OW 2815   1.225   2.187   2.311
  933SOL    HW1 2816   1.290   2.113   2.300
  933SOL    HW2 2817   1.245   2.237   2.395
  934SOL     OW 2818   0.594   2.607   2.514
  934SOL    HW1 2819   0.644   2.692   2.495
  934SOL    HW2 2820   0.506   2.609   2.466
  935SOL     OW 2821   1.777   2.204   3.504
  935SOL    HW1 2822   1.760   2.235   3.410
  935SOL    HW2 2823   1.693   2.167   3.542
  936SOL     OW 2824   1.730   2.796   3.379
  936SOL    HW1 2825   1.768   2.887   3.394
  936SOL    HW2 2826   1.722   2.779   3.280
  937SOL     OW 2827   0.859   3.236   1.878
  937SOL    HW1 2828   0.813   3.251   1.966
  937SOL    HW2 2829   0.903   3.321   1.848
  938SOL     OW 2830   0.661   3.652   2.815
  938SOL    HW1 2831   0.615   3.740   2.802
  938SOL    HW2 2832   0.760   3.664   2.808
  939SOL     OW 2833   0.859   2.818   2.723
  939SOL    HW1 2834   0.913   2.749   2.771
  939SOL    HW2 2835   0.827   2.887   2.789
  940SOL     OW 2836   1.083   2.846   1.949
  940SOL    HW1 2837   1.060   2.899   1.867
  940SOL    HW2 2838   1.164   2.790   1.930
  941SOL     OW 2839   1.861   3.431   2.713
  941SOL    HW1 2840   1.790   3.419   2.643
  941SOL    HW2 2841   1.862   3.352   2.773
  942SOL     OW 2842   0.221   3.176   3.706
  942SOL    HW1 2843   0.156   3.103   3.685
  942SOL    HW2 2844   0.225   3.190   3.804
  943SOL     OW 2845   0.079   3.102   2.515
  943SOL    HW1 2846   0.078   3.055   2.603
  943SOL    HW2 2847   0.161   3.074   2.464
  944SOL     OW 2848   0.672   3.253   3.486
  944SOL    HW1 2849   0.594   3.203   3.524
  944SOL    HW2 2850   0.669   3.348   3.517
  945SOL     OW 2851   1.824   2.054   3.089
  945SOL    HW1 2852   1.820   1.964   3.133
  945SOL    HW2 2853   1.827   2.043   2.990
  946SOL     OW 2854   0.428   2.286   2.382
  946SOL    HW1 2855   0.458   2.214   2.320
  946SOL    HW2 2856   0.389   2.246   2.465
  947SOL     OW 2857   1.705   3.349   2.966
  947SOL    HW1 2858   1.612   3.324   2.939
  947SOL    HW2 2859   1.731   3.299   3.048
  948SOL     OW 2860   0.317   2.409   3.142
  948SOL    HW1 2861   0.355   2.350   3.214
  948SOL    HW2 2862   0.357   2.383   3.054
  949SOL     OW 2863   0.812   3.448   2.549
  949SOL    HW1 2864   0.844   3.458   2.455
  949SOL    HW2 2865   0.733   3.386   2.551
  950SOL     OW 2866   1.424   2.076   2.974
  950SOL    HW1 2867   1.476   2.011   3.029
  950SOL    HW2 2868   1.375   2.139   3.035
  951SOL     OW 2869   1.001   1.896   3.016
  951SOL    HW1 2870   0.938   1.824   2.985
  951SOL    HW2 2871   1.094   1.860   3.016
  952SOL     OW 2872   0.770   3.192   2.163
  952SOL    HW1 2873   0.724   3.105   2.180
  952SOL    HW2 2874   0.861   3.189   2.204
  953SOL     OW 2875   0.618   3.429   3.146
  953SOL    HW1 2876   0.613   3.511   3.203
  953SOL    HW2 2877   0.707   3.426   3.101
  954SOL     OW 2878   1.352   1.914   2.030
  954SOL    HW1 2879   1.387   1.873   1.946
  954SOL    HW2 2880   1.262   1.876   2.050
  955SOL     OW 2881   1.300   2.315   2.553
  955SOL    HW1 2882   1.241   2.395   2.557
  955SOL    HW2 2883   1.315   2.280   2.646
  956SOL     OW 2884   1.593   2.083   2.744
  956SOL    HW1 2885   1.509   2.082   2.798
  956SOL    HW2 2886   1.595   2.166   2.688
  957SOL     OW 2887   0.039   2.939   2.162
  957SOL    HW1 2888   0.138   2.928   2.153
  957SOL    HW2 2889  -0.001   2.853   2.194
  958SOL     OW 2890   0.875   3.508   2.199
  958SOL    HW1 2891   0.798   3.473   2.145
  958SOL    HW2 2892   0.843   3.579   2.261
  959SOL     OW 2893   0.230   2.490   3.837
  959SOL    HW1 2894   0.137   2.488   3.874
  959SOL    HW2 2895   0.231   2.451   3.745
  960SOL     OW 2896   0.019   2.230   4.371
  960SOL    HW1 2897  -0.063   2.273   4.410
  960SOL    HW2 2898  -0.009   2.157   4.308
  961SOL     OW 2899   1.555   3.373   4.427
  961SOL    HW1 2900   1.498   3.357   4.508
  961SOL    HW2 2901   1.496   3.383   4.347
  962SOL     OW 2902   1.135   2.565   4.441
  962SOL    HW1 2903   1.192   2.643   4.416
  962SOL    HW2 2904   1.075   2.591   4.517
  963SOL     OW 2905   1.755   2.469   3.955
  963SOL    HW1 2906   1.743   2.456   3.856
  963SOL    HW2 2907   1.725   2.388   4.004
  964SOL     OW 2908   0.768   3.006   4.747
  964SOL    HW1 2909   0.690   3.023   4.807
  964SOL    HW2 2910   0.802   3.093   4.711
  965SOL     OW 2911   0.685   2.874   4.389
  965SOL    HW1 2912   0.754   2.858   4.459
  965SOL    HW2 2913   0.612   2.931   4.427
  966SOL     OW 2914   1.603   2.309   4.461
  966SOL    HW1 2915   1.529   2.355   4.411
  966SOL    HW2 2916   1.654   2.377   4.514
  967SOL     OW 2917   0.231   3.575   4.207
  967SOL    HW1 2918   0.265   3.652   4.261
  967SOL    HW2 2919   0.275   3.575   4.117
  968SOL     OW 2920   0.230   3.296   4.262
  968SOL    HW1 2921   0.204   3.392   4.262
  968SOL    HW2 2922   0.159   3.242   4.307
  969SOL     OW 2923   0.240   2.953   4.610
  969SOL    HW1 2924   0.254   2.869   4.662
  969SOL    HW2 2925   0.185   3.017   4.665
  970SOL     OW 2926   0.606   2.826   3.847
  970SOL    HW1 2927   0.613   2.910   3.793
  970SOL    HW2 2928   0.652   2.839   3.935
  971SOL     OW 2929   0.122   2.505   4.287
  971SOL    HW1 2930   0.077   2.417   4.304
  971SOL    HW2 2931   0.121   2.559   4.371
  972SOL     OW 2932   1.842   3.629   4.083
  972SOL    HW1 2933   1.896   3.600   4.163
  972SOL    HW2 2934   1.872   3.719   4.054
  973SOL     OW 2935   0.027   3.458   3.841
  973SOL    HW1 2936   0.008   3.362   3.862
  973SOL    HW2 2937  -0.006   3.516   3.916
  974SOL     OW 2938   1.689   2.784   4.336
  974SOL    HW1 2939   1.784   2.755   4.344
  974SOL    HW2 2940   1.681   2.849   4.261
  975SOL     OW 2941   1.641   2.970   4.156
  975SOL    HW1 2942   1.727   2.972   4.104
  975SOL    HW2 2943   1.655   3.017   4.244
  976SOL     OW 2944   0.613   3.227   4.450
  976SOL    HW1 2945   0.564   3.140   4.459
  976SOL    HW2 2946   0.590   3.270   4.363
  977SOL     OW 2947   0.809   1.866   4.226
  977SOL    HW1 2948   0.849   1.957   4.217
  977SOL    HW2 2949   0.709   1.874   4.232
  978SOL     OW 2950   1.525   2.861   3.914
  978SOL    HW1 2951   1.462   2.785   3.927
  978SOL    HW2 2952   1.573   2.879   4.000
  979SOL     OW 2953   1.466   3.279   4.677
  979SOL    HW1 2954   1.407   3.285   4.757
  979SOL    HW2 2955   1.451   3.191   4.631
  980SOL     OW 2956   1.667   3.576   4.296
  980SOL    HW1 2957   1.626   3.553   4.208
  980SOL    HW2 2958   1.649   3.502   4.361
  981SOL     OW 2959   0.598   2.591   3.994
  981SOL    HW1 2960   0.622   2.660   3.926
  981SOL    HW2 2961   0.520   2.624   4.048
  982SOL     OW 2962   1.281   2.207   4.668
  982SOL    HW1 2963   1.195   2.157   4.655
  982SOL    HW2 2964   1.343   2.153   4.724
  983SOL     OW 2965   1.576   3.524   4.031
  983SOL    HW1 2966   1.665   3.570   4.034
  983SOL    HW2 2967   1.555   3.500   3.936
  984SOL     OW 2968   1.041   2.563   4.153
  984SOL    HW1 2969   1.067   2.559   4.249
  984SOL    HW2 2970   0.956   2.512   4.139
  985SOL     OW 2971   0.076   2.673   4.513
  985SOL    HW1 2972   0.175   2.661   4.522
  985SOL    HW2 2973   0.052   2.768   4.534
  986SOL     OW 2974   0.865   2.210   3.919
  986SOL    HW1 2975   0.924   2.273   3.870
  986SOL    HW2 2976   0.884   2.116   3.890
  987SOL     OW 2977   1.362   3.006   4.269
  987SOL    HW1 2978   1.445   2.977   4.221
  987SOL    HW2 2979   1.313   3.073   4.213
  988SOL     OW 2980   0.550   2.058   4.609
  988SOL    HW1 2981   0.545   2.053   4.709
  988SOL    HW2 2982   0.552   2.154   4.580
  989SOL     OW 2983   1.008   3.318   4.201
  989SOL    HW1 2984   0.962   3.390   4.149
  989SOL    HW2 2985   1.004   3.338   4.299
  990SOL     OW 2986   0.351   3.663   4.577
  990SOL    HW1 2987   0.401   3.577   4.583
  990SOL    HW2 2988   0.416   3.740   4.574
  991SOL     OW 2989   1.795   2.928   4.597
  991SOL    HW1 2990   1.733   2.913   4.521
  991SOL    HW2 2991   1.743   2.939   4.682
  992SOL     OW 2992   0.321   2.805   3.966
  992SOL    HW1 2993   0.403   2.844   3.924
  992SOL    HW2 2994   0.294   2.723   3.917
  993SOL     OW 2995   1.458   2.597   4.452
  993SOL    HW1 2996   1.453   2.532   4.527
  993SOL    HW2 2997   1.538   2.656   4.465
  994SOL     OW 2998   1.111   3.638   3.961
  994SOL    HW1 2999   1.051   3.576   4.011
  994SOL    HW2 3000   1.142   3.594   3.876
  995SOL     OW 3001   1.632   3.239   3.805
  995SOL    HW1 3002   1.600   3.333   3.795
  995SOL    HW2 3003   1.556   3.176   3.793
  996SOL     OW 3004   0.464   3.605   4.047
  996SOL    HW1 3005   0.497   3.644   4.133
  996SOL    HW2 3006   0.540   3.598   3.982
  997SOL     OW 3007   1.400   1.969   4.150
  997SOL    HW1 3008   1.376   1.932   4.060
  997SOL    HW2 3009   1.499   1.985   4.154
  998SOL     OW 3010   0.382   2.562   4.204
  998SOL    HW1 3011   0.427   2.472   4.201
  998SOL    HW2 3012   0.288   2.551   4.237
  999SOL     OW 3013   0.614   1.984   3.841
  999SOL    HW1 3014   0.712   1.962   3.848
  999SOL    HW2 3015   0.583   1.967   3.748
 1000SOL     OW 3016   0.539   1.926   4.236
 1000SOL    HW1 3017   0.458   1.927   4.294
 1000SOL    HW2 3018   0.542   2.009   4.181
 1001SOL     OW 3019   1.434   3.050   3.765
 1001SOL    HW1 3020   1.466   2.974   3.822
 1001SOL    HW2 3021   1.342   3.077   3.795
 1002SOL     OW 3022   0.297   1.897   3.895
 1002SOL    HW1 3023   0.346   1.981   3.874
 1002SOL    HW2 3024   0.359   1.832   3.940
 1003SOL     OW 3025   0.935   2.098   4.204
 1003SOL    HW1 3026   0.887   2.139   4.126
 1003SOL    HW2 3027   1.034   2.096   4.185
 1004SOL     OW 3028   1.227   3.432   4.517
 1004SOL    HW1 3029   1.248   3.506   4.452
 1004SOL    HW2 3030   1.295   3.432   4.590
 1005SOL     OW 3031   0.459   3.014   4.465
 1005SOL    HW1 3032   0.388   2.987   4.530
 1005SOL    HW2 3033   0.433   2.986   4.372
 1006SOL     OW 3034   1.271   3.659   4.315
 1006SOL    HW1 3035   1.315   3.723   4.251
 1006SOL    HW2 3036   1.221   3.711   4.385
 1007SOL     OW 3037   1.032   2.411   3.740
 1007SOL    HW1 3038   0.991   2.493   3.701
 1007SOL    HW2 3039   1.096   2.437   3.813
 1008SOL     OW 3040   0.866   2.316   4.366
 1008SOL    HW1 3041   0.834   2.388   4.304
 1008SOL    HW2 3042   0.890   2.235   4.313
 1009SOL     OW 3043   1.017   1.901   4.477
 1009SOL    HW1 3044   0.945   1.906   4.408
 1009SOL    HW2 3045   0.993   1.832   4.546
 1010SOL     OW 3046   1.857   2.695   4.101
 1010SOL    HW1 3047   1.899   2.631   4.165
 1010SOL    HW2 3048   1.819   2.644   4.023
 1011SOL     OW 3049   0.488   3.247   3.898
 1011SOL    HW1 3050   0.401   3.232   3.945
 1011SOL    HW2 3051   0.471   3.273   3.803
 1012SOL     OW 3052   1.664   3.142   4.381
 1012SOL    HW1 3053   1.763   3.150   4.395
 1012SOL    HW2 3054   1.619   3.226   4.412
 1013SOL     OW 3055   1.390   2.437   3.802
 1013SOL    HW1 3056   1.336   2.416   3.883
 1013SOL    HW2 3057   1.481   2.396   3.811
 1014SOL     OW 3058   0.527   2.118   4.052
 1014SOL    HW1 3059   0.554   2.059   3.977
 1014SOL    HW2 3060   0.527   2.213   4.021
 1015SOL     OW 3061   0.705   2.912   4.092
 1015SOL    HW1 3062   0.691   2.919   4.191
 1015SOL    HW2 3063   0.789   2.861   4.074
 1016SOL     OW 3064   0.367   2.962   4.225
 1016SOL    HW1 3065   0.360   3.045   4.169
 1016SOL    HW2 3066   0.371   2.882   4.165
 1017SOL     OW 3067   0.566   2.399   4.589
 1017SOL    HW1 3068   0.578   2.465   4.515
 1017SOL    HW2 3069   0.612   2.433   4.672
 1018SOL     OW 3070   1.252   3.210   4.112
 1018SOL    HW1 3071   1.302   3.287   4.152
 1018SOL    HW2 3072   1.157   3.212   4.144
 1019SOL     OW 3073   1.582   2.501   4.196
 1019SOL    HW1 3074   1.551   2.562   4.269
 1019SOL    HW2 3075   1.632   2.553   4.127
 1020SOL     OW 3076   1.209   2.387   3.999
 1020SOL    HW1 3077   1.222   2.303   4.053
 1020SOL    HW2 3078   1.180   2.461   4.059
 1021SOL     OW 3079   0.732   2.496   4.788
 1021SOL    HW1 3080   0.791   2.470   4.712
 1021SOL    HW2 3081   0.704   2.592   4.777
 1022SOL     OW 3082   0.307   1.925   4.342
 1022SOL    HW1 3083   0.296   2.019   4.375
 1022SOL    HW2 3084   0.302   1.862   4.419
 1023SOL     OW 3085   1.622   2.229   4.098
 1023SOL    HW1 3086   1.624   2.153   4.162
 1023SOL    HW2 3087   1.574   2.306   4.138
 1024SOL     OW 3088   1.540   2.136   3.849
 1024SOL    HW1 3089   1.479   2.061   3.872
 1024SOL    HW2 3090   1.562   2.188   3.932
 1025SOL     OW 3091   1.303   2.700   3.766
 1025SOL    HW1 3092   1.337   2.607   3.781
 1025SOL    HW2 3093   1.321   2.727   3.671
 1026SOL     OW 3094   1.068   3.195   4.573
 1026SOL    HW1 3095   1.075   3.111   4.518
 1026SOL    HW2 3096   1.130   3.264   4.537
 1027SOL     OW 3097   0.319   2.672   4.673
 1027SOL    HW1 3098   0.412   2.708   4.678
 1027SOL    HW2 3099   0.313   2.587   4.725
 1028SOL     OW 3100   0.008   3.188   3.924
 1028SOL    HW1 3101  -0.085   3.209   3.893
 1028SOL    HW2 3102   0.018   3.089   3.937
 1029SOL     OW 3103   0.088   3.663   4.651
 1029SOL    HW1 3104   0.046   3.577   4.624
 1029SOL    HW2 3105   0.182   3.666   4.617
 1030SOL     OW 3106   0.504   3.430   4.634
 1030SOL    HW1 3107   0.570   3.504   4.643
 1030SOL    HW2 3108   0.548   3.351   4.592
 1031SOL     OW 3109   0.815   2.434   4.049
 1031SOL    HW1 3110   0.822   2.345   4.003
 1031SOL    HW2 3111   0.721   2.468   4.041
 1032SOL     OW 3112   0.473   2.362   3.915
 1032SOL    HW1 3113   0.534   2.442   3.919
 1032SOL    HW2 3114   0.378   2.393   3.922
 1033SOL     OW 3115   1.302   2.717   4.033
 1033SOL    HW1 3116   1.216   2.686   4.075
 1033SOL    HW2 3117   1.298   2.703   3.934
 1034SOL     OW 3118   1.759   3.609   4.878
 1034SOL    HW1 3119   1.820   3.639   4.805
 1034SOL    HW2 3120   1.721   3.520   4.856
 1035SOL     OW 3121   1.726   1.997   4.247
 1035SOL    HW1 3122   1.799   1.980   4.180
 1035SOL    HW2 3123   1.695   1.910   4.285
 1036SOL     OW 3124   1.388   3.435   4.201
 1036SOL    HW1 3125   1.455   3.447   4.127
 1036SOL    HW2 3126   1.348   3.524   4.224
 1037SOL     OW 3127   1.280   2.789   4.396
 1037SOL    HW1 3128   1.340   2.708   4.398
 1037SOL    HW2 3129   1.320   2.858   4.336
 1038SOL     OW 3130   0.672   3.478   3.878
 1038SOL    HW1 3131   0.681   3.488   3.779
 1038SOL    HW2 3132   0.632   3.389   3.899
 1039SOL     OW 3133   1.841   2.037   4.687
 1039SOL    HW1 3134   1.880   1.952   4.651
 1039SOL    HW2 3135   1.743   2.039   4.668
 1040SOL     OW 3136   0.263   2.188   4.444
 1040SOL    HW1 3137   0.184   2.239   4.410
 1040SOL    HW2 3138   0.254   2.173   4.542
 1041SOL     OW 3139   1.194   3.474   3.755
 1041SOL    HW1 3140   1.200   3.381   3.792
 1041SOL    HW2 3141   1.135   3.474   3.675
 1042SOL     OW 3142   0.916   2.772   4.015
 1042SOL    HW1 3143   0.979   2.810   3.947
 1042SOL    HW2 3144   0.956   2.689   4.054
 1043SOL     OW 3145   1.504   3.469   3.768
 1043SOL    HW1 3146   1.412   3.506   3.775
 1043SOL    HW2 3147   1.542   3.489   3.678
 1044SOL     OW 3148   1.039   2.960   4.420
 1044SOL    HW1 3149   0.969   2.913   4.474
 1044SOL    HW2 3150   1.098   2.892   4.377
 1045SOL     OW 3151   0.590   3.349   4.215
 1045SOL    HW1 3152   0.632   3.291   4.145
 1045SOL    HW2 3153   0.546   3.428   4.171
 1046SOL     OW 3154   0.255   3.210   4.014
 1046SOL    HW1 3155   0.159   3.211   3.987
 1046SOL    HW2 3156   0.267   3.263   4.098
 1047SOL     OW 3157   0.075   2.207   3.757
 1047SOL    HW1 3158  -0.017   2.179   3.728
 1047SOL    HW2 3159   0.106   2.284   3.701
 1048SOL     OW 3160   0.072   2.028   4.042
 1048SOL    HW1 3161   0.055   2.111   3.988
 1048SOL    HW2 3162   0.162   1.991   4.020
 1049SOL     OW 3163   1.183   3.197   3.843
 1049SOL    HW1 3164   1.084   3.186   3.845
 1049SOL    HW2 3165   1.217   3.212   3.936
 1050SOL     OW 3166   1.674   2.745   4.978
 1050SOL    HW1 3167   1.647   2.656   4.941
 1050SOL    HW2 3168   1.675   2.813   4.905
 1051SOL     OW 3169   1.225   2.187   4.173
 1051SOL    HW1 3170   1.290   2.113   4.162
 1051SOL    HW2 3171   1.245   2.237   4.257
 1052SOL     OW 3172   0.594   2.607   4.376
 1052SOL    HW1 3173   0.644   2.692   4.357
 1052SOL    HW2 3174   0.506   2.609   4.328
 1053SOL     OW 3175   0.859   3.236   3.740
 1053SOL    HW1 3176   0.813   3.251   3.828
 1053SOL    HW2 3177   0.903   3.321   3.710
 1054SOL     OW 3178   0.661   3.652   4.677
 1054SOL    HW1 3179   0.615   3.740   4.664
 1054SOL    HW2 3180   0.760   3.664   4.670
 1055SOL     OW 3181   0.859   2.818   4.585
 1055SOL    HW1 3182   0.913   2.749   4.633
 1055SOL    HW2 3183   0.827   2.887   4.651
 1056SOL     OW 3184   1.083   2.846   3.811
 1056SOL    HW1 3185   1.060   2.899   3.729
 1056SOL    HW2 3186   1.164   2.790   3.792
 1057SOL     OW 3187   1.861   3.431   4.575
 1057SOL    HW1 3188   1.790   3.419   4.505
 1057SOL    HW2 3189   1.862   3.352   4.635
 1058SOL     OW 3190   0.079   3.102   4.377
 1058SOL    HW1 3191   0.078   3.055   4.465
 1058SOL    HW2 3192   0.161   3.074   4.326
 1059SOL     OW 3193   0.428   2.286   4.244
 1059SOL    HW1 3194   0.458   2.214   4.182
 1059SOL    HW2 3195   0.389   2.246   4.327
 1060SOL     OW 3196   0.812   3.448   4.411
 1060SOL    HW1 3197   0.844   3.458   4.317
 1060SOL    HW2 3198   0.733   3.386   4.413
 1061SOL     OW 3199   0.770   3.192   4.025
 1061SOL    HW1 3200   0.724   3.105   4.042
 1061SOL    HW2 3201   0.861   3.189   4.066
 1062SOL     OW 3202   1.352   1.914   3.892
 1062SOL    HW1 3203   1.387   1.873   3.808
 1062SOL    HW2 3204   1.262   1.876   3.912
 1063SOL     OW 3205   1.300   2.315   4.415
 1063SOL    HW1 3206   1.241   2.395   4.419
 1063SOL    HW2 3207   1.315   2.280   4.508
 1064SOL     OW 3208   1.593   2.083   4.606
 1064SOL    HW1 3209   1.509   2.082   4.660
 1064SOL    HW2 3210   1.595   2.166   4.550
 1065SOL     OW 3211   0.039   2.939   4.024
 1065SOL    HW1 3212   0.138   2.928   4.015
 1065SOL    HW2 3213  -0.001   2.853   4.056
 1066SOL     OW 3214   0.875   3.508   4.061
 1066SOL    HW1 3215   0.798   3.473   4.007
 1066SOL    HW2 3216   0.843   3.579   4.123
 1067SOL     OW 3217   0.230   4.352   0.113
 1067SOL    HW1 3218   0.137   4.350   0.150
 1067SOL    HW2 3219   0.231   4.313   0.021
 1068SOL     OW 3220   0.225   3.999   0.996
 1068SOL    HW1 3221   0.260   3.982   1.088
 1068SOL    HW2 3222   0.137   3.954   0.984
 1069SOL     OW 3223   0.019   4.092   0.647
 1069SOL    HW1 3224  -0.063   4.135   0.686
 1069SOL    HW2 3225  -0.009   4.019   0.584
 1070SOL     OW 3226   1.135   4.427   0.717
 1070SOL    HW1 3227   1.192   4.505   0.692
 1070SOL    HW2 3228   1.075   4.453   0.793
 1071SOL     OW 3229   1.755   4.331   0.231
 1071SOL    HW1 3230   1.743   4.318   0.132
 1071SOL    HW2 3231   1.725   4.250   0.280
 1072SOL     OW 3232   0.850   4.522   1.823
 1072SOL    HW1 3233   0.846   4.598   1.888
 1072SOL    HW2 3234   0.872   4.558   1.732
 1073SOL     OW 3235   0.685   4.736   0.665
 1073SOL    HW1 3236   0.754   4.720   0.735
 1073SOL    HW2 3237   0.612   4.793   0.703
 1074SOL     OW 3238   0.438   4.116   1.499
 1074SOL    HW1 3239   0.520   4.060   1.508
 1074SOL    HW2 3240   0.357   4.058   1.503
 1075SOL     OW 3241   1.603   4.171   0.737
 1075SOL    HW1 3242   1.529   4.217   0.687
 1075SOL    HW2 3243   1.654   4.239   0.790
 1076SOL     OW 3244   1.594   3.838   1.480
 1076SOL    HW1 3245   1.576   3.905   1.408
 1076SOL    HW2 3246   1.591   3.884   1.569
 1077SOL     OW 3247   0.122   4.367   0.563
 1077SOL    HW1 3248   0.077   4.279   0.580
 1077SOL    HW2 3249   0.121   4.421   0.647
 1078SOL     OW 3250   0.113   4.461   1.597
 1078SOL    HW1 3251   0.201   4.448   1.642
 1078SOL    HW2 3252   0.100   4.558   1.575
 1079SOL     OW 3253   0.809   3.728   0.502
 1079SOL    HW1 3254   0.849   3.819   0.493
 1079SOL    HW2 3255   0.709   3.736   0.508
 1080SOL     OW 3256   0.197   4.700   1.264
 1080SOL    HW1 3257   0.286   4.655   1.250
 1080SOL    HW2 3258   0.124   4.635   1.245
 1081SOL     OW 3259   1.525   4.723   0.190
 1081SOL    HW1 3260   1.462   4.647   0.203
 1081SOL    HW2 3261   1.573   4.741   0.276
 1082SOL     OW 3262   0.317   3.975   1.801
 1082SOL    HW1 3263   0.388   4.046   1.807
 1082SOL    HW2 3264   0.229   4.014   1.829
 1083SOL     OW 3265   0.598   4.453   0.270
 1083SOL    HW1 3266   0.622   4.522   0.202
 1083SOL    HW2 3267   0.520   4.486   0.324
 1084SOL     OW 3268   1.281   4.069   0.944
 1084SOL    HW1 3269   1.195   4.019   0.931
 1084SOL    HW2 3270   1.343   4.015   1.000
 1085SOL     OW 3271   0.807   4.329   1.465
 1085SOL    HW1 3272   0.760   4.326   1.554
 1085SOL    HW2 3273   0.756   4.274   1.399
 1086SOL     OW 3274   1.394   4.193   1.674
 1086SOL    HW1 3275   1.374   4.236   1.762
 1086SOL    HW2 3276   1.472   4.131   1.683
 1087SOL     OW 3277   0.973   4.614   1.572
 1087SOL    HW1 3278   1.019   4.530   1.543
 1087SOL    HW2 3279   0.917   4.648   1.497
 1088SOL     OW 3280   0.991   4.134   1.242
 1088SOL    HW1 3281   0.914   4.168   1.296
 1088SOL    HW2 3282   0.957   4.083   1.163
 1089SOL     OW 3283   1.041   4.425   0.429
 1089SOL    HW1 3284   1.067   4.421   0.525
 1089SOL    HW2 3285   0.956   4.374   0.415
 1090SOL     OW 3286   0.076   4.535   0.789
 1090SOL    HW1 3287   0.175   4.523   0.798
 1090SOL    HW2 3288   0.052   4.630   0.810
 1091SOL     OW 3289   0.865   4.072   0.195
 1091SOL    HW1 3290   0.924   4.135   0.146
 1091SOL    HW2 3291   0.884   3.978   0.166
 1092SOL     OW 3292   1.719   4.309   1.831
 1092SOL    HW1 3293   1.693   4.398   1.795
 1092SOL    HW2 3294   1.717   4.241   1.758
 1093SOL     OW 3295   0.550   3.920   0.885
 1093SOL    HW1 3296   0.545   3.915   0.985
 1093SOL    HW2 3297   0.552   4.016   0.856
 1094SOL     OW 3298   1.458   4.459   0.728
 1094SOL    HW1 3299   1.453   4.394   0.803
 1094SOL    HW2 3300   1.538   4.518   0.741
 1095SOL     OW 3301   0.202   4.009   1.498
 1095SOL    HW1 3302   0.122   4.069   1.485
 1095SOL    HW2 3303   0.192   3.960   1.584
 1096SOL     OW 3304   1.400   3.831   0.426
 1096SOL    HW1 3305   1.376   3.794   0.336
 1096SOL    HW2 3306   1.499   3.847   0.430
 1097SOL     OW 3307   0.382   4.424   0.480
 1097SOL    HW1 3308   0.427   4.334   0.477
 1097SOL    HW2 3309   0.288   4.413   0.513
 1098SOL     OW 3310   1.547   3.946   1.729
 1098SOL    HW1 3311   1.542   3.983   1.821
 1098SOL    HW2 3312   1.475   3.877   1.717
 1099SOL     OW 3313   0.781   3.988   1.749
 1099SOL    HW1 3314   0.848   3.927   1.792
 1099SOL    HW2 3315   0.708   4.007   1.814
 1100SOL     OW 3316   1.351   4.314   1.433
 1100SOL    HW1 3317   1.379   4.271   1.518
 1100SOL    HW2 3318   1.376   4.410   1.434
 1101SOL     OW 3319   0.922   4.227   0.899
 1101SOL    HW1 3320   0.897   4.218   0.803
 1101SOL    HW2 3321   0.970   4.145   0.930
 1102SOL     OW 3322   0.539   3.788   0.512
 1102SOL    HW1 3323   0.458   3.789   0.570
 1102SOL    HW2 3324   0.542   3.871   0.457
 1103SOL     OW 3325   0.297   3.759   0.171
 1103SOL    HW1 3326   0.346   3.843   0.150
 1103SOL    HW2 3327   0.359   3.694   0.216
 1104SOL     OW 3328   0.935   3.960   0.480
 1104SOL    HW1 3329   0.887   4.001   0.402
 1104SOL    HW2 3330   1.034   3.958   0.461
 1105SOL     OW 3331   1.076   4.407   1.464
 1105SOL    HW1 3332   0.996   4.346   1.467
 1105SOL    HW2 3333   1.157   4.354   1.440
 1106SOL     OW 3334   1.032   4.273   0.016
 1106SOL    HW1 3335   0.991   4.355  -0.023
 1106SOL    HW2 3336   1.096   4.299   0.089
 1107SOL     OW 3337   0.078   4.280   1.386
 1107SOL    HW1 3338   0.170   4.279   1.345
 1107SOL    HW2 3339   0.072   4.354   1.453
 1108SOL     OW 3340   0.561   3.946   1.147
 1108SOL    HW1 3341   0.599   3.862   1.184
 1108SOL    HW2 3342   0.473   3.965   1.191
 1109SOL     OW 3343   0.866   4.178   0.642
 1109SOL    HW1 3344   0.834   4.250   0.580
 1109SOL    HW2 3345   0.890   4.097   0.589
 1110SOL     OW 3346   1.017   3.763   0.753
 1110SOL    HW1 3347   0.945   3.768   0.684
 1110SOL    HW2 3348   0.993   3.694   0.822
 1111SOL     OW 3349   1.466   4.314   0.992
 1111SOL    HW1 3350   1.436   4.219   0.999
 1111SOL    HW2 3351   1.539   4.330   1.058
 1112SOL     OW 3352   1.857   4.557   0.377
 1112SOL    HW1 3353   1.899   4.493   0.441
 1112SOL    HW2 3354   1.819   4.506   0.299
 1113SOL     OW 3355   1.390   4.299   0.078
 1113SOL    HW1 3356   1.336   4.278   0.159
 1113SOL    HW2 3357   1.481   4.258   0.087
 1114SOL     OW 3358   0.527   3.980   0.328
 1114SOL    HW1 3359   0.554   3.921   0.253
 1114SOL    HW2 3360   0.527   4.075   0.297
 1115SOL     OW 3361   1.638   4.823   1.079
 1115SOL    HW1 3362   1.643   4.904   1.138
 1115SOL    HW2 3363   1.552   4.825   1.028
 1116SOL     OW 3364   0.915   3.813   1.402
 1116SOL    HW1 3365   0.940   3.793   1.307
 1116SOL    HW2 3366   0.987   3.869   1.444
 1117SOL     OW 3367   0.410   4.537   1.251
 1117SOL    HW1 3368   0.496   4.549   1.301
 1117SOL    HW2 3369   0.368   4.450   1.278
 1118SOL     OW 3370   1.274   4.110   1.262
 1118SOL    HW1 3371   1.295   4.184   1.326
 1118SOL    HW2 3372   1.185   4.127   1.219
 1119SOL     OW 3373   0.566   4.261   0.865
 1119SOL    HW1 3374   0.578   4.327   0.791
 1119SOL    HW2 3375   0.612   4.295   0.948
 1120SOL     OW 3376   1.582   4.363   0.472
 1120SOL    HW1 3377   1.551   4.424   0.545
 1120SOL    HW2 3378   1.632   4.415   0.403
 1121SOL     OW 3379   0.402   4.475   1.598
 1121SOL    HW1 3380   0.470   4.530   1.551
 1121SOL    HW2 3381   0.442   4.387   1.625
 1122SOL     OW 3382   1.587   4.503   1.670
 1122SOL    HW1 3383   1.495   4.541   1.665
 1122SOL    HW2 3384   1.647   4.550   1.605
 1123SOL     OW 3385   1.013   3.829   1.770
 1123SOL    HW1 3386   1.019   3.914   1.718
 1123SOL    HW2 3387   1.045   3.753   1.713
 1124SOL     OW 3388   0.504   3.774   1.740
 1124SOL    HW1 3389   0.462   3.717   1.670
 1124SOL    HW2 3390   0.438   3.843   1.772
 1125SOL     OW 3391   0.573   4.594   1.029
 1125SOL    HW1 3392   0.617   4.683   1.020
 1125SOL    HW2 3393   0.510   4.594   1.106
 1126SOL     OW 3394   1.360   4.586   1.045
 1126SOL    HW1 3395   1.285   4.586   0.979
 1126SOL    HW2 3396   1.397   4.494   1.054
 1127SOL     OW 3397   1.209   4.249   0.275
 1127SOL    HW1 3398   1.222   4.165   0.329
 1127SOL    HW2 3399   1.180   4.323   0.335
 1128SOL     OW 3400   0.307   3.937   1.231
 1128SOL    HW1 3401   0.284   3.974   1.321
 1128SOL    HW2 3402   0.277   3.842   1.225
 1129SOL     OW 3403   0.732   4.358   1.064
 1129SOL    HW1 3404   0.791   4.332   0.988
 1129SOL    HW2 3405   0.704   4.454   1.053
 1130SOL     OW 3406   1.728   4.659   1.854
 1130SOL    HW1 3407   1.682   4.652   1.765
 1130SOL    HW2 3408   1.666   4.703   1.920
 1131SOL     OW 3409   0.307   3.787   0.618
 1131SOL    HW1 3410   0.296   3.881   0.651
 1131SOL    HW2 3411   0.302   3.724   0.695
 1132SOL     OW 3412   1.622   4.091   0.374
 1132SOL    HW1 3413   1.624   4.015   0.438
 1132SOL    HW2 3414   1.574   4.168   0.414
 1133SOL     OW 3415   1.023   4.490   0.966
 1133SOL    HW1 3416   1.038   4.511   1.062
 1133SOL    HW2 3417   0.993   4.395   0.957
 1134SOL     OW 3418   0.350   4.622   1.804
 1134SOL    HW1 3419   0.426   4.666   1.852
 1134SOL    HW2 3420   0.385   4.575   1.722
 1135SOL     OW 3421   1.540   3.998   0.125
 1135SOL    HW1 3422   1.479   3.923   0.148
 1135SOL    HW2 3423   1.562   4.050   0.208
 1136SOL     OW 3424   1.303   4.562   0.042
 1136SOL    HW1 3425   1.337   4.469   0.057
 1136SOL    HW2 3426   1.321   4.589  -0.053
 1137SOL     OW 3427   0.319   4.534   0.949
 1137SOL    HW1 3428   0.412   4.570   0.954
 1137SOL    HW2 3429   0.313   4.449   1.001
 1138SOL     OW 3430   0.339   4.233   1.006
 1138SOL    HW1 3431   0.287   4.150   0.989
 1138SOL    HW2 3432   0.416   4.238   0.942
 1139SOL     OW 3433   1.138   4.104   1.678
 1139SOL    HW1 3434   1.093   4.167   1.742
 1139SOL    HW2 3435   1.231   4.135   1.661
 1140SOL     OW 3436   1.160   3.931   1.477
 1140SOL    HW1 3437   1.160   3.995   1.554
 1140SOL    HW2 3438   1.188   3.979   1.394
 1141SOL     OW 3439   1.002   4.520   1.238
 1141SOL    HW1 3440   1.043   4.488   1.324
 1141SOL    HW2 3441   0.906   4.493   1.235
 1142SOL     OW 3442   0.040   4.268   1.114
 1142SOL    HW1 3443   0.125   4.235   1.073
 1142SOL    HW2 3444   0.053   4.283   1.212
 1143SOL     OW 3445   0.189   4.244   1.722
 1143SOL    HW1 3446   0.248   4.204   1.652
 1143SOL    HW2 3447   0.131   4.315   1.681
 1144SOL     OW 3448   0.815   4.296   0.325
 1144SOL    HW1 3449   0.822   4.207   0.279
 1144SOL    HW2 3450   0.721   4.330   0.317
 1145SOL     OW 3451   1.657   4.328   1.206
 1145SOL    HW1 3452   1.619   4.259   1.268
 1145SOL    HW2 3453   1.739   4.292   1.162
 1146SOL     OW 3454   0.671   4.188   1.269
 1146SOL    HW1 3455   0.637   4.099   1.239
 1146SOL    HW2 3456   0.697   4.242   1.189
 1147SOL     OW 3457   0.473   4.224   0.191
 1147SOL    HW1 3458   0.534   4.304   0.195
 1147SOL    HW2 3459   0.378   4.255   0.198
 1148SOL     OW 3460   1.347   4.783   1.234
 1148SOL    HW1 3461   1.371   4.720   1.160
 1148SOL    HW2 3462   1.257   4.823   1.216
 1149SOL     OW 3463   1.302   4.579   0.309
 1149SOL    HW1 3464   1.216   4.548   0.351
 1149SOL    HW2 3465   1.298   4.565   0.210
 1150SOL     OW 3466   0.903   3.810   0.133
 1150SOL    HW1 3467   0.954   3.811   0.047
 1150SOL    HW2 3468   0.959   3.768   0.204
 1151SOL     OW 3469   1.726   3.859   0.523
 1151SOL    HW1 3470   1.799   3.842   0.456
 1151SOL    HW2 3471   1.695   3.772   0.561
 1152SOL     OW 3472   1.280   4.651   0.672
 1152SOL    HW1 3473   1.340   4.570   0.674
 1152SOL    HW2 3474   1.320   4.720   0.612
 1153SOL     OW 3475   1.841   3.899   0.963
 1153SOL    HW1 3476   1.880   3.814   0.927
 1153SOL    HW2 3477   1.743   3.901   0.944
 1154SOL     OW 3478   0.263   4.050   0.720
 1154SOL    HW1 3479   0.184   4.101   0.686
 1154SOL    HW2 3480   0.254   4.035   0.818
 1155SOL     OW 3481   1.014   3.960   0.971
 1155SOL    HW1 3482   1.006   3.924   0.878
 1155SOL    HW2 3483   1.012   3.884   1.036
 1156SOL     OW 3484   1.709   4.109   1.381
 1156SOL    HW1 3485   1.782   4.178   1.385
 1156SOL    HW2 3486   1.737   4.034   1.322
 1157SOL     OW 3487   0.105   4.737   1.726
 1157SOL    HW1 3488   0.028   4.704   1.780
 1157SOL    HW2 3489   0.190   4.707   1.768
 1158SOL     OW 3490   0.672   3.927   1.489
 1158SOL    HW1 3491   0.762   3.911   1.449
 1158SOL    HW2 3492   0.680   3.932   1.588
 1159SOL     OW 3493   0.075   4.069   0.033
 1159SOL    HW1 3494  -0.017   4.041   0.004
 1159SOL    HW2 3495   0.106   4.146  -0.023
 1160SOL     OW 3496   1.440   4.580   1.398
 1160SOL    HW1 3497   1.383   4.632   1.335
 1160SOL    HW2 3498   1.536   4.592   1.374
 1161SOL     OW 3499   0.072   3.890   0.318
 1161SOL    HW1 3500   0.055   3.973   0.264
 1161SOL    HW2 3501   0.162   3.853   0.296
 1162SOL     OW 3502   0.613   4.566   1.431
 1162SOL    HW1 3503   0.669   4.647   1.414
 1162SOL    HW2 3504   0.672   4.486   1.434
 1163SOL     OW 3505   0.716   4.289   1.708
 1163SOL    HW1 3506   0.735   4.354   1.782
 1163SOL    HW2 3507   0.776   4.209   1.717
 1164SOL     OW 3508   1.674   4.607   1.254
 1164SOL    HW1 3509   1.647   4.518   1.217
 1164SOL    HW2 3510   1.675   4.675   1.181
 1165SOL     OW 3511   1.225   4.049   0.449
 1165SOL    HW1 3512   1.290   3.975   0.438
 1165SOL    HW2 3513   1.245   4.099   0.533
 1166SOL     OW 3514   0.594   4.469   0.652
 1166SOL    HW1 3515   0.644   4.554   0.633
 1166SOL    HW2 3516   0.506   4.471   0.604
 1167SOL     OW 3517   1.777   4.066   1.642
 1167SOL    HW1 3518   1.760   4.097   1.548
 1167SOL    HW2 3519   1.693   4.029   1.680
 1168SOL     OW 3520   1.730   4.658   1.517
 1168SOL    HW1 3521   1.768   4.749   1.532
 1168SOL    HW2 3522   1.722   4.641   1.418
 1169SOL     OW 3523   1.824   3.916   1.227
 1169SOL    HW1 3524   1.820   3.826   1.271
 1169SOL    HW2 3525   1.827   3.905   1.128
 1170SOL     OW 3526   0.428   4.148   0.520
 1170SOL    HW1 3527   0.458   4.076   0.458
 1170SOL    HW2 3528   0.389   4.108   0.603
 1171SOL     OW 3529   0.317   4.271   1.280
 1171SOL    HW1 3530   0.355   4.212   1.352
 1171SOL    HW2 3531   0.357   4.245   1.192
 1172SOL     OW 3532   1.424   3.938   1.112
 1172SOL    HW1 3533   1.476   3.873   1.167
 1172SOL    HW2 3534   1.375   4.001   1.173
 1173SOL     OW 3535   1.001   3.758   1.154
 1173SOL    HW1 3536   0.938   3.686   1.123
 1173SOL    HW2 3537   1.094   3.722   1.154
 1174SOL     OW 3538   1.352   3.776   0.168
 1174SOL    HW1 3539   1.387   3.735   0.084
 1174SOL    HW2 3540   1.262   3.738   0.188
 1175SOL     OW 3541   1.300   4.177   0.691
 1175SOL    HW1 3542   1.241   4.257   0.695
 1175SOL    HW2 3543   1.315   4.142   0.784
 1176SOL     OW 3544   1.593   3.945   0.882
 1176SOL    HW1 3545   1.509   3.944   0.936
 1176SOL    HW2 3546   1.595   4.028   0.826
 1177SOL     OW 3547   0.230   4.352   1.975
 1177SOL    HW1 3548   0.137   4.350   2.012
 1177SOL    HW2 3549   0.231   4.313   1.883
 1178SOL     OW 3550   0.225   3.999   2.858
 1178SOL    HW1 3551   0.260   3.982   2.950
 1178SOL    HW2 3552   0.137   3.954   2.846
 1179SOL     OW 3553   0.019   4.092   2.509
 1179SOL    HW1 3554  -0.063   4.135   2.548
 1179SOL    HW2 3555  -0.009   4.019   2.446
 1180SOL     OW 3556   1.135   4.427   2.579
 1180SOL    HW1 3557   1.192   4.505   2.554
 1180SOL    HW2 3558   1.075   4.453   2.655
 1181SOL     OW 3559   1.755   4.331   2.093
 1181SOL    HW1 3560   1.743   4.318   1.994
 1181SOL    HW2 3561   1.725   4.250   2.142
 1182SOL     OW 3562   0.850   4.522   3.685
 1182SOL    HW1 3563   0.846   4.598   3.750
 1182SOL    HW2 3564   0.872   4.558   3.594
 1183SOL     OW 3565   0.685   4.736   2.527
 1183SOL    HW1 3566   0.754   4.720   2.597
 1183SOL    HW2 3567   0.612   4.793   2.565
 1184SOL     OW 3568   0.438   4.116   3.361
 1184SOL    HW1 3569   0.520   4.060   3.370
 1184SOL    HW2 3570   0.357   4.058   3.365
 1185SOL     OW 3571   1.603   4.171   2.599
 1185SOL    HW1 3572   1.529   4.217   2.549
 1185SOL    HW2 3573   1.654   4.239   2.652
 1186SOL     OW 3574   1.594   3.838   3.342
 1186SOL    HW1 3575   1.576   3.905   3.270
 1186SOL    HW2 3576   1.591   3.884   3.431
 1187SOL     OW 3577   0.122   4.367   2.425
 1187SOL    HW1 3578   0.077   4.279   2.442
 1187SOL    HW2 3579   0.121   4.421   2.509
 1188SOL     OW 3580   0.113   4.461   3.459
 1188SOL    HW1 3581   0.201   4.448   3.504
 1188SOL    HW2 3582   0.100   4.558   3.437
 1189SOL     OW 3583   0.809   3.728   2.364
 1189SOL    HW1 3584   0.849   3.819   2.355
 1189SOL    HW2 3585   0.709   3.736   2.370
 1190SOL     OW 3586   0.197   4.700   3.126
 1190SOL    HW1 3587   0.286   4.655   3.112
 1190SOL    HW2 3588   0.124   4.635   3.107
 1191SOL     OW 3589   1.525   4.723   2.052
 1191SOL    HW1 3590   1.462   4.647   2.065
 1191SOL    HW2 3591   1.573   4.741   2.138
 1192SOL     OW 3592   0.317   3.975   3.663
 1192SOL    HW1 3593   0.388   4.046   3.669
 1192SOL    HW2 3594   0.229   4.014   3.691
 1193SOL     OW 3595   0.598   4.453   2.132
 1193SOL    HW1 3596   0.622   4.522   2.064
 1193SOL    HW2 3597   0.520   4.486   2.186
 1194SOL     OW 3598   1.281   4.069   2.806
 1194SOL    HW1 3599   1.195   4.019   2.793
 1194SOL    HW2 3600   1.343   4.015   2.862
 1195SOL     OW 3601   0.807   4.329   3.327
 1195SOL    HW1 3602   0.760   4.326   3.416
 1195SOL    HW2 3603   0.756   4.274   3.261
 1196SOL     OW 3604   1.394   4.193   3.536
 1196SOL    HW1 3605   1.374   4.236   3.624
 1196SOL    HW2 3606   1.472   4.131   3.545
 1197SOL     OW 3607   0.973   4.614   3.434
 1197SOL    HW1 3608   1.019   4.530   3.405
 1197SOL    HW2 3609   0.917   4.648   3.359
 1198SOL     OW 3610   0.991   4.134   3.104
 1198SOL    HW1 3611   0.914   4.168   3.158
 1198SOL    HW2 3612   0.957   4.083   3.025
 1199SOL     OW 3613   1.041   4.425   2.291
 1199SOL    HW1 3614   1.067   4.421   2.387
 1199SOL    HW2 3615   0.956   4.374   2.277
 1200SOL     OW 3616   0.076   4.535   2.651
 1200SOL    HW1 3617   0.175   4.523   2.660
 1200SOL    HW2 3618   0.052   4.630   2.672
 1201SOL     OW 3619   0.865   4.072   2.057
 1201SOL    HW1 3620   0.924   4.135   2.008
 1201SOL    HW2 3621   0.884   3.978   2.028
 1202SOL     OW 3622   1.719   4.309   3.693
 1202SOL    HW1 3623   1.693   4.398   3.657
 1202SOL    HW2 3624   1.717   4.241   3.620
 1203SOL     OW 3625   0.550   3.920   2.747
 1203SOL    HW1 3626   0.545   3.915   2.847
 1203SOL    HW2 3627   0.552   4.016   2.718
 1204SOL     OW 3628   1.458   4.459   2.590
 1204SOL    HW1 3629   1.453   4.394   2.665
 1204SOL    HW2 3630   1.538   4.518   2.603
 1205SOL     OW 3631   0.202   4.009   3.360
 1205SOL    HW1 3632   0.122   4.069   3.347
 1205SOL    HW2 3633   0.192   3.960   3.446
 1206SOL     OW 3634   1.400   3.831   2.288
 1206SOL    HW1 3635   1.376   3.794   2.198
 1206SOL    HW2 3636   1.499   3.847   2.292
 1207SOL     OW 3637   0.382   4.424   2.342
 1207SOL    HW1 3638   0.427   4.334   2.339
 1207SOL    HW2 3639   0.288   4.413   2.375
 1208SOL     OW 3640   1.547   3.946   3.591
 1208SOL    HW1 3641   1.542   3.983   3.683
 1208SOL    HW2 3642   1.475   3.877   3.579
 1209SOL     OW 3643   0.614   3.846   1.979
 1209SOL    HW1 3644   0.712   3.824   1.986
 1209SOL    HW2 3645   0.583   3.829   1.886
 1210SOL     OW 3646   0.781   3.988   3.611
 1210SOL    HW1 3647   0.848   3.927   3.654
 1210SOL    HW2 3648   0.708   4.007   3.676
 1211SOL     OW 3649   1.351   4.314   3.295
 1211SOL    HW1 3650   1.379   4.271   3.380
 1211SOL    HW2 3651   1.376   4.410   3.296
 1212SOL     OW 3652   0.922   4.227   2.761
 1212SOL    HW1 3653   0.897   4.218   2.665
 1212SOL    HW2 3654   0.970   4.145   2.792
 1213SOL     OW 3655   0.539   3.788   2.374
 1213SOL    HW1 3656   0.458   3.789   2.432
 1213SOL    HW2 3657   0.542   3.871   2.319
 1214SOL     OW 3658   0.297   3.759   2.033
 1214SOL    HW1 3659   0.346   3.843   2.012
 1214SOL    HW2 3660   0.359   3.694   2.078
 1215SOL     OW 3661   0.935   3.960   2.342
 1215SOL    HW1 3662   0.887   4.001   2.264
 1215SOL    HW2 3663   1.034   3.958   2.323
 1216SOL     OW 3664   1.076   4.407   3.326
 1216SOL    HW1 3665   0.996   4.346   3.329
 1216SOL    HW2 3666   1.157   4.354   3.302
 1217SOL     OW 3667   1.032   4.273   1.878
 1217SOL    HW1 3668   0.991   4.355   1.839
 1217SOL    HW2 3669   1.096   4.299   1.951
 1218SOL     OW 3670   0.078   4.280   3.248
 1218SOL    HW1 3671   0.170   4.279   3.207
 1218SOL    HW2 3672   0.072   4.354   3.315
 1219SOL     OW 3673   0.561   3.946   3.009
 1219SOL    HW1 3674   0.599   3.862   3.046
 1219SOL    HW2 3675   0.473   3.965   3.053
 1220SOL     OW 3676   0.866   4.178   2.504
 1220SOL    HW1 3677   0.834   4.250   2.442
 1220SOL    HW2 3678   0.890   4.097   2.451
 1221SOL     OW 3679   1.017   3.763   2.615
 1221SOL    HW1 3680   0.945   3.768   2.546
 1221SOL    HW2 3681   0.993   3.694   2.684
 1222SOL     OW 3682   1.466   4.314   2.854
 1222SOL    HW1 3683   1.436   4.219   2.861
 1222SOL    HW2 3684   1.539   4.330   2.920
 1223SOL     OW 3685   1.857   4.557   2.239
 1223SOL    HW1 3686   1.899   4.493   2.303
 1223SOL    HW2 3687   1.819   4.506   2.161
 1224SOL     OW 3688   1.390   4.299   1.940
 1224SOL    HW1 3689   1.336   4.278   2.021
 1224SOL    HW2 3690   1.481   4.258   1.949
 1225SOL     OW 3691   0.527   3.980   2.190
 1225SOL    HW1 3692   0.554   3.921   2.115
 1225SOL    HW2 3693   0.527   4.075   2.159
 1226SOL     OW 3694   1.638   4.823   2.941
 1226SOL    HW1 3695   1.643   4.904   3.000
 1226SOL    HW2 3696   1.552   4.825   2.890
 1227SOL     OW 3697   0.915   3.813   3.264
 1227SOL    HW1 3698   0.940   3.793   3.169
 1227SOL    HW2 3699   0.987   3.869   3.306
 1228SOL     OW 3700   0.410   4.537   3.113
 1228SOL    HW1 3701   0.496   4.549   3.163
 1228SOL    HW2 3702   0.368   4.450   3.140
 1229SOL     OW 3703   1.274   4.110   3.124
 1229SOL    HW1 3704   1.295   4.184   3.188
 1229SOL    HW2 3705   1.185   4.127   3.081
 1230SOL     OW 3706   0.566   4.261   2.727
 1230SOL    HW1 3707   0.578   4.327   2.653
 1230SOL    HW2 3708   0.612   4.295   2.810
 1231SOL     OW 3709   1.582   4.363   2.334
 1231SOL    HW1 3710   1.551   4.424   2.407
 1231SOL    HW2 3711   1.632   4.415   2.265
 1232SOL     OW 3712   0.402   4.475   3.460
 1232SOL    HW1 3713   0.470   4.530   3.413
 1232SOL    HW2 3714   0.442   4.387   3.487
 1233SOL     OW 3715   1.587   4.503   3.532
 1233SOL    HW1 3716   1.495   4.541   3.527
 1233SOL    HW2 3717   1.647   4.550   3.467
 1234SOL     OW 3718   1.013   3.829   3.632
 1234SOL    HW1 3719   1.019   3.914   3.580
 1234SOL    HW2 3720   1.045   3.753   3.575
 1235SOL     OW 3721   0.504   3.774   3.602
 1235SOL    HW1 3722   0.462   3.717   3.532
 1235SOL    HW2 3723   0.438   3.843   3.634
 1236SOL     OW 3724   0.573   4.594   2.891
 1236SOL    HW1 3725   0.617   4.683   2.882
 1236SOL    HW2 3726   0.510   4.594   2.968
 1237SOL     OW 3727   1.360   4.586   2.907
 1237SOL    HW1 3728   1.285   4.586   2.841
 1237SOL    HW2 3729   1.397   4.494   2.916
 1238SOL     OW 3730   1.209   4.249   2.137
 1238SOL    HW1 3731   1.222   4.165   2.191
 1238SOL    HW2 3732   1.180   4.323   2.197
 1239SOL     OW 3733   0.307   3.937   3.093
 1239SOL    HW1 3734   0.284   3.974   3.183
 1239SOL    HW2 3735   0.277   3.842   3.087
 1240SOL     OW 3736   0.732   4.358   2.926
 1240SOL    HW1 3737   0.791   4.332   2.850
 1240SOL    HW2 3738   0.704   4.454   2.915
 1241SOL     OW 3739   1.728   4.659   3.716
 1241SOL    HW1 3740   1.682   4.652   3.627
 1241SOL    HW2 3741   1.666   4.703   3.782
 1242SOL     OW 3742   0.307   3.787   2.480
 1242SOL    HW1 3743   0.296   3.881   2.513
 1242SOL    HW2 3744   0.302   3.724   2.557
 1243SOL     OW 3745   1.622   4.091   2.236
 1243SOL    HW1 3746   1.624   4.015   2.300
 1243SOL    HW2 3747   1.574   4.168   2.276
 1244SOL     OW 3748   1.023   4.490   2.828
 1244SOL    HW1 3749   1.038   4.511   2.924
 1244SOL    HW2 3750   0.993   4.395   2.819
 1245SOL     OW 3751   0.350   4.622   3.666
 1245SOL    HW1 3752   0.426   4.666   3.714
 1245SOL    HW2 3753   0.385   4.575   3.584
 1246SOL     OW 3754   1.540   3.998   1.987
 1246SOL    HW1 3755   1.479   3.923   2.010
 1246SOL    HW2 3756   1.562   4.050   2.070
 1247SOL     OW 3757   1.303   4.562   1.904
 1247SOL    HW1 3758   1.337   4.469   1.919
 1247SOL    HW2 3759   1.321   4.589   1.809
 1248SOL     OW 3760   0.319   4.534   2.811
 1248SOL    HW1 3761   0.412   4.570   2.816
 1248SOL    HW2 3762   0.313   4.449   2.863
 1249SOL     OW 3763   0.339   4.233   2.868
 1249SOL    HW1 3764   0.287   4.150   2.851
 1249SOL    HW2 3765   0.416   4.238   2.804
 1250SOL     OW 3766   1.138   4.104   3.540
 1250SOL    HW1 3767   1.093   4.167   3.604
 1250SOL    HW2 3768   1.231   4.135   3.523
 1251SOL     OW 3769   1.160   3.931   3.339
 1251SOL    HW1 3770   1.160   3.995   3.416
 1251SOL    HW2 3771   1.188   3.979   3.256
 1252SOL     OW 3772   1.002   4.520   3.100
 1252SOL    HW1 3773   1.043   4.488   3.186
 1252SOL    HW2 3774   0.906   4.493   3.097
 1253SOL     OW 3775   0.040   4.268   2.976
 1253SOL    HW1 3776   0.125   4.235   2.935
 1253SOL    HW2 3777   0.053   4.283   3.074
 1254SOL     OW 3778   0.189   4.244   3.584
 1254SOL    HW1 3779   0.248   4.204   3.514
 1254SOL    HW2 3780   0.131   4.315   3.543
 1255SOL     OW 3781   0.815   4.296   2.187
 1255SOL    HW1 3782   0.822   4.207   2.141
 1255SOL    HW2 3783   0.721   4.330   2.179
 1256SOL     OW 3784   1.657   4.328   3.068
 1256SOL    HW1 3785   1.619   4.259   3.130
 1256SOL    HW2 3786   1.739   4.292   3.024
 1257SOL     OW 3787   0.671   4.188   3.131
 1257SOL    HW1 3788   0.637   4.099   3.101
 1257SOL    HW2 3789   0.697   4.242   3.051
 1258SOL     OW 3790   0.473   4.224   2.053
 1258SOL    HW1 3791   0.534   4.304   2.057
 1258SOL    HW2 3792   0.378   4.255   2.060
 1259SOL     OW 3793   1.347   4.783   3.096
 1259SOL    HW1 3794   1.371   4.720   3.022
 1259SOL    HW2 3795   1.257   4.823   3.078
 1260SOL     OW 3796   1.302   4.579   2.171
 1260SOL    HW1 3797   1.216   4.548   2.213
 1260SOL    HW2 3798   1.298   4.565   2.072
 1261SOL     OW 3799   1.726   3.859   2.385
 1261SOL    HW1 3800   1.799   3.842   2.318
 1261SOL    HW2 3801   1.695   3.772   2.423
 1262SOL     OW 3802   1.280   4.651   2.534
 1262SOL    HW1 3803   1.340   4.570   2.536
 1262SOL    HW2 3804   1.320   4.720   2.474
 1263SOL     OW 3805   1.841   3.899   2.825
 1263SOL    HW1 3806   1.880   3.814   2.789
 1263SOL    HW2 3807   1.743   3.901   2.806
 1264SOL     OW 3808   0.263   4.050   2.582
 1264SOL    HW1 3809   0.184   4.101   2.548
 1264SOL    HW2 3810   0.254   4.035   2.680
 1265SOL     OW 3811   0.916   4.634   2.153
 1265SOL    HW1 3812   0.979   4.672   2.085
 1265SOL    HW2 3813   0.956   4.551   2.192
 1266SOL     OW 3814   1.014   3.960   2.833
 1266SOL    HW1 3815   1.006   3.924   2.740
 1266SOL    HW2 3816   1.012   3.884   2.898
 1267SOL     OW 3817   1.709   4.109   3.243
 1267SOL    HW1 3818   1.782   4.178   3.247
 1267SOL    HW2 3819   1.737   4.034   3.184
 1268SOL     OW 3820   0.105   4.737   3.588
 1268SOL    HW1 3821   0.028   4.704   3.642
 1268SOL    HW2 3822   0.190   4.707   3.630
 1269SOL     OW 3823   0.672   3.927   3.351
 1269SOL    HW1 3824   0.762   3.911   3.311
 1269SOL    HW2 3825   0.680   3.932   3.450
 1270SOL     OW 3826   0.075   4.069   1.895
 1270SOL    HW1 3827  -0.017   4.041   1.866
 1270SOL    HW2 3828   0.106   4.146   1.839
 1271SOL     OW 3829   1.440   4.580   3.260
 1271SOL    HW1 3830   1.383   4.632   3.197
 1271SOL    HW2 3831   1.536   4.592   3.236
 1272SOL     OW 3832   0.072   3.890   2.180
 1272SOL    HW1 3833   0.055   3.973   2.126
 1272SOL    HW2 3834   0.162   3.853   2.158
 1273SOL     OW 3835   0.613   4.566   3.293
 1273SOL    HW1 3836   0.669   4.647   3.276
 1273SOL    HW2 3837   0.672   4.486   3.296
 1274SOL     OW 3838   0.716   4.289   3.570
 1274SOL    HW1 3839   0.735   4.354   3.644
 1274SOL    HW2 3840   0.776   4.209   3.579
 1275SOL     OW 3841   1.674   4.607   3.116
 1275SOL    HW1 3842   1.647   4.518   3.079
 1275SOL    HW2 3843   1.675   4.675   3.043
 1276SOL     OW 3844   1.225   4.049   2.311
 1276SOL    HW1 3845   1.290   3.975   2.300
 1276SOL    HW2 3846   1.245   4.099   2.395
 1277SOL     OW 3847   0.594   4.469   2.514
 1277SOL    HW1 3848   0.644   4.554   2.495
 1277SOL    HW2 3849   0.506   4.471   2.466
 1278SOL     OW 3850   1.777   4.066   3.504
 1278SOL    HW1 3851   1.760   4.097   3.410
 1278SOL    HW2 3852   1.693   4.029   3.542
 1279SOL     OW 3853   1.730   4.658   3.379
 1279SOL    HW1 3854   1.768   4.749   3.394
 1279SOL    HW2 3855   1.722   4.641   3.280
 1280SOL     OW 3856   1.824   3.916   3.089
 1280SOL    HW1 3857   1.820   3.826   3.133
 1280SOL    HW2 3858   1.827   3.905   2.990
 1281SOL     OW 3859   0.428   4.148   2.382
 1281SOL    HW1 3860   0.458   4.076   2.320
 1281SOL    HW2 3861   0.389   4.108   2.465
 1282SOL     OW 3862   0.317   4.271   3.142
 1282SOL    HW1 3863   0.355   4.212   3.214
 1282SOL    HW2 3864   0.357   4.245   3.054
 1283SOL     OW 3865   1.424   3.938   2.974
 1283SOL    HW1 3866   1.476   3.873   3.029
 1283SOL    HW2 3867   1.375   4.001   3.035
 1284SOL     OW 3868   1.001   3.758   3.016
 1284SOL    HW1 3869   0.938   3.686   2.985
 1284SOL    HW2 3870   1.094   3.722   3.016
 1285SOL     OW 3871   1.352   3.776   2.030
 1285SOL    HW1 3872   1.387   3.735   1.946
 1285SOL    HW2 3873   1.262   3.738   2.050
 1286SOL     OW 3874   1.300   4.177   2.553
 1286SOL    HW1 3875   1.241   4.257   2.557
 1286SOL    HW2 3876   1.315   4.142   2.646
 1287SOL     OW 3877   1.593   3.945   2.744
 1287SOL    HW1 3878   1.509   3.944   2.798
 1287SOL    HW2 3879   1.595   4.028   2.688
 1288SOL     OW 3880   0.230   4.352   3.837
 1288SOL    HW1 3881   0.137   4.350   3.874
 1288SOL    HW2 3882   0.231   4.313   3.745
 1289SOL     OW 3883   0.019   4.092   4.371
 1289SOL    HW1 3884  -0.063   4.135   4.410
 1289SOL    HW2 3885  -0.009   4.019   4.308
 1290SOL     OW 3886   1.135   4.427   4.441
 1290SOL    HW1 3887   1.192   4.505   4.416
 1290SOL    HW2 3888   1.075   4.453   4.517
 1291SOL     OW 3889   1.755   4.331   3.955
 1291SOL    HW1 3890   1.743   4.318   3.856
 1291SOL    HW2 3891   1.725   4.250   4.004
 1292SOL     OW 3892   0.685   4.736   4.389
 1292SOL    HW1 3893   0.754   4.720   4.459
 1292SOL    HW2 3894   0.612   4.793   4.427
 1293SOL     OW 3895   1.603   4.171   4.461
 1293SOL    HW1 3896   1.529   4.217   4.411
 1293SOL    HW2 3897   1.654   4.239   4.514
 1294SOL     OW 3898   0.240   4.815   4.610
 1294SOL    HW1 3899   0.254   4.731   4.662
 1294SOL    HW2 3900   0.185   4.879   4.665
 1295SOL     OW 3901   0.122   4.367   4.287
 1295SOL    HW1 3902   0.077   4.279   4.304
 1295SOL    HW2 3903   0.121   4.421   4.371
 1296SOL     OW 3904   0.809   3.728   4.226
 1296SOL    HW1 3905   0.849   3.819   4.217
 1296SOL    HW2 3906   0.709   3.736   4.232
 1297SOL     OW 3907   1.525   4.723   3.914
 1297SOL    HW1 3908   1.462   4.647   3.927
 1297SOL    HW2 3909   1.573   4.741   4.000
 1298SOL     OW 3910   0.598   4.453   3.994
 1298SOL    HW1 3911   0.622   4.522   3.926
 1298SOL    HW2 3912   0.520   4.486   4.048
 1299SOL     OW 3913   1.281   4.069   4.668
 1299SOL    HW1 3914   1.195   4.019   4.655
 1299SOL    HW2 3915   1.343   4.015   4.724
 1300SOL     OW 3916   1.041   4.425   4.153
 1300SOL    HW1 3917   1.067   4.421   4.249
 1300SOL    HW2 3918   0.956   4.374   4.139
 1301SOL     OW 3919   0.076   4.535   4.513
 1301SOL    HW1 3920   0.175   4.523   4.522
 1301SOL    HW2 3921   0.052   4.630   4.534
 1302SOL     OW 3922   0.865   4.072   3.919
 1302SOL    HW1 3923   0.924   4.135   3.870
 1302SOL    HW2 3924   0.884   3.978   3.890
 1303SOL     OW 3925   0.550   3.920   4.609
 1303SOL    HW1 3926   0.545   3.915   4.709
 1303SOL    HW2 3927   0.552   4.016   4.580
 1304SOL     OW 3928   1.458   4.459   4.452
 1304SOL    HW1 3929   1.453   4.394   4.527
 1304SOL    HW2 3930   1.538   4.518   4.465
 1305SOL     OW 3931   1.400   3.831   4.150
 1305SOL    HW1 3932   1.376   3.794   4.060
 1305SOL    HW2 3933   1.499   3.847   4.154
 1306SOL     OW 3934   0.382   4.424   4.204
 1306SOL    HW1 3935   0.427   4.334   4.201
 1306SOL    HW2 3936   0.288   4.413   4.237
 1307SOL     OW 3937   0.614   3.846   3.841
 1307SOL    HW1 3938   0.712   3.824   3.848
 1307SOL    HW2 3939   0.583   3.829   3.748
 1308SOL     OW 3940   0.539   3.788   4.236
 1308SOL    HW1 3941   0.458   3.789   4.294
 1308SOL    HW2 3942   0.542   3.871   4.181
 1309SOL     OW 3943   0.297   3.759   3.895
 1309SOL    HW1 3944   0.346   3.843   3.874
 1309SOL    HW2 3945   0.359   3.694   3.940
 1310SOL     OW 3946   0.935   3.960   4.204
 1310SOL    HW1 3947   0.887   4.001   4.126
 1310SOL    HW2 3948   1.034   3.958   4.185
 1311SOL     OW 3949   1.032   4.273   3.740
 1311SOL    HW1 3950   0.991   4.355   3.701
 1311SOL    HW2 3951   1.096   4.299   3.813
 1312SOL     OW 3952   0.866   4.178   4.366
 1312SOL    HW1 3953   0.834   4.250   4.304
 1312SOL    HW2 3954   0.890   4.097   4.313
 1313SOL     OW 3955   1.017   3.763   4.477
 1313SOL    HW1 3956   0.945   3.768   4.408
 1313SOL    HW2 3957   0.993   3.694   4.546
 1314SOL     OW 3958   1.857   4.557   4.101
 1314SOL    HW1 3959   1.899   4.493   4.165
 1314SOL    HW2 3960   1.819   4.506   4.023
 1315SOL     OW 3961   1.390   4.299   3.802
 1315SOL    HW1 3962   1.336   4.278   3.883
 1315SOL    HW2 3963   1.481   4.258   3.811
 1316SOL     OW 3964   0.527   3.980   4.052
 1316SOL    HW1 3965   0.554   3.921   3.977
 1316SOL    HW2 3966   0.527   4.075   4.021
 1317SOL     OW 3967   1.111   4.919   4.824
 1317SOL    HW1 3968   1.071   4.963   4.905
 1317SOL    HW2 3969   1.070   4.956   4.741
 1318SOL     OW 3970   0.566   4.261   4.589
 1318SOL    HW1 3971   0.578   4.327   4.515
 1318SOL    HW2 3972   0.612   4.295   4.672
 1319SOL     OW 3973   1.582   4.363   4.196
 1319SOL    HW1 3974   1.551   4.424   4.269
 1319SOL    HW2 3975   1.632   4.415   4.127
 1320SOL     OW 3976   0.573   4.594   4.753
 1320SOL    HW1 3977   0.617   4.683   4.744
 1320SOL    HW2 3978   0.510   4.594   4.830
 1321SOL     OW 3979   1.209   4.249   3.999
 1321SOL    HW1 3980   1.222   4.165   4.053
 1321SOL    HW2 3981   1.180   4.323   4.059
 1322SOL     OW 3982   0.732   4.358   4.788
 1322SOL    HW1 3983   0.791   4.332   4.712
 1322SOL    HW2 3984   0.704   4.454   4.777
 1323SOL     OW 3985   0.307   3.787   4.342
 1323SOL    HW1 3986   0.296   3.881   4.375
 1323SOL    HW2 3987   0.302   3.724   4.419
 1324SOL     OW 3988   1.622   4.091   4.098
 1324SOL    HW1 3989   1.624   4.015   4.162
 1324SOL    HW2 3990   1.574   4.168   4.138
 1325SOL     OW 3991   1.540   3.998   3.849
 1325SOL    HW1 3992   1.479   3.923   3.872
 1325SOL    HW2 3993   1.562   4.050   3.932
 1326SOL     OW 3994   1.303   4.562   3.766
 1326SOL    HW1 3995   1.337   4.469   3.781
 1326SOL    HW2 3996   1.321   4.589   3.671
 1327SOL     OW 3997   1.068   5.057   4.573
 1327SOL    HW1 3998   1.075   4.973   4.518
 1327SOL    HW2 3999   1.130   5.126   4.537
 1328SOL     OW 4000   0.319   4.534   4.673
 1328SOL    HW1 4001   0.412   4.570   4.678
 1328SOL    HW2 4002   0.313   4.449   4.725
 1329SOL     OW 4003   0.815   4.296   4.049
 1329SOL    HW1 4004   0.822   4.207   4.003
 1329SOL    HW2 4005   0.721   4.330   4.041
 1330SOL     OW 4006   0.473   4.224   3.915
 1330SOL    HW1 4007   0.534   4.304   3.919
 1330SOL    HW2 4008   0.378   4.255   3.922
 1331SOL     OW 4009   1.302   4.579   4.033
 1331SOL    HW1 4010   1.216   4.548   4.075
 1331SOL    HW2 4011   1.298   4.565   3.934
 1332SOL     OW 4012   1.726   3.859   4.247
 1332SOL    HW1 4013   1.799   3.842   4.180
 1332SOL    HW2 4014   1.695   3.772   4.285
 1333SOL     OW 4015   1.280   4.651   4.396
 1333SOL    HW1 4016   1.340   4.570   4.398
 1333SOL    HW2 4017   1.320   4.720   4.336
 1334SOL     OW 4018   1.841   3.899   4.687
 1334SOL    HW1 4019   1.880   3.814   4.651
 1334SOL    HW2 4020   1.743   3.901   4.668
 1335SOL     OW 4021   0.263   4.050   4.444
 1335SOL    HW1 4022   0.184   4.101   4.410
 1335SOL    HW2 4023   0.254   4.035   4.542
 1336SOL     OW 4024   0.916   4.634   4.015
 1336SOL    HW1 4025   0.979   4.672   3.947
 1336SOL    HW2 4026   0.956   4.551   4.054
 1337SOL     OW 4027   0.075   4.069   3.757
 1337SOL    HW1 4028  -0.017   4.041   3.728
 1337SOL    HW2 4029   0.106   4.146   3.701
 1338SOL     OW 4030   0.072   3.890   4.042
 1338SOL    HW1 4031   0.055   3.973   3.988
 1338SOL    HW2 4032   0.162   3.853   4.020
 1339SOL     OW 4033   1.674   4.607   4.978
 1339SOL    HW1 4034   1.647   4.518   4.941
 1339SOL    HW2 4035   1.675   4.675   4.905
 1340SOL     OW 4036   1.225   4.049   4.173
 1340SOL    HW1 4037   1.290   3.975   4.162
 1340SOL    HW2 4038   1.245   4.099   4.257
 1341SOL     OW 4039   0.594   4.469   4.376
 1341SOL    HW1 4040   0.644   4.554   4.357
 1341SOL    HW2 4041   0.506   4.471   4.328
 1342SOL     OW 4042   0.428   4.148   4.244
 1342SOL    HW1 4043   0.458   4.076   4.182
 1342SOL    HW2 4044   0.389   4.108   4.327
 1343SOL     OW 4045   1.352   3.776   3.892
 1343SOL    HW1 4046   1.387   3.735   3.808
 1343SOL    HW2 4047   1.262   3.738   3.912
 1344SOL     OW 4048   1.300   4.177   4.415
 1344SOL    HW1 4049   1.241   4.257   4.419
 1344SOL    HW2 4050   1.315   4.142   4.508
 1345SOL     OW 4051   1.593   3.945   4.606
 1345SOL    HW1 4052   1.509   3.944   4.660
 1345SOL    HW2 4053   1.595   4.028   4.550
 1346SOL     OW 4054   2.092   0.628   0.113
 1346SOL    HW1 4055   1.999   0.626   0.150
 1346SOL    HW2 4056   2.093   0.589   0.021
 1347SOL     OW 4057   2.087   0.275   0.996
 1347SOL    HW1 4058   2.122   0.258   1.088
 1347SOL    HW2 4059   1.999   0.230   0.984
 1348SOL     OW 4060   1.881   0.368   0.647
 1348SOL    HW1 4061   1.799   0.411   0.686
 1348SOL    HW2 4062   1.853   0.295   0.584
 1349SOL     OW 4063   2.431   1.275   1.165
 1349SOL    HW1 4064   2.338   1.268   1.128
 1349SOL    HW2 4065   2.442   1.364   1.209
 1350SOL     OW 4066   3.417   1.511   0.703
 1350SOL    HW1 4067   3.360   1.495   0.784
 1350SOL    HW2 4068   3.358   1.521   0.623
 1351SOL     OW 4069   2.997   0.703   0.717
 1351SOL    HW1 4070   3.054   0.781   0.692
 1351SOL    HW2 4071   2.937   0.729   0.793
 1352SOL     OW 4072   3.617   0.607   0.231
 1352SOL    HW1 4073   3.605   0.594   0.132
 1352SOL    HW2 4074   3.587   0.526   0.280
 1353SOL     OW 4075   2.630   1.144   1.023
 1353SOL    HW1 4076   2.552   1.161   1.083
 1353SOL    HW2 4077   2.664   1.231   0.987
 1354SOL     OW 4078   2.712   0.798   1.823
 1354SOL    HW1 4079   2.708   0.874   1.888
 1354SOL    HW2 4080   2.734   0.834   1.732
 1355SOL     OW 4081   2.547   1.012   0.665
 1355SOL    HW1 4082   2.616   0.996   0.735
 1355SOL    HW2 4083   2.474   1.069   0.703
 1356SOL     OW 4084   2.548   1.161   1.803
 1356SOL    HW1 4085   2.608   1.240   1.817
 1356SOL    HW2 4086   2.462   1.192   1.762
 1357SOL     OW 4087   2.197   1.435   1.061
 1357SOL    HW1 4088   2.119   1.404   1.008
 1357SOL    HW2 4089   2.255   1.493   1.004
 1358SOL     OW 4090   3.322   1.505   1.339
 1358SOL    HW1 4091   3.346   1.599   1.365
 1358SOL    HW2 4092   3.306   1.451   1.421
 1359SOL     OW 4093   2.300   0.392   1.499
 1359SOL    HW1 4094   2.382   0.336   1.508
 1359SOL    HW2 4095   2.219   0.334   1.503
 1360SOL     OW 4096   3.465   0.447   0.737
 1360SOL    HW1 4097   3.391   0.493   0.687
 1360SOL    HW2 4098   3.516   0.515   0.790
 1361SOL     OW 4099   2.093   1.713   0.483
 1361SOL    HW1 4100   2.127   1.790   0.537
 1361SOL    HW2 4101   2.137   1.713   0.393
 1362SOL     OW 4102   2.989   1.341   1.690
 1362SOL    HW1 4103   3.036   1.341   1.778
 1362SOL    HW2 4104   2.941   1.254   1.679
 1363SOL     OW 4105   2.092   1.434   0.538
 1363SOL    HW1 4106   2.066   1.530   0.538
 1363SOL    HW2 4107   2.021   1.380   0.583
 1364SOL     OW 4108   2.102   1.091   0.886
 1364SOL    HW1 4109   2.116   1.007   0.938
 1364SOL    HW2 4110   2.047   1.155   0.941
 1365SOL     OW 4111   2.482   1.786   1.439
 1365SOL    HW1 4112   2.390   1.769   1.474
 1365SOL    HW2 4113   2.510   1.878   1.465
 1366SOL     OW 4114   2.468   0.964   0.123
 1366SOL    HW1 4115   2.475   1.048   0.069
 1366SOL    HW2 4116   2.514   0.977   0.211
 1367SOL     OW 4117   3.456   0.114   1.480
 1367SOL    HW1 4118   3.438   0.181   1.408
 1367SOL    HW2 4119   3.453   0.160   1.569
 1368SOL     OW 4120   1.984   0.643   0.563
 1368SOL    HW1 4121   1.939   0.555   0.580
 1368SOL    HW2 4122   1.983   0.697   0.647
 1369SOL     OW 4123   3.704   1.767   0.359
 1369SOL    HW1 4124   3.758   1.738   0.439
 1369SOL    HW2 4125   3.734   1.857   0.330
 1370SOL     OW 4126   3.551   0.922   0.612
 1370SOL    HW1 4127   3.646   0.893   0.620
 1370SOL    HW2 4128   3.543   0.987   0.537
 1371SOL     OW 4129   3.503   1.108   0.432
 1371SOL    HW1 4130   3.589   1.110   0.380
 1371SOL    HW2 4131   3.517   1.155   0.520
 1372SOL     OW 4132   1.975   0.737   1.597
 1372SOL    HW1 4133   2.063   0.724   1.642
 1372SOL    HW2 4134   1.962   0.834   1.575
 1373SOL     OW 4135   2.475   1.365   0.726
 1373SOL    HW1 4136   2.426   1.278   0.735
 1373SOL    HW2 4137   2.452   1.408   0.639
 1374SOL     OW 4138   3.155   1.228   1.423
 1374SOL    HW1 4139   3.192   1.155   1.365
 1374SOL    HW2 4140   3.207   1.233   1.508
 1375SOL     OW 4141   2.671   0.004   0.502
 1375SOL    HW1 4142   2.711   0.095   0.493
 1375SOL    HW2 4143   2.571   0.012   0.508
 1376SOL     OW 4144   2.059   0.976   1.264
 1376SOL    HW1 4145   2.148   0.931   1.250
 1376SOL    HW2 4146   1.986   0.911   1.245
 1377SOL     OW 4147   3.387   0.999   0.190
 1377SOL    HW1 4148   3.324   0.923   0.203
 1377SOL    HW2 4149   3.435   1.017   0.276
 1378SOL     OW 4150   3.049   1.792   1.616
 1378SOL    HW1 4151   3.073   1.852   1.540
 1378SOL    HW2 4152   3.056   1.697   1.586
 1379SOL     OW 4153   2.179   0.251   1.801
 1379SOL    HW1 4154   2.250   0.322   1.807
 1379SOL    HW2 4155   2.091   0.290   1.829
 1380SOL     OW 4156   3.328   1.417   0.953
 1380SOL    HW1 4157   3.269   1.423   1.033
 1380SOL    HW2 4158   3.313   1.329   0.907
 1381SOL     OW 4159   3.529   1.714   0.572
 1381SOL    HW1 4160   3.488   1.691   0.484
 1381SOL    HW2 4161   3.511   1.640   0.637
 1382SOL     OW 4162   2.460   0.729   0.270
 1382SOL    HW1 4163   2.484   0.798   0.202
 1382SOL    HW2 4164   2.382   0.762   0.324
 1383SOL     OW 4165   3.143   0.345   0.944
 1383SOL    HW1 4166   3.057   0.295   0.931
 1383SOL    HW2 4167   3.205   0.291   1.000
 1384SOL     OW 4168   3.438   1.662   0.307
 1384SOL    HW1 4169   3.527   1.708   0.310
 1384SOL    HW2 4170   3.417   1.638   0.212
 1385SOL     OW 4171   2.669   0.605   1.465
 1385SOL    HW1 4172   2.622   0.602   1.554
 1385SOL    HW2 4173   2.618   0.550   1.399
 1386SOL     OW 4174   3.256   0.469   1.674
 1386SOL    HW1 4175   3.236   0.512   1.762
 1386SOL    HW2 4176   3.334   0.407   1.683
 1387SOL     OW 4177   2.835   0.890   1.572
 1387SOL    HW1 4178   2.881   0.806   1.543
 1387SOL    HW2 4179   2.779   0.924   1.497
 1388SOL     OW 4180   2.853   0.410   1.242
 1388SOL    HW1 4181   2.776   0.444   1.296
 1388SOL    HW2 4182   2.819   0.359   1.163
 1389SOL     OW 4183   2.903   0.701   0.429
 1389SOL    HW1 4184   2.929   0.697   0.525
 1389SOL    HW2 4185   2.818   0.650   0.415
 1390SOL     OW 4186   1.938   0.811   0.789
 1390SOL    HW1 4187   2.037   0.799   0.798
 1390SOL    HW2 4188   1.914   0.906   0.810
 1391SOL     OW 4189   1.992   1.821   1.571
 1391SOL    HW1 4190   1.982   1.806   1.670
 1391SOL    HW2 4191   1.906   1.857   1.535
 1392SOL     OW 4192   2.727   0.348   0.195
 1392SOL    HW1 4193   2.786   0.411   0.146
 1392SOL    HW2 4194   2.746   0.254   0.166
 1393SOL     OW 4195   3.581   0.585   1.831
 1393SOL    HW1 4196   3.555   0.674   1.795
 1393SOL    HW2 4197   3.579   0.517   1.758
 1394SOL     OW 4198   3.224   1.144   0.545
 1394SOL    HW1 4199   3.307   1.115   0.497
 1394SOL    HW2 4200   3.175   1.211   0.489
 1395SOL     OW 4201   2.412   0.196   0.885
 1395SOL    HW1 4202   2.407   0.191   0.985
 1395SOL    HW2 4203   2.414   0.292   0.856
 1396SOL     OW 4204   2.870   1.456   0.477
 1396SOL    HW1 4205   2.824   1.528   0.425
 1396SOL    HW2 4206   2.866   1.476   0.575
 1397SOL     OW 4207   2.213   1.801   0.853
 1397SOL    HW1 4208   2.263   1.715   0.859
 1397SOL    HW2 4209   2.278   1.878   0.850
 1398SOL     OW 4210   3.657   1.066   0.873
 1398SOL    HW1 4211   3.595   1.051   0.797
 1398SOL    HW2 4212   3.605   1.077   0.958
 1399SOL     OW 4213   3.089   1.550   1.506
 1399SOL    HW1 4214   3.095   1.473   1.570
 1399SOL    HW2 4215   3.037   1.524   1.426
 1400SOL     OW 4216   2.183   0.943   0.242
 1400SOL    HW1 4217   2.265   0.982   0.200
 1400SOL    HW2 4218   2.156   0.861   0.193
 1401SOL     OW 4219   3.320   0.735   0.728
 1401SOL    HW1 4220   3.315   0.670   0.803
 1401SOL    HW2 4221   3.400   0.794   0.741
 1402SOL     OW 4222   2.323   1.266   1.727
 1402SOL    HW1 4223   2.273   1.267   1.641
 1402SOL    HW2 4224   2.260   1.248   1.803
 1403SOL     OW 4225   2.973   1.776   0.237
 1403SOL    HW1 4226   2.913   1.714   0.287
 1403SOL    HW2 4227   3.004   1.732   0.152
 1404SOL     OW 4228   2.064   0.285   1.498
 1404SOL    HW1 4229   1.984   0.345   1.485
 1404SOL    HW2 4230   2.054   0.236   1.584
 1405SOL     OW 4231   3.494   1.377   0.081
 1405SOL    HW1 4232   3.462   1.471   0.071
 1405SOL    HW2 4233   3.418   1.314   0.069
 1406SOL     OW 4234   2.326   1.743   0.323
 1406SOL    HW1 4235   2.359   1.782   0.409
 1406SOL    HW2 4236   2.402   1.736   0.258
 1407SOL     OW 4237   3.262   0.107   0.426
 1407SOL    HW1 4238   3.238   0.070   0.336
 1407SOL    HW2 4239   3.361   0.123   0.430
 1408SOL     OW 4240   2.111   1.785   1.241
 1408SOL    HW1 4241   2.168   1.720   1.291
 1408SOL    HW2 4242   2.095   1.752   1.148
 1409SOL     OW 4243   2.802   1.698   0.904
 1409SOL    HW1 4244   2.882   1.641   0.925
 1409SOL    HW2 4245   2.753   1.658   0.827
 1410SOL     OW 4246   2.244   0.700   0.480
 1410SOL    HW1 4247   2.289   0.610   0.477
 1410SOL    HW2 4248   2.150   0.689   0.513
 1411SOL     OW 4249   3.409   0.222   1.729
 1411SOL    HW1 4250   3.404   0.259   1.821
 1411SOL    HW2 4251   3.337   0.153   1.717
 1412SOL     OW 4252   2.476   0.122   0.117
 1412SOL    HW1 4253   2.574   0.100   0.124
 1412SOL    HW2 4254   2.445   0.105   0.024
 1413SOL     OW 4255   2.643   0.264   1.749
 1413SOL    HW1 4256   2.710   0.203   1.792
 1413SOL    HW2 4257   2.570   0.283   1.814
 1414SOL     OW 4258   2.750   1.514   1.195
 1414SOL    HW1 4259   2.727   1.489   1.101
 1414SOL    HW2 4260   2.811   1.445   1.234
 1415SOL     OW 4261   3.213   0.590   1.433
 1415SOL    HW1 4262   3.241   0.547   1.518
 1415SOL    HW2 4263   3.238   0.686   1.434
 1416SOL     OW 4264   2.665   1.402   0.924
 1416SOL    HW1 4265   2.755   1.416   0.882
 1416SOL    HW2 4266   2.594   1.404   0.853
 1417SOL     OW 4267   2.784   0.503   0.899
 1417SOL    HW1 4268   2.759   0.494   0.803
 1417SOL    HW2 4269   2.832   0.421   0.930
 1418SOL     OW 4270   2.401   0.064   0.512
 1418SOL    HW1 4271   2.320   0.065   0.570
 1418SOL    HW2 4272   2.404   0.147   0.457
 1419SOL     OW 4273   3.296   1.188   0.041
 1419SOL    HW1 4274   3.328   1.112   0.098
 1419SOL    HW2 4275   3.204   1.215   0.071
 1420SOL     OW 4276   2.159   0.035   0.171
 1420SOL    HW1 4277   2.208   0.119   0.150
 1420SOL    HW2 4278   2.221  -0.030   0.216
 1421SOL     OW 4279   2.797   0.236   0.480
 1421SOL    HW1 4280   2.749   0.277   0.402
 1421SOL    HW2 4281   2.896   0.234   0.461
 1422SOL     OW 4282   2.938   0.683   1.464
 1422SOL    HW1 4283   2.858   0.622   1.467
 1422SOL    HW2 4284   3.019   0.630   1.440
 1423SOL     OW 4285   3.089   1.570   0.793
 1423SOL    HW1 4286   3.110   1.644   0.728
 1423SOL    HW2 4287   3.157   1.570   0.866
 1424SOL     OW 4288   2.321   1.152   0.741
 1424SOL    HW1 4289   2.250   1.125   0.806
 1424SOL    HW2 4290   2.295   1.124   0.648
 1425SOL     OW 4291   3.133   1.797   0.591
 1425SOL    HW1 4292   3.177   1.861   0.527
 1425SOL    HW2 4293   3.083   1.849   0.661
 1426SOL     OW 4294   2.894   0.549   0.016
 1426SOL    HW1 4295   2.853   0.631  -0.023
 1426SOL    HW2 4296   2.958   0.575   0.089
 1427SOL     OW 4297   1.940   0.556   1.386
 1427SOL    HW1 4298   2.032   0.555   1.345
 1427SOL    HW2 4299   1.934   0.630   1.453
 1428SOL     OW 4300   2.423   0.222   1.147
 1428SOL    HW1 4301   2.461   0.138   1.184
 1428SOL    HW2 4302   2.335   0.241   1.191
 1429SOL     OW 4303   2.728   0.454   0.642
 1429SOL    HW1 4304   2.696   0.526   0.580
 1429SOL    HW2 4305   2.752   0.373   0.589
 1430SOL     OW 4306   2.879   0.039   0.753
 1430SOL    HW1 4307   2.807   0.044   0.684
 1430SOL    HW2 4308   2.855  -0.030   0.822
 1431SOL     OW 4309   3.291   1.173   0.867
 1431SOL    HW1 4310   3.236   1.089   0.860
 1431SOL    HW2 4311   3.317   1.202   0.775
 1432SOL     OW 4312   3.328   0.590   0.992
 1432SOL    HW1 4313   3.298   0.495   0.999
 1432SOL    HW2 4314   3.401   0.606   1.058
 1433SOL     OW 4315   3.719   0.833   0.377
 1433SOL    HW1 4316   3.761   0.769   0.441
 1433SOL    HW2 4317   3.681   0.782   0.299
 1434SOL     OW 4318   2.350   1.385   0.174
 1434SOL    HW1 4319   2.263   1.370   0.221
 1434SOL    HW2 4320   2.333   1.411   0.079
 1435SOL     OW 4321   3.526   1.280   0.657
 1435SOL    HW1 4322   3.625   1.288   0.671
 1435SOL    HW2 4323   3.481   1.364   0.688
 1436SOL     OW 4324   3.252   0.575   0.078
 1436SOL    HW1 4325   3.198   0.554   0.159
 1436SOL    HW2 4326   3.343   0.534   0.087
 1437SOL     OW 4327   2.389   0.256   0.328
 1437SOL    HW1 4328   2.416   0.197   0.253
 1437SOL    HW2 4329   2.389   0.351   0.297
 1438SOL     OW 4330   3.616   1.223   1.588
 1438SOL    HW1 4331   3.707   1.184   1.575
 1438SOL    HW2 4332   3.624   1.319   1.612
 1439SOL     OW 4333   2.926   1.347   1.340
 1439SOL    HW1 4334   2.846   1.324   1.395
 1439SOL    HW2 4335   3.009   1.321   1.389
 1440SOL     OW 4336   3.454   1.629   1.625
 1440SOL    HW1 4337   3.481   1.663   1.535
 1440SOL    HW2 4338   3.533   1.591   1.671
 1441SOL     OW 4339   2.973   1.195   1.100
 1441SOL    HW1 4340   2.933   1.239   1.181
 1441SOL    HW2 4341   2.932   1.232   1.017
 1442SOL     OW 4342   3.500   1.099   1.079
 1442SOL    HW1 4343   3.505   1.180   1.138
 1442SOL    HW2 4344   3.414   1.101   1.028
 1443SOL     OW 4345   2.777   0.089   1.402
 1443SOL    HW1 4346   2.802   0.069   1.307
 1443SOL    HW2 4347   2.849   0.145   1.444
 1444SOL     OW 4348   2.842   1.116   1.719
 1444SOL    HW1 4349   2.743   1.122   1.729
 1444SOL    HW2 4350   2.865   1.036   1.663
 1445SOL     OW 4351   2.567   1.050   0.368
 1445SOL    HW1 4352   2.553   1.057   0.467
 1445SOL    HW2 4353   2.651   0.999   0.350
 1446SOL     OW 4354   2.272   0.813   1.251
 1446SOL    HW1 4355   2.358   0.825   1.301
 1446SOL    HW2 4356   2.230   0.726   1.278
 1447SOL     OW 4357   3.136   0.386   1.262
 1447SOL    HW1 4358   3.157   0.460   1.326
 1447SOL    HW2 4359   3.047   0.403   1.219
 1448SOL     OW 4360   1.926   1.564   1.331
 1448SOL    HW1 4361   1.880   1.646   1.297
 1448SOL    HW2 4362   2.024   1.583   1.340
 1449SOL     OW 4363   2.229   1.100   0.501
 1449SOL    HW1 4364   2.222   1.183   0.445
 1449SOL    HW2 4365   2.233   1.020   0.441
 1450SOL     OW 4366   2.428   0.537   0.865
 1450SOL    HW1 4367   2.440   0.603   0.791
 1450SOL    HW2 4368   2.474   0.571   0.948
 1451SOL     OW 4369   3.114   1.348   0.388
 1451SOL    HW1 4370   3.164   1.425   0.428
 1451SOL    HW2 4371   3.019   1.350   0.420
 1452SOL     OW 4372   3.134   1.445   1.142
 1452SOL    HW1 4373   3.181   1.458   1.229
 1452SOL    HW2 4374   3.068   1.371   1.151
 1453SOL     OW 4375   3.444   0.639   0.472
 1453SOL    HW1 4376   3.413   0.700   0.545
 1453SOL    HW2 4377   3.494   0.691   0.403
 1454SOL     OW 4378   2.216   1.510   1.329
 1454SOL    HW1 4379   2.195   1.466   1.242
 1454SOL    HW2 4380   2.313   1.536   1.332
 1455SOL     OW 4381   2.264   0.751   1.598
 1455SOL    HW1 4382   2.332   0.806   1.551
 1455SOL    HW2 4383   2.304   0.663   1.625
 1456SOL     OW 4384   3.449   0.779   1.670
 1456SOL    HW1 4385   3.357   0.817   1.665
 1456SOL    HW2 4386   3.509   0.826   1.605
 1457SOL     OW 4387   2.875   0.105   1.770
 1457SOL    HW1 4388   2.881   0.190   1.718
 1457SOL    HW2 4389   2.907   0.029   1.713
 1458SOL     OW 4390   2.366   0.050   1.740
 1458SOL    HW1 4391   2.324  -0.007   1.670
 1458SOL    HW2 4392   2.300   0.119   1.772
 1459SOL     OW 4393   2.435   0.870   1.029
 1459SOL    HW1 4394   2.479   0.959   1.020
 1459SOL    HW2 4395   2.372   0.870   1.106
 1460SOL     OW 4396   3.222   0.862   1.045
 1460SOL    HW1 4397   3.147   0.862   0.979
 1460SOL    HW2 4398   3.259   0.770   1.054
 1461SOL     OW 4399   3.071   0.525   0.275
 1461SOL    HW1 4400   3.084   0.441   0.329
 1461SOL    HW2 4401   3.042   0.599   0.335
 1462SOL     OW 4402   2.169   0.213   1.231
 1462SOL    HW1 4403   2.146   0.250   1.321
 1462SOL    HW2 4404   2.139   0.118   1.225
 1463SOL     OW 4405   1.899   1.310   1.282
 1463SOL    HW1 4406   1.952   1.261   1.350
 1463SOL    HW2 4407   1.921   1.408   1.287
 1464SOL     OW 4408   2.594   0.634   1.064
 1464SOL    HW1 4409   2.653   0.608   0.988
 1464SOL    HW2 4410   2.566   0.730   1.053
 1465SOL     OW 4411   3.590   0.935   1.854
 1465SOL    HW1 4412   3.544   0.928   1.765
 1465SOL    HW2 4413   3.528   0.979   1.920
 1466SOL     OW 4414   2.169   0.063   0.618
 1466SOL    HW1 4415   2.158   0.157   0.651
 1466SOL    HW2 4416   2.164   0.000   0.695
 1467SOL     OW 4417   3.484   0.367   0.374
 1467SOL    HW1 4418   3.486   0.291   0.438
 1467SOL    HW2 4419   3.436   0.444   0.414
 1468SOL     OW 4420   2.885   0.766   0.966
 1468SOL    HW1 4421   2.900   0.787   1.062
 1468SOL    HW2 4422   2.855   0.671   0.957
 1469SOL     OW 4423   2.842   1.573   1.700
 1469SOL    HW1 4424   2.822   1.617   1.612
 1469SOL    HW2 4425   2.881   1.482   1.684
 1470SOL     OW 4426   3.721   1.518   1.605
 1470SOL    HW1 4427   3.735   1.545   1.510
 1470SOL    HW2 4428   3.804   1.540   1.658
 1471SOL     OW 4429   2.212   0.898   1.804
 1471SOL    HW1 4430   2.288   0.942   1.852
 1471SOL    HW2 4431   2.247   0.851   1.722
 1472SOL     OW 4432   3.402   0.274   0.125
 1472SOL    HW1 4433   3.341   0.199   0.148
 1472SOL    HW2 4434   3.424   0.326   0.208
 1473SOL     OW 4435   3.165   0.838   0.042
 1473SOL    HW1 4436   3.199   0.745   0.057
 1473SOL    HW2 4437   3.183   0.865  -0.053
 1474SOL     OW 4438   2.930   1.333   0.849
 1474SOL    HW1 4439   2.937   1.249   0.794
 1474SOL    HW2 4440   2.992   1.402   0.813
 1475SOL     OW 4441   2.181   0.810   0.949
 1475SOL    HW1 4442   2.274   0.846   0.954
 1475SOL    HW2 4443   2.175   0.725   1.001
 1476SOL     OW 4444   2.201   0.509   1.006
 1476SOL    HW1 4445   2.149   0.426   0.989
 1476SOL    HW2 4446   2.278   0.514   0.942
 1477SOL     OW 4447   3.000   0.380   1.678
 1477SOL    HW1 4448   2.955   0.443   1.742
 1477SOL    HW2 4449   3.093   0.411   1.661
 1478SOL     OW 4450   3.022   0.207   1.477
 1478SOL    HW1 4451   3.022   0.271   1.554
 1478SOL    HW2 4452   3.050   0.255   1.394
 1479SOL     OW 4453   1.870   1.326   0.200
 1479SOL    HW1 4454   1.777   1.347   0.169
 1479SOL    HW2 4455   1.880   1.227   0.213
 1480SOL     OW 4456   1.950   1.801   0.927
 1480SOL    HW1 4457   1.908   1.715   0.900
 1480SOL    HW2 4458   2.044   1.804   0.893
 1481SOL     OW 4459   2.366   1.568   0.910
 1481SOL    HW1 4460   2.432   1.642   0.919
 1481SOL    HW2 4461   2.410   1.489   0.868
 1482SOL     OW 4462   2.864   0.796   1.238
 1482SOL    HW1 4463   2.905   0.764   1.324
 1482SOL    HW2 4464   2.768   0.769   1.235
 1483SOL     OW 4465   1.902   0.544   1.114
 1483SOL    HW1 4466   1.987   0.511   1.073
 1483SOL    HW2 4467   1.915   0.559   1.212
 1484SOL     OW 4468   2.051   0.520   1.722
 1484SOL    HW1 4469   2.110   0.480   1.652
 1484SOL    HW2 4470   1.993   0.591   1.681
 1485SOL     OW 4471   3.231   0.950   1.660
 1485SOL    HW1 4472   3.270   1.039   1.680
 1485SOL    HW2 4473   3.241   0.930   1.563
 1486SOL     OW 4474   2.677   0.572   0.325
 1486SOL    HW1 4475   2.684   0.483   0.279
 1486SOL    HW2 4476   2.583   0.606   0.317
 1487SOL     OW 4477   3.519   0.604   1.206
 1487SOL    HW1 4478   3.481   0.535   1.268
 1487SOL    HW2 4479   3.601   0.568   1.162
 1488SOL     OW 4480   2.114   1.564   1.744
 1488SOL    HW1 4481   2.084   1.621   1.820
 1488SOL    HW2 4482   2.107   1.467   1.770
 1489SOL     OW 4483   2.533   0.464   1.269
 1489SOL    HW1 4484   2.499   0.375   1.239
 1489SOL    HW2 4485   2.559   0.518   1.189
 1490SOL     OW 4486   2.792   1.678   1.465
 1490SOL    HW1 4487   2.768   1.660   1.370
 1490SOL    HW2 4488   2.822   1.772   1.475
 1491SOL     OW 4489   2.335   0.500   0.191
 1491SOL    HW1 4490   2.396   0.580   0.195
 1491SOL    HW2 4491   2.240   0.531   0.198
 1492SOL     OW 4492   2.021   1.137   1.466
 1492SOL    HW1 4493   2.043   1.076   1.542
 1492SOL    HW2 4494   2.031   1.088   1.380
 1493SOL     OW 4495   3.209   1.059   1.234
 1493SOL    HW1 4496   3.233   0.996   1.160
 1493SOL    HW2 4497   3.119   1.099   1.216
 1494SOL     OW 4498   3.164   0.855   0.309
 1494SOL    HW1 4499   3.078   0.824   0.351
 1494SOL    HW2 4500   3.160   0.841   0.210
 1495SOL     OW 4501   3.621   1.747   1.154
 1495SOL    HW1 4502   3.682   1.777   1.081
 1495SOL    HW2 4503   3.583   1.658   1.132
 1496SOL     OW 4504   3.114   1.731   1.128
 1496SOL    HW1 4505   3.198   1.736   1.074
 1496SOL    HW2 4506   3.091   1.635   1.146
 1497SOL     OW 4507   1.945   1.258   1.022
 1497SOL    HW1 4508   1.940   1.257   1.122
 1497SOL    HW2 4509   1.862   1.217   0.984
 1498SOL     OW 4510   2.550   1.662   1.716
 1498SOL    HW1 4511   2.494   1.743   1.725
 1498SOL    HW2 4512   2.602   1.666   1.630
 1499SOL     OW 4513   2.765   0.086   0.133
 1499SOL    HW1 4514   2.816   0.087   0.047
 1499SOL    HW2 4515   2.821   0.044   0.204
 1500SOL     OW 4516   3.588   0.135   0.523
 1500SOL    HW1 4517   3.661   0.118   0.456
 1500SOL    HW2 4518   3.557   0.048   0.561
 1501SOL     OW 4519   3.250   1.573   0.477
 1501SOL    HW1 4520   3.317   1.585   0.403
 1501SOL    HW2 4521   3.210   1.662   0.500
 1502SOL     OW 4522   1.992   1.794   1.851
 1502SOL    HW1 4523   1.951   1.720   1.904
 1502SOL    HW2 4524   2.056   1.845   1.909
 1503SOL     OW 4525   3.142   0.927   0.672
 1503SOL    HW1 4526   3.202   0.846   0.674
 1503SOL    HW2 4527   3.182   0.996   0.612
 1504SOL     OW 4528   2.692   1.273   1.422
 1504SOL    HW1 4529   2.687   1.306   1.517
 1504SOL    HW2 4530   2.606   1.292   1.376
 1505SOL     OW 4531   2.534   1.616   0.154
 1505SOL    HW1 4532   2.543   1.626   0.055
 1505SOL    HW2 4533   2.494   1.527   0.175
 1506SOL     OW 4534   3.512   1.720   1.394
 1506SOL    HW1 4535   3.565   1.730   1.310
 1506SOL    HW2 4536   3.485   1.810   1.428
 1507SOL     OW 4537   3.703   0.175   0.963
 1507SOL    HW1 4538   3.742   0.090   0.927
 1507SOL    HW2 4539   3.605   0.177   0.944
 1508SOL     OW 4540   2.125   0.326   0.720
 1508SOL    HW1 4541   2.046   0.377   0.686
 1508SOL    HW2 4542   2.116   0.311   0.818
 1509SOL     OW 4543   3.056   1.612   0.031
 1509SOL    HW1 4544   3.062   1.519   0.068
 1509SOL    HW2 4545   2.997   1.612  -0.049
 1510SOL     OW 4546   2.684   1.002   1.372
 1510SOL    HW1 4547   2.724   1.001   1.280
 1510SOL    HW2 4548   2.694   1.094   1.412
 1511SOL     OW 4549   2.778   0.910   0.291
 1511SOL    HW1 4550   2.841   0.948   0.223
 1511SOL    HW2 4551   2.818   0.827   0.330
 1512SOL     OW 4552   3.366   1.607   0.044
 1512SOL    HW1 4553   3.274   1.644   0.051
 1512SOL    HW2 4554   3.404   1.627  -0.046
 1513SOL     OW 4555   2.234   1.288   1.490
 1513SOL    HW1 4556   2.221   1.381   1.456
 1513SOL    HW2 4557   2.150   1.236   1.477
 1514SOL     OW 4558   3.476   1.292   1.289
 1514SOL    HW1 4559   3.536   1.295   1.369
 1514SOL    HW2 4560   3.401   1.356   1.302
 1515SOL     OW 4561   2.901   1.098   0.696
 1515SOL    HW1 4562   2.831   1.051   0.750
 1515SOL    HW2 4563   2.960   1.030   0.653
 1516SOL     OW 4564   2.876   0.236   0.971
 1516SOL    HW1 4565   2.868   0.200   0.878
 1516SOL    HW2 4566   2.874   0.160   1.036
 1517SOL     OW 4567   2.452   1.487   0.491
 1517SOL    HW1 4568   2.494   1.429   0.421
 1517SOL    HW2 4569   2.408   1.566   0.447
 1518SOL     OW 4570   3.571   0.385   1.381
 1518SOL    HW1 4571   3.644   0.454   1.385
 1518SOL    HW2 4572   3.599   0.310   1.322
 1519SOL     OW 4573   2.117   1.348   0.290
 1519SOL    HW1 4574   2.021   1.349   0.263
 1519SOL    HW2 4575   2.129   1.401   0.374
 1520SOL     OW 4576   1.967   1.013   1.726
 1520SOL    HW1 4577   1.890   0.980   1.780
 1520SOL    HW2 4578   2.052   0.983   1.768
 1521SOL     OW 4579   2.534   0.203   1.489
 1521SOL    HW1 4580   2.624   0.187   1.449
 1521SOL    HW2 4581   2.542   0.208   1.588
 1522SOL     OW 4582   3.302   0.856   1.398
 1522SOL    HW1 4583   3.245   0.908   1.335
 1522SOL    HW2 4584   3.398   0.868   1.374
 1523SOL     OW 4585   3.045   1.335   0.119
 1523SOL    HW1 4586   2.946   1.324   0.121
 1523SOL    HW2 4587   3.079   1.350   0.212
 1524SOL     OW 4588   2.475   0.842   1.431
 1524SOL    HW1 4589   2.531   0.923   1.414
 1524SOL    HW2 4590   2.534   0.762   1.434
 1525SOL     OW 4591   3.355   1.767   0.959
 1525SOL    HW1 4592   3.388   1.831   0.890
 1525SOL    HW2 4593   3.421   1.761   1.034
 1526SOL     OW 4594   2.578   0.565   1.708
 1526SOL    HW1 4595   2.597   0.630   1.782
 1526SOL    HW2 4596   2.638   0.485   1.717
 1527SOL     OW 4597   3.312   1.220   1.633
 1527SOL    HW1 4598   3.303   1.210   1.732
 1527SOL    HW2 4599   3.408   1.213   1.607
 1528SOL     OW 4600   2.252   1.741   1.560
 1528SOL    HW1 4601   2.161   1.782   1.558
 1528SOL    HW2 4602   2.245   1.647   1.592
 1529SOL     OW 4603   3.536   0.883   1.254
 1529SOL    HW1 4604   3.509   0.794   1.217
 1529SOL    HW2 4605   3.537   0.951   1.181
 1530SOL     OW 4606   3.087   0.325   0.449
 1530SOL    HW1 4607   3.152   0.251   0.438
 1530SOL    HW2 4608   3.107   0.375   0.533
 1531SOL     OW 4609   2.456   0.745   0.652
 1531SOL    HW1 4610   2.506   0.830   0.633
 1531SOL    HW2 4611   2.368   0.747   0.604
 1532SOL     OW 4612   3.639   0.342   1.642
 1532SOL    HW1 4613   3.622   0.373   1.548
 1532SOL    HW2 4614   3.555   0.305   1.680
 1533SOL     OW 4615   3.592   0.934   1.517
 1533SOL    HW1 4616   3.630   1.025   1.532
 1533SOL    HW2 4617   3.584   0.917   1.418
 1534SOL     OW 4618   2.721   1.374   0.016
 1534SOL    HW1 4619   2.675   1.389   0.104
 1534SOL    HW2 4620   2.765   1.459  -0.014
 1535SOL     OW 4621   2.523   1.790   0.953
 1535SOL    HW1 4622   2.477   1.878   0.940
 1535SOL    HW2 4623   2.622   1.802   0.946
 1536SOL     OW 4624   2.721   0.956   0.861
 1536SOL    HW1 4625   2.775   0.887   0.909
 1536SOL    HW2 4626   2.689   1.025   0.927
 1537SOL     OW 4627   2.945   0.984   0.087
 1537SOL    HW1 4628   2.922   1.037   0.005
 1537SOL    HW2 4629   3.026   0.928   0.068
 1538SOL     OW 4630   3.723   1.569   0.851
 1538SOL    HW1 4631   3.652   1.557   0.781
 1538SOL    HW2 4632   3.724   1.490   0.911
 1539SOL     OW 4633   2.083   1.314   1.844
 1539SOL    HW1 4634   2.018   1.241   1.823
 1539SOL    HW2 4635   2.087   1.328   1.942
 1540SOL     OW 4636   1.941   1.240   0.653
 1540SOL    HW1 4637   1.940   1.193   0.741
 1540SOL    HW2 4638   2.023   1.212   0.602
 1541SOL     OW 4639   2.534   1.391   1.624
 1541SOL    HW1 4640   2.456   1.341   1.662
 1541SOL    HW2 4641   2.531   1.486   1.655
 1542SOL     OW 4642   3.686   0.192   1.227
 1542SOL    HW1 4643   3.682   0.102   1.271
 1542SOL    HW2 4644   3.689   0.181   1.128
 1543SOL     OW 4645   2.290   0.424   0.520
 1543SOL    HW1 4646   2.320   0.352   0.458
 1543SOL    HW2 4647   2.251   0.384   0.603
 1544SOL     OW 4648   3.567   1.487   1.104
 1544SOL    HW1 4649   3.474   1.462   1.077
 1544SOL    HW2 4650   3.593   1.437   1.186
 1545SOL     OW 4651   2.179   0.547   1.280
 1545SOL    HW1 4652   2.217   0.488   1.352
 1545SOL    HW2 4653   2.219   0.521   1.192
 1546SOL     OW 4654   2.674   1.586   0.687
 1546SOL    HW1 4655   2.706   1.596   0.593
 1546SOL    HW2 4656   2.595   1.524   0.689
 1547SOL     OW 4657   3.286   0.214   1.112
 1547SOL    HW1 4658   3.338   0.149   1.167
 1547SOL    HW2 4659   3.237   0.277   1.173
 1548SOL     OW 4660   2.863   0.034   1.154
 1548SOL    HW1 4661   2.800  -0.038   1.123
 1548SOL    HW2 4662   2.956  -0.002   1.154
 1549SOL     OW 4663   2.632   1.330   0.301
 1549SOL    HW1 4664   2.586   1.243   0.318
 1549SOL    HW2 4665   2.723   1.327   0.342
 1550SOL     OW 4666   2.480   1.567   1.284
 1550SOL    HW1 4667   2.475   1.649   1.341
 1550SOL    HW2 4668   2.569   1.564   1.239
 1551SOL     OW 4669   3.214   0.052   0.168
 1551SOL    HW1 4670   3.249   0.011   0.084
 1551SOL    HW2 4671   3.124   0.014   0.188
 1552SOL     OW 4672   3.162   0.453   0.691
 1552SOL    HW1 4673   3.103   0.533   0.695
 1552SOL    HW2 4674   3.177   0.418   0.784
 1553SOL     OW 4675   3.455   0.221   0.882
 1553SOL    HW1 4676   3.371   0.220   0.936
 1553SOL    HW2 4677   3.457   0.304   0.826
 1554SOL     OW 4678   1.901   1.077   0.300
 1554SOL    HW1 4679   2.000   1.066   0.291
 1554SOL    HW2 4680   1.861   0.991   0.332
 1555SOL     OW 4681   2.737   1.646   0.337
 1555SOL    HW1 4682   2.660   1.611   0.283
 1555SOL    HW2 4683   2.705   1.717   0.399
 1556SOL     OW 4684   2.092   0.628   1.975
 1556SOL    HW1 4685   1.999   0.626   2.012
 1556SOL    HW2 4686   2.093   0.589   1.883
 1557SOL     OW 4687   2.087   0.275   2.858
 1557SOL    HW1 4688   2.122   0.258   2.950
 1557SOL    HW2 4689   1.999   0.230   2.846
 1558SOL     OW 4690   1.881   0.368   2.509
 1558SOL    HW1 4691   1.799   0.411   2.548
 1558SOL    HW2 4692   1.853   0.295   2.446
 1559SOL     OW 4693   2.431   1.275   3.027
 1559SOL    HW1 4694   2.338   1.268   2.990
 1559SOL    HW2 4695   2.442   1.364   3.071
 1560SOL     OW 4696   3.417   1.511   2.565
 1560SOL    HW1 4697   3.360   1.495   2.646
 1560SOL    HW2 4698   3.358   1.521   2.485
 1561SOL     OW 4699   2.997   0.703   2.579
 1561SOL    HW1 4700   3.054   0.781   2.554
 1561SOL    HW2 4701   2.937   0.729   2.655
 1562SOL     OW 4702   3.617   0.607   2.093
 1562SOL    HW1 4703   3.605   0.594   1.994
 1562SOL    HW2 4704   3.587   0.526   2.142
 1563SOL     OW 4705   2.630   1.144   2.885
 1563SOL    HW1 4706   2.552   1.161   2.945
 1563SOL    HW2 4707   2.664   1.231   2.849
 1564SOL     OW 4708   2.712   0.798   3.685
 1564SOL    HW1 4709   2.708   0.874   3.750
 1564SOL    HW2 4710   2.734   0.834   3.594
 1565SOL     OW 4711   2.547   1.012   2.527
 1565SOL    HW1 4712   2.616   0.996   2.597
 1565SOL    HW2 4713   2.474   1.069   2.565
 1566SOL     OW 4714   2.548   1.161   3.665
 1566SOL    HW1 4715   2.608   1.240   3.679
 1566SOL    HW2 4716   2.462   1.192   3.624
 1567SOL     OW 4717   2.197   1.435   2.923
 1567SOL    HW1 4718   2.119   1.404   2.870
 1567SOL    HW2 4719   2.255   1.493   2.866
 1568SOL     OW 4720   3.322   1.505   3.201
 1568SOL    HW1 4721   3.346   1.599   3.227
 1568SOL    HW2 4722   3.306   1.451   3.283
 1569SOL     OW 4723   2.300   0.392   3.361
 1569SOL    HW1 4724   2.382   0.336   3.370
 1569SOL    HW2 4725   2.219   0.334   3.365
 1570SOL     OW 4726   3.465   0.447   2.599
 1570SOL    HW1 4727   3.391   0.493   2.549
 1570SOL    HW2 4728   3.516   0.515   2.652
 1571SOL     OW 4729   2.093   1.713   2.345
 1571SOL    HW1 4730   2.127   1.790   2.399
 1571SOL    HW2 4731   2.137   1.713   2.255
 1572SOL     OW 4732   2.989   1.341   3.552
 1572SOL    HW1 4733   3.036   1.341   3.640
 1572SOL    HW2 4734   2.941   1.254   3.541
 1573SOL     OW 4735   2.092   1.434   2.400
 1573SOL    HW1 4736   2.066   1.530   2.400
 1573SOL    HW2 4737   2.021   1.380   2.445
 1574SOL     OW 4738   2.102   1.091   2.748
 1574SOL    HW1 4739   2.116   1.007   2.800
 1574SOL    HW2 4740   2.047   1.155   2.803
 1575SOL     OW 4741   2.482   1.786   3.301
 1575SOL    HW1 4742   2.390   1.769   3.336
 1575SOL    HW2 4743   2.510   1.878   3.327
 1576SOL     OW 4744   2.468   0.964   1.985
 1576SOL    HW1 4745   2.475   1.048   1.931
 1576SOL    HW2 4746   2.514   0.977   2.073
 1577SOL     OW 4747   3.456   0.114   3.342
 1577SOL    HW1 4748   3.438   0.181   3.270
 1577SOL    HW2 4749   3.453   0.160   3.431
 1578SOL     OW 4750   1.984   0.643   2.425
 1578SOL    HW1 4751   1.939   0.555   2.442
 1578SOL    HW2 4752   1.983   0.697   2.509
 1579SOL     OW 4753   3.704   1.767   2.221
 1579SOL    HW1 4754   3.758   1.738   2.301
 1579SOL    HW2 4755   3.734   1.857   2.192
 1580SOL     OW 4756   1.889   1.596   1.979
 1580SOL    HW1 4757   1.870   1.500   2.000
 1580SOL    HW2 4758   1.856   1.654   2.054
 1581SOL     OW 4759   3.551   0.922   2.474
 1581SOL    HW1 4760   3.646   0.893   2.482
 1581SOL    HW2 4761   3.543   0.987   2.399
 1582SOL     OW 4762   3.503   1.108   2.294
 1582SOL    HW1 4763   3.589   1.110   2.242
 1582SOL    HW2 4764   3.517   1.155   2.382
 1583SOL     OW 4765   1.975   0.737   3.459
 1583SOL    HW1 4766   2.063   0.724   3.504
 1583SOL    HW2 4767   1.962   0.834   3.437
 1584SOL     OW 4768   2.475   1.365   2.588
 1584SOL    HW1 4769   2.426   1.278   2.597
 1584SOL    HW2 4770   2.452   1.408   2.501
 1585SOL     OW 4771   3.155   1.228   3.285
 1585SOL    HW1 4772   3.192   1.155   3.227
 1585SOL    HW2 4773   3.207   1.233   3.370
 1586SOL     OW 4774   2.671   0.004   2.364
 1586SOL    HW1 4775   2.711   0.095   2.355
 1586SOL    HW2 4776   2.571   0.012   2.370
 1587SOL     OW 4777   2.059   0.976   3.126
 1587SOL    HW1 4778   2.148   0.931   3.112
 1587SOL    HW2 4779   1.986   0.911   3.107
 1588SOL     OW 4780   3.387   0.999   2.052
 1588SOL    HW1 4781   3.324   0.923   2.065
 1588SOL    HW2 4782   3.435   1.017   2.138
 1589SOL     OW 4783   3.049   1.792   3.478
 1589SOL    HW1 4784   3.073   1.852   3.402
 1589SOL    HW2 4785   3.056   1.697   3.448
 1590SOL     OW 4786   2.179   0.251   3.663
 1590SOL    HW1 4787   2.250   0.322   3.669
 1590SOL    HW2 4788   2.091   0.290   3.691
 1591SOL     OW 4789   3.328   1.417   2.815
 1591SOL    HW1 4790   3.269   1.423   2.895
 1591SOL    HW2 4791   3.313   1.329   2.769
 1592SOL     OW 4792   3.529   1.714   2.434
 1592SOL    HW1 4793   3.488   1.691   2.346
 1592SOL    HW2 4794   3.511   1.640   2.499
 1593SOL     OW 4795   2.460   0.729   2.132
 1593SOL    HW1 4796   2.484   0.798   2.064
 1593SOL    HW2 4797   2.382   0.762   2.186
 1594SOL     OW 4798   3.143   0.345   2.806
 1594SOL    HW1 4799   3.057   0.295   2.793
 1594SOL    HW2 4800   3.205   0.291   2.862
 1595SOL     OW 4801   3.438   1.662   2.169
 1595SOL    HW1 4802   3.527   1.708   2.172
 1595SOL    HW2 4803   3.417   1.638   2.074
 1596SOL     OW 4804   2.669   0.605   3.327
 1596SOL    HW1 4805   2.622   0.602   3.416
 1596SOL    HW2 4806   2.618   0.550   3.261
 1597SOL     OW 4807   3.256   0.469   3.536
 1597SOL    HW1 4808   3.236   0.512   3.624
 1597SOL    HW2 4809   3.334   0.407   3.545
 1598SOL     OW 4810   2.835   0.890   3.434
 1598SOL    HW1 4811   2.881   0.806   3.405
 1598SOL    HW2 4812   2.779   0.924   3.359
 1599SOL     OW 4813   2.853   0.410   3.104
 1599SOL    HW1 4814   2.776   0.444   3.158
 1599SOL    HW2 4815   2.819   0.359   3.025
 1600SOL     OW 4816   2.903   0.701   2.291
 1600SOL    HW1 4817   2.929   0.697   2.387
 1600SOL    HW2 4818   2.818   0.650   2.277
 1601SOL     OW 4819   1.938   0.811   2.651
 1601SOL    HW1 4820   2.037   0.799   2.660
 1601SOL    HW2 4821   1.914   0.906   2.672
 1602SOL     OW 4822   1.992   1.821   3.433
 1602SOL    HW1 4823   1.982   1.806   3.532
 1602SOL    HW2 4824   1.906   1.857   3.397
 1603SOL     OW 4825   2.727   0.348   2.057
 1603SOL    HW1 4826   2.786   0.411   2.008
 1603SOL    HW2 4827   2.746   0.254   2.028
 1604SOL     OW 4828   3.581   0.585   3.693
 1604SOL    HW1 4829   3.555   0.674   3.657
 1604SOL    HW2 4830   3.579   0.517   3.620
 1605SOL     OW 4831   3.224   1.144   2.407
 1605SOL    HW1 4832   3.307   1.115   2.359
 1605SOL    HW2 4833   3.175   1.211   2.351
 1606SOL     OW 4834   2.412   0.196   2.747
 1606SOL    HW1 4835   2.407   0.191   2.847
 1606SOL    HW2 4836   2.414   0.292   2.718
 1607SOL     OW 4837   2.870   1.456   2.339
 1607SOL    HW1 4838   2.824   1.528   2.287
 1607SOL    HW2 4839   2.866   1.476   2.437
 1608SOL     OW 4840   2.213   1.801   2.715
 1608SOL    HW1 4841   2.263   1.715   2.721
 1608SOL    HW2 4842   2.278   1.878   2.712
 1609SOL     OW 4843   3.657   1.066   2.735
 1609SOL    HW1 4844   3.595   1.051   2.659
 1609SOL    HW2 4845   3.605   1.077   2.820
 1610SOL     OW 4846   3.089   1.550   3.368
 1610SOL    HW1 4847   3.095   1.473   3.432
 1610SOL    HW2 4848   3.037   1.524   3.288
 1611SOL     OW 4849   2.183   0.943   2.104
 1611SOL    HW1 4850   2.265   0.982   2.062
 1611SOL    HW2 4851   2.156   0.861   2.055
 1612SOL     OW 4852   3.320   0.735   2.590
 1612SOL    HW1 4853   3.315   0.670   2.665
 1612SOL    HW2 4854   3.400   0.794   2.603
 1613SOL     OW 4855   2.323   1.266   3.589
 1613SOL    HW1 4856   2.273   1.267   3.503
 1613SOL    HW2 4857   2.260   1.248   3.665
 1614SOL     OW 4858   2.973   1.776   2.099
 1614SOL    HW1 4859   2.913   1.714   2.149
 1614SOL    HW2 4860   3.004   1.732   2.014
 1615SOL     OW 4861   2.064   0.285   3.360
 1615SOL    HW1 4862   1.984   0.345   3.347
 1615SOL    HW2 4863   2.054   0.236   3.446
 1616SOL     OW 4864   3.494   1.377   1.943
 1616SOL    HW1 4865   3.462   1.471   1.933
 1616SOL    HW2 4866   3.418   1.314   1.931
 1617SOL     OW 4867   2.326   1.743   2.185
 1617SOL    HW1 4868   2.359   1.782   2.271
 1617SOL    HW2 4869   2.402   1.736   2.120
 1618SOL     OW 4870   3.262   0.107   2.288
 1618SOL    HW1 4871   3.238   0.070   2.198
 1618SOL    HW2 4872   3.361   0.123   2.292
 1619SOL     OW 4873   2.111   1.785   3.103
 1619SOL    HW1 4874   2.168   1.720   3.153
 1619SOL    HW2 4875   2.095   1.752   3.010
 1620SOL     OW 4876   2.802   1.698   2.766
 1620SOL    HW1 4877   2.882   1.641   2.787
 1620SOL    HW2 4878   2.753   1.658   2.689
 1621SOL     OW 4879   2.244   0.700   2.342
 1621SOL    HW1 4880   2.289   0.610   2.339
 1621SOL    HW2 4881   2.150   0.689   2.375
 1622SOL     OW 4882   3.409   0.222   3.591
 1622SOL    HW1 4883   3.404   0.259   3.683
 1622SOL    HW2 4884   3.337   0.153   3.579
 1623SOL     OW 4885   2.476   0.122   1.979
 1623SOL    HW1 4886   2.574   0.100   1.986
 1623SOL    HW2 4887   2.445   0.105   1.886
 1624SOL     OW 4888   2.643   0.264   3.611
 1624SOL    HW1 4889   2.710   0.203   3.654
 1624SOL    HW2 4890   2.570   0.283   3.676
 1625SOL     OW 4891   2.750   1.514   3.057
 1625SOL    HW1 4892   2.727   1.489   2.963
 1625SOL    HW2 4893   2.811   1.445   3.096
 1626SOL     OW 4894   3.213   0.590   3.295
 1626SOL    HW1 4895   3.241   0.547   3.380
 1626SOL    HW2 4896   3.238   0.686   3.296
 1627SOL     OW 4897   2.665   1.402   2.786
 1627SOL    HW1 4898   2.755   1.416   2.744
 1627SOL    HW2 4899   2.594   1.404   2.715
 1628SOL     OW 4900   2.784   0.503   2.761
 1628SOL    HW1 4901   2.759   0.494   2.665
 1628SOL    HW2 4902   2.832   0.421   2.792
 1629SOL     OW 4903   2.401   0.064   2.374
 1629SOL    HW1 4904   2.320   0.065   2.432
 1629SOL    HW2 4905   2.404   0.147   2.319
 1630SOL     OW 4906   3.296   1.188   1.903
 1630SOL    HW1 4907   3.328   1.112   1.960
 1630SOL    HW2 4908   3.204   1.215   1.933
 1631SOL     OW 4909   2.159   0.035   2.033
 1631SOL    HW1 4910   2.208   0.119   2.012
 1631SOL    HW2 4911   2.221  -0.030   2.078
 1632SOL     OW 4912   2.797   0.236   2.342
 1632SOL    HW1 4913   2.749   0.277   2.264
 1632SOL    HW2 4914   2.896   0.234   2.323
 1633SOL     OW 4915   2.938   0.683   3.326
 1633SOL    HW1 4916   2.858   0.622   3.329
 1633SOL    HW2 4917   3.019   0.630   3.302
 1634SOL     OW 4918   3.089   1.570   2.655
 1634SOL    HW1 4919   3.110   1.644   2.590
 1634SOL    HW2 4920   3.157   1.570   2.728
 1635SOL     OW 4921   2.321   1.152   2.603
 1635SOL    HW1 4922   2.250   1.125   2.668
 1635SOL    HW2 4923   2.295   1.124   2.510
 1636SOL     OW 4924   3.133   1.797   2.453
 1636SOL    HW1 4925   3.177   1.861   2.389
 1636SOL    HW2 4926   3.083   1.849   2.523
 1637SOL     OW 4927   2.894   0.549   1.878
 1637SOL    HW1 4928   2.853   0.631   1.839
 1637SOL    HW2 4929   2.958   0.575   1.951
 1638SOL     OW 4930   1.940   0.556   3.248
 1638SOL    HW1 4931   2.032   0.555   3.207
 1638SOL    HW2 4932   1.934   0.630   3.315
 1639SOL     OW 4933   2.423   0.222   3.009
 1639SOL    HW1 4934   2.461   0.138   3.046
 1639SOL    HW2 4935   2.335   0.241   3.053
 1640SOL     OW 4936   2.728   0.454   2.504
 1640SOL    HW1 4937   2.696   0.526   2.442
 1640SOL    HW2 4938   2.752   0.373   2.451
 1641SOL     OW 4939   2.879   0.039   2.615
 1641SOL    HW1 4940   2.807   0.044   2.546
 1641SOL    HW2 4941   2.855  -0.030   2.684
 1642SOL     OW 4942   3.291   1.173   2.729
 1642SOL    HW1 4943   3.236   1.089   2.722
 1642SOL    HW2 4944   3.317   1.202   2.637
 1643SOL     OW 4945   3.328   0.590   2.854
 1643SOL    HW1 4946   3.298   0.495   2.861
 1643SOL    HW2 4947   3.401   0.606   2.920
 1644SOL     OW 4948   3.719   0.833   2.239
 1644SOL    HW1 4949   3.761   0.769   2.303
 1644SOL    HW2 4950   3.681   0.782   2.161
 1645SOL     OW 4951   2.350   1.385   2.036
 1645SOL    HW1 4952   2.263   1.370   2.083
 1645SOL    HW2 4953   2.333   1.411   1.941
 1646SOL     OW 4954   3.526   1.280   2.519
 1646SOL    HW1 4955   3.625   1.288   2.533
 1646SOL    HW2 4956   3.481   1.364   2.550
 1647SOL     OW 4957   3.252   0.575   1.940
 1647SOL    HW1 4958   3.198   0.554   2.021
 1647SOL    HW2 4959   3.343   0.534   1.949
 1648SOL     OW 4960   2.389   0.256   2.190
 1648SOL    HW1 4961   2.416   0.197   2.115
 1648SOL    HW2 4962   2.389   0.351   2.159
 1649SOL     OW 4963   3.616   1.223   3.450
 1649SOL    HW1 4964   3.707   1.184   3.437
 1649SOL    HW2 4965   3.624   1.319   3.474
 1650SOL     OW 4966   2.926   1.347   3.202
 1650SOL    HW1 4967   2.846   1.324   3.257
 1650SOL    HW2 4968   3.009   1.321   3.251
 1651SOL     OW 4969   3.454   1.629   3.487
 1651SOL    HW1 4970   3.481   1.663   3.397
 1651SOL    HW2 4971   3.533   1.591   3.533
 1652SOL     OW 4972   2.973   1.195   2.962
 1652SOL    HW1 4973   2.933   1.239   3.043
 1652SOL    HW2 4974   2.932   1.232   2.879
 1653SOL     OW 4975   3.500   1.099   2.941
 1653SOL    HW1 4976   3.505   1.180   3.000
 1653SOL    HW2 4977   3.414   1.101   2.890
 1654SOL     OW 4978   2.777   0.089   3.264
 1654SOL    HW1 4979   2.802   0.069   3.169
 1654SOL    HW2 4980   2.849   0.145   3.306
 1655SOL     OW 4981   2.842   1.116   3.581
 1655SOL    HW1 4982   2.743   1.122   3.591
 1655SOL    HW2 4983   2.865   1.036   3.525
 1656SOL     OW 4984   2.567   1.050   2.230
 1656SOL    HW1 4985   2.553   1.057   2.329
 1656SOL    HW2 4986   2.651   0.999   2.212
 1657SOL     OW 4987   2.272   0.813   3.113
 1657SOL    HW1 4988   2.358   0.825   3.163
 1657SOL    HW2 4989   2.230   0.726   3.140
 1658SOL     OW 4990   3.136   0.386   3.124
 1658SOL    HW1 4991   3.157   0.460   3.188
 1658SOL    HW2 4992   3.047   0.403   3.081
 1659SOL     OW 4993   1.926   1.564   3.193
 1659SOL    HW1 4994   1.880   1.646   3.159
 1659SOL    HW2 4995   2.024   1.583   3.202
 1660SOL     OW 4996   2.229   1.100   2.363
 1660SOL    HW1 4997   2.222   1.183   2.307
 1660SOL    HW2 4998   2.233   1.020   2.303
 1661SOL     OW 4999   2.428   0.537   2.727
 1661SOL    HW1 5000   2.440   0.603   2.653
 1661SOL    HW2 5001   2.474   0.571   2.810
 1662SOL     OW 5002   3.114   1.348   2.250
 1662SOL    HW1 5003   3.164   1.425   2.290
 1662SOL    HW2 5004   3.019   1.350   2.282
 1663SOL     OW 5005   3.134   1.445   3.004
 1663SOL    HW1 5006   3.181   1.458   3.091
 1663SOL    HW2 5007   3.068   1.371   3.013
 1664SOL     OW 5008   3.444   0.639   2.334
 1664SOL    HW1 5009   3.413   0.700   2.407
 1664SOL    HW2 5010   3.494   0.691   2.265
 1665SOL     OW 5011   2.216   1.510   3.191
 1665SOL    HW1 5012   2.195   1.466   3.104
 1665SOL    HW2 5013   2.313   1.536   3.194
 1666SOL     OW 5014   2.264   0.751   3.460
 1666SOL    HW1 5015   2.332   0.806   3.413
 1666SOL    HW2 5016   2.304   0.663   3.487
 1667SOL     OW 5017   3.449   0.779   3.532
 1667SOL    HW1 5018   3.357   0.817   3.527
 1667SOL    HW2 5019   3.509   0.826   3.467
 1668SOL     OW 5020   2.875   0.105   3.632
 1668SOL    HW1 5021   2.881   0.190   3.580
 1668SOL    HW2 5022   2.907   0.029   3.575
 1669SOL     OW 5023   2.366   0.050   3.602
 1669SOL    HW1 5024   2.324  -0.007   3.532
 1669SOL    HW2 5025   2.300   0.119   3.634
 1670SOL     OW 5026   2.435   0.870   2.891
 1670SOL    HW1 5027   2.479   0.959   2.882
 1670SOL    HW2 5028   2.372   0.870   2.968
 1671SOL     OW 5029   3.222   0.862   2.907
 1671SOL    HW1 5030   3.147   0.862   2.841
 1671SOL    HW2 5031   3.259   0.770   2.916
 1672SOL     OW 5032   3.071   0.525   2.137
 1672SOL    HW1 5033   3.084   0.441   2.191
 1672SOL    HW2 5034   3.042   0.599   2.197
 1673SOL     OW 5035   2.169   0.213   3.093
 1673SOL    HW1 5036   2.146   0.250   3.183
 1673SOL    HW2 5037   2.139   0.118   3.087
 1674SOL     OW 5038   1.899   1.310   3.144
 1674SOL    HW1 5039   1.952   1.261   3.212
 1674SOL    HW2 5040   1.921   1.408   3.149
 1675SOL     OW 5041   2.594   0.634   2.926
 1675SOL    HW1 5042   2.653   0.608   2.850
 1675SOL    HW2 5043   2.566   0.730   2.915
 1676SOL     OW 5044   3.590   0.935   3.716
 1676SOL    HW1 5045   3.544   0.928   3.627
 1676SOL    HW2 5046   3.528   0.979   3.782
 1677SOL     OW 5047   2.169   0.063   2.480
 1677SOL    HW1 5048   2.158   0.157   2.513
 1677SOL    HW2 5049   2.164   0.000   2.557
 1678SOL     OW 5050   3.484   0.367   2.236
 1678SOL    HW1 5051   3.486   0.291   2.300
 1678SOL    HW2 5052   3.436   0.444   2.276
 1679SOL     OW 5053   2.885   0.766   2.828
 1679SOL    HW1 5054   2.900   0.787   2.924
 1679SOL    HW2 5055   2.855   0.671   2.819
 1680SOL     OW 5056   2.842   1.573   3.562
 1680SOL    HW1 5057   2.822   1.617   3.474
 1680SOL    HW2 5058   2.881   1.482   3.546
 1681SOL     OW 5059   3.721   1.518   3.467
 1681SOL    HW1 5060   3.735   1.545   3.372
 1681SOL    HW2 5061   3.804   1.540   3.520
 1682SOL     OW 5062   2.212   0.898   3.666
 1682SOL    HW1 5063   2.288   0.942   3.714
 1682SOL    HW2 5064   2.247   0.851   3.584
 1683SOL     OW 5065   3.402   0.274   1.987
 1683SOL    HW1 5066   3.341   0.199   2.010
 1683SOL    HW2 5067   3.424   0.326   2.070
 1684SOL     OW 5068   3.165   0.838   1.904
 1684SOL    HW1 5069   3.199   0.745   1.919
 1684SOL    HW2 5070   3.183   0.865   1.809
 1685SOL     OW 5071   2.930   1.333   2.711
 1685SOL    HW1 5072   2.937   1.249   2.656
 1685SOL    HW2 5073   2.992   1.402   2.675
 1686SOL     OW 5074   2.181   0.810   2.811
 1686SOL    HW1 5075   2.274   0.846   2.816
 1686SOL    HW2 5076   2.175   0.725   2.863
 1687SOL     OW 5077   2.201   0.509   2.868
 1687SOL    HW1 5078   2.149   0.426   2.851
 1687SOL    HW2 5079   2.278   0.514   2.804
 1688SOL     OW 5080   3.000   0.380   3.540
 1688SOL    HW1 5081   2.955   0.443   3.604
 1688SOL    HW2 5082   3.093   0.411   3.523
 1689SOL     OW 5083   3.022   0.207   3.339
 1689SOL    HW1 5084   3.022   0.271   3.416
 1689SOL    HW2 5085   3.050   0.255   3.256
 1690SOL     OW 5086   1.870   1.326   2.062
 1690SOL    HW1 5087   1.777   1.347   2.031
 1690SOL    HW2 5088   1.880   1.227   2.075
 1691SOL     OW 5089   1.950   1.801   2.789
 1691SOL    HW1 5090   1.908   1.715   2.762
 1691SOL    HW2 5091   2.044   1.804   2.755
 1692SOL     OW 5092   2.366   1.568   2.772
 1692SOL    HW1 5093   2.432   1.642   2.781
 1692SOL    HW2 5094   2.410   1.489   2.730
 1693SOL     OW 5095   2.864   0.796   3.100
 1693SOL    HW1 5096   2.905   0.764   3.186
 1693SOL    HW2 5097   2.768   0.769   3.097
 1694SOL     OW 5098   1.902   0.544   2.976
 1694SOL    HW1 5099   1.987   0.511   2.935
 1694SOL    HW2 5100   1.915   0.559   3.074
 1695SOL     OW 5101   2.051   0.520   3.584
 1695SOL    HW1 5102   2.110   0.480   3.514
 1695SOL    HW2 5103   1.993   0.591   3.543
 1696SOL     OW 5104   3.231   0.950   3.522
 1696SOL    HW1 5105   3.270   1.039   3.542
 1696SOL    HW2 5106   3.241   0.930   3.425
 1697SOL     OW 5107   2.677   0.572   2.187
 1697SOL    HW1 5108   2.684   0.483   2.141
 1697SOL    HW2 5109   2.583   0.606   2.179
 1698SOL     OW 5110   3.519   0.604   3.068
 1698SOL    HW1 5111   3.481   0.535   3.130
 1698SOL    HW2 5112   3.601   0.568   3.024
 1699SOL     OW 5113   2.114   1.564   3.606
 1699SOL    HW1 5114   2.084   1.621   3.682
 1699SOL    HW2 5115   2.107   1.467   3.632
 1700SOL     OW 5116   2.533   0.464   3.131
 1700SOL    HW1 5117   2.499   0.375   3.101
 1700SOL    HW2 5118   2.559   0.518   3.051
 1701SOL     OW 5119   2.792   1.678   3.327
 1701SOL    HW1 5120   2.768   1.660   3.232
 1701SOL    HW2 5121   2.822   1.772   3.337
 1702SOL     OW 5122   2.335   0.500   2.053
 1702SOL    HW1 5123   2.396   0.580   2.057
 1702SOL    HW2 5124   2.240   0.531   2.060
 1703SOL     OW 5125   2.021   1.137   3.328
 1703SOL    HW1 5126   2.043   1.076   3.404
 1703SOL    HW2 5127   2.031   1.088   3.242
 1704SOL     OW 5128   3.209   1.059   3.096
 1704SOL    HW1 5129   3.233   0.996   3.022
 1704SOL    HW2 5130   3.119   1.099   3.078
 1705SOL     OW 5131   3.164   0.855   2.171
 1705SOL    HW1 5132   3.078   0.824   2.213
 1705SOL    HW2 5133   3.160   0.841   2.072
 1706SOL     OW 5134   3.621   1.747   3.016
 1706SOL    HW1 5135   3.682   1.777   2.943
 1706SOL    HW2 5136   3.583   1.658   2.994
 1707SOL     OW 5137   3.114   1.731   2.990
 1707SOL    HW1 5138   3.198   1.736   2.936
 1707SOL    HW2 5139   3.091   1.635   3.008
 1708SOL     OW 5140   1.945   1.258   2.884
 1708SOL    HW1 5141   1.940   1.257   2.984
 1708SOL    HW2 5142   1.862   1.217   2.846
 1709SOL     OW 5143   2.550   1.662   3.578
 1709SOL    HW1 5144   2.494   1.743   3.587
 1709SOL    HW2 5145   2.602   1.666   3.492
 1710SOL     OW 5146   3.588   0.135   2.385
 1710SOL    HW1 5147   3.661   0.118   2.318
 1710SOL    HW2 5148   3.557   0.048   2.423
 1711SOL     OW 5149   3.250   1.573   2.339
 1711SOL    HW1 5150   3.317   1.585   2.265
 1711SOL    HW2 5151   3.210   1.662   2.362
 1712SOL     OW 5152   1.992   1.794   3.713
 1712SOL    HW1 5153   1.951   1.720   3.766
 1712SOL    HW2 5154   2.056   1.845   3.771
 1713SOL     OW 5155   3.142   0.927   2.534
 1713SOL    HW1 5156   3.202   0.846   2.536
 1713SOL    HW2 5157   3.182   0.996   2.474
 1714SOL     OW 5158   2.692   1.273   3.284
 1714SOL    HW1 5159   2.687   1.306   3.379
 1714SOL    HW2 5160   2.606   1.292   3.238
 1715SOL     OW 5161   2.534   1.616   2.016
 1715SOL    HW1 5162   2.543   1.626   1.917
 1715SOL    HW2 5163   2.494   1.527   2.037
 1716SOL     OW 5164   3.512   1.720   3.256
 1716SOL    HW1 5165   3.565   1.730   3.172
 1716SOL    HW2 5166   3.485   1.810   3.290
 1717SOL     OW 5167   3.703   0.175   2.825
 1717SOL    HW1 5168   3.742   0.090   2.789
 1717SOL    HW2 5169   3.605   0.177   2.806
 1718SOL     OW 5170   2.125   0.326   2.582
 1718SOL    HW1 5171   2.046   0.377   2.548
 1718SOL    HW2 5172   2.116   0.311   2.680
 1719SOL     OW 5173   3.056   1.612   1.893
 1719SOL    HW1 5174   3.062   1.519   1.930
 1719SOL    HW2 5175   2.997   1.612   1.813
 1720SOL     OW 5176   2.684   1.002   3.234
 1720SOL    HW1 5177   2.724   1.001   3.142
 1720SOL    HW2 5178   2.694   1.094   3.274
 1721SOL     OW 5179   2.778   0.910   2.153
 1721SOL    HW1 5180   2.841   0.948   2.085
 1721SOL    HW2 5181   2.818   0.827   2.192
 1722SOL     OW 5182   3.366   1.607   1.906
 1722SOL    HW1 5183   3.274   1.644   1.913
 1722SOL    HW2 5184   3.404   1.627   1.816
 1723SOL     OW 5185   2.234   1.288   3.352
 1723SOL    HW1 5186   2.221   1.381   3.318
 1723SOL    HW2 5187   2.150   1.236   3.339
 1724SOL     OW 5188   3.476   1.292   3.151
 1724SOL    HW1 5189   3.536   1.295   3.231
 1724SOL    HW2 5190   3.401   1.356   3.164
 1725SOL     OW 5191   2.901   1.098   2.558
 1725SOL    HW1 5192   2.831   1.051   2.612
 1725SOL    HW2 5193   2.960   1.030   2.515
 1726SOL     OW 5194   2.876   0.236   2.833
 1726SOL    HW1 5195   2.868   0.200   2.740
 1726SOL    HW2 5196   2.874   0.160   2.898
 1727SOL     OW 5197   2.452   1.487   2.353
 1727SOL    HW1 5198   2.494   1.429   2.283
 1727SOL    HW2 5199   2.408   1.566   2.309
 1728SOL     OW 5200   3.571   0.385   3.243
 1728SOL    HW1 5201   3.644   0.454   3.247
 1728SOL    HW2 5202   3.599   0.310   3.184
 1729SOL     OW 5203   2.117   1.348   2.152
 1729SOL    HW1 5204   2.021   1.349   2.125
 1729SOL    HW2 5205   2.129   1.401   2.236
 1730SOL     OW 5206   1.967   1.013   3.588
 1730SOL    HW1 5207   1.890   0.980   3.642
 1730SOL    HW2 5208   2.052   0.983   3.630
 1731SOL     OW 5209   2.534   0.203   3.351
 1731SOL    HW1 5210   2.624   0.187   3.311
 1731SOL    HW2 5211   2.542   0.208   3.450
 1732SOL     OW 5212   1.937   0.345   1.895
 1732SOL    HW1 5213   1.845   0.317   1.866
 1732SOL    HW2 5214   1.968   0.422   1.839
 1733SOL     OW 5215   3.302   0.856   3.260
 1733SOL    HW1 5216   3.245   0.908   3.197
 1733SOL    HW2 5217   3.398   0.868   3.236
 1734SOL     OW 5218   1.934   0.166   2.180
 1734SOL    HW1 5219   1.917   0.249   2.126
 1734SOL    HW2 5220   2.024   0.129   2.158
 1735SOL     OW 5221   3.045   1.335   1.981
 1735SOL    HW1 5222   2.946   1.324   1.983
 1735SOL    HW2 5223   3.079   1.350   2.074
 1736SOL     OW 5224   2.475   0.842   3.293
 1736SOL    HW1 5225   2.531   0.923   3.276
 1736SOL    HW2 5226   2.534   0.762   3.296
 1737SOL     OW 5227   3.355   1.767   2.821
 1737SOL    HW1 5228   3.388   1.831   2.752
 1737SOL    HW2 5229   3.421   1.761   2.896
 1738SOL     OW 5230   2.578   0.565   3.570
 1738SOL    HW1 5231   2.597   0.630   3.644
 1738SOL    HW2 5232   2.638   0.485   3.579
 1739SOL     OW 5233   3.312   1.220   3.495
 1739SOL    HW1 5234   3.303   1.210   3.594
 1739SOL    HW2 5235   3.408   1.213   3.469
 1740SOL     OW 5236   2.252   1.741   3.422
 1740SOL    HW1 5237   2.161   1.782   3.420
 1740SOL    HW2 5238   2.245   1.647   3.454
 1741SOL     OW 5239   3.536   0.883   3.116
 1741SOL    HW1 5240   3.509   0.794   3.079
 1741SOL    HW2 5241   3.537   0.951   3.043
 1742SOL     OW 5242   3.087   0.325   2.311
 1742SOL    HW1 5243   3.152   0.251   2.300
 1742SOL    HW2 5244   3.107   0.375   2.395
 1743SOL     OW 5245   2.456   0.745   2.514
 1743SOL    HW1 5246   2.506   0.830   2.495
 1743SOL    HW2 5247   2.368   0.747   2.466
 1744SOL     OW 5248   3.639   0.342   3.504
 1744SOL    HW1 5249   3.622   0.373   3.410
 1744SOL    HW2 5250   3.555   0.305   3.542
 1745SOL     OW 5251   3.592   0.934   3.379
 1745SOL    HW1 5252   3.630   1.025   3.394
 1745SOL    HW2 5253   3.584   0.917   3.280
 1746SOL     OW 5254   2.721   1.374   1.878
 1746SOL    HW1 5255   2.675   1.389   1.966
 1746SOL    HW2 5256   2.765   1.459   1.848
 1747SOL     OW 5257   2.523   1.790   2.815
 1747SOL    HW1 5258   2.477   1.878   2.802
 1747SOL    HW2 5259   2.622   1.802   2.808
 1748SOL     OW 5260   2.721   0.956   2.723
 1748SOL    HW1 5261   2.775   0.887   2.771
 1748SOL    HW2 5262   2.689   1.025   2.789
 1749SOL     OW 5263   2.945   0.984   1.949
 1749SOL    HW1 5264   2.922   1.037   1.867
 1749SOL    HW2 5265   3.026   0.928   1.930
 1750SOL     OW 5266   3.723   1.569   2.713
 1750SOL    HW1 5267   3.652   1.557   2.643
 1750SOL    HW2 5268   3.724   1.490   2.773
 1751SOL     OW 5269   2.083   1.314   3.706
 1751SOL    HW1 5270   2.018   1.241   3.685
 1751SOL    HW2 5271   2.087   1.328   3.804
 1752SOL     OW 5272   1.941   1.240   2.515
 1752SOL    HW1 5273   1.940   1.193   2.603
 1752SOL    HW2 5274   2.023   1.212   2.464
 1753SOL     OW 5275   2.534   1.391   3.486
 1753SOL    HW1 5276   2.456   1.341   3.524
 1753SOL    HW2 5277   2.531   1.486   3.517
 1754SOL     OW 5278   3.686   0.192   3.089
 1754SOL    HW1 5279   3.682   0.102   3.133
 1754SOL    HW2 5280   3.689   0.181   2.990
 1755SOL     OW 5281   2.290   0.424   2.382
 1755SOL    HW1 5282   2.320   0.352   2.320
 1755SOL    HW2 5283   2.251   0.384   2.465
 1756SOL     OW 5284   3.567   1.487   2.966
 1756SOL    HW1 5285   3.474   1.462   2.939
 1756SOL    HW2 5286   3.593   1.437   3.048
 1757SOL     OW 5287   2.179   0.547   3.142
 1757SOL    HW1 5288   2.217   0.488   3.214
 1757SOL    HW2 5289   2.219   0.521   3.054
 1758SOL     OW 5290   2.674   1.586   2.549
 1758SOL    HW1 5291   2.706   1.596   2.455
 1758SOL    HW2 5292   2.595   1.524   2.551
 1759SOL     OW 5293   3.286   0.214   2.974
 1759SOL    HW1 5294   3.338   0.149   3.029
 1759SOL    HW2 5295   3.237   0.277   3.035
 1760SOL     OW 5296   2.863   0.034   3.016
 1760SOL    HW1 5297   2.800  -0.038   2.985
 1760SOL    HW2 5298   2.956  -0.002   3.016
 1761SOL     OW 5299   2.632   1.330   2.163
 1761SOL    HW1 5300   2.586   1.243   2.180
 1761SOL    HW2 5301   2.723   1.327   2.204
 1762SOL     OW 5302   2.480   1.567   3.146
 1762SOL    HW1 5303   2.475   1.649   3.203
 1762SOL    HW2 5304   2.569   1.564   3.101
 1763SOL     OW 5305   3.214   0.052   2.030
 1763SOL    HW1 5306   3.249   0.011   1.946
 1763SOL    HW2 5307   3.124   0.014   2.050
 1764SOL     OW 5308   3.162   0.453   2.553
 1764SOL    HW1 5309   3.103   0.533   2.557
 1764SOL    HW2 5310   3.177   0.418   2.646
 1765SOL     OW 5311   3.455   0.221   2.744
 1765SOL    HW1 5312   3.371   0.220   2.798
 1765SOL    HW2 5313   3.457   0.304   2.688
 1766SOL     OW 5314   1.901   1.077   2.162
 1766SOL    HW1 5315   2.000   1.066   2.153
 1766SOL    HW2 5316   1.861   0.991   2.194
 1767SOL     OW 5317   2.737   1.646   2.199
 1767SOL    HW1 5318   2.660   1.611   2.145
 1767SOL    HW2 5319   2.705   1.717   2.261
 1768SOL     OW 5320   2.092   0.628   3.837
 1768SOL    HW1 5321   1.999   0.626   3.874
 1768SOL    HW2 5322   2.093   0.589   3.745
 1769SOL     OW 5323   2.087   0.275   4.720
 1769SOL    HW1 5324   2.122   0.258   4.812
 1769SOL    HW2 5325   1.999   0.230   4.708
 1770SOL     OW 5326   1.881   0.368   4.371
 1770SOL    HW1 5327   1.799   0.411   4.410
 1770SOL    HW2 5328   1.853   0.295   4.308
 1771SOL     OW 5329   3.417   1.511   4.427
 1771SOL    HW1 5330   3.360   1.495   4.508
 1771SOL    HW2 5331   3.358   1.521   4.347
 1772SOL     OW 5332   2.997   0.703   4.441
 1772SOL    HW1 5333   3.054   0.781   4.416
 1772SOL    HW2 5334   2.937   0.729   4.517
 1773SOL     OW 5335   3.617   0.607   3.955
 1773SOL    HW1 5336   3.605   0.594   3.856
 1773SOL    HW2 5337   3.587   0.526   4.004
 1774SOL     OW 5338   2.630   1.144   4.747
 1774SOL    HW1 5339   2.552   1.161   4.807
 1774SOL    HW2 5340   2.664   1.231   4.711
 1775SOL     OW 5341   2.547   1.012   4.389
 1775SOL    HW1 5342   2.616   0.996   4.459
 1775SOL    HW2 5343   2.474   1.069   4.427
 1776SOL     OW 5344   3.465   0.447   4.461
 1776SOL    HW1 5345   3.391   0.493   4.411
 1776SOL    HW2 5346   3.516   0.515   4.514
 1777SOL     OW 5347   2.093   1.713   4.207
 1777SOL    HW1 5348   2.127   1.790   4.261
 1777SOL    HW2 5349   2.137   1.713   4.117
 1778SOL     OW 5350   2.092   1.434   4.262
 1778SOL    HW1 5351   2.066   1.530   4.262
 1778SOL    HW2 5352   2.021   1.380   4.307
 1779SOL     OW 5353   2.102   1.091   4.610
 1779SOL    HW1 5354   2.116   1.007   4.662
 1779SOL    HW2 5355   2.047   1.155   4.665
 1780SOL     OW 5356   2.468   0.964   3.847
 1780SOL    HW1 5357   2.475   1.048   3.793
 1780SOL    HW2 5358   2.514   0.977   3.935
 1781SOL     OW 5359   1.984   0.643   4.287
 1781SOL    HW1 5360   1.939   0.555   4.304
 1781SOL    HW2 5361   1.983   0.697   4.371
 1782SOL     OW 5362   3.704   1.767   4.083
 1782SOL    HW1 5363   3.758   1.738   4.163
 1782SOL    HW2 5364   3.734   1.857   4.054
 1783SOL     OW 5365   1.889   1.596   3.841
 1783SOL    HW1 5366   1.870   1.500   3.862
 1783SOL    HW2 5367   1.856   1.654   3.916
 1784SOL     OW 5368   3.551   0.922   4.336
 1784SOL    HW1 5369   3.646   0.893   4.344
 1784SOL    HW2 5370   3.543   0.987   4.261
 1785SOL     OW 5371   3.503   1.108   4.156
 1785SOL    HW1 5372   3.589   1.110   4.104
 1785SOL    HW2 5373   3.517   1.155   4.244
 1786SOL     OW 5374   2.475   1.365   4.450
 1786SOL    HW1 5375   2.426   1.278   4.459
 1786SOL    HW2 5376   2.452   1.408   4.363
 1787SOL     OW 5377   2.671   0.004   4.226
 1787SOL    HW1 5378   2.711   0.095   4.217
 1787SOL    HW2 5379   2.571   0.012   4.232
 1788SOL     OW 5380   3.387   0.999   3.914
 1788SOL    HW1 5381   3.324   0.923   3.927
 1788SOL    HW2 5382   3.435   1.017   4.000
 1789SOL     OW 5383   3.328   1.417   4.677
 1789SOL    HW1 5384   3.269   1.423   4.757
 1789SOL    HW2 5385   3.313   1.329   4.631
 1790SOL     OW 5386   3.529   1.714   4.296
 1790SOL    HW1 5387   3.488   1.691   4.208
 1790SOL    HW2 5388   3.511   1.640   4.361
 1791SOL     OW 5389   2.460   0.729   3.994
 1791SOL    HW1 5390   2.484   0.798   3.926
 1791SOL    HW2 5391   2.382   0.762   4.048
 1792SOL     OW 5392   3.143   0.345   4.668
 1792SOL    HW1 5393   3.057   0.295   4.655
 1792SOL    HW2 5394   3.205   0.291   4.724
 1793SOL     OW 5395   3.438   1.662   4.031
 1793SOL    HW1 5396   3.527   1.708   4.034
 1793SOL    HW2 5397   3.417   1.638   3.936
 1794SOL     OW 5398   2.903   0.701   4.153
 1794SOL    HW1 5399   2.929   0.697   4.249
 1794SOL    HW2 5400   2.818   0.650   4.139
 1795SOL     OW 5401   1.938   0.811   4.513
 1795SOL    HW1 5402   2.037   0.799   4.522
 1795SOL    HW2 5403   1.914   0.906   4.534
 1796SOL     OW 5404   2.727   0.348   3.919
 1796SOL    HW1 5405   2.786   0.411   3.870
 1796SOL    HW2 5406   2.746   0.254   3.890
 1797SOL     OW 5407   3.224   1.144   4.269
 1797SOL    HW1 5408   3.307   1.115   4.221
 1797SOL    HW2 5409   3.175   1.211   4.213
 1798SOL     OW 5410   2.870   1.456   4.201
 1798SOL    HW1 5411   2.824   1.528   4.149
 1798SOL    HW2 5412   2.866   1.476   4.299
 1799SOL     OW 5413   2.213   1.801   4.577
 1799SOL    HW1 5414   2.263   1.715   4.583
 1799SOL    HW2 5415   2.278   1.878   4.574
 1800SOL     OW 5416   3.657   1.066   4.597
 1800SOL    HW1 5417   3.595   1.051   4.521
 1800SOL    HW2 5418   3.605   1.077   4.682
 1801SOL     OW 5419   2.183   0.943   3.966
 1801SOL    HW1 5420   2.265   0.982   3.924
 1801SOL    HW2 5421   2.156   0.861   3.917
 1802SOL     OW 5422   3.320   0.735   4.452
 1802SOL    HW1 5423   3.315   0.670   4.527
 1802SOL    HW2 5424   3.400   0.794   4.465
 1803SOL     OW 5425   2.973   1.776   3.961
 1803SOL    HW1 5426   2.913   1.714   4.011
 1803SOL    HW2 5427   3.004   1.732   3.876
 1804SOL     OW 5428   3.494   1.377   3.805
 1804SOL    HW1 5429   3.462   1.471   3.795
 1804SOL    HW2 5430   3.418   1.314   3.793
 1805SOL     OW 5431   2.326   1.743   4.047
 1805SOL    HW1 5432   2.359   1.782   4.133
 1805SOL    HW2 5433   2.402   1.736   3.982
 1806SOL     OW 5434   3.262   0.107   4.150
 1806SOL    HW1 5435   3.238   0.070   4.060
 1806SOL    HW2 5436   3.361   0.123   4.154
 1807SOL     OW 5437   2.244   0.700   4.204
 1807SOL    HW1 5438   2.289   0.610   4.201
 1807SOL    HW2 5439   2.150   0.689   4.237
 1808SOL     OW 5440   2.476   0.122   3.841
 1808SOL    HW1 5441   2.574   0.100   3.848
 1808SOL    HW2 5442   2.445   0.105   3.748
 1809SOL     OW 5443   2.401   0.064   4.236
 1809SOL    HW1 5444   2.320   0.065   4.294
 1809SOL    HW2 5445   2.404   0.147   4.181
 1810SOL     OW 5446   3.296   1.188   3.765
 1810SOL    HW1 5447   3.328   1.112   3.822
 1810SOL    HW2 5448   3.204   1.215   3.795
 1811SOL     OW 5449   2.159   0.035   3.895
 1811SOL    HW1 5450   2.208   0.119   3.874
 1811SOL    HW2 5451   2.221  -0.030   3.940
 1812SOL     OW 5452   2.797   0.236   4.204
 1812SOL    HW1 5453   2.749   0.277   4.126
 1812SOL    HW2 5454   2.896   0.234   4.185
 1813SOL     OW 5455   3.089   1.570   4.517
 1813SOL    HW1 5456   3.110   1.644   4.452
 1813SOL    HW2 5457   3.157   1.570   4.590
 1814SOL     OW 5458   2.321   1.152   4.465
 1814SOL    HW1 5459   2.250   1.125   4.530
 1814SOL    HW2 5460   2.295   1.124   4.372
 1815SOL     OW 5461   3.133   1.797   4.315
 1815SOL    HW1 5462   3.177   1.861   4.251
 1815SOL    HW2 5463   3.083   1.849   4.385
 1816SOL     OW 5464   2.894   0.549   3.740
 1816SOL    HW1 5465   2.853   0.631   3.701
 1816SOL    HW2 5466   2.958   0.575   3.813
 1817SOL     OW 5467   2.728   0.454   4.366
 1817SOL    HW1 5468   2.696   0.526   4.304
 1817SOL    HW2 5469   2.752   0.373   4.313
 1818SOL     OW 5470   2.879   0.039   4.477
 1818SOL    HW1 5471   2.807   0.044   4.408
 1818SOL    HW2 5472   2.855  -0.030   4.546
 1819SOL     OW 5473   3.719   0.833   4.101
 1819SOL    HW1 5474   3.761   0.769   4.165
 1819SOL    HW2 5475   3.681   0.782   4.023
 1820SOL     OW 5476   2.350   1.385   3.898
 1820SOL    HW1 5477   2.263   1.370   3.945
 1820SOL    HW2 5478   2.333   1.411   3.803
 1821SOL     OW 5479   3.526   1.280   4.381
 1821SOL    HW1 5480   3.625   1.288   4.395
 1821SOL    HW2 5481   3.481   1.364   4.412
 1822SOL     OW 5482   3.252   0.575   3.802
 1822SOL    HW1 5483   3.198   0.554   3.883
 1822SOL    HW2 5484   3.343   0.534   3.811
 1823SOL     OW 5485   2.389   0.256   4.052
 1823SOL    HW1 5486   2.416   0.197   3.977
 1823SOL    HW2 5487   2.389   0.351   4.021
 1824SOL     OW 5488   2.567   1.050   4.092
 1824SOL    HW1 5489   2.553   1.057   4.191
 1824SOL    HW2 5490   2.651   0.999   4.074
 1825SOL     OW 5491   2.229   1.100   4.225
 1825SOL    HW1 5492   2.222   1.183   4.169
 1825SOL    HW2 5493   2.233   1.020   4.165
 1826SOL     OW 5494   2.428   0.537   4.589
 1826SOL    HW1 5495   2.440   0.603   4.515
 1826SOL    HW2 5496   2.474   0.571   4.672
 1827SOL     OW 5497   3.114   1.348   4.112
 1827SOL    HW1 5498   3.164   1.425   4.152
 1827SOL    HW2 5499   3.019   1.350   4.144
 1828SOL     OW 5500   3.444   0.639   4.196
 1828SOL    HW1 5501   3.413   0.700   4.269
 1828SOL    HW2 5502   3.494   0.691   4.127
 1829SOL     OW 5503   3.071   0.525   3.999
 1829SOL    HW1 5504   3.084   0.441   4.053
 1829SOL    HW2 5505   3.042   0.599   4.059
 1830SOL     OW 5506   2.594   0.634   4.788
 1830SOL    HW1 5507   2.653   0.608   4.712
 1830SOL    HW2 5508   2.566   0.730   4.777
 1831SOL     OW 5509   2.169   0.063   4.342
 1831SOL    HW1 5510   2.158   0.157   4.375
 1831SOL    HW2 5511   2.164   0.000   4.419
 1832SOL     OW 5512   3.484   0.367   4.098
 1832SOL    HW1 5513   3.486   0.291   4.162
 1832SOL    HW2 5514   3.436   0.444   4.138
 1833SOL     OW 5515   3.402   0.274   3.849
 1833SOL    HW1 5516   3.341   0.199   3.872
 1833SOL    HW2 5517   3.424   0.326   3.932
 1834SOL     OW 5518   3.165   0.838   3.766
 1834SOL    HW1 5519   3.199   0.745   3.781
 1834SOL    HW2 5520   3.183   0.865   3.671
 1835SOL     OW 5521   2.930   1.333   4.573
 1835SOL    HW1 5522   2.937   1.249   4.518
 1835SOL    HW2 5523   2.992   1.402   4.537
 1836SOL     OW 5524   2.181   0.810   4.673
 1836SOL    HW1 5525   2.274   0.846   4.678
 1836SOL    HW2 5526   2.175   0.725   4.725
 1837SOL     OW 5527   1.870   1.326   3.924
 1837SOL    HW1 5528   1.777   1.347   3.893
 1837SOL    HW2 5529   1.880   1.227   3.937
 1838SOL     OW 5530   1.950   1.801   4.651
 1838SOL    HW1 5531   1.908   1.715   4.624
 1838SOL    HW2 5532   2.044   1.804   4.617
 1839SOL     OW 5533   2.366   1.568   4.634
 1839SOL    HW1 5534   2.432   1.642   4.643
 1839SOL    HW2 5535   2.410   1.489   4.592
 1840SOL     OW 5536   2.677   0.572   4.049
 1840SOL    HW1 5537   2.684   0.483   4.003
 1840SOL    HW2 5538   2.583   0.606   4.041
 1841SOL     OW 5539   2.335   0.500   3.915
 1841SOL    HW1 5540   2.396   0.580   3.919
 1841SOL    HW2 5541   2.240   0.531   3.922
 1842SOL     OW 5542   3.164   0.855   4.033
 1842SOL    HW1 5543   3.078   0.824   4.075
 1842SOL    HW2 5544   3.160   0.841   3.934
 1843SOL     OW 5545   3.621   1.747   4.878
 1843SOL    HW1 5546   3.682   1.777   4.805
 1843SOL    HW2 5547   3.583   1.658   4.856
 1844SOL     OW 5548   3.588   0.135   4.247
 1844SOL    HW1 5549   3.661   0.118   4.180
 1844SOL    HW2 5550   3.557   0.048   4.285
 1845SOL     OW 5551   3.250   1.573   4.201
 1845SOL    HW1 5552   3.317   1.585   4.127
 1845SOL    HW2 5553   3.210   1.662   4.224
 1846SOL     OW 5554   3.142   0.927   4.396
 1846SOL    HW1 5555   3.202   0.846   4.398
 1846SOL    HW2 5556   3.182   0.996   4.336
 1847SOL     OW 5557   2.534   1.616   3.878
 1847SOL    HW1 5558   2.543   1.626   3.779
 1847SOL    HW2 5559   2.494   1.527   3.899
 1848SOL     OW 5560   3.703   0.175   4.687
 1848SOL    HW1 5561   3.742   0.090   4.651
 1848SOL    HW2 5562   3.605   0.177   4.668
 1849SOL     OW 5563   2.125   0.326   4.444
 1849SOL    HW1 5564   2.046   0.377   4.410
 1849SOL    HW2 5565   2.116   0.311   4.542
 1850SOL     OW 5566   3.056   1.612   3.755
 1850SOL    HW1 5567   3.062   1.519   3.792
 1850SOL    HW2 5568   2.997   1.612   3.675
 1851SOL     OW 5569   2.778   0.910   4.015
 1851SOL    HW1 5570   2.841   0.948   3.947
 1851SOL    HW2 5571   2.818   0.827   4.054
 1852SOL     OW 5572   3.366   1.607   3.768
 1852SOL    HW1 5573   3.274   1.644   3.775
 1852SOL    HW2 5574   3.404   1.627   3.678
 1853SOL     OW 5575   2.901   1.098   4.420
 1853SOL    HW1 5576   2.831   1.051   4.474
 1853SOL    HW2 5577   2.960   1.030   4.377
 1854SOL     OW 5578   2.452   1.487   4.215
 1854SOL    HW1 5579   2.494   1.429   4.145
 1854SOL    HW2 5580   2.408   1.566   4.171
 1855SOL     OW 5581   2.117   1.348   4.014
 1855SOL    HW1 5582   2.021   1.349   3.987
 1855SOL    HW2 5583   2.129   1.401   4.098
 1856SOL     OW 5584   1.937   0.345   3.757
 1856SOL    HW1 5585   1.845   0.317   3.728
 1856SOL    HW2 5586   1.968   0.422   3.701
 1857SOL     OW 5587   1.934   0.166   4.042
 1857SOL    HW1 5588   1.917   0.249   3.988
 1857SOL    HW2 5589   2.024   0.129   4.020
 1858SOL     OW 5590   3.045   1.335   3.843
 1858SOL    HW1 5591   2.946   1.324   3.845
 1858SOL    HW2 5592   3.079   1.350   3.936
 1859SOL     OW 5593   3.536   0.883   4.978
 1859SOL    HW1 5594   3.509   0.794   4.941
 1859SOL    HW2 5595   3.537   0.951   4.905
 1860SOL     OW 5596   3.087   0.325   4.173
 1860SOL    HW1 5597   3.152   0.251   4.162
 1860SOL    HW2 5598   3.107   0.375   4.257
 1861SOL     OW 5599   2.456   0.745   4.376
 1861SOL    HW1 5600   2.506   0.830   4.357
 1861SOL    HW2 5601   2.368   0.747   4.328
 1862SOL     OW 5602   2.721   1.374   3.740
 1862SOL    HW1 5603   2.675   1.389   3.828
 1862SOL    HW2 5604   2.765   1.459   3.710
 1863SOL     OW 5605   2.523   1.790   4.677
 1863SOL    HW1 5606   2.477   1.878   4.664
 1863SOL    HW2 5607   2.622   1.802   4.670
 1864SOL     OW 5608   2.721   0.956   4.585
 1864SOL    HW1 5609   2.775   0.887   4.633
 1864SOL    HW2 5610   2.689   1.025   4.651
 1865SOL     OW 5611   2.945   0.984   3.811
 1865SOL    HW1 5612   2.922   1.037   3.729
 1865SOL    HW2 5613   3.026   0.928   3.792
 1866SOL     OW 5614   3.723   1.569   4.575
 1866SOL    HW1 5615   3.652   1.557   4.505
 1866SOL    HW2 5616   3.724   1.490   4.635
 1867SOL     OW 5617   1.941   1.240   4.377
 1867SOL    HW1 5618   1.940   1.193   4.465
 1867SOL    HW2 5619   2.023   1.212   4.326
 1868SOL     OW 5620   3.686   0.192   4.951
 1868SOL    HW1 5621   3.682   0.102   4.995
 1868SOL    HW2 5622   3.689   0.181   4.852
 1869SOL     OW 5623   2.290   0.424   4.244
 1869SOL    HW1 5624   2.320   0.352   4.182
 1869SOL    HW2 5625   2.251   0.384   4.327
 1870SOL     OW 5626   2.674   1.586   4.411
 1870SOL    HW1 5627   2.706   1.596   4.317
 1870SOL    HW2 5628   2.595   1.524   4.413
 1871SOL     OW 5629   2.632   1.330   4.025
 1871SOL    HW1 5630   2.586   1.243   4.042
 1871SOL    HW2 5631   2.723   1.327   4.066
 1872SOL     OW 5632   3.214   0.052   3.892
 1872SOL    HW1 5633   3.249   0.011   3.808
 1872SOL    HW2 5634   3.124   0.014   3.912
 1873SOL     OW 5635   3.162   0.453   4.415
 1873SOL    HW1 5636   3.103   0.533   4.419
 1873SOL    HW2 5637   3.177   0.418   4.508
 1874SOL     OW 5638   3.455   0.221   4.606
 1874SOL    HW1 5639   3.371   0.220   4.660
 1874SOL    HW2 5640   3.457   0.304   4.550
 1875SOL     OW 5641   1.901   1.077   4.024
 1875SOL    HW1 5642   2.000   1.066   4.015
 1875SOL    HW2 5643   1.861   0.991   4.056
 1876SOL     OW 5644   2.737   1.646   4.061
 1876SOL    HW1 5645   2.660   1.611   4.007
 1876SOL    HW2 5646   2.705   1.717   4.123
 1877SOL     OW 5647   2.092   2.490   0.113
 1877SOL    HW1 5648   1.999   2.488   0.150
 1877SOL    HW2 5649   2.093   2.451   0.021
 1878SOL     OW 5650   2.087   2.137   0.996
 1878SOL    HW1 5651   2.122   2.120   1.088
 1878SOL    HW2 5652   1.999   2.092   0.984
 1879SOL     OW 5653   1.881   2.230   0.647
 1879SOL    HW1 5654   1.799   2.273   0.686
 1879SOL    HW2 5655   1.853   2.157   0.584
 1880SOL     OW 5656   2.431   3.137   1.165
 1880SOL    HW1 5657   2.338   3.130   1.128
 1880SOL    HW2 5658   2.442   3.226   1.209
 1881SOL     OW 5659   3.417   3.373   0.703
 1881SOL    HW1 5660   3.360   3.357   0.784
 1881SOL    HW2 5661   3.358   3.383   0.623
 1882SOL     OW 5662   2.997   2.565   0.717
 1882SOL    HW1 5663   3.054   2.643   0.692
 1882SOL    HW2 5664   2.937   2.591   0.793
 1883SOL     OW 5665   3.617   2.469   0.231
 1883SOL    HW1 5666   3.605   2.456   0.132
 1883SOL    HW2 5667   3.587   2.388   0.280
 1884SOL     OW 5668   2.630   3.006   1.023
 1884SOL    HW1 5669   2.552   3.023   1.083
 1884SOL    HW2 5670   2.664   3.093   0.987
 1885SOL     OW 5671   2.712   2.660   1.823
 1885SOL    HW1 5672   2.708   2.736   1.888
 1885SOL    HW2 5673   2.734   2.696   1.732
 1886SOL     OW 5674   2.547   2.874   0.665
 1886SOL    HW1 5675   2.616   2.858   0.735
 1886SOL    HW2 5676   2.474   2.931   0.703
 1887SOL     OW 5677   2.548   3.023   1.803
 1887SOL    HW1 5678   2.608   3.102   1.817
 1887SOL    HW2 5679   2.462   3.054   1.762
 1888SOL     OW 5680   2.197   3.297   1.061
 1888SOL    HW1 5681   2.119   3.266   1.008
 1888SOL    HW2 5682   2.255   3.355   1.004
 1889SOL     OW 5683   3.322   3.367   1.339
 1889SOL    HW1 5684   3.346   3.461   1.365
 1889SOL    HW2 5685   3.306   3.313   1.421
 1890SOL     OW 5686   2.300   2.254   1.499
 1890SOL    HW1 5687   2.382   2.198   1.508
 1890SOL    HW2 5688   2.219   2.196   1.503
 1891SOL     OW 5689   3.465   2.309   0.737
 1891SOL    HW1 5690   3.391   2.355   0.687
 1891SOL    HW2 5691   3.516   2.377   0.790
 1892SOL     OW 5692   2.093   3.575   0.483
 1892SOL    HW1 5693   2.127   3.652   0.537
 1892SOL    HW2 5694   2.137   3.575   0.393
 1893SOL     OW 5695   2.989   3.203   1.690
 1893SOL    HW1 5696   3.036   3.203   1.778
 1893SOL    HW2 5697   2.941   3.116   1.679
 1894SOL     OW 5698   2.092   3.296   0.538
 1894SOL    HW1 5699   2.066   3.392   0.538
 1894SOL    HW2 5700   2.021   3.242   0.583
 1895SOL     OW 5701   2.102   2.953   0.886
 1895SOL    HW1 5702   2.116   2.869   0.938
 1895SOL    HW2 5703   2.047   3.017   0.941
 1896SOL     OW 5704   2.482   3.648   1.439
 1896SOL    HW1 5705   2.390   3.631   1.474
 1896SOL    HW2 5706   2.510   3.740   1.465
 1897SOL     OW 5707   2.468   2.826   0.123
 1897SOL    HW1 5708   2.475   2.910   0.069
 1897SOL    HW2 5709   2.514   2.839   0.211
 1898SOL     OW 5710   3.456   1.976   1.480
 1898SOL    HW1 5711   3.438   2.043   1.408
 1898SOL    HW2 5712   3.453   2.022   1.569
 1899SOL     OW 5713   1.984   2.505   0.563
 1899SOL    HW1 5714   1.939   2.417   0.580
 1899SOL    HW2 5715   1.983   2.559   0.647
 1900SOL     OW 5716   3.704   3.629   0.359
 1900SOL    HW1 5717   3.758   3.600   0.439
 1900SOL    HW2 5718   3.734   3.719   0.330
 1901SOL     OW 5719   3.551   2.784   0.612
 1901SOL    HW1 5720   3.646   2.755   0.620
 1901SOL    HW2 5721   3.543   2.849   0.537
 1902SOL     OW 5722   3.503   2.970   0.432
 1902SOL    HW1 5723   3.589   2.972   0.380
 1902SOL    HW2 5724   3.517   3.017   0.520
 1903SOL     OW 5725   1.975   2.599   1.597
 1903SOL    HW1 5726   2.063   2.586   1.642
 1903SOL    HW2 5727   1.962   2.696   1.575
 1904SOL     OW 5728   2.475   3.227   0.726
 1904SOL    HW1 5729   2.426   3.140   0.735
 1904SOL    HW2 5730   2.452   3.270   0.639
 1905SOL     OW 5731   3.155   3.090   1.423
 1905SOL    HW1 5732   3.192   3.017   1.365
 1905SOL    HW2 5733   3.207   3.095   1.508
 1906SOL     OW 5734   2.671   1.866   0.502
 1906SOL    HW1 5735   2.711   1.957   0.493
 1906SOL    HW2 5736   2.571   1.874   0.508
 1907SOL     OW 5737   2.059   2.838   1.264
 1907SOL    HW1 5738   2.148   2.793   1.250
 1907SOL    HW2 5739   1.986   2.773   1.245
 1908SOL     OW 5740   3.387   2.861   0.190
 1908SOL    HW1 5741   3.324   2.785   0.203
 1908SOL    HW2 5742   3.435   2.879   0.276
 1909SOL     OW 5743   3.049   3.654   1.616
 1909SOL    HW1 5744   3.073   3.714   1.540
 1909SOL    HW2 5745   3.056   3.559   1.586
 1910SOL     OW 5746   2.179   2.113   1.801
 1910SOL    HW1 5747   2.250   2.184   1.807
 1910SOL    HW2 5748   2.091   2.152   1.829
 1911SOL     OW 5749   3.328   3.279   0.953
 1911SOL    HW1 5750   3.269   3.285   1.033
 1911SOL    HW2 5751   3.313   3.191   0.907
 1912SOL     OW 5752   3.529   3.576   0.572
 1912SOL    HW1 5753   3.488   3.553   0.484
 1912SOL    HW2 5754   3.511   3.502   0.637
 1913SOL     OW 5755   2.460   2.591   0.270
 1913SOL    HW1 5756   2.484   2.660   0.202
 1913SOL    HW2 5757   2.382   2.624   0.324
 1914SOL     OW 5758   3.143   2.207   0.944
 1914SOL    HW1 5759   3.057   2.157   0.931
 1914SOL    HW2 5760   3.205   2.153   1.000
 1915SOL     OW 5761   3.438   3.524   0.307
 1915SOL    HW1 5762   3.527   3.570   0.310
 1915SOL    HW2 5763   3.417   3.500   0.212
 1916SOL     OW 5764   2.669   2.467   1.465
 1916SOL    HW1 5765   2.622   2.464   1.554
 1916SOL    HW2 5766   2.618   2.412   1.399
 1917SOL     OW 5767   3.256   2.331   1.674
 1917SOL    HW1 5768   3.236   2.374   1.762
 1917SOL    HW2 5769   3.334   2.269   1.683
 1918SOL     OW 5770   2.835   2.752   1.572
 1918SOL    HW1 5771   2.881   2.668   1.543
 1918SOL    HW2 5772   2.779   2.786   1.497
 1919SOL     OW 5773   2.853   2.272   1.242
 1919SOL    HW1 5774   2.776   2.306   1.296
 1919SOL    HW2 5775   2.819   2.221   1.163
 1920SOL     OW 5776   2.903   2.563   0.429
 1920SOL    HW1 5777   2.929   2.559   0.525
 1920SOL    HW2 5778   2.818   2.512   0.415
 1921SOL     OW 5779   1.938   2.673   0.789
 1921SOL    HW1 5780   2.037   2.661   0.798
 1921SOL    HW2 5781   1.914   2.768   0.810
 1922SOL     OW 5782   1.992   3.683   1.571
 1922SOL    HW1 5783   1.982   3.668   1.670
 1922SOL    HW2 5784   1.906   3.719   1.535
 1923SOL     OW 5785   2.727   2.210   0.195
 1923SOL    HW1 5786   2.786   2.273   0.146
 1923SOL    HW2 5787   2.746   2.116   0.166
 1924SOL     OW 5788   3.581   2.447   1.831
 1924SOL    HW1 5789   3.555   2.536   1.795
 1924SOL    HW2 5790   3.579   2.379   1.758
 1925SOL     OW 5791   3.224   3.006   0.545
 1925SOL    HW1 5792   3.307   2.977   0.497
 1925SOL    HW2 5793   3.175   3.073   0.489
 1926SOL     OW 5794   2.412   2.058   0.885
 1926SOL    HW1 5795   2.407   2.053   0.985
 1926SOL    HW2 5796   2.414   2.154   0.856
 1927SOL     OW 5797   2.870   3.318   0.477
 1927SOL    HW1 5798   2.824   3.390   0.425
 1927SOL    HW2 5799   2.866   3.338   0.575
 1928SOL     OW 5800   2.213   3.663   0.853
 1928SOL    HW1 5801   2.263   3.577   0.859
 1928SOL    HW2 5802   2.278   3.740   0.850
 1929SOL     OW 5803   3.657   2.928   0.873
 1929SOL    HW1 5804   3.595   2.913   0.797
 1929SOL    HW2 5805   3.605   2.939   0.958
 1930SOL     OW 5806   3.089   3.412   1.506
 1930SOL    HW1 5807   3.095   3.335   1.570
 1930SOL    HW2 5808   3.037   3.386   1.426
 1931SOL     OW 5809   2.183   2.805   0.242
 1931SOL    HW1 5810   2.265   2.844   0.200
 1931SOL    HW2 5811   2.156   2.723   0.193
 1932SOL     OW 5812   3.320   2.597   0.728
 1932SOL    HW1 5813   3.315   2.532   0.803
 1932SOL    HW2 5814   3.400   2.656   0.741
 1933SOL     OW 5815   2.323   3.128   1.727
 1933SOL    HW1 5816   2.273   3.129   1.641
 1933SOL    HW2 5817   2.260   3.110   1.803
 1934SOL     OW 5818   2.973   3.638   0.237
 1934SOL    HW1 5819   2.913   3.576   0.287
 1934SOL    HW2 5820   3.004   3.594   0.152
 1935SOL     OW 5821   2.064   2.147   1.498
 1935SOL    HW1 5822   1.984   2.207   1.485
 1935SOL    HW2 5823   2.054   2.098   1.584
 1936SOL     OW 5824   3.494   3.239   0.081
 1936SOL    HW1 5825   3.462   3.333   0.071
 1936SOL    HW2 5826   3.418   3.176   0.069
 1937SOL     OW 5827   2.326   3.605   0.323
 1937SOL    HW1 5828   2.359   3.644   0.409
 1937SOL    HW2 5829   2.402   3.598   0.258
 1938SOL     OW 5830   3.262   1.969   0.426
 1938SOL    HW1 5831   3.238   1.932   0.336
 1938SOL    HW2 5832   3.361   1.985   0.430
 1939SOL     OW 5833   2.111   3.647   1.241
 1939SOL    HW1 5834   2.168   3.582   1.291
 1939SOL    HW2 5835   2.095   3.614   1.148
 1940SOL     OW 5836   2.802   3.560   0.904
 1940SOL    HW1 5837   2.882   3.503   0.925
 1940SOL    HW2 5838   2.753   3.520   0.827
 1941SOL     OW 5839   2.244   2.562   0.480
 1941SOL    HW1 5840   2.289   2.472   0.477
 1941SOL    HW2 5841   2.150   2.551   0.513
 1942SOL     OW 5842   3.409   2.084   1.729
 1942SOL    HW1 5843   3.404   2.121   1.821
 1942SOL    HW2 5844   3.337   2.015   1.717
 1943SOL     OW 5845   2.643   2.126   1.749
 1943SOL    HW1 5846   2.710   2.065   1.792
 1943SOL    HW2 5847   2.570   2.145   1.814
 1944SOL     OW 5848   2.750   3.376   1.195
 1944SOL    HW1 5849   2.727   3.351   1.101
 1944SOL    HW2 5850   2.811   3.307   1.234
 1945SOL     OW 5851   3.213   2.452   1.433
 1945SOL    HW1 5852   3.241   2.409   1.518
 1945SOL    HW2 5853   3.238   2.548   1.434
 1946SOL     OW 5854   2.665   3.264   0.924
 1946SOL    HW1 5855   2.755   3.278   0.882
 1946SOL    HW2 5856   2.594   3.266   0.853
 1947SOL     OW 5857   2.784   2.365   0.899
 1947SOL    HW1 5858   2.759   2.356   0.803
 1947SOL    HW2 5859   2.832   2.283   0.930
 1948SOL     OW 5860   2.401   1.926   0.512
 1948SOL    HW1 5861   2.320   1.927   0.570
 1948SOL    HW2 5862   2.404   2.009   0.457
 1949SOL     OW 5863   3.296   3.050   0.041
 1949SOL    HW1 5864   3.328   2.974   0.098
 1949SOL    HW2 5865   3.204   3.077   0.071
 1950SOL     OW 5866   2.159   1.897   0.171
 1950SOL    HW1 5867   2.208   1.981   0.150
 1950SOL    HW2 5868   2.221   1.832   0.216
 1951SOL     OW 5869   2.797   2.098   0.480
 1951SOL    HW1 5870   2.749   2.139   0.402
 1951SOL    HW2 5871   2.896   2.096   0.461
 1952SOL     OW 5872   2.938   2.545   1.464
 1952SOL    HW1 5873   2.858   2.484   1.467
 1952SOL    HW2 5874   3.019   2.492   1.440
 1953SOL     OW 5875   3.089   3.432   0.793
 1953SOL    HW1 5876   3.110   3.506   0.728
 1953SOL    HW2 5877   3.157   3.432   0.866
 1954SOL     OW 5878   2.321   3.014   0.741
 1954SOL    HW1 5879   2.250   2.987   0.806
 1954SOL    HW2 5880   2.295   2.986   0.648
 1955SOL     OW 5881   3.133   3.659   0.591
 1955SOL    HW1 5882   3.177   3.723   0.527
 1955SOL    HW2 5883   3.083   3.711   0.661
 1956SOL     OW 5884   2.894   2.411   0.016
 1956SOL    HW1 5885   2.853   2.493  -0.023
 1956SOL    HW2 5886   2.958   2.437   0.089
 1957SOL     OW 5887   1.940   2.418   1.386
 1957SOL    HW1 5888   2.032   2.417   1.345
 1957SOL    HW2 5889   1.934   2.492   1.453
 1958SOL     OW 5890   2.423   2.084   1.147
 1958SOL    HW1 5891   2.461   2.000   1.184
 1958SOL    HW2 5892   2.335   2.103   1.191
 1959SOL     OW 5893   2.728   2.316   0.642
 1959SOL    HW1 5894   2.696   2.388   0.580
 1959SOL    HW2 5895   2.752   2.235   0.589
 1960SOL     OW 5896   2.879   1.901   0.753
 1960SOL    HW1 5897   2.807   1.906   0.684
 1960SOL    HW2 5898   2.855   1.832   0.822
 1961SOL     OW 5899   3.291   3.035   0.867
 1961SOL    HW1 5900   3.236   2.951   0.860
 1961SOL    HW2 5901   3.317   3.064   0.775
 1962SOL     OW 5902   3.328   2.452   0.992
 1962SOL    HW1 5903   3.298   2.357   0.999
 1962SOL    HW2 5904   3.401   2.468   1.058
 1963SOL     OW 5905   3.719   2.695   0.377
 1963SOL    HW1 5906   3.761   2.631   0.441
 1963SOL    HW2 5907   3.681   2.644   0.299
 1964SOL     OW 5908   2.350   3.247   0.174
 1964SOL    HW1 5909   2.263   3.232   0.221
 1964SOL    HW2 5910   2.333   3.273   0.079
 1965SOL     OW 5911   3.526   3.142   0.657
 1965SOL    HW1 5912   3.625   3.150   0.671
 1965SOL    HW2 5913   3.481   3.226   0.688
 1966SOL     OW 5914   3.252   2.437   0.078
 1966SOL    HW1 5915   3.198   2.416   0.159
 1966SOL    HW2 5916   3.343   2.396   0.087
 1967SOL     OW 5917   2.389   2.118   0.328
 1967SOL    HW1 5918   2.416   2.059   0.253
 1967SOL    HW2 5919   2.389   2.213   0.297
 1968SOL     OW 5920   3.616   3.085   1.588
 1968SOL    HW1 5921   3.707   3.046   1.575
 1968SOL    HW2 5922   3.624   3.181   1.612
 1969SOL     OW 5923   2.926   3.209   1.340
 1969SOL    HW1 5924   2.846   3.186   1.395
 1969SOL    HW2 5925   3.009   3.183   1.389
 1970SOL     OW 5926   3.454   3.491   1.625
 1970SOL    HW1 5927   3.481   3.525   1.535
 1970SOL    HW2 5928   3.533   3.453   1.671
 1971SOL     OW 5929   2.973   3.057   1.100
 1971SOL    HW1 5930   2.933   3.101   1.181
 1971SOL    HW2 5931   2.932   3.094   1.017
 1972SOL     OW 5932   3.500   2.961   1.079
 1972SOL    HW1 5933   3.505   3.042   1.138
 1972SOL    HW2 5934   3.414   2.963   1.028
 1973SOL     OW 5935   2.777   1.951   1.402
 1973SOL    HW1 5936   2.802   1.931   1.307
 1973SOL    HW2 5937   2.849   2.007   1.444
 1974SOL     OW 5938   2.842   2.978   1.719
 1974SOL    HW1 5939   2.743   2.984   1.729
 1974SOL    HW2 5940   2.865   2.898   1.663
 1975SOL     OW 5941   2.567   2.912   0.368
 1975SOL    HW1 5942   2.553   2.919   0.467
 1975SOL    HW2 5943   2.651   2.861   0.350
 1976SOL     OW 5944   2.272   2.675   1.251
 1976SOL    HW1 5945   2.358   2.687   1.301
 1976SOL    HW2 5946   2.230   2.588   1.278
 1977SOL     OW 5947   3.136   2.248   1.262
 1977SOL    HW1 5948   3.157   2.322   1.326
 1977SOL    HW2 5949   3.047   2.265   1.219
 1978SOL     OW 5950   1.926   3.426   1.331
 1978SOL    HW1 5951   1.880   3.508   1.297
 1978SOL    HW2 5952   2.024   3.445   1.340
 1979SOL     OW 5953   2.229   2.962   0.501
 1979SOL    HW1 5954   2.222   3.045   0.445
 1979SOL    HW2 5955   2.233   2.882   0.441
 1980SOL     OW 5956   2.428   2.399   0.865
 1980SOL    HW1 5957   2.440   2.465   0.791
 1980SOL    HW2 5958   2.474   2.433   0.948
 1981SOL     OW 5959   3.114   3.210   0.388
 1981SOL    HW1 5960   3.164   3.287   0.428
 1981SOL    HW2 5961   3.019   3.212   0.420
 1982SOL     OW 5962   3.134   3.307   1.142
 1982SOL    HW1 5963   3.181   3.320   1.229
 1982SOL    HW2 5964   3.068   3.233   1.151
 1983SOL     OW 5965   3.444   2.501   0.472
 1983SOL    HW1 5966   3.413   2.562   0.545
 1983SOL    HW2 5967   3.494   2.553   0.403
 1984SOL     OW 5968   2.216   3.372   1.329
 1984SOL    HW1 5969   2.195   3.328   1.242
 1984SOL    HW2 5970   2.313   3.398   1.332
 1985SOL     OW 5971   2.264   2.613   1.598
 1985SOL    HW1 5972   2.332   2.668   1.551
 1985SOL    HW2 5973   2.304   2.525   1.625
 1986SOL     OW 5974   3.449   2.641   1.670
 1986SOL    HW1 5975   3.357   2.679   1.665
 1986SOL    HW2 5976   3.509   2.688   1.605
 1987SOL     OW 5977   2.875   1.967   1.770
 1987SOL    HW1 5978   2.881   2.052   1.718
 1987SOL    HW2 5979   2.907   1.891   1.713
 1988SOL     OW 5980   2.366   1.912   1.740
 1988SOL    HW1 5981   2.324   1.855   1.670
 1988SOL    HW2 5982   2.300   1.981   1.772
 1989SOL     OW 5983   2.435   2.732   1.029
 1989SOL    HW1 5984   2.479   2.821   1.020
 1989SOL    HW2 5985   2.372   2.732   1.106
 1990SOL     OW 5986   3.222   2.724   1.045
 1990SOL    HW1 5987   3.147   2.724   0.979
 1990SOL    HW2 5988   3.259   2.632   1.054
 1991SOL     OW 5989   3.071   2.387   0.275
 1991SOL    HW1 5990   3.084   2.303   0.329
 1991SOL    HW2 5991   3.042   2.461   0.335
 1992SOL     OW 5992   2.169   2.075   1.231
 1992SOL    HW1 5993   2.146   2.112   1.321
 1992SOL    HW2 5994   2.139   1.980   1.225
 1993SOL     OW 5995   1.899   3.172   1.282
 1993SOL    HW1 5996   1.952   3.123   1.350
 1993SOL    HW2 5997   1.921   3.270   1.287
 1994SOL     OW 5998   2.594   2.496   1.064
 1994SOL    HW1 5999   2.653   2.470   0.988
 1994SOL    HW2 6000   2.566   2.592   1.053
 1995SOL     OW 6001   3.590   2.797   1.854
 1995SOL    HW1 6002   3.544   2.790   1.765
 1995SOL    HW2 6003   3.528   2.841   1.920
 1996SOL     OW 6004   2.169   1.925   0.618
 1996SOL    HW1 6005   2.158   2.019   0.651
 1996SOL    HW2 6006   2.164   1.862   0.695
 1997SOL     OW 6007   3.484   2.229   0.374
 1997SOL    HW1 6008   3.486   2.153   0.438
 1997SOL    HW2 6009   3.436   2.306   0.414
 1998SOL     OW 6010   2.885   2.628   0.966
 1998SOL    HW1 6011   2.900   2.649   1.062
 1998SOL    HW2 6012   2.855   2.533   0.957
 1999SOL     OW 6013   2.842   3.435   1.700
 1999SOL    HW1 6014   2.822   3.479   1.612
 1999SOL    HW2 6015   2.881   3.344   1.684
 2000SOL     OW 6016   3.721   3.380   1.605
 2000SOL    HW1 6017   3.735   3.407   1.510
 2000SOL    HW2 6018   3.804   3.402   1.658
 2001SOL     OW 6019   2.212   2.760   1.804
 2001SOL    HW1 6020   2.288   2.804   1.852
 2001SOL    HW2 6021   2.247   2.713   1.722
 2002SOL     OW 6022   3.402   2.136   0.125
 2002SOL    HW1 6023   3.341   2.061   0.148
 2002SOL    HW2 6024   3.424   2.188   0.208
 2003SOL     OW 6025   3.165   2.700   0.042
 2003SOL    HW1 6026   3.199   2.607   0.057
 2003SOL    HW2 6027   3.183   2.727  -0.053
 2004SOL     OW 6028   2.930   3.195   0.849
 2004SOL    HW1 6029   2.937   3.111   0.794
 2004SOL    HW2 6030   2.992   3.264   0.813
 2005SOL     OW 6031   2.181   2.672   0.949
 2005SOL    HW1 6032   2.274   2.708   0.954
 2005SOL    HW2 6033   2.175   2.587   1.001
 2006SOL     OW 6034   2.201   2.371   1.006
 2006SOL    HW1 6035   2.149   2.288   0.989
 2006SOL    HW2 6036   2.278   2.376   0.942
 2007SOL     OW 6037   3.000   2.242   1.678
 2007SOL    HW1 6038   2.955   2.305   1.742
 2007SOL    HW2 6039   3.093   2.273   1.661
 2008SOL     OW 6040   3.022   2.069   1.477
 2008SOL    HW1 6041   3.022   2.133   1.554
 2008SOL    HW2 6042   3.050   2.117   1.394
 2009SOL     OW 6043   1.870   3.188   0.200
 2009SOL    HW1 6044   1.777   3.209   0.169
 2009SOL    HW2 6045   1.880   3.089   0.213
 2010SOL     OW 6046   1.950   3.663   0.927
 2010SOL    HW1 6047   1.908   3.577   0.900
 2010SOL    HW2 6048   2.044   3.666   0.893
 2011SOL     OW 6049   2.366   3.430   0.910
 2011SOL    HW1 6050   2.432   3.504   0.919
 2011SOL    HW2 6051   2.410   3.351   0.868
 2012SOL     OW 6052   2.864   2.658   1.238
 2012SOL    HW1 6053   2.905   2.626   1.324
 2012SOL    HW2 6054   2.768   2.631   1.235
 2013SOL     OW 6055   1.902   2.406   1.114
 2013SOL    HW1 6056   1.987   2.373   1.073
 2013SOL    HW2 6057   1.915   2.421   1.212
 2014SOL     OW 6058   2.051   2.382   1.722
 2014SOL    HW1 6059   2.110   2.342   1.652
 2014SOL    HW2 6060   1.993   2.453   1.681
 2015SOL     OW 6061   3.231   2.812   1.660
 2015SOL    HW1 6062   3.270   2.901   1.680
 2015SOL    HW2 6063   3.241   2.792   1.563
 2016SOL     OW 6064   2.677   2.434   0.325
 2016SOL    HW1 6065   2.684   2.345   0.279
 2016SOL    HW2 6066   2.583   2.468   0.317
 2017SOL     OW 6067   3.519   2.466   1.206
 2017SOL    HW1 6068   3.481   2.397   1.268
 2017SOL    HW2 6069   3.601   2.430   1.162
 2018SOL     OW 6070   2.114   3.426   1.744
 2018SOL    HW1 6071   2.084   3.483   1.820
 2018SOL    HW2 6072   2.107   3.329   1.770
 2019SOL     OW 6073   2.533   2.326   1.269
 2019SOL    HW1 6074   2.499   2.237   1.239
 2019SOL    HW2 6075   2.559   2.380   1.189
 2020SOL     OW 6076   2.792   3.540   1.465
 2020SOL    HW1 6077   2.768   3.522   1.370
 2020SOL    HW2 6078   2.822   3.634   1.475
 2021SOL     OW 6079   2.335   2.362   0.191
 2021SOL    HW1 6080   2.396   2.442   0.195
 2021SOL    HW2 6081   2.240   2.393   0.198
 2022SOL     OW 6082   2.021   2.999   1.466
 2022SOL    HW1 6083   2.043   2.938   1.542
 2022SOL    HW2 6084   2.031   2.950   1.380
 2023SOL     OW 6085   3.209   2.921   1.234
 2023SOL    HW1 6086   3.233   2.858   1.160
 2023SOL    HW2 6087   3.119   2.961   1.216
 2024SOL     OW 6088   3.164   2.717   0.309
 2024SOL    HW1 6089   3.078   2.686   0.351
 2024SOL    HW2 6090   3.160   2.703   0.210
 2025SOL     OW 6091   3.621   3.609   1.154
 2025SOL    HW1 6092   3.682   3.639   1.081
 2025SOL    HW2 6093   3.583   3.520   1.132
 2026SOL     OW 6094   3.114   3.593   1.128
 2026SOL    HW1 6095   3.198   3.598   1.074
 2026SOL    HW2 6096   3.091   3.497   1.146
 2027SOL     OW 6097   1.945   3.120   1.022
 2027SOL    HW1 6098   1.940   3.119   1.122
 2027SOL    HW2 6099   1.862   3.079   0.984
 2028SOL     OW 6100   2.550   3.524   1.716
 2028SOL    HW1 6101   2.494   3.605   1.725
 2028SOL    HW2 6102   2.602   3.528   1.630
 2029SOL     OW 6103   2.765   1.948   0.133
 2029SOL    HW1 6104   2.816   1.949   0.047
 2029SOL    HW2 6105   2.821   1.906   0.204
 2030SOL     OW 6106   3.588   1.997   0.523
 2030SOL    HW1 6107   3.661   1.980   0.456
 2030SOL    HW2 6108   3.557   1.910   0.561
 2031SOL     OW 6109   3.250   3.435   0.477
 2031SOL    HW1 6110   3.317   3.447   0.403
 2031SOL    HW2 6111   3.210   3.524   0.500
 2032SOL     OW 6112   1.992   3.656   1.851
 2032SOL    HW1 6113   1.951   3.582   1.904
 2032SOL    HW2 6114   2.056   3.707   1.909
 2033SOL     OW 6115   3.142   2.789   0.672
 2033SOL    HW1 6116   3.202   2.708   0.674
 2033SOL    HW2 6117   3.182   2.858   0.612
 2034SOL     OW 6118   2.692   3.135   1.422
 2034SOL    HW1 6119   2.687   3.168   1.517
 2034SOL    HW2 6120   2.606   3.154   1.376
 2035SOL     OW 6121   2.534   3.478   0.154
 2035SOL    HW1 6122   2.543   3.488   0.055
 2035SOL    HW2 6123   2.494   3.389   0.175
 2036SOL     OW 6124   3.512   3.582   1.394
 2036SOL    HW1 6125   3.565   3.592   1.310
 2036SOL    HW2 6126   3.485   3.672   1.428
 2037SOL     OW 6127   3.703   2.037   0.963
 2037SOL    HW1 6128   3.742   1.952   0.927
 2037SOL    HW2 6129   3.605   2.039   0.944
 2038SOL     OW 6130   2.125   2.188   0.720
 2038SOL    HW1 6131   2.046   2.239   0.686
 2038SOL    HW2 6132   2.116   2.173   0.818
 2039SOL     OW 6133   3.056   3.474   0.031
 2039SOL    HW1 6134   3.062   3.381   0.068
 2039SOL    HW2 6135   2.997   3.474  -0.049
 2040SOL     OW 6136   2.684   2.864   1.372
 2040SOL    HW1 6137   2.724   2.863   1.280
 2040SOL    HW2 6138   2.694   2.956   1.412
 2041SOL     OW 6139   2.778   2.772   0.291
 2041SOL    HW1 6140   2.841   2.810   0.223
 2041SOL    HW2 6141   2.818   2.689   0.330
 2042SOL     OW 6142   3.366   3.469   0.044
 2042SOL    HW1 6143   3.274   3.506   0.051
 2042SOL    HW2 6144   3.404   3.489  -0.046
 2043SOL     OW 6145   2.234   3.150   1.490
 2043SOL    HW1 6146   2.221   3.243   1.456
 2043SOL    HW2 6147   2.150   3.098   1.477
 2044SOL     OW 6148   3.476   3.154   1.289
 2044SOL    HW1 6149   3.536   3.157   1.369
 2044SOL    HW2 6150   3.401   3.218   1.302
 2045SOL     OW 6151   2.901   2.960   0.696
 2045SOL    HW1 6152   2.831   2.913   0.750
 2045SOL    HW2 6153   2.960   2.892   0.653
 2046SOL     OW 6154   2.876   2.098   0.971
 2046SOL    HW1 6155   2.868   2.062   0.878
 2046SOL    HW2 6156   2.874   2.022   1.036
 2047SOL     OW 6157   2.452   3.349   0.491
 2047SOL    HW1 6158   2.494   3.291   0.421
 2047SOL    HW2 6159   2.408   3.428   0.447
 2048SOL     OW 6160   3.571   2.247   1.381
 2048SOL    HW1 6161   3.644   2.316   1.385
 2048SOL    HW2 6162   3.599   2.172   1.322
 2049SOL     OW 6163   2.117   3.210   0.290
 2049SOL    HW1 6164   2.021   3.211   0.263
 2049SOL    HW2 6165   2.129   3.263   0.374
 2050SOL     OW 6166   1.967   2.875   1.726
 2050SOL    HW1 6167   1.890   2.842   1.780
 2050SOL    HW2 6168   2.052   2.845   1.768
 2051SOL     OW 6169   2.534   2.065   1.489
 2051SOL    HW1 6170   2.624   2.049   1.449
 2051SOL    HW2 6171   2.542   2.070   1.588
 2052SOL     OW 6172   3.302   2.718   1.398
 2052SOL    HW1 6173   3.245   2.770   1.335
 2052SOL    HW2 6174   3.398   2.730   1.374
 2053SOL     OW 6175   1.934   2.028   0.318
 2053SOL    HW1 6176   1.917   2.111   0.264
 2053SOL    HW2 6177   2.024   1.991   0.296
 2054SOL     OW 6178   3.045   3.197   0.119
 2054SOL    HW1 6179   2.946   3.186   0.121
 2054SOL    HW2 6180   3.079   3.212   0.212
 2055SOL     OW 6181   2.475   2.704   1.431
 2055SOL    HW1 6182   2.531   2.785   1.414
 2055SOL    HW2 6183   2.534   2.624   1.434
 2056SOL     OW 6184   3.355   3.629   0.959
 2056SOL    HW1 6185   3.388   3.693   0.890
 2056SOL    HW2 6186   3.421   3.623   1.034
 2057SOL     OW 6187   2.578   2.427   1.708
 2057SOL    HW1 6188   2.597   2.492   1.782
 2057SOL    HW2 6189   2.638   2.347   1.717
 2058SOL     OW 6190   3.312   3.082   1.633
 2058SOL    HW1 6191   3.303   3.072   1.732
 2058SOL    HW2 6192   3.408   3.075   1.607
 2059SOL     OW 6193   2.252   3.603   1.560
 2059SOL    HW1 6194   2.161   3.644   1.558
 2059SOL    HW2 6195   2.245   3.509   1.592
 2060SOL     OW 6196   3.536   2.745   1.254
 2060SOL    HW1 6197   3.509   2.656   1.217
 2060SOL    HW2 6198   3.537   2.813   1.181
 2061SOL     OW 6199   3.087   2.187   0.449
 2061SOL    HW1 6200   3.152   2.113   0.438
 2061SOL    HW2 6201   3.107   2.237   0.533
 2062SOL     OW 6202   2.456   2.607   0.652
 2062SOL    HW1 6203   2.506   2.692   0.633
 2062SOL    HW2 6204   2.368   2.609   0.604
 2063SOL     OW 6205   3.639   2.204   1.642
 2063SOL    HW1 6206   3.622   2.235   1.548
 2063SOL    HW2 6207   3.555   2.167   1.680
 2064SOL     OW 6208   3.592   2.796   1.517
 2064SOL    HW1 6209   3.630   2.887   1.532
 2064SOL    HW2 6210   3.584   2.779   1.418
 2065SOL     OW 6211   2.721   3.236   0.016
 2065SOL    HW1 6212   2.675   3.251   0.104
 2065SOL    HW2 6213   2.765   3.321  -0.014
 2066SOL     OW 6214   2.523   3.652   0.953
 2066SOL    HW1 6215   2.477   3.740   0.940
 2066SOL    HW2 6216   2.622   3.664   0.946
 2067SOL     OW 6217   2.721   2.818   0.861
 2067SOL    HW1 6218   2.775   2.749   0.909
 2067SOL    HW2 6219   2.689   2.887   0.927
 2068SOL     OW 6220   2.945   2.846   0.087
 2068SOL    HW1 6221   2.922   2.899   0.005
 2068SOL    HW2 6222   3.026   2.790   0.068
 2069SOL     OW 6223   3.723   3.431   0.851
 2069SOL    HW1 6224   3.652   3.419   0.781
 2069SOL    HW2 6225   3.724   3.352   0.911
 2070SOL     OW 6226   2.083   3.176   1.844
 2070SOL    HW1 6227   2.018   3.103   1.823
 2070SOL    HW2 6228   2.087   3.190   1.942
 2071SOL     OW 6229   1.941   3.102   0.653
 2071SOL    HW1 6230   1.940   3.055   0.741
 2071SOL    HW2 6231   2.023   3.074   0.602
 2072SOL     OW 6232   2.534   3.253   1.624
 2072SOL    HW1 6233   2.456   3.203   1.662
 2072SOL    HW2 6234   2.531   3.348   1.655
 2073SOL     OW 6235   3.686   2.054   1.227
 2073SOL    HW1 6236   3.682   1.964   1.271
 2073SOL    HW2 6237   3.689   2.043   1.128
 2074SOL     OW 6238   2.290   2.286   0.520
 2074SOL    HW1 6239   2.320   2.214   0.458
 2074SOL    HW2 6240   2.251   2.246   0.603
 2075SOL     OW 6241   3.567   3.349   1.104
 2075SOL    HW1 6242   3.474   3.324   1.077
 2075SOL    HW2 6243   3.593   3.299   1.186
 2076SOL     OW 6244   2.179   2.409   1.280
 2076SOL    HW1 6245   2.217   2.350   1.352
 2076SOL    HW2 6246   2.219   2.383   1.192
 2077SOL     OW 6247   2.674   3.448   0.687
 2077SOL    HW1 6248   2.706   3.458   0.593
 2077SOL    HW2 6249   2.595   3.386   0.689
 2078SOL     OW 6250   3.286   2.076   1.112
 2078SOL    HW1 6251   3.338   2.011   1.167
 2078SOL    HW2 6252   3.237   2.139   1.173
 2079SOL     OW 6253   2.863   1.896   1.154
 2079SOL    HW1 6254   2.800   1.824   1.123
 2079SOL    HW2 6255   2.956   1.860   1.154
 2080SOL     OW 6256   2.632   3.192   0.301
 2080SOL    HW1 6257   2.586   3.105   0.318
 2080SOL    HW2 6258   2.723   3.189   0.342
 2081SOL     OW 6259   2.480   3.429   1.284
 2081SOL    HW1 6260   2.475   3.511   1.341
 2081SOL    HW2 6261   2.569   3.426   1.239
 2082SOL     OW 6262   3.214   1.914   0.168
 2082SOL    HW1 6263   3.249   1.873   0.084
 2082SOL    HW2 6264   3.124   1.876   0.188
 2083SOL     OW 6265   3.162   2.315   0.691
 2083SOL    HW1 6266   3.103   2.395   0.695
 2083SOL    HW2 6267   3.177   2.280   0.784
 2084SOL     OW 6268   3.455   2.083   0.882
 2084SOL    HW1 6269   3.371   2.082   0.936
 2084SOL    HW2 6270   3.457   2.166   0.826
 2085SOL     OW 6271   1.901   2.939   0.300
 2085SOL    HW1 6272   2.000   2.928   0.291
 2085SOL    HW2 6273   1.861   2.853   0.332
 2086SOL     OW 6274   2.737   3.508   0.337
 2086SOL    HW1 6275   2.660   3.473   0.283
 2086SOL    HW2 6276   2.705   3.579   0.399
 2087SOL     OW 6277   2.092   2.490   1.975
 2087SOL    HW1 6278   1.999   2.488   2.012
 2087SOL    HW2 6279   2.093   2.451   1.883
 2088SOL     OW 6280   2.087   2.137   2.858
 2088SOL    HW1 6281   2.122   2.120   2.950
 2088SOL    HW2 6282   1.999   2.092   2.846
 2089SOL     OW 6283   1.881   2.230   2.509
 2089SOL    HW1 6284   1.799   2.273   2.548
 2089SOL    HW2 6285   1.853   2.157   2.446
 2090SOL     OW 6286   2.431   3.137   3.027
 2090SOL    HW1 6287   2.338   3.130   2.990
 2090SOL    HW2 6288   2.442   3.226   3.071
 2091SOL     OW 6289   3.417   3.373   2.565
 2091SOL    HW1 6290   3.360   3.357   2.646
 2091SOL    HW2 6291   3.358   3.383   2.485
 2092SOL     OW 6292   2.997   2.565   2.579
 2092SOL    HW1 6293   3.054   2.643   2.554
 2092SOL    HW2 6294   2.937   2.591   2.655
 2093SOL     OW 6295   3.617   2.469   2.093
 2093SOL    HW1 6296   3.605   2.456   1.994
 2093SOL    HW2 6297   3.587   2.388   2.142
 2094SOL     OW 6298   2.630   3.006   2.885
 2094SOL    HW1 6299   2.552   3.023   2.945
 2094SOL    HW2 6300   2.664   3.093   2.849
 2095SOL     OW 6301   2.712   2.660   3.685
 2095SOL    HW1 6302   2.708   2.736   3.750
 2095SOL    HW2 6303   2.734   2.696   3.594
 2096SOL     OW 6304   2.547   2.874   2.527
 2096SOL    HW1 6305   2.616   2.858   2.597
 2096SOL    HW2 6306   2.474   2.931   2.565
 2097SOL     OW 6307   2.548   3.023   3.665
 2097SOL    HW1 6308   2.608   3.102   3.679
 2097SOL    HW2 6309   2.462   3.054   3.624
 2098SOL     OW 6310   2.197   3.297   2.923
 2098SOL    HW1 6311   2.119   3.266   2.870
 2098SOL    HW2 6312   2.255   3.355   2.866
 2099SOL     OW 6313   3.322   3.367   3.201
 2099SOL    HW1 6314   3.346   3.461   3.227
 2099SOL    HW2 6315   3.306   3.313   3.283
 2100SOL     OW 6316   2.300   2.254   3.361
 2100SOL    HW1 6317   2.382   2.198   3.370
 2100SOL    HW2 6318   2.219   2.196   3.365
 2101SOL     OW 6319   3.465   2.309   2.599
 2101SOL    HW1 6320   3.391   2.355   2.549
 2101SOL    HW2 6321   3.516   2.377   2.652
 2102SOL     OW 6322   2.093   3.575   2.345
 2102SOL    HW1 6323   2.127   3.652   2.399
 2102SOL    HW2 6324   2.137   3.575   2.255
 2103SOL     OW 6325   2.989   3.203   3.552
 2103SOL    HW1 6326   3.036   3.203   3.640
 2103SOL    HW2 6327   2.941   3.116   3.541
 2104SOL     OW 6328   2.092   3.296   2.400
 2104SOL    HW1 6329   2.066   3.392   2.400
 2104SOL    HW2 6330   2.021   3.242   2.445
 2105SOL     OW 6331   2.102   2.953   2.748
 2105SOL    HW1 6332   2.116   2.869   2.800
 2105SOL    HW2 6333   2.047   3.017   2.803
 2106SOL     OW 6334   2.482   3.648   3.301
 2106SOL    HW1 6335   2.390   3.631   3.336
 2106SOL    HW2 6336   2.510   3.740   3.327
 2107SOL     OW 6337   2.468   2.826   1.985
 2107SOL    HW1 6338   2.475   2.910   1.931
 2107SOL    HW2 6339   2.514   2.839   2.073
 2108SOL     OW 6340   3.456   1.976   3.342
 2108SOL    HW1 6341   3.438   2.043   3.270
 2108SOL    HW2 6342   3.453   2.022   3.431
 2109SOL     OW 6343   3.704   3.629   2.221
 2109SOL    HW1 6344   3.758   3.600   2.301
 2109SOL    HW2 6345   3.734   3.719   2.192
 2110SOL     OW 6346   1.889   3.458   1.979
 2110SOL    HW1 6347   1.870   3.362   2.000
 2110SOL    HW2 6348   1.856   3.516   2.054
 2111SOL     OW 6349   3.551   2.784   2.474
 2111SOL    HW1 6350   3.646   2.755   2.482
 2111SOL    HW2 6351   3.543   2.849   2.399
 2112SOL     OW 6352   3.503   2.970   2.294
 2112SOL    HW1 6353   3.589   2.972   2.242
 2112SOL    HW2 6354   3.517   3.017   2.382
 2113SOL     OW 6355   1.975   2.599   3.459
 2113SOL    HW1 6356   2.063   2.586   3.504
 2113SOL    HW2 6357   1.962   2.696   3.437
 2114SOL     OW 6358   2.475   3.227   2.588
 2114SOL    HW1 6359   2.426   3.140   2.597
 2114SOL    HW2 6360   2.452   3.270   2.501
 2115SOL     OW 6361   3.155   3.090   3.285
 2115SOL    HW1 6362   3.192   3.017   3.227
 2115SOL    HW2 6363   3.207   3.095   3.370
 2116SOL     OW 6364   2.671   1.866   2.364
 2116SOL    HW1 6365   2.711   1.957   2.355
 2116SOL    HW2 6366   2.571   1.874   2.370
 2117SOL     OW 6367   2.059   2.838   3.126
 2117SOL    HW1 6368   2.148   2.793   3.112
 2117SOL    HW2 6369   1.986   2.773   3.107
 2118SOL     OW 6370   3.387   2.861   2.052
 2118SOL    HW1 6371   3.324   2.785   2.065
 2118SOL    HW2 6372   3.435   2.879   2.138
 2119SOL     OW 6373   3.049   3.654   3.478
 2119SOL    HW1 6374   3.073   3.714   3.402
 2119SOL    HW2 6375   3.056   3.559   3.448
 2120SOL     OW 6376   2.179   2.113   3.663
 2120SOL    HW1 6377   2.250   2.184   3.669
 2120SOL    HW2 6378   2.091   2.152   3.691
 2121SOL     OW 6379   3.328   3.279   2.815
 2121SOL    HW1 6380   3.269   3.285   2.895
 2121SOL    HW2 6381   3.313   3.191   2.769
 2122SOL     OW 6382   3.529   3.576   2.434
 2122SOL    HW1 6383   3.488   3.553   2.346
 2122SOL    HW2 6384   3.511   3.502   2.499
 2123SOL     OW 6385   2.460   2.591   2.132
 2123SOL    HW1 6386   2.484   2.660   2.064
 2123SOL    HW2 6387   2.382   2.624   2.186
 2124SOL     OW 6388   3.143   2.207   2.806
 2124SOL    HW1 6389   3.057   2.157   2.793
 2124SOL    HW2 6390   3.205   2.153   2.862
 2125SOL     OW 6391   3.438   3.524   2.169
 2125SOL    HW1 6392   3.527   3.570   2.172
 2125SOL    HW2 6393   3.417   3.500   2.074
 2126SOL     OW 6394   2.669   2.467   3.327
 2126SOL    HW1 6395   2.622   2.464   3.416
 2126SOL    HW2 6396   2.618   2.412   3.261
 2127SOL     OW 6397   3.256   2.331   3.536
 2127SOL    HW1 6398   3.236   2.374   3.624
 2127SOL    HW2 6399   3.334   2.269   3.545
 2128SOL     OW 6400   2.835   2.752   3.434
 2128SOL    HW1 6401   2.881   2.668   3.405
 2128SOL    HW2 6402   2.779   2.786   3.359
 2129SOL     OW 6403   2.853   2.272   3.104
 2129SOL    HW1 6404   2.776   2.306   3.158
 2129SOL    HW2 6405   2.819   2.221   3.025
 2130SOL     OW 6406   2.903   2.563   2.291
 2130SOL    HW1 6407   2.929   2.559   2.387
 2130SOL    HW2 6408   2.818   2.512   2.277
 2131SOL     OW 6409   1.938   2.673   2.651
 2131SOL    HW1 6410   2.037   2.661   2.660
 2131SOL    HW2 6411   1.914   2.768   2.672
 2132SOL     OW 6412   1.992   3.683   3.433
 2132SOL    HW1 6413   1.982   3.668   3.532
 2132SOL    HW2 6414   1.906   3.719   3.397
 2133SOL     OW 6415   3.581   2.447   3.693
 2133SOL    HW1 6416   3.555   2.536   3.657
 2133SOL    HW2 6417   3.579   2.379   3.620
 2134SOL     OW 6418   3.224   3.006   2.407
 2134SOL    HW1 6419   3.307   2.977   2.359
 2134SOL    HW2 6420   3.175   3.073   2.351
 2135SOL     OW 6421   2.412   2.058   2.747
 2135SOL    HW1 6422   2.407   2.053   2.847
 2135SOL    HW2 6423   2.414   2.154   2.718
 2136SOL     OW 6424   2.870   3.318   2.339
 2136SOL    HW1 6425   2.824   3.390   2.287
 2136SOL    HW2 6426   2.866   3.338   2.437
 2137SOL     OW 6427   2.213   3.663   2.715
 2137SOL    HW1 6428   2.263   3.577   2.721
 2137SOL    HW2 6429   2.278   3.740   2.712
 2138SOL     OW 6430   3.657   2.928   2.735
 2138SOL    HW1 6431   3.595   2.913   2.659
 2138SOL    HW2 6432   3.605   2.939   2.820
 2139SOL     OW 6433   3.089   3.412   3.368
 2139SOL    HW1 6434   3.095   3.335   3.432
 2139SOL    HW2 6435   3.037   3.386   3.288
 2140SOL     OW 6436   2.183   2.805   2.104
 2140SOL    HW1 6437   2.265   2.844   2.062
 2140SOL    HW2 6438   2.156   2.723   2.055
 2141SOL     OW 6439   3.320   2.597   2.590
 2141SOL    HW1 6440   3.315   2.532   2.665
 2141SOL    HW2 6441   3.400   2.656   2.603
 2142SOL     OW 6442   2.323   3.128   3.589
 2142SOL    HW1 6443   2.273   3.129   3.503
 2142SOL    HW2 6444   2.260   3.110   3.665
 2143SOL     OW 6445   2.973   3.638   2.099
 2143SOL    HW1 6446   2.913   3.576   2.149
 2143SOL    HW2 6447   3.004   3.594   2.014
 2144SOL     OW 6448   2.064   2.147   3.360
 2144SOL    HW1 6449   1.984   2.207   3.347
 2144SOL    HW2 6450   2.054   2.098   3.446
 2145SOL     OW 6451   3.494   3.239   1.943
 2145SOL    HW1 6452   3.462   3.333   1.933
 2145SOL    HW2 6453   3.418   3.176   1.931
 2146SOL     OW 6454   2.326   3.605   2.185
 2146SOL    HW1 6455   2.359   3.644   2.271
 2146SOL    HW2 6456   2.402   3.598   2.120
 2147SOL     OW 6457   3.262   1.969   2.288
 2147SOL    HW1 6458   3.238   1.932   2.198
 2147SOL    HW2 6459   3.361   1.985   2.292
 2148SOL     OW 6460   2.111   3.647   3.103
 2148SOL    HW1 6461   2.168   3.582   3.153
 2148SOL    HW2 6462   2.095   3.614   3.010
 2149SOL     OW 6463   2.802   3.560   2.766
 2149SOL    HW1 6464   2.882   3.503   2.787
 2149SOL    HW2 6465   2.753   3.520   2.689
 2150SOL     OW 6466   3.409   2.084   3.591
 2150SOL    HW1 6467   3.404   2.121   3.683
 2150SOL    HW2 6468   3.337   2.015   3.579
 2151SOL     OW 6469   2.476   1.984   1.979
 2151SOL    HW1 6470   2.574   1.962   1.986
 2151SOL    HW2 6471   2.445   1.967   1.886
 2152SOL     OW 6472   2.643   2.126   3.611
 2152SOL    HW1 6473   2.710   2.065   3.654
 2152SOL    HW2 6474   2.570   2.145   3.676
 2153SOL     OW 6475   2.750   3.376   3.057
 2153SOL    HW1 6476   2.727   3.351   2.963
 2153SOL    HW2 6477   2.811   3.307   3.096
 2154SOL     OW 6478   3.213   2.452   3.295
 2154SOL    HW1 6479   3.241   2.409   3.380
 2154SOL    HW2 6480   3.238   2.548   3.296
 2155SOL     OW 6481   2.665   3.264   2.786
 2155SOL    HW1 6482   2.755   3.278   2.744
 2155SOL    HW2 6483   2.594   3.266   2.715
 2156SOL     OW 6484   2.784   2.365   2.761
 2156SOL    HW1 6485   2.759   2.356   2.665
 2156SOL    HW2 6486   2.832   2.283   2.792
 2157SOL     OW 6487   2.401   1.926   2.374
 2157SOL    HW1 6488   2.320   1.927   2.432
 2157SOL    HW2 6489   2.404   2.009   2.319
 2158SOL     OW 6490   3.296   3.050   1.903
 2158SOL    HW1 6491   3.328   2.974   1.960
 2158SOL    HW2 6492   3.204   3.077   1.933
 2159SOL     OW 6493   2.159   1.897   2.033
 2159SOL    HW1 6494   2.208   1.981   2.012
 2159SOL    HW2 6495   2.221   1.832   2.078
 2160SOL     OW 6496   2.797   2.098   2.342
 2160SOL    HW1 6497   2.749   2.139   2.264
 2160SOL    HW2 6498   2.896   2.096   2.323
 2161SOL     OW 6499   2.938   2.545   3.326
 2161SOL    HW1 6500   2.858   2.484   3.329
 2161SOL    HW2 6501   3.019   2.492   3.302
 2162SOL     OW 6502   3.089   3.432   2.655
 2162SOL    HW1 6503   3.110   3.506   2.590
 2162SOL    HW2 6504   3.157   3.432   2.728
 2163SOL     OW 6505   2.321   3.014   2.603
 2163SOL    HW1 6506   2.250   2.987   2.668
 2163SOL    HW2 6507   2.295   2.986   2.510
 2164SOL     OW 6508   3.133   3.659   2.453
 2164SOL    HW1 6509   3.177   3.723   2.389
 2164SOL    HW2 6510   3.083   3.711   2.523
 2165SOL     OW 6511   2.894   2.411   1.878
 2165SOL    HW1 6512   2.853   2.493   1.839
 2165SOL    HW2 6513   2.958   2.437   1.951
 2166SOL     OW 6514   1.940   2.418   3.248
 2166SOL    HW1 6515   2.032   2.417   3.207
 2166SOL    HW2 6516   1.934   2.492   3.315
 2167SOL     OW 6517   2.423   2.084   3.009
 2167SOL    HW1 6518   2.461   2.000   3.046
 2167SOL    HW2 6519   2.335   2.103   3.053
 2168SOL     OW 6520   2.728   2.316   2.504
 2168SOL    HW1 6521   2.696   2.388   2.442
 2168SOL    HW2 6522   2.752   2.235   2.451
 2169SOL     OW 6523   2.879   1.901   2.615
 2169SOL    HW1 6524   2.807   1.906   2.546
 2169SOL    HW2 6525   2.855   1.832   2.684
 2170SOL     OW 6526   3.291   3.035   2.729
 2170SOL    HW1 6527   3.236   2.951   2.722
 2170SOL    HW2 6528   3.317   3.064   2.637
 2171SOL     OW 6529   3.328   2.452   2.854
 2171SOL    HW1 6530   3.298   2.357   2.861
 2171SOL    HW2 6531   3.401   2.468   2.920
 2172SOL     OW 6532   3.719   2.695   2.239
 2172SOL    HW1 6533   3.761   2.631   2.303
 2172SOL    HW2 6534   3.681   2.644   2.161
 2173SOL     OW 6535   2.350   3.247   2.036
 2173SOL    HW1 6536   2.263   3.232   2.083
 2173SOL    HW2 6537   2.333   3.273   1.941
 2174SOL     OW 6538   3.526   3.142   2.519
 2174SOL    HW1 6539   3.625   3.150   2.533
 2174SOL    HW2 6540   3.481   3.226   2.550
 2175SOL     OW 6541   3.252   2.437   1.940
 2175SOL    HW1 6542   3.198   2.416   2.021
 2175SOL    HW2 6543   3.343   2.396   1.949
 2176SOL     OW 6544   3.616   3.085   3.450
 2176SOL    HW1 6545   3.707   3.046   3.437
 2176SOL    HW2 6546   3.624   3.181   3.474
 2177SOL     OW 6547   2.926   3.209   3.202
 2177SOL    HW1 6548   2.846   3.186   3.257
 2177SOL    HW2 6549   3.009   3.183   3.251
 2178SOL     OW 6550   3.454   3.491   3.487
 2178SOL    HW1 6551   3.481   3.525   3.397
 2178SOL    HW2 6552   3.533   3.453   3.533
 2179SOL     OW 6553   2.973   3.057   2.962
 2179SOL    HW1 6554   2.933   3.101   3.043
 2179SOL    HW2 6555   2.932   3.094   2.879
 2180SOL     OW 6556   3.500   2.961   2.941
 2180SOL    HW1 6557   3.505   3.042   3.000
 2180SOL    HW2 6558   3.414   2.963   2.890
 2181SOL     OW 6559   2.777   1.951   3.264
 2181SOL    HW1 6560   2.802   1.931   3.169
 2181SOL    HW2 6561   2.849   2.007   3.306
 2182SOL     OW 6562   2.842   2.978   3.581
 2182SOL    HW1 6563   2.743   2.984   3.591
 2182SOL    HW2 6564   2.865   2.898   3.525
 2183SOL     OW 6565   2.567   2.912   2.230
 2183SOL    HW1 6566   2.553   2.919   2.329
 2183SOL    HW2 6567   2.651   2.861   2.212
 2184SOL     OW 6568   2.272   2.675   3.113
 2184SOL    HW1 6569   2.358   2.687   3.163
 2184SOL    HW2 6570   2.230   2.588   3.140
 2185SOL     OW 6571   3.136   2.248   3.124
 2185SOL    HW1 6572   3.157   2.322   3.188
 2185SOL    HW2 6573   3.047   2.265   3.081
 2186SOL     OW 6574   1.926   3.426   3.193
 2186SOL    HW1 6575   1.880   3.508   3.159
 2186SOL    HW2 6576   2.024   3.445   3.202
 2187SOL     OW 6577   2.229   2.962   2.363
 2187SOL    HW1 6578   2.222   3.045   2.307
 2187SOL    HW2 6579   2.233   2.882   2.303
 2188SOL     OW 6580   3.114   3.210   2.250
 2188SOL    HW1 6581   3.164   3.287   2.290
 2188SOL    HW2 6582   3.019   3.212   2.282
 2189SOL     OW 6583   3.134   3.307   3.004
 2189SOL    HW1 6584   3.181   3.320   3.091
 2189SOL    HW2 6585   3.068   3.233   3.013
 2190SOL     OW 6586   3.444   2.501   2.334
 2190SOL    HW1 6587   3.413   2.562   2.407
 2190SOL    HW2 6588   3.494   2.553   2.265
 2191SOL     OW 6589   2.216   3.372   3.191
 2191SOL    HW1 6590   2.195   3.328   3.104
 2191SOL    HW2 6591   2.313   3.398   3.194
 2192SOL     OW 6592   2.264   2.613   3.460
 2192SOL    HW1 6593   2.332   2.668   3.413
 2192SOL    HW2 6594   2.304   2.525   3.487
 2193SOL     OW 6595   3.449   2.641   3.532
 2193SOL    HW1 6596   3.357   2.679   3.527
 2193SOL    HW2 6597   3.509   2.688   3.467
 2194SOL     OW 6598   2.875   1.967   3.632
 2194SOL    HW1 6599   2.881   2.052   3.580
 2194SOL    HW2 6600   2.907   1.891   3.575
 2195SOL     OW 6601   2.366   1.912   3.602
 2195SOL    HW1 6602   2.324   1.855   3.532
 2195SOL    HW2 6603   2.300   1.981   3.634
 2196SOL     OW 6604   2.435   2.732   2.891
 2196SOL    HW1 6605   2.479   2.821   2.882
 2196SOL    HW2 6606   2.372   2.732   2.968
 2197SOL     OW 6607   3.222   2.724   2.907
 2197SOL    HW1 6608   3.147   2.724   2.841
 2197SOL    HW2 6609   3.259   2.632   2.916
 2198SOL     OW 6610   3.071   2.387   2.137
 2198SOL    HW1 6611   3.084   2.303   2.191
 2198SOL    HW2 6612   3.042   2.461   2.197
 2199SOL     OW 6613   2.169   2.075   3.093
 2199SOL    HW1 6614   2.146   2.112   3.183
 2199SOL    HW2 6615   2.139   1.980   3.087
 2200SOL     OW 6616   1.899   3.172   3.144
 2200SOL    HW1 6617   1.952   3.123   3.212
 2200SOL    HW2 6618   1.921   3.270   3.149
 2201SOL     OW 6619   2.594   2.496   2.926
 2201SOL    HW1 6620   2.653   2.470   2.850
 2201SOL    HW2 6621   2.566   2.592   2.915
 2202SOL     OW 6622   3.590   2.797   3.716
 2202SOL    HW1 6623   3.544   2.790   3.627
 2202SOL    HW2 6624   3.528   2.841   3.782
 2203SOL     OW 6625   2.169   1.925   2.480
 2203SOL    HW1 6626   2.158   2.019   2.513
 2203SOL    HW2 6627   2.164   1.862   2.557
 2204SOL     OW 6628   3.484   2.229   2.236
 2204SOL    HW1 6629   3.486   2.153   2.300
 2204SOL    HW2 6630   3.436   2.306   2.276
 2205SOL     OW 6631   2.885   2.628   2.828
 2205SOL    HW1 6632   2.900   2.649   2.924
 2205SOL    HW2 6633   2.855   2.533   2.819
 2206SOL     OW 6634   2.842   3.435   3.562
 2206SOL    HW1 6635   2.822   3.479   3.474
 2206SOL    HW2 6636   2.881   3.344   3.546
 2207SOL     OW 6637   3.721   3.380   3.467
 2207SOL    HW1 6638   3.735   3.407   3.372
 2207SOL    HW2 6639   3.804   3.402   3.520
 2208SOL     OW 6640   2.212   2.760   3.666
 2208SOL    HW1 6641   2.288   2.804   3.714
 2208SOL    HW2 6642   2.247   2.713   3.584
 2209SOL     OW 6643   3.402   2.136   1.987
 2209SOL    HW1 6644   3.341   2.061   2.010
 2209SOL    HW2 6645   3.424   2.188   2.070
 2210SOL     OW 6646   3.165   2.700   1.904
 2210SOL    HW1 6647   3.199   2.607   1.919
 2210SOL    HW2 6648   3.183   2.727   1.809
 2211SOL     OW 6649   2.930   3.195   2.711
 2211SOL    HW1 6650   2.937   3.111   2.656
 2211SOL    HW2 6651   2.992   3.264   2.675
 2212SOL     OW 6652   2.181   2.672   2.811
 2212SOL    HW1 6653   2.274   2.708   2.816
 2212SOL    HW2 6654   2.175   2.587   2.863
 2213SOL     OW 6655   2.201   2.371   2.868
 2213SOL    HW1 6656   2.149   2.288   2.851
 2213SOL    HW2 6657   2.278   2.376   2.804
 2214SOL     OW 6658   3.000   2.242   3.540
 2214SOL    HW1 6659   2.955   2.305   3.604
 2214SOL    HW2 6660   3.093   2.273   3.523
 2215SOL     OW 6661   3.022   2.069   3.339
 2215SOL    HW1 6662   3.022   2.133   3.416
 2215SOL    HW2 6663   3.050   2.117   3.256
 2216SOL     OW 6664   1.870   3.188   2.062
 2216SOL    HW1 6665   1.777   3.209   2.031
 2216SOL    HW2 6666   1.880   3.089   2.075
 2217SOL     OW 6667   1.950   3.663   2.789
 2217SOL    HW1 6668   1.908   3.577   2.762
 2217SOL    HW2 6669   2.044   3.666   2.755
 2218SOL     OW 6670   2.366   3.430   2.772
 2218SOL    HW1 6671   2.432   3.504   2.781
 2218SOL    HW2 6672   2.410   3.351   2.730
 2219SOL     OW 6673   2.864   2.658   3.100
 2219SOL    HW1 6674   2.905   2.626   3.186
 2219SOL    HW2 6675   2.768   2.631   3.097
 2220SOL     OW 6676   1.902   2.406   2.976
 2220SOL    HW1 6677   1.987   2.373   2.935
 2220SOL    HW2 6678   1.915   2.421   3.074
 2221SOL     OW 6679   2.051   2.382   3.584
 2221SOL    HW1 6680   2.110   2.342   3.514
 2221SOL    HW2 6681   1.993   2.453   3.543
 2222SOL     OW 6682   3.231   2.812   3.522
 2222SOL    HW1 6683   3.270   2.901   3.542
 2222SOL    HW2 6684   3.241   2.792   3.425
 2223SOL     OW 6685   2.677   2.434   2.187
 2223SOL    HW1 6686   2.684   2.345   2.141
 2223SOL    HW2 6687   2.583   2.468   2.179
 2224SOL     OW 6688   3.519   2.466   3.068
 2224SOL    HW1 6689   3.481   2.397   3.130
 2224SOL    HW2 6690   3.601   2.430   3.024
 2225SOL     OW 6691   2.114   3.426   3.606
 2225SOL    HW1 6692   2.084   3.483   3.682
 2225SOL    HW2 6693   2.107   3.329   3.632
 2226SOL     OW 6694   2.533   2.326   3.131
 2226SOL    HW1 6695   2.499   2.237   3.101
 2226SOL    HW2 6696   2.559   2.380   3.051
 2227SOL     OW 6697   2.792   3.540   3.327
 2227SOL    HW1 6698   2.768   3.522   3.232
 2227SOL    HW2 6699   2.822   3.634   3.337
 2228SOL     OW 6700   2.021   2.999   3.328
 2228SOL    HW1 6701   2.043   2.938   3.404
 2228SOL    HW2 6702   2.031   2.950   3.242
 2229SOL     OW 6703   3.209   2.921   3.096
 2229SOL    HW1 6704   3.233   2.858   3.022
 2229SOL    HW2 6705   3.119   2.961   3.078
 2230SOL     OW 6706   3.164   2.717   2.171
 2230SOL    HW1 6707   3.078   2.686   2.213
 2230SOL    HW2 6708   3.160   2.703   2.072
 2231SOL     OW 6709   3.621   3.609   3.016
 2231SOL    HW1 6710   3.682   3.639   2.943
 2231SOL    HW2 6711   3.583   3.520   2.994
 2232SOL     OW 6712   3.114   3.593   2.990
 2232SOL    HW1 6713   3.198   3.598   2.936
 2232SOL    HW2 6714   3.091   3.497   3.008
 2233SOL     OW 6715   1.945   3.120   2.884
 2233SOL    HW1 6716   1.940   3.119   2.984
 2233SOL    HW2 6717   1.862   3.079   2.846
 2234SOL     OW 6718   2.550   3.524   3.578
 2234SOL    HW1 6719   2.494   3.605   3.587
 2234SOL    HW2 6720   2.602   3.528   3.492
 2235SOL     OW 6721   3.588   1.997   2.385
 2235SOL    HW1 6722   3.661   1.980   2.318
 2235SOL    HW2 6723   3.557   1.910   2.423
 2236SOL     OW 6724   3.250   3.435   2.339
 2236SOL    HW1 6725   3.317   3.447   2.265
 2236SOL    HW2 6726   3.210   3.524   2.362
 2237SOL     OW 6727   1.992   3.656   3.713
 2237SOL    HW1 6728   1.951   3.582   3.766
 2237SOL    HW2 6729   2.056   3.707   3.771
 2238SOL     OW 6730   3.142   2.789   2.534
 2238SOL    HW1 6731   3.202   2.708   2.536
 2238SOL    HW2 6732   3.182   2.858   2.474
 2239SOL     OW 6733   2.692   3.135   3.284
 2239SOL    HW1 6734   2.687   3.168   3.379
 2239SOL    HW2 6735   2.606   3.154   3.238
 2240SOL     OW 6736   2.534   3.478   2.016
 2240SOL    HW1 6737   2.543   3.488   1.917
 2240SOL    HW2 6738   2.494   3.389   2.037
 2241SOL     OW 6739   3.512   3.582   3.256
 2241SOL    HW1 6740   3.565   3.592   3.172
 2241SOL    HW2 6741   3.485   3.672   3.290
 2242SOL     OW 6742   3.703   2.037   2.825
 2242SOL    HW1 6743   3.742   1.952   2.789
 2242SOL    HW2 6744   3.605   2.039   2.806
 2243SOL     OW 6745   2.125   2.188   2.582
 2243SOL    HW1 6746   2.046   2.239   2.548
 2243SOL    HW2 6747   2.116   2.173   2.680
 2244SOL     OW 6748   3.056   3.474   1.893
 2244SOL    HW1 6749   3.062   3.381   1.930
 2244SOL    HW2 6750   2.997   3.474   1.813
 2245SOL     OW 6751   2.684   2.864   3.234
 2245SOL    HW1 6752   2.724   2.863   3.142
 2245SOL    HW2 6753   2.694   2.956   3.274
 2246SOL     OW 6754   2.778   2.772   2.153
 2246SOL    HW1 6755   2.841   2.810   2.085
 2246SOL    HW2 6756   2.818   2.689   2.192
 2247SOL     OW 6757   3.366   3.469   1.906
 2247SOL    HW1 6758   3.274   3.506   1.913
 2247SOL    HW2 6759   3.404   3.489   1.816
 2248SOL     OW 6760   2.234   3.150   3.352
 2248SOL    HW1 6761   2.221   3.243   3.318
 2248SOL    HW2 6762   2.150   3.098   3.339
 2249SOL     OW 6763   3.476   3.154   3.151
 2249SOL    HW1 6764   3.536   3.157   3.231
 2249SOL    HW2 6765   3.401   3.218   3.164
 2250SOL     OW 6766   2.901   2.960   2.558
 2250SOL    HW1 6767   2.831   2.913   2.612
 2250SOL    HW2 6768   2.960   2.892   2.515
 2251SOL     OW 6769   2.876   2.098   2.833
 2251SOL    HW1 6770   2.868   2.062   2.740
 2251SOL    HW2 6771   2.874   2.022   2.898
 2252SOL     OW 6772   2.452   3.349   2.353
 2252SOL    HW1 6773   2.494   3.291   2.283
 2252SOL    HW2 6774   2.408   3.428   2.309
 2253SOL     OW 6775   3.571   2.247   3.243
 2253SOL    HW1 6776   3.644   2.316   3.247
 2253SOL    HW2 6777   3.599   2.172   3.184
 2254SOL     OW 6778   2.117   3.210   2.152
 2254SOL    HW1 6779   2.021   3.211   2.125
 2254SOL    HW2 6780   2.129   3.263   2.236
 2255SOL     OW 6781   1.967   2.875   3.588
 2255SOL    HW1 6782   1.890   2.842   3.642
 2255SOL    HW2 6783   2.052   2.845   3.630
 2256SOL     OW 6784   2.534   2.065   3.351
 2256SOL    HW1 6785   2.624   2.049   3.311
 2256SOL    HW2 6786   2.542   2.070   3.450
 2257SOL     OW 6787   1.937   2.207   1.895
 2257SOL    HW1 6788   1.845   2.179   1.866
 2257SOL    HW2 6789   1.968   2.284   1.839
 2258SOL     OW 6790   3.302   2.718   3.260
 2258SOL    HW1 6791   3.245   2.770   3.197
 2258SOL    HW2 6792   3.398   2.730   3.236
 2259SOL     OW 6793   1.934   2.028   2.180
 2259SOL    HW1 6794   1.917   2.111   2.126
 2259SOL    HW2 6795   2.024   1.991   2.158
 2260SOL     OW 6796   3.045   3.197   1.981
 2260SOL    HW1 6797   2.946   3.186   1.983
 2260SOL    HW2 6798   3.079   3.212   2.074
 2261SOL     OW 6799   2.475   2.704   3.293
 2261SOL    HW1 6800   2.531   2.785   3.276
 2261SOL    HW2 6801   2.534   2.624   3.296
 2262SOL     OW 6802   3.355   3.629   2.821
 2262SOL    HW1 6803   3.388   3.693   2.752
 2262SOL    HW2 6804   3.421   3.623   2.896
 2263SOL     OW 6805   2.578   2.427   3.570
 2263SOL    HW1 6806   2.597   2.492   3.644
 2263SOL    HW2 6807   2.638   2.347   3.579
 2264SOL     OW 6808   3.312   3.082   3.495
 2264SOL    HW1 6809   3.303   3.072   3.594
 2264SOL    HW2 6810   3.408   3.075   3.469
 2265SOL     OW 6811   2.252   3.603   3.422
 2265SOL    HW1 6812   2.161   3.644   3.420
 2265SOL    HW2 6813   2.245   3.509   3.454
 2266SOL     OW 6814   3.536   2.745   3.116
 2266SOL    HW1 6815   3.509   2.656   3.079
 2266SOL    HW2 6816   3.537   2.813   3.043
 2267SOL     OW 6817   3.087   2.187   2.311
 2267SOL    HW1 6818   3.152   2.113   2.300
 2267SOL    HW2 6819   3.107   2.237   2.395
 2268SOL     OW 6820   3.639   2.204   3.504
 2268SOL    HW1 6821   3.622   2.235   3.410
 2268SOL    HW2 6822   3.555   2.167   3.542
 2269SOL     OW 6823   3.592   2.796   3.379
 2269SOL    HW1 6824   3.630   2.887   3.394
 2269SOL    HW2 6825   3.584   2.779   3.280
 2270SOL     OW 6826   2.721   3.236   1.878
 2270SOL    HW1 6827   2.675   3.251   1.966
 2270SOL    HW2 6828   2.765   3.321   1.848
 2271SOL     OW 6829   2.523   3.652   2.815
 2271SOL    HW1 6830   2.477   3.740   2.802
 2271SOL    HW2 6831   2.622   3.664   2.808
 2272SOL     OW 6832   2.721   2.818   2.723
 2272SOL    HW1 6833   2.775   2.749   2.771
 2272SOL    HW2 6834   2.689   2.887   2.789
 2273SOL     OW 6835   2.945   2.846   1.949
 2273SOL    HW1 6836   2.922   2.899   1.867
 2273SOL    HW2 6837   3.026   2.790   1.930
 2274SOL     OW 6838   3.723   3.431   2.713
 2274SOL    HW1 6839   3.652   3.419   2.643
 2274SOL    HW2 6840   3.724   3.352   2.773
 2275SOL     OW 6841   2.083   3.176   3.706
 2275SOL    HW1 6842   2.018   3.103   3.685
 2275SOL    HW2 6843   2.087   3.190   3.804
 2276SOL     OW 6844   1.941   3.102   2.515
 2276SOL    HW1 6845   1.940   3.055   2.603
 2276SOL    HW2 6846   2.023   3.074   2.464
 2277SOL     OW 6847   2.534   3.253   3.486
 2277SOL    HW1 6848   2.456   3.203   3.524
 2277SOL    HW2 6849   2.531   3.348   3.517
 2278SOL     OW 6850   3.686   2.054   3.089
 2278SOL    HW1 6851   3.682   1.964   3.133
 2278SOL    HW2 6852   3.689   2.043   2.990
 2279SOL     OW 6853   3.567   3.349   2.966
 2279SOL    HW1 6854   3.474   3.324   2.939
 2279SOL    HW2 6855   3.593   3.299   3.048
 2280SOL     OW 6856   2.179   2.409   3.142
 2280SOL    HW1 6857   2.217   2.350   3.214
 2280SOL    HW2 6858   2.219   2.383   3.054
 2281SOL     OW 6859   2.674   3.448   2.549
 2281SOL    HW1 6860   2.706   3.458   2.455
 2281SOL    HW2 6861   2.595   3.386   2.551
 2282SOL     OW 6862   3.286   2.076   2.974
 2282SOL    HW1 6863   3.338   2.011   3.029
 2282SOL    HW2 6864   3.237   2.139   3.035
 2283SOL     OW 6865   2.863   1.896   3.016
 2283SOL    HW1 6866   2.800   1.824   2.985
 2283SOL    HW2 6867   2.956   1.860   3.016
 2284SOL     OW 6868   2.632   3.192   2.163
 2284SOL    HW1 6869   2.586   3.105   2.180
 2284SOL    HW2 6870   2.723   3.189   2.204
 2285SOL     OW 6871   2.480   3.429   3.146
 2285SOL    HW1 6872   2.475   3.511   3.203
 2285SOL    HW2 6873   2.569   3.426   3.101
 2286SOL     OW 6874   3.214   1.914   2.030
 2286SOL    HW1 6875   3.249   1.873   1.946
 2286SOL    HW2 6876   3.124   1.876   2.050
 2287SOL     OW 6877   3.162   2.315   2.553
 2287SOL    HW1 6878   3.103   2.395   2.557
 2287SOL    HW2 6879   3.177   2.280   2.646
 2288SOL     OW 6880   3.455   2.083   2.744
 2288SOL    HW1 6881   3.371   2.082   2.798
 2288SOL    HW2 6882   3.457   2.166   2.688
 2289SOL     OW 6883   1.901   2.939   2.162
 2289SOL    HW1 6884   2.000   2.928   2.153
 2289SOL    HW2 6885   1.861   2.853   2.194
 2290SOL     OW 6886   2.737   3.508   2.199
 2290SOL    HW1 6887   2.660   3.473   2.145
 2290SOL    HW2 6888   2.705   3.579   2.261
 2291SOL     OW 6889   2.092   2.490   3.837
 2291SOL    HW1 6890   1.999   2.488   3.874
 2291SOL    HW2 6891   2.093   2.451   3.745
 2292SOL     OW 6892   2.087   2.137   4.720
 2292SOL    HW1 6893   2.122   2.120   4.812
 2292SOL    HW2 6894   1.999   2.092   4.708
 2293SOL     OW 6895   1.881   2.230   4.371
 2293SOL    HW1 6896   1.799   2.273   4.410
 2293SOL    HW2 6897   1.853   2.157   4.308
 2294SOL     OW 6898   3.417   3.373   4.427
 2294SOL    HW1 6899   3.360   3.357   4.508
 2294SOL    HW2 6900   3.358   3.383   4.347
 2295SOL     OW 6901   2.997   2.565   4.441
 2295SOL    HW1 6902   3.054   2.643   4.416
 2295SOL    HW2 6903   2.937   2.591   4.517
 2296SOL     OW 6904   3.617   2.469   3.955
 2296SOL    HW1 6905   3.605   2.456   3.856
 2296SOL    HW2 6906   3.587   2.388   4.004
 2297SOL     OW 6907   2.630   3.006   4.747
 2297SOL    HW1 6908   2.552   3.023   4.807
 2297SOL    HW2 6909   2.664   3.093   4.711
 2298SOL     OW 6910   2.547   2.874   4.389
 2298SOL    HW1 6911   2.616   2.858   4.459
 2298SOL    HW2 6912   2.474   2.931   4.427
 2299SOL     OW 6913   3.465   2.309   4.461
 2299SOL    HW1 6914   3.391   2.355   4.411
 2299SOL    HW2 6915   3.516   2.377   4.514
 2300SOL     OW 6916   2.093   3.575   4.207
 2300SOL    HW1 6917   2.127   3.652   4.261
 2300SOL    HW2 6918   2.137   3.575   4.117
 2301SOL     OW 6919   2.092   3.296   4.262
 2301SOL    HW1 6920   2.066   3.392   4.262
 2301SOL    HW2 6921   2.021   3.242   4.307
 2302SOL     OW 6922   2.102   2.953   4.610
 2302SOL    HW1 6923   2.116   2.869   4.662
 2302SOL    HW2 6924   2.047   3.017   4.665
 2303SOL     OW 6925   2.468   2.826   3.847
 2303SOL    HW1 6926   2.475   2.910   3.793
 2303SOL    HW2 6927   2.514   2.839   3.935
 2304SOL     OW 6928   1.984   2.505   4.287
 2304SOL    HW1 6929   1.939   2.417   4.304
 2304SOL    HW2 6930   1.983   2.559   4.371
 2305SOL     OW 6931   3.704   3.629   4.083
 2305SOL    HW1 6932   3.758   3.600   4.163
 2305SOL    HW2 6933   3.734   3.719   4.054
 2306SOL     OW 6934   1.889   3.458   3.841
 2306SOL    HW1 6935   1.870   3.362   3.862
 2306SOL    HW2 6936   1.856   3.516   3.916
 2307SOL     OW 6937   3.551   2.784   4.336
 2307SOL    HW1 6938   3.646   2.755   4.344
 2307SOL    HW2 6939   3.543   2.849   4.261
 2308SOL     OW 6940   3.503   2.970   4.156
 2308SOL    HW1 6941   3.589   2.972   4.104
 2308SOL    HW2 6942   3.517   3.017   4.244
 2309SOL     OW 6943   2.475   3.227   4.450
 2309SOL    HW1 6944   2.426   3.140   4.459
 2309SOL    HW2 6945   2.452   3.270   4.363
 2310SOL     OW 6946   2.671   1.866   4.226
 2310SOL    HW1 6947   2.711   1.957   4.217
 2310SOL    HW2 6948   2.571   1.874   4.232
 2311SOL     OW 6949   3.387   2.861   3.914
 2311SOL    HW1 6950   3.324   2.785   3.927
 2311SOL    HW2 6951   3.435   2.879   4.000
 2312SOL     OW 6952   3.328   3.279   4.677
 2312SOL    HW1 6953   3.269   3.285   4.757
 2312SOL    HW2 6954   3.313   3.191   4.631
 2313SOL     OW 6955   3.529   3.576   4.296
 2313SOL    HW1 6956   3.488   3.553   4.208
 2313SOL    HW2 6957   3.511   3.502   4.361
 2314SOL     OW 6958   2.460   2.591   3.994
 2314SOL    HW1 6959   2.484   2.660   3.926
 2314SOL    HW2 6960   2.382   2.624   4.048
 2315SOL     OW 6961   3.143   2.207   4.668
 2315SOL    HW1 6962   3.057   2.157   4.655
 2315SOL    HW2 6963   3.205   2.153   4.724
 2316SOL     OW 6964   3.438   3.524   4.031
 2316SOL    HW1 6965   3.527   3.570   4.034
 2316SOL    HW2 6966   3.417   3.500   3.936
 2317SOL     OW 6967   2.903   2.563   4.153
 2317SOL    HW1 6968   2.929   2.559   4.249
 2317SOL    HW2 6969   2.818   2.512   4.139
 2318SOL     OW 6970   1.938   2.673   4.513
 2318SOL    HW1 6971   2.037   2.661   4.522
 2318SOL    HW2 6972   1.914   2.768   4.534
 2319SOL     OW 6973   2.727   2.210   3.919
 2319SOL    HW1 6974   2.786   2.273   3.870
 2319SOL    HW2 6975   2.746   2.116   3.890
 2320SOL     OW 6976   3.224   3.006   4.269
 2320SOL    HW1 6977   3.307   2.977   4.221
 2320SOL    HW2 6978   3.175   3.073   4.213
 2321SOL     OW 6979   2.412   2.058   4.609
 2321SOL    HW1 6980   2.407   2.053   4.709
 2321SOL    HW2 6981   2.414   2.154   4.580
 2322SOL     OW 6982   2.870   3.318   4.201
 2322SOL    HW1 6983   2.824   3.390   4.149
 2322SOL    HW2 6984   2.866   3.338   4.299
 2323SOL     OW 6985   2.213   3.663   4.577
 2323SOL    HW1 6986   2.263   3.577   4.583
 2323SOL    HW2 6987   2.278   3.740   4.574
 2324SOL     OW 6988   3.657   2.928   4.597
 2324SOL    HW1 6989   3.595   2.913   4.521
 2324SOL    HW2 6990   3.605   2.939   4.682
 2325SOL     OW 6991   2.183   2.805   3.966
 2325SOL    HW1 6992   2.265   2.844   3.924
 2325SOL    HW2 6993   2.156   2.723   3.917
 2326SOL     OW 6994   3.320   2.597   4.452
 2326SOL    HW1 6995   3.315   2.532   4.527
 2326SOL    HW2 6996   3.400   2.656   4.465
 2327SOL     OW 6997   2.973   3.638   3.961
 2327SOL    HW1 6998   2.913   3.576   4.011
 2327SOL    HW2 6999   3.004   3.594   3.876
 2328SOL     OW 7000   3.494   3.239   3.805
 2328SOL    HW1 7001   3.462   3.333   3.795
 2328SOL    HW2 7002   3.418   3.176   3.793
 2329SOL     OW 7003   2.326   3.605   4.047
 2329SOL    HW1 7004   2.359   3.644   4.133
 2329SOL    HW2 7005   2.402   3.598   3.982
 2330SOL     OW 7006   3.262   1.969   4.150
 2330SOL    HW1 7007   3.238   1.932   4.060
 2330SOL    HW2 7008   3.361   1.985   4.154
 2331SOL     OW 7009   2.244   2.562   4.204
 2331SOL    HW1 7010   2.289   2.472   4.201
 2331SOL    HW2 7011   2.150   2.551   4.237
 2332SOL     OW 7012   2.476   1.984   3.841
 2332SOL    HW1 7013   2.574   1.962   3.848
 2332SOL    HW2 7014   2.445   1.967   3.748
 2333SOL     OW 7015   2.401   1.926   4.236
 2333SOL    HW1 7016   2.320   1.927   4.294
 2333SOL    HW2 7017   2.404   2.009   4.181
 2334SOL     OW 7018   3.296   3.050   3.765
 2334SOL    HW1 7019   3.328   2.974   3.822
 2334SOL    HW2 7020   3.204   3.077   3.795
 2335SOL     OW 7021   2.159   1.897   3.895
 2335SOL    HW1 7022   2.208   1.981   3.874
 2335SOL    HW2 7023   2.221   1.832   3.940
 2336SOL     OW 7024   2.797   2.098   4.204
 2336SOL    HW1 7025   2.749   2.139   4.126
 2336SOL    HW2 7026   2.896   2.096   4.185
 2337SOL     OW 7027   3.089   3.432   4.517
 2337SOL    HW1 7028   3.110   3.506   4.452
 2337SOL    HW2 7029   3.157   3.432   4.590
 2338SOL     OW 7030   2.321   3.014   4.465
 2338SOL    HW1 7031   2.250   2.987   4.530
 2338SOL    HW2 7032   2.295   2.986   4.372
 2339SOL     OW 7033   3.133   3.659   4.315
 2339SOL    HW1 7034   3.177   3.723   4.251
 2339SOL    HW2 7035   3.083   3.711   4.385
 2340SOL     OW 7036   2.894   2.411   3.740
 2340SOL    HW1 7037   2.853   2.493   3.701
 2340SOL    HW2 7038   2.958   2.437   3.813
 2341SOL     OW 7039   2.728   2.316   4.366
 2341SOL    HW1 7040   2.696   2.388   4.304
 2341SOL    HW2 7041   2.752   2.235   4.313
 2342SOL     OW 7042   2.879   1.901   4.477
 2342SOL    HW1 7043   2.807   1.906   4.408
 2342SOL    HW2 7044   2.855   1.832   4.546
 2343SOL     OW 7045   3.719   2.695   4.101
 2343SOL    HW1 7046   3.761   2.631   4.165
 2343SOL    HW2 7047   3.681   2.644   4.023
 2344SOL     OW 7048   2.350   3.247   3.898
 2344SOL    HW1 7049   2.263   3.232   3.945
 2344SOL    HW2 7050   2.333   3.273   3.803
 2345SOL     OW 7051   3.526   3.142   4.381
 2345SOL    HW1 7052   3.625   3.150   4.395
 2345SOL    HW2 7053   3.481   3.226   4.412
 2346SOL     OW 7054   3.252   2.437   3.802
 2346SOL    HW1 7055   3.198   2.416   3.883
 2346SOL    HW2 7056   3.343   2.396   3.811
 2347SOL     OW 7057   2.389   2.118   4.052
 2347SOL    HW1 7058   2.416   2.059   3.977
 2347SOL    HW2 7059   2.389   2.213   4.021
 2348SOL     OW 7060   2.567   2.912   4.092
 2348SOL    HW1 7061   2.553   2.919   4.191
 2348SOL    HW2 7062   2.651   2.861   4.074
 2349SOL     OW 7063   2.229   2.962   4.225
 2349SOL    HW1 7064   2.222   3.045   4.169
 2349SOL    HW2 7065   2.233   2.882   4.165
 2350SOL     OW 7066   2.428   2.399   4.589
 2350SOL    HW1 7067   2.440   2.465   4.515
 2350SOL    HW2 7068   2.474   2.433   4.672
 2351SOL     OW 7069   3.114   3.210   4.112
 2351SOL    HW1 7070   3.164   3.287   4.152
 2351SOL    HW2 7071   3.019   3.212   4.144
 2352SOL     OW 7072   3.444   2.501   4.196
 2352SOL    HW1 7073   3.413   2.562   4.269
 2352SOL    HW2 7074   3.494   2.553   4.127
 2353SOL     OW 7075   3.071   2.387   3.999
 2353SOL    HW1 7076   3.084   2.303   4.053
 2353SOL    HW2 7077   3.042   2.461   4.059
 2354SOL     OW 7078   2.594   2.496   4.788
 2354SOL    HW1 7079   2.653   2.470   4.712
 2354SOL    HW2 7080   2.566   2.592   4.777
 2355SOL     OW 7081   2.169   1.925   4.342
 2355SOL    HW1 7082   2.158   2.019   4.375
 2355SOL    HW2 7083   2.164   1.862   4.419
 2356SOL     OW 7084   3.484   2.229   4.098
 2356SOL    HW1 7085   3.486   2.153   4.162
 2356SOL    HW2 7086   3.436   2.306   4.138
 2357SOL     OW 7087   3.402   2.136   3.849
 2357SOL    HW1 7088   3.341   2.061   3.872
 2357SOL    HW2 7089   3.424   2.188   3.932
 2358SOL     OW 7090   3.165   2.700   3.766
 2358SOL    HW1 7091   3.199   2.607   3.781
 2358SOL    HW2 7092   3.183   2.727   3.671
 2359SOL     OW 7093   2.930   3.195   4.573
 2359SOL    HW1 7094   2.937   3.111   4.518
 2359SOL    HW2 7095   2.992   3.264   4.537
 2360SOL     OW 7096   2.181   2.672   4.673
 2360SOL    HW1 7097   2.274   2.708   4.678
 2360SOL    HW2 7098   2.175   2.587   4.725
 2361SOL     OW 7099   1.870   3.188   3.924
 2361SOL    HW1 7100   1.777   3.209   3.893
 2361SOL    HW2 7101   1.880   3.089   3.937
 2362SOL     OW 7102   1.950   3.663   4.651
 2362SOL    HW1 7103   1.908   3.577   4.624
 2362SOL    HW2 7104   2.044   3.666   4.617
 2363SOL     OW 7105   2.366   3.430   4.634
 2363SOL    HW1 7106   2.432   3.504   4.643
 2363SOL    HW2 7107   2.410   3.351   4.592
 2364SOL     OW 7108   2.677   2.434   4.049
 2364SOL    HW1 7109   2.684   2.345   4.003
 2364SOL    HW2 7110   2.583   2.468   4.041
 2365SOL     OW 7111   2.335   2.362   3.915
 2365SOL    HW1 7112   2.396   2.442   3.919
 2365SOL    HW2 7113   2.240   2.393   3.922
 2366SOL     OW 7114   3.164   2.717   4.033
 2366SOL    HW1 7115   3.078   2.686   4.075
 2366SOL    HW2 7116   3.160   2.703   3.934
 2367SOL     OW 7117   3.621   3.609   4.878
 2367SOL    HW1 7118   3.682   3.639   4.805
 2367SOL    HW2 7119   3.583   3.520   4.856
 2368SOL     OW 7120   3.588   1.997   4.247
 2368SOL    HW1 7121   3.661   1.980   4.180
 2368SOL    HW2 7122   3.557   1.910   4.285
 2369SOL     OW 7123   3.250   3.435   4.201
 2369SOL    HW1 7124   3.317   3.447   4.127
 2369SOL    HW2 7125   3.210   3.524   4.224
 2370SOL     OW 7126   3.142   2.789   4.396
 2370SOL    HW1 7127   3.202   2.708   4.398
 2370SOL    HW2 7128   3.182   2.858   4.336
 2371SOL     OW 7129   2.534   3.478   3.878
 2371SOL    HW1 7130   2.543   3.488   3.779
 2371SOL    HW2 7131   2.494   3.389   3.899
 2372SOL     OW 7132   3.703   2.037   4.687
 2372SOL    HW1 7133   3.742   1.952   4.651
 2372SOL    HW2 7134   3.605   2.039   4.668
 2373SOL     OW 7135   2.125   2.188   4.444
 2373SOL    HW1 7136   2.046   2.239   4.410
 2373SOL    HW2 7137   2.116   2.173   4.542
 2374SOL     OW 7138   3.056   3.474   3.755
 2374SOL    HW1 7139   3.062   3.381   3.792
 2374SOL    HW2 7140   2.997   3.474   3.675
 2375SOL     OW 7141   2.778   2.772   4.015
 2375SOL    HW1 7142   2.841   2.810   3.947
 2375SOL    HW2 7143   2.818   2.689   4.054
 2376SOL     OW 7144   3.366   3.469   3.768
 2376SOL    HW1 7145   3.274   3.506   3.775
 2376SOL    HW2 7146   3.404   3.489   3.678
 2377SOL     OW 7147   2.901   2.960   4.420
 2377SOL    HW1 7148   2.831   2.913   4.474
 2377SOL    HW2 7149   2.960   2.892   4.377
 2378SOL     OW 7150   2.452   3.349   4.215
 2378SOL    HW1 7151   2.494   3.291   4.145
 2378SOL    HW2 7152   2.408   3.428   4.171
 2379SOL     OW 7153   2.117   3.210   4.014
 2379SOL    HW1 7154   2.021   3.211   3.987
 2379SOL    HW2 7155   2.129   3.263   4.098
 2380SOL     OW 7156   1.937   2.207   3.757
 2380SOL    HW1 7157   1.845   2.179   3.728
 2380SOL    HW2 7158   1.968   2.284   3.701
 2381SOL     OW 7159   1.934   2.028   4.042
 2381SOL    HW1 7160   1.917   2.111   3.988
 2381SOL    HW2 7161   2.024   1.991   4.020
 2382SOL     OW 7162   3.045   3.197   3.843
 2382SOL    HW1 7163   2.946   3.186   3.845
 2382SOL    HW2 7164   3.079   3.212   3.936
 2383SOL     OW 7165   3.536   2.745   4.978
 2383SOL    HW1 7166   3.509   2.656   4.941
 2383SOL    HW2 7167   3.537   2.813   4.905
 2384SOL     OW 7168   3.087   2.187   4.173
 2384SOL    HW1 7169   3.152   2.113   4.162
 2384SOL    HW2 7170   3.107   2.237   4.257
 2385SOL     OW 7171   2.456   2.607   4.376
 2385SOL    HW1 7172   2.506   2.692   4.357
 2385SOL    HW2 7173   2.368   2.609   4.328
 2386SOL     OW 7174   2.721   3.236   3.740
 2386SOL    HW1 7175   2.675   3.251   3.828
 2386SOL    HW2 7176   2.765   3.321   3.710
 2387SOL     OW 7177   2.523   3.652   4.677
 2387SOL    HW1 7178   2.477   3.740   4.664
 2387SOL    HW2 7179   2.622   3.664   4.670
 2388SOL     OW 7180   2.721   2.818   4.585
 2388SOL    HW1 7181   2.775   2.749   4.633
 2388SOL    HW2 7182   2.689   2.887   4.651
 2389SOL     OW 7183   2.945   2.846   3.811
 2389SOL    HW1 7184   2.922   2.899   3.729
 2389SOL    HW2 7185   3.026   2.790   3.792
 2390SOL     OW 7186   3.723   3.431   4.575
 2390SOL    HW1 7187   3.652   3.419   4.505
 2390SOL    HW2 7188   3.724   3.352   4.635
 2391SOL     OW 7189   1.941   3.102   4.377
 2391SOL    HW1 7190   1.940   3.055   4.465
 2391SOL    HW2 7191   2.023   3.074   4.326
 2392SOL     OW 7192   2.290   2.286   4.244
 2392SOL    HW1 7193   2.320   2.214   4.182
 2392SOL    HW2 7194   2.251   2.246   4.327
 2393SOL     OW 7195   2.674   3.448   4.411
 2393SOL    HW1 7196   2.706   3.458   4.317
 2393SOL    HW2 7197   2.595   3.386   4.413
 2394SOL     OW 7198   2.632   3.192   4.025
 2394SOL    HW1 7199   2.586   3.105   4.042
 2394SOL    HW2 7200   2.723   3.189   4.066
 2395SOL     OW 7201   3.214   1.914   3.892
 2395SOL    HW1 7202   3.249   1.873   3.808
 2395SOL    HW2 7203   3.124   1.876   3.912
 2396SOL     OW 7204   3.162   2.315   4.415
 2396SOL    HW1 7205   3.103   2.395   4.419
 2396SOL    HW2 7206   3.177   2.280   4.508
 2397SOL     OW 7207   3.455   2.083   4.606
 2397SOL    HW1 7208   3.371   2.082   4.660
 2397SOL    HW2 7209   3.457   2.166   4.550
 2398SOL     OW 7210   1.901   2.939   4.024
 2398SOL    HW1 7211   2.000   2.928   4.015
 2398SOL    HW2 7212   1.861   2.853   4.056
 2399SOL     OW 7213   2.737   3.508   4.061
 2399SOL    HW1 7214   2.660   3.473   4.007
 2399SOL    HW2 7215   2.705   3.579   4.123
 2400SOL     OW 7216   2.092   4.352   0.113
 2400SOL    HW1 7217   1.999   4.350   0.150
 2400SOL    HW2 7218   2.093   4.313   0.021
 2401SOL     OW 7219   2.087   3.999   0.996
 2401SOL    HW1 7220   2.122   3.982   1.088
 2401SOL    HW2 7221   1.999   3.954   0.984
 2402SOL     OW 7222   1.881   4.092   0.647
 2402SOL    HW1 7223   1.799   4.135   0.686
 2402SOL    HW2 7224   1.853   4.019   0.584
 2403SOL     OW 7225   2.997   4.427   0.717
 2403SOL    HW1 7226   3.054   4.505   0.692
 2403SOL    HW2 7227   2.937   4.453   0.793
 2404SOL     OW 7228   3.617   4.331   0.231
 2404SOL    HW1 7229   3.605   4.318   0.132
 2404SOL    HW2 7230   3.587   4.250   0.280
 2405SOL     OW 7231   2.712   4.522   1.823
 2405SOL    HW1 7232   2.708   4.598   1.888
 2405SOL    HW2 7233   2.734   4.558   1.732
 2406SOL     OW 7234   2.547   4.736   0.665
 2406SOL    HW1 7235   2.616   4.720   0.735
 2406SOL    HW2 7236   2.474   4.793   0.703
 2407SOL     OW 7237   2.300   4.116   1.499
 2407SOL    HW1 7238   2.382   4.060   1.508
 2407SOL    HW2 7239   2.219   4.058   1.503
 2408SOL     OW 7240   3.465   4.171   0.737
 2408SOL    HW1 7241   3.391   4.217   0.687
 2408SOL    HW2 7242   3.516   4.239   0.790
 2409SOL     OW 7243   3.456   3.838   1.480
 2409SOL    HW1 7244   3.438   3.905   1.408
 2409SOL    HW2 7245   3.453   3.884   1.569
 2410SOL     OW 7246   1.984   4.367   0.563
 2410SOL    HW1 7247   1.939   4.279   0.580
 2410SOL    HW2 7248   1.983   4.421   0.647
 2411SOL     OW 7249   1.975   4.461   1.597
 2411SOL    HW1 7250   2.063   4.448   1.642
 2411SOL    HW2 7251   1.962   4.558   1.575
 2412SOL     OW 7252   2.671   3.728   0.502
 2412SOL    HW1 7253   2.711   3.819   0.493
 2412SOL    HW2 7254   2.571   3.736   0.508
 2413SOL     OW 7255   2.059   4.700   1.264
 2413SOL    HW1 7256   2.148   4.655   1.250
 2413SOL    HW2 7257   1.986   4.635   1.245
 2414SOL     OW 7258   3.387   4.723   0.190
 2414SOL    HW1 7259   3.324   4.647   0.203
 2414SOL    HW2 7260   3.435   4.741   0.276
 2415SOL     OW 7261   2.179   3.975   1.801
 2415SOL    HW1 7262   2.250   4.046   1.807
 2415SOL    HW2 7263   2.091   4.014   1.829
 2416SOL     OW 7264   2.460   4.453   0.270
 2416SOL    HW1 7265   2.484   4.522   0.202
 2416SOL    HW2 7266   2.382   4.486   0.324
 2417SOL     OW 7267   3.143   4.069   0.944
 2417SOL    HW1 7268   3.057   4.019   0.931
 2417SOL    HW2 7269   3.205   4.015   1.000
 2418SOL     OW 7270   2.669   4.329   1.465
 2418SOL    HW1 7271   2.622   4.326   1.554
 2418SOL    HW2 7272   2.618   4.274   1.399
 2419SOL     OW 7273   3.256   4.193   1.674
 2419SOL    HW1 7274   3.236   4.236   1.762
 2419SOL    HW2 7275   3.334   4.131   1.683
 2420SOL     OW 7276   2.835   4.614   1.572
 2420SOL    HW1 7277   2.881   4.530   1.543
 2420SOL    HW2 7278   2.779   4.648   1.497
 2421SOL     OW 7279   2.853   4.134   1.242
 2421SOL    HW1 7280   2.776   4.168   1.296
 2421SOL    HW2 7281   2.819   4.083   1.163
 2422SOL     OW 7282   2.903   4.425   0.429
 2422SOL    HW1 7283   2.929   4.421   0.525
 2422SOL    HW2 7284   2.818   4.374   0.415
 2423SOL     OW 7285   1.938   4.535   0.789
 2423SOL    HW1 7286   2.037   4.523   0.798
 2423SOL    HW2 7287   1.914   4.630   0.810
 2424SOL     OW 7288   2.727   4.072   0.195
 2424SOL    HW1 7289   2.786   4.135   0.146
 2424SOL    HW2 7290   2.746   3.978   0.166
 2425SOL     OW 7291   3.581   4.309   1.831
 2425SOL    HW1 7292   3.555   4.398   1.795
 2425SOL    HW2 7293   3.579   4.241   1.758
 2426SOL     OW 7294   2.412   3.920   0.885
 2426SOL    HW1 7295   2.407   3.915   0.985
 2426SOL    HW2 7296   2.414   4.016   0.856
 2427SOL     OW 7297   3.320   4.459   0.728
 2427SOL    HW1 7298   3.315   4.394   0.803
 2427SOL    HW2 7299   3.400   4.518   0.741
 2428SOL     OW 7300   2.064   4.009   1.498
 2428SOL    HW1 7301   1.984   4.069   1.485
 2428SOL    HW2 7302   2.054   3.960   1.584
 2429SOL     OW 7303   3.262   3.831   0.426
 2429SOL    HW1 7304   3.238   3.794   0.336
 2429SOL    HW2 7305   3.361   3.847   0.430
 2430SOL     OW 7306   2.244   4.424   0.480
 2430SOL    HW1 7307   2.289   4.334   0.477
 2430SOL    HW2 7308   2.150   4.413   0.513
 2431SOL     OW 7309   3.409   3.946   1.729
 2431SOL    HW1 7310   3.404   3.983   1.821
 2431SOL    HW2 7311   3.337   3.877   1.717
 2432SOL     OW 7312   2.643   3.988   1.749
 2432SOL    HW1 7313   2.710   3.927   1.792
 2432SOL    HW2 7314   2.570   4.007   1.814
 2433SOL     OW 7315   3.213   4.314   1.433
 2433SOL    HW1 7316   3.241   4.271   1.518
 2433SOL    HW2 7317   3.238   4.410   1.434
 2434SOL     OW 7318   2.784   4.227   0.899
 2434SOL    HW1 7319   2.759   4.218   0.803
 2434SOL    HW2 7320   2.832   4.145   0.930
 2435SOL     OW 7321   2.401   3.788   0.512
 2435SOL    HW1 7322   2.320   3.789   0.570
 2435SOL    HW2 7323   2.404   3.871   0.457
 2436SOL     OW 7324   2.159   3.759   0.171
 2436SOL    HW1 7325   2.208   3.843   0.150
 2436SOL    HW2 7326   2.221   3.694   0.216
 2437SOL     OW 7327   2.797   3.960   0.480
 2437SOL    HW1 7328   2.749   4.001   0.402
 2437SOL    HW2 7329   2.896   3.958   0.461
 2438SOL     OW 7330   2.938   4.407   1.464
 2438SOL    HW1 7331   2.858   4.346   1.467
 2438SOL    HW2 7332   3.019   4.354   1.440
 2439SOL     OW 7333   2.894   4.273   0.016
 2439SOL    HW1 7334   2.853   4.355  -0.023
 2439SOL    HW2 7335   2.958   4.299   0.089
 2440SOL     OW 7336   1.940   4.280   1.386
 2440SOL    HW1 7337   2.032   4.279   1.345
 2440SOL    HW2 7338   1.934   4.354   1.453
 2441SOL     OW 7339   2.423   3.946   1.147
 2441SOL    HW1 7340   2.461   3.862   1.184
 2441SOL    HW2 7341   2.335   3.965   1.191
 2442SOL     OW 7342   2.728   4.178   0.642
 2442SOL    HW1 7343   2.696   4.250   0.580
 2442SOL    HW2 7344   2.752   4.097   0.589
 2443SOL     OW 7345   2.879   3.763   0.753
 2443SOL    HW1 7346   2.807   3.768   0.684
 2443SOL    HW2 7347   2.855   3.694   0.822
 2444SOL     OW 7348   3.328   4.314   0.992
 2444SOL    HW1 7349   3.298   4.219   0.999
 2444SOL    HW2 7350   3.401   4.330   1.058
 2445SOL     OW 7351   3.719   4.557   0.377
 2445SOL    HW1 7352   3.761   4.493   0.441
 2445SOL    HW2 7353   3.681   4.506   0.299
 2446SOL     OW 7354   3.252   4.299   0.078
 2446SOL    HW1 7355   3.198   4.278   0.159
 2446SOL    HW2 7356   3.343   4.258   0.087
 2447SOL     OW 7357   2.389   3.980   0.328
 2447SOL    HW1 7358   2.416   3.921   0.253
 2447SOL    HW2 7359   2.389   4.075   0.297
 2448SOL     OW 7360   3.500   4.823   1.079
 2448SOL    HW1 7361   3.505   4.904   1.138
 2448SOL    HW2 7362   3.414   4.825   1.028
 2449SOL     OW 7363   2.777   3.813   1.402
 2449SOL    HW1 7364   2.802   3.793   1.307
 2449SOL    HW2 7365   2.849   3.869   1.444
 2450SOL     OW 7366   2.272   4.537   1.251
 2450SOL    HW1 7367   2.358   4.549   1.301
 2450SOL    HW2 7368   2.230   4.450   1.278
 2451SOL     OW 7369   3.136   4.110   1.262
 2451SOL    HW1 7370   3.157   4.184   1.326
 2451SOL    HW2 7371   3.047   4.127   1.219
 2452SOL     OW 7372   2.428   4.261   0.865
 2452SOL    HW1 7373   2.440   4.327   0.791
 2452SOL    HW2 7374   2.474   4.295   0.948
 2453SOL     OW 7375   3.444   4.363   0.472
 2453SOL    HW1 7376   3.413   4.424   0.545
 2453SOL    HW2 7377   3.494   4.415   0.403
 2454SOL     OW 7378   2.264   4.475   1.598
 2454SOL    HW1 7379   2.332   4.530   1.551
 2454SOL    HW2 7380   2.304   4.387   1.625
 2455SOL     OW 7381   3.449   4.503   1.670
 2455SOL    HW1 7382   3.357   4.541   1.665
 2455SOL    HW2 7383   3.509   4.550   1.605
 2456SOL     OW 7384   2.875   3.829   1.770
 2456SOL    HW1 7385   2.881   3.914   1.718
 2456SOL    HW2 7386   2.907   3.753   1.713
 2457SOL     OW 7387   2.366   3.774   1.740
 2457SOL    HW1 7388   2.324   3.717   1.670
 2457SOL    HW2 7389   2.300   3.843   1.772
 2458SOL     OW 7390   2.435   4.594   1.029
 2458SOL    HW1 7391   2.479   4.683   1.020
 2458SOL    HW2 7392   2.372   4.594   1.106
 2459SOL     OW 7393   3.222   4.586   1.045
 2459SOL    HW1 7394   3.147   4.586   0.979
 2459SOL    HW2 7395   3.259   4.494   1.054
 2460SOL     OW 7396   3.071   4.249   0.275
 2460SOL    HW1 7397   3.084   4.165   0.329
 2460SOL    HW2 7398   3.042   4.323   0.335
 2461SOL     OW 7399   2.169   3.937   1.231
 2461SOL    HW1 7400   2.146   3.974   1.321
 2461SOL    HW2 7401   2.139   3.842   1.225
 2462SOL     OW 7402   2.594   4.358   1.064
 2462SOL    HW1 7403   2.653   4.332   0.988
 2462SOL    HW2 7404   2.566   4.454   1.053
 2463SOL     OW 7405   3.590   4.659   1.854
 2463SOL    HW1 7406   3.544   4.652   1.765
 2463SOL    HW2 7407   3.528   4.703   1.920
 2464SOL     OW 7408   2.169   3.787   0.618
 2464SOL    HW1 7409   2.158   3.881   0.651
 2464SOL    HW2 7410   2.164   3.724   0.695
 2465SOL     OW 7411   3.484   4.091   0.374
 2465SOL    HW1 7412   3.486   4.015   0.438
 2465SOL    HW2 7413   3.436   4.168   0.414
 2466SOL     OW 7414   2.885   4.490   0.966
 2466SOL    HW1 7415   2.900   4.511   1.062
 2466SOL    HW2 7416   2.855   4.395   0.957
 2467SOL     OW 7417   2.212   4.622   1.804
 2467SOL    HW1 7418   2.288   4.666   1.852
 2467SOL    HW2 7419   2.247   4.575   1.722
 2468SOL     OW 7420   3.402   3.998   0.125
 2468SOL    HW1 7421   3.341   3.923   0.148
 2468SOL    HW2 7422   3.424   4.050   0.208
 2469SOL     OW 7423   3.165   4.562   0.042
 2469SOL    HW1 7424   3.199   4.469   0.057
 2469SOL    HW2 7425   3.183   4.589  -0.053
 2470SOL     OW 7426   2.181   4.534   0.949
 2470SOL    HW1 7427   2.274   4.570   0.954
 2470SOL    HW2 7428   2.175   4.449   1.001
 2471SOL     OW 7429   2.201   4.233   1.006
 2471SOL    HW1 7430   2.149   4.150   0.989
 2471SOL    HW2 7431   2.278   4.238   0.942
 2472SOL     OW 7432   3.000   4.104   1.678
 2472SOL    HW1 7433   2.955   4.167   1.742
 2472SOL    HW2 7434   3.093   4.135   1.661
 2473SOL     OW 7435   3.022   3.931   1.477
 2473SOL    HW1 7436   3.022   3.995   1.554
 2473SOL    HW2 7437   3.050   3.979   1.394
 2474SOL     OW 7438   2.864   4.520   1.238
 2474SOL    HW1 7439   2.905   4.488   1.324
 2474SOL    HW2 7440   2.768   4.493   1.235
 2475SOL     OW 7441   1.902   4.268   1.114
 2475SOL    HW1 7442   1.987   4.235   1.073
 2475SOL    HW2 7443   1.915   4.283   1.212
 2476SOL     OW 7444   2.051   4.244   1.722
 2476SOL    HW1 7445   2.110   4.204   1.652
 2476SOL    HW2 7446   1.993   4.315   1.681
 2477SOL     OW 7447   2.677   4.296   0.325
 2477SOL    HW1 7448   2.684   4.207   0.279
 2477SOL    HW2 7449   2.583   4.330   0.317
 2478SOL     OW 7450   3.519   4.328   1.206
 2478SOL    HW1 7451   3.481   4.259   1.268
 2478SOL    HW2 7452   3.601   4.292   1.162
 2479SOL     OW 7453   2.533   4.188   1.269
 2479SOL    HW1 7454   2.499   4.099   1.239
 2479SOL    HW2 7455   2.559   4.242   1.189
 2480SOL     OW 7456   2.335   4.224   0.191
 2480SOL    HW1 7457   2.396   4.304   0.195
 2480SOL    HW2 7458   2.240   4.255   0.198
 2481SOL     OW 7459   3.209   4.783   1.234
 2481SOL    HW1 7460   3.233   4.720   1.160
 2481SOL    HW2 7461   3.119   4.823   1.216
 2482SOL     OW 7462   3.164   4.579   0.309
 2482SOL    HW1 7463   3.078   4.548   0.351
 2482SOL    HW2 7464   3.160   4.565   0.210
 2483SOL     OW 7465   2.765   3.810   0.133
 2483SOL    HW1 7466   2.816   3.811   0.047
 2483SOL    HW2 7467   2.821   3.768   0.204
 2484SOL     OW 7468   3.588   3.859   0.523
 2484SOL    HW1 7469   3.661   3.842   0.456
 2484SOL    HW2 7470   3.557   3.772   0.561
 2485SOL     OW 7471   3.142   4.651   0.672
 2485SOL    HW1 7472   3.202   4.570   0.674
 2485SOL    HW2 7473   3.182   4.720   0.612
 2486SOL     OW 7474   3.703   3.899   0.963
 2486SOL    HW1 7475   3.742   3.814   0.927
 2486SOL    HW2 7476   3.605   3.901   0.944
 2487SOL     OW 7477   2.125   4.050   0.720
 2487SOL    HW1 7478   2.046   4.101   0.686
 2487SOL    HW2 7479   2.116   4.035   0.818
 2488SOL     OW 7480   2.876   3.960   0.971
 2488SOL    HW1 7481   2.868   3.924   0.878
 2488SOL    HW2 7482   2.874   3.884   1.036
 2489SOL     OW 7483   3.571   4.109   1.381
 2489SOL    HW1 7484   3.644   4.178   1.385
 2489SOL    HW2 7485   3.599   4.034   1.322
 2490SOL     OW 7486   1.967   4.737   1.726
 2490SOL    HW1 7487   1.890   4.704   1.780
 2490SOL    HW2 7488   2.052   4.707   1.768
 2491SOL     OW 7489   2.534   3.927   1.489
 2491SOL    HW1 7490   2.624   3.911   1.449
 2491SOL    HW2 7491   2.542   3.932   1.588
 2492SOL     OW 7492   3.302   4.580   1.398
 2492SOL    HW1 7493   3.245   4.632   1.335
 2492SOL    HW2 7494   3.398   4.592   1.374
 2493SOL     OW 7495   1.934   3.890   0.318
 2493SOL    HW1 7496   1.917   3.973   0.264
 2493SOL    HW2 7497   2.024   3.853   0.296
 2494SOL     OW 7498   2.475   4.566   1.431
 2494SOL    HW1 7499   2.531   4.647   1.414
 2494SOL    HW2 7500   2.534   4.486   1.434
 2495SOL     OW 7501   2.578   4.289   1.708
 2495SOL    HW1 7502   2.597   4.354   1.782
 2495SOL    HW2 7503   2.638   4.209   1.717
 2496SOL     OW 7504   3.536   4.607   1.254
 2496SOL    HW1 7505   3.509   4.518   1.217
 2496SOL    HW2 7506   3.537   4.675   1.181
 2497SOL     OW 7507   3.087   4.049   0.449
 2497SOL    HW1 7508   3.152   3.975   0.438
 2497SOL    HW2 7509   3.107   4.099   0.533
 2498SOL     OW 7510   2.456   4.469   0.652
 2498SOL    HW1 7511   2.506   4.554   0.633
 2498SOL    HW2 7512   2.368   4.471   0.604
 2499SOL     OW 7513   3.639   4.066   1.642
 2499SOL    HW1 7514   3.622   4.097   1.548
 2499SOL    HW2 7515   3.555   4.029   1.680
 2500SOL     OW 7516   3.592   4.658   1.517
 2500SOL    HW1 7517   3.630   4.749   1.532
 2500SOL    HW2 7518   3.584   4.641   1.418
 2501SOL     OW 7519   3.686   3.916   1.227
 2501SOL    HW1 7520   3.682   3.826   1.271
 2501SOL    HW2 7521   3.689   3.905   1.128
 2502SOL     OW 7522   2.290   4.148   0.520
 2502SOL    HW1 7523   2.320   4.076   0.458
 2502SOL    HW2 7524   2.251   4.108   0.603
 2503SOL     OW 7525   2.179   4.271   1.280
 2503SOL    HW1 7526   2.217   4.212   1.352
 2503SOL    HW2 7527   2.219   4.245   1.192
 2504SOL     OW 7528   3.286   3.938   1.112
 2504SOL    HW1 7529   3.338   3.873   1.167
 2504SOL    HW2 7530   3.237   4.001   1.173
 2505SOL     OW 7531   2.863   3.758   1.154
 2505SOL    HW1 7532   2.800   3.686   1.123
 2505SOL    HW2 7533   2.956   3.722   1.154
 2506SOL     OW 7534   3.214   3.776   0.168
 2506SOL    HW1 7535   3.249   3.735   0.084
 2506SOL    HW2 7536   3.124   3.738   0.188
 2507SOL     OW 7537   3.162   4.177   0.691
 2507SOL    HW1 7538   3.103   4.257   0.695
 2507SOL    HW2 7539   3.177   4.142   0.784
 2508SOL     OW 7540   3.455   3.945   0.882
 2508SOL    HW1 7541   3.371   3.944   0.936
 2508SOL    HW2 7542   3.457   4.028   0.826
 2509SOL     OW 7543   2.092   4.352   1.975
 2509SOL    HW1 7544   1.999   4.350   2.012
 2509SOL    HW2 7545   2.093   4.313   1.883
 2510SOL     OW 7546   2.087   3.999   2.858
 2510SOL    HW1 7547   2.122   3.982   2.950
 2510SOL    HW2 7548   1.999   3.954   2.846
 2511SOL     OW 7549   1.881   4.092   2.509
 2511SOL    HW1 7550   1.799   4.135   2.548
 2511SOL    HW2 7551   1.853   4.019   2.446
 2512SOL     OW 7552   2.997   4.427   2.579
 2512SOL    HW1 7553   3.054   4.505   2.554
 2512SOL    HW2 7554   2.937   4.453   2.655
 2513SOL     OW 7555   3.617   4.331   2.093
 2513SOL    HW1 7556   3.605   4.318   1.994
 2513SOL    HW2 7557   3.587   4.250   2.142
 2514SOL     OW 7558   2.712   4.522   3.685
 2514SOL    HW1 7559   2.708   4.598   3.750
 2514SOL    HW2 7560   2.734   4.558   3.594
 2515SOL     OW 7561   2.547   4.736   2.527
 2515SOL    HW1 7562   2.616   4.720   2.597
 2515SOL    HW2 7563   2.474   4.793   2.565
 2516SOL     OW 7564   2.300   4.116   3.361
 2516SOL    HW1 7565   2.382   4.060   3.370
 2516SOL    HW2 7566   2.219   4.058   3.365
 2517SOL     OW 7567   3.465   4.171   2.599
 2517SOL    HW1 7568   3.391   4.217   2.549
 2517SOL    HW2 7569   3.516   4.239   2.652
 2518SOL     OW 7570   3.456   3.838   3.342
 2518SOL    HW1 7571   3.438   3.905   3.270
 2518SOL    HW2 7572   3.453   3.884   3.431
 2519SOL     OW 7573   1.984   4.367   2.425
 2519SOL    HW1 7574   1.939   4.279   2.442
 2519SOL    HW2 7575   1.983   4.421   2.509
 2520SOL     OW 7576   1.975   4.461   3.459
 2520SOL    HW1 7577   2.063   4.448   3.504
 2520SOL    HW2 7578   1.962   4.558   3.437
 2521SOL     OW 7579   2.671   3.728   2.364
 2521SOL    HW1 7580   2.711   3.819   2.355
 2521SOL    HW2 7581   2.571   3.736   2.370
 2522SOL     OW 7582   2.059   4.700   3.126
 2522SOL    HW1 7583   2.148   4.655   3.112
 2522SOL    HW2 7584   1.986   4.635   3.107
 2523SOL     OW 7585   3.387   4.723   2.052
 2523SOL    HW1 7586   3.324   4.647   2.065
 2523SOL    HW2 7587   3.435   4.741   2.138
 2524SOL     OW 7588   2.179   3.975   3.663
 2524SOL    HW1 7589   2.250   4.046   3.669
 2524SOL    HW2 7590   2.091   4.014   3.691
 2525SOL     OW 7591   2.460   4.453   2.132
 2525SOL    HW1 7592   2.484   4.522   2.064
 2525SOL    HW2 7593   2.382   4.486   2.186
 2526SOL     OW 7594   3.143   4.069   2.806
 2526SOL    HW1 7595   3.057   4.019   2.793
 2526SOL    HW2 7596   3.205   4.015   2.862
 2527SOL     OW 7597   2.669   4.329   3.327
 2527SOL    HW1 7598   2.622   4.326   3.416
 2527SOL    HW2 7599   2.618   4.274   3.261
 2528SOL     OW 7600   3.256   4.193   3.536
 2528SOL    HW1 7601   3.236   4.236   3.624
 2528SOL    HW2 7602   3.334   4.131   3.545
 2529SOL     OW 7603   2.835   4.614   3.434
 2529SOL    HW1 7604   2.881   4.530   3.405
 2529SOL    HW2 7605   2.779   4.648   3.359
 2530SOL     OW 7606   2.853   4.134   3.104
 2530SOL    HW1 7607   2.776   4.168   3.158
 2530SOL    HW2 7608   2.819   4.083   3.025
 2531SOL     OW 7609   2.903   4.425   2.291
 2531SOL    HW1 7610   2.929   4.421   2.387
 2531SOL    HW2 7611   2.818   4.374   2.277
 2532SOL     OW 7612   1.938   4.535   2.651
 2532SOL    HW1 7613   2.037   4.523   2.660
 2532SOL    HW2 7614   1.914   4.630   2.672
 2533SOL     OW 7615   2.727   4.072   2.057
 2533SOL    HW1 7616   2.786   4.135   2.008
 2533SOL    HW2 7617   2.746   3.978   2.028
 2534SOL     OW 7618   3.581   4.309   3.693
 2534SOL    HW1 7619   3.555   4.398   3.657
 2534SOL    HW2 7620   3.579   4.241   3.620
 2535SOL     OW 7621   2.412   3.920   2.747
 2535SOL    HW1 7622   2.407   3.915   2.847
 2535SOL    HW2 7623   2.414   4.016   2.718
 2536SOL     OW 7624   3.320   4.459   2.590
 2536SOL    HW1 7625   3.315   4.394   2.665
 2536SOL    HW2 7626   3.400   4.518   2.603
 2537SOL     OW 7627   2.064   4.009   3.360
 2537SOL    HW1 7628   1.984   4.069   3.347
 2537SOL    HW2 7629   2.054   3.960   3.446
 2538SOL     OW 7630   3.262   3.831   2.288
 2538SOL    HW1 7631   3.238   3.794   2.198
 2538SOL    HW2 7632   3.361   3.847   2.292
 2539SOL     OW 7633   2.244   4.424   2.342
 2539SOL    HW1 7634   2.289   4.334   2.339
 2539SOL    HW2 7635   2.150   4.413   2.375
 2540SOL     OW 7636   3.409   3.946   3.591
 2540SOL    HW1 7637   3.404   3.983   3.683
 2540SOL    HW2 7638   3.337   3.877   3.579
 2541SOL     OW 7639   2.476   3.846   1.979
 2541SOL    HW1 7640   2.574   3.824   1.986
 2541SOL    HW2 7641   2.445   3.829   1.886
 2542SOL     OW 7642   2.643   3.988   3.611
 2542SOL    HW1 7643   2.710   3.927   3.654
 2542SOL    HW2 7644   2.570   4.007   3.676
 2543SOL     OW 7645   3.213   4.314   3.295
 2543SOL    HW1 7646   3.241   4.271   3.380
 2543SOL    HW2 7647   3.238   4.410   3.296
 2544SOL     OW 7648   2.784   4.227   2.761
 2544SOL    HW1 7649   2.759   4.218   2.665
 2544SOL    HW2 7650   2.832   4.145   2.792
 2545SOL     OW 7651   2.401   3.788   2.374
 2545SOL    HW1 7652   2.320   3.789   2.432
 2545SOL    HW2 7653   2.404   3.871   2.319
 2546SOL     OW 7654   2.159   3.759   2.033
 2546SOL    HW1 7655   2.208   3.843   2.012
 2546SOL    HW2 7656   2.221   3.694   2.078
 2547SOL     OW 7657   2.797   3.960   2.342
 2547SOL    HW1 7658   2.749   4.001   2.264
 2547SOL    HW2 7659   2.896   3.958   2.323
 2548SOL     OW 7660   2.938   4.407   3.326
 2548SOL    HW1 7661   2.858   4.346   3.329
 2548SOL    HW2 7662   3.019   4.354   3.302
 2549SOL     OW 7663   2.894   4.273   1.878
 2549SOL    HW1 7664   2.853   4.355   1.839
 2549SOL    HW2 7665   2.958   4.299   1.951
 2550SOL     OW 7666   1.940   4.280   3.248
 2550SOL    HW1 7667   2.032   4.279   3.207
 2550SOL    HW2 7668   1.934   4.354   3.315
 2551SOL     OW 7669   2.423   3.946   3.009
 2551SOL    HW1 7670   2.461   3.862   3.046
 2551SOL    HW2 7671   2.335   3.965   3.053
 2552SOL     OW 7672   2.728   4.178   2.504
 2552SOL    HW1 7673   2.696   4.250   2.442
 2552SOL    HW2 7674   2.752   4.097   2.451
 2553SOL     OW 7675   2.879   3.763   2.615
 2553SOL    HW1 7676   2.807   3.768   2.546
 2553SOL    HW2 7677   2.855   3.694   2.684
 2554SOL     OW 7678   3.328   4.314   2.854
 2554SOL    HW1 7679   3.298   4.219   2.861
 2554SOL    HW2 7680   3.401   4.330   2.920
 2555SOL     OW 7681   3.719   4.557   2.239
 2555SOL    HW1 7682   3.761   4.493   2.303
 2555SOL    HW2 7683   3.681   4.506   2.161
 2556SOL     OW 7684   3.252   4.299   1.940
 2556SOL    HW1 7685   3.198   4.278   2.021
 2556SOL    HW2 7686   3.343   4.258   1.949
 2557SOL     OW 7687   2.389   3.980   2.190
 2557SOL    HW1 7688   2.416   3.921   2.115
 2557SOL    HW2 7689   2.389   4.075   2.159
 2558SOL     OW 7690   3.500   4.823   2.941
 2558SOL    HW1 7691   3.505   4.904   3.000
 2558SOL    HW2 7692   3.414   4.825   2.890
 2559SOL     OW 7693   2.777   3.813   3.264
 2559SOL    HW1 7694   2.802   3.793   3.169
 2559SOL    HW2 7695   2.849   3.869   3.306
 2560SOL     OW 7696   2.272   4.537   3.113
 2560SOL    HW1 7697   2.358   4.549   3.163
 2560SOL    HW2 7698   2.230   4.450   3.140
 2561SOL     OW 7699   3.136   4.110   3.124
 2561SOL    HW1 7700   3.157   4.184   3.188
 2561SOL    HW2 7701   3.047   4.127   3.081
 2562SOL     OW 7702   2.428   4.261   2.727
 2562SOL    HW1 7703   2.440   4.327   2.653
 2562SOL    HW2 7704   2.474   4.295   2.810
 2563SOL     OW 7705   3.444   4.363   2.334
 2563SOL    HW1 7706   3.413   4.424   2.407
 2563SOL    HW2 7707   3.494   4.415   2.265
 2564SOL     OW 7708   2.264   4.475   3.460
 2564SOL    HW1 7709   2.332   4.530   3.413
 2564SOL    HW2 7710   2.304   4.387   3.487
 2565SOL     OW 7711   3.449   4.503   3.532
 2565SOL    HW1 7712   3.357   4.541   3.527
 2565SOL    HW2 7713   3.509   4.550   3.467
 2566SOL     OW 7714   2.875   3.829   3.632
 2566SOL    HW1 7715   2.881   3.914   3.580
 2566SOL    HW2 7716   2.907   3.753   3.575
 2567SOL     OW 7717   2.366   3.774   3.602
 2567SOL    HW1 7718   2.324   3.717   3.532
 2567SOL    HW2 7719   2.300   3.843   3.634
 2568SOL     OW 7720   2.435   4.594   2.891
 2568SOL    HW1 7721   2.479   4.683   2.882
 2568SOL    HW2 7722   2.372   4.594   2.968
 2569SOL     OW 7723   3.222   4.586   2.907
 2569SOL    HW1 7724   3.147   4.586   2.841
 2569SOL    HW2 7725   3.259   4.494   2.916
 2570SOL     OW 7726   3.071   4.249   2.137
 2570SOL    HW1 7727   3.084   4.165   2.191
 2570SOL    HW2 7728   3.042   4.323   2.197
 2571SOL     OW 7729   2.169   3.937   3.093
 2571SOL    HW1 7730   2.146   3.974   3.183
 2571SOL    HW2 7731   2.139   3.842   3.087
 2572SOL     OW 7732   2.594   4.358   2.926
 2572SOL    HW1 7733   2.653   4.332   2.850
 2572SOL    HW2 7734   2.566   4.454   2.915
 2573SOL     OW 7735   3.590   4.659   3.716
 2573SOL    HW1 7736   3.544   4.652   3.627
 2573SOL    HW2 7737   3.528   4.703   3.782
 2574SOL     OW 7738   2.169   3.787   2.480
 2574SOL    HW1 7739   2.158   3.881   2.513
 2574SOL    HW2 7740   2.164   3.724   2.557
 2575SOL     OW 7741   3.484   4.091   2.236
 2575SOL    HW1 7742   3.486   4.015   2.300
 2575SOL    HW2 7743   3.436   4.168   2.276
 2576SOL     OW 7744   2.885   4.490   2.828
 2576SOL    HW1 7745   2.900   4.511   2.924
 2576SOL    HW2 7746   2.855   4.395   2.819
 2577SOL     OW 7747   2.212   4.622   3.666
 2577SOL    HW1 7748   2.288   4.666   3.714
 2577SOL    HW2 7749   2.247   4.575   3.584
 2578SOL     OW 7750   3.402   3.998   1.987
 2578SOL    HW1 7751   3.341   3.923   2.010
 2578SOL    HW2 7752   3.424   4.050   2.070
 2579SOL     OW 7753   3.165   4.562   1.904
 2579SOL    HW1 7754   3.199   4.469   1.919
 2579SOL    HW2 7755   3.183   4.589   1.809
 2580SOL     OW 7756   2.181   4.534   2.811
 2580SOL    HW1 7757   2.274   4.570   2.816
 2580SOL    HW2 7758   2.175   4.449   2.863
 2581SOL     OW 7759   2.201   4.233   2.868
 2581SOL    HW1 7760   2.149   4.150   2.851
 2581SOL    HW2 7761   2.278   4.238   2.804
 2582SOL     OW 7762   3.000   4.104   3.540
 2582SOL    HW1 7763   2.955   4.167   3.604
 2582SOL    HW2 7764   3.093   4.135   3.523
 2583SOL     OW 7765   3.022   3.931   3.339
 2583SOL    HW1 7766   3.022   3.995   3.416
 2583SOL    HW2 7767   3.050   3.979   3.256
 2584SOL     OW 7768   2.864   4.520   3.100
 2584SOL    HW1 7769   2.905   4.488   3.186
 2584SOL    HW2 7770   2.768   4.493   3.097
 2585SOL     OW 7771   1.902   4.268   2.976
 2585SOL    HW1 7772   1.987   4.235   2.935
 2585SOL    HW2 7773   1.915   4.283   3.074
 2586SOL     OW 7774   2.051   4.244   3.584
 2586SOL    HW1 7775   2.110   4.204   3.514
 2586SOL    HW2 7776   1.993   4.315   3.543
 2587SOL     OW 7777   2.677   4.296   2.187
 2587SOL    HW1 7778   2.684   4.207   2.141
 2587SOL    HW2 7779   2.583   4.330   2.179
 2588SOL     OW 7780   3.519   4.328   3.068
 2588SOL    HW1 7781   3.481   4.259   3.130
 2588SOL    HW2 7782   3.601   4.292   3.024
 2589SOL     OW 7783   2.533   4.188   3.131
 2589SOL    HW1 7784   2.499   4.099   3.101
 2589SOL    HW2 7785   2.559   4.242   3.051
 2590SOL     OW 7786   2.335   4.224   2.053
 2590SOL    HW1 7787   2.396   4.304   2.057
 2590SOL    HW2 7788   2.240   4.255   2.060
 2591SOL     OW 7789   3.209   4.783   3.096
 2591SOL    HW1 7790   3.233   4.720   3.022
 2591SOL    HW2 7791   3.119   4.823   3.078
 2592SOL     OW 7792   3.164   4.579   2.171
 2592SOL    HW1 7793   3.078   4.548   2.213
 2592SOL    HW2 7794   3.160   4.565   2.072
 2593SOL     OW 7795   3.588   3.859   2.385
 2593SOL    HW1 7796   3.661   3.842   2.318
 2593SOL    HW2 7797   3.557   3.772   2.423
 2594SOL     OW 7798   3.142   4.651   2.534
 2594SOL    HW1 7799   3.202   4.570   2.536
 2594SOL    HW2 7800   3.182   4.720   2.474
 2595SOL     OW 7801   3.703   3.899   2.825
 2595SOL    HW1 7802   3.742   3.814   2.789
 2595SOL    HW2 7803   3.605   3.901   2.806
 2596SOL     OW 7804   2.125   4.050   2.582
 2596SOL    HW1 7805   2.046   4.101   2.548
 2596SOL    HW2 7806   2.116   4.035   2.680
 2597SOL     OW 7807   2.778   4.634   2.153
 2597SOL    HW1 7808   2.841   4.672   2.085
 2597SOL    HW2 7809   2.818   4.551   2.192
 2598SOL     OW 7810   2.876   3.960   2.833
 2598SOL    HW1 7811   2.868   3.924   2.740
 2598SOL    HW2 7812   2.874   3.884   2.898
 2599SOL     OW 7813   3.571   4.109   3.243
 2599SOL    HW1 7814   3.644   4.178   3.247
 2599SOL    HW2 7815   3.599   4.034   3.184
 2600SOL     OW 7816   1.967   4.737   3.588
 2600SOL    HW1 7817   1.890   4.704   3.642
 2600SOL    HW2 7818   2.052   4.707   3.630
 2601SOL     OW 7819   2.534   3.927   3.351
 2601SOL    HW1 7820   2.624   3.911   3.311
 2601SOL    HW2 7821   2.542   3.932   3.450
 2602SOL     OW 7822   1.937   4.069   1.895
 2602SOL    HW1 7823   1.845   4.041   1.866
 2602SOL    HW2 7824   1.968   4.146   1.839
 2603SOL     OW 7825   3.302   4.580   3.260
 2603SOL    HW1 7826   3.245   4.632   3.197
 2603SOL    HW2 7827   3.398   4.592   3.236
 2604SOL     OW 7828   1.934   3.890   2.180
 2604SOL    HW1 7829   1.917   3.973   2.126
 2604SOL    HW2 7830   2.024   3.853   2.158
 2605SOL     OW 7831   2.475   4.566   3.293
 2605SOL    HW1 7832   2.531   4.647   3.276
 2605SOL    HW2 7833   2.534   4.486   3.296
 2606SOL     OW 7834   2.578   4.289   3.570
 2606SOL    HW1 7835   2.597   4.354   3.644
 2606SOL    HW2 7836   2.638   4.209   3.579
 2607SOL     OW 7837   3.536   4.607   3.116
 2607SOL    HW1 7838   3.509   4.518   3.079
 2607SOL    HW2 7839   3.537   4.675   3.043
 2608SOL     OW 7840   3.087   4.049   2.311
 2608SOL    HW1 7841   3.152   3.975   2.300
 2608SOL    HW2 7842   3.107   4.099   2.395
 2609SOL     OW 7843   2.456   4.469   2.514
 2609SOL    HW1 7844   2.506   4.554   2.495
 2609SOL    HW2 7845   2.368   4.471   2.466
 2610SOL     OW 7846   3.639   4.066   3.504
 2610SOL    HW1 7847   3.622   4.097   3.410
 2610SOL    HW2 7848   3.555   4.029   3.542
 2611SOL     OW 7849   3.592   4.658   3.379
 2611SOL    HW1 7850   3.630   4.749   3.394
 2611SOL    HW2 7851   3.584   4.641   3.280
 2612SOL     OW 7852   3.686   3.916   3.089
 2612SOL    HW1 7853   3.682   3.826   3.133
 2612SOL    HW2 7854   3.689   3.905   2.990
 2613SOL     OW 7855   2.290   4.148   2.382
 2613SOL    HW1 7856   2.320   4.076   2.320
 2613SOL    HW2 7857   2.251   4.108   2.465
 2614SOL     OW 7858   2.179   4.271   3.142
 2614SOL    HW1 7859   2.217   4.212   3.214
 2614SOL    HW2 7860   2.219   4.245   3.054
 2615SOL     OW 7861   3.286   3.938   2.974
 2615SOL    HW1 7862   3.338   3.873   3.029
 2615SOL    HW2 7863   3.237   4.001   3.035
 2616SOL     OW 7864   2.863   3.758   3.016
 2616SOL    HW1 7865   2.800   3.686   2.985
 2616SOL    HW2 7866   2.956   3.722   3.016
 2617SOL     OW 7867   3.214   3.776   2.030
 2617SOL    HW1 7868   3.249   3.735   1.946
 2617SOL    HW2 7869   3.124   3.738   2.050
 2618SOL     OW 7870   3.162   4.177   2.553
 2618SOL    HW1 7871   3.103   4.257   2.557
 2618SOL    HW2 7872   3.177   4.142   2.646
 2619SOL     OW 7873   3.455   3.945   2.744
 2619SOL    HW1 7874   3.371   3.944   2.798
 2619SOL    HW2 7875   3.457   4.028   2.688
 2620SOL     OW 7876   2.092   4.352   3.837
 2620SOL    HW1 7877   1.999   4.350   3.874
 2620SOL    HW2 7878   2.093   4.313   3.745
 2621SOL     OW 7879   2.087   3.999   4.720
 2621SOL    HW1 7880   2.122   3.982   4.812
 2621SOL    HW2 7881   1.999   3.954   4.708
 2622SOL     OW 7882   1.881   4.092   4.371
 2622SOL    HW1 7883   1.799   4.135   4.410
 2622SOL    HW2 7884   1.853   4.019   4.308
 2623SOL     OW 7885   2.997   4.427   4.441
 2623SOL    HW1 7886   3.054   4.505   4.416
 2623SOL    HW2 7887   2.937   4.453   4.517
 2624SOL     OW 7888   3.617   4.331   3.955
 2624SOL    HW1 7889   3.605   4.318   3.856
 2624SOL    HW2 7890   3.587   4.250   4.004
 2625SOL     OW 7891   2.547   4.736   4.389
 2625SOL    HW1 7892   2.616   4.720   4.459
 2625SOL    HW2 7893   2.474   4.793   4.427
 2626SOL     OW 7894   3.465   4.171   4.461
 2626SOL    HW1 7895   3.391   4.217   4.411
 2626SOL    HW2 7896   3.516   4.239   4.514
 2627SOL     OW 7897   1.984   4.367   4.287
 2627SOL    HW1 7898   1.939   4.279   4.304
 2627SOL    HW2 7899   1.983   4.421   4.371
 2628SOL     OW 7900   2.671   3.728   4.226
 2628SOL    HW1 7901   2.711   3.819   4.217
 2628SOL    HW2 7902   2.571   3.736   4.232
 2629SOL     OW 7903   3.387   4.723   3.914
 2629SOL    HW1 7904   3.324   4.647   3.927
 2629SOL    HW2 7905   3.435   4.741   4.000
 2630SOL     OW 7906   2.460   4.453   3.994
 2630SOL    HW1 7907   2.484   4.522   3.926
 2630SOL    HW2 7908   2.382   4.486   4.048
 2631SOL     OW 7909   3.143   4.069   4.668
 2631SOL    HW1 7910   3.057   4.019   4.655
 2631SOL    HW2 7911   3.205   4.015   4.724
 2632SOL     OW 7912   2.903   4.425   4.153
 2632SOL    HW1 7913   2.929   4.421   4.249
 2632SOL    HW2 7914   2.818   4.374   4.139
 2633SOL     OW 7915   1.938   4.535   4.513
 2633SOL    HW1 7916   2.037   4.523   4.522
 2633SOL    HW2 7917   1.914   4.630   4.534
 2634SOL     OW 7918   2.727   4.072   3.919
 2634SOL    HW1 7919   2.786   4.135   3.870
 2634SOL    HW2 7920   2.746   3.978   3.890
 2635SOL     OW 7921   2.412   3.920   4.609
 2635SOL    HW1 7922   2.407   3.915   4.709
 2635SOL    HW2 7923   2.414   4.016   4.580
 2636SOL     OW 7924   3.320   4.459   4.452
 2636SOL    HW1 7925   3.315   4.394   4.527
 2636SOL    HW2 7926   3.400   4.518   4.465
 2637SOL     OW 7927   3.262   3.831   4.150
 2637SOL    HW1 7928   3.238   3.794   4.060
 2637SOL    HW2 7929   3.361   3.847   4.154
 2638SOL     OW 7930   2.244   4.424   4.204
 2638SOL    HW1 7931   2.289   4.334   4.201
 2638SOL    HW2 7932   2.150   4.413   4.237
 2639SOL     OW 7933   2.476   3.846   3.841
 2639SOL    HW1 7934   2.574   3.824   3.848
 2639SOL    HW2 7935   2.445   3.829   3.748
 2640SOL     OW 7936   2.401   3.788   4.236
 2640SOL    HW1 7937   2.320   3.789   4.294
 2640SOL    HW2 7938   2.404   3.871   4.181
 2641SOL     OW 7939   2.159   3.759   3.895
 2641SOL    HW1 7940   2.208   3.843   3.874
 2641SOL    HW2 7941   2.221   3.694   3.940
 2642SOL     OW 7942   2.797   3.960   4.204
 2642SOL    HW1 7943   2.749   4.001   4.126
 2642SOL    HW2 7944   2.896   3.958   4.185
 2643SOL     OW 7945   2.894   4.273   3.740
 2643SOL    HW1 7946   2.853   4.355   3.701
 2643SOL    HW2 7947   2.958   4.299   3.813
 2644SOL     OW 7948   2.728   4.178   4.366
 2644SOL    HW1 7949   2.696   4.250   4.304
 2644SOL    HW2 7950   2.752   4.097   4.313
 2645SOL     OW 7951   2.879   3.763   4.477
 2645SOL    HW1 7952   2.807   3.768   4.408
 2645SOL    HW2 7953   2.855   3.694   4.546
 2646SOL     OW 7954   3.719   4.557   4.101
 2646SOL    HW1 7955   3.761   4.493   4.165
 2646SOL    HW2 7956   3.681   4.506   4.023
 2647SOL     OW 7957   3.252   4.299   3.802
 2647SOL    HW1 7958   3.198   4.278   3.883
 2647SOL    HW2 7959   3.343   4.258   3.811
 2648SOL     OW 7960   2.389   3.980   4.052
 2648SOL    HW1 7961   2.416   3.921   3.977
 2648SOL    HW2 7962   2.389   4.075   4.021
 2649SOL     OW 7963   2.973   4.919   4.824
 2649SOL    HW1 7964   2.933   4.963   4.905
 2649SOL    HW2 7965   2.932   4.956   4.741
 2650SOL     OW 7966   2.428   4.261   4.589
 2650SOL    HW1 7967   2.440   4.327   4.515
 2650SOL    HW2 7968   2.474   4.295   4.672
 2651SOL     OW 7969   3.444   4.363   4.196
 2651SOL    HW1 7970   3.413   4.424   4.269
 2651SOL    HW2 7971   3.494   4.415   4.127
 2652SOL     OW 7972   2.435   4.594   4.753
 2652SOL    HW1 7973   2.479   4.683   4.744
 2652SOL    HW2 7974   2.372   4.594   4.830
 2653SOL     OW 7975   3.071   4.249   3.999
 2653SOL    HW1 7976   3.084   4.165   4.053
 2653SOL    HW2 7977   3.042   4.323   4.059
 2654SOL     OW 7978   2.594   4.358   4.788
 2654SOL    HW1 7979   2.653   4.332   4.712
 2654SOL    HW2 7980   2.566   4.454   4.777
 2655SOL     OW 7981   2.169   3.787   4.342
 2655SOL    HW1 7982   2.158   3.881   4.375
 2655SOL    HW2 7983   2.164   3.724   4.419
 2656SOL     OW 7984   3.484   4.091   4.098
 2656SOL    HW1 7985   3.486   4.015   4.162
 2656SOL    HW2 7986   3.436   4.168   4.138
 2657SOL     OW 7987   3.402   3.998   3.849
 2657SOL    HW1 7988   3.341   3.923   3.872
 2657SOL    HW2 7989   3.424   4.050   3.932
 2658SOL     OW 7990   3.165   4.562   3.766
 2658SOL    HW1 7991   3.199   4.469   3.781
 2658SOL    HW2 7992   3.183   4.589   3.671
 2659SOL     OW 7993   2.930   5.057   4.573
 2659SOL    HW1 7994   2.937   4.973   4.518
 2659SOL    HW2 7995   2.992   5.126   4.537
 2660SOL     OW 7996   2.181   4.534   4.673
 2660SOL    HW1 7997   2.274   4.570   4.678
 2660SOL    HW2 7998   2.175   4.449   4.725
 2661SOL     OW 7999   2.677   4.296   4.049
 2661SOL    HW1 8000   2.684   4.207   4.003
 2661SOL    HW2 8001   2.583   4.330   4.041
 2662SOL     OW 8002   2.335   4.224   3.915
 2662SOL    HW1 8003   2.396   4.304   3.919
 2662SOL    HW2 8004   2.240   4.255   3.922
 2663SOL     OW 8005   3.164   4.579   4.033
 2663SOL    HW1 8006   3.078   4.548   4.075
 2663SOL    HW2 8007   3.160   4.565   3.934
 2664SOL     OW 8008   3.588   3.859   4.247
 2664SOL    HW1 8009   3.661   3.842   4.180
 2664SOL    HW2 8010   3.557   3.772   4.285
 2665SOL     OW 8011   3.142   4.651   4.396
 2665SOL    HW1 8012   3.202   4.570   4.398
 2665SOL    HW2 8013   3.182   4.720   4.336
 2666SOL     OW 8014   3.703   3.899   4.687
 2666SOL    HW1 8015   3.742   3.814   4.651
 2666SOL    HW2 8016   3.605   3.901   4.668
 2667SOL     OW 8017   2.125   4.050   4.444
 2667SOL    HW1 8018   2.046   4.101   4.410
 2667SOL    HW2 8019   2.116   4.035   4.542
 2668SOL     OW 8020   2.778   4.634   4.015
 2668SOL    HW1 8021   2.841   4.672   3.947
 2668SOL    HW2 8022   2.818   4.551   4.054
 2669SOL     OW 8023   1.937   4.069   3.757
 2669SOL    HW1 8024   1.845   4.041   3.728
 2669SOL    HW2 8025   1.968   4.146   3.701
 2670SOL     OW 8026   1.934   3.890   4.042
 2670SOL    HW1 8027   1.917   3.973   3.988
 2670SOL    HW2 8028   2.024   3.853   4.020
 2671SOL     OW 8029   3.536   4.607   4.978
 2671SOL    HW1 8030   3.509   4.518   4.941
 2671SOL    HW2 8031   3.537   4.675   4.905
 2672SOL     OW 8032   3.087   4.049   4.173
 2672SOL    HW1 8033   3.152   3.975   4.162
 2672SOL    HW2 8034   3.107   4.099   4.257
 2673SOL     OW 8035   2.456   4.469   4.376
 2673SOL    HW1 8036   2.506   4.554   4.357
 2673SOL    HW2 8037   2.368   4.471   4.328
 2674SOL     OW 8038   2.290   4.148   4.244
 2674SOL    HW1 8039   2.320   4.076   4.182
 2674SOL    HW2 8040   2.251   4.108   4.327
 2675SOL     OW 8041   3.214   3.776   3.892
 2675SOL    HW1 8042   3.249   3.735   3.808
 2675SOL    HW2 8043   3.124   3.738   3.912
 2676SOL     OW 8044   3.162   4.177   4.415
 2676SOL    HW1 8045   3.103   4.257   4.419
 2676SOL    HW2 8046   3.177   4.142   4.508
 2677SOL     OW 8047   3.455   3.945   4.606
 2677SOL    HW1 8048   3.371   3.944   4.660
 2677SOL    HW2 8049   3.457   4.028   4.550
 2678SOL     OW 8050   3.954   0.628   0.113
 2678SOL    HW1 8051   3.861   0.626   0.150
 2678SOL    HW2 8052   3.955   0.589   0.021
 2679SOL     OW 8053   3.949   0.275   0.996
 2679SOL    HW1 8054   3.984   0.258   1.088
 2679SOL    HW2 8055   3.861   0.230   0.984
 2680SOL     OW 8056   3.743   0.368   0.647
 2680SOL    HW1 8057   3.661   0.411   0.686
 2680SOL    HW2 8058   3.715   0.295   0.584
 2681SOL     OW 8059   4.293   1.275   1.165
 2681SOL    HW1 8060   4.200   1.268   1.128
 2681SOL    HW2 8061   4.304   1.364   1.209
 2682SOL     OW 8062   4.492   1.144   1.023
 2682SOL    HW1 8063   4.414   1.161   1.083
 2682SOL    HW2 8064   4.526   1.231   0.987
 2683SOL     OW 8065   4.574   0.798   1.823
 2683SOL    HW1 8066   4.570   0.874   1.888
 2683SOL    HW2 8067   4.596   0.834   1.732
 2684SOL     OW 8068   4.409   1.012   0.665
 2684SOL    HW1 8069   4.478   0.996   0.735
 2684SOL    HW2 8070   4.336   1.069   0.703
 2685SOL     OW 8071   4.410   1.161   1.803
 2685SOL    HW1 8072   4.470   1.240   1.817
 2685SOL    HW2 8073   4.324   1.192   1.762
 2686SOL     OW 8074   4.059   1.435   1.061
 2686SOL    HW1 8075   3.981   1.404   1.008
 2686SOL    HW2 8076   4.117   1.493   1.004
 2687SOL     OW 8077   4.162   0.392   1.499
 2687SOL    HW1 8078   4.244   0.336   1.508
 2687SOL    HW2 8079   4.081   0.334   1.503
 2688SOL     OW 8080   3.955   1.713   0.483
 2688SOL    HW1 8081   3.989   1.790   0.537
 2688SOL    HW2 8082   3.999   1.713   0.393
 2689SOL     OW 8083   3.954   1.434   0.538
 2689SOL    HW1 8084   3.928   1.530   0.538
 2689SOL    HW2 8085   3.883   1.380   0.583
 2690SOL     OW 8086   3.964   1.091   0.886
 2690SOL    HW1 8087   3.978   1.007   0.938
 2690SOL    HW2 8088   3.909   1.155   0.941
 2691SOL     OW 8089   4.344   1.786   1.439
 2691SOL    HW1 8090   4.252   1.769   1.474
 2691SOL    HW2 8091   4.372   1.878   1.465
 2692SOL     OW 8092   4.330   0.964   0.123
 2692SOL    HW1 8093   4.337   1.048   0.069
 2692SOL    HW2 8094   4.376   0.977   0.211
 2693SOL     OW 8095   3.846   0.643   0.563
 2693SOL    HW1 8096   3.801   0.555   0.580
 2693SOL    HW2 8097   3.845   0.697   0.647
 2694SOL     OW 8098   3.837   0.737   1.597
 2694SOL    HW1 8099   3.925   0.724   1.642
 2694SOL    HW2 8100   3.824   0.834   1.575
 2695SOL     OW 8101   4.337   1.365   0.726
 2695SOL    HW1 8102   4.288   1.278   0.735
 2695SOL    HW2 8103   4.314   1.408   0.639
 2696SOL     OW 8104   4.533   0.004   0.502
 2696SOL    HW1 8105   4.573   0.095   0.493
 2696SOL    HW2 8106   4.433   0.012   0.508
 2697SOL     OW 8107   3.921   0.976   1.264
 2697SOL    HW1 8108   4.010   0.931   1.250
 2697SOL    HW2 8109   3.848   0.911   1.245
 2698SOL     OW 8110   4.041   0.251   1.801
 2698SOL    HW1 8111   4.112   0.322   1.807
 2698SOL    HW2 8112   3.953   0.290   1.829
 2699SOL     OW 8113   4.322   0.729   0.270
 2699SOL    HW1 8114   4.346   0.798   0.202
 2699SOL    HW2 8115   4.244   0.762   0.324
 2700SOL     OW 8116   4.531   0.605   1.465
 2700SOL    HW1 8117   4.484   0.602   1.554
 2700SOL    HW2 8118   4.480   0.550   1.399
 2701SOL     OW 8119   4.715   0.410   1.242
 2701SOL    HW1 8120   4.638   0.444   1.296
 2701SOL    HW2 8121   4.681   0.359   1.163
 2702SOL     OW 8122   3.800   0.811   0.789
 2702SOL    HW1 8123   3.899   0.799   0.798
 2702SOL    HW2 8124   3.776   0.906   0.810
 2703SOL     OW 8125   3.854   1.821   1.571
 2703SOL    HW1 8126   3.844   1.806   1.670
 2703SOL    HW2 8127   3.768   1.857   1.535
 2704SOL     OW 8128   4.589   0.348   0.195
 2704SOL    HW1 8129   4.648   0.411   0.146
 2704SOL    HW2 8130   4.608   0.254   0.166
 2705SOL     OW 8131   4.274   0.196   0.885
 2705SOL    HW1 8132   4.269   0.191   0.985
 2705SOL    HW2 8133   4.276   0.292   0.856
 2706SOL     OW 8134   4.732   1.456   0.477
 2706SOL    HW1 8135   4.686   1.528   0.425
 2706SOL    HW2 8136   4.728   1.476   0.575
 2707SOL     OW 8137   4.075   1.801   0.853
 2707SOL    HW1 8138   4.125   1.715   0.859
 2707SOL    HW2 8139   4.140   1.878   0.850
 2708SOL     OW 8140   4.045   0.943   0.242
 2708SOL    HW1 8141   4.127   0.982   0.200
 2708SOL    HW2 8142   4.018   0.861   0.193
 2709SOL     OW 8143   4.185   1.266   1.727
 2709SOL    HW1 8144   4.135   1.267   1.641
 2709SOL    HW2 8145   4.122   1.248   1.803
 2710SOL     OW 8146   3.926   0.285   1.498
 2710SOL    HW1 8147   3.846   0.345   1.485
 2710SOL    HW2 8148   3.916   0.236   1.584
 2711SOL     OW 8149   4.188   1.743   0.323
 2711SOL    HW1 8150   4.221   1.782   0.409
 2711SOL    HW2 8151   4.264   1.736   0.258
 2712SOL     OW 8152   3.973   1.785   1.241
 2712SOL    HW1 8153   4.030   1.720   1.291
 2712SOL    HW2 8154   3.957   1.752   1.148
 2713SOL     OW 8155   4.106   0.700   0.480
 2713SOL    HW1 8156   4.151   0.610   0.477
 2713SOL    HW2 8157   4.012   0.689   0.513
 2714SOL     OW 8158   4.338   0.122   0.117
 2714SOL    HW1 8159   4.436   0.100   0.124
 2714SOL    HW2 8160   4.307   0.105   0.024
 2715SOL     OW 8161   4.505   0.264   1.749
 2715SOL    HW1 8162   4.572   0.203   1.792
 2715SOL    HW2 8163   4.432   0.283   1.814
 2716SOL     OW 8164   4.527   1.402   0.924
 2716SOL    HW1 8165   4.617   1.416   0.882
 2716SOL    HW2 8166   4.456   1.404   0.853
 2717SOL     OW 8167   4.646   0.503   0.899
 2717SOL    HW1 8168   4.621   0.494   0.803
 2717SOL    HW2 8169   4.694   0.421   0.930
 2718SOL     OW 8170   4.263   0.064   0.512
 2718SOL    HW1 8171   4.182   0.065   0.570
 2718SOL    HW2 8172   4.266   0.147   0.457
 2719SOL     OW 8173   4.021   0.035   0.171
 2719SOL    HW1 8174   4.070   0.119   0.150
 2719SOL    HW2 8175   4.083  -0.030   0.216
 2720SOL     OW 8176   4.951   1.570   0.793
 2720SOL    HW1 8177   4.972   1.644   0.728
 2720SOL    HW2 8178   5.019   1.570   0.866
 2721SOL     OW 8179   4.183   1.152   0.741
 2721SOL    HW1 8180   4.112   1.125   0.806
 2721SOL    HW2 8181   4.157   1.124   0.648
 2722SOL     OW 8182   3.802   0.556   1.386
 2722SOL    HW1 8183   3.894   0.555   1.345
 2722SOL    HW2 8184   3.796   0.630   1.453
 2723SOL     OW 8185   4.285   0.222   1.147
 2723SOL    HW1 8186   4.323   0.138   1.184
 2723SOL    HW2 8187   4.197   0.241   1.191
 2724SOL     OW 8188   4.212   1.385   0.174
 2724SOL    HW1 8189   4.125   1.370   0.221
 2724SOL    HW2 8190   4.195   1.411   0.079
 2725SOL     OW 8191   4.251   0.256   0.328
 2725SOL    HW1 8192   4.278   0.197   0.253
 2725SOL    HW2 8193   4.251   0.351   0.297
 2726SOL     OW 8194   4.639   0.089   1.402
 2726SOL    HW1 8195   4.664   0.069   1.307
 2726SOL    HW2 8196   4.711   0.145   1.444
 2727SOL     OW 8197   4.429   1.050   0.368
 2727SOL    HW1 8198   4.415   1.057   0.467
 2727SOL    HW2 8199   4.513   0.999   0.350
 2728SOL     OW 8200   4.134   0.813   1.251
 2728SOL    HW1 8201   4.220   0.825   1.301
 2728SOL    HW2 8202   4.092   0.726   1.278
 2729SOL     OW 8203   3.788   1.564   1.331
 2729SOL    HW1 8204   3.742   1.646   1.297
 2729SOL    HW2 8205   3.886   1.583   1.340
 2730SOL     OW 8206   4.091   1.100   0.501
 2730SOL    HW1 8207   4.084   1.183   0.445
 2730SOL    HW2 8208   4.095   1.020   0.441
 2731SOL     OW 8209   4.290   0.537   0.865
 2731SOL    HW1 8210   4.302   0.603   0.791
 2731SOL    HW2 8211   4.336   0.571   0.948
 2732SOL     OW 8212   4.078   1.510   1.329
 2732SOL    HW1 8213   4.057   1.466   1.242
 2732SOL    HW2 8214   4.175   1.536   1.332
 2733SOL     OW 8215   4.126   0.751   1.598
 2733SOL    HW1 8216   4.194   0.806   1.551
 2733SOL    HW2 8217   4.166   0.663   1.625
 2734SOL     OW 8218   4.228   0.050   1.740
 2734SOL    HW1 8219   4.186  -0.007   1.670
 2734SOL    HW2 8220   4.162   0.119   1.772
 2735SOL     OW 8221   4.297   0.870   1.029
 2735SOL    HW1 8222   4.341   0.959   1.020
 2735SOL    HW2 8223   4.234   0.870   1.106
 2736SOL     OW 8224   4.933   0.525   0.275
 2736SOL    HW1 8225   4.946   0.441   0.329
 2736SOL    HW2 8226   4.904   0.599   0.335
 2737SOL     OW 8227   4.031   0.213   1.231
 2737SOL    HW1 8228   4.008   0.250   1.321
 2737SOL    HW2 8229   4.001   0.118   1.225
 2738SOL     OW 8230   3.761   1.310   1.282
 2738SOL    HW1 8231   3.814   1.261   1.350
 2738SOL    HW2 8232   3.783   1.408   1.287
 2739SOL     OW 8233   4.456   0.634   1.064
 2739SOL    HW1 8234   4.515   0.608   0.988
 2739SOL    HW2 8235   4.428   0.730   1.053
 2740SOL     OW 8236   4.031   0.063   0.618
 2740SOL    HW1 8237   4.020   0.157   0.651
 2740SOL    HW2 8238   4.026   0.000   0.695
 2741SOL     OW 8239   4.747   0.766   0.966
 2741SOL    HW1 8240   4.762   0.787   1.062
 2741SOL    HW2 8241   4.717   0.671   0.957
 2742SOL     OW 8242   4.704   1.573   1.700
 2742SOL    HW1 8243   4.684   1.617   1.612
 2742SOL    HW2 8244   4.743   1.482   1.684
 2743SOL     OW 8245   4.074   0.898   1.804
 2743SOL    HW1 8246   4.150   0.942   1.852
 2743SOL    HW2 8247   4.109   0.851   1.722
 2744SOL     OW 8248   4.043   0.810   0.949
 2744SOL    HW1 8249   4.136   0.846   0.954
 2744SOL    HW2 8250   4.037   0.725   1.001
 2745SOL     OW 8251   4.063   0.509   1.006
 2745SOL    HW1 8252   4.011   0.426   0.989
 2745SOL    HW2 8253   4.140   0.514   0.942
 2746SOL     OW 8254   3.732   1.326   0.200
 2746SOL    HW1 8255   3.639   1.347   0.169
 2746SOL    HW2 8256   3.742   1.227   0.213
 2747SOL     OW 8257   3.812   1.801   0.927
 2747SOL    HW1 8258   3.770   1.715   0.900
 2747SOL    HW2 8259   3.906   1.804   0.893
 2748SOL     OW 8260   4.228   1.568   0.910
 2748SOL    HW1 8261   4.294   1.642   0.919
 2748SOL    HW2 8262   4.272   1.489   0.868
 2749SOL     OW 8263   4.726   0.796   1.238
 2749SOL    HW1 8264   4.767   0.764   1.324
 2749SOL    HW2 8265   4.630   0.769   1.235
 2750SOL     OW 8266   3.764   0.544   1.114
 2750SOL    HW1 8267   3.849   0.511   1.073
 2750SOL    HW2 8268   3.777   0.559   1.212
 2751SOL     OW 8269   3.913   0.520   1.722
 2751SOL    HW1 8270   3.972   0.480   1.652
 2751SOL    HW2 8271   3.855   0.591   1.681
 2752SOL     OW 8272   4.539   0.572   0.325
 2752SOL    HW1 8273   4.546   0.483   0.279
 2752SOL    HW2 8274   4.445   0.606   0.317
 2753SOL     OW 8275   3.976   1.564   1.744
 2753SOL    HW1 8276   3.946   1.621   1.820
 2753SOL    HW2 8277   3.969   1.467   1.770
 2754SOL     OW 8278   4.395   0.464   1.269
 2754SOL    HW1 8279   4.361   0.375   1.239
 2754SOL    HW2 8280   4.421   0.518   1.189
 2755SOL     OW 8281   4.197   0.500   0.191
 2755SOL    HW1 8282   4.258   0.580   0.195
 2755SOL    HW2 8283   4.102   0.531   0.198
 2756SOL     OW 8284   3.883   1.137   1.466
 2756SOL    HW1 8285   3.905   1.076   1.542
 2756SOL    HW2 8286   3.893   1.088   1.380
 2757SOL     OW 8287   3.807   1.258   1.022
 2757SOL    HW1 8288   3.802   1.257   1.122
 2757SOL    HW2 8289   3.724   1.217   0.984
 2758SOL     OW 8290   4.412   1.662   1.716
 2758SOL    HW1 8291   4.356   1.743   1.725
 2758SOL    HW2 8292   4.464   1.666   1.630
 2759SOL     OW 8293   4.627   0.086   0.133
 2759SOL    HW1 8294   4.678   0.087   0.047
 2759SOL    HW2 8295   4.683   0.044   0.204
 2760SOL     OW 8296   3.854   1.794   1.851
 2760SOL    HW1 8297   3.813   1.720   1.904
 2760SOL    HW2 8298   3.918   1.845   1.909
 2761SOL     OW 8299   4.554   1.273   1.422
 2761SOL    HW1 8300   4.549   1.306   1.517
 2761SOL    HW2 8301   4.468   1.292   1.376
 2762SOL     OW 8302   4.396   1.616   0.154
 2762SOL    HW1 8303   4.405   1.626   0.055
 2762SOL    HW2 8304   4.356   1.527   0.175
 2763SOL     OW 8305   3.987   0.326   0.720
 2763SOL    HW1 8306   3.908   0.377   0.686
 2763SOL    HW2 8307   3.978   0.311   0.818
 2764SOL     OW 8308   4.918   1.612   0.031
 2764SOL    HW1 8309   4.924   1.519   0.068
 2764SOL    HW2 8310   4.859   1.612  -0.049
 2765SOL     OW 8311   4.546   1.002   1.372
 2765SOL    HW1 8312   4.586   1.001   1.280
 2765SOL    HW2 8313   4.556   1.094   1.412
 2766SOL     OW 8314   4.096   1.288   1.490
 2766SOL    HW1 8315   4.083   1.381   1.456
 2766SOL    HW2 8316   4.012   1.236   1.477
 2767SOL     OW 8317   4.314   1.487   0.491
 2767SOL    HW1 8318   4.356   1.429   0.421
 2767SOL    HW2 8319   4.270   1.566   0.447
 2768SOL     OW 8320   3.979   1.348   0.290
 2768SOL    HW1 8321   3.883   1.349   0.263
 2768SOL    HW2 8322   3.991   1.401   0.374
 2769SOL     OW 8323   3.829   1.013   1.726
 2769SOL    HW1 8324   3.752   0.980   1.780
 2769SOL    HW2 8325   3.914   0.983   1.768
 2770SOL     OW 8326   4.396   0.203   1.489
 2770SOL    HW1 8327   4.486   0.187   1.449
 2770SOL    HW2 8328   4.404   0.208   1.588
 2771SOL     OW 8329   4.337   0.842   1.431
 2771SOL    HW1 8330   4.393   0.923   1.414
 2771SOL    HW2 8331   4.396   0.762   1.434
 2772SOL     OW 8332   4.440   0.565   1.708
 2772SOL    HW1 8333   4.459   0.630   1.782
 2772SOL    HW2 8334   4.500   0.485   1.717
 2773SOL     OW 8335   4.114   1.741   1.560
 2773SOL    HW1 8336   4.023   1.782   1.558
 2773SOL    HW2 8337   4.107   1.647   1.592
 2774SOL     OW 8338   4.949   0.325   0.449
 2774SOL    HW1 8339   5.014   0.251   0.438
 2774SOL    HW2 8340   4.969   0.375   0.533
 2775SOL     OW 8341   4.318   0.745   0.652
 2775SOL    HW1 8342   4.368   0.830   0.633
 2775SOL    HW2 8343   4.230   0.747   0.604
 2776SOL     OW 8344   4.385   1.790   0.953
 2776SOL    HW1 8345   4.339   1.878   0.940
 2776SOL    HW2 8346   4.484   1.802   0.946
 2777SOL     OW 8347   4.583   0.956   0.861
 2777SOL    HW1 8348   4.637   0.887   0.909
 2777SOL    HW2 8349   4.551   1.025   0.927
 2778SOL     OW 8350   4.807   0.984   0.087
 2778SOL    HW1 8351   4.784   1.037   0.005
 2778SOL    HW2 8352   4.888   0.928   0.068
 2779SOL     OW 8353   3.945   1.314   1.844
 2779SOL    HW1 8354   3.880   1.241   1.823
 2779SOL    HW2 8355   3.949   1.328   1.942
 2780SOL     OW 8356   3.803   1.240   0.653
 2780SOL    HW1 8357   3.802   1.193   0.741
 2780SOL    HW2 8358   3.885   1.212   0.602
 2781SOL     OW 8359   4.396   1.391   1.624
 2781SOL    HW1 8360   4.318   1.341   1.662
 2781SOL    HW2 8361   4.393   1.486   1.655
 2782SOL     OW 8362   4.152   0.424   0.520
 2782SOL    HW1 8363   4.182   0.352   0.458
 2782SOL    HW2 8364   4.113   0.384   0.603
 2783SOL     OW 8365   4.041   0.547   1.280
 2783SOL    HW1 8366   4.079   0.488   1.352
 2783SOL    HW2 8367   4.081   0.521   1.192
 2784SOL     OW 8368   4.536   1.586   0.687
 2784SOL    HW1 8369   4.568   1.596   0.593
 2784SOL    HW2 8370   4.457   1.524   0.689
 2785SOL     OW 8371   4.494   1.330   0.301
 2785SOL    HW1 8372   4.448   1.243   0.318
 2785SOL    HW2 8373   4.585   1.327   0.342
 2786SOL     OW 8374   4.342   1.567   1.284
 2786SOL    HW1 8375   4.337   1.649   1.341
 2786SOL    HW2 8376   4.431   1.564   1.239
 2787SOL     OW 8377   3.763   1.077   0.300
 2787SOL    HW1 8378   3.862   1.066   0.291
 2787SOL    HW2 8379   3.723   0.991   0.332
 2788SOL     OW 8380   4.599   1.646   0.337
 2788SOL    HW1 8381   4.522   1.611   0.283
 2788SOL    HW2 8382   4.567   1.717   0.399
 2789SOL     OW 8383   3.954   0.628   1.975
 2789SOL    HW1 8384   3.861   0.626   2.012
 2789SOL    HW2 8385   3.955   0.589   1.883
 2790SOL     OW 8386   3.949   0.275   2.858
 2790SOL    HW1 8387   3.984   0.258   2.950
 2790SOL    HW2 8388   3.861   0.230   2.846
 2791SOL     OW 8389   3.743   0.368   2.509
 2791SOL    HW1 8390   3.661   0.411   2.548
 2791SOL    HW2 8391   3.715   0.295   2.446
 2792SOL     OW 8392   4.293   1.275   3.027
 2792SOL    HW1 8393   4.200   1.268   2.990
 2792SOL    HW2 8394   4.304   1.364   3.071
 2793SOL     OW 8395   4.492   1.144   2.885
 2793SOL    HW1 8396   4.414   1.161   2.945
 2793SOL    HW2 8397   4.526   1.231   2.849
 2794SOL     OW 8398   4.574   0.798   3.685
 2794SOL    HW1 8399   4.570   0.874   3.750
 2794SOL    HW2 8400   4.596   0.834   3.594
 2795SOL     OW 8401   4.409   1.012   2.527
 2795SOL    HW1 8402   4.478   0.996   2.597
 2795SOL    HW2 8403   4.336   1.069   2.565
 2796SOL     OW 8404   4.410   1.161   3.665
 2796SOL    HW1 8405   4.470   1.240   3.679
 2796SOL    HW2 8406   4.324   1.192   3.624
 2797SOL     OW 8407   4.059   1.435   2.923
 2797SOL    HW1 8408   3.981   1.404   2.870
 2797SOL    HW2 8409   4.117   1.493   2.866
 2798SOL     OW 8410   4.162   0.392   3.361
 2798SOL    HW1 8411   4.244   0.336   3.370
 2798SOL    HW2 8412   4.081   0.334   3.365
 2799SOL     OW 8413   3.955   1.713   2.345
 2799SOL    HW1 8414   3.989   1.790   2.399
 2799SOL    HW2 8415   3.999   1.713   2.255
 2800SOL     OW 8416   3.954   1.434   2.400
 2800SOL    HW1 8417   3.928   1.530   2.400
 2800SOL    HW2 8418   3.883   1.380   2.445
 2801SOL     OW 8419   3.964   1.091   2.748
 2801SOL    HW1 8420   3.978   1.007   2.800
 2801SOL    HW2 8421   3.909   1.155   2.803
 2802SOL     OW 8422   4.344   1.786   3.301
 2802SOL    HW1 8423   4.252   1.769   3.336
 2802SOL    HW2 8424   4.372   1.878   3.327
 2803SOL     OW 8425   4.330   0.964   1.985
 2803SOL    HW1 8426   4.337   1.048   1.931
 2803SOL    HW2 8427   4.376   0.977   2.073
 2804SOL     OW 8428   3.846   0.643   2.425
 2804SOL    HW1 8429   3.801   0.555   2.442
 2804SOL    HW2 8430   3.845   0.697   2.509
 2805SOL     OW 8431   3.751   1.596   1.979
 2805SOL    HW1 8432   3.732   1.500   2.000
 2805SOL    HW2 8433   3.718   1.654   2.054
 2806SOL     OW 8434   3.837   0.737   3.459
 2806SOL    HW1 8435   3.925   0.724   3.504
 2806SOL    HW2 8436   3.824   0.834   3.437
 2807SOL     OW 8437   4.337   1.365   2.588
 2807SOL    HW1 8438   4.288   1.278   2.597
 2807SOL    HW2 8439   4.314   1.408   2.501
 2808SOL     OW 8440   4.533   0.004   2.364
 2808SOL    HW1 8441   4.573   0.095   2.355
 2808SOL    HW2 8442   4.433   0.012   2.370
 2809SOL     OW 8443   3.921   0.976   3.126
 2809SOL    HW1 8444   4.010   0.931   3.112
 2809SOL    HW2 8445   3.848   0.911   3.107
 2810SOL     OW 8446   4.041   0.251   3.663
 2810SOL    HW1 8447   4.112   0.322   3.669
 2810SOL    HW2 8448   3.953   0.290   3.691
 2811SOL     OW 8449   4.322   0.729   2.132
 2811SOL    HW1 8450   4.346   0.798   2.064
 2811SOL    HW2 8451   4.244   0.762   2.186
 2812SOL     OW 8452   4.531   0.605   3.327
 2812SOL    HW1 8453   4.484   0.602   3.416
 2812SOL    HW2 8454   4.480   0.550   3.261
 2813SOL     OW 8455   4.715   0.410   3.104
 2813SOL    HW1 8456   4.638   0.444   3.158
 2813SOL    HW2 8457   4.681   0.359   3.025
 2814SOL     OW 8458   3.800   0.811   2.651
 2814SOL    HW1 8459   3.899   0.799   2.660
 2814SOL    HW2 8460   3.776   0.906   2.672
 2815SOL     OW 8461   3.854   1.821   3.433
 2815SOL    HW1 8462   3.844   1.806   3.532
 2815SOL    HW2 8463   3.768   1.857   3.397
 2816SOL     OW 8464   4.589   0.348   2.057
 2816SOL    HW1 8465   4.648   0.411   2.008
 2816SOL    HW2 8466   4.608   0.254   2.028
 2817SOL     OW 8467   4.274   0.196   2.747
 2817SOL    HW1 8468   4.269   0.191   2.847
 2817SOL    HW2 8469   4.276   0.292   2.718
 2818SOL     OW 8470   4.732   1.456   2.339
 2818SOL    HW1 8471   4.686   1.528   2.287
 2818SOL    HW2 8472   4.728   1.476   2.437
 2819SOL     OW 8473   4.075   1.801   2.715
 2819SOL    HW1 8474   4.125   1.715   2.721
 2819SOL    HW2 8475   4.140   1.878   2.712
 2820SOL     OW 8476   4.045   0.943   2.104
 2820SOL    HW1 8477   4.127   0.982   2.062
 2820SOL    HW2 8478   4.018   0.861   2.055
 2821SOL     OW 8479   4.185   1.266   3.589
 2821SOL    HW1 8480   4.135   1.267   3.503
 2821SOL    HW2 8481   4.122   1.248   3.665
 2822SOL     OW 8482   3.926   0.285   3.360
 2822SOL    HW1 8483   3.846   0.345   3.347
 2822SOL    HW2 8484   3.916   0.236   3.446
 2823SOL     OW 8485   4.188   1.743   2.185
 2823SOL    HW1 8486   4.221   1.782   2.271
 2823SOL    HW2 8487   4.264   1.736   2.120
 2824SOL     OW 8488   3.973   1.785   3.103
 2824SOL    HW1 8489   4.030   1.720   3.153
 2824SOL    HW2 8490   3.957   1.752   3.010
 2825SOL     OW 8491   4.106   0.700   2.342
 2825SOL    HW1 8492   4.151   0.610   2.339
 2825SOL    HW2 8493   4.012   0.689   2.375
 2826SOL     OW 8494   4.338   0.122   1.979
 2826SOL    HW1 8495   4.436   0.100   1.986
 2826SOL    HW2 8496   4.307   0.105   1.886
 2827SOL     OW 8497   4.505   0.264   3.611
 2827SOL    HW1 8498   4.572   0.203   3.654
 2827SOL    HW2 8499   4.432   0.283   3.676
 2828SOL     OW 8500   4.527   1.402   2.786
 2828SOL    HW1 8501   4.617   1.416   2.744
 2828SOL    HW2 8502   4.456   1.404   2.715
 2829SOL     OW 8503   4.646   0.503   2.761
 2829SOL    HW1 8504   4.621   0.494   2.665
 2829SOL    HW2 8505   4.694   0.421   2.792
 2830SOL     OW 8506   4.263   0.064   2.374
 2830SOL    HW1 8507   4.182   0.065   2.432
 2830SOL    HW2 8508   4.266   0.147   2.319
 2831SOL     OW 8509   4.021   0.035   2.033
 2831SOL    HW1 8510   4.070   0.119   2.012
 2831SOL    HW2 8511   4.083  -0.030   2.078
 2832SOL     OW 8512   4.951   1.570   2.655
 2832SOL    HW1 8513   4.972   1.644   2.590
 2832SOL    HW2 8514   5.019   1.570   2.728
 2833SOL     OW 8515   4.183   1.152   2.603
 2833SOL    HW1 8516   4.112   1.125   2.668
 2833SOL    HW2 8517   4.157   1.124   2.510
 2834SOL     OW 8518   3.802   0.556   3.248
 2834SOL    HW1 8519   3.894   0.555   3.207
 2834SOL    HW2 8520   3.796   0.630   3.315
 2835SOL     OW 8521   4.285   0.222   3.009
 2835SOL    HW1 8522   4.323   0.138   3.046
 2835SOL    HW2 8523   4.197   0.241   3.053
 2836SOL     OW 8524   4.212   1.385   2.036
 2836SOL    HW1 8525   4.125   1.370   2.083
 2836SOL    HW2 8526   4.195   1.411   1.941
 2837SOL     OW 8527   4.251   0.256   2.190
 2837SOL    HW1 8528   4.278   0.197   2.115
 2837SOL    HW2 8529   4.251   0.351   2.159
 2838SOL     OW 8530   4.639   0.089   3.264
 2838SOL    HW1 8531   4.664   0.069   3.169
 2838SOL    HW2 8532   4.711   0.145   3.306
 2839SOL     OW 8533   4.429   1.050   2.230
 2839SOL    HW1 8534   4.415   1.057   2.329
 2839SOL    HW2 8535   4.513   0.999   2.212
 2840SOL     OW 8536   4.134   0.813   3.113
 2840SOL    HW1 8537   4.220   0.825   3.163
 2840SOL    HW2 8538   4.092   0.726   3.140
 2841SOL     OW 8539   3.788   1.564   3.193
 2841SOL    HW1 8540   3.742   1.646   3.159
 2841SOL    HW2 8541   3.886   1.583   3.202
 2842SOL     OW 8542   4.091   1.100   2.363
 2842SOL    HW1 8543   4.084   1.183   2.307
 2842SOL    HW2 8544   4.095   1.020   2.303
 2843SOL     OW 8545   4.290   0.537   2.727
 2843SOL    HW1 8546   4.302   0.603   2.653
 2843SOL    HW2 8547   4.336   0.571   2.810
 2844SOL     OW 8548   4.078   1.510   3.191
 2844SOL    HW1 8549   4.057   1.466   3.104
 2844SOL    HW2 8550   4.175   1.536   3.194
 2845SOL     OW 8551   4.126   0.751   3.460
 2845SOL    HW1 8552   4.194   0.806   3.413
 2845SOL    HW2 8553   4.166   0.663   3.487
 2846SOL     OW 8554   4.228   0.050   3.602
 2846SOL    HW1 8555   4.186  -0.007   3.532
 2846SOL    HW2 8556   4.162   0.119   3.634
 2847SOL     OW 8557   4.297   0.870   2.891
 2847SOL    HW1 8558   4.341   0.959   2.882
 2847SOL    HW2 8559   4.234   0.870   2.968
 2848SOL     OW 8560   4.933   0.525   2.137
 2848SOL    HW1 8561   4.946   0.441   2.191
 2848SOL    HW2 8562   4.904   0.599   2.197
 2849SOL     OW 8563   4.031   0.213   3.093
 2849SOL    HW1 8564   4.008   0.250   3.183
 2849SOL    HW2 8565   4.001   0.118   3.087
 2850SOL     OW 8566   3.761   1.310   3.144
 2850SOL    HW1 8567   3.814   1.261   3.212
 2850SOL    HW2 8568   3.783   1.408   3.149
 2851SOL     OW 8569   4.456   0.634   2.926
 2851SOL    HW1 8570   4.515   0.608   2.850
 2851SOL    HW2 8571   4.428   0.730   2.915
 2852SOL     OW 8572   4.031   0.063   2.480
 2852SOL    HW1 8573   4.020   0.157   2.513
 2852SOL    HW2 8574   4.026   0.000   2.557
 2853SOL     OW 8575   4.747   0.766   2.828
 2853SOL    HW1 8576   4.762   0.787   2.924
 2853SOL    HW2 8577   4.717   0.671   2.819
 2854SOL     OW 8578   4.704   1.573   3.562
 2854SOL    HW1 8579   4.684   1.617   3.474
 2854SOL    HW2 8580   4.743   1.482   3.546
 2855SOL     OW 8581   4.074   0.898   3.666
 2855SOL    HW1 8582   4.150   0.942   3.714
 2855SOL    HW2 8583   4.109   0.851   3.584
 2856SOL     OW 8584   4.043   0.810   2.811
 2856SOL    HW1 8585   4.136   0.846   2.816
 2856SOL    HW2 8586   4.037   0.725   2.863
 2857SOL     OW 8587   4.063   0.509   2.868
 2857SOL    HW1 8588   4.011   0.426   2.851
 2857SOL    HW2 8589   4.140   0.514   2.804
 2858SOL     OW 8590   3.732   1.326   2.062
 2858SOL    HW1 8591   3.639   1.347   2.031
 2858SOL    HW2 8592   3.742   1.227   2.075
 2859SOL     OW 8593   3.812   1.801   2.789
 2859SOL    HW1 8594   3.770   1.715   2.762
 2859SOL    HW2 8595   3.906   1.804   2.755
 2860SOL     OW 8596   4.228   1.568   2.772
 2860SOL    HW1 8597   4.294   1.642   2.781
 2860SOL    HW2 8598   4.272   1.489   2.730
 2861SOL     OW 8599   4.726   0.796   3.100
 2861SOL    HW1 8600   4.767   0.764   3.186
 2861SOL    HW2 8601   4.630   0.769   3.097
 2862SOL     OW 8602   3.764   0.544   2.976
 2862SOL    HW1 8603   3.849   0.511   2.935
 2862SOL    HW2 8604   3.777   0.559   3.074
 2863SOL     OW 8605   3.913   0.520   3.584
 2863SOL    HW1 8606   3.972   0.480   3.514
 2863SOL    HW2 8607   3.855   0.591   3.543
 2864SOL     OW 8608   4.539   0.572   2.187
 2864SOL    HW1 8609   4.546   0.483   2.141
 2864SOL    HW2 8610   4.445   0.606   2.179
 2865SOL     OW 8611   3.976   1.564   3.606
 2865SOL    HW1 8612   3.946   1.621   3.682
 2865SOL    HW2 8613   3.969   1.467   3.632
 2866SOL     OW 8614   4.395   0.464   3.131
 2866SOL    HW1 8615   4.361   0.375   3.101
 2866SOL    HW2 8616   4.421   0.518   3.051
 2867SOL     OW 8617   4.197   0.500   2.053
 2867SOL    HW1 8618   4.258   0.580   2.057
 2867SOL    HW2 8619   4.102   0.531   2.060
 2868SOL     OW 8620   3.883   1.137   3.328
 2868SOL    HW1 8621   3.905   1.076   3.404
 2868SOL    HW2 8622   3.893   1.088   3.242
 2869SOL     OW 8623   3.807   1.258   2.884
 2869SOL    HW1 8624   3.802   1.257   2.984
 2869SOL    HW2 8625   3.724   1.217   2.846
 2870SOL     OW 8626   4.412   1.662   3.578
 2870SOL    HW1 8627   4.356   1.743   3.587
 2870SOL    HW2 8628   4.464   1.666   3.492
 2871SOL     OW 8629   4.627   0.086   1.995
 2871SOL    HW1 8630   4.678   0.087   1.909
 2871SOL    HW2 8631   4.683   0.044   2.066
 2872SOL     OW 8632   3.854   1.794   3.713
 2872SOL    HW1 8633   3.813   1.720   3.766
 2872SOL    HW2 8634   3.918   1.845   3.771
 2873SOL     OW 8635   4.554   1.273   3.284
 2873SOL    HW1 8636   4.549   1.306   3.379
 2873SOL    HW2 8637   4.468   1.292   3.238
 2874SOL     OW 8638   4.396   1.616   2.016
 2874SOL    HW1 8639   4.405   1.626   1.917
 2874SOL    HW2 8640   4.356   1.527   2.037
 2875SOL     OW 8641   3.987   0.326   2.582
 2875SOL    HW1 8642   3.908   0.377   2.548
 2875SOL    HW2 8643   3.978   0.311   2.680
 2876SOL     OW 8644   4.546   1.002   3.234
 2876SOL    HW1 8645   4.586   1.001   3.142
 2876SOL    HW2 8646   4.556   1.094   3.274
 2877SOL     OW 8647   4.096   1.288   3.352
 2877SOL    HW1 8648   4.083   1.381   3.318
 2877SOL    HW2 8649   4.012   1.236   3.339
 2878SOL     OW 8650   4.314   1.487   2.353
 2878SOL    HW1 8651   4.356   1.429   2.283
 2878SOL    HW2 8652   4.270   1.566   2.309
 2879SOL     OW 8653   3.979   1.348   2.152
 2879SOL    HW1 8654   3.883   1.349   2.125
 2879SOL    HW2 8655   3.991   1.401   2.236
 2880SOL     OW 8656   3.829   1.013   3.588
 2880SOL    HW1 8657   3.752   0.980   3.642
 2880SOL    HW2 8658   3.914   0.983   3.630
 2881SOL     OW 8659   4.396   0.203   3.351
 2881SOL    HW1 8660   4.486   0.187   3.311
 2881SOL    HW2 8661   4.404   0.208   3.450
 2882SOL     OW 8662   3.799   0.345   1.895
 2882SOL    HW1 8663   3.707   0.317   1.866
 2882SOL    HW2 8664   3.830   0.422   1.839
 2883SOL     OW 8665   3.796   0.166   2.180
 2883SOL    HW1 8666   3.779   0.249   2.126
 2883SOL    HW2 8667   3.886   0.129   2.158
 2884SOL     OW 8668   4.337   0.842   3.293
 2884SOL    HW1 8669   4.393   0.923   3.276
 2884SOL    HW2 8670   4.396   0.762   3.296
 2885SOL     OW 8671   4.440   0.565   3.570
 2885SOL    HW1 8672   4.459   0.630   3.644
 2885SOL    HW2 8673   4.500   0.485   3.579
 2886SOL     OW 8674   4.114   1.741   3.422
 2886SOL    HW1 8675   4.023   1.782   3.420
 2886SOL    HW2 8676   4.107   1.647   3.454
 2887SOL     OW 8677   4.949   0.325   2.311
 2887SOL    HW1 8678   5.014   0.251   2.300
 2887SOL    HW2 8679   4.969   0.375   2.395
 2888SOL     OW 8680   4.318   0.745   2.514
 2888SOL    HW1 8681   4.368   0.830   2.495
 2888SOL    HW2 8682   4.230   0.747   2.466
 2889SOL     OW 8683   4.385   1.790   2.815
 2889SOL    HW1 8684   4.339   1.878   2.802
 2889SOL    HW2 8685   4.484   1.802   2.808
 2890SOL     OW 8686   4.583   0.956   2.723
 2890SOL    HW1 8687   4.637   0.887   2.771
 2890SOL    HW2 8688   4.551   1.025   2.789
 2891SOL     OW 8689   3.945   1.314   3.706
 2891SOL    HW1 8690   3.880   1.241   3.685
 2891SOL    HW2 8691   3.949   1.328   3.804
 2892SOL     OW 8692   3.803   1.240   2.515
 2892SOL    HW1 8693   3.802   1.193   2.603
 2892SOL    HW2 8694   3.885   1.212   2.464
 2893SOL     OW 8695   4.396   1.391   3.486
 2893SOL    HW1 8696   4.318   1.341   3.524
 2893SOL    HW2 8697   4.393   1.486   3.517
 2894SOL     OW 8698   4.152   0.424   2.382
 2894SOL    HW1 8699   4.182   0.352   2.320
 2894SOL    HW2 8700   4.113   0.384   2.465
 2895SOL     OW 8701   4.041   0.547   3.142
 2895SOL    HW1 8702   4.079   0.488   3.214
 2895SOL    HW2 8703   4.081   0.521   3.054
 2896SOL     OW 8704   4.536   1.586   2.549
 2896SOL    HW1 8705   4.568   1.596   2.455
 2896SOL    HW2 8706   4.457   1.524   2.551
 2897SOL     OW 8707   4.494   1.330   2.163
 2897SOL    HW1 8708   4.448   1.243   2.180
 2897SOL    HW2 8709   4.585   1.327   2.204
 2898SOL     OW 8710   4.342   1.567   3.146
 2898SOL    HW1 8711   4.337   1.649   3.203
 2898SOL    HW2 8712   4.431   1.564   3.101
 2899SOL     OW 8713   3.763   1.077   2.162
 2899SOL    HW1 8714   3.862   1.066   2.153
 2899SOL    HW2 8715   3.723   0.991   2.194
 2900SOL     OW 8716   4.599   1.646   2.199
 2900SOL    HW1 8717   4.522   1.611   2.145
 2900SOL    HW2 8718   4.567   1.717   2.261
 2901SOL     OW 8719   3.954   0.628   3.837
 2901SOL    HW1 8720   3.861   0.626   3.874
 2901SOL    HW2 8721   3.955   0.589   3.745
 2902SOL     OW 8722   3.949   0.275   4.720
 2902SOL    HW1 8723   3.984   0.258   4.812
 2902SOL    HW2 8724   3.861   0.230   4.708
 2903SOL     OW 8725   3.743   0.368   4.371
 2903SOL    HW1 8726   3.661   0.411   4.410
 2903SOL    HW2 8727   3.715   0.295   4.308
 2904SOL     OW 8728   4.492   1.144   4.747
 2904SOL    HW1 8729   4.414   1.161   4.807
 2904SOL    HW2 8730   4.526   1.231   4.711
 2905SOL     OW 8731   4.409   1.012   4.389
 2905SOL    HW1 8732   4.478   0.996   4.459
 2905SOL    HW2 8733   4.336   1.069   4.427
 2906SOL     OW 8734   3.955   1.713   4.207
 2906SOL    HW1 8735   3.989   1.790   4.261
 2906SOL    HW2 8736   3.999   1.713   4.117
 2907SOL     OW 8737   3.954   1.434   4.262
 2907SOL    HW1 8738   3.928   1.530   4.262
 2907SOL    HW2 8739   3.883   1.380   4.307
 2908SOL     OW 8740   3.964   1.091   4.610
 2908SOL    HW1 8741   3.978   1.007   4.662
 2908SOL    HW2 8742   3.909   1.155   4.665
 2909SOL     OW 8743   4.330   0.964   3.847
 2909SOL    HW1 8744   4.337   1.048   3.793
 2909SOL    HW2 8745   4.376   0.977   3.935
 2910SOL     OW 8746   3.846   0.643   4.287
 2910SOL    HW1 8747   3.801   0.555   4.304
 2910SOL    HW2 8748   3.845   0.697   4.371
 2911SOL     OW 8749   3.751   1.596   3.841
 2911SOL    HW1 8750   3.732   1.500   3.862
 2911SOL    HW2 8751   3.718   1.654   3.916
 2912SOL     OW 8752   4.337   1.365   4.450
 2912SOL    HW1 8753   4.288   1.278   4.459
 2912SOL    HW2 8754   4.314   1.408   4.363
 2913SOL     OW 8755   4.533   0.004   4.226
 2913SOL    HW1 8756   4.573   0.095   4.217
 2913SOL    HW2 8757   4.433   0.012   4.232
 2914SOL     OW 8758   4.322   0.729   3.994
 2914SOL    HW1 8759   4.346   0.798   3.926
 2914SOL    HW2 8760   4.244   0.762   4.048
 2915SOL     OW 8761   3.800   0.811   4.513
 2915SOL    HW1 8762   3.899   0.799   4.522
 2915SOL    HW2 8763   3.776   0.906   4.534
 2916SOL     OW 8764   4.589   0.348   3.919
 2916SOL    HW1 8765   4.648   0.411   3.870
 2916SOL    HW2 8766   4.608   0.254   3.890
 2917SOL     OW 8767   4.732   1.456   4.201
 2917SOL    HW1 8768   4.686   1.528   4.149
 2917SOL    HW2 8769   4.728   1.476   4.299
 2918SOL     OW 8770   4.075   1.801   4.577
 2918SOL    HW1 8771   4.125   1.715   4.583
 2918SOL    HW2 8772   4.140   1.878   4.574
 2919SOL     OW 8773   4.045   0.943   3.966
 2919SOL    HW1 8774   4.127   0.982   3.924
 2919SOL    HW2 8775   4.018   0.861   3.917
 2920SOL     OW 8776   4.188   1.743   4.047
 2920SOL    HW1 8777   4.221   1.782   4.133
 2920SOL    HW2 8778   4.264   1.736   3.982
 2921SOL     OW 8779   4.106   0.700   4.204
 2921SOL    HW1 8780   4.151   0.610   4.201
 2921SOL    HW2 8781   4.012   0.689   4.237
 2922SOL     OW 8782   4.338   0.122   3.841
 2922SOL    HW1 8783   4.436   0.100   3.848
 2922SOL    HW2 8784   4.307   0.105   3.748
 2923SOL     OW 8785   4.527   1.402   4.648
 2923SOL    HW1 8786   4.617   1.416   4.606
 2923SOL    HW2 8787   4.456   1.404   4.577
 2924SOL     OW 8788   4.263   0.064   4.236
 2924SOL    HW1 8789   4.182   0.065   4.294
 2924SOL    HW2 8790   4.266   0.147   4.181
 2925SOL     OW 8791   4.021   0.035   3.895
 2925SOL    HW1 8792   4.070   0.119   3.874
 2925SOL    HW2 8793   4.083  -0.030   3.940
 2926SOL     OW 8794   4.951   1.570   4.517
 2926SOL    HW1 8795   4.972   1.644   4.452
 2926SOL    HW2 8796   5.019   1.570   4.590
 2927SOL     OW 8797   4.183   1.152   4.465
 2927SOL    HW1 8798   4.112   1.125   4.530
 2927SOL    HW2 8799   4.157   1.124   4.372
 2928SOL     OW 8800   4.212   1.385   3.898
 2928SOL    HW1 8801   4.125   1.370   3.945
 2928SOL    HW2 8802   4.195   1.411   3.803
 2929SOL     OW 8803   4.251   0.256   4.052
 2929SOL    HW1 8804   4.278   0.197   3.977
 2929SOL    HW2 8805   4.251   0.351   4.021
 2930SOL     OW 8806   4.429   1.050   4.092
 2930SOL    HW1 8807   4.415   1.057   4.191
 2930SOL    HW2 8808   4.513   0.999   4.074
 2931SOL     OW 8809   4.091   1.100   4.225
 2931SOL    HW1 8810   4.084   1.183   4.169
 2931SOL    HW2 8811   4.095   1.020   4.165
 2932SOL     OW 8812   4.290   0.537   4.589
 2932SOL    HW1 8813   4.302   0.603   4.515
 2932SOL    HW2 8814   4.336   0.571   4.672
 2933SOL     OW 8815   4.933   0.525   3.999
 2933SOL    HW1 8816   4.946   0.441   4.053
 2933SOL    HW2 8817   4.904   0.599   4.059
 2934SOL     OW 8818   4.456   0.634   4.788
 2934SOL    HW1 8819   4.515   0.608   4.712
 2934SOL    HW2 8820   4.428   0.730   4.777
 2935SOL     OW 8821   4.031   0.063   4.342
 2935SOL    HW1 8822   4.020   0.157   4.375
 2935SOL    HW2 8823   4.026   0.000   4.419
 2936SOL     OW 8824   4.747   0.766   4.690
 2936SOL    HW1 8825   4.762   0.787   4.786
 2936SOL    HW2 8826   4.717   0.671   4.681
 2937SOL     OW 8827   4.043   0.810   4.673
 2937SOL    HW1 8828   4.136   0.846   4.678
 2937SOL    HW2 8829   4.037   0.725   4.725
 2938SOL     OW 8830   3.732   1.326   3.924
 2938SOL    HW1 8831   3.639   1.347   3.893
 2938SOL    HW2 8832   3.742   1.227   3.937
 2939SOL     OW 8833   3.812   1.801   4.651
 2939SOL    HW1 8834   3.770   1.715   4.624
 2939SOL    HW2 8835   3.906   1.804   4.617
 2940SOL     OW 8836   4.228   1.568   4.634
 2940SOL    HW1 8837   4.294   1.642   4.643
 2940SOL    HW2 8838   4.272   1.489   4.592
 2941SOL     OW 8839   4.726   0.796   4.962
 2941SOL    HW1 8840   4.767   0.764   5.048
 2941SOL    HW2 8841   4.630   0.769   4.959
 2942SOL     OW 8842   4.539   0.572   4.049
 2942SOL    HW1 8843   4.546   0.483   4.003
 2942SOL    HW2 8844   4.445   0.606   4.041
 2943SOL     OW 8845   4.197   0.500   3.915
 2943SOL    HW1 8846   4.258   0.580   3.919
 2943SOL    HW2 8847   4.102   0.531   3.922
 2944SOL     OW 8848   4.627   0.086   3.857
 2944SOL    HW1 8849   4.678   0.087   3.771
 2944SOL    HW2 8850   4.683   0.044   3.928
 2945SOL     OW 8851   4.396   1.616   3.878
 2945SOL    HW1 8852   4.405   1.626   3.779
 2945SOL    HW2 8853   4.356   1.527   3.899
 2946SOL     OW 8854   3.987   0.326   4.444
 2946SOL    HW1 8855   3.908   0.377   4.410
 2946SOL    HW2 8856   3.978   0.311   4.542
 2947SOL     OW 8857   4.314   1.487   4.215
 2947SOL    HW1 8858   4.356   1.429   4.145
 2947SOL    HW2 8859   4.270   1.566   4.171
 2948SOL     OW 8860   3.979   1.348   4.014
 2948SOL    HW1 8861   3.883   1.349   3.987
 2948SOL    HW2 8862   3.991   1.401   4.098
 2949SOL     OW 8863   3.799   0.345   3.757
 2949SOL    HW1 8864   3.707   0.317   3.728
 2949SOL    HW2 8865   3.830   0.422   3.701
 2950SOL     OW 8866   3.796   0.166   4.042
 2950SOL    HW1 8867   3.779   0.249   3.988
 2950SOL    HW2 8868   3.886   0.129   4.020
 2951SOL     OW 8869   4.949   0.325   4.173
 2951SOL    HW1 8870   5.014   0.251   4.162
 2951SOL    HW2 8871   4.969   0.375   4.257
 2952SOL     OW 8872   4.318   0.745   4.376
 2952SOL    HW1 8873   4.368   0.830   4.357
 2952SOL    HW2 8874   4.230   0.747   4.328
 2953SOL     OW 8875   4.385   1.790   4.677
 2953SOL    HW1 8876   4.339   1.878   4.664
 2953SOL    HW2 8877   4.484   1.802   4.670
 2954SOL     OW 8878   4.583   0.956   4.585
 2954SOL    HW1 8879   4.637   0.887   4.633
 2954SOL    HW2 8880   4.551   1.025   4.651
 2955SOL     OW 8881   3.803   1.240   4.377
 2955SOL    HW1 8882   3.802   1.193   4.465
 2955SOL    HW2 8883   3.885   1.212   4.326
 2956SOL     OW 8884   4.152   0.424   4.244
 2956SOL    HW1 8885   4.182   0.352   4.182
 2956SOL    HW2 8886   4.113   0.384   4.327
 2957SOL     OW 8887   4.536   1.586   4.411
 2957SOL    HW1 8888   4.568   1.596   4.317
 2957SOL    HW2 8889   4.457   1.524   4.413
 2958SOL     OW 8890   4.494   1.330   4.025
 2958SOL    HW1 8891   4.448   1.243   4.042
 2958SOL    HW2 8892   4.585   1.327   4.066
 2959SOL     OW 8893   3.763   1.077   4.024
 2959SOL    HW1 8894   3.862   1.066   4.015
 2959SOL    HW2 8895   3.723   0.991   4.056
 2960SOL     OW 8896   4.599   1.646   4.061
 2960SOL    HW1 8897   4.522   1.611   4.007
 2960SOL    HW2 8898   4.567   1.717   4.123
 2961SOL     OW 8899   3.954   2.490   0.113
 2961SOL    HW1 8900   3.861   2.488   0.150
 2961SOL    HW2 8901   3.955   2.451   0.021
 2962SOL     OW 8902   3.949   2.137   0.996
 2962SOL    HW1 8903   3.984   2.120   1.088
 2962SOL    HW2 8904   3.861   2.092   0.984
 2963SOL     OW 8905   3.743   2.230   0.647
 2963SOL    HW1 8906   3.661   2.273   0.686
 2963SOL    HW2 8907   3.715   2.157   0.584
 2964SOL     OW 8908   4.293   3.137   1.165
 2964SOL    HW1 8909   4.200   3.130   1.128
 2964SOL    HW2 8910   4.304   3.226   1.209
 2965SOL     OW 8911   4.492   3.006   1.023
 2965SOL    HW1 8912   4.414   3.023   1.083
 2965SOL    HW2 8913   4.526   3.093   0.987
 2966SOL     OW 8914   4.574   2.660   1.823
 2966SOL    HW1 8915   4.570   2.736   1.888
 2966SOL    HW2 8916   4.596   2.696   1.732
 2967SOL     OW 8917   4.409   2.874   0.665
 2967SOL    HW1 8918   4.478   2.858   0.735
 2967SOL    HW2 8919   4.336   2.931   0.703
 2968SOL     OW 8920   4.410   3.023   1.803
 2968SOL    HW1 8921   4.470   3.102   1.817
 2968SOL    HW2 8922   4.324   3.054   1.762
 2969SOL     OW 8923   4.059   3.297   1.061
 2969SOL    HW1 8924   3.981   3.266   1.008
 2969SOL    HW2 8925   4.117   3.355   1.004
 2970SOL     OW 8926   4.162   2.254   1.499
 2970SOL    HW1 8927   4.244   2.198   1.508
 2970SOL    HW2 8928   4.081   2.196   1.503
 2971SOL     OW 8929   3.955   3.575   0.483
 2971SOL    HW1 8930   3.989   3.652   0.537
 2971SOL    HW2 8931   3.999   3.575   0.393
 2972SOL     OW 8932   3.954   3.296   0.538
 2972SOL    HW1 8933   3.928   3.392   0.538
 2972SOL    HW2 8934   3.883   3.242   0.583
 2973SOL     OW 8935   3.964   2.953   0.886
 2973SOL    HW1 8936   3.978   2.869   0.938
 2973SOL    HW2 8937   3.909   3.017   0.941
 2974SOL     OW 8938   4.344   3.648   1.439
 2974SOL    HW1 8939   4.252   3.631   1.474
 2974SOL    HW2 8940   4.372   3.740   1.465
 2975SOL     OW 8941   4.330   2.826   0.123
 2975SOL    HW1 8942   4.337   2.910   0.069
 2975SOL    HW2 8943   4.376   2.839   0.211
 2976SOL     OW 8944   3.846   2.505   0.563
 2976SOL    HW1 8945   3.801   2.417   0.580
 2976SOL    HW2 8946   3.845   2.559   0.647
 2977SOL     OW 8947   3.837   2.599   1.597
 2977SOL    HW1 8948   3.925   2.586   1.642
 2977SOL    HW2 8949   3.824   2.696   1.575
 2978SOL     OW 8950   4.337   3.227   0.726
 2978SOL    HW1 8951   4.288   3.140   0.735
 2978SOL    HW2 8952   4.314   3.270   0.639
 2979SOL     OW 8953   4.533   1.866   0.502
 2979SOL    HW1 8954   4.573   1.957   0.493
 2979SOL    HW2 8955   4.433   1.874   0.508
 2980SOL     OW 8956   3.921   2.838   1.264
 2980SOL    HW1 8957   4.010   2.793   1.250
 2980SOL    HW2 8958   3.848   2.773   1.245
 2981SOL     OW 8959   4.041   2.113   1.801
 2981SOL    HW1 8960   4.112   2.184   1.807
 2981SOL    HW2 8961   3.953   2.152   1.829
 2982SOL     OW 8962   4.322   2.591   0.270
 2982SOL    HW1 8963   4.346   2.660   0.202
 2982SOL    HW2 8964   4.244   2.624   0.324
 2983SOL     OW 8965   4.531   2.467   1.465
 2983SOL    HW1 8966   4.484   2.464   1.554
 2983SOL    HW2 8967   4.480   2.412   1.399
 2984SOL     OW 8968   4.715   2.272   1.242
 2984SOL    HW1 8969   4.638   2.306   1.296
 2984SOL    HW2 8970   4.681   2.221   1.163
 2985SOL     OW 8971   3.800   2.673   0.789
 2985SOL    HW1 8972   3.899   2.661   0.798
 2985SOL    HW2 8973   3.776   2.768   0.810
 2986SOL     OW 8974   3.854   3.683   1.571
 2986SOL    HW1 8975   3.844   3.668   1.670
 2986SOL    HW2 8976   3.768   3.719   1.535
 2987SOL     OW 8977   4.589   2.210   0.195
 2987SOL    HW1 8978   4.648   2.273   0.146
 2987SOL    HW2 8979   4.608   2.116   0.166
 2988SOL     OW 8980   4.274   2.058   0.885
 2988SOL    HW1 8981   4.269   2.053   0.985
 2988SOL    HW2 8982   4.276   2.154   0.856
 2989SOL     OW 8983   4.732   3.318   0.477
 2989SOL    HW1 8984   4.686   3.390   0.425
 2989SOL    HW2 8985   4.728   3.338   0.575
 2990SOL     OW 8986   4.075   3.663   0.853
 2990SOL    HW1 8987   4.125   3.577   0.859
 2990SOL    HW2 8988   4.140   3.740   0.850
 2991SOL     OW 8989   4.045   2.805   0.242
 2991SOL    HW1 8990   4.127   2.844   0.200
 2991SOL    HW2 8991   4.018   2.723   0.193
 2992SOL     OW 8992   4.185   3.128   1.727
 2992SOL    HW1 8993   4.135   3.129   1.641
 2992SOL    HW2 8994   4.122   3.110   1.803
 2993SOL     OW 8995   3.926   2.147   1.498
 2993SOL    HW1 8996   3.846   2.207   1.485
 2993SOL    HW2 8997   3.916   2.098   1.584
 2994SOL     OW 8998   4.188   3.605   0.323
 2994SOL    HW1 8999   4.221   3.644   0.409
 2994SOL    HW2 9000   4.264   3.598   0.258
 2995SOL     OW 9001   3.973   3.647   1.241
 2995SOL    HW1 9002   4.030   3.582   1.291
 2995SOL    HW2 9003   3.957   3.614   1.148
 2996SOL     OW 9004   4.106   2.562   0.480
 2996SOL    HW1 9005   4.151   2.472   0.477
 2996SOL    HW2 9006   4.012   2.551   0.513
 2997SOL     OW 9007   4.505   2.126   1.749
 2997SOL    HW1 9008   4.572   2.065   1.792
 2997SOL    HW2 9009   4.432   2.145   1.814
 2998SOL     OW 9010   4.527   3.264   0.924
 2998SOL    HW1 9011   4.617   3.278   0.882
 2998SOL    HW2 9012   4.456   3.266   0.853
 2999SOL     OW 9013   4.646   2.365   0.899
 2999SOL    HW1 9014   4.621   2.356   0.803
 2999SOL    HW2 9015   4.694   2.283   0.930
 3000SOL     OW 9016   4.263   1.926   0.512
 3000SOL    HW1 9017   4.182   1.927   0.570
 3000SOL    HW2 9018   4.266   2.009   0.457
 3001SOL     OW 9019   4.021   1.897   0.171
 3001SOL    HW1 9020   4.070   1.981   0.150
 3001SOL    HW2 9021   4.083   1.832   0.216
 3002SOL     OW 9022   4.951   3.432   0.793
 3002SOL    HW1 9023   4.972   3.506   0.728
 3002SOL    HW2 9024   5.019   3.432   0.866
 3003SOL     OW 9025   4.183   3.014   0.741
 3003SOL    HW1 9026   4.112   2.987   0.806
 3003SOL    HW2 9027   4.157   2.986   0.648
 3004SOL     OW 9028   3.802   2.418   1.386
 3004SOL    HW1 9029   3.894   2.417   1.345
 3004SOL    HW2 9030   3.796   2.492   1.453
 3005SOL     OW 9031   4.285   2.084   1.147
 3005SOL    HW1 9032   4.323   2.000   1.184
 3005SOL    HW2 9033   4.197   2.103   1.191
 3006SOL     OW 9034   4.212   3.247   0.174
 3006SOL    HW1 9035   4.125   3.232   0.221
 3006SOL    HW2 9036   4.195   3.273   0.079
 3007SOL     OW 9037   4.251   2.118   0.328
 3007SOL    HW1 9038   4.278   2.059   0.253
 3007SOL    HW2 9039   4.251   2.213   0.297
 3008SOL     OW 9040   4.639   1.951   1.402
 3008SOL    HW1 9041   4.664   1.931   1.307
 3008SOL    HW2 9042   4.711   2.007   1.444
 3009SOL     OW 9043   4.429   2.912   0.368
 3009SOL    HW1 9044   4.415   2.919   0.467
 3009SOL    HW2 9045   4.513   2.861   0.350
 3010SOL     OW 9046   4.134   2.675   1.251
 3010SOL    HW1 9047   4.220   2.687   1.301
 3010SOL    HW2 9048   4.092   2.588   1.278
 3011SOL     OW 9049   3.788   3.426   1.331
 3011SOL    HW1 9050   3.742   3.508   1.297
 3011SOL    HW2 9051   3.886   3.445   1.340
 3012SOL     OW 9052   4.091   2.962   0.501
 3012SOL    HW1 9053   4.084   3.045   0.445
 3012SOL    HW2 9054   4.095   2.882   0.441
 3013SOL     OW 9055   4.290   2.399   0.865
 3013SOL    HW1 9056   4.302   2.465   0.791
 3013SOL    HW2 9057   4.336   2.433   0.948
 3014SOL     OW 9058   4.078   3.372   1.329
 3014SOL    HW1 9059   4.057   3.328   1.242
 3014SOL    HW2 9060   4.175   3.398   1.332
 3015SOL     OW 9061   4.126   2.613   1.598
 3015SOL    HW1 9062   4.194   2.668   1.551
 3015SOL    HW2 9063   4.166   2.525   1.625
 3016SOL     OW 9064   4.228   1.912   1.740
 3016SOL    HW1 9065   4.186   1.855   1.670
 3016SOL    HW2 9066   4.162   1.981   1.772
 3017SOL     OW 9067   4.297   2.732   1.029
 3017SOL    HW1 9068   4.341   2.821   1.020
 3017SOL    HW2 9069   4.234   2.732   1.106
 3018SOL     OW 9070   4.933   2.387   0.275
 3018SOL    HW1 9071   4.946   2.303   0.329
 3018SOL    HW2 9072   4.904   2.461   0.335
 3019SOL     OW 9073   4.031   2.075   1.231
 3019SOL    HW1 9074   4.008   2.112   1.321
 3019SOL    HW2 9075   4.001   1.980   1.225
 3020SOL     OW 9076   3.761   3.172   1.282
 3020SOL    HW1 9077   3.814   3.123   1.350
 3020SOL    HW2 9078   3.783   3.270   1.287
 3021SOL     OW 9079   4.456   2.496   1.064
 3021SOL    HW1 9080   4.515   2.470   0.988
 3021SOL    HW2 9081   4.428   2.592   1.053
 3022SOL     OW 9082   4.031   1.925   0.618
 3022SOL    HW1 9083   4.020   2.019   0.651
 3022SOL    HW2 9084   4.026   1.862   0.695
 3023SOL     OW 9085   4.747   2.628   0.966
 3023SOL    HW1 9086   4.762   2.649   1.062
 3023SOL    HW2 9087   4.717   2.533   0.957
 3024SOL     OW 9088   4.704   3.435   1.700
 3024SOL    HW1 9089   4.684   3.479   1.612
 3024SOL    HW2 9090   4.743   3.344   1.684
 3025SOL     OW 9091   4.074   2.760   1.804
 3025SOL    HW1 9092   4.150   2.804   1.852
 3025SOL    HW2 9093   4.109   2.713   1.722
 3026SOL     OW 9094   4.043   2.672   0.949
 3026SOL    HW1 9095   4.136   2.708   0.954
 3026SOL    HW2 9096   4.037   2.587   1.001
 3027SOL     OW 9097   4.063   2.371   1.006
 3027SOL    HW1 9098   4.011   2.288   0.989
 3027SOL    HW2 9099   4.140   2.376   0.942
 3028SOL     OW 9100   3.732   3.188   0.200
 3028SOL    HW1 9101   3.639   3.209   0.169
 3028SOL    HW2 9102   3.742   3.089   0.213
 3029SOL     OW 9103   3.812   3.663   0.927
 3029SOL    HW1 9104   3.770   3.577   0.900
 3029SOL    HW2 9105   3.906   3.666   0.893
 3030SOL     OW 9106   4.228   3.430   0.910
 3030SOL    HW1 9107   4.294   3.504   0.919
 3030SOL    HW2 9108   4.272   3.351   0.868
 3031SOL     OW 9109   4.726   2.658   1.238
 3031SOL    HW1 9110   4.767   2.626   1.324
 3031SOL    HW2 9111   4.630   2.631   1.235
 3032SOL     OW 9112   3.764   2.406   1.114
 3032SOL    HW1 9113   3.849   2.373   1.073
 3032SOL    HW2 9114   3.777   2.421   1.212
 3033SOL     OW 9115   3.913   2.382   1.722
 3033SOL    HW1 9116   3.972   2.342   1.652
 3033SOL    HW2 9117   3.855   2.453   1.681
 3034SOL     OW 9118   4.539   2.434   0.325
 3034SOL    HW1 9119   4.546   2.345   0.279
 3034SOL    HW2 9120   4.445   2.468   0.317
 3035SOL     OW 9121   3.976   3.426   1.744
 3035SOL    HW1 9122   3.946   3.483   1.820
 3035SOL    HW2 9123   3.969   3.329   1.770
 3036SOL     OW 9124   4.395   2.326   1.269
 3036SOL    HW1 9125   4.361   2.237   1.239
 3036SOL    HW2 9126   4.421   2.380   1.189
 3037SOL     OW 9127   4.197   2.362   0.191
 3037SOL    HW1 9128   4.258   2.442   0.195
 3037SOL    HW2 9129   4.102   2.393   0.198
 3038SOL     OW 9130   3.883   2.999   1.466
 3038SOL    HW1 9131   3.905   2.938   1.542
 3038SOL    HW2 9132   3.893   2.950   1.380
 3039SOL     OW 9133   3.807   3.120   1.022
 3039SOL    HW1 9134   3.802   3.119   1.122
 3039SOL    HW2 9135   3.724   3.079   0.984
 3040SOL     OW 9136   4.412   3.524   1.716
 3040SOL    HW1 9137   4.356   3.605   1.725
 3040SOL    HW2 9138   4.464   3.528   1.630
 3041SOL     OW 9139   4.627   1.948   0.133
 3041SOL    HW1 9140   4.678   1.949   0.047
 3041SOL    HW2 9141   4.683   1.906   0.204
 3042SOL     OW 9142   3.854   3.656   1.851
 3042SOL    HW1 9143   3.813   3.582   1.904
 3042SOL    HW2 9144   3.918   3.707   1.909
 3043SOL     OW 9145   4.554   3.135   1.422
 3043SOL    HW1 9146   4.549   3.168   1.517
 3043SOL    HW2 9147   4.468   3.154   1.376
 3044SOL     OW 9148   4.396   3.478   0.154
 3044SOL    HW1 9149   4.405   3.488   0.055
 3044SOL    HW2 9150   4.356   3.389   0.175
 3045SOL     OW 9151   3.987   2.188   0.720
 3045SOL    HW1 9152   3.908   2.239   0.686
 3045SOL    HW2 9153   3.978   2.173   0.818
 3046SOL     OW 9154   4.918   3.474   0.031
 3046SOL    HW1 9155   4.924   3.381   0.068
 3046SOL    HW2 9156   4.859   3.474  -0.049
 3047SOL     OW 9157   4.546   2.864   1.372
 3047SOL    HW1 9158   4.586   2.863   1.280
 3047SOL    HW2 9159   4.556   2.956   1.412
 3048SOL     OW 9160   4.096   3.150   1.490
 3048SOL    HW1 9161   4.083   3.243   1.456
 3048SOL    HW2 9162   4.012   3.098   1.477
 3049SOL     OW 9163   4.314   3.349   0.491
 3049SOL    HW1 9164   4.356   3.291   0.421
 3049SOL    HW2 9165   4.270   3.428   0.447
 3050SOL     OW 9166   3.979   3.210   0.290
 3050SOL    HW1 9167   3.883   3.211   0.263
 3050SOL    HW2 9168   3.991   3.263   0.374
 3051SOL     OW 9169   3.829   2.875   1.726
 3051SOL    HW1 9170   3.752   2.842   1.780
 3051SOL    HW2 9171   3.914   2.845   1.768
 3052SOL     OW 9172   4.396   2.065   1.489
 3052SOL    HW1 9173   4.486   2.049   1.449
 3052SOL    HW2 9174   4.404   2.070   1.588
 3053SOL     OW 9175   3.796   2.028   0.318
 3053SOL    HW1 9176   3.779   2.111   0.264
 3053SOL    HW2 9177   3.886   1.991   0.296
 3054SOL     OW 9178   4.337   2.704   1.431
 3054SOL    HW1 9179   4.393   2.785   1.414
 3054SOL    HW2 9180   4.396   2.624   1.434
 3055SOL     OW 9181   4.440   2.427   1.708
 3055SOL    HW1 9182   4.459   2.492   1.782
 3055SOL    HW2 9183   4.500   2.347   1.717
 3056SOL     OW 9184   4.114   3.603   1.560
 3056SOL    HW1 9185   4.023   3.644   1.558
 3056SOL    HW2 9186   4.107   3.509   1.592
 3057SOL     OW 9187   4.949   2.187   0.449
 3057SOL    HW1 9188   5.014   2.113   0.438
 3057SOL    HW2 9189   4.969   2.237   0.533
 3058SOL     OW 9190   4.318   2.607   0.652
 3058SOL    HW1 9191   4.368   2.692   0.633
 3058SOL    HW2 9192   4.230   2.609   0.604
 3059SOL     OW 9193   4.385   3.652   0.953
 3059SOL    HW1 9194   4.339   3.740   0.940
 3059SOL    HW2 9195   4.484   3.664   0.946
 3060SOL     OW 9196   4.583   2.818   0.861
 3060SOL    HW1 9197   4.637   2.749   0.909
 3060SOL    HW2 9198   4.551   2.887   0.927
 3061SOL     OW 9199   4.807   2.846   0.087
 3061SOL    HW1 9200   4.784   2.899   0.005
 3061SOL    HW2 9201   4.888   2.790   0.068
 3062SOL     OW 9202   3.945   3.176   1.844
 3062SOL    HW1 9203   3.880   3.103   1.823
 3062SOL    HW2 9204   3.949   3.190   1.942
 3063SOL     OW 9205   3.803   3.102   0.653
 3063SOL    HW1 9206   3.802   3.055   0.741
 3063SOL    HW2 9207   3.885   3.074   0.602
 3064SOL     OW 9208   4.396   3.253   1.624
 3064SOL    HW1 9209   4.318   3.203   1.662
 3064SOL    HW2 9210   4.393   3.348   1.655
 3065SOL     OW 9211   4.152   2.286   0.520
 3065SOL    HW1 9212   4.182   2.214   0.458
 3065SOL    HW2 9213   4.113   2.246   0.603
 3066SOL     OW 9214   4.041   2.409   1.280
 3066SOL    HW1 9215   4.079   2.350   1.352
 3066SOL    HW2 9216   4.081   2.383   1.192
 3067SOL     OW 9217   4.536   3.448   0.687
 3067SOL    HW1 9218   4.568   3.458   0.593
 3067SOL    HW2 9219   4.457   3.386   0.689
 3068SOL     OW 9220   4.725   1.896   1.154
 3068SOL    HW1 9221   4.662   1.824   1.123
 3068SOL    HW2 9222   4.818   1.860   1.154
 3069SOL     OW 9223   4.494   3.192   0.301
 3069SOL    HW1 9224   4.448   3.105   0.318
 3069SOL    HW2 9225   4.585   3.189   0.342
 3070SOL     OW 9226   4.342   3.429   1.284
 3070SOL    HW1 9227   4.337   3.511   1.341
 3070SOL    HW2 9228   4.431   3.426   1.239
 3071SOL     OW 9229   3.763   2.939   0.300
 3071SOL    HW1 9230   3.862   2.928   0.291
 3071SOL    HW2 9231   3.723   2.853   0.332
 3072SOL     OW 9232   4.599   3.508   0.337
 3072SOL    HW1 9233   4.522   3.473   0.283
 3072SOL    HW2 9234   4.567   3.579   0.399
 3073SOL     OW 9235   3.954   2.490   1.975
 3073SOL    HW1 9236   3.861   2.488   2.012
 3073SOL    HW2 9237   3.955   2.451   1.883
 3074SOL     OW 9238   3.949   2.137   2.858
 3074SOL    HW1 9239   3.984   2.120   2.950
 3074SOL    HW2 9240   3.861   2.092   2.846
 3075SOL     OW 9241   3.743   2.230   2.509
 3075SOL    HW1 9242   3.661   2.273   2.548
 3075SOL    HW2 9243   3.715   2.157   2.446
 3076SOL     OW 9244   4.293   3.137   3.027
 3076SOL    HW1 9245   4.200   3.130   2.990
 3076SOL    HW2 9246   4.304   3.226   3.071
 3077SOL     OW 9247   4.492   3.006   2.885
 3077SOL    HW1 9248   4.414   3.023   2.945
 3077SOL    HW2 9249   4.526   3.093   2.849
 3078SOL     OW 9250   4.574   2.660   3.685
 3078SOL    HW1 9251   4.570   2.736   3.750
 3078SOL    HW2 9252   4.596   2.696   3.594
 3079SOL     OW 9253   4.409   2.874   2.527
 3079SOL    HW1 9254   4.478   2.858   2.597
 3079SOL    HW2 9255   4.336   2.931   2.565
 3080SOL     OW 9256   4.410   3.023   3.665
 3080SOL    HW1 9257   4.470   3.102   3.679
 3080SOL    HW2 9258   4.324   3.054   3.624
 3081SOL     OW 9259   4.059   3.297   2.923
 3081SOL    HW1 9260   3.981   3.266   2.870
 3081SOL    HW2 9261   4.117   3.355   2.866
 3082SOL     OW 9262   4.162   2.254   3.361
 3082SOL    HW1 9263   4.244   2.198   3.370
 3082SOL    HW2 9264   4.081   2.196   3.365
 3083SOL     OW 9265   3.955   3.575   2.345
 3083SOL    HW1 9266   3.989   3.652   2.399
 3083SOL    HW2 9267   3.999   3.575   2.255
 3084SOL     OW 9268   3.954   3.296   2.400
 3084SOL    HW1 9269   3.928   3.392   2.400
 3084SOL    HW2 9270   3.883   3.242   2.445
 3085SOL     OW 9271   3.964   2.953   2.748
 3085SOL    HW1 9272   3.978   2.869   2.800
 3085SOL    HW2 9273   3.909   3.017   2.803
 3086SOL     OW 9274   4.344   3.648   3.301
 3086SOL    HW1 9275   4.252   3.631   3.336
 3086SOL    HW2 9276   4.372   3.740   3.327
 3087SOL     OW 9277   4.330   2.826   1.985
 3087SOL    HW1 9278   4.337   2.910   1.931
 3087SOL    HW2 9279   4.376   2.839   2.073
 3088SOL     OW 9280   3.846   2.505   2.425
 3088SOL    HW1 9281   3.801   2.417   2.442
 3088SOL    HW2 9282   3.845   2.559   2.509
 3089SOL     OW 9283   3.751   3.458   1.979
 3089SOL    HW1 9284   3.732   3.362   2.000
 3089SOL    HW2 9285   3.718   3.516   2.054
 3090SOL     OW 9286   3.837   2.599   3.459
 3090SOL    HW1 9287   3.925   2.586   3.504
 3090SOL    HW2 9288   3.824   2.696   3.437
 3091SOL     OW 9289   4.337   3.227   2.588
 3091SOL    HW1 9290   4.288   3.140   2.597
 3091SOL    HW2 9291   4.314   3.270   2.501
 3092SOL     OW 9292   4.533   1.866   2.364
 3092SOL    HW1 9293   4.573   1.957   2.355
 3092SOL    HW2 9294   4.433   1.874   2.370
 3093SOL     OW 9295   3.921   2.838   3.126
 3093SOL    HW1 9296   4.010   2.793   3.112
 3093SOL    HW2 9297   3.848   2.773   3.107
 3094SOL     OW 9298   4.041   2.113   3.663
 3094SOL    HW1 9299   4.112   2.184   3.669
 3094SOL    HW2 9300   3.953   2.152   3.691
 3095SOL     OW 9301   4.322   2.591   2.132
 3095SOL    HW1 9302   4.346   2.660   2.064
 3095SOL    HW2 9303   4.244   2.624   2.186
 3096SOL     OW 9304   4.531   2.467   3.327
 3096SOL    HW1 9305   4.484   2.464   3.416
 3096SOL    HW2 9306   4.480   2.412   3.261
 3097SOL     OW 9307   4.715   2.272   3.104
 3097SOL    HW1 9308   4.638   2.306   3.158
 3097SOL    HW2 9309   4.681   2.221   3.025
 3098SOL     OW 9310   3.800   2.673   2.651
 3098SOL    HW1 9311   3.899   2.661   2.660
 3098SOL    HW2 9312   3.776   2.768   2.672
 3099SOL     OW 9313   3.854   3.683   3.433
 3099SOL    HW1 9314   3.844   3.668   3.532
 3099SOL    HW2 9315   3.768   3.719   3.397
 3100SOL     OW 9316   4.589   2.210   2.057
 3100SOL    HW1 9317   4.648   2.273   2.008
 3100SOL    HW2 9318   4.608   2.116   2.028
 3101SOL     OW 9319   4.274   2.058   2.747
 3101SOL    HW1 9320   4.269   2.053   2.847
 3101SOL    HW2 9321   4.276   2.154   2.718
 3102SOL     OW 9322   4.732   3.318   2.339
 3102SOL    HW1 9323   4.686   3.390   2.287
 3102SOL    HW2 9324   4.728   3.338   2.437
 3103SOL     OW 9325   4.075   3.663   2.715
 3103SOL    HW1 9326   4.125   3.577   2.721
 3103SOL    HW2 9327   4.140   3.740   2.712
 3104SOL     OW 9328   4.045   2.805   2.104
 3104SOL    HW1 9329   4.127   2.844   2.062
 3104SOL    HW2 9330   4.018   2.723   2.055
 3105SOL     OW 9331   4.185   3.128   3.589
 3105SOL    HW1 9332   4.135   3.129   3.503
 3105SOL    HW2 9333   4.122   3.110   3.665
 3106SOL     OW 9334   3.926   2.147   3.360
 3106SOL    HW1 9335   3.846   2.207   3.347
 3106SOL    HW2 9336   3.916   2.098   3.446
 3107SOL     OW 9337   4.188   3.605   2.185
 3107SOL    HW1 9338   4.221   3.644   2.271
 3107SOL    HW2 9339   4.264   3.598   2.120
 3108SOL     OW 9340   3.973   3.647   3.103
 3108SOL    HW1 9341   4.030   3.582   3.153
 3108SOL    HW2 9342   3.957   3.614   3.010
 3109SOL     OW 9343   4.106   2.562   2.342
 3109SOL    HW1 9344   4.151   2.472   2.339
 3109SOL    HW2 9345   4.012   2.551   2.375
 3110SOL     OW 9346   4.338   1.984   1.979
 3110SOL    HW1 9347   4.436   1.962   1.986
 3110SOL    HW2 9348   4.307   1.967   1.886
 3111SOL     OW 9349   4.505   2.126   3.611
 3111SOL    HW1 9350   4.572   2.065   3.654
 3111SOL    HW2 9351   4.432   2.145   3.676
 3112SOL     OW 9352   4.527   3.264   2.786
 3112SOL    HW1 9353   4.617   3.278   2.744
 3112SOL    HW2 9354   4.456   3.266   2.715
 3113SOL     OW 9355   4.646   2.365   2.761
 3113SOL    HW1 9356   4.621   2.356   2.665
 3113SOL    HW2 9357   4.694   2.283   2.792
 3114SOL     OW 9358   4.263   1.926   2.374
 3114SOL    HW1 9359   4.182   1.927   2.432
 3114SOL    HW2 9360   4.266   2.009   2.319
 3115SOL     OW 9361   4.021   1.897   2.033
 3115SOL    HW1 9362   4.070   1.981   2.012
 3115SOL    HW2 9363   4.083   1.832   2.078
 3116SOL     OW 9364   4.951   3.432   2.655
 3116SOL    HW1 9365   4.972   3.506   2.590
 3116SOL    HW2 9366   5.019   3.432   2.728
 3117SOL     OW 9367   4.183   3.014   2.603
 3117SOL    HW1 9368   4.112   2.987   2.668
 3117SOL    HW2 9369   4.157   2.986   2.510
 3118SOL     OW 9370   3.802   2.418   3.248
 3118SOL    HW1 9371   3.894   2.417   3.207
 3118SOL    HW2 9372   3.796   2.492   3.315
 3119SOL     OW 9373   4.285   2.084   3.009
 3119SOL    HW1 9374   4.323   2.000   3.046
 3119SOL    HW2 9375   4.197   2.103   3.053
 3120SOL     OW 9376   4.212   3.247   2.036
 3120SOL    HW1 9377   4.125   3.232   2.083
 3120SOL    HW2 9378   4.195   3.273   1.941
 3121SOL     OW 9379   4.251   2.118   2.190
 3121SOL    HW1 9380   4.278   2.059   2.115
 3121SOL    HW2 9381   4.251   2.213   2.159
 3122SOL     OW 9382   4.639   1.951   3.264
 3122SOL    HW1 9383   4.664   1.931   3.169
 3122SOL    HW2 9384   4.711   2.007   3.306
 3123SOL     OW 9385   4.429   2.912   2.230
 3123SOL    HW1 9386   4.415   2.919   2.329
 3123SOL    HW2 9387   4.513   2.861   2.212
 3124SOL     OW 9388   4.134   2.675   3.113
 3124SOL    HW1 9389   4.220   2.687   3.163
 3124SOL    HW2 9390   4.092   2.588   3.140
 3125SOL     OW 9391   3.788   3.426   3.193
 3125SOL    HW1 9392   3.742   3.508   3.159
 3125SOL    HW2 9393   3.886   3.445   3.202
 3126SOL     OW 9394   4.091   2.962   2.363
 3126SOL    HW1 9395   4.084   3.045   2.307
 3126SOL    HW2 9396   4.095   2.882   2.303
 3127SOL     OW 9397   4.290   2.399   2.727
 3127SOL    HW1 9398   4.302   2.465   2.653
 3127SOL    HW2 9399   4.336   2.433   2.810
 3128SOL     OW 9400   4.078   3.372   3.191
 3128SOL    HW1 9401   4.057   3.328   3.104
 3128SOL    HW2 9402   4.175   3.398   3.194
 3129SOL     OW 9403   4.126   2.613   3.460
 3129SOL    HW1 9404   4.194   2.668   3.413
 3129SOL    HW2 9405   4.166   2.525   3.487
 3130SOL     OW 9406   4.228   1.912   3.602
 3130SOL    HW1 9407   4.186   1.855   3.532
 3130SOL    HW2 9408   4.162   1.981   3.634
 3131SOL     OW 9409   4.297   2.732   2.891
 3131SOL    HW1 9410   4.341   2.821   2.882
 3131SOL    HW2 9411   4.234   2.732   2.968
 3132SOL     OW 9412   4.933   2.387   2.137
 3132SOL    HW1 9413   4.946   2.303   2.191
 3132SOL    HW2 9414   4.904   2.461   2.197
 3133SOL     OW 9415   4.031   2.075   3.093
 3133SOL    HW1 9416   4.008   2.112   3.183
 3133SOL    HW2 9417   4.001   1.980   3.087
 3134SOL     OW 9418   3.761   3.172   3.144
 3134SOL    HW1 9419   3.814   3.123   3.212
 3134SOL    HW2 9420   3.783   3.270   3.149
 3135SOL     OW 9421   4.456   2.496   2.926
 3135SOL    HW1 9422   4.515   2.470   2.850
 3135SOL    HW2 9423   4.428   2.592   2.915
 3136SOL     OW 9424   4.031   1.925   2.480
 3136SOL    HW1 9425   4.020   2.019   2.513
 3136SOL    HW2 9426   4.026   1.862   2.557
 3137SOL     OW 9427   4.747   2.628   2.828
 3137SOL    HW1 9428   4.762   2.649   2.924
 3137SOL    HW2 9429   4.717   2.533   2.819
 3138SOL     OW 9430   4.704   3.435   3.562
 3138SOL    HW1 9431   4.684   3.479   3.474
 3138SOL    HW2 9432   4.743   3.344   3.546
 3139SOL     OW 9433   4.074   2.760   3.666
 3139SOL    HW1 9434   4.150   2.804   3.714
 3139SOL    HW2 9435   4.109   2.713   3.584
 3140SOL     OW 9436   4.043   2.672   2.811
 3140SOL    HW1 9437   4.136   2.708   2.816
 3140SOL    HW2 9438   4.037   2.587   2.863
 3141SOL     OW 9439   4.063   2.371   2.868
 3141SOL    HW1 9440   4.011   2.288   2.851
 3141SOL    HW2 9441   4.140   2.376   2.804
 3142SOL     OW 9442   3.732   3.188   2.062
 3142SOL    HW1 9443   3.639   3.209   2.031
 3142SOL    HW2 9444   3.742   3.089   2.075
 3143SOL     OW 9445   3.812   3.663   2.789
 3143SOL    HW1 9446   3.770   3.577   2.762
 3143SOL    HW2 9447   3.906   3.666   2.755
 3144SOL     OW 9448   4.228   3.430   2.772
 3144SOL    HW1 9449   4.294   3.504   2.781
 3144SOL    HW2 9450   4.272   3.351   2.730
 3145SOL     OW 9451   4.726   2.658   3.100
 3145SOL    HW1 9452   4.767   2.626   3.186
 3145SOL    HW2 9453   4.630   2.631   3.097
 3146SOL     OW 9454   3.764   2.406   2.976
 3146SOL    HW1 9455   3.849   2.373   2.935
 3146SOL    HW2 9456   3.777   2.421   3.074
 3147SOL     OW 9457   3.913   2.382   3.584
 3147SOL    HW1 9458   3.972   2.342   3.514
 3147SOL    HW2 9459   3.855   2.453   3.543
 3148SOL     OW 9460   4.539   2.434   2.187
 3148SOL    HW1 9461   4.546   2.345   2.141
 3148SOL    HW2 9462   4.445   2.468   2.179
 3149SOL     OW 9463   3.976   3.426   3.606
 3149SOL    HW1 9464   3.946   3.483   3.682
 3149SOL    HW2 9465   3.969   3.329   3.632
 3150SOL     OW 9466   4.395   2.326   3.131
 3150SOL    HW1 9467   4.361   2.237   3.101
 3150SOL    HW2 9468   4.421   2.380   3.051
 3151SOL     OW 9469   4.197   2.362   2.053
 3151SOL    HW1 9470   4.258   2.442   2.057
 3151SOL    HW2 9471   4.102   2.393   2.060
 3152SOL     OW 9472   3.883   2.999   3.328
 3152SOL    HW1 9473   3.905   2.938   3.404
 3152SOL    HW2 9474   3.893   2.950   3.242
 3153SOL     OW 9475   3.807   3.120   2.884
 3153SOL    HW1 9476   3.802   3.119   2.984
 3153SOL    HW2 9477   3.724   3.079   2.846
 3154SOL     OW 9478   4.412   3.524   3.578
 3154SOL    HW1 9479   4.356   3.605   3.587
 3154SOL    HW2 9480   4.464   3.528   3.492
 3155SOL     OW 9481   4.627   1.948   1.995
 3155SOL    HW1 9482   4.678   1.949   1.909
 3155SOL    HW2 9483   4.683   1.906   2.066
 3156SOL     OW 9484   3.854   3.656   3.713
 3156SOL    HW1 9485   3.813   3.582   3.766
 3156SOL    HW2 9486   3.918   3.707   3.771
 3157SOL     OW 9487   4.554   3.135   3.284
 3157SOL    HW1 9488   4.549   3.168   3.379
 3157SOL    HW2 9489   4.468   3.154   3.238
 3158SOL     OW 9490   4.396   3.478   2.016
 3158SOL    HW1 9491   4.405   3.488   1.917
 3158SOL    HW2 9492   4.356   3.389   2.037
 3159SOL     OW 9493   3.987   2.188   2.582
 3159SOL    HW1 9494   3.908   2.239   2.548
 3159SOL    HW2 9495   3.978   2.173   2.680
 3160SOL     OW 9496   4.546   2.864   3.234
 3160SOL    HW1 9497   4.586   2.863   3.142
 3160SOL    HW2 9498   4.556   2.956   3.274
 3161SOL     OW 9499   4.096   3.150   3.352
 3161SOL    HW1 9500   4.083   3.243   3.318
 3161SOL    HW2 9501   4.012   3.098   3.339
 3162SOL     OW 9502   4.314   3.349   2.353
 3162SOL    HW1 9503   4.356   3.291   2.283
 3162SOL    HW2 9504   4.270   3.428   2.309
 3163SOL     OW 9505   3.979   3.210   2.152
 3163SOL    HW1 9506   3.883   3.211   2.125
 3163SOL    HW2 9507   3.991   3.263   2.236
 3164SOL     OW 9508   3.829   2.875   3.588
 3164SOL    HW1 9509   3.752   2.842   3.642
 3164SOL    HW2 9510   3.914   2.845   3.630
 3165SOL     OW 9511   4.396   2.065   3.351
 3165SOL    HW1 9512   4.486   2.049   3.311
 3165SOL    HW2 9513   4.404   2.070   3.450
 3166SOL     OW 9514   3.799   2.207   1.895
 3166SOL    HW1 9515   3.707   2.179   1.866
 3166SOL    HW2 9516   3.830   2.284   1.839
 3167SOL     OW 9517   3.796   2.028   2.180
 3167SOL    HW1 9518   3.779   2.111   2.126
 3167SOL    HW2 9519   3.886   1.991   2.158
 3168SOL     OW 9520   4.337   2.704   3.293
 3168SOL    HW1 9521   4.393   2.785   3.276
 3168SOL    HW2 9522   4.396   2.624   3.296
 3169SOL     OW 9523   4.440   2.427   3.570
 3169SOL    HW1 9524   4.459   2.492   3.644
 3169SOL    HW2 9525   4.500   2.347   3.579
 3170SOL     OW 9526   4.114   3.603   3.422
 3170SOL    HW1 9527   4.023   3.644   3.420
 3170SOL    HW2 9528   4.107   3.509   3.454
 3171SOL     OW 9529   4.949   2.187   2.311
 3171SOL    HW1 9530   5.014   2.113   2.300
 3171SOL    HW2 9531   4.969   2.237   2.395
 3172SOL     OW 9532   4.318   2.607   2.514
 3172SOL    HW1 9533   4.368   2.692   2.495
 3172SOL    HW2 9534   4.230   2.609   2.466
 3173SOL     OW 9535   4.385   3.652   2.815
 3173SOL    HW1 9536   4.339   3.740   2.802
 3173SOL    HW2 9537   4.484   3.664   2.808
 3174SOL     OW 9538   4.583   2.818   2.723
 3174SOL    HW1 9539   4.637   2.749   2.771
 3174SOL    HW2 9540   4.551   2.887   2.789
 3175SOL     OW 9541   3.945   3.176   3.706
 3175SOL    HW1 9542   3.880   3.103   3.685
 3175SOL    HW2 9543   3.949   3.190   3.804
 3176SOL     OW 9544   3.803   3.102   2.515
 3176SOL    HW1 9545   3.802   3.055   2.603
 3176SOL    HW2 9546   3.885   3.074   2.464
 3177SOL     OW 9547   4.396   3.253   3.486
 3177SOL    HW1 9548   4.318   3.203   3.524
 3177SOL    HW2 9549   4.393   3.348   3.517
 3178SOL     OW 9550   4.152   2.286   2.382
 3178SOL    HW1 9551   4.182   2.214   2.320
 3178SOL    HW2 9552   4.113   2.246   2.465
 3179SOL     OW 9553   4.041   2.409   3.142
 3179SOL    HW1 9554   4.079   2.350   3.214
 3179SOL    HW2 9555   4.081   2.383   3.054
 3180SOL     OW 9556   4.536   3.448   2.549
 3180SOL    HW1 9557   4.568   3.458   2.455
 3180SOL    HW2 9558   4.457   3.386   2.551
 3181SOL     OW 9559   4.725   1.896   3.016
 3181SOL    HW1 9560   4.662   1.824   2.985
 3181SOL    HW2 9561   4.818   1.860   3.016
 3182SOL     OW 9562   4.494   3.192   2.163
 3182SOL    HW1 9563   4.448   3.105   2.180
 3182SOL    HW2 9564   4.585   3.189   2.204
 3183SOL     OW 9565   4.342   3.429   3.146
 3183SOL    HW1 9566   4.337   3.511   3.203
 3183SOL    HW2 9567   4.431   3.426   3.101
 3184SOL     OW 9568   3.763   2.939   2.162
 3184SOL    HW1 9569   3.862   2.928   2.153
 3184SOL    HW2 9570   3.723   2.853   2.194
 3185SOL     OW 9571   4.599   3.508   2.199
 3185SOL    HW1 9572   4.522   3.473   2.145
 3185SOL    HW2 9573   4.567   3.579   2.261
 3186SOL     OW 9574   3.954   2.490   3.837
 3186SOL    HW1 9575   3.861   2.488   3.874
 3186SOL    HW2 9576   3.955   2.451   3.745
 3187SOL     OW 9577   3.949   2.137   4.720
 3187SOL    HW1 9578   3.984   2.120   4.812
 3187SOL    HW2 9579   3.861   2.092   4.708
 3188SOL     OW 9580   3.743   2.230   4.371
 3188SOL    HW1 9581   3.661   2.273   4.410
 3188SOL    HW2 9582   3.715   2.157   4.308
 3189SOL     OW 9583   4.492   3.006   4.747
 3189SOL    HW1 9584   4.414   3.023   4.807
 3189SOL    HW2 9585   4.526   3.093   4.711
 3190SOL     OW 9586   4.409   2.874   4.389
 3190SOL    HW1 9587   4.478   2.858   4.459
 3190SOL    HW2 9588   4.336   2.931   4.427
 3191SOL     OW 9589   3.955   3.575   4.207
 3191SOL    HW1 9590   3.989   3.652   4.261
 3191SOL    HW2 9591   3.999   3.575   4.117
 3192SOL     OW 9592   3.954   3.296   4.262
 3192SOL    HW1 9593   3.928   3.392   4.262
 3192SOL    HW2 9594   3.883   3.242   4.307
 3193SOL     OW 9595   3.964   2.953   4.610
 3193SOL    HW1 9596   3.978   2.869   4.662
 3193SOL    HW2 9597   3.909   3.017   4.665
 3194SOL     OW 9598   4.330   2.826   3.847
 3194SOL    HW1 9599   4.337   2.910   3.793
 3194SOL    HW2 9600   4.376   2.839   3.935
 3195SOL     OW 9601   3.846   2.505   4.287
 3195SOL    HW1 9602   3.801   2.417   4.304
 3195SOL    HW2 9603   3.845   2.559   4.371
 3196SOL     OW 9604   3.751   3.458   3.841
 3196SOL    HW1 9605   3.732   3.362   3.862
 3196SOL    HW2 9606   3.718   3.516   3.916
 3197SOL     OW 9607   4.337   3.227   4.450
 3197SOL    HW1 9608   4.288   3.140   4.459
 3197SOL    HW2 9609   4.314   3.270   4.363
 3198SOL     OW 9610   4.533   1.866   4.226
 3198SOL    HW1 9611   4.573   1.957   4.217
 3198SOL    HW2 9612   4.433   1.874   4.232
 3199SOL     OW 9613   4.322   2.591   3.994
 3199SOL    HW1 9614   4.346   2.660   3.926
 3199SOL    HW2 9615   4.244   2.624   4.048
 3200SOL     OW 9616   3.800   2.673   4.513
 3200SOL    HW1 9617   3.899   2.661   4.522
 3200SOL    HW2 9618   3.776   2.768   4.534
 3201SOL     OW 9619   4.589   2.210   3.919
 3201SOL    HW1 9620   4.648   2.273   3.870
 3201SOL    HW2 9621   4.608   2.116   3.890
 3202SOL     OW 9622   4.274   2.058   4.609
 3202SOL    HW1 9623   4.269   2.053   4.709
 3202SOL    HW2 9624   4.276   2.154   4.580
 3203SOL     OW 9625   4.732   3.318   4.201
 3203SOL    HW1 9626   4.686   3.390   4.149
 3203SOL    HW2 9627   4.728   3.338   4.299
 3204SOL     OW 9628   4.075   3.663   4.577
 3204SOL    HW1 9629   4.125   3.577   4.583
 3204SOL    HW2 9630   4.140   3.740   4.574
 3205SOL     OW 9631   4.045   2.805   3.966
 3205SOL    HW1 9632   4.127   2.844   3.924
 3205SOL    HW2 9633   4.018   2.723   3.917
 3206SOL     OW 9634   4.188   3.605   4.047
 3206SOL    HW1 9635   4.221   3.644   4.133
 3206SOL    HW2 9636   4.264   3.598   3.982
 3207SOL     OW 9637   4.106   2.562   4.204
 3207SOL    HW1 9638   4.151   2.472   4.201
 3207SOL    HW2 9639   4.012   2.551   4.237
 3208SOL     OW 9640   4.338   1.984   3.841
 3208SOL    HW1 9641   4.436   1.962   3.848
 3208SOL    HW2 9642   4.307   1.967   3.748
 3209SOL     OW 9643   4.527   3.264   4.648
 3209SOL    HW1 9644   4.617   3.278   4.606
 3209SOL    HW2 9645   4.456   3.266   4.577
 3210SOL     OW 9646   4.263   1.926   4.236
 3210SOL    HW1 9647   4.182   1.927   4.294
 3210SOL    HW2 9648   4.266   2.009   4.181
 3211SOL     OW 9649   4.021   1.897   3.895
 3211SOL    HW1 9650   4.070   1.981   3.874
 3211SOL    HW2 9651   4.083   1.832   3.940
 3212SOL     OW 9652   4.951   3.432   4.517
 3212SOL    HW1 9653   4.972   3.506   4.452
 3212SOL    HW2 9654   5.019   3.432   4.590
 3213SOL     OW 9655   4.183   3.014   4.465
 3213SOL    HW1 9656   4.112   2.987   4.530
 3213SOL    HW2 9657   4.157   2.986   4.372
 3214SOL     OW 9658   4.212   3.247   3.898
 3214SOL    HW1 9659   4.125   3.232   3.945
 3214SOL    HW2 9660   4.195   3.273   3.803
 3215SOL     OW 9661   4.251   2.118   4.052
 3215SOL    HW1 9662   4.278   2.059   3.977
 3215SOL    HW2 9663   4.251   2.213   4.021
 3216SOL     OW 9664   4.429   2.912   4.092
 3216SOL    HW1 9665   4.415   2.919   4.191
 3216SOL    HW2 9666   4.513   2.861   4.074
 3217SOL     OW 9667   4.091   2.962   4.225
 3217SOL    HW1 9668   4.084   3.045   4.169
 3217SOL    HW2 9669   4.095   2.882   4.165
 3218SOL     OW 9670   4.290   2.399   4.589
 3218SOL    HW1 9671   4.302   2.465   4.515
 3218SOL    HW2 9672   4.336   2.433   4.672
 3219SOL     OW 9673   4.933   2.387   3.999
 3219SOL    HW1 9674   4.946   2.303   4.053
 3219SOL    HW2 9675   4.904   2.461   4.059
 3220SOL     OW 9676   4.456   2.496   4.788
 3220SOL    HW1 9677   4.515   2.470   4.712
 3220SOL    HW2 9678   4.428   2.592   4.777
 3221SOL     OW 9679   4.031   1.925   4.342
 3221SOL    HW1 9680   4.020   2.019   4.375
 3221SOL    HW2 9681   4.026   1.862   4.419
 3222SOL     OW 9682   4.747   2.628   4.690
 3222SOL    HW1 9683   4.762   2.649   4.786
 3222SOL    HW2 9684   4.717   2.533   4.681
 3223SOL     OW 9685   4.043   2.672   4.673
 3223SOL    HW1 9686   4.136   2.708   4.678
 3223SOL    HW2 9687   4.037   2.587   4.725
 3224SOL     OW 9688   3.732   3.188   3.924
 3224SOL    HW1 9689   3.639   3.209   3.893
 3224SOL    HW2 9690   3.742   3.089   3.937
 3225SOL     OW 9691   3.812   3.663   4.651
 3225SOL    HW1 9692   3.770   3.577   4.624
 3225SOL    HW2 9693   3.906   3.666   4.617
 3226SOL     OW 9694   4.228   3.430   4.634
 3226SOL    HW1 9695   4.294   3.504   4.643
 3226SOL    HW2 9696   4.272   3.351   4.592
 3227SOL     OW 9697   4.726   2.658   4.962
 3227SOL    HW1 9698   4.767   2.626   5.048
 3227SOL    HW2 9699   4.630   2.631   4.959
 3228SOL     OW 9700   4.539   2.434   4.049
 3228SOL    HW1 9701   4.546   2.345   4.003
 3228SOL    HW2 9702   4.445   2.468   4.041
 3229SOL     OW 9703   4.197   2.362   3.915
 3229SOL    HW1 9704   4.258   2.442   3.919
 3229SOL    HW2 9705   4.102   2.393   3.922
 3230SOL     OW 9706   4.627   1.948   3.857
 3230SOL    HW1 9707   4.678   1.949   3.771
 3230SOL    HW2 9708   4.683   1.906   3.928
 3231SOL     OW 9709   4.396   3.478   3.878
 3231SOL    HW1 9710   4.405   3.488   3.779
 3231SOL    HW2 9711   4.356   3.389   3.899
 3232SOL     OW 9712   3.987   2.188   4.444
 3232SOL    HW1 9713   3.908   2.239   4.410
 3232SOL    HW2 9714   3.978   2.173   4.542
 3233SOL     OW 9715   4.314   3.349   4.215
 3233SOL    HW1 9716   4.356   3.291   4.145
 3233SOL    HW2 9717   4.270   3.428   4.171
 3234SOL     OW 9718   3.979   3.210   4.014
 3234SOL    HW1 9719   3.883   3.211   3.987
 3234SOL    HW2 9720   3.991   3.263   4.098
 3235SOL     OW 9721   3.799   2.207   3.757
 3235SOL    HW1 9722   3.707   2.179   3.728
 3235SOL    HW2 9723   3.830   2.284   3.701
 3236SOL     OW 9724   3.796   2.028   4.042
 3236SOL    HW1 9725   3.779   2.111   3.988
 3236SOL    HW2 9726   3.886   1.991   4.020
 3237SOL     OW 9727   4.949   2.187   4.173
 3237SOL    HW1 9728   5.014   2.113   4.162
 3237SOL    HW2 9729   4.969   2.237   4.257
 3238SOL     OW 9730   4.318   2.607   4.376
 3238SOL    HW1 9731   4.368   2.692   4.357
 3238SOL    HW2 9732   4.230   2.609   4.328
 3239SOL     OW 9733   4.385   3.652   4.677
 3239SOL    HW1 9734   4.339   3.740   4.664
 3239SOL    HW2 9735   4.484   3.664   4.670
 3240SOL     OW 9736   4.583   2.818   4.585
 3240SOL    HW1 9737   4.637   2.749   4.633
 3240SOL    HW2 9738   4.551   2.887   4.651
 3241SOL     OW 9739   3.803   3.102   4.377
 3241SOL    HW1 9740   3.802   3.055   4.465
 3241SOL    HW2 9741   3.885   3.074   4.326
 3242SOL     OW 9742   4.152   2.286   4.244
 3242SOL    HW1 9743   4.182   2.214   4.182
 3242SOL    HW2 9744   4.113   2.246   4.327
 3243SOL     OW 9745   4.536   3.448   4.411
 3243SOL    HW1 9746   4.568   3.458   4.317
 3243SOL    HW2 9747   4.457   3.386   4.413
 3244SOL     OW 9748   4.494   3.192   4.025
 3244SOL    HW1 9749   4.448   3.105   4.042
 3244SOL    HW2 9750   4.585   3.189   4.066
 3245SOL     OW 9751   3.763   2.939   4.024
 3245SOL    HW1 9752   3.862   2.928   4.015
 3245SOL    HW2 9753   3.723   2.853   4.056
 3246SOL     OW 9754   4.599   3.508   4.061
 3246SOL    HW1 9755   4.522   3.473   4.007
 3246SOL    HW2 9756   4.567   3.579   4.123
 3247SOL     OW 9757   3.954   4.352   0.113
 3247SOL    HW1 9758   3.861   4.350   0.150
 3247SOL    HW2 9759   3.955   4.313   0.021
 3248SOL     OW 9760   3.949   3.999   0.996
 3248SOL    HW1 9761   3.984   3.982   1.088
 3248SOL    HW2 9762   3.861   3.954   0.984
 3249SOL     OW 9763   3.743   4.092   0.647
 3249SOL    HW1 9764   3.661   4.135   0.686
 3249SOL    HW2 9765   3.715   4.019   0.584
 3250SOL     OW 9766   4.574   4.522   1.823
 3250SOL    HW1 9767   4.570   4.598   1.888
 3250SOL    HW2 9768   4.596   4.558   1.732
 3251SOL     OW 9769   4.409   4.736   0.665
 3251SOL    HW1 9770   4.478   4.720   0.735
 3251SOL    HW2 9771   4.336   4.793   0.703
 3252SOL     OW 9772   4.162   4.116   1.499
 3252SOL    HW1 9773   4.244   4.060   1.508
 3252SOL    HW2 9774   4.081   4.058   1.503
 3253SOL     OW 9775   3.846   4.367   0.563
 3253SOL    HW1 9776   3.801   4.279   0.580
 3253SOL    HW2 9777   3.845   4.421   0.647
 3254SOL     OW 9778   3.837   4.461   1.597
 3254SOL    HW1 9779   3.925   4.448   1.642
 3254SOL    HW2 9780   3.824   4.558   1.575
 3255SOL     OW 9781   4.533   3.728   0.502
 3255SOL    HW1 9782   4.573   3.819   0.493
 3255SOL    HW2 9783   4.433   3.736   0.508
 3256SOL     OW 9784   3.921   4.700   1.264
 3256SOL    HW1 9785   4.010   4.655   1.250
 3256SOL    HW2 9786   3.848   4.635   1.245
 3257SOL     OW 9787   4.041   3.975   1.801
 3257SOL    HW1 9788   4.112   4.046   1.807
 3257SOL    HW2 9789   3.953   4.014   1.829
 3258SOL     OW 9790   4.322   4.453   0.270
 3258SOL    HW1 9791   4.346   4.522   0.202
 3258SOL    HW2 9792   4.244   4.486   0.324
 3259SOL     OW 9793   4.531   4.329   1.465
 3259SOL    HW1 9794   4.484   4.326   1.554
 3259SOL    HW2 9795   4.480   4.274   1.399
 3260SOL     OW 9796   4.715   4.134   1.242
 3260SOL    HW1 9797   4.638   4.168   1.296
 3260SOL    HW2 9798   4.681   4.083   1.163
 3261SOL     OW 9799   3.800   4.535   0.789
 3261SOL    HW1 9800   3.899   4.523   0.798
 3261SOL    HW2 9801   3.776   4.630   0.810
 3262SOL     OW 9802   4.589   4.072   0.195
 3262SOL    HW1 9803   4.648   4.135   0.146
 3262SOL    HW2 9804   4.608   3.978   0.166
 3263SOL     OW 9805   4.274   3.920   0.885
 3263SOL    HW1 9806   4.269   3.915   0.985
 3263SOL    HW2 9807   4.276   4.016   0.856
 3264SOL     OW 9808   3.926   4.009   1.498
 3264SOL    HW1 9809   3.846   4.069   1.485
 3264SOL    HW2 9810   3.916   3.960   1.584
 3265SOL     OW 9811   4.106   4.424   0.480
 3265SOL    HW1 9812   4.151   4.334   0.477
 3265SOL    HW2 9813   4.012   4.413   0.513
 3266SOL     OW 9814   4.505   3.988   1.749
 3266SOL    HW1 9815   4.572   3.927   1.792
 3266SOL    HW2 9816   4.432   4.007   1.814
 3267SOL     OW 9817   4.646   4.227   0.899
 3267SOL    HW1 9818   4.621   4.218   0.803
 3267SOL    HW2 9819   4.694   4.145   0.930
 3268SOL     OW 9820   4.263   3.788   0.512
 3268SOL    HW1 9821   4.182   3.789   0.570
 3268SOL    HW2 9822   4.266   3.871   0.457
 3269SOL     OW 9823   4.021   3.759   0.171
 3269SOL    HW1 9824   4.070   3.843   0.150
 3269SOL    HW2 9825   4.083   3.694   0.216
 3270SOL     OW 9826   3.802   4.280   1.386
 3270SOL    HW1 9827   3.894   4.279   1.345
 3270SOL    HW2 9828   3.796   4.354   1.453
 3271SOL     OW 9829   4.285   3.946   1.147
 3271SOL    HW1 9830   4.323   3.862   1.184
 3271SOL    HW2 9831   4.197   3.965   1.191
 3272SOL     OW 9832   4.251   3.980   0.328
 3272SOL    HW1 9833   4.278   3.921   0.253
 3272SOL    HW2 9834   4.251   4.075   0.297
 3273SOL     OW 9835   4.639   3.813   1.402
 3273SOL    HW1 9836   4.664   3.793   1.307
 3273SOL    HW2 9837   4.711   3.869   1.444
 3274SOL     OW 9838   4.134   4.537   1.251
 3274SOL    HW1 9839   4.220   4.549   1.301
 3274SOL    HW2 9840   4.092   4.450   1.278
 3275SOL     OW 9841   4.290   4.261   0.865
 3275SOL    HW1 9842   4.302   4.327   0.791
 3275SOL    HW2 9843   4.336   4.295   0.948
 3276SOL     OW 9844   4.126   4.475   1.598
 3276SOL    HW1 9845   4.194   4.530   1.551
 3276SOL    HW2 9846   4.166   4.387   1.625
 3277SOL     OW 9847   4.228   3.774   1.740
 3277SOL    HW1 9848   4.186   3.717   1.670
 3277SOL    HW2 9849   4.162   3.843   1.772
 3278SOL     OW 9850   4.297   4.594   1.029
 3278SOL    HW1 9851   4.341   4.683   1.020
 3278SOL    HW2 9852   4.234   4.594   1.106
 3279SOL     OW 9853   4.933   4.249   0.275
 3279SOL    HW1 9854   4.946   4.165   0.329
 3279SOL    HW2 9855   4.904   4.323   0.335
 3280SOL     OW 9856   4.031   3.937   1.231
 3280SOL    HW1 9857   4.008   3.974   1.321
 3280SOL    HW2 9858   4.001   3.842   1.225
 3281SOL     OW 9859   4.456   4.358   1.064
 3281SOL    HW1 9860   4.515   4.332   0.988
 3281SOL    HW2 9861   4.428   4.454   1.053
 3282SOL     OW 9862   4.031   3.787   0.618
 3282SOL    HW1 9863   4.020   3.881   0.651
 3282SOL    HW2 9864   4.026   3.724   0.695
 3283SOL     OW 9865   4.747   4.490   0.966
 3283SOL    HW1 9866   4.762   4.511   1.062
 3283SOL    HW2 9867   4.717   4.395   0.957
 3284SOL     OW 9868   4.074   4.622   1.804
 3284SOL    HW1 9869   4.150   4.666   1.852
 3284SOL    HW2 9870   4.109   4.575   1.722
 3285SOL     OW 9871   4.043   4.534   0.949
 3285SOL    HW1 9872   4.136   4.570   0.954
 3285SOL    HW2 9873   4.037   4.449   1.001
 3286SOL     OW 9874   4.063   4.233   1.006
 3286SOL    HW1 9875   4.011   4.150   0.989
 3286SOL    HW2 9876   4.140   4.238   0.942
 3287SOL     OW 9877   4.726   4.520   1.238
 3287SOL    HW1 9878   4.767   4.488   1.324
 3287SOL    HW2 9879   4.630   4.493   1.235
 3288SOL     OW 9880   3.764   4.268   1.114
 3288SOL    HW1 9881   3.849   4.235   1.073
 3288SOL    HW2 9882   3.777   4.283   1.212
 3289SOL     OW 9883   3.913   4.244   1.722
 3289SOL    HW1 9884   3.972   4.204   1.652
 3289SOL    HW2 9885   3.855   4.315   1.681
 3290SOL     OW 9886   4.539   4.296   0.325
 3290SOL    HW1 9887   4.546   4.207   0.279
 3290SOL    HW2 9888   4.445   4.330   0.317
 3291SOL     OW 9889   4.395   4.188   1.269
 3291SOL    HW1 9890   4.361   4.099   1.239
 3291SOL    HW2 9891   4.421   4.242   1.189
 3292SOL     OW 9892   4.197   4.224   0.191
 3292SOL    HW1 9893   4.258   4.304   0.195
 3292SOL    HW2 9894   4.102   4.255   0.198
 3293SOL     OW 9895   4.627   3.810   0.133
 3293SOL    HW1 9896   4.678   3.811   0.047
 3293SOL    HW2 9897   4.683   3.768   0.204
 3294SOL     OW 9898   3.987   4.050   0.720
 3294SOL    HW1 9899   3.908   4.101   0.686
 3294SOL    HW2 9900   3.978   4.035   0.818
 3295SOL     OW 9901   4.763   4.822   0.696
 3295SOL    HW1 9902   4.693   4.775   0.750
 3295SOL    HW2 9903   4.822   4.754   0.653
 3296SOL     OW 9904   3.829   4.737   1.726
 3296SOL    HW1 9905   3.752   4.704   1.780
 3296SOL    HW2 9906   3.914   4.707   1.768
 3297SOL     OW 9907   4.396   3.927   1.489
 3297SOL    HW1 9908   4.486   3.911   1.449
 3297SOL    HW2 9909   4.404   3.932   1.588
 3298SOL     OW 9910   3.796   3.890   0.318
 3298SOL    HW1 9911   3.779   3.973   0.264
 3298SOL    HW2 9912   3.886   3.853   0.296
 3299SOL     OW 9913   4.337   4.566   1.431
 3299SOL    HW1 9914   4.393   4.647   1.414
 3299SOL    HW2 9915   4.396   4.486   1.434
 3300SOL     OW 9916   4.440   4.289   1.708
 3300SOL    HW1 9917   4.459   4.354   1.782
 3300SOL    HW2 9918   4.500   4.209   1.717
 3301SOL     OW 9919   4.949   4.049   0.449
 3301SOL    HW1 9920   5.014   3.975   0.438
 3301SOL    HW2 9921   4.969   4.099   0.533
 3302SOL     OW 9922   4.318   4.469   0.652
 3302SOL    HW1 9923   4.368   4.554   0.633
 3302SOL    HW2 9924   4.230   4.471   0.604
 3303SOL     OW 9925   4.583   4.680   0.861
 3303SOL    HW1 9926   4.637   4.611   0.909
 3303SOL    HW2 9927   4.551   4.749   0.927
 3304SOL     OW 9928   4.152   4.148   0.520
 3304SOL    HW1 9929   4.182   4.076   0.458
 3304SOL    HW2 9930   4.113   4.108   0.603
 3305SOL     OW 9931   4.041   4.271   1.280
 3305SOL    HW1 9932   4.079   4.212   1.352
 3305SOL    HW2 9933   4.081   4.245   1.192
 3306SOL     OW 9934   4.725   3.758   1.154
 3306SOL    HW1 9935   4.662   3.686   1.123
 3306SOL    HW2 9936   4.818   3.722   1.154
 3307SOL     OW 9937   3.954   4.352   1.975
 3307SOL    HW1 9938   3.861   4.350   2.012
 3307SOL    HW2 9939   3.955   4.313   1.883
 3308SOL     OW 9940   3.949   3.999   2.858
 3308SOL    HW1 9941   3.984   3.982   2.950
 3308SOL    HW2 9942   3.861   3.954   2.846
 3309SOL     OW 9943   3.743   4.092   2.509
 3309SOL    HW1 9944   3.661   4.135   2.548
 3309SOL    HW2 9945   3.715   4.019   2.446
 3310SOL     OW 9946   4.574   4.522   3.685
 3310SOL    HW1 9947   4.570   4.598   3.750
 3310SOL    HW2 9948   4.596   4.558   3.594
 3311SOL     OW 9949   4.409   4.736   2.527
 3311SOL    HW1 9950   4.478   4.720   2.597
 3311SOL    HW2 9951   4.336   4.793   2.565
 3312SOL     OW 9952   4.162   4.116   3.361
 3312SOL    HW1 9953   4.244   4.060   3.370
 3312SOL    HW2 9954   4.081   4.058   3.365
 3313SOL     OW 9955   3.846   4.367   2.425
 3313SOL    HW1 9956   3.801   4.279   2.442
 3313SOL    HW2 9957   3.845   4.421   2.509
 3314SOL     OW 9958   3.837   4.461   3.459
 3314SOL    HW1 9959   3.925   4.448   3.504
 3314SOL    HW2 9960   3.824   4.558   3.437
 3315SOL     OW 9961   4.533   3.728   2.364
 3315SOL    HW1 9962   4.573   3.819   2.355
 3315SOL    HW2 9963   4.433   3.736   2.370
 3316SOL     OW 9964   3.921   4.700   3.126
 3316SOL    HW1 9965   4.010   4.655   3.112
 3316SOL    HW2 9966   3.848   4.635   3.107
 3317SOL     OW 9967   4.041   3.975   3.663
 3317SOL    HW1 9968   4.112   4.046   3.669
 3317SOL    HW2 9969   3.953   4.014   3.691
 3318SOL     OW 9970   4.322   4.453   2.132
 3318SOL    HW1 9971   4.346   4.522   2.064
 3318SOL    HW2 9972   4.244   4.486   2.186
 3319SOL     OW 9973   4.531   4.329   3.327
 3319SOL    HW1 9974   4.484   4.326   3.416
 3319SOL    HW2 9975   4.480   4.274   3.261
 3320SOL     OW 9976   4.715   4.134   3.104
 3320SOL    HW1 9977   4.638   4.168   3.158
 3320SOL    HW2 9978   4.681   4.083   3.025
 3321SOL     OW 9979   3.800   4.535   2.651
 3321SOL    HW1 9980   3.899   4.523   2.660
 3321SOL    HW2 9981   3.776   4.630   2.672
 3322SOL     OW 9982   4.589   4.072   2.057
 3322SOL    HW1 9983   4.648   4.135   2.008
 3322SOL    HW2 9984   4.608   3.978   2.028
 3323SOL     OW 9985   4.274   3.920   2.747
 3323SOL    HW1 9986   4.269   3.915   2.847
 3323SOL    HW2 9987   4.276   4.016   2.718
 3324SOL     OW 9988   3.926   4.009   3.360
 3324SOL    HW1 9989   3.846   4.069   3.347
 3324SOL    HW2 9990   3.916   3.960   3.446
 3325SOL     OW 9991   4.106   4.424   2.342
 3325SOL    HW1 9992   4.151   4.334   2.339
 3325SOL    HW2 9993   4.012   4.413   2.375
 3326SOL     OW 9994   4.338   3.846   1.979
 3326SOL    HW1 9995   4.436   3.824   1.986
 3326SOL    HW2 9996   4.307   3.829   1.886
 3327SOL     OW 9997   4.505   3.988   3.611
 3327SOL    HW1 9998   4.572   3.927   3.654
 3327SOL    HW2 9999   4.432   4.007   3.676
 3328SOL     OW10000   4.646   4.227   2.761
 3328SOL    HW110001   4.621   4.218   2.665
 3328SOL    HW210002   4.694   4.145   2.792
 3329SOL     OW10003   4.263   3.788   2.374
 3329SOL    HW110004   4.182   3.789   2.432
 3329SOL    HW210005   4.266   3.871   2.319
 3330SOL     OW10006   4.021   3.759   2.033
 3330SOL    HW110007   4.070   3.843   2.012
 3330SOL    HW210008   4.083   3.694   2.078
 3331SOL     OW10009   3.802   4.280   3.248
 3331SOL    HW110010   3.894   4.279   3.207
 3331SOL    HW210011   3.796   4.354   3.315
 3332SOL     OW10012   4.285   3.946   3.009
 3332SOL    HW110013   4.323   3.862   3.046
 3332SOL    HW210014   4.197   3.965   3.053
 3333SOL     OW10015   4.251   3.980   2.190
 3333SOL    HW110016   4.278   3.921   2.115
 3333SOL    HW210017   4.251   4.075   2.159
 3334SOL     OW10018   4.639   3.813   3.264
 3334SOL    HW110019   4.664   3.793   3.169
 3334SOL    HW210020   4.711   3.869   3.306
 3335SOL     OW10021   4.134   4.537   3.113
 3335SOL    HW110022   4.220   4.549   3.163
 3335SOL    HW210023   4.092   4.450   3.140
 3336SOL     OW10024   4.290   4.261   2.727
 3336SOL    HW110025   4.302   4.327   2.653
 3336SOL    HW210026   4.336   4.295   2.810
 3337SOL     OW10027   4.126   4.475   3.460
 3337SOL    HW110028   4.194   4.530   3.413
 3337SOL    HW210029   4.166   4.387   3.487
 3338SOL     OW10030   4.228   3.774   3.602
 3338SOL    HW110031   4.186   3.717   3.532
 3338SOL    HW210032   4.162   3.843   3.634
 3339SOL     OW10033   4.297   4.594   2.891
 3339SOL    HW110034   4.341   4.683   2.882
 3339SOL    HW210035   4.234   4.594   2.968
 3340SOL     OW10036   4.933   4.249   2.137
 3340SOL    HW110037   4.946   4.165   2.191
 3340SOL    HW210038   4.904   4.323   2.197
 3341SOL     OW10039   4.031   3.937   3.093
 3341SOL    HW110040   4.008   3.974   3.183
 3341SOL    HW210041   4.001   3.842   3.087
 3342SOL     OW10042   4.456   4.358   2.926
 3342SOL    HW110043   4.515   4.332   2.850
 3342SOL    HW210044   4.428   4.454   2.915
 3343SOL     OW10045   4.031   3.787   2.480
 3343SOL    HW110046   4.020   3.881   2.513
 3343SOL    HW210047   4.026   3.724   2.557
 3344SOL     OW10048   4.747   4.490   2.828
 3344SOL    HW110049   4.762   4.511   2.924
 3344SOL    HW210050   4.717   4.395   2.819
 3345SOL     OW10051   4.074   4.622   3.666
 3345SOL    HW110052   4.150   4.666   3.714
 3345SOL    HW210053   4.109   4.575   3.584
 3346SOL     OW10054   4.043   4.534   2.811
 3346SOL    HW110055   4.136   4.570   2.816
 3346SOL    HW210056   4.037   4.449   2.863
 3347SOL     OW10057   4.063   4.233   2.868
 3347SOL    HW110058   4.011   4.150   2.851
 3347SOL    HW210059   4.140   4.238   2.804
 3348SOL     OW10060   4.726   4.520   3.100
 3348SOL    HW110061   4.767   4.488   3.186
 3348SOL    HW210062   4.630   4.493   3.097
 3349SOL     OW10063   3.764   4.268   2.976
 3349SOL    HW110064   3.849   4.235   2.935
 3349SOL    HW210065   3.777   4.283   3.074
 3350SOL     OW10066   3.913   4.244   3.584
 3350SOL    HW110067   3.972   4.204   3.514
 3350SOL    HW210068   3.855   4.315   3.543
 3351SOL     OW10069   4.539   4.296   2.187
 3351SOL    HW110070   4.546   4.207   2.141
 3351SOL    HW210071   4.445   4.330   2.179
 3352SOL     OW10072   4.395   4.188   3.131
 3352SOL    HW110073   4.361   4.099   3.101
 3352SOL    HW210074   4.421   4.242   3.051
 3353SOL     OW10075   4.197   4.224   2.053
 3353SOL    HW110076   4.258   4.304   2.057
 3353SOL    HW210077   4.102   4.255   2.060
 3354SOL     OW10078   4.627   3.810   1.995
 3354SOL    HW110079   4.678   3.811   1.909
 3354SOL    HW210080   4.683   3.768   2.066
 3355SOL     OW10081   3.987   4.050   2.582
 3355SOL    HW110082   3.908   4.101   2.548
 3355SOL    HW210083   3.978   4.035   2.680
 3356SOL     OW10084   4.763   4.822   2.558
 3356SOL    HW110085   4.693   4.775   2.612
 3356SOL    HW210086   4.822   4.754   2.515
 3357SOL     OW10087   3.829   4.737   3.588
 3357SOL    HW110088   3.752   4.704   3.642
 3357SOL    HW210089   3.914   4.707   3.630
 3358SOL     OW10090   4.396   3.927   3.351
 3358SOL    HW110091   4.486   3.911   3.311
 3358SOL    HW210092   4.404   3.932   3.450
 3359SOL     OW10093   3.799   4.069   1.895
 3359SOL    HW110094   3.707   4.041   1.866
 3359SOL    HW210095   3.830   4.146   1.839
 3360SOL     OW10096   3.796   3.890   2.180
 3360SOL    HW110097   3.779   3.973   2.126
 3360SOL    HW210098   3.886   3.853   2.158
 3361SOL     OW10099   4.337   4.566   3.293
 3361SOL    HW110100   4.393   4.647   3.276
 3361SOL    HW210101   4.396   4.486   3.296
 3362SOL     OW10102   4.440   4.289   3.570
 3362SOL    HW110103   4.459   4.354   3.644
 3362SOL    HW210104   4.500   4.209   3.579
 3363SOL     OW10105   4.949   4.049   2.311
 3363SOL    HW110106   5.014   3.975   2.300
 3363SOL    HW210107   4.969   4.099   2.395
 3364SOL     OW10108   4.318   4.469   2.514
 3364SOL    HW110109   4.368   4.554   2.495
 3364SOL    HW210110   4.230   4.471   2.466
 3365SOL     OW10111   4.583   4.680   2.723
 3365SOL    HW110112   4.637   4.611   2.771
 3365SOL    HW210113   4.551   4.749   2.789
 3366SOL     OW10114   4.152   4.148   2.382
 3366SOL    HW110115   4.182   4.076   2.320
 3366SOL    HW210116   4.113   4.108   2.465
 3367SOL     OW10117   4.041   4.271   3.142
 3367SOL    HW110118   4.079   4.212   3.214
 3367SOL    HW210119   4.081   4.245   3.054
 3368SOL     OW10120   4.725   3.758   3.016
 3368SOL    HW110121   4.662   3.686   2.985
 3368SOL    HW210122   4.818   3.722   3.016
 3369SOL     OW10123   3.954   4.352   3.837
 3369SOL    HW110124   3.861   4.350   3.874
 3369SOL    HW210125   3.955   4.313   3.745
 3370SOL     OW10126   3.949   3.999   4.720
 3370SOL    HW110127   3.984   3.982   4.812
 3370SOL    HW210128   3.861   3.954   4.708
 3371SOL     OW10129   3.743   4.092   4.371
 3371SOL    HW110130   3.661   4.135   4.410
 3371SOL    HW210131   3.715   4.019   4.308
 3372SOL     OW10132   4.409   4.736   4.389
 3372SOL    HW110133   4.478   4.720   4.459
 3372SOL    HW210134   4.336   4.793   4.427
 3373SOL     OW10135   3.846   4.367   4.287
 3373SOL    HW110136   3.801   4.279   4.304
 3373SOL    HW210137   3.845   4.421   4.371
 3374SOL     OW10138   4.533   3.728   4.226
 3374SOL    HW110139   4.573   3.819   4.217
 3374SOL    HW210140   4.433   3.736   4.232
 3375SOL     OW10141   4.322   4.453   3.994
 3375SOL    HW110142   4.346   4.522   3.926
 3375SOL    HW210143   4.244   4.486   4.048
 3376SOL     OW10144   3.800   4.535   4.513
 3376SOL    HW110145   3.899   4.523   4.522
 3376SOL    HW210146   3.776   4.630   4.534
 3377SOL     OW10147   4.589   4.072   3.919
 3377SOL    HW110148   4.648   4.135   3.870
 3377SOL    HW210149   4.608   3.978   3.890
 3378SOL     OW10150   4.274   3.920   4.609
 3378SOL    HW110151   4.269   3.915   4.709
 3378SOL    HW210152   4.276   4.016   4.580
 3379SOL     OW10153   4.106   4.424   4.204
 3379SOL    HW110154   4.151   4.334   4.201
 3379SOL    HW210155   4.012   4.413   4.237
 3380SOL     OW10156   4.338   3.846   3.841
 3380SOL    HW110157   4.436   3.824   3.848
 3380SOL    HW210158   4.307   3.829   3.748
 3381SOL     OW10159   4.263   3.788   4.236
 3381SOL    HW110160   4.182   3.789   4.294
 3381SOL    HW210161   4.266   3.871   4.181
 3382SOL     OW10162   4.021   3.759   3.895
 3382SOL    HW110163   4.070   3.843   3.874
 3382SOL    HW210164   4.083   3.694   3.940
 3383SOL     OW10165   4.251   3.980   4.052
 3383SOL    HW110166   4.278   3.921   3.977
 3383SOL    HW210167   4.251   4.075   4.021
 3384SOL     OW10168   4.290   4.261   4.589
 3384SOL    HW110169   4.302   4.327   4.515
 3384SOL    HW210170   4.336   4.295   4.672
 3385SOL     OW10171   4.297   4.594   4.753
 3385SOL    HW110172   4.341   4.683   4.744
 3385SOL    HW210173   4.234   4.594   4.830
 3386SOL     OW10174   4.933   4.249   3.999
 3386SOL    HW110175   4.946   4.165   4.053
 3386SOL    HW210176   4.904   4.323   4.059
 3387SOL     OW10177   4.456   4.358   4.788
 3387SOL    HW110178   4.515   4.332   4.712
 3387SOL    HW210179   4.428   4.454   4.777
 3388SOL     OW10180   4.031   3.787   4.342
 3388SOL    HW110181   4.020   3.881   4.375
 3388SOL    HW210182   4.026   3.724   4.419
 3389SOL     OW10183   4.747   4.490   4.690
 3389SOL    HW110184   4.762   4.511   4.786
 3389SOL    HW210185   4.717   4.395   4.681
 3390SOL     OW10186   4.043   4.534   4.673
 3390SOL    HW110187   4.136   4.570   4.678
 3390SOL    HW210188   4.037   4.449   4.725
 3391SOL     OW10189   4.726   4.520   4.962
 3391SOL    HW110190   4.767   4.488   5.048
 3391SOL    HW210191   4.630   4.493   4.959
 3392SOL     OW10192   4.539   4.296   4.049
 3392SOL    HW110193   4.546   4.207   4.003
 3392SOL    HW210194   4.445   4.330   4.041
 3393SOL     OW10195   4.197   4.224   3.915
 3393SOL    HW110196   4.258   4.304   3.919
 3393SOL    HW210197   4.102   4.255   3.922
 3394SOL     OW10198   4.627   3.810   3.857
 3394SOL    HW110199   4.678   3.811   3.771
 3394SOL    HW210200   4.683   3.768   3.928
 3395SOL     OW10201   3.987   4.050   4.444
 3395SOL    HW110202   3.908   4.101   4.410
 3395SOL    HW210203   3.978   4.035   4.542
 3396SOL     OW10204   4.763   4.822   4.420
 3396SOL    HW110205   4.693   4.775   4.474
 3396SOL    HW210206   4.822   4.754   4.377
 3397SOL     OW10207   3.799   4.069   3.757
 3397SOL    HW110208   3.707   4.041   3.728
 3397SOL    HW210209   3.830   4.146   3.701
 3398SOL     OW10210   3.796   3.890   4.042
 3398SOL    HW110211   3.779   3.973   3.988
 3398SOL    HW210212   3.886   3.853   4.020
 3399SOL     OW10213   4.949   4.049   4.173
 3399SOL    HW110214   5.014   3.975   4.162
 3399SOL    HW210215   4.969   4.099   4.257
 3400SOL     OW10216   4.318   4.469   4.376
 3400SOL    HW110217   4.368   4.554   4.357
 3400SOL    HW210218   4.230   4.471   4.328
 3401SOL     OW10219   4.583   4.680   4.585
 3401SOL    HW110220   4.637   4.611   4.633
 3401SOL    HW210221   4.551   4.749   4.651
 3402SOL     OW10222   4.152   4.148   4.244
 3402SOL    HW110223   4.182   4.076   4.182
 3402SOL    HW210224   4.113   4.108   4.327
   4.71786   4.71786   4.71786
