%VERSION  VERSION_STAMP = V0001.000  DATE = 05/20/26  23:50:27                  
%FLAG TITLE                                                                     
%FORMAT(20a4)                                                                   
SAMPL4_014                                                                      
%FLAG POINTERS                                                                  
%FORMAT(10I8)                                                                   
      25       6      14      11      31      14      50      18       0       0
     134       1      11      14      18      12      23      13       9       0
       0       0       0       0       0       0       0       0      25       0
       0
%FLAG ATOM_NAME                                                                 
%FORMAT(20a4)                                                                   
C1  C2  C3  C4  C5  C6  C7  C8  C9  C10 O1  H1  H2  H3  H4  H5  H6  H7  H8  H9  
H10 H11 H12 H13 H14 
%FLAG CHARGE                                                                    
%FORMAT(5E16.8)                                                                 
 -1.82587446E+00 -3.99797262E+00 -4.04535060E+00  1.03156440E+01 -2.04818652E+00
 -9.69426360E-01 -6.77869560E-01 -1.30107222E+00 -5.19335550E-01 -1.12796037E+00
 -9.60497433E+00  2.25956520E+00  2.06823105E+00  2.06823105E+00 -1.60356240E-01
  1.10609361E+00  1.10609361E+00  1.14253821E+00  1.14253821E+00  8.69203710E-01
  8.69203710E-01  1.01498211E+00  7.72024184E-01  7.72024184E-01  7.72024184E-01
%FLAG ATOMIC_NUMBER                                                             
%FORMAT(10I8)                                                                   
       6       6       6       6       6       6       6       6       6       6
       8       1       1       1       1       1       1       1       1       1
       1       1       1       1       1
%FLAG MASS                                                                      
%FORMAT(5E16.8)                                                                 
  1.20100000E+01  1.20100000E+01  1.20100000E+01  1.20100000E+01  1.20100000E+01
  1.20100000E+01  1.20100000E+01  1.20100000E+01  1.20100000E+01  1.20100000E+01
  1.60000000E+01  1.00800000E+00  1.00800000E+00  1.00800000E+00  1.00800000E+00
  1.00800000E+00  1.00800000E+00  1.00800000E+00  1.00800000E+00  1.00800000E+00
  1.00800000E+00  1.00800000E+00  1.00800000E+00  1.00800000E+00  1.00800000E+00
%FLAG ATOM_TYPE_INDEX                                                           
%FORMAT(10I8)                                                                   
       1       1       1       1       1       2       2       2       2       2
       3       4       4       4       5       6       6       6       6       6
       6       6       6       6       6
%FLAG NUMBER_EXCLUDED_ATOMS                                                     
%FORMAT(10I8)                                                                   
      15      14      11       8      15      10      10       9      14       6
       1       2       1       1       1       2       1       3       2       2
       1       1       2       1       1
%FLAG NONBONDED_PARM_INDEX                                                      
%FORMAT(10I8)                                                                   
       1       2       4       7      11      16       2       3       5       8
      12      17       4       5       6       9      13      18       7       8
       9      10      14      19      11      12      13      14      15      20
      16      17      18      19      20      21
%FLAG RESIDUE_LABEL                                                             
%FORMAT(20a4)                                                                   
MOL 
%FLAG RESIDUE_POINTER                                                           
%FORMAT(10I8)                                                                   
       1
%FLAG BOND_FORCE_CONSTANT                                                       
%FORMAT(5E16.8)                                                                 
  4.24300000E+02  2.44960000E+02  3.57290000E+02  2.67760000E+02  2.39140000E+02
  4.36000000E+02  5.90600000E+02  3.22470000E+02  2.48400000E+02  2.26810000E+02
  3.42750000E+02  3.45250000E+02
%FLAG BOND_EQUIL_VALUE                                                          
%FORMAT(5E16.8)                                                                 
  1.34570000E+00  1.51330000E+00  1.08820000E+00  1.48480000E+00  1.52110000E+00
  1.33790000E+00  1.21900000E+00  1.11230000E+00  1.50880000E+00  1.53840000E+00
  1.09790000E+00  1.09620000E+00
%FLAG ANGLE_FORCE_CONSTANT                                                      
%FORMAT(5E16.8)                                                                 
  6.21100000E+01  6.12100000E+01  6.05700000E+01  4.39000000E+01  6.12000000E+01
  4.61500000E+01  7.79900000E+01  4.34700000E+01  6.04900000E+01  4.36900000E+01
  6.12400000E+01  6.08800000E+01  5.99000000E+01  4.63700000E+01  4.37600000E+01
  4.25500000E+01  6.01800000E+01  4.32300000E+01  5.97700000E+01  5.99800000E+01
  3.46600000E+01  3.59300000E+01  3.58000000E+01
%FLAG ANGLE_EQUIL_VALUE                                                         
%FORMAT(5E16.8)                                                                 
  2.12930260E+00  2.12581194E+00  1.94447215E+00  1.90782022E+00  2.14064725E+00
  2.10294812E+00  2.15094469E+00  2.00520964E+00  1.93975976E+00  1.90904195E+00
  2.14710497E+00  2.18078984E+00  2.04831929E+00  2.10120279E+00  1.93120765E+00
  2.03453118E+00  1.93836350E+00  1.91026369E+00  2.03697464E+00  2.10521705E+00
  2.03610198E+00  1.86087085E+00  1.88024401E+00
%FLAG DIHEDRAL_FORCE_CONSTANT                                                   
%FORMAT(5E16.8)                                                                 
  2.17500000E+00  3.72000000E-01  2.60000000E-01  1.55555556E-01  0.00000000E+00
  6.65000000E+00  0.00000000E+00  5.20000000E-01  1.30000000E-01  1.50000000E-01
  1.20000000E-01  1.10000000E+00  1.05000000E+01
%FLAG DIHEDRAL_PERIODICITY                                                      
%FORMAT(5E16.8)                                                                 
  2.00000000E+00  3.00000000E+00  3.00000000E+00  3.00000000E+00  2.00000000E+00
  2.00000000E+00  3.00000000E+00  3.00000000E+00  3.00000000E+00  3.00000000E+00
  3.00000000E+00  2.00000000E+00  2.00000000E+00
%FLAG DIHEDRAL_PHASE                                                            
%FORMAT(5E16.8)                                                                 
  3.14159400E+00  0.00000000E+00  3.14159400E+00  0.00000000E+00  0.00000000E+00
  3.14159400E+00  0.00000000E+00  0.00000000E+00  0.00000000E+00  0.00000000E+00
  0.00000000E+00  3.14159400E+00  3.14159400E+00
%FLAG SCEE_SCALE_FACTOR                                                         
%FORMAT(5E16.8)                                                                 
  1.20000000E+00  1.20000000E+00  1.20000000E+00  1.20000000E+00  1.20000000E+00
  1.20000000E+00  1.20000000E+00  1.20000000E+00  1.20000000E+00  1.20000000E+00
  1.20000000E+00  0.00000000E+00  0.00000000E+00
%FLAG SCNB_SCALE_FACTOR                                                         
%FORMAT(5E16.8)                                                                 
  2.00000000E+00  2.00000000E+00  2.00000000E+00  2.00000000E+00  2.00000000E+00
  2.00000000E+00  2.00000000E+00  2.00000000E+00  2.00000000E+00  2.00000000E+00
  2.00000000E+00  0.00000000E+00  0.00000000E+00
%FLAG SOLTY                                                                     
%FORMAT(5E16.8)                                                                 
  0.00000000E+00  0.00000000E+00  0.00000000E+00  0.00000000E+00  0.00000000E+00
  0.00000000E+00  0.00000000E+00  0.00000000E+00  0.00000000E+00
%FLAG LENNARD_JONES_ACOEF                                                       
%FORMAT(5E16.8)                                                                 
  6.96551276E+05  8.43969952E+05  1.02073671E+06  5.17507491E+05  6.30925504E+05
  3.76435470E+05  7.52549148E+04  9.27554496E+04  5.27277400E+04  6.90855956E+03
  6.27751680E+04  7.75673747E+04  4.36069364E+04  5.62610481E+03  4.56536476E+03
  8.12662403E+04  1.00235148E+05  5.68021765E+04  7.41026906E+03  6.02863188E+03
  7.94617769E+03
%FLAG LENNARD_JONES_BCOEF                                                       
%FORMAT(5E16.8)                                                                 
  5.24668528E+02  5.90251928E+02  6.63431737E+02  4.98871431E+02  5.62969425E+02
  4.69350655E+02  1.09570372E+02  1.24325688E+02  1.01173582E+02  2.10929191E+01
  1.00073628E+02  1.13692208E+02  9.20079458E+01  1.90347353E+01  1.71467049E+01
  1.21392023E+02  1.37787728E+02  1.11953944E+02  2.32899892E+01  2.10068861E+01
  2.57122925E+01
%FLAG BONDS_INC_HYDROGEN                                                        
%FORMAT(10I8)                                                                   
       0      33       3       6      36       3       6      39       3       9
      42       8      15      45      11      15      48      11      18      51
      11      18      54      11      21      57      11      21      60      11
      24      63      11      27      66      12      27      69      12      27
      72      12
%FLAG BONDS_WITHOUT_HYDROGEN                                                    
%FORMAT(10I8)                                                                   
       0       3       1       0      15       2       3       9       4       3
      18       5       6      12       6       9      30       7      12      24
       2      12      27       9      15      24      10      18      21      10
      21      24      10
%FLAG ANGLES_INC_HYDROGEN                                                       
%FORMAT(10I8)                                                                   
       0      15      45       4       0      15      48       4       3       0
      33       6       3       9      42       8       3      18      51      10
       3      18      54      10      12       6      36      14      12       6
      39      14      12      24      63       4      12      27      66      15
      12      27      69      15      12      27      72      15      15       0
      33      16      15      24      63      18      18      21      57      18
      18      21      60      18      21      18      51      18      21      18
      54      18      21      24      63      18      24      15      45      18
      24      15      48      18      24      21      57      18      24      21
      60      18      30       9      42      20      36       6      39      21
      45      15      48      22      51      18      54      22      57      21
      60      22      66      27      69      23      66      27      72      23
      69      27      72      23
%FLAG ANGLES_WITHOUT_HYDROGEN                                                   
%FORMAT(10I8)                                                                   
       0       3       9       1       0       3      18       2       0      15
      24       3       3       0      15       5       3       9      30       7
       3      18      21       9       6      12      24      11       6      12
      27      12       9       3      18      13      12      24      15       3
      12      24      21       3      15      24      21      17      18      21
      24      17      24      12      27      19
%FLAG DIHEDRALS_INC_HYDROGEN                                                    
%FORMAT(10I8)                                                                   
       0       3       9      42       1       0       3      18      51       3
       0       3      18      54       3       0      15      24      63       4
       3       0      15      45       5       3       0      15      48       5
       3      18      21      57       4       3      18      21      60       4
       6      12      24      63       3       6      12      27      66       3
       6      12      27      69       3       6      12      27      72       3
      33       0       3       9       6       9       3      18      51       3
       9       3      18      54       3      12      24      15      45       4
      12      24      15      48       4      12      24      21      57       4
      12      24      21      60       4      15      24      21      57       9
      15      24      21      60       9      33       0       3      18       6
      18       3       9      42       1      18      21      24      63       9
      21      24      15      45       9      21      24      15      48       9
      24      12       6      36       6      24      12       6      39       6
      24      12      27      66      10      24      12      27      69      10
      24      12      27      72      10      33       0      15      24       5
      24      21      18      51       9      24      21      18      54       9
      27      12       6      36       6      27      12       6      39       6
      27      12      24      63      10      33       0      15      45       5
      33       0      15      48       5      45      15      24      63      11
      48      15      24      63      11      51      18      21      57      11
      51      18      21      60      11      54      18      21      57      11
      54      18      21      60      11      57      21      24      63      11
      60      21      24      63      11      33       0      -3     -15      12
      12      36      -6     -39      12       3      42      -9     -30      13
%FLAG DIHEDRALS_WITHOUT_HYDROGEN                                                
%FORMAT(10I8)                                                                   
       0       3       9      30       1       0       3      18      21       2
       0      15      24      12       4       0      15     -24      21       4
       3       0      15      24       5       3      18     -21      24       4
       6      12      24      15       5       6      12      24      21       5
      15       0       3       9       6       9       3      18      21       7
      12      24      21      18       4      15       0       3      18       6
      15      24      12      27       5      15      24     -21      18       8
      18       3       9      30       1      21      24      12      27       5
       9       0      -3     -18      12       6      27     -12     -24      12
%FLAG EXCLUDED_ATOMS_LIST                                                       
%FORMAT(10I8)                                                                   
       2       4       5       6       7       8       9      11      12      15
      16      17      18      19      22       4       6       7       8       9
      11      12      15      16      17      18      19      20      21       5
       6       8       9      10      13      14      22      23      24      25
       6       7       8      11      12      15      18      19       6       7
       8       9      10      13      14      16      17      20      21      22
      23      24      25       7       8       9      10      12      16      17
      20      21      22       8       9      11      12      15      18      19
      20      21      22       9      10      16      17      18      19      20
      21      22      10      12      13      14      16      17      18      19
      20      21      22      23      24      25      13      14      22      23
      24      25      15      16      17      14       0       0      17      22
      22      19      20      21      20      21      21      22      22       0
      24      25      25       0
%FLAG HBOND_ACOEF                                                               
%FORMAT(5E16.8)                                                                 

%FLAG HBOND_BCOEF                                                               
%FORMAT(5E16.8)                                                                 

%FLAG HBCUT                                                                     
%FORMAT(5E16.8)                                                                 

%FLAG AMBER_ATOM_TYPE                                                           
%FORMAT(20a4)                                                                   
c2  ce  c2  c   c2  c6  c6  c6  c6  c3  o   ha  ha  ha  h4  hc  hc  hc  hc  hc  
hc  hc  hc  hc  hc  
%FLAG TREE_CHAIN_CLASSIFICATION                                                 
%FORMAT(20a4)                                                                   
BLA BLA BLA BLA BLA BLA BLA BLA BLA BLA BLA BLA BLA BLA BLA BLA BLA BLA BLA BLA 
BLA BLA BLA BLA BLA 
%FLAG JOIN_ARRAY                                                                
%FORMAT(10I8)                                                                   
       0       0       0       0       0       0       0       0       0       0
       0       0       0       0       0       0       0       0       0       0
       0       0       0       0       0
%FLAG IROTAT                                                                    
%FORMAT(10I8)                                                                   
       0       0       0       0       0       0       0       0       0       0
       0       0       0       0       0       0       0       0       0       0
       0       0       0       0       0
%FLAG RADIUS_SET                                                                
%FORMAT(1a80)                                                                   
modified Bondi radii (mbondi)                                                   
%FLAG RADII                                                                     
%FORMAT(5E16.8)                                                                 
  1.70000000E+00  1.70000000E+00  1.70000000E+00  1.70000000E+00  1.70000000E+00
  1.70000000E+00  1.70000000E+00  1.70000000E+00  1.70000000E+00  1.70000000E+00
  1.50000000E+00  1.30000000E+00  1.30000000E+00  1.30000000E+00  1.30000000E+00
  1.30000000E+00  1.30000000E+00  1.30000000E+00  1.30000000E+00  1.30000000E+00
  1.30000000E+00  1.30000000E+00  1.30000000E+00  1.30000000E+00  1.30000000E+00
%FLAG SCREEN                                                                    
%FORMAT(5E16.8)                                                                 
  7.20000000E-01  7.20000000E-01  7.20000000E-01  7.20000000E-01  7.20000000E-01
  7.20000000E-01  7.20000000E-01  7.20000000E-01  7.20000000E-01  7.20000000E-01
  8.50000000E-01  8.50000000E-01  8.50000000E-01  8.50000000E-01  8.50000000E-01
  8.50000000E-01  8.50000000E-01  8.50000000E-01  8.50000000E-01  8.50000000E-01
  8.50000000E-01  8.50000000E-01  8.50000000E-01  8.50000000E-01  8.50000000E-01
%FLAG IPOL                                                                      
%FORMAT(1I8)                                                                    
       0
