SAMPL4_014
    25
  -0.6480000  -0.7410000  -1.1460000   0.3450000   0.1580000  -1.1480000
  -2.3770000  -0.4370000   3.4030000   0.9300000   0.5240000  -2.4400000
  -1.4460000  -0.9720000   2.5990000  -1.3330000  -1.1890000   0.1150000
   0.9030000   0.7890000   0.0920000   0.4770000   0.0560000   1.3690000
  -1.0150000  -0.3010000   1.3310000  -0.7770000  -2.2760000   2.9170000
   1.8410000   1.3370000  -2.5450000  -0.9990000  -1.1870000  -2.0730000
  -2.6820000  -0.9310000   4.3190000  -2.8550000   0.5070000   3.1630000
   0.4900000   0.0160000  -3.3140000  -2.4170000  -1.1930000  -0.0540000
  -1.0400000  -2.2300000   0.3070000   1.9980000   0.8100000   0.0480000
   0.5620000   1.8300000   0.1390000   1.0760000  -0.8580000   1.4800000
   0.7040000   0.6880000   2.2370000  -1.5910000   0.6290000   1.2420000
  -1.3410000  -3.1080000   2.4830000   0.2380000  -2.2920000   2.5070000
  -0.7040000  -2.4490000   3.9960000
