mobley_7417968_GMX.gro created by acpype (v: 2023.10.27) on Wed May 20 23:43:06 2026
   21
    1MOL     C1    1   2.552   2.182   2.503
    1MOL     C2    2   2.627   2.121   2.389
    1MOL     C3    3   2.388   2.735   2.283
    1MOL     C4    4   2.297   2.637   2.353
    1MOL     C5    5   2.387   2.343   2.556
    1MOL     C6    6   2.297   2.444   2.488
    1MOL     O1    7   2.568   2.150   2.620
    1MOL     O2    8   2.466   2.276   2.456
    1MOL     O3    9   2.377   2.540   2.420
    1MOL     H1   10   2.572   2.034   2.350
    1MOL     H2   11   2.727   2.092   2.421
    1MOL     H3   12   2.636   2.195   2.308
    1MOL     H4   13   2.452   2.787   2.355
    1MOL     H5   14   2.451   2.684   2.210
    1MOL     H6   15   2.329   2.810   2.228
    1MOL     H7   16   2.234   2.585   2.281
    1MOL     H8   17   2.234   2.688   2.427
    1MOL     H9   18   2.329   2.267   2.609
    1MOL    H10   19   2.455   2.393   2.626
    1MOL    H11   20   2.235   2.497   2.562
    1MOL    H12   21   2.233   2.395   2.415
   4.84331   4.84331   4.84331
