mobley_5200358_GMX.gro created by acpype (v: 2023.10.27) on Wed May 20 23:42:30 2026
12503
    1MOL     C1    1   2.681   2.434   2.567
    1MOL     C2    2   2.431   2.328   2.354
    1MOL     C3    3   2.502   2.555   2.698
    1MOL     C4    4   2.637   2.677   2.519
    1MOL     C5    5   2.229   2.323   2.214
    1MOL     C6    6   2.726   2.778   2.803
    1MOL     C7    7   2.638   2.569   2.627
    1MOL     N1    8   2.618   2.359   2.481
    1MOL     N2    9   2.311   2.384   2.315
    1MOL     O1   10   2.472   2.220   2.314
    1MOL     O2   11   2.494   2.412   2.441
    1MOL     S1   12   2.768   2.608   2.757
    1MOL     H1   13   2.779   2.395   2.598
    1MOL     H2   14   2.474   2.646   2.752
    1MOL     H3   15   2.421   2.536   2.627
    1MOL     H4   16   2.502   2.472   2.769
    1MOL     H5   17   2.604   2.774   2.558
    1MOL     H6   18   2.568   2.653   2.438
    1MOL     H7   19   2.735   2.690   2.474
    1MOL     H8   20   2.271   2.348   2.116
    1MOL     H9   21   2.128   2.364   2.222
    1MOL    H10   22   2.227   2.215   2.226
    1MOL    H11   23   2.790   2.808   2.887
    1MOL    H12   24   2.622   2.787   2.835
    1MOL    H13   25   2.746   2.847   2.721
    1MOL    H14   26   2.295   2.479   2.344
    2SOL     OW   27   0.230   0.628   0.113
    2SOL    HW1   28   0.137   0.626   0.150
    2SOL    HW2   29   0.231   0.589   0.021
    3SOL     OW   30   0.225   0.275   0.996
    3SOL    HW1   31   0.260   0.258   1.088
    3SOL    HW2   32   0.137   0.230   0.984
    4SOL     OW   33   0.019   0.368   0.647
    4SOL    HW1   34  -0.063   0.411   0.686
    4SOL    HW2   35  -0.009   0.295   0.584
    5SOL     OW   36   0.569   1.275   1.165
    5SOL    HW1   37   0.476   1.268   1.128
    5SOL    HW2   38   0.580   1.364   1.209
    6SOL     OW   39   1.555   1.511   0.703
    6SOL    HW1   40   1.498   1.495   0.784
    6SOL    HW2   41   1.496   1.521   0.623
    7SOL     OW   42   1.135   0.703   0.717
    7SOL    HW1   43   1.192   0.781   0.692
    7SOL    HW2   44   1.075   0.729   0.793
    8SOL     OW   45   1.755   0.607   0.231
    8SOL    HW1   46   1.743   0.594   0.132
    8SOL    HW2   47   1.725   0.526   0.280
    9SOL     OW   48   0.768   1.144   1.023
    9SOL    HW1   49   0.690   1.161   1.083
    9SOL    HW2   50   0.802   1.231   0.987
   10SOL     OW   51   0.850   0.798   1.823
   10SOL    HW1   52   0.846   0.874   1.888
   10SOL    HW2   53   0.872   0.834   1.732
   11SOL     OW   54   0.685   1.012   0.665
   11SOL    HW1   55   0.754   0.996   0.735
   11SOL    HW2   56   0.612   1.069   0.703
   12SOL     OW   57   0.686   1.161   1.803
   12SOL    HW1   58   0.746   1.240   1.817
   12SOL    HW2   59   0.600   1.192   1.762
   13SOL     OW   60   0.335   1.435   1.061
   13SOL    HW1   61   0.257   1.404   1.008
   13SOL    HW2   62   0.393   1.493   1.004
   14SOL     OW   63   1.460   1.505   1.339
   14SOL    HW1   64   1.484   1.599   1.365
   14SOL    HW2   65   1.444   1.451   1.421
   15SOL     OW   66   0.438   0.392   1.499
   15SOL    HW1   67   0.520   0.336   1.508
   15SOL    HW2   68   0.357   0.334   1.503
   16SOL     OW   69   1.603   0.447   0.737
   16SOL    HW1   70   1.529   0.493   0.687
   16SOL    HW2   71   1.654   0.515   0.790
   17SOL     OW   72   0.231   1.713   0.483
   17SOL    HW1   73   0.265   1.790   0.537
   17SOL    HW2   74   0.275   1.713   0.393
   18SOL     OW   75   1.127   1.341   1.690
   18SOL    HW1   76   1.174   1.341   1.778
   18SOL    HW2   77   1.079   1.254   1.679
   19SOL     OW   78   0.230   1.434   0.538
   19SOL    HW1   79   0.204   1.530   0.538
   19SOL    HW2   80   0.159   1.380   0.583
   20SOL     OW   81   0.240   1.091   0.886
   20SOL    HW1   82   0.254   1.007   0.938
   20SOL    HW2   83   0.185   1.155   0.941
   21SOL     OW   84   0.620   1.786   1.439
   21SOL    HW1   85   0.528   1.769   1.474
   21SOL    HW2   86   0.648   1.878   1.465
   22SOL     OW   87   0.606   0.964   0.123
   22SOL    HW1   88   0.613   1.048   0.069
   22SOL    HW2   89   0.652   0.977   0.211
   23SOL     OW   90   1.594   0.114   1.480
   23SOL    HW1   91   1.576   0.181   1.408
   23SOL    HW2   92   1.591   0.160   1.569
   24SOL     OW   93   0.122   0.643   0.563
   24SOL    HW1   94   0.077   0.555   0.580
   24SOL    HW2   95   0.121   0.697   0.647
   25SOL     OW   96   1.842   1.767   0.359
   25SOL    HW1   97   1.896   1.738   0.439
   25SOL    HW2   98   1.872   1.857   0.330
   26SOL     OW   99   0.027   1.596   0.117
   26SOL    HW1  100   0.008   1.500   0.138
   26SOL    HW2  101  -0.006   1.654   0.192
   27SOL     OW  102   1.689   0.922   0.612
   27SOL    HW1  103   1.784   0.893   0.620
   27SOL    HW2  104   1.681   0.987   0.537
   28SOL     OW  105   1.641   1.108   0.432
   28SOL    HW1  106   1.727   1.110   0.380
   28SOL    HW2  107   1.655   1.155   0.520
   29SOL     OW  108   0.113   0.737   1.597
   29SOL    HW1  109   0.201   0.724   1.642
   29SOL    HW2  110   0.100   0.834   1.575
   30SOL     OW  111   0.613   1.365   0.726
   30SOL    HW1  112   0.564   1.278   0.735
   30SOL    HW2  113   0.590   1.408   0.639
   31SOL     OW  114   1.293   1.228   1.423
   31SOL    HW1  115   1.330   1.155   1.365
   31SOL    HW2  116   1.345   1.233   1.508
   32SOL     OW  117   0.809   0.004   0.502
   32SOL    HW1  118   0.849   0.095   0.493
   32SOL    HW2  119   0.709   0.012   0.508
   33SOL     OW  120   0.197   0.976   1.264
   33SOL    HW1  121   0.286   0.931   1.250
   33SOL    HW2  122   0.124   0.911   1.245
   34SOL     OW  123   1.525   0.999   0.190
   34SOL    HW1  124   1.462   0.923   0.203
   34SOL    HW2  125   1.573   1.017   0.276
   35SOL     OW  126   1.187   1.792   1.616
   35SOL    HW1  127   1.211   1.852   1.540
   35SOL    HW2  128   1.194   1.697   1.586
   36SOL     OW  129   0.317   0.251   1.801
   36SOL    HW1  130   0.388   0.322   1.807
   36SOL    HW2  131   0.229   0.290   1.829
   37SOL     OW  132   1.466   1.417   0.953
   37SOL    HW1  133   1.407   1.423   1.033
   37SOL    HW2  134   1.451   1.329   0.907
   38SOL     OW  135   1.667   1.714   0.572
   38SOL    HW1  136   1.626   1.691   0.484
   38SOL    HW2  137   1.649   1.640   0.637
   39SOL     OW  138   0.598   0.729   0.270
   39SOL    HW1  139   0.622   0.798   0.202
   39SOL    HW2  140   0.520   0.762   0.324
   40SOL     OW  141   1.281   0.345   0.944
   40SOL    HW1  142   1.195   0.295   0.931
   40SOL    HW2  143   1.343   0.291   1.000
   41SOL     OW  144   1.576   1.662   0.307
   41SOL    HW1  145   1.665   1.708   0.310
   41SOL    HW2  146   1.555   1.638   0.212
   42SOL     OW  147   0.807   0.605   1.465
   42SOL    HW1  148   0.760   0.602   1.554
   42SOL    HW2  149   0.756   0.550   1.399
   43SOL     OW  150   1.394   0.469   1.674
   43SOL    HW1  151   1.374   0.512   1.762
   43SOL    HW2  152   1.472   0.407   1.683
   44SOL     OW  153   0.973   0.890   1.572
   44SOL    HW1  154   1.019   0.806   1.543
   44SOL    HW2  155   0.917   0.924   1.497
   45SOL     OW  156   0.991   0.410   1.242
   45SOL    HW1  157   0.914   0.444   1.296
   45SOL    HW2  158   0.957   0.359   1.163
   46SOL     OW  159   1.041   0.701   0.429
   46SOL    HW1  160   1.067   0.697   0.525
   46SOL    HW2  161   0.956   0.650   0.415
   47SOL     OW  162   0.076   0.811   0.789
   47SOL    HW1  163   0.175   0.799   0.798
   47SOL    HW2  164   0.052   0.906   0.810
   48SOL     OW  165   0.130   1.821   1.571
   48SOL    HW1  166   0.120   1.806   1.670
   48SOL    HW2  167   0.044   1.857   1.535
   49SOL     OW  168   0.865   0.348   0.195
   49SOL    HW1  169   0.924   0.411   0.146
   49SOL    HW2  170   0.884   0.254   0.166
   50SOL     OW  171   1.719   0.585   1.831
   50SOL    HW1  172   1.693   0.674   1.795
   50SOL    HW2  173   1.717   0.517   1.758
   51SOL     OW  174   1.362   1.144   0.545
   51SOL    HW1  175   1.445   1.115   0.497
   51SOL    HW2  176   1.313   1.211   0.489
   52SOL     OW  177   0.550   0.196   0.885
   52SOL    HW1  178   0.545   0.191   0.985
   52SOL    HW2  179   0.552   0.292   0.856
   53SOL     OW  180   1.008   1.456   0.477
   53SOL    HW1  181   0.962   1.528   0.425
   53SOL    HW2  182   1.004   1.476   0.575
   54SOL     OW  183   0.351   1.801   0.853
   54SOL    HW1  184   0.401   1.715   0.859
   54SOL    HW2  185   0.416   1.878   0.850
   55SOL     OW  186   1.795   1.066   0.873
   55SOL    HW1  187   1.733   1.051   0.797
   55SOL    HW2  188   1.743   1.077   0.958
   56SOL     OW  189   1.227   1.550   1.506
   56SOL    HW1  190   1.233   1.473   1.570
   56SOL    HW2  191   1.175   1.524   1.426
   57SOL     OW  192   0.321   0.943   0.242
   57SOL    HW1  193   0.403   0.982   0.200
   57SOL    HW2  194   0.294   0.861   0.193
   58SOL     OW  195   1.458   0.735   0.728
   58SOL    HW1  196   1.453   0.670   0.803
   58SOL    HW2  197   1.538   0.794   0.741
   59SOL     OW  198   0.461   1.266   1.727
   59SOL    HW1  199   0.411   1.267   1.641
   59SOL    HW2  200   0.398   1.248   1.803
   60SOL     OW  201   1.111   1.776   0.237
   60SOL    HW1  202   1.051   1.714   0.287
   60SOL    HW2  203   1.142   1.732   0.152
   61SOL     OW  204   0.202   0.285   1.498
   61SOL    HW1  205   0.122   0.345   1.485
   61SOL    HW2  206   0.192   0.236   1.584
   62SOL     OW  207   1.632   1.377   0.081
   62SOL    HW1  208   1.600   1.471   0.071
   62SOL    HW2  209   1.556   1.314   0.069
   63SOL     OW  210   0.464   1.743   0.323
   63SOL    HW1  211   0.497   1.782   0.409
   63SOL    HW2  212   0.540   1.736   0.258
   64SOL     OW  213   1.400   0.107   0.426
   64SOL    HW1  214   1.376   0.070   0.336
   64SOL    HW2  215   1.499   0.123   0.430
   65SOL     OW  216   0.249   1.785   1.241
   65SOL    HW1  217   0.306   1.720   1.291
   65SOL    HW2  218   0.233   1.752   1.148
   66SOL     OW  219   0.940   1.698   0.904
   66SOL    HW1  220   1.020   1.641   0.925
   66SOL    HW2  221   0.891   1.658   0.827
   67SOL     OW  222   0.382   0.700   0.480
   67SOL    HW1  223   0.427   0.610   0.477
   67SOL    HW2  224   0.288   0.689   0.513
   68SOL     OW  225   1.547   0.222   1.729
   68SOL    HW1  226   1.542   0.259   1.821
   68SOL    HW2  227   1.475   0.153   1.717
   69SOL     OW  228   0.614   0.122   0.117
   69SOL    HW1  229   0.712   0.100   0.124
   69SOL    HW2  230   0.583   0.105   0.024
   70SOL     OW  231   0.781   0.264   1.749
   70SOL    HW1  232   0.848   0.203   1.792
   70SOL    HW2  233   0.708   0.283   1.814
   71SOL     OW  234   0.888   1.514   1.195
   71SOL    HW1  235   0.865   1.489   1.101
   71SOL    HW2  236   0.949   1.445   1.234
   72SOL     OW  237   1.351   0.590   1.433
   72SOL    HW1  238   1.379   0.547   1.518
   72SOL    HW2  239   1.376   0.686   1.434
   73SOL     OW  240   0.803   1.402   0.924
   73SOL    HW1  241   0.893   1.416   0.882
   73SOL    HW2  242   0.732   1.404   0.853
   74SOL     OW  243   0.922   0.503   0.899
   74SOL    HW1  244   0.897   0.494   0.803
   74SOL    HW2  245   0.970   0.421   0.930
   75SOL     OW  246   0.539   0.064   0.512
   75SOL    HW1  247   0.458   0.065   0.570
   75SOL    HW2  248   0.542   0.147   0.457
   76SOL     OW  249   1.434   1.188   0.041
   76SOL    HW1  250   1.466   1.112   0.098
   76SOL    HW2  251   1.342   1.215   0.071
   77SOL     OW  252   0.297   0.035   0.171
   77SOL    HW1  253   0.346   0.119   0.150
   77SOL    HW2  254   0.359  -0.030   0.216
   78SOL     OW  255   0.935   0.236   0.480
   78SOL    HW1  256   0.887   0.277   0.402
   78SOL    HW2  257   1.034   0.234   0.461
   79SOL     OW  258   1.076   0.683   1.464
   79SOL    HW1  259   0.996   0.622   1.467
   79SOL    HW2  260   1.157   0.630   1.440
   80SOL     OW  261   1.227   1.570   0.793
   80SOL    HW1  262   1.248   1.644   0.728
   80SOL    HW2  263   1.295   1.570   0.866
   81SOL     OW  264   0.459   1.152   0.741
   81SOL    HW1  265   0.388   1.125   0.806
   81SOL    HW2  266   0.433   1.124   0.648
   82SOL     OW  267   1.271   1.797   0.591
   82SOL    HW1  268   1.315   1.861   0.527
   82SOL    HW2  269   1.221   1.849   0.661
   83SOL     OW  270   1.032   0.549   0.016
   83SOL    HW1  271   0.991   0.631  -0.023
   83SOL    HW2  272   1.096   0.575   0.089
   84SOL     OW  273   0.078   0.556   1.386
   84SOL    HW1  274   0.170   0.555   1.345
   84SOL    HW2  275   0.072   0.630   1.453
   85SOL     OW  276   0.561   0.222   1.147
   85SOL    HW1  277   0.599   0.138   1.184
   85SOL    HW2  278   0.473   0.241   1.191
   86SOL     OW  279   0.866   0.454   0.642
   86SOL    HW1  280   0.834   0.526   0.580
   86SOL    HW2  281   0.890   0.373   0.589
   87SOL     OW  282   1.017   0.039   0.753
   87SOL    HW1  283   0.945   0.044   0.684
   87SOL    HW2  284   0.993  -0.030   0.822
   88SOL     OW  285   1.429   1.173   0.867
   88SOL    HW1  286   1.374   1.089   0.860
   88SOL    HW2  287   1.455   1.202   0.775
   89SOL     OW  288   1.466   0.590   0.992
   89SOL    HW1  289   1.436   0.495   0.999
   89SOL    HW2  290   1.539   0.606   1.058
   90SOL     OW  291   1.857   0.833   0.377
   90SOL    HW1  292   1.899   0.769   0.441
   90SOL    HW2  293   1.819   0.782   0.299
   91SOL     OW  294   0.488   1.385   0.174
   91SOL    HW1  295   0.401   1.370   0.221
   91SOL    HW2  296   0.471   1.411   0.079
   92SOL     OW  297   1.664   1.280   0.657
   92SOL    HW1  298   1.763   1.288   0.671
   92SOL    HW2  299   1.619   1.364   0.688
   93SOL     OW  300   1.390   0.575   0.078
   93SOL    HW1  301   1.336   0.554   0.159
   93SOL    HW2  302   1.481   0.534   0.087
   94SOL     OW  303   0.527   0.256   0.328
   94SOL    HW1  304   0.554   0.197   0.253
   94SOL    HW2  305   0.527   0.351   0.297
   95SOL     OW  306   1.754   1.223   1.588
   95SOL    HW1  307   1.845   1.184   1.575
   95SOL    HW2  308   1.762   1.319   1.612
   96SOL     OW  309   1.064   1.347   1.340
   96SOL    HW1  310   0.984   1.324   1.395
   96SOL    HW2  311   1.147   1.321   1.389
   97SOL     OW  312   1.592   1.629   1.625
   97SOL    HW1  313   1.619   1.663   1.535
   97SOL    HW2  314   1.671   1.591   1.671
   98SOL     OW  315   1.111   1.195   1.100
   98SOL    HW1  316   1.071   1.239   1.181
   98SOL    HW2  317   1.070   1.232   1.017
   99SOL     OW  318   1.638   1.099   1.079
   99SOL    HW1  319   1.643   1.180   1.138
   99SOL    HW2  320   1.552   1.101   1.028
  100SOL     OW  321   0.915   0.089   1.402
  100SOL    HW1  322   0.940   0.069   1.307
  100SOL    HW2  323   0.987   0.145   1.444
  101SOL     OW  324   0.980   1.116   1.719
  101SOL    HW1  325   0.881   1.122   1.729
  101SOL    HW2  326   1.003   1.036   1.663
  102SOL     OW  327   0.705   1.050   0.368
  102SOL    HW1  328   0.691   1.057   0.467
  102SOL    HW2  329   0.789   0.999   0.350
  103SOL     OW  330   0.410   0.813   1.251
  103SOL    HW1  331   0.496   0.825   1.301
  103SOL    HW2  332   0.368   0.726   1.278
  104SOL     OW  333   1.274   0.386   1.262
  104SOL    HW1  334   1.295   0.460   1.326
  104SOL    HW2  335   1.185   0.403   1.219
  105SOL     OW  336   0.064   1.564   1.331
  105SOL    HW1  337   0.018   1.646   1.297
  105SOL    HW2  338   0.162   1.583   1.340
  106SOL     OW  339   0.367   1.100   0.501
  106SOL    HW1  340   0.360   1.183   0.445
  106SOL    HW2  341   0.371   1.020   0.441
  107SOL     OW  342   0.566   0.537   0.865
  107SOL    HW1  343   0.578   0.603   0.791
  107SOL    HW2  344   0.612   0.571   0.948
  108SOL     OW  345   1.252   1.348   0.388
  108SOL    HW1  346   1.302   1.425   0.428
  108SOL    HW2  347   1.157   1.350   0.420
  109SOL     OW  348   1.272   1.445   1.142
  109SOL    HW1  349   1.319   1.458   1.229
  109SOL    HW2  350   1.206   1.371   1.151
  110SOL     OW  351   1.582   0.639   0.472
  110SOL    HW1  352   1.551   0.700   0.545
  110SOL    HW2  353   1.632   0.691   0.403
  111SOL     OW  354   0.354   1.510   1.329
  111SOL    HW1  355   0.333   1.466   1.242
  111SOL    HW2  356   0.451   1.536   1.332
  112SOL     OW  357   0.402   0.751   1.598
  112SOL    HW1  358   0.470   0.806   1.551
  112SOL    HW2  359   0.442   0.663   1.625
  113SOL     OW  360   1.587   0.779   1.670
  113SOL    HW1  361   1.495   0.817   1.665
  113SOL    HW2  362   1.647   0.826   1.605
  114SOL     OW  363   1.013   0.105   1.770
  114SOL    HW1  364   1.019   0.190   1.718
  114SOL    HW2  365   1.045   0.029   1.713
  115SOL     OW  366   0.504   0.050   1.740
  115SOL    HW1  367   0.462  -0.007   1.670
  115SOL    HW2  368   0.438   0.119   1.772
  116SOL     OW  369   0.573   0.870   1.029
  116SOL    HW1  370   0.617   0.959   1.020
  116SOL    HW2  371   0.510   0.870   1.106
  117SOL     OW  372   1.360   0.862   1.045
  117SOL    HW1  373   1.285   0.862   0.979
  117SOL    HW2  374   1.397   0.770   1.054
  118SOL     OW  375   1.209   0.525   0.275
  118SOL    HW1  376   1.222   0.441   0.329
  118SOL    HW2  377   1.180   0.599   0.335
  119SOL     OW  378   0.307   0.213   1.231
  119SOL    HW1  379   0.284   0.250   1.321
  119SOL    HW2  380   0.277   0.118   1.225
  120SOL     OW  381   0.037   1.310   1.282
  120SOL    HW1  382   0.090   1.261   1.350
  120SOL    HW2  383   0.059   1.408   1.287
  121SOL     OW  384   0.732   0.634   1.064
  121SOL    HW1  385   0.791   0.608   0.988
  121SOL    HW2  386   0.704   0.730   1.053
  122SOL     OW  387   1.728   0.935   1.854
  122SOL    HW1  388   1.682   0.928   1.765
  122SOL    HW2  389   1.666   0.979   1.920
  123SOL     OW  390   0.307   0.063   0.618
  123SOL    HW1  391   0.296   0.157   0.651
  123SOL    HW2  392   0.302   0.000   0.695
  124SOL     OW  393   1.622   0.367   0.374
  124SOL    HW1  394   1.624   0.291   0.438
  124SOL    HW2  395   1.574   0.444   0.414
  125SOL     OW  396   1.023   0.766   0.966
  125SOL    HW1  397   1.038   0.787   1.062
  125SOL    HW2  398   0.993   0.671   0.957
  126SOL     OW  399   0.980   1.573   1.700
  126SOL    HW1  400   0.960   1.617   1.612
  126SOL    HW2  401   1.019   1.482   1.684
  127SOL     OW  402   1.859   1.518   1.605
  127SOL    HW1  403   1.873   1.545   1.510
  127SOL    HW2  404   1.942   1.540   1.658
  128SOL     OW  405   0.350   0.898   1.804
  128SOL    HW1  406   0.426   0.942   1.852
  128SOL    HW2  407   0.385   0.851   1.722
  129SOL     OW  408   1.540   0.274   0.125
  129SOL    HW1  409   1.479   0.199   0.148
  129SOL    HW2  410   1.562   0.326   0.208
  130SOL     OW  411   1.303   0.838   0.042
  130SOL    HW1  412   1.337   0.745   0.057
  130SOL    HW2  413   1.321   0.865  -0.053
  131SOL     OW  414   1.068   1.333   0.849
  131SOL    HW1  415   1.075   1.249   0.794
  131SOL    HW2  416   1.130   1.402   0.813
  132SOL     OW  417   0.319   0.810   0.949
  132SOL    HW1  418   0.412   0.846   0.954
  132SOL    HW2  419   0.313   0.725   1.001
  133SOL     OW  420   0.339   0.509   1.006
  133SOL    HW1  421   0.287   0.426   0.989
  133SOL    HW2  422   0.416   0.514   0.942
  134SOL     OW  423   1.138   0.380   1.678
  134SOL    HW1  424   1.093   0.443   1.742
  134SOL    HW2  425   1.231   0.411   1.661
  135SOL     OW  426   1.160   0.207   1.477
  135SOL    HW1  427   1.160   0.271   1.554
  135SOL    HW2  428   1.188   0.255   1.394
  136SOL     OW  429   0.008   1.326   0.200
  136SOL    HW1  430  -0.085   1.347   0.169
  136SOL    HW2  431   0.018   1.227   0.213
  137SOL     OW  432   0.088   1.801   0.927
  137SOL    HW1  433   0.046   1.715   0.900
  137SOL    HW2  434   0.182   1.804   0.893
  138SOL     OW  435   0.504   1.568   0.910
  138SOL    HW1  436   0.570   1.642   0.919
  138SOL    HW2  437   0.548   1.489   0.868
  139SOL     OW  438   1.002   0.796   1.238
  139SOL    HW1  439   1.043   0.764   1.324
  139SOL    HW2  440   0.906   0.769   1.235
  140SOL     OW  441   0.040   0.544   1.114
  140SOL    HW1  442   0.125   0.511   1.073
  140SOL    HW2  443   0.053   0.559   1.212
  141SOL     OW  444   0.189   0.520   1.722
  141SOL    HW1  445   0.248   0.480   1.652
  141SOL    HW2  446   0.131   0.591   1.681
  142SOL     OW  447   1.369   0.950   1.660
  142SOL    HW1  448   1.408   1.039   1.680
  142SOL    HW2  449   1.379   0.930   1.563
  143SOL     OW  450   0.815   0.572   0.325
  143SOL    HW1  451   0.822   0.483   0.279
  143SOL    HW2  452   0.721   0.606   0.317
  144SOL     OW  453   1.657   0.604   1.206
  144SOL    HW1  454   1.619   0.535   1.268
  144SOL    HW2  455   1.739   0.568   1.162
  145SOL     OW  456   0.252   1.564   1.744
  145SOL    HW1  457   0.222   1.621   1.820
  145SOL    HW2  458   0.245   1.467   1.770
  146SOL     OW  459   0.671   0.464   1.269
  146SOL    HW1  460   0.637   0.375   1.239
  146SOL    HW2  461   0.697   0.518   1.189
  147SOL     OW  462   0.930   1.678   1.465
  147SOL    HW1  463   0.906   1.660   1.370
  147SOL    HW2  464   0.960   1.772   1.475
  148SOL     OW  465   0.473   0.500   0.191
  148SOL    HW1  466   0.534   0.580   0.195
  148SOL    HW2  467   0.378   0.531   0.198
  149SOL     OW  468   0.159   1.137   1.466
  149SOL    HW1  469   0.181   1.076   1.542
  149SOL    HW2  470   0.169   1.088   1.380
  150SOL     OW  471   1.347   1.059   1.234
  150SOL    HW1  472   1.371   0.996   1.160
  150SOL    HW2  473   1.257   1.099   1.216
  151SOL     OW  474   1.302   0.855   0.309
  151SOL    HW1  475   1.216   0.824   0.351
  151SOL    HW2  476   1.298   0.841   0.210
  152SOL     OW  477   1.759   1.747   1.154
  152SOL    HW1  478   1.820   1.777   1.081
  152SOL    HW2  479   1.721   1.658   1.132
  153SOL     OW  480   1.252   1.731   1.128
  153SOL    HW1  481   1.336   1.736   1.074
  153SOL    HW2  482   1.229   1.635   1.146
  154SOL     OW  483   0.083   1.258   1.022
  154SOL    HW1  484   0.078   1.257   1.122
  154SOL    HW2  485   0.000   1.217   0.984
  155SOL     OW  486   0.688   1.662   1.716
  155SOL    HW1  487   0.632   1.743   1.725
  155SOL    HW2  488   0.740   1.666   1.630
  156SOL     OW  489   0.903   0.086   0.133
  156SOL    HW1  490   0.954   0.087   0.047
  156SOL    HW2  491   0.959   0.044   0.204
  157SOL     OW  492   1.726   0.135   0.523
  157SOL    HW1  493   1.799   0.118   0.456
  157SOL    HW2  494   1.695   0.048   0.561
  158SOL     OW  495   1.388   1.573   0.477
  158SOL    HW1  496   1.455   1.585   0.403
  158SOL    HW2  497   1.348   1.662   0.500
  159SOL     OW  498   0.130   1.794   1.851
  159SOL    HW1  499   0.089   1.720   1.904
  159SOL    HW2  500   0.194   1.845   1.909
  160SOL     OW  501   1.280   0.927   0.672
  160SOL    HW1  502   1.340   0.846   0.674
  160SOL    HW2  503   1.320   0.996   0.612
  161SOL     OW  504   0.830   1.273   1.422
  161SOL    HW1  505   0.825   1.306   1.517
  161SOL    HW2  506   0.744   1.292   1.376
  162SOL     OW  507   0.672   1.616   0.154
  162SOL    HW1  508   0.681   1.626   0.055
  162SOL    HW2  509   0.632   1.527   0.175
  163SOL     OW  510   1.650   1.720   1.394
  163SOL    HW1  511   1.703   1.730   1.310
  163SOL    HW2  512   1.623   1.810   1.428
  164SOL     OW  513   1.841   0.175   0.963
  164SOL    HW1  514   1.880   0.090   0.927
  164SOL    HW2  515   1.743   0.177   0.944
  165SOL     OW  516   0.263   0.326   0.720
  165SOL    HW1  517   0.184   0.377   0.686
  165SOL    HW2  518   0.254   0.311   0.818
  166SOL     OW  519   1.194   1.612   0.031
  166SOL    HW1  520   1.200   1.519   0.068
  166SOL    HW2  521   1.135   1.612  -0.049
  167SOL     OW  522   0.822   1.002   1.372
  167SOL    HW1  523   0.862   1.001   1.280
  167SOL    HW2  524   0.832   1.094   1.412
  168SOL     OW  525   0.916   0.910   0.291
  168SOL    HW1  526   0.979   0.948   0.223
  168SOL    HW2  527   0.956   0.827   0.330
  169SOL     OW  528   1.504   1.607   0.044
  169SOL    HW1  529   1.412   1.644   0.051
  169SOL    HW2  530   1.542   1.627  -0.046
  170SOL     OW  531   0.372   1.288   1.490
  170SOL    HW1  532   0.359   1.381   1.456
  170SOL    HW2  533   0.288   1.236   1.477
  171SOL     OW  534   1.614   1.292   1.289
  171SOL    HW1  535   1.674   1.295   1.369
  171SOL    HW2  536   1.539   1.356   1.302
  172SOL     OW  537   1.039   1.098   0.696
  172SOL    HW1  538   0.969   1.051   0.750
  172SOL    HW2  539   1.098   1.030   0.653
  173SOL     OW  540   1.014   0.236   0.971
  173SOL    HW1  541   1.006   0.200   0.878
  173SOL    HW2  542   1.012   0.160   1.036
  174SOL     OW  543   0.590   1.487   0.491
  174SOL    HW1  544   0.632   1.429   0.421
  174SOL    HW2  545   0.546   1.566   0.447
  175SOL     OW  546   1.709   0.385   1.381
  175SOL    HW1  547   1.782   0.454   1.385
  175SOL    HW2  548   1.737   0.310   1.322
  176SOL     OW  549   0.255   1.348   0.290
  176SOL    HW1  550   0.159   1.349   0.263
  176SOL    HW2  551   0.267   1.401   0.374
  177SOL     OW  552   0.105   1.013   1.726
  177SOL    HW1  553   0.028   0.980   1.780
  177SOL    HW2  554   0.190   0.983   1.768
  178SOL     OW  555   0.672   0.203   1.489
  178SOL    HW1  556   0.762   0.187   1.449
  178SOL    HW2  557   0.680   0.208   1.588
  179SOL     OW  558   0.075   0.345   0.033
  179SOL    HW1  559  -0.017   0.317   0.004
  179SOL    HW2  560   0.106   0.422  -0.023
  180SOL     OW  561   1.440   0.856   1.398
  180SOL    HW1  562   1.383   0.908   1.335
  180SOL    HW2  563   1.536   0.868   1.374
  181SOL     OW  564   0.072   0.166   0.318
  181SOL    HW1  565   0.055   0.249   0.264
  181SOL    HW2  566   0.162   0.129   0.296
  182SOL     OW  567   1.183   1.335   0.119
  182SOL    HW1  568   1.084   1.324   0.121
  182SOL    HW2  569   1.217   1.350   0.212
  183SOL     OW  570   0.613   0.842   1.431
  183SOL    HW1  571   0.669   0.923   1.414
  183SOL    HW2  572   0.672   0.762   1.434
  184SOL     OW  573   1.493   1.767   0.959
  184SOL    HW1  574   1.526   1.831   0.890
  184SOL    HW2  575   1.559   1.761   1.034
  185SOL     OW  576   0.716   0.565   1.708
  185SOL    HW1  577   0.735   0.630   1.782
  185SOL    HW2  578   0.776   0.485   1.717
  186SOL     OW  579   1.450   1.220   1.633
  186SOL    HW1  580   1.441   1.210   1.732
  186SOL    HW2  581   1.546   1.213   1.607
  187SOL     OW  582   0.390   1.741   1.560
  187SOL    HW1  583   0.299   1.782   1.558
  187SOL    HW2  584   0.383   1.647   1.592
  188SOL     OW  585   1.674   0.883   1.254
  188SOL    HW1  586   1.647   0.794   1.217
  188SOL    HW2  587   1.675   0.951   1.181
  189SOL     OW  588   1.225   0.325   0.449
  189SOL    HW1  589   1.290   0.251   0.438
  189SOL    HW2  590   1.245   0.375   0.533
  190SOL     OW  591   0.594   0.745   0.652
  190SOL    HW1  592   0.644   0.830   0.633
  190SOL    HW2  593   0.506   0.747   0.604
  191SOL     OW  594   1.777   0.342   1.642
  191SOL    HW1  595   1.760   0.373   1.548
  191SOL    HW2  596   1.693   0.305   1.680
  192SOL     OW  597   1.730   0.934   1.517
  192SOL    HW1  598   1.768   1.025   1.532
  192SOL    HW2  599   1.722   0.917   1.418
  193SOL     OW  600   0.859   1.374   0.016
  193SOL    HW1  601   0.813   1.389   0.104
  193SOL    HW2  602   0.903   1.459  -0.014
  194SOL     OW  603   0.661   1.790   0.953
  194SOL    HW1  604   0.615   1.878   0.940
  194SOL    HW2  605   0.760   1.802   0.946
  195SOL     OW  606   0.859   0.956   0.861
  195SOL    HW1  607   0.913   0.887   0.909
  195SOL    HW2  608   0.827   1.025   0.927
  196SOL     OW  609   1.083   0.984   0.087
  196SOL    HW1  610   1.060   1.037   0.005
  196SOL    HW2  611   1.164   0.928   0.068
  197SOL     OW  612   1.861   1.569   0.851
  197SOL    HW1  613   1.790   1.557   0.781
  197SOL    HW2  614   1.862   1.490   0.911
  198SOL     OW  615   0.221   1.314   1.844
  198SOL    HW1  616   0.156   1.241   1.823
  198SOL    HW2  617   0.225   1.328   1.942
  199SOL     OW  618   0.079   1.240   0.653
  199SOL    HW1  619   0.078   1.193   0.741
  199SOL    HW2  620   0.161   1.212   0.602
  200SOL     OW  621   0.672   1.391   1.624
  200SOL    HW1  622   0.594   1.341   1.662
  200SOL    HW2  623   0.669   1.486   1.655
  201SOL     OW  624   1.824   0.192   1.227
  201SOL    HW1  625   1.820   0.102   1.271
  201SOL    HW2  626   1.827   0.181   1.128
  202SOL     OW  627   0.428   0.424   0.520
  202SOL    HW1  628   0.458   0.352   0.458
  202SOL    HW2  629   0.389   0.384   0.603
  203SOL     OW  630   1.705   1.487   1.104
  203SOL    HW1  631   1.612   1.462   1.077
  203SOL    HW2  632   1.731   1.437   1.186
  204SOL     OW  633   0.317   0.547   1.280
  204SOL    HW1  634   0.355   0.488   1.352
  204SOL    HW2  635   0.357   0.521   1.192
  205SOL     OW  636   0.812   1.586   0.687
  205SOL    HW1  637   0.844   1.596   0.593
  205SOL    HW2  638   0.733   1.524   0.689
  206SOL     OW  639   1.424   0.214   1.112
  206SOL    HW1  640   1.476   0.149   1.167
  206SOL    HW2  641   1.375   0.277   1.173
  207SOL     OW  642   1.001   0.034   1.154
  207SOL    HW1  643   0.938  -0.038   1.123
  207SOL    HW2  644   1.094  -0.002   1.154
  208SOL     OW  645   0.770   1.330   0.301
  208SOL    HW1  646   0.724   1.243   0.318
  208SOL    HW2  647   0.861   1.327   0.342
  209SOL     OW  648   0.618   1.567   1.284
  209SOL    HW1  649   0.613   1.649   1.341
  209SOL    HW2  650   0.707   1.564   1.239
  210SOL     OW  651   1.352   0.052   0.168
  210SOL    HW1  652   1.387   0.011   0.084
  210SOL    HW2  653   1.262   0.014   0.188
  211SOL     OW  654   1.300   0.453   0.691
  211SOL    HW1  655   1.241   0.533   0.695
  211SOL    HW2  656   1.315   0.418   0.784
  212SOL     OW  657   1.593   0.221   0.882
  212SOL    HW1  658   1.509   0.220   0.936
  212SOL    HW2  659   1.595   0.304   0.826
  213SOL     OW  660   0.039   1.077   0.300
  213SOL    HW1  661   0.138   1.066   0.291
  213SOL    HW2  662  -0.001   0.991   0.332
  214SOL     OW  663   0.875   1.646   0.337
  214SOL    HW1  664   0.798   1.611   0.283
  214SOL    HW2  665   0.843   1.717   0.399
  215SOL     OW  666   0.230   0.628   1.975
  215SOL    HW1  667   0.137   0.626   2.012
  215SOL    HW2  668   0.231   0.589   1.883
  216SOL     OW  669   0.225   0.275   2.858
  216SOL    HW1  670   0.260   0.258   2.950
  216SOL    HW2  671   0.137   0.230   2.846
  217SOL     OW  672   0.019   0.368   2.509
  217SOL    HW1  673  -0.063   0.411   2.548
  217SOL    HW2  674  -0.009   0.295   2.446
  218SOL     OW  675   0.569   1.275   3.027
  218SOL    HW1  676   0.476   1.268   2.990
  218SOL    HW2  677   0.580   1.364   3.071
  219SOL     OW  678   1.555   1.511   2.565
  219SOL    HW1  679   1.498   1.495   2.646
  219SOL    HW2  680   1.496   1.521   2.485
  220SOL     OW  681   1.135   0.703   2.579
  220SOL    HW1  682   1.192   0.781   2.554
  220SOL    HW2  683   1.075   0.729   2.655
  221SOL     OW  684   1.755   0.607   2.093
  221SOL    HW1  685   1.743   0.594   1.994
  221SOL    HW2  686   1.725   0.526   2.142
  222SOL     OW  687   0.768   1.144   2.885
  222SOL    HW1  688   0.690   1.161   2.945
  222SOL    HW2  689   0.802   1.231   2.849
  223SOL     OW  690   0.850   0.798   3.685
  223SOL    HW1  691   0.846   0.874   3.750
  223SOL    HW2  692   0.872   0.834   3.594
  224SOL     OW  693   0.685   1.012   2.527
  224SOL    HW1  694   0.754   0.996   2.597
  224SOL    HW2  695   0.612   1.069   2.565
  225SOL     OW  696   0.686   1.161   3.665
  225SOL    HW1  697   0.746   1.240   3.679
  225SOL    HW2  698   0.600   1.192   3.624
  226SOL     OW  699   0.335   1.435   2.923
  226SOL    HW1  700   0.257   1.404   2.870
  226SOL    HW2  701   0.393   1.493   2.866
  227SOL     OW  702   1.460   1.505   3.201
  227SOL    HW1  703   1.484   1.599   3.227
  227SOL    HW2  704   1.444   1.451   3.283
  228SOL     OW  705   0.438   0.392   3.361
  228SOL    HW1  706   0.520   0.336   3.370
  228SOL    HW2  707   0.357   0.334   3.365
  229SOL     OW  708   1.603   0.447   2.599
  229SOL    HW1  709   1.529   0.493   2.549
  229SOL    HW2  710   1.654   0.515   2.652
  230SOL     OW  711   0.231   1.713   2.345
  230SOL    HW1  712   0.265   1.790   2.399
  230SOL    HW2  713   0.275   1.713   2.255
  231SOL     OW  714   1.127   1.341   3.552
  231SOL    HW1  715   1.174   1.341   3.640
  231SOL    HW2  716   1.079   1.254   3.541
  232SOL     OW  717   0.230   1.434   2.400
  232SOL    HW1  718   0.204   1.530   2.400
  232SOL    HW2  719   0.159   1.380   2.445
  233SOL     OW  720   0.240   1.091   2.748
  233SOL    HW1  721   0.254   1.007   2.800
  233SOL    HW2  722   0.185   1.155   2.803
  234SOL     OW  723   0.620   1.786   3.301
  234SOL    HW1  724   0.528   1.769   3.336
  234SOL    HW2  725   0.648   1.878   3.327
  235SOL     OW  726   0.606   0.964   1.985
  235SOL    HW1  727   0.613   1.048   1.931
  235SOL    HW2  728   0.652   0.977   2.073
  236SOL     OW  729   1.594   0.114   3.342
  236SOL    HW1  730   1.576   0.181   3.270
  236SOL    HW2  731   1.591   0.160   3.431
  237SOL     OW  732   0.122   0.643   2.425
  237SOL    HW1  733   0.077   0.555   2.442
  237SOL    HW2  734   0.121   0.697   2.509
  238SOL     OW  735   1.842   1.767   2.221
  238SOL    HW1  736   1.896   1.738   2.301
  238SOL    HW2  737   1.872   1.857   2.192
  239SOL     OW  738   0.027   1.596   1.979
  239SOL    HW1  739   0.008   1.500   2.000
  239SOL    HW2  740  -0.006   1.654   2.054
  240SOL     OW  741   1.689   0.922   2.474
  240SOL    HW1  742   1.784   0.893   2.482
  240SOL    HW2  743   1.681   0.987   2.399
  241SOL     OW  744   1.641   1.108   2.294
  241SOL    HW1  745   1.727   1.110   2.242
  241SOL    HW2  746   1.655   1.155   2.382
  242SOL     OW  747   0.113   0.737   3.459
  242SOL    HW1  748   0.201   0.724   3.504
  242SOL    HW2  749   0.100   0.834   3.437
  243SOL     OW  750   0.613   1.365   2.588
  243SOL    HW1  751   0.564   1.278   2.597
  243SOL    HW2  752   0.590   1.408   2.501
  244SOL     OW  753   1.293   1.228   3.285
  244SOL    HW1  754   1.330   1.155   3.227
  244SOL    HW2  755   1.345   1.233   3.370
  245SOL     OW  756   0.809   0.004   2.364
  245SOL    HW1  757   0.849   0.095   2.355
  245SOL    HW2  758   0.709   0.012   2.370
  246SOL     OW  759   0.197   0.976   3.126
  246SOL    HW1  760   0.286   0.931   3.112
  246SOL    HW2  761   0.124   0.911   3.107
  247SOL     OW  762   1.525   0.999   2.052
  247SOL    HW1  763   1.462   0.923   2.065
  247SOL    HW2  764   1.573   1.017   2.138
  248SOL     OW  765   1.187   1.792   3.478
  248SOL    HW1  766   1.211   1.852   3.402
  248SOL    HW2  767   1.194   1.697   3.448
  249SOL     OW  768   0.317   0.251   3.663
  249SOL    HW1  769   0.388   0.322   3.669
  249SOL    HW2  770   0.229   0.290   3.691
  250SOL     OW  771   1.466   1.417   2.815
  250SOL    HW1  772   1.407   1.423   2.895
  250SOL    HW2  773   1.451   1.329   2.769
  251SOL     OW  774   1.667   1.714   2.434
  251SOL    HW1  775   1.626   1.691   2.346
  251SOL    HW2  776   1.649   1.640   2.499
  252SOL     OW  777   0.598   0.729   2.132
  252SOL    HW1  778   0.622   0.798   2.064
  252SOL    HW2  779   0.520   0.762   2.186
  253SOL     OW  780   1.281   0.345   2.806
  253SOL    HW1  781   1.195   0.295   2.793
  253SOL    HW2  782   1.343   0.291   2.862
  254SOL     OW  783   1.576   1.662   2.169
  254SOL    HW1  784   1.665   1.708   2.172
  254SOL    HW2  785   1.555   1.638   2.074
  255SOL     OW  786   0.807   0.605   3.327
  255SOL    HW1  787   0.760   0.602   3.416
  255SOL    HW2  788   0.756   0.550   3.261
  256SOL     OW  789   1.394   0.469   3.536
  256SOL    HW1  790   1.374   0.512   3.624
  256SOL    HW2  791   1.472   0.407   3.545
  257SOL     OW  792   0.973   0.890   3.434
  257SOL    HW1  793   1.019   0.806   3.405
  257SOL    HW2  794   0.917   0.924   3.359
  258SOL     OW  795   0.991   0.410   3.104
  258SOL    HW1  796   0.914   0.444   3.158
  258SOL    HW2  797   0.957   0.359   3.025
  259SOL     OW  798   1.041   0.701   2.291
  259SOL    HW1  799   1.067   0.697   2.387
  259SOL    HW2  800   0.956   0.650   2.277
  260SOL     OW  801   0.076   0.811   2.651
  260SOL    HW1  802   0.175   0.799   2.660
  260SOL    HW2  803   0.052   0.906   2.672
  261SOL     OW  804   0.130   1.821   3.433
  261SOL    HW1  805   0.120   1.806   3.532
  261SOL    HW2  806   0.044   1.857   3.397
  262SOL     OW  807   0.865   0.348   2.057
  262SOL    HW1  808   0.924   0.411   2.008
  262SOL    HW2  809   0.884   0.254   2.028
  263SOL     OW  810   1.719   0.585   3.693
  263SOL    HW1  811   1.693   0.674   3.657
  263SOL    HW2  812   1.717   0.517   3.620
  264SOL     OW  813   1.362   1.144   2.407
  264SOL    HW1  814   1.445   1.115   2.359
  264SOL    HW2  815   1.313   1.211   2.351
  265SOL     OW  816   0.550   0.196   2.747
  265SOL    HW1  817   0.545   0.191   2.847
  265SOL    HW2  818   0.552   0.292   2.718
  266SOL     OW  819   1.008   1.456   2.339
  266SOL    HW1  820   0.962   1.528   2.287
  266SOL    HW2  821   1.004   1.476   2.437
  267SOL     OW  822   0.351   1.801   2.715
  267SOL    HW1  823   0.401   1.715   2.721
  267SOL    HW2  824   0.416   1.878   2.712
  268SOL     OW  825   1.795   1.066   2.735
  268SOL    HW1  826   1.733   1.051   2.659
  268SOL    HW2  827   1.743   1.077   2.820
  269SOL     OW  828   1.227   1.550   3.368
  269SOL    HW1  829   1.233   1.473   3.432
  269SOL    HW2  830   1.175   1.524   3.288
  270SOL     OW  831   0.321   0.943   2.104
  270SOL    HW1  832   0.403   0.982   2.062
  270SOL    HW2  833   0.294   0.861   2.055
  271SOL     OW  834   1.458   0.735   2.590
  271SOL    HW1  835   1.453   0.670   2.665
  271SOL    HW2  836   1.538   0.794   2.603
  272SOL     OW  837   0.461   1.266   3.589
  272SOL    HW1  838   0.411   1.267   3.503
  272SOL    HW2  839   0.398   1.248   3.665
  273SOL     OW  840   1.111   1.776   2.099
  273SOL    HW1  841   1.051   1.714   2.149
  273SOL    HW2  842   1.142   1.732   2.014
  274SOL     OW  843   0.202   0.285   3.360
  274SOL    HW1  844   0.122   0.345   3.347
  274SOL    HW2  845   0.192   0.236   3.446
  275SOL     OW  846   1.632   1.377   1.943
  275SOL    HW1  847   1.600   1.471   1.933
  275SOL    HW2  848   1.556   1.314   1.931
  276SOL     OW  849   0.464   1.743   2.185
  276SOL    HW1  850   0.497   1.782   2.271
  276SOL    HW2  851   0.540   1.736   2.120
  277SOL     OW  852   1.400   0.107   2.288
  277SOL    HW1  853   1.376   0.070   2.198
  277SOL    HW2  854   1.499   0.123   2.292
  278SOL     OW  855   0.249   1.785   3.103
  278SOL    HW1  856   0.306   1.720   3.153
  278SOL    HW2  857   0.233   1.752   3.010
  279SOL     OW  858   0.940   1.698   2.766
  279SOL    HW1  859   1.020   1.641   2.787
  279SOL    HW2  860   0.891   1.658   2.689
  280SOL     OW  861   0.382   0.700   2.342
  280SOL    HW1  862   0.427   0.610   2.339
  280SOL    HW2  863   0.288   0.689   2.375
  281SOL     OW  864   1.547   0.222   3.591
  281SOL    HW1  865   1.542   0.259   3.683
  281SOL    HW2  866   1.475   0.153   3.579
  282SOL     OW  867   0.614   0.122   1.979
  282SOL    HW1  868   0.712   0.100   1.986
  282SOL    HW2  869   0.583   0.105   1.886
  283SOL     OW  870   0.781   0.264   3.611
  283SOL    HW1  871   0.848   0.203   3.654
  283SOL    HW2  872   0.708   0.283   3.676
  284SOL     OW  873   0.888   1.514   3.057
  284SOL    HW1  874   0.865   1.489   2.963
  284SOL    HW2  875   0.949   1.445   3.096
  285SOL     OW  876   1.351   0.590   3.295
  285SOL    HW1  877   1.379   0.547   3.380
  285SOL    HW2  878   1.376   0.686   3.296
  286SOL     OW  879   0.803   1.402   2.786
  286SOL    HW1  880   0.893   1.416   2.744
  286SOL    HW2  881   0.732   1.404   2.715
  287SOL     OW  882   0.922   0.503   2.761
  287SOL    HW1  883   0.897   0.494   2.665
  287SOL    HW2  884   0.970   0.421   2.792
  288SOL     OW  885   0.539   0.064   2.374
  288SOL    HW1  886   0.458   0.065   2.432
  288SOL    HW2  887   0.542   0.147   2.319
  289SOL     OW  888   1.434   1.188   1.903
  289SOL    HW1  889   1.466   1.112   1.960
  289SOL    HW2  890   1.342   1.215   1.933
  290SOL     OW  891   0.297   0.035   2.033
  290SOL    HW1  892   0.346   0.119   2.012
  290SOL    HW2  893   0.359  -0.030   2.078
  291SOL     OW  894   0.935   0.236   2.342
  291SOL    HW1  895   0.887   0.277   2.264
  291SOL    HW2  896   1.034   0.234   2.323
  292SOL     OW  897   1.076   0.683   3.326
  292SOL    HW1  898   0.996   0.622   3.329
  292SOL    HW2  899   1.157   0.630   3.302
  293SOL     OW  900   1.227   1.570   2.655
  293SOL    HW1  901   1.248   1.644   2.590
  293SOL    HW2  902   1.295   1.570   2.728
  294SOL     OW  903   0.459   1.152   2.603
  294SOL    HW1  904   0.388   1.125   2.668
  294SOL    HW2  905   0.433   1.124   2.510
  295SOL     OW  906   1.271   1.797   2.453
  295SOL    HW1  907   1.315   1.861   2.389
  295SOL    HW2  908   1.221   1.849   2.523
  296SOL     OW  909   1.032   0.549   1.878
  296SOL    HW1  910   0.991   0.631   1.839
  296SOL    HW2  911   1.096   0.575   1.951
  297SOL     OW  912   0.078   0.556   3.248
  297SOL    HW1  913   0.170   0.555   3.207
  297SOL    HW2  914   0.072   0.630   3.315
  298SOL     OW  915   0.561   0.222   3.009
  298SOL    HW1  916   0.599   0.138   3.046
  298SOL    HW2  917   0.473   0.241   3.053
  299SOL     OW  918   0.866   0.454   2.504
  299SOL    HW1  919   0.834   0.526   2.442
  299SOL    HW2  920   0.890   0.373   2.451
  300SOL     OW  921   1.017   0.039   2.615
  300SOL    HW1  922   0.945   0.044   2.546
  300SOL    HW2  923   0.993  -0.030   2.684
  301SOL     OW  924   1.429   1.173   2.729
  301SOL    HW1  925   1.374   1.089   2.722
  301SOL    HW2  926   1.455   1.202   2.637
  302SOL     OW  927   1.466   0.590   2.854
  302SOL    HW1  928   1.436   0.495   2.861
  302SOL    HW2  929   1.539   0.606   2.920
  303SOL     OW  930   1.857   0.833   2.239
  303SOL    HW1  931   1.899   0.769   2.303
  303SOL    HW2  932   1.819   0.782   2.161
  304SOL     OW  933   0.488   1.385   2.036
  304SOL    HW1  934   0.401   1.370   2.083
  304SOL    HW2  935   0.471   1.411   1.941
  305SOL     OW  936   1.664   1.280   2.519
  305SOL    HW1  937   1.763   1.288   2.533
  305SOL    HW2  938   1.619   1.364   2.550
  306SOL     OW  939   1.390   0.575   1.940
  306SOL    HW1  940   1.336   0.554   2.021
  306SOL    HW2  941   1.481   0.534   1.949
  307SOL     OW  942   0.527   0.256   2.190
  307SOL    HW1  943   0.554   0.197   2.115
  307SOL    HW2  944   0.527   0.351   2.159
  308SOL     OW  945   1.754   1.223   3.450
  308SOL    HW1  946   1.845   1.184   3.437
  308SOL    HW2  947   1.762   1.319   3.474
  309SOL     OW  948   1.064   1.347   3.202
  309SOL    HW1  949   0.984   1.324   3.257
  309SOL    HW2  950   1.147   1.321   3.251
  310SOL     OW  951   1.592   1.629   3.487
  310SOL    HW1  952   1.619   1.663   3.397
  310SOL    HW2  953   1.671   1.591   3.533
  311SOL     OW  954   1.111   1.195   2.962
  311SOL    HW1  955   1.071   1.239   3.043
  311SOL    HW2  956   1.070   1.232   2.879
  312SOL     OW  957   1.638   1.099   2.941
  312SOL    HW1  958   1.643   1.180   3.000
  312SOL    HW2  959   1.552   1.101   2.890
  313SOL     OW  960   0.915   0.089   3.264
  313SOL    HW1  961   0.940   0.069   3.169
  313SOL    HW2  962   0.987   0.145   3.306
  314SOL     OW  963   0.980   1.116   3.581
  314SOL    HW1  964   0.881   1.122   3.591
  314SOL    HW2  965   1.003   1.036   3.525
  315SOL     OW  966   0.705   1.050   2.230
  315SOL    HW1  967   0.691   1.057   2.329
  315SOL    HW2  968   0.789   0.999   2.212
  316SOL     OW  969   0.410   0.813   3.113
  316SOL    HW1  970   0.496   0.825   3.163
  316SOL    HW2  971   0.368   0.726   3.140
  317SOL     OW  972   1.274   0.386   3.124
  317SOL    HW1  973   1.295   0.460   3.188
  317SOL    HW2  974   1.185   0.403   3.081
  318SOL     OW  975   0.064   1.564   3.193
  318SOL    HW1  976   0.018   1.646   3.159
  318SOL    HW2  977   0.162   1.583   3.202
  319SOL     OW  978   0.367   1.100   2.363
  319SOL    HW1  979   0.360   1.183   2.307
  319SOL    HW2  980   0.371   1.020   2.303
  320SOL     OW  981   0.566   0.537   2.727
  320SOL    HW1  982   0.578   0.603   2.653
  320SOL    HW2  983   0.612   0.571   2.810
  321SOL     OW  984   1.252   1.348   2.250
  321SOL    HW1  985   1.302   1.425   2.290
  321SOL    HW2  986   1.157   1.350   2.282
  322SOL     OW  987   1.272   1.445   3.004
  322SOL    HW1  988   1.319   1.458   3.091
  322SOL    HW2  989   1.206   1.371   3.013
  323SOL     OW  990   1.582   0.639   2.334
  323SOL    HW1  991   1.551   0.700   2.407
  323SOL    HW2  992   1.632   0.691   2.265
  324SOL     OW  993   0.354   1.510   3.191
  324SOL    HW1  994   0.333   1.466   3.104
  324SOL    HW2  995   0.451   1.536   3.194
  325SOL     OW  996   0.402   0.751   3.460
  325SOL    HW1  997   0.470   0.806   3.413
  325SOL    HW2  998   0.442   0.663   3.487
  326SOL     OW  999   1.587   0.779   3.532
  326SOL    HW1 1000   1.495   0.817   3.527
  326SOL    HW2 1001   1.647   0.826   3.467
  327SOL     OW 1002   1.013   0.105   3.632
  327SOL    HW1 1003   1.019   0.190   3.580
  327SOL    HW2 1004   1.045   0.029   3.575
  328SOL     OW 1005   0.504   0.050   3.602
  328SOL    HW1 1006   0.462  -0.007   3.532
  328SOL    HW2 1007   0.438   0.119   3.634
  329SOL     OW 1008   0.573   0.870   2.891
  329SOL    HW1 1009   0.617   0.959   2.882
  329SOL    HW2 1010   0.510   0.870   2.968
  330SOL     OW 1011   1.360   0.862   2.907
  330SOL    HW1 1012   1.285   0.862   2.841
  330SOL    HW2 1013   1.397   0.770   2.916
  331SOL     OW 1014   1.209   0.525   2.137
  331SOL    HW1 1015   1.222   0.441   2.191
  331SOL    HW2 1016   1.180   0.599   2.197
  332SOL     OW 1017   0.307   0.213   3.093
  332SOL    HW1 1018   0.284   0.250   3.183
  332SOL    HW2 1019   0.277   0.118   3.087
  333SOL     OW 1020   0.037   1.310   3.144
  333SOL    HW1 1021   0.090   1.261   3.212
  333SOL    HW2 1022   0.059   1.408   3.149
  334SOL     OW 1023   0.732   0.634   2.926
  334SOL    HW1 1024   0.791   0.608   2.850
  334SOL    HW2 1025   0.704   0.730   2.915
  335SOL     OW 1026   1.728   0.935   3.716
  335SOL    HW1 1027   1.682   0.928   3.627
  335SOL    HW2 1028   1.666   0.979   3.782
  336SOL     OW 1029   0.307   0.063   2.480
  336SOL    HW1 1030   0.296   0.157   2.513
  336SOL    HW2 1031   0.302   0.000   2.557
  337SOL     OW 1032   1.622   0.367   2.236
  337SOL    HW1 1033   1.624   0.291   2.300
  337SOL    HW2 1034   1.574   0.444   2.276
  338SOL     OW 1035   1.023   0.766   2.828
  338SOL    HW1 1036   1.038   0.787   2.924
  338SOL    HW2 1037   0.993   0.671   2.819
  339SOL     OW 1038   0.980   1.573   3.562
  339SOL    HW1 1039   0.960   1.617   3.474
  339SOL    HW2 1040   1.019   1.482   3.546
  340SOL     OW 1041   1.859   1.518   3.467
  340SOL    HW1 1042   1.873   1.545   3.372
  340SOL    HW2 1043   1.942   1.540   3.520
  341SOL     OW 1044   0.350   0.898   3.666
  341SOL    HW1 1045   0.426   0.942   3.714
  341SOL    HW2 1046   0.385   0.851   3.584
  342SOL     OW 1047   1.540   0.274   1.987
  342SOL    HW1 1048   1.479   0.199   2.010
  342SOL    HW2 1049   1.562   0.326   2.070
  343SOL     OW 1050   1.303   0.838   1.904
  343SOL    HW1 1051   1.337   0.745   1.919
  343SOL    HW2 1052   1.321   0.865   1.809
  344SOL     OW 1053   1.068   1.333   2.711
  344SOL    HW1 1054   1.075   1.249   2.656
  344SOL    HW2 1055   1.130   1.402   2.675
  345SOL     OW 1056   0.319   0.810   2.811
  345SOL    HW1 1057   0.412   0.846   2.816
  345SOL    HW2 1058   0.313   0.725   2.863
  346SOL     OW 1059   0.339   0.509   2.868
  346SOL    HW1 1060   0.287   0.426   2.851
  346SOL    HW2 1061   0.416   0.514   2.804
  347SOL     OW 1062   1.138   0.380   3.540
  347SOL    HW1 1063   1.093   0.443   3.604
  347SOL    HW2 1064   1.231   0.411   3.523
  348SOL     OW 1065   1.160   0.207   3.339
  348SOL    HW1 1066   1.160   0.271   3.416
  348SOL    HW2 1067   1.188   0.255   3.256
  349SOL     OW 1068   0.008   1.326   2.062
  349SOL    HW1 1069  -0.085   1.347   2.031
  349SOL    HW2 1070   0.018   1.227   2.075
  350SOL     OW 1071   0.088   1.801   2.789
  350SOL    HW1 1072   0.046   1.715   2.762
  350SOL    HW2 1073   0.182   1.804   2.755
  351SOL     OW 1074   0.504   1.568   2.772
  351SOL    HW1 1075   0.570   1.642   2.781
  351SOL    HW2 1076   0.548   1.489   2.730
  352SOL     OW 1077   1.002   0.796   3.100
  352SOL    HW1 1078   1.043   0.764   3.186
  352SOL    HW2 1079   0.906   0.769   3.097
  353SOL     OW 1080   0.040   0.544   2.976
  353SOL    HW1 1081   0.125   0.511   2.935
  353SOL    HW2 1082   0.053   0.559   3.074
  354SOL     OW 1083   0.189   0.520   3.584
  354SOL    HW1 1084   0.248   0.480   3.514
  354SOL    HW2 1085   0.131   0.591   3.543
  355SOL     OW 1086   1.369   0.950   3.522
  355SOL    HW1 1087   1.408   1.039   3.542
  355SOL    HW2 1088   1.379   0.930   3.425
  356SOL     OW 1089   0.815   0.572   2.187
  356SOL    HW1 1090   0.822   0.483   2.141
  356SOL    HW2 1091   0.721   0.606   2.179
  357SOL     OW 1092   1.657   0.604   3.068
  357SOL    HW1 1093   1.619   0.535   3.130
  357SOL    HW2 1094   1.739   0.568   3.024
  358SOL     OW 1095   0.252   1.564   3.606
  358SOL    HW1 1096   0.222   1.621   3.682
  358SOL    HW2 1097   0.245   1.467   3.632
  359SOL     OW 1098   0.671   0.464   3.131
  359SOL    HW1 1099   0.637   0.375   3.101
  359SOL    HW2 1100   0.697   0.518   3.051
  360SOL     OW 1101   0.930   1.678   3.327
  360SOL    HW1 1102   0.906   1.660   3.232
  360SOL    HW2 1103   0.960   1.772   3.337
  361SOL     OW 1104   0.473   0.500   2.053
  361SOL    HW1 1105   0.534   0.580   2.057
  361SOL    HW2 1106   0.378   0.531   2.060
  362SOL     OW 1107   0.159   1.137   3.328
  362SOL    HW1 1108   0.181   1.076   3.404
  362SOL    HW2 1109   0.169   1.088   3.242
  363SOL     OW 1110   1.347   1.059   3.096
  363SOL    HW1 1111   1.371   0.996   3.022
  363SOL    HW2 1112   1.257   1.099   3.078
  364SOL     OW 1113   1.302   0.855   2.171
  364SOL    HW1 1114   1.216   0.824   2.213
  364SOL    HW2 1115   1.298   0.841   2.072
  365SOL     OW 1116   1.759   1.747   3.016
  365SOL    HW1 1117   1.820   1.777   2.943
  365SOL    HW2 1118   1.721   1.658   2.994
  366SOL     OW 1119   1.252   1.731   2.990
  366SOL    HW1 1120   1.336   1.736   2.936
  366SOL    HW2 1121   1.229   1.635   3.008
  367SOL     OW 1122   0.083   1.258   2.884
  367SOL    HW1 1123   0.078   1.257   2.984
  367SOL    HW2 1124   0.000   1.217   2.846
  368SOL     OW 1125   0.688   1.662   3.578
  368SOL    HW1 1126   0.632   1.743   3.587
  368SOL    HW2 1127   0.740   1.666   3.492
  369SOL     OW 1128   1.726   0.135   2.385
  369SOL    HW1 1129   1.799   0.118   2.318
  369SOL    HW2 1130   1.695   0.048   2.423
  370SOL     OW 1131   1.388   1.573   2.339
  370SOL    HW1 1132   1.455   1.585   2.265
  370SOL    HW2 1133   1.348   1.662   2.362
  371SOL     OW 1134   0.130   1.794   3.713
  371SOL    HW1 1135   0.089   1.720   3.766
  371SOL    HW2 1136   0.194   1.845   3.771
  372SOL     OW 1137   1.280   0.927   2.534
  372SOL    HW1 1138   1.340   0.846   2.536
  372SOL    HW2 1139   1.320   0.996   2.474
  373SOL     OW 1140   0.830   1.273   3.284
  373SOL    HW1 1141   0.825   1.306   3.379
  373SOL    HW2 1142   0.744   1.292   3.238
  374SOL     OW 1143   0.672   1.616   2.016
  374SOL    HW1 1144   0.681   1.626   1.917
  374SOL    HW2 1145   0.632   1.527   2.037
  375SOL     OW 1146   1.650   1.720   3.256
  375SOL    HW1 1147   1.703   1.730   3.172
  375SOL    HW2 1148   1.623   1.810   3.290
  376SOL     OW 1149   1.841   0.175   2.825
  376SOL    HW1 1150   1.880   0.090   2.789
  376SOL    HW2 1151   1.743   0.177   2.806
  377SOL     OW 1152   0.263   0.326   2.582
  377SOL    HW1 1153   0.184   0.377   2.548
  377SOL    HW2 1154   0.254   0.311   2.680
  378SOL     OW 1155   1.194   1.612   1.893
  378SOL    HW1 1156   1.200   1.519   1.930
  378SOL    HW2 1157   1.135   1.612   1.813
  379SOL     OW 1158   0.822   1.002   3.234
  379SOL    HW1 1159   0.862   1.001   3.142
  379SOL    HW2 1160   0.832   1.094   3.274
  380SOL     OW 1161   0.916   0.910   2.153
  380SOL    HW1 1162   0.979   0.948   2.085
  380SOL    HW2 1163   0.956   0.827   2.192
  381SOL     OW 1164   1.504   1.607   1.906
  381SOL    HW1 1165   1.412   1.644   1.913
  381SOL    HW2 1166   1.542   1.627   1.816
  382SOL     OW 1167   0.372   1.288   3.352
  382SOL    HW1 1168   0.359   1.381   3.318
  382SOL    HW2 1169   0.288   1.236   3.339
  383SOL     OW 1170   1.614   1.292   3.151
  383SOL    HW1 1171   1.674   1.295   3.231
  383SOL    HW2 1172   1.539   1.356   3.164
  384SOL     OW 1173   1.039   1.098   2.558
  384SOL    HW1 1174   0.969   1.051   2.612
  384SOL    HW2 1175   1.098   1.030   2.515
  385SOL     OW 1176   1.014   0.236   2.833
  385SOL    HW1 1177   1.006   0.200   2.740
  385SOL    HW2 1178   1.012   0.160   2.898
  386SOL     OW 1179   0.590   1.487   2.353
  386SOL    HW1 1180   0.632   1.429   2.283
  386SOL    HW2 1181   0.546   1.566   2.309
  387SOL     OW 1182   1.709   0.385   3.243
  387SOL    HW1 1183   1.782   0.454   3.247
  387SOL    HW2 1184   1.737   0.310   3.184
  388SOL     OW 1185   0.255   1.348   2.152
  388SOL    HW1 1186   0.159   1.349   2.125
  388SOL    HW2 1187   0.267   1.401   2.236
  389SOL     OW 1188   0.105   1.013   3.588
  389SOL    HW1 1189   0.028   0.980   3.642
  389SOL    HW2 1190   0.190   0.983   3.630
  390SOL     OW 1191   0.672   0.203   3.351
  390SOL    HW1 1192   0.762   0.187   3.311
  390SOL    HW2 1193   0.680   0.208   3.450
  391SOL     OW 1194   0.075   0.345   1.895
  391SOL    HW1 1195  -0.017   0.317   1.866
  391SOL    HW2 1196   0.106   0.422   1.839
  392SOL     OW 1197   1.440   0.856   3.260
  392SOL    HW1 1198   1.383   0.908   3.197
  392SOL    HW2 1199   1.536   0.868   3.236
  393SOL     OW 1200   0.072   0.166   2.180
  393SOL    HW1 1201   0.055   0.249   2.126
  393SOL    HW2 1202   0.162   0.129   2.158
  394SOL     OW 1203   1.183   1.335   1.981
  394SOL    HW1 1204   1.084   1.324   1.983
  394SOL    HW2 1205   1.217   1.350   2.074
  395SOL     OW 1206   0.613   0.842   3.293
  395SOL    HW1 1207   0.669   0.923   3.276
  395SOL    HW2 1208   0.672   0.762   3.296
  396SOL     OW 1209   1.493   1.767   2.821
  396SOL    HW1 1210   1.526   1.831   2.752
  396SOL    HW2 1211   1.559   1.761   2.896
  397SOL     OW 1212   0.716   0.565   3.570
  397SOL    HW1 1213   0.735   0.630   3.644
  397SOL    HW2 1214   0.776   0.485   3.579
  398SOL     OW 1215   1.450   1.220   3.495
  398SOL    HW1 1216   1.441   1.210   3.594
  398SOL    HW2 1217   1.546   1.213   3.469
  399SOL     OW 1218   0.390   1.741   3.422
  399SOL    HW1 1219   0.299   1.782   3.420
  399SOL    HW2 1220   0.383   1.647   3.454
  400SOL     OW 1221   1.674   0.883   3.116
  400SOL    HW1 1222   1.647   0.794   3.079
  400SOL    HW2 1223   1.675   0.951   3.043
  401SOL     OW 1224   1.225   0.325   2.311
  401SOL    HW1 1225   1.290   0.251   2.300
  401SOL    HW2 1226   1.245   0.375   2.395
  402SOL     OW 1227   0.594   0.745   2.514
  402SOL    HW1 1228   0.644   0.830   2.495
  402SOL    HW2 1229   0.506   0.747   2.466
  403SOL     OW 1230   1.777   0.342   3.504
  403SOL    HW1 1231   1.760   0.373   3.410
  403SOL    HW2 1232   1.693   0.305   3.542
  404SOL     OW 1233   1.730   0.934   3.379
  404SOL    HW1 1234   1.768   1.025   3.394
  404SOL    HW2 1235   1.722   0.917   3.280
  405SOL     OW 1236   0.859   1.374   1.878
  405SOL    HW1 1237   0.813   1.389   1.966
  405SOL    HW2 1238   0.903   1.459   1.848
  406SOL     OW 1239   0.661   1.790   2.815
  406SOL    HW1 1240   0.615   1.878   2.802
  406SOL    HW2 1241   0.760   1.802   2.808
  407SOL     OW 1242   0.859   0.956   2.723
  407SOL    HW1 1243   0.913   0.887   2.771
  407SOL    HW2 1244   0.827   1.025   2.789
  408SOL     OW 1245   1.083   0.984   1.949
  408SOL    HW1 1246   1.060   1.037   1.867
  408SOL    HW2 1247   1.164   0.928   1.930
  409SOL     OW 1248   1.861   1.569   2.713
  409SOL    HW1 1249   1.790   1.557   2.643
  409SOL    HW2 1250   1.862   1.490   2.773
  410SOL     OW 1251   0.221   1.314   3.706
  410SOL    HW1 1252   0.156   1.241   3.685
  410SOL    HW2 1253   0.225   1.328   3.804
  411SOL     OW 1254   0.079   1.240   2.515
  411SOL    HW1 1255   0.078   1.193   2.603
  411SOL    HW2 1256   0.161   1.212   2.464
  412SOL     OW 1257   0.672   1.391   3.486
  412SOL    HW1 1258   0.594   1.341   3.524
  412SOL    HW2 1259   0.669   1.486   3.517
  413SOL     OW 1260   1.824   0.192   3.089
  413SOL    HW1 1261   1.820   0.102   3.133
  413SOL    HW2 1262   1.827   0.181   2.990
  414SOL     OW 1263   0.428   0.424   2.382
  414SOL    HW1 1264   0.458   0.352   2.320
  414SOL    HW2 1265   0.389   0.384   2.465
  415SOL     OW 1266   1.705   1.487   2.966
  415SOL    HW1 1267   1.612   1.462   2.939
  415SOL    HW2 1268   1.731   1.437   3.048
  416SOL     OW 1269   0.317   0.547   3.142
  416SOL    HW1 1270   0.355   0.488   3.214
  416SOL    HW2 1271   0.357   0.521   3.054
  417SOL     OW 1272   0.812   1.586   2.549
  417SOL    HW1 1273   0.844   1.596   2.455
  417SOL    HW2 1274   0.733   1.524   2.551
  418SOL     OW 1275   1.424   0.214   2.974
  418SOL    HW1 1276   1.476   0.149   3.029
  418SOL    HW2 1277   1.375   0.277   3.035
  419SOL     OW 1278   1.001   0.034   3.016
  419SOL    HW1 1279   0.938  -0.038   2.985
  419SOL    HW2 1280   1.094  -0.002   3.016
  420SOL     OW 1281   0.770   1.330   2.163
  420SOL    HW1 1282   0.724   1.243   2.180
  420SOL    HW2 1283   0.861   1.327   2.204
  421SOL     OW 1284   0.618   1.567   3.146
  421SOL    HW1 1285   0.613   1.649   3.203
  421SOL    HW2 1286   0.707   1.564   3.101
  422SOL     OW 1287   1.352   0.052   2.030
  422SOL    HW1 1288   1.387   0.011   1.946
  422SOL    HW2 1289   1.262   0.014   2.050
  423SOL     OW 1290   1.300   0.453   2.553
  423SOL    HW1 1291   1.241   0.533   2.557
  423SOL    HW2 1292   1.315   0.418   2.646
  424SOL     OW 1293   1.593   0.221   2.744
  424SOL    HW1 1294   1.509   0.220   2.798
  424SOL    HW2 1295   1.595   0.304   2.688
  425SOL     OW 1296   0.039   1.077   2.162
  425SOL    HW1 1297   0.138   1.066   2.153
  425SOL    HW2 1298  -0.001   0.991   2.194
  426SOL     OW 1299   0.875   1.646   2.199
  426SOL    HW1 1300   0.798   1.611   2.145
  426SOL    HW2 1301   0.843   1.717   2.261
  427SOL     OW 1302   0.230   0.628   3.837
  427SOL    HW1 1303   0.137   0.626   3.874
  427SOL    HW2 1304   0.231   0.589   3.745
  428SOL     OW 1305   0.225   0.275   4.720
  428SOL    HW1 1306   0.260   0.258   4.812
  428SOL    HW2 1307   0.137   0.230   4.708
  429SOL     OW 1308   0.019   0.368   4.371
  429SOL    HW1 1309  -0.063   0.411   4.410
  429SOL    HW2 1310  -0.009   0.295   4.308
  430SOL     OW 1311   0.569   1.275   4.889
  430SOL    HW1 1312   0.476   1.268   4.852
  430SOL    HW2 1313   0.580   1.364   4.933
  431SOL     OW 1314   1.555   1.511   4.427
  431SOL    HW1 1315   1.498   1.495   4.508
  431SOL    HW2 1316   1.496   1.521   4.347
  432SOL     OW 1317   1.135   0.703   4.441
  432SOL    HW1 1318   1.192   0.781   4.416
  432SOL    HW2 1319   1.075   0.729   4.517
  433SOL     OW 1320   1.755   0.607   3.955
  433SOL    HW1 1321   1.743   0.594   3.856
  433SOL    HW2 1322   1.725   0.526   4.004
  434SOL     OW 1323   0.768   1.144   4.747
  434SOL    HW1 1324   0.690   1.161   4.807
  434SOL    HW2 1325   0.802   1.231   4.711
  435SOL     OW 1326   0.685   1.012   4.389
  435SOL    HW1 1327   0.754   0.996   4.459
  435SOL    HW2 1328   0.612   1.069   4.427
  436SOL     OW 1329   0.335   1.435   4.785
  436SOL    HW1 1330   0.257   1.404   4.732
  436SOL    HW2 1331   0.393   1.493   4.728
  437SOL     OW 1332   1.603   0.447   4.461
  437SOL    HW1 1333   1.529   0.493   4.411
  437SOL    HW2 1334   1.654   0.515   4.514
  438SOL     OW 1335   0.231   1.713   4.207
  438SOL    HW1 1336   0.265   1.790   4.261
  438SOL    HW2 1337   0.275   1.713   4.117
  439SOL     OW 1338   0.230   1.434   4.262
  439SOL    HW1 1339   0.204   1.530   4.262
  439SOL    HW2 1340   0.159   1.380   4.307
  440SOL     OW 1341   0.240   1.091   4.610
  440SOL    HW1 1342   0.254   1.007   4.662
  440SOL    HW2 1343   0.185   1.155   4.665
  441SOL     OW 1344   0.606   0.964   3.847
  441SOL    HW1 1345   0.613   1.048   3.793
  441SOL    HW2 1346   0.652   0.977   3.935
  442SOL     OW 1347   0.122   0.643   4.287
  442SOL    HW1 1348   0.077   0.555   4.304
  442SOL    HW2 1349   0.121   0.697   4.371
  443SOL     OW 1350   1.842   1.767   4.083
  443SOL    HW1 1351   1.896   1.738   4.163
  443SOL    HW2 1352   1.872   1.857   4.054
  444SOL     OW 1353   0.027   1.596   3.841
  444SOL    HW1 1354   0.008   1.500   3.862
  444SOL    HW2 1355  -0.006   1.654   3.916
  445SOL     OW 1356   1.689   0.922   4.336
  445SOL    HW1 1357   1.784   0.893   4.344
  445SOL    HW2 1358   1.681   0.987   4.261
  446SOL     OW 1359   1.641   1.108   4.156
  446SOL    HW1 1360   1.727   1.110   4.104
  446SOL    HW2 1361   1.655   1.155   4.244
  447SOL     OW 1362   0.113   0.737   5.321
  447SOL    HW1 1363   0.201   0.724   5.366
  447SOL    HW2 1364   0.100   0.834   5.299
  448SOL     OW 1365   0.613   1.365   4.450
  448SOL    HW1 1366   0.564   1.278   4.459
  448SOL    HW2 1367   0.590   1.408   4.363
  449SOL     OW 1368   0.809   0.004   4.226
  449SOL    HW1 1369   0.849   0.095   4.217
  449SOL    HW2 1370   0.709   0.012   4.232
  450SOL     OW 1371   0.197   0.976   4.988
  450SOL    HW1 1372   0.286   0.931   4.974
  450SOL    HW2 1373   0.124   0.911   4.969
  451SOL     OW 1374   1.525   0.999   3.914
  451SOL    HW1 1375   1.462   0.923   3.927
  451SOL    HW2 1376   1.573   1.017   4.000
  452SOL     OW 1377   1.466   1.417   4.677
  452SOL    HW1 1378   1.407   1.423   4.757
  452SOL    HW2 1379   1.451   1.329   4.631
  453SOL     OW 1380   1.667   1.714   4.296
  453SOL    HW1 1381   1.626   1.691   4.208
  453SOL    HW2 1382   1.649   1.640   4.361
  454SOL     OW 1383   0.598   0.729   3.994
  454SOL    HW1 1384   0.622   0.798   3.926
  454SOL    HW2 1385   0.520   0.762   4.048
  455SOL     OW 1386   1.281   0.345   4.668
  455SOL    HW1 1387   1.195   0.295   4.655
  455SOL    HW2 1388   1.343   0.291   4.724
  456SOL     OW 1389   1.576   1.662   4.031
  456SOL    HW1 1390   1.665   1.708   4.034
  456SOL    HW2 1391   1.555   1.638   3.936
  457SOL     OW 1392   0.991   0.410   4.966
  457SOL    HW1 1393   0.914   0.444   5.020
  457SOL    HW2 1394   0.957   0.359   4.887
  458SOL     OW 1395   1.041   0.701   4.153
  458SOL    HW1 1396   1.067   0.697   4.249
  458SOL    HW2 1397   0.956   0.650   4.139
  459SOL     OW 1398   0.076   0.811   4.513
  459SOL    HW1 1399   0.175   0.799   4.522
  459SOL    HW2 1400   0.052   0.906   4.534
  460SOL     OW 1401   0.130   1.821   5.295
  460SOL    HW1 1402   0.120   1.806   5.394
  460SOL    HW2 1403   0.044   1.857   5.259
  461SOL     OW 1404   0.865   0.348   3.919
  461SOL    HW1 1405   0.924   0.411   3.870
  461SOL    HW2 1406   0.884   0.254   3.890
  462SOL     OW 1407   1.362   1.144   4.269
  462SOL    HW1 1408   1.445   1.115   4.221
  462SOL    HW2 1409   1.313   1.211   4.213
  463SOL     OW 1410   0.550   0.196   4.609
  463SOL    HW1 1411   0.545   0.191   4.709
  463SOL    HW2 1412   0.552   0.292   4.580
  464SOL     OW 1413   1.008   1.456   4.201
  464SOL    HW1 1414   0.962   1.528   4.149
  464SOL    HW2 1415   1.004   1.476   4.299
  465SOL     OW 1416   0.351   1.801   4.577
  465SOL    HW1 1417   0.401   1.715   4.583
  465SOL    HW2 1418   0.416   1.878   4.574
  466SOL     OW 1419   1.795   1.066   4.597
  466SOL    HW1 1420   1.733   1.051   4.521
  466SOL    HW2 1421   1.743   1.077   4.682
  467SOL     OW 1422   0.321   0.943   3.966
  467SOL    HW1 1423   0.403   0.982   3.924
  467SOL    HW2 1424   0.294   0.861   3.917
  468SOL     OW 1425   1.458   0.735   4.452
  468SOL    HW1 1426   1.453   0.670   4.527
  468SOL    HW2 1427   1.538   0.794   4.465
  469SOL     OW 1428   1.111   1.776   3.961
  469SOL    HW1 1429   1.051   1.714   4.011
  469SOL    HW2 1430   1.142   1.732   3.876
  470SOL     OW 1431   1.632   1.377   3.805
  470SOL    HW1 1432   1.600   1.471   3.795
  470SOL    HW2 1433   1.556   1.314   3.793
  471SOL     OW 1434   0.464   1.743   4.047
  471SOL    HW1 1435   0.497   1.782   4.133
  471SOL    HW2 1436   0.540   1.736   3.982
  472SOL     OW 1437   1.400   0.107   4.150
  472SOL    HW1 1438   1.376   0.070   4.060
  472SOL    HW2 1439   1.499   0.123   4.154
  473SOL     OW 1440   0.249   1.785   4.965
  473SOL    HW1 1441   0.306   1.720   5.015
  473SOL    HW2 1442   0.233   1.752   4.872
  474SOL     OW 1443   0.940   1.698   4.628
  474SOL    HW1 1444   1.020   1.641   4.649
  474SOL    HW2 1445   0.891   1.658   4.551
  475SOL     OW 1446   0.382   0.700   4.204
  475SOL    HW1 1447   0.427   0.610   4.201
  475SOL    HW2 1448   0.288   0.689   4.237
  476SOL     OW 1449   0.614   0.122   3.841
  476SOL    HW1 1450   0.712   0.100   3.848
  476SOL    HW2 1451   0.583   0.105   3.748
  477SOL     OW 1452   0.803   1.402   4.648
  477SOL    HW1 1453   0.893   1.416   4.606
  477SOL    HW2 1454   0.732   1.404   4.577
  478SOL     OW 1455   0.922   0.503   4.623
  478SOL    HW1 1456   0.897   0.494   4.527
  478SOL    HW2 1457   0.970   0.421   4.654
  479SOL     OW 1458   0.539   0.064   4.236
  479SOL    HW1 1459   0.458   0.065   4.294
  479SOL    HW2 1460   0.542   0.147   4.181
  480SOL     OW 1461   1.434   1.188   3.765
  480SOL    HW1 1462   1.466   1.112   3.822
  480SOL    HW2 1463   1.342   1.215   3.795
  481SOL     OW 1464   0.297   0.035   3.895
  481SOL    HW1 1465   0.346   0.119   3.874
  481SOL    HW2 1466   0.359  -0.030   3.940
  482SOL     OW 1467   0.935   0.236   4.204
  482SOL    HW1 1468   0.887   0.277   4.126
  482SOL    HW2 1469   1.034   0.234   4.185
  483SOL     OW 1470   1.227   1.570   4.517
  483SOL    HW1 1471   1.248   1.644   4.452
  483SOL    HW2 1472   1.295   1.570   4.590
  484SOL     OW 1473   0.459   1.152   4.465
  484SOL    HW1 1474   0.388   1.125   4.530
  484SOL    HW2 1475   0.433   1.124   4.372
  485SOL     OW 1476   1.271   1.797   4.315
  485SOL    HW1 1477   1.315   1.861   4.251
  485SOL    HW2 1478   1.221   1.849   4.385
  486SOL     OW 1479   1.032   0.549   3.740
  486SOL    HW1 1480   0.991   0.631   3.701
  486SOL    HW2 1481   1.096   0.575   3.813
  487SOL     OW 1482   0.561   0.222   4.871
  487SOL    HW1 1483   0.599   0.138   4.908
  487SOL    HW2 1484   0.473   0.241   4.915
  488SOL     OW 1485   0.866   0.454   4.366
  488SOL    HW1 1486   0.834   0.526   4.304
  488SOL    HW2 1487   0.890   0.373   4.313
  489SOL     OW 1488   1.017   0.039   4.477
  489SOL    HW1 1489   0.945   0.044   4.408
  489SOL    HW2 1490   0.993  -0.030   4.546
  490SOL     OW 1491   1.429   1.173   4.591
  490SOL    HW1 1492   1.374   1.089   4.584
  490SOL    HW2 1493   1.455   1.202   4.499
  491SOL     OW 1494   1.466   0.590   4.716
  491SOL    HW1 1495   1.436   0.495   4.723
  491SOL    HW2 1496   1.539   0.606   4.782
  492SOL     OW 1497   1.857   0.833   4.101
  492SOL    HW1 1498   1.899   0.769   4.165
  492SOL    HW2 1499   1.819   0.782   4.023
  493SOL     OW 1500   0.488   1.385   3.898
  493SOL    HW1 1501   0.401   1.370   3.945
  493SOL    HW2 1502   0.471   1.411   3.803
  494SOL     OW 1503   1.664   1.280   4.381
  494SOL    HW1 1504   1.763   1.288   4.395
  494SOL    HW2 1505   1.619   1.364   4.412
  495SOL     OW 1506   1.390   0.575   3.802
  495SOL    HW1 1507   1.336   0.554   3.883
  495SOL    HW2 1508   1.481   0.534   3.811
  496SOL     OW 1509   0.527   0.256   4.052
  496SOL    HW1 1510   0.554   0.197   3.977
  496SOL    HW2 1511   0.527   0.351   4.021
  497SOL     OW 1512   1.111   1.195   4.824
  497SOL    HW1 1513   1.071   1.239   4.905
  497SOL    HW2 1514   1.070   1.232   4.741
  498SOL     OW 1515   1.638   1.099   4.803
  498SOL    HW1 1516   1.643   1.180   4.862
  498SOL    HW2 1517   1.552   1.101   4.752
  499SOL     OW 1518   0.705   1.050   4.092
  499SOL    HW1 1519   0.691   1.057   4.191
  499SOL    HW2 1520   0.789   0.999   4.074
  500SOL     OW 1521   0.410   0.813   4.975
  500SOL    HW1 1522   0.496   0.825   5.025
  500SOL    HW2 1523   0.368   0.726   5.002
  501SOL     OW 1524   1.274   0.386   4.986
  501SOL    HW1 1525   1.295   0.460   5.050
  501SOL    HW2 1526   1.185   0.403   4.943
  502SOL     OW 1527   0.367   1.100   4.225
  502SOL    HW1 1528   0.360   1.183   4.169
  502SOL    HW2 1529   0.371   1.020   4.165
  503SOL     OW 1530   0.566   0.537   4.589
  503SOL    HW1 1531   0.578   0.603   4.515
  503SOL    HW2 1532   0.612   0.571   4.672
  504SOL     OW 1533   1.252   1.348   4.112
  504SOL    HW1 1534   1.302   1.425   4.152
  504SOL    HW2 1535   1.157   1.350   4.144
  505SOL     OW 1536   1.272   1.445   4.866
  505SOL    HW1 1537   1.319   1.458   4.953
  505SOL    HW2 1538   1.206   1.371   4.875
  506SOL     OW 1539   1.582   0.639   4.196
  506SOL    HW1 1540   1.551   0.700   4.269
  506SOL    HW2 1541   1.632   0.691   4.127
  507SOL     OW 1542   0.354   1.510   5.053
  507SOL    HW1 1543   0.333   1.466   4.966
  507SOL    HW2 1544   0.451   1.536   5.056
  508SOL     OW 1545   0.573   0.870   4.753
  508SOL    HW1 1546   0.617   0.959   4.744
  508SOL    HW2 1547   0.510   0.870   4.830
  509SOL     OW 1548   1.360   0.862   4.769
  509SOL    HW1 1549   1.285   0.862   4.703
  509SOL    HW2 1550   1.397   0.770   4.778
  510SOL     OW 1551   1.209   0.525   3.999
  510SOL    HW1 1552   1.222   0.441   4.053
  510SOL    HW2 1553   1.180   0.599   4.059
  511SOL     OW 1554   0.307   0.213   4.955
  511SOL    HW1 1555   0.284   0.250   5.045
  511SOL    HW2 1556   0.277   0.118   4.949
  512SOL     OW 1557   0.037   1.310   5.006
  512SOL    HW1 1558   0.090   1.261   5.074
  512SOL    HW2 1559   0.059   1.408   5.011
  513SOL     OW 1560   0.732   0.634   4.788
  513SOL    HW1 1561   0.791   0.608   4.712
  513SOL    HW2 1562   0.704   0.730   4.777
  514SOL     OW 1563   0.307   0.063   4.342
  514SOL    HW1 1564   0.296   0.157   4.375
  514SOL    HW2 1565   0.302   0.000   4.419
  515SOL     OW 1566   1.622   0.367   4.098
  515SOL    HW1 1567   1.624   0.291   4.162
  515SOL    HW2 1568   1.574   0.444   4.138
  516SOL     OW 1569   1.023   0.766   4.690
  516SOL    HW1 1570   1.038   0.787   4.786
  516SOL    HW2 1571   0.993   0.671   4.681
  517SOL     OW 1572   1.540   0.274   3.849
  517SOL    HW1 1573   1.479   0.199   3.872
  517SOL    HW2 1574   1.562   0.326   3.932
  518SOL     OW 1575   1.303   0.838   3.766
  518SOL    HW1 1576   1.337   0.745   3.781
  518SOL    HW2 1577   1.321   0.865   3.671
  519SOL     OW 1578   1.068   1.333   4.573
  519SOL    HW1 1579   1.075   1.249   4.518
  519SOL    HW2 1580   1.130   1.402   4.537
  520SOL     OW 1581   0.319   0.810   4.673
  520SOL    HW1 1582   0.412   0.846   4.678
  520SOL    HW2 1583   0.313   0.725   4.725
  521SOL     OW 1584   0.339   0.509   4.730
  521SOL    HW1 1585   0.287   0.426   4.713
  521SOL    HW2 1586   0.416   0.514   4.666
  522SOL     OW 1587   1.160   0.207   5.201
  522SOL    HW1 1588   1.160   0.271   5.278
  522SOL    HW2 1589   1.188   0.255   5.118
  523SOL     OW 1590   0.008   1.326   3.924
  523SOL    HW1 1591  -0.085   1.347   3.893
  523SOL    HW2 1592   0.018   1.227   3.937
  524SOL     OW 1593   0.088   1.801   4.651
  524SOL    HW1 1594   0.046   1.715   4.624
  524SOL    HW2 1595   0.182   1.804   4.617
  525SOL     OW 1596   0.504   1.568   4.634
  525SOL    HW1 1597   0.570   1.642   4.643
  525SOL    HW2 1598   0.548   1.489   4.592
  526SOL     OW 1599   1.002   0.796   4.962
  526SOL    HW1 1600   1.043   0.764   5.048
  526SOL    HW2 1601   0.906   0.769   4.959
  527SOL     OW 1602   0.040   0.544   4.838
  527SOL    HW1 1603   0.125   0.511   4.797
  527SOL    HW2 1604   0.053   0.559   4.936
  528SOL     OW 1605   0.815   0.572   4.049
  528SOL    HW1 1606   0.822   0.483   4.003
  528SOL    HW2 1607   0.721   0.606   4.041
  529SOL     OW 1608   1.657   0.604   4.930
  529SOL    HW1 1609   1.619   0.535   4.992
  529SOL    HW2 1610   1.739   0.568   4.886
  530SOL     OW 1611   0.671   0.464   4.993
  530SOL    HW1 1612   0.637   0.375   4.963
  530SOL    HW2 1613   0.697   0.518   4.913
  531SOL     OW 1614   0.930   1.678   5.189
  531SOL    HW1 1615   0.906   1.660   5.094
  531SOL    HW2 1616   0.960   1.772   5.199
  532SOL     OW 1617   0.473   0.500   3.915
  532SOL    HW1 1618   0.534   0.580   3.919
  532SOL    HW2 1619   0.378   0.531   3.922
  533SOL     OW 1620   1.347   1.059   4.958
  533SOL    HW1 1621   1.371   0.996   4.884
  533SOL    HW2 1622   1.257   1.099   4.940
  534SOL     OW 1623   1.302   0.855   4.033
  534SOL    HW1 1624   1.216   0.824   4.075
  534SOL    HW2 1625   1.298   0.841   3.934
  535SOL     OW 1626   1.759   1.747   4.878
  535SOL    HW1 1627   1.820   1.777   4.805
  535SOL    HW2 1628   1.721   1.658   4.856
  536SOL     OW 1629   1.252   1.731   4.852
  536SOL    HW1 1630   1.336   1.736   4.798
  536SOL    HW2 1631   1.229   1.635   4.870
  537SOL     OW 1632   0.083   1.258   4.746
  537SOL    HW1 1633   0.078   1.257   4.846
  537SOL    HW2 1634   0.000   1.217   4.708
  538SOL     OW 1635   1.726   0.135   4.247
  538SOL    HW1 1636   1.799   0.118   4.180
  538SOL    HW2 1637   1.695   0.048   4.285
  539SOL     OW 1638   1.388   1.573   4.201
  539SOL    HW1 1639   1.455   1.585   4.127
  539SOL    HW2 1640   1.348   1.662   4.224
  540SOL     OW 1641   1.280   0.927   4.396
  540SOL    HW1 1642   1.340   0.846   4.398
  540SOL    HW2 1643   1.320   0.996   4.336
  541SOL     OW 1644   0.672   1.616   3.878
  541SOL    HW1 1645   0.681   1.626   3.779
  541SOL    HW2 1646   0.632   1.527   3.899
  542SOL     OW 1647   1.650   1.720   5.118
  542SOL    HW1 1648   1.703   1.730   5.034
  542SOL    HW2 1649   1.623   1.810   5.152
  543SOL     OW 1650   1.841   0.175   4.687
  543SOL    HW1 1651   1.880   0.090   4.651
  543SOL    HW2 1652   1.743   0.177   4.668
  544SOL     OW 1653   0.263   0.326   4.444
  544SOL    HW1 1654   0.184   0.377   4.410
  544SOL    HW2 1655   0.254   0.311   4.542
  545SOL     OW 1656   1.194   1.612   3.755
  545SOL    HW1 1657   1.200   1.519   3.792
  545SOL    HW2 1658   1.135   1.612   3.675
  546SOL     OW 1659   0.822   1.002   5.096
  546SOL    HW1 1660   0.862   1.001   5.004
  546SOL    HW2 1661   0.832   1.094   5.136
  547SOL     OW 1662   0.916   0.910   4.015
  547SOL    HW1 1663   0.979   0.948   3.947
  547SOL    HW2 1664   0.956   0.827   4.054
  548SOL     OW 1665   1.504   1.607   3.768
  548SOL    HW1 1666   1.412   1.644   3.775
  548SOL    HW2 1667   1.542   1.627   3.678
  549SOL     OW 1668   1.039   1.098   4.420
  549SOL    HW1 1669   0.969   1.051   4.474
  549SOL    HW2 1670   1.098   1.030   4.377
  550SOL     OW 1671   1.014   0.236   4.695
  550SOL    HW1 1672   1.006   0.200   4.602
  550SOL    HW2 1673   1.012   0.160   4.760
  551SOL     OW 1674   0.590   1.487   4.215
  551SOL    HW1 1675   0.632   1.429   4.145
  551SOL    HW2 1676   0.546   1.566   4.171
  552SOL     OW 1677   1.709   0.385   5.105
  552SOL    HW1 1678   1.782   0.454   5.109
  552SOL    HW2 1679   1.737   0.310   5.046
  553SOL     OW 1680   0.255   1.348   4.014
  553SOL    HW1 1681   0.159   1.349   3.987
  553SOL    HW2 1682   0.267   1.401   4.098
  554SOL     OW 1683   0.075   0.345   3.757
  554SOL    HW1 1684  -0.017   0.317   3.728
  554SOL    HW2 1685   0.106   0.422   3.701
  555SOL     OW 1686   0.072   0.166   4.042
  555SOL    HW1 1687   0.055   0.249   3.988
  555SOL    HW2 1688   0.162   0.129   4.020
  556SOL     OW 1689   1.183   1.335   3.843
  556SOL    HW1 1690   1.084   1.324   3.845
  556SOL    HW2 1691   1.217   1.350   3.936
  557SOL     OW 1692   1.493   1.767   4.683
  557SOL    HW1 1693   1.526   1.831   4.614
  557SOL    HW2 1694   1.559   1.761   4.758
  558SOL     OW 1695   1.674   0.883   4.978
  558SOL    HW1 1696   1.647   0.794   4.941
  558SOL    HW2 1697   1.675   0.951   4.905
  559SOL     OW 1698   1.225   0.325   4.173
  559SOL    HW1 1699   1.290   0.251   4.162
  559SOL    HW2 1700   1.245   0.375   4.257
  560SOL     OW 1701   0.594   0.745   4.376
  560SOL    HW1 1702   0.644   0.830   4.357
  560SOL    HW2 1703   0.506   0.747   4.328
  561SOL     OW 1704   1.730   0.934   5.241
  561SOL    HW1 1705   1.768   1.025   5.256
  561SOL    HW2 1706   1.722   0.917   5.142
  562SOL     OW 1707   0.859   1.374   3.740
  562SOL    HW1 1708   0.813   1.389   3.828
  562SOL    HW2 1709   0.903   1.459   3.710
  563SOL     OW 1710   0.661   1.790   4.677
  563SOL    HW1 1711   0.615   1.878   4.664
  563SOL    HW2 1712   0.760   1.802   4.670
  564SOL     OW 1713   0.859   0.956   4.585
  564SOL    HW1 1714   0.913   0.887   4.633
  564SOL    HW2 1715   0.827   1.025   4.651
  565SOL     OW 1716   1.083   0.984   3.811
  565SOL    HW1 1717   1.060   1.037   3.729
  565SOL    HW2 1718   1.164   0.928   3.792
  566SOL     OW 1719   1.861   1.569   4.575
  566SOL    HW1 1720   1.790   1.557   4.505
  566SOL    HW2 1721   1.862   1.490   4.635
  567SOL     OW 1722   0.079   1.240   4.377
  567SOL    HW1 1723   0.078   1.193   4.465
  567SOL    HW2 1724   0.161   1.212   4.326
  568SOL     OW 1725   1.824   0.192   4.951
  568SOL    HW1 1726   1.820   0.102   4.995
  568SOL    HW2 1727   1.827   0.181   4.852
  569SOL     OW 1728   0.428   0.424   4.244
  569SOL    HW1 1729   0.458   0.352   4.182
  569SOL    HW2 1730   0.389   0.384   4.327
  570SOL     OW 1731   1.705   1.487   4.828
  570SOL    HW1 1732   1.612   1.462   4.801
  570SOL    HW2 1733   1.731   1.437   4.910
  571SOL     OW 1734   0.812   1.586   4.411
  571SOL    HW1 1735   0.844   1.596   4.317
  571SOL    HW2 1736   0.733   1.524   4.413
  572SOL     OW 1737   1.424   0.214   4.836
  572SOL    HW1 1738   1.476   0.149   4.891
  572SOL    HW2 1739   1.375   0.277   4.897
  573SOL     OW 1740   1.001   0.034   4.878
  573SOL    HW1 1741   0.938  -0.038   4.847
  573SOL    HW2 1742   1.094  -0.002   4.878
  574SOL     OW 1743   0.770   1.330   4.025
  574SOL    HW1 1744   0.724   1.243   4.042
  574SOL    HW2 1745   0.861   1.327   4.066
  575SOL     OW 1746   1.352   0.052   3.892
  575SOL    HW1 1747   1.387   0.011   3.808
  575SOL    HW2 1748   1.262   0.014   3.912
  576SOL     OW 1749   1.300   0.453   4.415
  576SOL    HW1 1750   1.241   0.533   4.419
  576SOL    HW2 1751   1.315   0.418   4.508
  577SOL     OW 1752   1.593   0.221   4.606
  577SOL    HW1 1753   1.509   0.220   4.660
  577SOL    HW2 1754   1.595   0.304   4.550
  578SOL     OW 1755   0.039   1.077   4.024
  578SOL    HW1 1756   0.138   1.066   4.015
  578SOL    HW2 1757  -0.001   0.991   4.056
  579SOL     OW 1758   0.875   1.646   4.061
  579SOL    HW1 1759   0.798   1.611   4.007
  579SOL    HW2 1760   0.843   1.717   4.123
  580SOL     OW 1761   0.230   2.490   0.113
  580SOL    HW1 1762   0.137   2.488   0.150
  580SOL    HW2 1763   0.231   2.451   0.021
  581SOL     OW 1764   0.225   2.137   0.996
  581SOL    HW1 1765   0.260   2.120   1.088
  581SOL    HW2 1766   0.137   2.092   0.984
  582SOL     OW 1767   0.019   2.230   0.647
  582SOL    HW1 1768  -0.063   2.273   0.686
  582SOL    HW2 1769  -0.009   2.157   0.584
  583SOL     OW 1770   0.569   3.137   1.165
  583SOL    HW1 1771   0.476   3.130   1.128
  583SOL    HW2 1772   0.580   3.226   1.209
  584SOL     OW 1773   1.555   3.373   0.703
  584SOL    HW1 1774   1.498   3.357   0.784
  584SOL    HW2 1775   1.496   3.383   0.623
  585SOL     OW 1776   1.135   2.565   0.717
  585SOL    HW1 1777   1.192   2.643   0.692
  585SOL    HW2 1778   1.075   2.591   0.793
  586SOL     OW 1779   1.755   2.469   0.231
  586SOL    HW1 1780   1.743   2.456   0.132
  586SOL    HW2 1781   1.725   2.388   0.280
  587SOL     OW 1782   0.768   3.006   1.023
  587SOL    HW1 1783   0.690   3.023   1.083
  587SOL    HW2 1784   0.802   3.093   0.987
  588SOL     OW 1785   0.850   2.660   1.823
  588SOL    HW1 1786   0.846   2.736   1.888
  588SOL    HW2 1787   0.872   2.696   1.732
  589SOL     OW 1788   0.685   2.874   0.665
  589SOL    HW1 1789   0.754   2.858   0.735
  589SOL    HW2 1790   0.612   2.931   0.703
  590SOL     OW 1791   0.686   3.023   1.803
  590SOL    HW1 1792   0.746   3.102   1.817
  590SOL    HW2 1793   0.600   3.054   1.762
  591SOL     OW 1794   0.335   3.297   1.061
  591SOL    HW1 1795   0.257   3.266   1.008
  591SOL    HW2 1796   0.393   3.355   1.004
  592SOL     OW 1797   1.460   3.367   1.339
  592SOL    HW1 1798   1.484   3.461   1.365
  592SOL    HW2 1799   1.444   3.313   1.421
  593SOL     OW 1800   0.438   2.254   1.499
  593SOL    HW1 1801   0.520   2.198   1.508
  593SOL    HW2 1802   0.357   2.196   1.503
  594SOL     OW 1803   1.603   2.309   0.737
  594SOL    HW1 1804   1.529   2.355   0.687
  594SOL    HW2 1805   1.654   2.377   0.790
  595SOL     OW 1806   0.231   3.575   0.483
  595SOL    HW1 1807   0.265   3.652   0.537
  595SOL    HW2 1808   0.275   3.575   0.393
  596SOL     OW 1809   1.127   3.203   1.690
  596SOL    HW1 1810   1.174   3.203   1.778
  596SOL    HW2 1811   1.079   3.116   1.679
  597SOL     OW 1812   0.230   3.296   0.538
  597SOL    HW1 1813   0.204   3.392   0.538
  597SOL    HW2 1814   0.159   3.242   0.583
  598SOL     OW 1815   0.240   2.953   0.886
  598SOL    HW1 1816   0.254   2.869   0.938
  598SOL    HW2 1817   0.185   3.017   0.941
  599SOL     OW 1818   0.620   3.648   1.439
  599SOL    HW1 1819   0.528   3.631   1.474
  599SOL    HW2 1820   0.648   3.740   1.465
  600SOL     OW 1821   0.606   2.826   0.123
  600SOL    HW1 1822   0.613   2.910   0.069
  600SOL    HW2 1823   0.652   2.839   0.211
  601SOL     OW 1824   1.594   1.976   1.480
  601SOL    HW1 1825   1.576   2.043   1.408
  601SOL    HW2 1826   1.591   2.022   1.569
  602SOL     OW 1827   0.122   2.505   0.563
  602SOL    HW1 1828   0.077   2.417   0.580
  602SOL    HW2 1829   0.121   2.559   0.647
  603SOL     OW 1830   1.842   3.629   0.359
  603SOL    HW1 1831   1.896   3.600   0.439
  603SOL    HW2 1832   1.872   3.719   0.330
  604SOL     OW 1833   0.027   3.458   0.117
  604SOL    HW1 1834   0.008   3.362   0.138
  604SOL    HW2 1835  -0.006   3.516   0.192
  605SOL     OW 1836   1.689   2.784   0.612
  605SOL    HW1 1837   1.784   2.755   0.620
  605SOL    HW2 1838   1.681   2.849   0.537
  606SOL     OW 1839   1.641   2.970   0.432
  606SOL    HW1 1840   1.727   2.972   0.380
  606SOL    HW2 1841   1.655   3.017   0.520
  607SOL     OW 1842   0.113   2.599   1.597
  607SOL    HW1 1843   0.201   2.586   1.642
  607SOL    HW2 1844   0.100   2.696   1.575
  608SOL     OW 1845   0.613   3.227   0.726
  608SOL    HW1 1846   0.564   3.140   0.735
  608SOL    HW2 1847   0.590   3.270   0.639
  609SOL     OW 1848   1.293   3.090   1.423
  609SOL    HW1 1849   1.330   3.017   1.365
  609SOL    HW2 1850   1.345   3.095   1.508
  610SOL     OW 1851   0.809   1.866   0.502
  610SOL    HW1 1852   0.849   1.957   0.493
  610SOL    HW2 1853   0.709   1.874   0.508
  611SOL     OW 1854   0.197   2.838   1.264
  611SOL    HW1 1855   0.286   2.793   1.250
  611SOL    HW2 1856   0.124   2.773   1.245
  612SOL     OW 1857   1.525   2.861   0.190
  612SOL    HW1 1858   1.462   2.785   0.203
  612SOL    HW2 1859   1.573   2.879   0.276
  613SOL     OW 1860   1.187   3.654   1.616
  613SOL    HW1 1861   1.211   3.714   1.540
  613SOL    HW2 1862   1.194   3.559   1.586
  614SOL     OW 1863   0.317   2.113   1.801
  614SOL    HW1 1864   0.388   2.184   1.807
  614SOL    HW2 1865   0.229   2.152   1.829
  615SOL     OW 1866   1.466   3.279   0.953
  615SOL    HW1 1867   1.407   3.285   1.033
  615SOL    HW2 1868   1.451   3.191   0.907
  616SOL     OW 1869   1.667   3.576   0.572
  616SOL    HW1 1870   1.626   3.553   0.484
  616SOL    HW2 1871   1.649   3.502   0.637
  617SOL     OW 1872   0.598   2.591   0.270
  617SOL    HW1 1873   0.622   2.660   0.202
  617SOL    HW2 1874   0.520   2.624   0.324
  618SOL     OW 1875   1.281   2.207   0.944
  618SOL    HW1 1876   1.195   2.157   0.931
  618SOL    HW2 1877   1.343   2.153   1.000
  619SOL     OW 1878   1.576   3.524   0.307
  619SOL    HW1 1879   1.665   3.570   0.310
  619SOL    HW2 1880   1.555   3.500   0.212
  620SOL     OW 1881   0.807   2.467   1.465
  620SOL    HW1 1882   0.760   2.464   1.554
  620SOL    HW2 1883   0.756   2.412   1.399
  621SOL     OW 1884   1.394   2.331   1.674
  621SOL    HW1 1885   1.374   2.374   1.762
  621SOL    HW2 1886   1.472   2.269   1.683
  622SOL     OW 1887   0.973   2.752   1.572
  622SOL    HW1 1888   1.019   2.668   1.543
  622SOL    HW2 1889   0.917   2.786   1.497
  623SOL     OW 1890   0.991   2.272   1.242
  623SOL    HW1 1891   0.914   2.306   1.296
  623SOL    HW2 1892   0.957   2.221   1.163
  624SOL     OW 1893   1.041   2.563   0.429
  624SOL    HW1 1894   1.067   2.559   0.525
  624SOL    HW2 1895   0.956   2.512   0.415
  625SOL     OW 1896   0.076   2.673   0.789
  625SOL    HW1 1897   0.175   2.661   0.798
  625SOL    HW2 1898   0.052   2.768   0.810
  626SOL     OW 1899   0.130   3.683   1.571
  626SOL    HW1 1900   0.120   3.668   1.670
  626SOL    HW2 1901   0.044   3.719   1.535
  627SOL     OW 1902   0.865   2.210   0.195
  627SOL    HW1 1903   0.924   2.273   0.146
  627SOL    HW2 1904   0.884   2.116   0.166
  628SOL     OW 1905   1.719   2.447   1.831
  628SOL    HW1 1906   1.693   2.536   1.795
  628SOL    HW2 1907   1.717   2.379   1.758
  629SOL     OW 1908   1.362   3.006   0.545
  629SOL    HW1 1909   1.445   2.977   0.497
  629SOL    HW2 1910   1.313   3.073   0.489
  630SOL     OW 1911   0.550   2.058   0.885
  630SOL    HW1 1912   0.545   2.053   0.985
  630SOL    HW2 1913   0.552   2.154   0.856
  631SOL     OW 1914   1.008   3.318   0.477
  631SOL    HW1 1915   0.962   3.390   0.425
  631SOL    HW2 1916   1.004   3.338   0.575
  632SOL     OW 1917   0.351   3.663   0.853
  632SOL    HW1 1918   0.401   3.577   0.859
  632SOL    HW2 1919   0.416   3.740   0.850
  633SOL     OW 1920   1.795   2.928   0.873
  633SOL    HW1 1921   1.733   2.913   0.797
  633SOL    HW2 1922   1.743   2.939   0.958
  634SOL     OW 1923   1.227   3.412   1.506
  634SOL    HW1 1924   1.233   3.335   1.570
  634SOL    HW2 1925   1.175   3.386   1.426
  635SOL     OW 1926   0.321   2.805   0.242
  635SOL    HW1 1927   0.403   2.844   0.200
  635SOL    HW2 1928   0.294   2.723   0.193
  636SOL     OW 1929   1.458   2.597   0.728
  636SOL    HW1 1930   1.453   2.532   0.803
  636SOL    HW2 1931   1.538   2.656   0.741
  637SOL     OW 1932   0.461   3.128   1.727
  637SOL    HW1 1933   0.411   3.129   1.641
  637SOL    HW2 1934   0.398   3.110   1.803
  638SOL     OW 1935   1.111   3.638   0.237
  638SOL    HW1 1936   1.051   3.576   0.287
  638SOL    HW2 1937   1.142   3.594   0.152
  639SOL     OW 1938   0.202   2.147   1.498
  639SOL    HW1 1939   0.122   2.207   1.485
  639SOL    HW2 1940   0.192   2.098   1.584
  640SOL     OW 1941   1.632   3.239   0.081
  640SOL    HW1 1942   1.600   3.333   0.071
  640SOL    HW2 1943   1.556   3.176   0.069
  641SOL     OW 1944   0.464   3.605   0.323
  641SOL    HW1 1945   0.497   3.644   0.409
  641SOL    HW2 1946   0.540   3.598   0.258
  642SOL     OW 1947   1.400   1.969   0.426
  642SOL    HW1 1948   1.376   1.932   0.336
  642SOL    HW2 1949   1.499   1.985   0.430
  643SOL     OW 1950   0.249   3.647   1.241
  643SOL    HW1 1951   0.306   3.582   1.291
  643SOL    HW2 1952   0.233   3.614   1.148
  644SOL     OW 1953   0.940   3.560   0.904
  644SOL    HW1 1954   1.020   3.503   0.925
  644SOL    HW2 1955   0.891   3.520   0.827
  645SOL     OW 1956   0.382   2.562   0.480
  645SOL    HW1 1957   0.427   2.472   0.477
  645SOL    HW2 1958   0.288   2.551   0.513
  646SOL     OW 1959   1.547   2.084   1.729
  646SOL    HW1 1960   1.542   2.121   1.821
  646SOL    HW2 1961   1.475   2.015   1.717
  647SOL     OW 1962   0.614   1.984   0.117
  647SOL    HW1 1963   0.712   1.962   0.124
  647SOL    HW2 1964   0.583   1.967   0.024
  648SOL     OW 1965   0.781   2.126   1.749
  648SOL    HW1 1966   0.848   2.065   1.792
  648SOL    HW2 1967   0.708   2.145   1.814
  649SOL     OW 1968   0.888   3.376   1.195
  649SOL    HW1 1969   0.865   3.351   1.101
  649SOL    HW2 1970   0.949   3.307   1.234
  650SOL     OW 1971   1.351   2.452   1.433
  650SOL    HW1 1972   1.379   2.409   1.518
  650SOL    HW2 1973   1.376   2.548   1.434
  651SOL     OW 1974   0.803   3.264   0.924
  651SOL    HW1 1975   0.893   3.278   0.882
  651SOL    HW2 1976   0.732   3.266   0.853
  652SOL     OW 1977   0.922   2.365   0.899
  652SOL    HW1 1978   0.897   2.356   0.803
  652SOL    HW2 1979   0.970   2.283   0.930
  653SOL     OW 1980   0.539   1.926   0.512
  653SOL    HW1 1981   0.458   1.927   0.570
  653SOL    HW2 1982   0.542   2.009   0.457
  654SOL     OW 1983   1.434   3.050   0.041
  654SOL    HW1 1984   1.466   2.974   0.098
  654SOL    HW2 1985   1.342   3.077   0.071
  655SOL     OW 1986   0.297   1.897   0.171
  655SOL    HW1 1987   0.346   1.981   0.150
  655SOL    HW2 1988   0.359   1.832   0.216
  656SOL     OW 1989   0.935   2.098   0.480
  656SOL    HW1 1990   0.887   2.139   0.402
  656SOL    HW2 1991   1.034   2.096   0.461
  657SOL     OW 1992   1.076   2.545   1.464
  657SOL    HW1 1993   0.996   2.484   1.467
  657SOL    HW2 1994   1.157   2.492   1.440
  658SOL     OW 1995   1.227   3.432   0.793
  658SOL    HW1 1996   1.248   3.506   0.728
  658SOL    HW2 1997   1.295   3.432   0.866
  659SOL     OW 1998   0.459   3.014   0.741
  659SOL    HW1 1999   0.388   2.987   0.806
  659SOL    HW2 2000   0.433   2.986   0.648
  660SOL     OW 2001   1.271   3.659   0.591
  660SOL    HW1 2002   1.315   3.723   0.527
  660SOL    HW2 2003   1.221   3.711   0.661
  661SOL     OW 2004   1.032   2.411   0.016
  661SOL    HW1 2005   0.991   2.493  -0.023
  661SOL    HW2 2006   1.096   2.437   0.089
  662SOL     OW 2007   0.078   2.418   1.386
  662SOL    HW1 2008   0.170   2.417   1.345
  662SOL    HW2 2009   0.072   2.492   1.453
  663SOL     OW 2010   0.561   2.084   1.147
  663SOL    HW1 2011   0.599   2.000   1.184
  663SOL    HW2 2012   0.473   2.103   1.191
  664SOL     OW 2013   0.866   2.316   0.642
  664SOL    HW1 2014   0.834   2.388   0.580
  664SOL    HW2 2015   0.890   2.235   0.589
  665SOL     OW 2016   1.017   1.901   0.753
  665SOL    HW1 2017   0.945   1.906   0.684
  665SOL    HW2 2018   0.993   1.832   0.822
  666SOL     OW 2019   1.429   3.035   0.867
  666SOL    HW1 2020   1.374   2.951   0.860
  666SOL    HW2 2021   1.455   3.064   0.775
  667SOL     OW 2022   1.466   2.452   0.992
  667SOL    HW1 2023   1.436   2.357   0.999
  667SOL    HW2 2024   1.539   2.468   1.058
  668SOL     OW 2025   1.857   2.695   0.377
  668SOL    HW1 2026   1.899   2.631   0.441
  668SOL    HW2 2027   1.819   2.644   0.299
  669SOL     OW 2028   0.488   3.247   0.174
  669SOL    HW1 2029   0.401   3.232   0.221
  669SOL    HW2 2030   0.471   3.273   0.079
  670SOL     OW 2031   1.664   3.142   0.657
  670SOL    HW1 2032   1.763   3.150   0.671
  670SOL    HW2 2033   1.619   3.226   0.688
  671SOL     OW 2034   1.390   2.437   0.078
  671SOL    HW1 2035   1.336   2.416   0.159
  671SOL    HW2 2036   1.481   2.396   0.087
  672SOL     OW 2037   0.527   2.118   0.328
  672SOL    HW1 2038   0.554   2.059   0.253
  672SOL    HW2 2039   0.527   2.213   0.297
  673SOL     OW 2040   1.754   3.085   1.588
  673SOL    HW1 2041   1.845   3.046   1.575
  673SOL    HW2 2042   1.762   3.181   1.612
  674SOL     OW 2043   1.064   3.209   1.340
  674SOL    HW1 2044   0.984   3.186   1.395
  674SOL    HW2 2045   1.147   3.183   1.389
  675SOL     OW 2046   1.592   3.491   1.625
  675SOL    HW1 2047   1.619   3.525   1.535
  675SOL    HW2 2048   1.671   3.453   1.671
  676SOL     OW 2049   1.111   3.057   1.100
  676SOL    HW1 2050   1.071   3.101   1.181
  676SOL    HW2 2051   1.070   3.094   1.017
  677SOL     OW 2052   1.638   2.961   1.079
  677SOL    HW1 2053   1.643   3.042   1.138
  677SOL    HW2 2054   1.552   2.963   1.028
  678SOL     OW 2055   0.915   1.951   1.402
  678SOL    HW1 2056   0.940   1.931   1.307
  678SOL    HW2 2057   0.987   2.007   1.444
  679SOL     OW 2058   0.980   2.978   1.719
  679SOL    HW1 2059   0.881   2.984   1.729
  679SOL    HW2 2060   1.003   2.898   1.663
  680SOL     OW 2061   0.705   2.912   0.368
  680SOL    HW1 2062   0.691   2.919   0.467
  680SOL    HW2 2063   0.789   2.861   0.350
  681SOL     OW 2064   0.410   2.675   1.251
  681SOL    HW1 2065   0.496   2.687   1.301
  681SOL    HW2 2066   0.368   2.588   1.278
  682SOL     OW 2067   1.274   2.248   1.262
  682SOL    HW1 2068   1.295   2.322   1.326
  682SOL    HW2 2069   1.185   2.265   1.219
  683SOL     OW 2070   0.064   3.426   1.331
  683SOL    HW1 2071   0.018   3.508   1.297
  683SOL    HW2 2072   0.162   3.445   1.340
  684SOL     OW 2073   0.367   2.962   0.501
  684SOL    HW1 2074   0.360   3.045   0.445
  684SOL    HW2 2075   0.371   2.882   0.441
  685SOL     OW 2076   0.566   2.399   0.865
  685SOL    HW1 2077   0.578   2.465   0.791
  685SOL    HW2 2078   0.612   2.433   0.948
  686SOL     OW 2079   1.252   3.210   0.388
  686SOL    HW1 2080   1.302   3.287   0.428
  686SOL    HW2 2081   1.157   3.212   0.420
  687SOL     OW 2082   1.272   3.307   1.142
  687SOL    HW1 2083   1.319   3.320   1.229
  687SOL    HW2 2084   1.206   3.233   1.151
  688SOL     OW 2085   1.582   2.501   0.472
  688SOL    HW1 2086   1.551   2.562   0.545
  688SOL    HW2 2087   1.632   2.553   0.403
  689SOL     OW 2088   0.354   3.372   1.329
  689SOL    HW1 2089   0.333   3.328   1.242
  689SOL    HW2 2090   0.451   3.398   1.332
  690SOL     OW 2091   0.402   2.613   1.598
  690SOL    HW1 2092   0.470   2.668   1.551
  690SOL    HW2 2093   0.442   2.525   1.625
  691SOL     OW 2094   1.587   2.641   1.670
  691SOL    HW1 2095   1.495   2.679   1.665
  691SOL    HW2 2096   1.647   2.688   1.605
  692SOL     OW 2097   1.013   1.967   1.770
  692SOL    HW1 2098   1.019   2.052   1.718
  692SOL    HW2 2099   1.045   1.891   1.713
  693SOL     OW 2100   0.504   1.912   1.740
  693SOL    HW1 2101   0.462   1.855   1.670
  693SOL    HW2 2102   0.438   1.981   1.772
  694SOL     OW 2103   0.573   2.732   1.029
  694SOL    HW1 2104   0.617   2.821   1.020
  694SOL    HW2 2105   0.510   2.732   1.106
  695SOL     OW 2106   1.360   2.724   1.045
  695SOL    HW1 2107   1.285   2.724   0.979
  695SOL    HW2 2108   1.397   2.632   1.054
  696SOL     OW 2109   1.209   2.387   0.275
  696SOL    HW1 2110   1.222   2.303   0.329
  696SOL    HW2 2111   1.180   2.461   0.335
  697SOL     OW 2112   0.307   2.075   1.231
  697SOL    HW1 2113   0.284   2.112   1.321
  697SOL    HW2 2114   0.277   1.980   1.225
  698SOL     OW 2115   0.037   3.172   1.282
  698SOL    HW1 2116   0.090   3.123   1.350
  698SOL    HW2 2117   0.059   3.270   1.287
  699SOL     OW 2118   0.732   2.496   1.064
  699SOL    HW1 2119   0.791   2.470   0.988
  699SOL    HW2 2120   0.704   2.592   1.053
  700SOL     OW 2121   1.728   2.797   1.854
  700SOL    HW1 2122   1.682   2.790   1.765
  700SOL    HW2 2123   1.666   2.841   1.920
  701SOL     OW 2124   0.307   1.925   0.618
  701SOL    HW1 2125   0.296   2.019   0.651
  701SOL    HW2 2126   0.302   1.862   0.695
  702SOL     OW 2127   1.622   2.229   0.374
  702SOL    HW1 2128   1.624   2.153   0.438
  702SOL    HW2 2129   1.574   2.306   0.414
  703SOL     OW 2130   1.023   2.628   0.966
  703SOL    HW1 2131   1.038   2.649   1.062
  703SOL    HW2 2132   0.993   2.533   0.957
  704SOL     OW 2133   0.980   3.435   1.700
  704SOL    HW1 2134   0.960   3.479   1.612
  704SOL    HW2 2135   1.019   3.344   1.684
  705SOL     OW 2136   1.859   3.380   1.605
  705SOL    HW1 2137   1.873   3.407   1.510
  705SOL    HW2 2138   1.942   3.402   1.658
  706SOL     OW 2139   0.350   2.760   1.804
  706SOL    HW1 2140   0.426   2.804   1.852
  706SOL    HW2 2141   0.385   2.713   1.722
  707SOL     OW 2142   1.540   2.136   0.125
  707SOL    HW1 2143   1.479   2.061   0.148
  707SOL    HW2 2144   1.562   2.188   0.208
  708SOL     OW 2145   1.303   2.700   0.042
  708SOL    HW1 2146   1.337   2.607   0.057
  708SOL    HW2 2147   1.321   2.727  -0.053
  709SOL     OW 2148   1.068   3.195   0.849
  709SOL    HW1 2149   1.075   3.111   0.794
  709SOL    HW2 2150   1.130   3.264   0.813
  710SOL     OW 2151   0.319   2.672   0.949
  710SOL    HW1 2152   0.412   2.708   0.954
  710SOL    HW2 2153   0.313   2.587   1.001
  711SOL     OW 2154   0.339   2.371   1.006
  711SOL    HW1 2155   0.287   2.288   0.989
  711SOL    HW2 2156   0.416   2.376   0.942
  712SOL     OW 2157   1.138   2.242   1.678
  712SOL    HW1 2158   1.093   2.305   1.742
  712SOL    HW2 2159   1.231   2.273   1.661
  713SOL     OW 2160   1.160   2.069   1.477
  713SOL    HW1 2161   1.160   2.133   1.554
  713SOL    HW2 2162   1.188   2.117   1.394
  714SOL     OW 2163   0.008   3.188   0.200
  714SOL    HW1 2164  -0.085   3.209   0.169
  714SOL    HW2 2165   0.018   3.089   0.213
  715SOL     OW 2166   0.088   3.663   0.927
  715SOL    HW1 2167   0.046   3.577   0.900
  715SOL    HW2 2168   0.182   3.666   0.893
  716SOL     OW 2169   0.504   3.430   0.910
  716SOL    HW1 2170   0.570   3.504   0.919
  716SOL    HW2 2171   0.548   3.351   0.868
  717SOL     OW 2172   1.002   2.658   1.238
  717SOL    HW1 2173   1.043   2.626   1.324
  717SOL    HW2 2174   0.906   2.631   1.235
  718SOL     OW 2175   0.040   2.406   1.114
  718SOL    HW1 2176   0.125   2.373   1.073
  718SOL    HW2 2177   0.053   2.421   1.212
  719SOL     OW 2178   0.189   2.382   1.722
  719SOL    HW1 2179   0.248   2.342   1.652
  719SOL    HW2 2180   0.131   2.453   1.681
  720SOL     OW 2181   1.369   2.812   1.660
  720SOL    HW1 2182   1.408   2.901   1.680
  720SOL    HW2 2183   1.379   2.792   1.563
  721SOL     OW 2184   0.815   2.434   0.325
  721SOL    HW1 2185   0.822   2.345   0.279
  721SOL    HW2 2186   0.721   2.468   0.317
  722SOL     OW 2187   1.657   2.466   1.206
  722SOL    HW1 2188   1.619   2.397   1.268
  722SOL    HW2 2189   1.739   2.430   1.162
  723SOL     OW 2190   0.252   3.426   1.744
  723SOL    HW1 2191   0.222   3.483   1.820
  723SOL    HW2 2192   0.245   3.329   1.770
  724SOL     OW 2193   0.671   2.326   1.269
  724SOL    HW1 2194   0.637   2.237   1.239
  724SOL    HW2 2195   0.697   2.380   1.189
  725SOL     OW 2196   0.930   3.540   1.465
  725SOL    HW1 2197   0.906   3.522   1.370
  725SOL    HW2 2198   0.960   3.634   1.475
  726SOL     OW 2199   0.473   2.362   0.191
  726SOL    HW1 2200   0.534   2.442   0.195
  726SOL    HW2 2201   0.378   2.393   0.198
  727SOL     OW 2202   0.159   2.999   1.466
  727SOL    HW1 2203   0.181   2.938   1.542
  727SOL    HW2 2204   0.169   2.950   1.380
  728SOL     OW 2205   1.347   2.921   1.234
  728SOL    HW1 2206   1.371   2.858   1.160
  728SOL    HW2 2207   1.257   2.961   1.216
  729SOL     OW 2208   1.302   2.717   0.309
  729SOL    HW1 2209   1.216   2.686   0.351
  729SOL    HW2 2210   1.298   2.703   0.210
  730SOL     OW 2211   1.759   3.609   1.154
  730SOL    HW1 2212   1.820   3.639   1.081
  730SOL    HW2 2213   1.721   3.520   1.132
  731SOL     OW 2214   1.252   3.593   1.128
  731SOL    HW1 2215   1.336   3.598   1.074
  731SOL    HW2 2216   1.229   3.497   1.146
  732SOL     OW 2217   0.083   3.120   1.022
  732SOL    HW1 2218   0.078   3.119   1.122
  732SOL    HW2 2219   0.000   3.079   0.984
  733SOL     OW 2220   0.688   3.524   1.716
  733SOL    HW1 2221   0.632   3.605   1.725
  733SOL    HW2 2222   0.740   3.528   1.630
  734SOL     OW 2223   0.903   1.948   0.133
  734SOL    HW1 2224   0.954   1.949   0.047
  734SOL    HW2 2225   0.959   1.906   0.204
  735SOL     OW 2226   1.726   1.997   0.523
  735SOL    HW1 2227   1.799   1.980   0.456
  735SOL    HW2 2228   1.695   1.910   0.561
  736SOL     OW 2229   1.388   3.435   0.477
  736SOL    HW1 2230   1.455   3.447   0.403
  736SOL    HW2 2231   1.348   3.524   0.500
  737SOL     OW 2232   0.130   3.656   1.851
  737SOL    HW1 2233   0.089   3.582   1.904
  737SOL    HW2 2234   0.194   3.707   1.909
  738SOL     OW 2235   1.280   2.789   0.672
  738SOL    HW1 2236   1.340   2.708   0.674
  738SOL    HW2 2237   1.320   2.858   0.612
  739SOL     OW 2238   0.830   3.135   1.422
  739SOL    HW1 2239   0.825   3.168   1.517
  739SOL    HW2 2240   0.744   3.154   1.376
  740SOL     OW 2241   0.672   3.478   0.154
  740SOL    HW1 2242   0.681   3.488   0.055
  740SOL    HW2 2243   0.632   3.389   0.175
  741SOL     OW 2244   1.650   3.582   1.394
  741SOL    HW1 2245   1.703   3.592   1.310
  741SOL    HW2 2246   1.623   3.672   1.428
  742SOL     OW 2247   1.841   2.037   0.963
  742SOL    HW1 2248   1.880   1.952   0.927
  742SOL    HW2 2249   1.743   2.039   0.944
  743SOL     OW 2250   0.263   2.188   0.720
  743SOL    HW1 2251   0.184   2.239   0.686
  743SOL    HW2 2252   0.254   2.173   0.818
  744SOL     OW 2253   1.194   3.474   0.031
  744SOL    HW1 2254   1.200   3.381   0.068
  744SOL    HW2 2255   1.135   3.474  -0.049
  745SOL     OW 2256   0.822   2.864   1.372
  745SOL    HW1 2257   0.862   2.863   1.280
  745SOL    HW2 2258   0.832   2.956   1.412
  746SOL     OW 2259   0.916   2.772   0.291
  746SOL    HW1 2260   0.979   2.810   0.223
  746SOL    HW2 2261   0.956   2.689   0.330
  747SOL     OW 2262   1.504   3.469   0.044
  747SOL    HW1 2263   1.412   3.506   0.051
  747SOL    HW2 2264   1.542   3.489  -0.046
  748SOL     OW 2265   0.372   3.150   1.490
  748SOL    HW1 2266   0.359   3.243   1.456
  748SOL    HW2 2267   0.288   3.098   1.477
  749SOL     OW 2268   1.614   3.154   1.289
  749SOL    HW1 2269   1.674   3.157   1.369
  749SOL    HW2 2270   1.539   3.218   1.302
  750SOL     OW 2271   1.039   2.960   0.696
  750SOL    HW1 2272   0.969   2.913   0.750
  750SOL    HW2 2273   1.098   2.892   0.653
  751SOL     OW 2274   1.014   2.098   0.971
  751SOL    HW1 2275   1.006   2.062   0.878
  751SOL    HW2 2276   1.012   2.022   1.036
  752SOL     OW 2277   0.590   3.349   0.491
  752SOL    HW1 2278   0.632   3.291   0.421
  752SOL    HW2 2279   0.546   3.428   0.447
  753SOL     OW 2280   1.709   2.247   1.381
  753SOL    HW1 2281   1.782   2.316   1.385
  753SOL    HW2 2282   1.737   2.172   1.322
  754SOL     OW 2283   0.255   3.210   0.290
  754SOL    HW1 2284   0.159   3.211   0.263
  754SOL    HW2 2285   0.267   3.263   0.374
  755SOL     OW 2286   0.105   2.875   1.726
  755SOL    HW1 2287   0.028   2.842   1.780
  755SOL    HW2 2288   0.190   2.845   1.768
  756SOL     OW 2289   0.672   2.065   1.489
  756SOL    HW1 2290   0.762   2.049   1.449
  756SOL    HW2 2291   0.680   2.070   1.588
  757SOL     OW 2292   0.075   2.207   0.033
  757SOL    HW1 2293  -0.017   2.179   0.004
  757SOL    HW2 2294   0.106   2.284  -0.023
  758SOL     OW 2295   1.440   2.718   1.398
  758SOL    HW1 2296   1.383   2.770   1.335
  758SOL    HW2 2297   1.536   2.730   1.374
  759SOL     OW 2298   0.072   2.028   0.318
  759SOL    HW1 2299   0.055   2.111   0.264
  759SOL    HW2 2300   0.162   1.991   0.296
  760SOL     OW 2301   1.183   3.197   0.119
  760SOL    HW1 2302   1.084   3.186   0.121
  760SOL    HW2 2303   1.217   3.212   0.212
  761SOL     OW 2304   0.613   2.704   1.431
  761SOL    HW1 2305   0.669   2.785   1.414
  761SOL    HW2 2306   0.672   2.624   1.434
  762SOL     OW 2307   1.493   3.629   0.959
  762SOL    HW1 2308   1.526   3.693   0.890
  762SOL    HW2 2309   1.559   3.623   1.034
  763SOL     OW 2310   0.716   2.427   1.708
  763SOL    HW1 2311   0.735   2.492   1.782
  763SOL    HW2 2312   0.776   2.347   1.717
  764SOL     OW 2313   1.450   3.082   1.633
  764SOL    HW1 2314   1.441   3.072   1.732
  764SOL    HW2 2315   1.546   3.075   1.607
  765SOL     OW 2316   0.390   3.603   1.560
  765SOL    HW1 2317   0.299   3.644   1.558
  765SOL    HW2 2318   0.383   3.509   1.592
  766SOL     OW 2319   1.674   2.745   1.254
  766SOL    HW1 2320   1.647   2.656   1.217
  766SOL    HW2 2321   1.675   2.813   1.181
  767SOL     OW 2322   1.225   2.187   0.449
  767SOL    HW1 2323   1.290   2.113   0.438
  767SOL    HW2 2324   1.245   2.237   0.533
  768SOL     OW 2325   0.594   2.607   0.652
  768SOL    HW1 2326   0.644   2.692   0.633
  768SOL    HW2 2327   0.506   2.609   0.604
  769SOL     OW 2328   1.777   2.204   1.642
  769SOL    HW1 2329   1.760   2.235   1.548
  769SOL    HW2 2330   1.693   2.167   1.680
  770SOL     OW 2331   1.730   2.796   1.517
  770SOL    HW1 2332   1.768   2.887   1.532
  770SOL    HW2 2333   1.722   2.779   1.418
  771SOL     OW 2334   0.859   3.236   0.016
  771SOL    HW1 2335   0.813   3.251   0.104
  771SOL    HW2 2336   0.903   3.321  -0.014
  772SOL     OW 2337   0.661   3.652   0.953
  772SOL    HW1 2338   0.615   3.740   0.940
  772SOL    HW2 2339   0.760   3.664   0.946
  773SOL     OW 2340   0.859   2.818   0.861
  773SOL    HW1 2341   0.913   2.749   0.909
  773SOL    HW2 2342   0.827   2.887   0.927
  774SOL     OW 2343   1.083   2.846   0.087
  774SOL    HW1 2344   1.060   2.899   0.005
  774SOL    HW2 2345   1.164   2.790   0.068
  775SOL     OW 2346   1.861   3.431   0.851
  775SOL    HW1 2347   1.790   3.419   0.781
  775SOL    HW2 2348   1.862   3.352   0.911
  776SOL     OW 2349   0.221   3.176   1.844
  776SOL    HW1 2350   0.156   3.103   1.823
  776SOL    HW2 2351   0.225   3.190   1.942
  777SOL     OW 2352   0.079   3.102   0.653
  777SOL    HW1 2353   0.078   3.055   0.741
  777SOL    HW2 2354   0.161   3.074   0.602
  778SOL     OW 2355   0.672   3.253   1.624
  778SOL    HW1 2356   0.594   3.203   1.662
  778SOL    HW2 2357   0.669   3.348   1.655
  779SOL     OW 2358   1.824   2.054   1.227
  779SOL    HW1 2359   1.820   1.964   1.271
  779SOL    HW2 2360   1.827   2.043   1.128
  780SOL     OW 2361   0.428   2.286   0.520
  780SOL    HW1 2362   0.458   2.214   0.458
  780SOL    HW2 2363   0.389   2.246   0.603
  781SOL     OW 2364   1.705   3.349   1.104
  781SOL    HW1 2365   1.612   3.324   1.077
  781SOL    HW2 2366   1.731   3.299   1.186
  782SOL     OW 2367   0.317   2.409   1.280
  782SOL    HW1 2368   0.355   2.350   1.352
  782SOL    HW2 2369   0.357   2.383   1.192
  783SOL     OW 2370   0.812   3.448   0.687
  783SOL    HW1 2371   0.844   3.458   0.593
  783SOL    HW2 2372   0.733   3.386   0.689
  784SOL     OW 2373   1.424   2.076   1.112
  784SOL    HW1 2374   1.476   2.011   1.167
  784SOL    HW2 2375   1.375   2.139   1.173
  785SOL     OW 2376   1.001   1.896   1.154
  785SOL    HW1 2377   0.938   1.824   1.123
  785SOL    HW2 2378   1.094   1.860   1.154
  786SOL     OW 2379   0.770   3.192   0.301
  786SOL    HW1 2380   0.724   3.105   0.318
  786SOL    HW2 2381   0.861   3.189   0.342
  787SOL     OW 2382   0.618   3.429   1.284
  787SOL    HW1 2383   0.613   3.511   1.341
  787SOL    HW2 2384   0.707   3.426   1.239
  788SOL     OW 2385   1.352   1.914   0.168
  788SOL    HW1 2386   1.387   1.873   0.084
  788SOL    HW2 2387   1.262   1.876   0.188
  789SOL     OW 2388   1.300   2.315   0.691
  789SOL    HW1 2389   1.241   2.395   0.695
  789SOL    HW2 2390   1.315   2.280   0.784
  790SOL     OW 2391   1.593   2.083   0.882
  790SOL    HW1 2392   1.509   2.082   0.936
  790SOL    HW2 2393   1.595   2.166   0.826
  791SOL     OW 2394   0.039   2.939   0.300
  791SOL    HW1 2395   0.138   2.928   0.291
  791SOL    HW2 2396  -0.001   2.853   0.332
  792SOL     OW 2397   0.875   3.508   0.337
  792SOL    HW1 2398   0.798   3.473   0.283
  792SOL    HW2 2399   0.843   3.579   0.399
  793SOL     OW 2400   0.230   2.490   1.975
  793SOL    HW1 2401   0.137   2.488   2.012
  793SOL    HW2 2402   0.231   2.451   1.883
  794SOL     OW 2403   0.225   2.137   2.858
  794SOL    HW1 2404   0.260   2.120   2.950
  794SOL    HW2 2405   0.137   2.092   2.846
  795SOL     OW 2406   0.019   2.230   2.509
  795SOL    HW1 2407  -0.063   2.273   2.548
  795SOL    HW2 2408  -0.009   2.157   2.446
  796SOL     OW 2409   0.569   3.137   3.027
  796SOL    HW1 2410   0.476   3.130   2.990
  796SOL    HW2 2411   0.580   3.226   3.071
  797SOL     OW 2412   1.555   3.373   2.565
  797SOL    HW1 2413   1.498   3.357   2.646
  797SOL    HW2 2414   1.496   3.383   2.485
  798SOL     OW 2415   1.135   2.565   2.579
  798SOL    HW1 2416   1.192   2.643   2.554
  798SOL    HW2 2417   1.075   2.591   2.655
  799SOL     OW 2418   1.755   2.469   2.093
  799SOL    HW1 2419   1.743   2.456   1.994
  799SOL    HW2 2420   1.725   2.388   2.142
  800SOL     OW 2421   0.768   3.006   2.885
  800SOL    HW1 2422   0.690   3.023   2.945
  800SOL    HW2 2423   0.802   3.093   2.849
  801SOL     OW 2424   0.850   2.660   3.685
  801SOL    HW1 2425   0.846   2.736   3.750
  801SOL    HW2 2426   0.872   2.696   3.594
  802SOL     OW 2427   0.685   2.874   2.527
  802SOL    HW1 2428   0.754   2.858   2.597
  802SOL    HW2 2429   0.612   2.931   2.565
  803SOL     OW 2430   0.686   3.023   3.665
  803SOL    HW1 2431   0.746   3.102   3.679
  803SOL    HW2 2432   0.600   3.054   3.624
  804SOL     OW 2433   0.335   3.297   2.923
  804SOL    HW1 2434   0.257   3.266   2.870
  804SOL    HW2 2435   0.393   3.355   2.866
  805SOL     OW 2436   1.460   3.367   3.201
  805SOL    HW1 2437   1.484   3.461   3.227
  805SOL    HW2 2438   1.444   3.313   3.283
  806SOL     OW 2439   0.438   2.254   3.361
  806SOL    HW1 2440   0.520   2.198   3.370
  806SOL    HW2 2441   0.357   2.196   3.365
  807SOL     OW 2442   1.603   2.309   2.599
  807SOL    HW1 2443   1.529   2.355   2.549
  807SOL    HW2 2444   1.654   2.377   2.652
  808SOL     OW 2445   0.231   3.575   2.345
  808SOL    HW1 2446   0.265   3.652   2.399
  808SOL    HW2 2447   0.275   3.575   2.255
  809SOL     OW 2448   1.127   3.203   3.552
  809SOL    HW1 2449   1.174   3.203   3.640
  809SOL    HW2 2450   1.079   3.116   3.541
  810SOL     OW 2451   0.230   3.296   2.400
  810SOL    HW1 2452   0.204   3.392   2.400
  810SOL    HW2 2453   0.159   3.242   2.445
  811SOL     OW 2454   0.240   2.953   2.748
  811SOL    HW1 2455   0.254   2.869   2.800
  811SOL    HW2 2456   0.185   3.017   2.803
  812SOL     OW 2457   0.620   3.648   3.301
  812SOL    HW1 2458   0.528   3.631   3.336
  812SOL    HW2 2459   0.648   3.740   3.327
  813SOL     OW 2460   0.606   2.826   1.985
  813SOL    HW1 2461   0.613   2.910   1.931
  813SOL    HW2 2462   0.652   2.839   2.073
  814SOL     OW 2463   1.594   1.976   3.342
  814SOL    HW1 2464   1.576   2.043   3.270
  814SOL    HW2 2465   1.591   2.022   3.431
  815SOL     OW 2466   0.122   2.505   2.425
  815SOL    HW1 2467   0.077   2.417   2.442
  815SOL    HW2 2468   0.121   2.559   2.509
  816SOL     OW 2469   1.842   3.629   2.221
  816SOL    HW1 2470   1.896   3.600   2.301
  816SOL    HW2 2471   1.872   3.719   2.192
  817SOL     OW 2472   0.027   3.458   1.979
  817SOL    HW1 2473   0.008   3.362   2.000
  817SOL    HW2 2474  -0.006   3.516   2.054
  818SOL     OW 2475   1.689   2.784   2.474
  818SOL    HW1 2476   1.784   2.755   2.482
  818SOL    HW2 2477   1.681   2.849   2.399
  819SOL     OW 2478   1.641   2.970   2.294
  819SOL    HW1 2479   1.727   2.972   2.242
  819SOL    HW2 2480   1.655   3.017   2.382
  820SOL     OW 2481   0.113   2.599   3.459
  820SOL    HW1 2482   0.201   2.586   3.504
  820SOL    HW2 2483   0.100   2.696   3.437
  821SOL     OW 2484   0.613   3.227   2.588
  821SOL    HW1 2485   0.564   3.140   2.597
  821SOL    HW2 2486   0.590   3.270   2.501
  822SOL     OW 2487   1.293   3.090   3.285
  822SOL    HW1 2488   1.330   3.017   3.227
  822SOL    HW2 2489   1.345   3.095   3.370
  823SOL     OW 2490   0.809   1.866   2.364
  823SOL    HW1 2491   0.849   1.957   2.355
  823SOL    HW2 2492   0.709   1.874   2.370
  824SOL     OW 2493   0.197   2.838   3.126
  824SOL    HW1 2494   0.286   2.793   3.112
  824SOL    HW2 2495   0.124   2.773   3.107
  825SOL     OW 2496   1.525   2.861   2.052
  825SOL    HW1 2497   1.462   2.785   2.065
  825SOL    HW2 2498   1.573   2.879   2.138
  826SOL     OW 2499   1.187   3.654   3.478
  826SOL    HW1 2500   1.211   3.714   3.402
  826SOL    HW2 2501   1.194   3.559   3.448
  827SOL     OW 2502   0.317   2.113   3.663
  827SOL    HW1 2503   0.388   2.184   3.669
  827SOL    HW2 2504   0.229   2.152   3.691
  828SOL     OW 2505   1.466   3.279   2.815
  828SOL    HW1 2506   1.407   3.285   2.895
  828SOL    HW2 2507   1.451   3.191   2.769
  829SOL     OW 2508   1.667   3.576   2.434
  829SOL    HW1 2509   1.626   3.553   2.346
  829SOL    HW2 2510   1.649   3.502   2.499
  830SOL     OW 2511   0.598   2.591   2.132
  830SOL    HW1 2512   0.622   2.660   2.064
  830SOL    HW2 2513   0.520   2.624   2.186
  831SOL     OW 2514   1.281   2.207   2.806
  831SOL    HW1 2515   1.195   2.157   2.793
  831SOL    HW2 2516   1.343   2.153   2.862
  832SOL     OW 2517   1.576   3.524   2.169
  832SOL    HW1 2518   1.665   3.570   2.172
  832SOL    HW2 2519   1.555   3.500   2.074
  833SOL     OW 2520   0.807   2.467   3.327
  833SOL    HW1 2521   0.760   2.464   3.416
  833SOL    HW2 2522   0.756   2.412   3.261
  834SOL     OW 2523   1.394   2.331   3.536
  834SOL    HW1 2524   1.374   2.374   3.624
  834SOL    HW2 2525   1.472   2.269   3.545
  835SOL     OW 2526   0.973   2.752   3.434
  835SOL    HW1 2527   1.019   2.668   3.405
  835SOL    HW2 2528   0.917   2.786   3.359
  836SOL     OW 2529   0.991   2.272   3.104
  836SOL    HW1 2530   0.914   2.306   3.158
  836SOL    HW2 2531   0.957   2.221   3.025
  837SOL     OW 2532   1.041   2.563   2.291
  837SOL    HW1 2533   1.067   2.559   2.387
  837SOL    HW2 2534   0.956   2.512   2.277
  838SOL     OW 2535   0.076   2.673   2.651
  838SOL    HW1 2536   0.175   2.661   2.660
  838SOL    HW2 2537   0.052   2.768   2.672
  839SOL     OW 2538   0.130   3.683   3.433
  839SOL    HW1 2539   0.120   3.668   3.532
  839SOL    HW2 2540   0.044   3.719   3.397
  840SOL     OW 2541   0.865   2.210   2.057
  840SOL    HW1 2542   0.924   2.273   2.008
  840SOL    HW2 2543   0.884   2.116   2.028
  841SOL     OW 2544   1.719   2.447   3.693
  841SOL    HW1 2545   1.693   2.536   3.657
  841SOL    HW2 2546   1.717   2.379   3.620
  842SOL     OW 2547   1.362   3.006   2.407
  842SOL    HW1 2548   1.445   2.977   2.359
  842SOL    HW2 2549   1.313   3.073   2.351
  843SOL     OW 2550   0.550   2.058   2.747
  843SOL    HW1 2551   0.545   2.053   2.847
  843SOL    HW2 2552   0.552   2.154   2.718
  844SOL     OW 2553   1.008   3.318   2.339
  844SOL    HW1 2554   0.962   3.390   2.287
  844SOL    HW2 2555   1.004   3.338   2.437
  845SOL     OW 2556   0.351   3.663   2.715
  845SOL    HW1 2557   0.401   3.577   2.721
  845SOL    HW2 2558   0.416   3.740   2.712
  846SOL     OW 2559   1.795   2.928   2.735
  846SOL    HW1 2560   1.733   2.913   2.659
  846SOL    HW2 2561   1.743   2.939   2.820
  847SOL     OW 2562   1.227   3.412   3.368
  847SOL    HW1 2563   1.233   3.335   3.432
  847SOL    HW2 2564   1.175   3.386   3.288
  848SOL     OW 2565   0.321   2.805   2.104
  848SOL    HW1 2566   0.403   2.844   2.062
  848SOL    HW2 2567   0.294   2.723   2.055
  849SOL     OW 2568   1.458   2.597   2.590
  849SOL    HW1 2569   1.453   2.532   2.665
  849SOL    HW2 2570   1.538   2.656   2.603
  850SOL     OW 2571   0.461   3.128   3.589
  850SOL    HW1 2572   0.411   3.129   3.503
  850SOL    HW2 2573   0.398   3.110   3.665
  851SOL     OW 2574   1.111   3.638   2.099
  851SOL    HW1 2575   1.051   3.576   2.149
  851SOL    HW2 2576   1.142   3.594   2.014
  852SOL     OW 2577   0.202   2.147   3.360
  852SOL    HW1 2578   0.122   2.207   3.347
  852SOL    HW2 2579   0.192   2.098   3.446
  853SOL     OW 2580   1.632   3.239   1.943
  853SOL    HW1 2581   1.600   3.333   1.933
  853SOL    HW2 2582   1.556   3.176   1.931
  854SOL     OW 2583   0.464   3.605   2.185
  854SOL    HW1 2584   0.497   3.644   2.271
  854SOL    HW2 2585   0.540   3.598   2.120
  855SOL     OW 2586   1.400   1.969   2.288
  855SOL    HW1 2587   1.376   1.932   2.198
  855SOL    HW2 2588   1.499   1.985   2.292
  856SOL     OW 2589   0.249   3.647   3.103
  856SOL    HW1 2590   0.306   3.582   3.153
  856SOL    HW2 2591   0.233   3.614   3.010
  857SOL     OW 2592   0.940   3.560   2.766
  857SOL    HW1 2593   1.020   3.503   2.787
  857SOL    HW2 2594   0.891   3.520   2.689
  858SOL     OW 2595   0.382   2.562   2.342
  858SOL    HW1 2596   0.427   2.472   2.339
  858SOL    HW2 2597   0.288   2.551   2.375
  859SOL     OW 2598   1.547   2.084   3.591
  859SOL    HW1 2599   1.542   2.121   3.683
  859SOL    HW2 2600   1.475   2.015   3.579
  860SOL     OW 2601   0.614   1.984   1.979
  860SOL    HW1 2602   0.712   1.962   1.986
  860SOL    HW2 2603   0.583   1.967   1.886
  861SOL     OW 2604   0.781   2.126   3.611
  861SOL    HW1 2605   0.848   2.065   3.654
  861SOL    HW2 2606   0.708   2.145   3.676
  862SOL     OW 2607   0.888   3.376   3.057
  862SOL    HW1 2608   0.865   3.351   2.963
  862SOL    HW2 2609   0.949   3.307   3.096
  863SOL     OW 2610   1.351   2.452   3.295
  863SOL    HW1 2611   1.379   2.409   3.380
  863SOL    HW2 2612   1.376   2.548   3.296
  864SOL     OW 2613   0.803   3.264   2.786
  864SOL    HW1 2614   0.893   3.278   2.744
  864SOL    HW2 2615   0.732   3.266   2.715
  865SOL     OW 2616   0.922   2.365   2.761
  865SOL    HW1 2617   0.897   2.356   2.665
  865SOL    HW2 2618   0.970   2.283   2.792
  866SOL     OW 2619   0.539   1.926   2.374
  866SOL    HW1 2620   0.458   1.927   2.432
  866SOL    HW2 2621   0.542   2.009   2.319
  867SOL     OW 2622   1.434   3.050   1.903
  867SOL    HW1 2623   1.466   2.974   1.960
  867SOL    HW2 2624   1.342   3.077   1.933
  868SOL     OW 2625   0.297   1.897   2.033
  868SOL    HW1 2626   0.346   1.981   2.012
  868SOL    HW2 2627   0.359   1.832   2.078
  869SOL     OW 2628   0.935   2.098   2.342
  869SOL    HW1 2629   0.887   2.139   2.264
  869SOL    HW2 2630   1.034   2.096   2.323
  870SOL     OW 2631   1.076   2.545   3.326
  870SOL    HW1 2632   0.996   2.484   3.329
  870SOL    HW2 2633   1.157   2.492   3.302
  871SOL     OW 2634   1.227   3.432   2.655
  871SOL    HW1 2635   1.248   3.506   2.590
  871SOL    HW2 2636   1.295   3.432   2.728
  872SOL     OW 2637   0.459   3.014   2.603
  872SOL    HW1 2638   0.388   2.987   2.668
  872SOL    HW2 2639   0.433   2.986   2.510
  873SOL     OW 2640   1.271   3.659   2.453
  873SOL    HW1 2641   1.315   3.723   2.389
  873SOL    HW2 2642   1.221   3.711   2.523
  874SOL     OW 2643   1.032   2.411   1.878
  874SOL    HW1 2644   0.991   2.493   1.839
  874SOL    HW2 2645   1.096   2.437   1.951
  875SOL     OW 2646   0.078   2.418   3.248
  875SOL    HW1 2647   0.170   2.417   3.207
  875SOL    HW2 2648   0.072   2.492   3.315
  876SOL     OW 2649   0.561   2.084   3.009
  876SOL    HW1 2650   0.599   2.000   3.046
  876SOL    HW2 2651   0.473   2.103   3.053
  877SOL     OW 2652   0.866   2.316   2.504
  877SOL    HW1 2653   0.834   2.388   2.442
  877SOL    HW2 2654   0.890   2.235   2.451
  878SOL     OW 2655   1.017   1.901   2.615
  878SOL    HW1 2656   0.945   1.906   2.546
  878SOL    HW2 2657   0.993   1.832   2.684
  879SOL     OW 2658   1.429   3.035   2.729
  879SOL    HW1 2659   1.374   2.951   2.722
  879SOL    HW2 2660   1.455   3.064   2.637
  880SOL     OW 2661   1.466   2.452   2.854
  880SOL    HW1 2662   1.436   2.357   2.861
  880SOL    HW2 2663   1.539   2.468   2.920
  881SOL     OW 2664   1.857   2.695   2.239
  881SOL    HW1 2665   1.899   2.631   2.303
  881SOL    HW2 2666   1.819   2.644   2.161
  882SOL     OW 2667   0.488   3.247   2.036
  882SOL    HW1 2668   0.401   3.232   2.083
  882SOL    HW2 2669   0.471   3.273   1.941
  883SOL     OW 2670   1.664   3.142   2.519
  883SOL    HW1 2671   1.763   3.150   2.533
  883SOL    HW2 2672   1.619   3.226   2.550
  884SOL     OW 2673   1.390   2.437   1.940
  884SOL    HW1 2674   1.336   2.416   2.021
  884SOL    HW2 2675   1.481   2.396   1.949
  885SOL     OW 2676   0.527   2.118   2.190
  885SOL    HW1 2677   0.554   2.059   2.115
  885SOL    HW2 2678   0.527   2.213   2.159
  886SOL     OW 2679   1.754   3.085   3.450
  886SOL    HW1 2680   1.845   3.046   3.437
  886SOL    HW2 2681   1.762   3.181   3.474
  887SOL     OW 2682   1.064   3.209   3.202
  887SOL    HW1 2683   0.984   3.186   3.257
  887SOL    HW2 2684   1.147   3.183   3.251
  888SOL     OW 2685   1.592   3.491   3.487
  888SOL    HW1 2686   1.619   3.525   3.397
  888SOL    HW2 2687   1.671   3.453   3.533
  889SOL     OW 2688   1.111   3.057   2.962
  889SOL    HW1 2689   1.071   3.101   3.043
  889SOL    HW2 2690   1.070   3.094   2.879
  890SOL     OW 2691   1.638   2.961   2.941
  890SOL    HW1 2692   1.643   3.042   3.000
  890SOL    HW2 2693   1.552   2.963   2.890
  891SOL     OW 2694   0.915   1.951   3.264
  891SOL    HW1 2695   0.940   1.931   3.169
  891SOL    HW2 2696   0.987   2.007   3.306
  892SOL     OW 2697   0.980   2.978   3.581
  892SOL    HW1 2698   0.881   2.984   3.591
  892SOL    HW2 2699   1.003   2.898   3.525
  893SOL     OW 2700   0.705   2.912   2.230
  893SOL    HW1 2701   0.691   2.919   2.329
  893SOL    HW2 2702   0.789   2.861   2.212
  894SOL     OW 2703   0.410   2.675   3.113
  894SOL    HW1 2704   0.496   2.687   3.163
  894SOL    HW2 2705   0.368   2.588   3.140
  895SOL     OW 2706   1.274   2.248   3.124
  895SOL    HW1 2707   1.295   2.322   3.188
  895SOL    HW2 2708   1.185   2.265   3.081
  896SOL     OW 2709   0.064   3.426   3.193
  896SOL    HW1 2710   0.018   3.508   3.159
  896SOL    HW2 2711   0.162   3.445   3.202
  897SOL     OW 2712   0.367   2.962   2.363
  897SOL    HW1 2713   0.360   3.045   2.307
  897SOL    HW2 2714   0.371   2.882   2.303
  898SOL     OW 2715   0.566   2.399   2.727
  898SOL    HW1 2716   0.578   2.465   2.653
  898SOL    HW2 2717   0.612   2.433   2.810
  899SOL     OW 2718   1.252   3.210   2.250
  899SOL    HW1 2719   1.302   3.287   2.290
  899SOL    HW2 2720   1.157   3.212   2.282
  900SOL     OW 2721   1.272   3.307   3.004
  900SOL    HW1 2722   1.319   3.320   3.091
  900SOL    HW2 2723   1.206   3.233   3.013
  901SOL     OW 2724   1.582   2.501   2.334
  901SOL    HW1 2725   1.551   2.562   2.407
  901SOL    HW2 2726   1.632   2.553   2.265
  902SOL     OW 2727   0.354   3.372   3.191
  902SOL    HW1 2728   0.333   3.328   3.104
  902SOL    HW2 2729   0.451   3.398   3.194
  903SOL     OW 2730   0.402   2.613   3.460
  903SOL    HW1 2731   0.470   2.668   3.413
  903SOL    HW2 2732   0.442   2.525   3.487
  904SOL     OW 2733   1.587   2.641   3.532
  904SOL    HW1 2734   1.495   2.679   3.527
  904SOL    HW2 2735   1.647   2.688   3.467
  905SOL     OW 2736   1.013   1.967   3.632
  905SOL    HW1 2737   1.019   2.052   3.580
  905SOL    HW2 2738   1.045   1.891   3.575
  906SOL     OW 2739   0.504   1.912   3.602
  906SOL    HW1 2740   0.462   1.855   3.532
  906SOL    HW2 2741   0.438   1.981   3.634
  907SOL     OW 2742   0.573   2.732   2.891
  907SOL    HW1 2743   0.617   2.821   2.882
  907SOL    HW2 2744   0.510   2.732   2.968
  908SOL     OW 2745   1.360   2.724   2.907
  908SOL    HW1 2746   1.285   2.724   2.841
  908SOL    HW2 2747   1.397   2.632   2.916
  909SOL     OW 2748   1.209   2.387   2.137
  909SOL    HW1 2749   1.222   2.303   2.191
  909SOL    HW2 2750   1.180   2.461   2.197
  910SOL     OW 2751   0.307   2.075   3.093
  910SOL    HW1 2752   0.284   2.112   3.183
  910SOL    HW2 2753   0.277   1.980   3.087
  911SOL     OW 2754   0.037   3.172   3.144
  911SOL    HW1 2755   0.090   3.123   3.212
  911SOL    HW2 2756   0.059   3.270   3.149
  912SOL     OW 2757   0.732   2.496   2.926
  912SOL    HW1 2758   0.791   2.470   2.850
  912SOL    HW2 2759   0.704   2.592   2.915
  913SOL     OW 2760   1.728   2.797   3.716
  913SOL    HW1 2761   1.682   2.790   3.627
  913SOL    HW2 2762   1.666   2.841   3.782
  914SOL     OW 2763   0.307   1.925   2.480
  914SOL    HW1 2764   0.296   2.019   2.513
  914SOL    HW2 2765   0.302   1.862   2.557
  915SOL     OW 2766   1.622   2.229   2.236
  915SOL    HW1 2767   1.624   2.153   2.300
  915SOL    HW2 2768   1.574   2.306   2.276
  916SOL     OW 2769   1.023   2.628   2.828
  916SOL    HW1 2770   1.038   2.649   2.924
  916SOL    HW2 2771   0.993   2.533   2.819
  917SOL     OW 2772   0.980   3.435   3.562
  917SOL    HW1 2773   0.960   3.479   3.474
  917SOL    HW2 2774   1.019   3.344   3.546
  918SOL     OW 2775   1.859   3.380   3.467
  918SOL    HW1 2776   1.873   3.407   3.372
  918SOL    HW2 2777   1.942   3.402   3.520
  919SOL     OW 2778   0.350   2.760   3.666
  919SOL    HW1 2779   0.426   2.804   3.714
  919SOL    HW2 2780   0.385   2.713   3.584
  920SOL     OW 2781   1.540   2.136   1.987
  920SOL    HW1 2782   1.479   2.061   2.010
  920SOL    HW2 2783   1.562   2.188   2.070
  921SOL     OW 2784   1.303   2.700   1.904
  921SOL    HW1 2785   1.337   2.607   1.919
  921SOL    HW2 2786   1.321   2.727   1.809
  922SOL     OW 2787   1.068   3.195   2.711
  922SOL    HW1 2788   1.075   3.111   2.656
  922SOL    HW2 2789   1.130   3.264   2.675
  923SOL     OW 2790   0.319   2.672   2.811
  923SOL    HW1 2791   0.412   2.708   2.816
  923SOL    HW2 2792   0.313   2.587   2.863
  924SOL     OW 2793   0.339   2.371   2.868
  924SOL    HW1 2794   0.287   2.288   2.851
  924SOL    HW2 2795   0.416   2.376   2.804
  925SOL     OW 2796   1.138   2.242   3.540
  925SOL    HW1 2797   1.093   2.305   3.604
  925SOL    HW2 2798   1.231   2.273   3.523
  926SOL     OW 2799   1.160   2.069   3.339
  926SOL    HW1 2800   1.160   2.133   3.416
  926SOL    HW2 2801   1.188   2.117   3.256
  927SOL     OW 2802   0.008   3.188   2.062
  927SOL    HW1 2803  -0.085   3.209   2.031
  927SOL    HW2 2804   0.018   3.089   2.075
  928SOL     OW 2805   0.088   3.663   2.789
  928SOL    HW1 2806   0.046   3.577   2.762
  928SOL    HW2 2807   0.182   3.666   2.755
  929SOL     OW 2808   0.504   3.430   2.772
  929SOL    HW1 2809   0.570   3.504   2.781
  929SOL    HW2 2810   0.548   3.351   2.730
  930SOL     OW 2811   1.002   2.658   3.100
  930SOL    HW1 2812   1.043   2.626   3.186
  930SOL    HW2 2813   0.906   2.631   3.097
  931SOL     OW 2814   0.040   2.406   2.976
  931SOL    HW1 2815   0.125   2.373   2.935
  931SOL    HW2 2816   0.053   2.421   3.074
  932SOL     OW 2817   0.189   2.382   3.584
  932SOL    HW1 2818   0.248   2.342   3.514
  932SOL    HW2 2819   0.131   2.453   3.543
  933SOL     OW 2820   1.369   2.812   3.522
  933SOL    HW1 2821   1.408   2.901   3.542
  933SOL    HW2 2822   1.379   2.792   3.425
  934SOL     OW 2823   0.815   2.434   2.187
  934SOL    HW1 2824   0.822   2.345   2.141
  934SOL    HW2 2825   0.721   2.468   2.179
  935SOL     OW 2826   1.657   2.466   3.068
  935SOL    HW1 2827   1.619   2.397   3.130
  935SOL    HW2 2828   1.739   2.430   3.024
  936SOL     OW 2829   0.252   3.426   3.606
  936SOL    HW1 2830   0.222   3.483   3.682
  936SOL    HW2 2831   0.245   3.329   3.632
  937SOL     OW 2832   0.671   2.326   3.131
  937SOL    HW1 2833   0.637   2.237   3.101
  937SOL    HW2 2834   0.697   2.380   3.051
  938SOL     OW 2835   0.930   3.540   3.327
  938SOL    HW1 2836   0.906   3.522   3.232
  938SOL    HW2 2837   0.960   3.634   3.337
  939SOL     OW 2838   0.473   2.362   2.053
  939SOL    HW1 2839   0.534   2.442   2.057
  939SOL    HW2 2840   0.378   2.393   2.060
  940SOL     OW 2841   0.159   2.999   3.328
  940SOL    HW1 2842   0.181   2.938   3.404
  940SOL    HW2 2843   0.169   2.950   3.242
  941SOL     OW 2844   1.347   2.921   3.096
  941SOL    HW1 2845   1.371   2.858   3.022
  941SOL    HW2 2846   1.257   2.961   3.078
  942SOL     OW 2847   1.302   2.717   2.171
  942SOL    HW1 2848   1.216   2.686   2.213
  942SOL    HW2 2849   1.298   2.703   2.072
  943SOL     OW 2850   1.759   3.609   3.016
  943SOL    HW1 2851   1.820   3.639   2.943
  943SOL    HW2 2852   1.721   3.520   2.994
  944SOL     OW 2853   1.252   3.593   2.990
  944SOL    HW1 2854   1.336   3.598   2.936
  944SOL    HW2 2855   1.229   3.497   3.008
  945SOL     OW 2856   0.083   3.120   2.884
  945SOL    HW1 2857   0.078   3.119   2.984
  945SOL    HW2 2858   0.000   3.079   2.846
  946SOL     OW 2859   0.688   3.524   3.578
  946SOL    HW1 2860   0.632   3.605   3.587
  946SOL    HW2 2861   0.740   3.528   3.492
  947SOL     OW 2862   1.726   1.997   2.385
  947SOL    HW1 2863   1.799   1.980   2.318
  947SOL    HW2 2864   1.695   1.910   2.423
  948SOL     OW 2865   1.388   3.435   2.339
  948SOL    HW1 2866   1.455   3.447   2.265
  948SOL    HW2 2867   1.348   3.524   2.362
  949SOL     OW 2868   0.130   3.656   3.713
  949SOL    HW1 2869   0.089   3.582   3.766
  949SOL    HW2 2870   0.194   3.707   3.771
  950SOL     OW 2871   1.280   2.789   2.534
  950SOL    HW1 2872   1.340   2.708   2.536
  950SOL    HW2 2873   1.320   2.858   2.474
  951SOL     OW 2874   0.830   3.135   3.284
  951SOL    HW1 2875   0.825   3.168   3.379
  951SOL    HW2 2876   0.744   3.154   3.238
  952SOL     OW 2877   0.672   3.478   2.016
  952SOL    HW1 2878   0.681   3.488   1.917
  952SOL    HW2 2879   0.632   3.389   2.037
  953SOL     OW 2880   1.650   3.582   3.256
  953SOL    HW1 2881   1.703   3.592   3.172
  953SOL    HW2 2882   1.623   3.672   3.290
  954SOL     OW 2883   1.841   2.037   2.825
  954SOL    HW1 2884   1.880   1.952   2.789
  954SOL    HW2 2885   1.743   2.039   2.806
  955SOL     OW 2886   0.263   2.188   2.582
  955SOL    HW1 2887   0.184   2.239   2.548
  955SOL    HW2 2888   0.254   2.173   2.680
  956SOL     OW 2889   1.194   3.474   1.893
  956SOL    HW1 2890   1.200   3.381   1.930
  956SOL    HW2 2891   1.135   3.474   1.813
  957SOL     OW 2892   0.822   2.864   3.234
  957SOL    HW1 2893   0.862   2.863   3.142
  957SOL    HW2 2894   0.832   2.956   3.274
  958SOL     OW 2895   0.916   2.772   2.153
  958SOL    HW1 2896   0.979   2.810   2.085
  958SOL    HW2 2897   0.956   2.689   2.192
  959SOL     OW 2898   1.504   3.469   1.906
  959SOL    HW1 2899   1.412   3.506   1.913
  959SOL    HW2 2900   1.542   3.489   1.816
  960SOL     OW 2901   0.372   3.150   3.352
  960SOL    HW1 2902   0.359   3.243   3.318
  960SOL    HW2 2903   0.288   3.098   3.339
  961SOL     OW 2904   1.614   3.154   3.151
  961SOL    HW1 2905   1.674   3.157   3.231
  961SOL    HW2 2906   1.539   3.218   3.164
  962SOL     OW 2907   1.039   2.960   2.558
  962SOL    HW1 2908   0.969   2.913   2.612
  962SOL    HW2 2909   1.098   2.892   2.515
  963SOL     OW 2910   1.014   2.098   2.833
  963SOL    HW1 2911   1.006   2.062   2.740
  963SOL    HW2 2912   1.012   2.022   2.898
  964SOL     OW 2913   0.590   3.349   2.353
  964SOL    HW1 2914   0.632   3.291   2.283
  964SOL    HW2 2915   0.546   3.428   2.309
  965SOL     OW 2916   1.709   2.247   3.243
  965SOL    HW1 2917   1.782   2.316   3.247
  965SOL    HW2 2918   1.737   2.172   3.184
  966SOL     OW 2919   0.255   3.210   2.152
  966SOL    HW1 2920   0.159   3.211   2.125
  966SOL    HW2 2921   0.267   3.263   2.236
  967SOL     OW 2922   0.105   2.875   3.588
  967SOL    HW1 2923   0.028   2.842   3.642
  967SOL    HW2 2924   0.190   2.845   3.630
  968SOL     OW 2925   0.672   2.065   3.351
  968SOL    HW1 2926   0.762   2.049   3.311
  968SOL    HW2 2927   0.680   2.070   3.450
  969SOL     OW 2928   0.075   2.207   1.895
  969SOL    HW1 2929  -0.017   2.179   1.866
  969SOL    HW2 2930   0.106   2.284   1.839
  970SOL     OW 2931   1.440   2.718   3.260
  970SOL    HW1 2932   1.383   2.770   3.197
  970SOL    HW2 2933   1.536   2.730   3.236
  971SOL     OW 2934   0.072   2.028   2.180
  971SOL    HW1 2935   0.055   2.111   2.126
  971SOL    HW2 2936   0.162   1.991   2.158
  972SOL     OW 2937   1.183   3.197   1.981
  972SOL    HW1 2938   1.084   3.186   1.983
  972SOL    HW2 2939   1.217   3.212   2.074
  973SOL     OW 2940   0.613   2.704   3.293
  973SOL    HW1 2941   0.669   2.785   3.276
  973SOL    HW2 2942   0.672   2.624   3.296
  974SOL     OW 2943   1.493   3.629   2.821
  974SOL    HW1 2944   1.526   3.693   2.752
  974SOL    HW2 2945   1.559   3.623   2.896
  975SOL     OW 2946   0.716   2.427   3.570
  975SOL    HW1 2947   0.735   2.492   3.644
  975SOL    HW2 2948   0.776   2.347   3.579
  976SOL     OW 2949   1.450   3.082   3.495
  976SOL    HW1 2950   1.441   3.072   3.594
  976SOL    HW2 2951   1.546   3.075   3.469
  977SOL     OW 2952   0.390   3.603   3.422
  977SOL    HW1 2953   0.299   3.644   3.420
  977SOL    HW2 2954   0.383   3.509   3.454
  978SOL     OW 2955   1.674   2.745   3.116
  978SOL    HW1 2956   1.647   2.656   3.079
  978SOL    HW2 2957   1.675   2.813   3.043
  979SOL     OW 2958   1.225   2.187   2.311
  979SOL    HW1 2959   1.290   2.113   2.300
  979SOL    HW2 2960   1.245   2.237   2.395
  980SOL     OW 2961   0.594   2.607   2.514
  980SOL    HW1 2962   0.644   2.692   2.495
  980SOL    HW2 2963   0.506   2.609   2.466
  981SOL     OW 2964   1.777   2.204   3.504
  981SOL    HW1 2965   1.760   2.235   3.410
  981SOL    HW2 2966   1.693   2.167   3.542
  982SOL     OW 2967   1.730   2.796   3.379
  982SOL    HW1 2968   1.768   2.887   3.394
  982SOL    HW2 2969   1.722   2.779   3.280
  983SOL     OW 2970   0.859   3.236   1.878
  983SOL    HW1 2971   0.813   3.251   1.966
  983SOL    HW2 2972   0.903   3.321   1.848
  984SOL     OW 2973   0.661   3.652   2.815
  984SOL    HW1 2974   0.615   3.740   2.802
  984SOL    HW2 2975   0.760   3.664   2.808
  985SOL     OW 2976   0.859   2.818   2.723
  985SOL    HW1 2977   0.913   2.749   2.771
  985SOL    HW2 2978   0.827   2.887   2.789
  986SOL     OW 2979   1.083   2.846   1.949
  986SOL    HW1 2980   1.060   2.899   1.867
  986SOL    HW2 2981   1.164   2.790   1.930
  987SOL     OW 2982   1.861   3.431   2.713
  987SOL    HW1 2983   1.790   3.419   2.643
  987SOL    HW2 2984   1.862   3.352   2.773
  988SOL     OW 2985   0.221   3.176   3.706
  988SOL    HW1 2986   0.156   3.103   3.685
  988SOL    HW2 2987   0.225   3.190   3.804
  989SOL     OW 2988   0.079   3.102   2.515
  989SOL    HW1 2989   0.078   3.055   2.603
  989SOL    HW2 2990   0.161   3.074   2.464
  990SOL     OW 2991   0.672   3.253   3.486
  990SOL    HW1 2992   0.594   3.203   3.524
  990SOL    HW2 2993   0.669   3.348   3.517
  991SOL     OW 2994   1.824   2.054   3.089
  991SOL    HW1 2995   1.820   1.964   3.133
  991SOL    HW2 2996   1.827   2.043   2.990
  992SOL     OW 2997   0.428   2.286   2.382
  992SOL    HW1 2998   0.458   2.214   2.320
  992SOL    HW2 2999   0.389   2.246   2.465
  993SOL     OW 3000   1.705   3.349   2.966
  993SOL    HW1 3001   1.612   3.324   2.939
  993SOL    HW2 3002   1.731   3.299   3.048
  994SOL     OW 3003   0.317   2.409   3.142
  994SOL    HW1 3004   0.355   2.350   3.214
  994SOL    HW2 3005   0.357   2.383   3.054
  995SOL     OW 3006   0.812   3.448   2.549
  995SOL    HW1 3007   0.844   3.458   2.455
  995SOL    HW2 3008   0.733   3.386   2.551
  996SOL     OW 3009   1.424   2.076   2.974
  996SOL    HW1 3010   1.476   2.011   3.029
  996SOL    HW2 3011   1.375   2.139   3.035
  997SOL     OW 3012   1.001   1.896   3.016
  997SOL    HW1 3013   0.938   1.824   2.985
  997SOL    HW2 3014   1.094   1.860   3.016
  998SOL     OW 3015   0.770   3.192   2.163
  998SOL    HW1 3016   0.724   3.105   2.180
  998SOL    HW2 3017   0.861   3.189   2.204
  999SOL     OW 3018   0.618   3.429   3.146
  999SOL    HW1 3019   0.613   3.511   3.203
  999SOL    HW2 3020   0.707   3.426   3.101
 1000SOL     OW 3021   1.352   1.914   2.030
 1000SOL    HW1 3022   1.387   1.873   1.946
 1000SOL    HW2 3023   1.262   1.876   2.050
 1001SOL     OW 3024   1.300   2.315   2.553
 1001SOL    HW1 3025   1.241   2.395   2.557
 1001SOL    HW2 3026   1.315   2.280   2.646
 1002SOL     OW 3027   1.593   2.083   2.744
 1002SOL    HW1 3028   1.509   2.082   2.798
 1002SOL    HW2 3029   1.595   2.166   2.688
 1003SOL     OW 3030   0.039   2.939   2.162
 1003SOL    HW1 3031   0.138   2.928   2.153
 1003SOL    HW2 3032  -0.001   2.853   2.194
 1004SOL     OW 3033   0.875   3.508   2.199
 1004SOL    HW1 3034   0.798   3.473   2.145
 1004SOL    HW2 3035   0.843   3.579   2.261
 1005SOL     OW 3036   0.230   2.490   3.837
 1005SOL    HW1 3037   0.137   2.488   3.874
 1005SOL    HW2 3038   0.231   2.451   3.745
 1006SOL     OW 3039   0.225   2.137   4.720
 1006SOL    HW1 3040   0.260   2.120   4.812
 1006SOL    HW2 3041   0.137   2.092   4.708
 1007SOL     OW 3042   0.019   2.230   4.371
 1007SOL    HW1 3043  -0.063   2.273   4.410
 1007SOL    HW2 3044  -0.009   2.157   4.308
 1008SOL     OW 3045   0.569   3.137   4.889
 1008SOL    HW1 3046   0.476   3.130   4.852
 1008SOL    HW2 3047   0.580   3.226   4.933
 1009SOL     OW 3048   1.555   3.373   4.427
 1009SOL    HW1 3049   1.498   3.357   4.508
 1009SOL    HW2 3050   1.496   3.383   4.347
 1010SOL     OW 3051   1.135   2.565   4.441
 1010SOL    HW1 3052   1.192   2.643   4.416
 1010SOL    HW2 3053   1.075   2.591   4.517
 1011SOL     OW 3054   1.755   2.469   3.955
 1011SOL    HW1 3055   1.743   2.456   3.856
 1011SOL    HW2 3056   1.725   2.388   4.004
 1012SOL     OW 3057   0.768   3.006   4.747
 1012SOL    HW1 3058   0.690   3.023   4.807
 1012SOL    HW2 3059   0.802   3.093   4.711
 1013SOL     OW 3060   0.685   2.874   4.389
 1013SOL    HW1 3061   0.754   2.858   4.459
 1013SOL    HW2 3062   0.612   2.931   4.427
 1014SOL     OW 3063   0.335   3.297   4.785
 1014SOL    HW1 3064   0.257   3.266   4.732
 1014SOL    HW2 3065   0.393   3.355   4.728
 1015SOL     OW 3066   1.603   2.309   4.461
 1015SOL    HW1 3067   1.529   2.355   4.411
 1015SOL    HW2 3068   1.654   2.377   4.514
 1016SOL     OW 3069   0.231   3.575   4.207
 1016SOL    HW1 3070   0.265   3.652   4.261
 1016SOL    HW2 3071   0.275   3.575   4.117
 1017SOL     OW 3072   0.230   3.296   4.262
 1017SOL    HW1 3073   0.204   3.392   4.262
 1017SOL    HW2 3074   0.159   3.242   4.307
 1018SOL     OW 3075   0.240   2.953   4.610
 1018SOL    HW1 3076   0.254   2.869   4.662
 1018SOL    HW2 3077   0.185   3.017   4.665
 1019SOL     OW 3078   0.606   2.826   3.847
 1019SOL    HW1 3079   0.613   2.910   3.793
 1019SOL    HW2 3080   0.652   2.839   3.935
 1020SOL     OW 3081   0.122   2.505   4.287
 1020SOL    HW1 3082   0.077   2.417   4.304
 1020SOL    HW2 3083   0.121   2.559   4.371
 1021SOL     OW 3084   1.842   3.629   4.083
 1021SOL    HW1 3085   1.896   3.600   4.163
 1021SOL    HW2 3086   1.872   3.719   4.054
 1022SOL     OW 3087   0.027   3.458   3.841
 1022SOL    HW1 3088   0.008   3.362   3.862
 1022SOL    HW2 3089  -0.006   3.516   3.916
 1023SOL     OW 3090   1.689   2.784   4.336
 1023SOL    HW1 3091   1.784   2.755   4.344
 1023SOL    HW2 3092   1.681   2.849   4.261
 1024SOL     OW 3093   1.641   2.970   4.156
 1024SOL    HW1 3094   1.727   2.972   4.104
 1024SOL    HW2 3095   1.655   3.017   4.244
 1025SOL     OW 3096   0.113   2.599   5.321
 1025SOL    HW1 3097   0.201   2.586   5.366
 1025SOL    HW2 3098   0.100   2.696   5.299
 1026SOL     OW 3099   0.613   3.227   4.450
 1026SOL    HW1 3100   0.564   3.140   4.459
 1026SOL    HW2 3101   0.590   3.270   4.363
 1027SOL     OW 3102   0.809   1.866   4.226
 1027SOL    HW1 3103   0.849   1.957   4.217
 1027SOL    HW2 3104   0.709   1.874   4.232
 1028SOL     OW 3105   0.197   2.838   4.988
 1028SOL    HW1 3106   0.286   2.793   4.974
 1028SOL    HW2 3107   0.124   2.773   4.969
 1029SOL     OW 3108   1.525   2.861   3.914
 1029SOL    HW1 3109   1.462   2.785   3.927
 1029SOL    HW2 3110   1.573   2.879   4.000
 1030SOL     OW 3111   1.466   3.279   4.677
 1030SOL    HW1 3112   1.407   3.285   4.757
 1030SOL    HW2 3113   1.451   3.191   4.631
 1031SOL     OW 3114   1.667   3.576   4.296
 1031SOL    HW1 3115   1.626   3.553   4.208
 1031SOL    HW2 3116   1.649   3.502   4.361
 1032SOL     OW 3117   0.598   2.591   3.994
 1032SOL    HW1 3118   0.622   2.660   3.926
 1032SOL    HW2 3119   0.520   2.624   4.048
 1033SOL     OW 3120   1.281   2.207   4.668
 1033SOL    HW1 3121   1.195   2.157   4.655
 1033SOL    HW2 3122   1.343   2.153   4.724
 1034SOL     OW 3123   1.576   3.524   4.031
 1034SOL    HW1 3124   1.665   3.570   4.034
 1034SOL    HW2 3125   1.555   3.500   3.936
 1035SOL     OW 3126   0.991   2.272   4.966
 1035SOL    HW1 3127   0.914   2.306   5.020
 1035SOL    HW2 3128   0.957   2.221   4.887
 1036SOL     OW 3129   1.041   2.563   4.153
 1036SOL    HW1 3130   1.067   2.559   4.249
 1036SOL    HW2 3131   0.956   2.512   4.139
 1037SOL     OW 3132   0.076   2.673   4.513
 1037SOL    HW1 3133   0.175   2.661   4.522
 1037SOL    HW2 3134   0.052   2.768   4.534
 1038SOL     OW 3135   0.130   3.683   5.295
 1038SOL    HW1 3136   0.120   3.668   5.394
 1038SOL    HW2 3137   0.044   3.719   5.259
 1039SOL     OW 3138   0.865   2.210   3.919
 1039SOL    HW1 3139   0.924   2.273   3.870
 1039SOL    HW2 3140   0.884   2.116   3.890
 1040SOL     OW 3141   1.362   3.006   4.269
 1040SOL    HW1 3142   1.445   2.977   4.221
 1040SOL    HW2 3143   1.313   3.073   4.213
 1041SOL     OW 3144   0.550   2.058   4.609
 1041SOL    HW1 3145   0.545   2.053   4.709
 1041SOL    HW2 3146   0.552   2.154   4.580
 1042SOL     OW 3147   1.008   3.318   4.201
 1042SOL    HW1 3148   0.962   3.390   4.149
 1042SOL    HW2 3149   1.004   3.338   4.299
 1043SOL     OW 3150   0.351   3.663   4.577
 1043SOL    HW1 3151   0.401   3.577   4.583
 1043SOL    HW2 3152   0.416   3.740   4.574
 1044SOL     OW 3153   1.795   2.928   4.597
 1044SOL    HW1 3154   1.733   2.913   4.521
 1044SOL    HW2 3155   1.743   2.939   4.682
 1045SOL     OW 3156   0.321   2.805   3.966
 1045SOL    HW1 3157   0.403   2.844   3.924
 1045SOL    HW2 3158   0.294   2.723   3.917
 1046SOL     OW 3159   1.458   2.597   4.452
 1046SOL    HW1 3160   1.453   2.532   4.527
 1046SOL    HW2 3161   1.538   2.656   4.465
 1047SOL     OW 3162   1.111   3.638   3.961
 1047SOL    HW1 3163   1.051   3.576   4.011
 1047SOL    HW2 3164   1.142   3.594   3.876
 1048SOL     OW 3165   1.632   3.239   3.805
 1048SOL    HW1 3166   1.600   3.333   3.795
 1048SOL    HW2 3167   1.556   3.176   3.793
 1049SOL     OW 3168   0.464   3.605   4.047
 1049SOL    HW1 3169   0.497   3.644   4.133
 1049SOL    HW2 3170   0.540   3.598   3.982
 1050SOL     OW 3171   1.400   1.969   4.150
 1050SOL    HW1 3172   1.376   1.932   4.060
 1050SOL    HW2 3173   1.499   1.985   4.154
 1051SOL     OW 3174   0.249   3.647   4.965
 1051SOL    HW1 3175   0.306   3.582   5.015
 1051SOL    HW2 3176   0.233   3.614   4.872
 1052SOL     OW 3177   0.940   3.560   4.628
 1052SOL    HW1 3178   1.020   3.503   4.649
 1052SOL    HW2 3179   0.891   3.520   4.551
 1053SOL     OW 3180   0.382   2.562   4.204
 1053SOL    HW1 3181   0.427   2.472   4.201
 1053SOL    HW2 3182   0.288   2.551   4.237
 1054SOL     OW 3183   0.614   1.984   3.841
 1054SOL    HW1 3184   0.712   1.962   3.848
 1054SOL    HW2 3185   0.583   1.967   3.748
 1055SOL     OW 3186   0.803   3.264   4.648
 1055SOL    HW1 3187   0.893   3.278   4.606
 1055SOL    HW2 3188   0.732   3.266   4.577
 1056SOL     OW 3189   0.922   2.365   4.623
 1056SOL    HW1 3190   0.897   2.356   4.527
 1056SOL    HW2 3191   0.970   2.283   4.654
 1057SOL     OW 3192   0.539   1.926   4.236
 1057SOL    HW1 3193   0.458   1.927   4.294
 1057SOL    HW2 3194   0.542   2.009   4.181
 1058SOL     OW 3195   1.434   3.050   3.765
 1058SOL    HW1 3196   1.466   2.974   3.822
 1058SOL    HW2 3197   1.342   3.077   3.795
 1059SOL     OW 3198   0.297   1.897   3.895
 1059SOL    HW1 3199   0.346   1.981   3.874
 1059SOL    HW2 3200   0.359   1.832   3.940
 1060SOL     OW 3201   0.935   2.098   4.204
 1060SOL    HW1 3202   0.887   2.139   4.126
 1060SOL    HW2 3203   1.034   2.096   4.185
 1061SOL     OW 3204   1.227   3.432   4.517
 1061SOL    HW1 3205   1.248   3.506   4.452
 1061SOL    HW2 3206   1.295   3.432   4.590
 1062SOL     OW 3207   0.459   3.014   4.465
 1062SOL    HW1 3208   0.388   2.987   4.530
 1062SOL    HW2 3209   0.433   2.986   4.372
 1063SOL     OW 3210   1.271   3.659   4.315
 1063SOL    HW1 3211   1.315   3.723   4.251
 1063SOL    HW2 3212   1.221   3.711   4.385
 1064SOL     OW 3213   1.032   2.411   3.740
 1064SOL    HW1 3214   0.991   2.493   3.701
 1064SOL    HW2 3215   1.096   2.437   3.813
 1065SOL     OW 3216   0.561   2.084   4.871
 1065SOL    HW1 3217   0.599   2.000   4.908
 1065SOL    HW2 3218   0.473   2.103   4.915
 1066SOL     OW 3219   0.866   2.316   4.366
 1066SOL    HW1 3220   0.834   2.388   4.304
 1066SOL    HW2 3221   0.890   2.235   4.313
 1067SOL     OW 3222   1.017   1.901   4.477
 1067SOL    HW1 3223   0.945   1.906   4.408
 1067SOL    HW2 3224   0.993   1.832   4.546
 1068SOL     OW 3225   1.429   3.035   4.591
 1068SOL    HW1 3226   1.374   2.951   4.584
 1068SOL    HW2 3227   1.455   3.064   4.499
 1069SOL     OW 3228   1.466   2.452   4.716
 1069SOL    HW1 3229   1.436   2.357   4.723
 1069SOL    HW2 3230   1.539   2.468   4.782
 1070SOL     OW 3231   1.857   2.695   4.101
 1070SOL    HW1 3232   1.899   2.631   4.165
 1070SOL    HW2 3233   1.819   2.644   4.023
 1071SOL     OW 3234   0.488   3.247   3.898
 1071SOL    HW1 3235   0.401   3.232   3.945
 1071SOL    HW2 3236   0.471   3.273   3.803
 1072SOL     OW 3237   1.664   3.142   4.381
 1072SOL    HW1 3238   1.763   3.150   4.395
 1072SOL    HW2 3239   1.619   3.226   4.412
 1073SOL     OW 3240   1.390   2.437   3.802
 1073SOL    HW1 3241   1.336   2.416   3.883
 1073SOL    HW2 3242   1.481   2.396   3.811
 1074SOL     OW 3243   0.527   2.118   4.052
 1074SOL    HW1 3244   0.554   2.059   3.977
 1074SOL    HW2 3245   0.527   2.213   4.021
 1075SOL     OW 3246   1.111   3.057   4.824
 1075SOL    HW1 3247   1.071   3.101   4.905
 1075SOL    HW2 3248   1.070   3.094   4.741
 1076SOL     OW 3249   1.638   2.961   4.803
 1076SOL    HW1 3250   1.643   3.042   4.862
 1076SOL    HW2 3251   1.552   2.963   4.752
 1077SOL     OW 3252   0.705   2.912   4.092
 1077SOL    HW1 3253   0.691   2.919   4.191
 1077SOL    HW2 3254   0.789   2.861   4.074
 1078SOL     OW 3255   0.410   2.675   4.975
 1078SOL    HW1 3256   0.496   2.687   5.025
 1078SOL    HW2 3257   0.368   2.588   5.002
 1079SOL     OW 3258   1.274   2.248   4.986
 1079SOL    HW1 3259   1.295   2.322   5.050
 1079SOL    HW2 3260   1.185   2.265   4.943
 1080SOL     OW 3261   0.367   2.962   4.225
 1080SOL    HW1 3262   0.360   3.045   4.169
 1080SOL    HW2 3263   0.371   2.882   4.165
 1081SOL     OW 3264   0.566   2.399   4.589
 1081SOL    HW1 3265   0.578   2.465   4.515
 1081SOL    HW2 3266   0.612   2.433   4.672
 1082SOL     OW 3267   1.252   3.210   4.112
 1082SOL    HW1 3268   1.302   3.287   4.152
 1082SOL    HW2 3269   1.157   3.212   4.144
 1083SOL     OW 3270   1.272   3.307   4.866
 1083SOL    HW1 3271   1.319   3.320   4.953
 1083SOL    HW2 3272   1.206   3.233   4.875
 1084SOL     OW 3273   1.582   2.501   4.196
 1084SOL    HW1 3274   1.551   2.562   4.269
 1084SOL    HW2 3275   1.632   2.553   4.127
 1085SOL     OW 3276   0.354   3.372   5.053
 1085SOL    HW1 3277   0.333   3.328   4.966
 1085SOL    HW2 3278   0.451   3.398   5.056
 1086SOL     OW 3279   0.573   2.732   4.753
 1086SOL    HW1 3280   0.617   2.821   4.744
 1086SOL    HW2 3281   0.510   2.732   4.830
 1087SOL     OW 3282   1.360   2.724   4.769
 1087SOL    HW1 3283   1.285   2.724   4.703
 1087SOL    HW2 3284   1.397   2.632   4.778
 1088SOL     OW 3285   1.209   2.387   3.999
 1088SOL    HW1 3286   1.222   2.303   4.053
 1088SOL    HW2 3287   1.180   2.461   4.059
 1089SOL     OW 3288   0.307   2.075   4.955
 1089SOL    HW1 3289   0.284   2.112   5.045
 1089SOL    HW2 3290   0.277   1.980   4.949
 1090SOL     OW 3291   0.037   3.172   5.006
 1090SOL    HW1 3292   0.090   3.123   5.074
 1090SOL    HW2 3293   0.059   3.270   5.011
 1091SOL     OW 3294   0.732   2.496   4.788
 1091SOL    HW1 3295   0.791   2.470   4.712
 1091SOL    HW2 3296   0.704   2.592   4.777
 1092SOL     OW 3297   0.307   1.925   4.342
 1092SOL    HW1 3298   0.296   2.019   4.375
 1092SOL    HW2 3299   0.302   1.862   4.419
 1093SOL     OW 3300   1.622   2.229   4.098
 1093SOL    HW1 3301   1.624   2.153   4.162
 1093SOL    HW2 3302   1.574   2.306   4.138
 1094SOL     OW 3303   1.023   2.628   4.690
 1094SOL    HW1 3304   1.038   2.649   4.786
 1094SOL    HW2 3305   0.993   2.533   4.681
 1095SOL     OW 3306   1.540   2.136   3.849
 1095SOL    HW1 3307   1.479   2.061   3.872
 1095SOL    HW2 3308   1.562   2.188   3.932
 1096SOL     OW 3309   1.303   2.700   3.766
 1096SOL    HW1 3310   1.337   2.607   3.781
 1096SOL    HW2 3311   1.321   2.727   3.671
 1097SOL     OW 3312   1.068   3.195   4.573
 1097SOL    HW1 3313   1.075   3.111   4.518
 1097SOL    HW2 3314   1.130   3.264   4.537
 1098SOL     OW 3315   0.319   2.672   4.673
 1098SOL    HW1 3316   0.412   2.708   4.678
 1098SOL    HW2 3317   0.313   2.587   4.725
 1099SOL     OW 3318   0.339   2.371   4.730
 1099SOL    HW1 3319   0.287   2.288   4.713
 1099SOL    HW2 3320   0.416   2.376   4.666
 1100SOL     OW 3321   1.160   2.069   5.201
 1100SOL    HW1 3322   1.160   2.133   5.278
 1100SOL    HW2 3323   1.188   2.117   5.118
 1101SOL     OW 3324   0.008   3.188   3.924
 1101SOL    HW1 3325  -0.085   3.209   3.893
 1101SOL    HW2 3326   0.018   3.089   3.937
 1102SOL     OW 3327   0.088   3.663   4.651
 1102SOL    HW1 3328   0.046   3.577   4.624
 1102SOL    HW2 3329   0.182   3.666   4.617
 1103SOL     OW 3330   0.504   3.430   4.634
 1103SOL    HW1 3331   0.570   3.504   4.643
 1103SOL    HW2 3332   0.548   3.351   4.592
 1104SOL     OW 3333   1.002   2.658   4.962
 1104SOL    HW1 3334   1.043   2.626   5.048
 1104SOL    HW2 3335   0.906   2.631   4.959
 1105SOL     OW 3336   0.040   2.406   4.838
 1105SOL    HW1 3337   0.125   2.373   4.797
 1105SOL    HW2 3338   0.053   2.421   4.936
 1106SOL     OW 3339   0.815   2.434   4.049
 1106SOL    HW1 3340   0.822   2.345   4.003
 1106SOL    HW2 3341   0.721   2.468   4.041
 1107SOL     OW 3342   1.657   2.466   4.930
 1107SOL    HW1 3343   1.619   2.397   4.992
 1107SOL    HW2 3344   1.739   2.430   4.886
 1108SOL     OW 3345   0.671   2.326   4.993
 1108SOL    HW1 3346   0.637   2.237   4.963
 1108SOL    HW2 3347   0.697   2.380   4.913
 1109SOL     OW 3348   0.930   3.540   5.189
 1109SOL    HW1 3349   0.906   3.522   5.094
 1109SOL    HW2 3350   0.960   3.634   5.199
 1110SOL     OW 3351   0.473   2.362   3.915
 1110SOL    HW1 3352   0.534   2.442   3.919
 1110SOL    HW2 3353   0.378   2.393   3.922
 1111SOL     OW 3354   1.347   2.921   4.958
 1111SOL    HW1 3355   1.371   2.858   4.884
 1111SOL    HW2 3356   1.257   2.961   4.940
 1112SOL     OW 3357   1.302   2.717   4.033
 1112SOL    HW1 3358   1.216   2.686   4.075
 1112SOL    HW2 3359   1.298   2.703   3.934
 1113SOL     OW 3360   1.759   3.609   4.878
 1113SOL    HW1 3361   1.820   3.639   4.805
 1113SOL    HW2 3362   1.721   3.520   4.856
 1114SOL     OW 3363   1.252   3.593   4.852
 1114SOL    HW1 3364   1.336   3.598   4.798
 1114SOL    HW2 3365   1.229   3.497   4.870
 1115SOL     OW 3366   0.083   3.120   4.746
 1115SOL    HW1 3367   0.078   3.119   4.846
 1115SOL    HW2 3368   0.000   3.079   4.708
 1116SOL     OW 3369   1.726   1.997   4.247
 1116SOL    HW1 3370   1.799   1.980   4.180
 1116SOL    HW2 3371   1.695   1.910   4.285
 1117SOL     OW 3372   1.388   3.435   4.201
 1117SOL    HW1 3373   1.455   3.447   4.127
 1117SOL    HW2 3374   1.348   3.524   4.224
 1118SOL     OW 3375   1.280   2.789   4.396
 1118SOL    HW1 3376   1.340   2.708   4.398
 1118SOL    HW2 3377   1.320   2.858   4.336
 1119SOL     OW 3378   0.672   3.478   3.878
 1119SOL    HW1 3379   0.681   3.488   3.779
 1119SOL    HW2 3380   0.632   3.389   3.899
 1120SOL     OW 3381   1.650   3.582   5.118
 1120SOL    HW1 3382   1.703   3.592   5.034
 1120SOL    HW2 3383   1.623   3.672   5.152
 1121SOL     OW 3384   1.841   2.037   4.687
 1121SOL    HW1 3385   1.880   1.952   4.651
 1121SOL    HW2 3386   1.743   2.039   4.668
 1122SOL     OW 3387   0.263   2.188   4.444
 1122SOL    HW1 3388   0.184   2.239   4.410
 1122SOL    HW2 3389   0.254   2.173   4.542
 1123SOL     OW 3390   1.194   3.474   3.755
 1123SOL    HW1 3391   1.200   3.381   3.792
 1123SOL    HW2 3392   1.135   3.474   3.675
 1124SOL     OW 3393   0.822   2.864   5.096
 1124SOL    HW1 3394   0.862   2.863   5.004
 1124SOL    HW2 3395   0.832   2.956   5.136
 1125SOL     OW 3396   0.916   2.772   4.015
 1125SOL    HW1 3397   0.979   2.810   3.947
 1125SOL    HW2 3398   0.956   2.689   4.054
 1126SOL     OW 3399   1.504   3.469   3.768
 1126SOL    HW1 3400   1.412   3.506   3.775
 1126SOL    HW2 3401   1.542   3.489   3.678
 1127SOL     OW 3402   1.039   2.960   4.420
 1127SOL    HW1 3403   0.969   2.913   4.474
 1127SOL    HW2 3404   1.098   2.892   4.377
 1128SOL     OW 3405   1.014   2.098   4.695
 1128SOL    HW1 3406   1.006   2.062   4.602
 1128SOL    HW2 3407   1.012   2.022   4.760
 1129SOL     OW 3408   0.590   3.349   4.215
 1129SOL    HW1 3409   0.632   3.291   4.145
 1129SOL    HW2 3410   0.546   3.428   4.171
 1130SOL     OW 3411   1.709   2.247   5.105
 1130SOL    HW1 3412   1.782   2.316   5.109
 1130SOL    HW2 3413   1.737   2.172   5.046
 1131SOL     OW 3414   0.255   3.210   4.014
 1131SOL    HW1 3415   0.159   3.211   3.987
 1131SOL    HW2 3416   0.267   3.263   4.098
 1132SOL     OW 3417   0.075   2.207   3.757
 1132SOL    HW1 3418  -0.017   2.179   3.728
 1132SOL    HW2 3419   0.106   2.284   3.701
 1133SOL     OW 3420   0.072   2.028   4.042
 1133SOL    HW1 3421   0.055   2.111   3.988
 1133SOL    HW2 3422   0.162   1.991   4.020
 1134SOL     OW 3423   1.183   3.197   3.843
 1134SOL    HW1 3424   1.084   3.186   3.845
 1134SOL    HW2 3425   1.217   3.212   3.936
 1135SOL     OW 3426   1.493   3.629   4.683
 1135SOL    HW1 3427   1.526   3.693   4.614
 1135SOL    HW2 3428   1.559   3.623   4.758
 1136SOL     OW 3429   1.674   2.745   4.978
 1136SOL    HW1 3430   1.647   2.656   4.941
 1136SOL    HW2 3431   1.675   2.813   4.905
 1137SOL     OW 3432   1.225   2.187   4.173
 1137SOL    HW1 3433   1.290   2.113   4.162
 1137SOL    HW2 3434   1.245   2.237   4.257
 1138SOL     OW 3435   0.594   2.607   4.376
 1138SOL    HW1 3436   0.644   2.692   4.357
 1138SOL    HW2 3437   0.506   2.609   4.328
 1139SOL     OW 3438   1.730   2.796   5.241
 1139SOL    HW1 3439   1.768   2.887   5.256
 1139SOL    HW2 3440   1.722   2.779   5.142
 1140SOL     OW 3441   0.859   3.236   3.740
 1140SOL    HW1 3442   0.813   3.251   3.828
 1140SOL    HW2 3443   0.903   3.321   3.710
 1141SOL     OW 3444   0.661   3.652   4.677
 1141SOL    HW1 3445   0.615   3.740   4.664
 1141SOL    HW2 3446   0.760   3.664   4.670
 1142SOL     OW 3447   0.859   2.818   4.585
 1142SOL    HW1 3448   0.913   2.749   4.633
 1142SOL    HW2 3449   0.827   2.887   4.651
 1143SOL     OW 3450   1.083   2.846   3.811
 1143SOL    HW1 3451   1.060   2.899   3.729
 1143SOL    HW2 3452   1.164   2.790   3.792
 1144SOL     OW 3453   1.861   3.431   4.575
 1144SOL    HW1 3454   1.790   3.419   4.505
 1144SOL    HW2 3455   1.862   3.352   4.635
 1145SOL     OW 3456   0.079   3.102   4.377
 1145SOL    HW1 3457   0.078   3.055   4.465
 1145SOL    HW2 3458   0.161   3.074   4.326
 1146SOL     OW 3459   1.824   2.054   4.951
 1146SOL    HW1 3460   1.820   1.964   4.995
 1146SOL    HW2 3461   1.827   2.043   4.852
 1147SOL     OW 3462   0.428   2.286   4.244
 1147SOL    HW1 3463   0.458   2.214   4.182
 1147SOL    HW2 3464   0.389   2.246   4.327
 1148SOL     OW 3465   1.705   3.349   4.828
 1148SOL    HW1 3466   1.612   3.324   4.801
 1148SOL    HW2 3467   1.731   3.299   4.910
 1149SOL     OW 3468   0.812   3.448   4.411
 1149SOL    HW1 3469   0.844   3.458   4.317
 1149SOL    HW2 3470   0.733   3.386   4.413
 1150SOL     OW 3471   1.424   2.076   4.836
 1150SOL    HW1 3472   1.476   2.011   4.891
 1150SOL    HW2 3473   1.375   2.139   4.897
 1151SOL     OW 3474   1.001   1.896   4.878
 1151SOL    HW1 3475   0.938   1.824   4.847
 1151SOL    HW2 3476   1.094   1.860   4.878
 1152SOL     OW 3477   0.770   3.192   4.025
 1152SOL    HW1 3478   0.724   3.105   4.042
 1152SOL    HW2 3479   0.861   3.189   4.066
 1153SOL     OW 3480   1.352   1.914   3.892
 1153SOL    HW1 3481   1.387   1.873   3.808
 1153SOL    HW2 3482   1.262   1.876   3.912
 1154SOL     OW 3483   1.300   2.315   4.415
 1154SOL    HW1 3484   1.241   2.395   4.419
 1154SOL    HW2 3485   1.315   2.280   4.508
 1155SOL     OW 3486   1.593   2.083   4.606
 1155SOL    HW1 3487   1.509   2.082   4.660
 1155SOL    HW2 3488   1.595   2.166   4.550
 1156SOL     OW 3489   0.039   2.939   4.024
 1156SOL    HW1 3490   0.138   2.928   4.015
 1156SOL    HW2 3491  -0.001   2.853   4.056
 1157SOL     OW 3492   0.875   3.508   4.061
 1157SOL    HW1 3493   0.798   3.473   4.007
 1157SOL    HW2 3494   0.843   3.579   4.123
 1158SOL     OW 3495   0.230   4.352   0.113
 1158SOL    HW1 3496   0.137   4.350   0.150
 1158SOL    HW2 3497   0.231   4.313   0.021
 1159SOL     OW 3498   0.225   3.999   0.996
 1159SOL    HW1 3499   0.260   3.982   1.088
 1159SOL    HW2 3500   0.137   3.954   0.984
 1160SOL     OW 3501   0.019   4.092   0.647
 1160SOL    HW1 3502  -0.063   4.135   0.686
 1160SOL    HW2 3503  -0.009   4.019   0.584
 1161SOL     OW 3504   1.135   4.427   0.717
 1161SOL    HW1 3505   1.192   4.505   0.692
 1161SOL    HW2 3506   1.075   4.453   0.793
 1162SOL     OW 3507   1.755   4.331   0.231
 1162SOL    HW1 3508   1.743   4.318   0.132
 1162SOL    HW2 3509   1.725   4.250   0.280
 1163SOL     OW 3510   0.768   4.868   1.023
 1163SOL    HW1 3511   0.690   4.885   1.083
 1163SOL    HW2 3512   0.802   4.955   0.987
 1164SOL     OW 3513   0.850   4.522   1.823
 1164SOL    HW1 3514   0.846   4.598   1.888
 1164SOL    HW2 3515   0.872   4.558   1.732
 1165SOL     OW 3516   0.685   4.736   0.665
 1165SOL    HW1 3517   0.754   4.720   0.735
 1165SOL    HW2 3518   0.612   4.793   0.703
 1166SOL     OW 3519   0.686   4.885   1.803
 1166SOL    HW1 3520   0.746   4.964   1.817
 1166SOL    HW2 3521   0.600   4.916   1.762
 1167SOL     OW 3522   0.335   5.159   1.061
 1167SOL    HW1 3523   0.257   5.128   1.008
 1167SOL    HW2 3524   0.393   5.217   1.004
 1168SOL     OW 3525   0.438   4.116   1.499
 1168SOL    HW1 3526   0.520   4.060   1.508
 1168SOL    HW2 3527   0.357   4.058   1.503
 1169SOL     OW 3528   1.603   4.171   0.737
 1169SOL    HW1 3529   1.529   4.217   0.687
 1169SOL    HW2 3530   1.654   4.239   0.790
 1170SOL     OW 3531   0.240   4.815   0.886
 1170SOL    HW1 3532   0.254   4.731   0.938
 1170SOL    HW2 3533   0.185   4.879   0.941
 1171SOL     OW 3534   0.606   4.688   0.123
 1171SOL    HW1 3535   0.613   4.772   0.069
 1171SOL    HW2 3536   0.652   4.701   0.211
 1172SOL     OW 3537   1.594   3.838   1.480
 1172SOL    HW1 3538   1.576   3.905   1.408
 1172SOL    HW2 3539   1.591   3.884   1.569
 1173SOL     OW 3540   0.122   4.367   0.563
 1173SOL    HW1 3541   0.077   4.279   0.580
 1173SOL    HW2 3542   0.121   4.421   0.647
 1174SOL     OW 3543   1.689   4.646   0.612
 1174SOL    HW1 3544   1.784   4.617   0.620
 1174SOL    HW2 3545   1.681   4.711   0.537
 1175SOL     OW 3546   1.641   4.832   0.432
 1175SOL    HW1 3547   1.727   4.834   0.380
 1175SOL    HW2 3548   1.655   4.879   0.520
 1176SOL     OW 3549   0.113   4.461   1.597
 1176SOL    HW1 3550   0.201   4.448   1.642
 1176SOL    HW2 3551   0.100   4.558   1.575
 1177SOL     OW 3552   1.293   4.952   1.423
 1177SOL    HW1 3553   1.330   4.879   1.365
 1177SOL    HW2 3554   1.345   4.957   1.508
 1178SOL     OW 3555   0.809   3.728   0.502
 1178SOL    HW1 3556   0.849   3.819   0.493
 1178SOL    HW2 3557   0.709   3.736   0.508
 1179SOL     OW 3558   0.197   4.700   1.264
 1179SOL    HW1 3559   0.286   4.655   1.250
 1179SOL    HW2 3560   0.124   4.635   1.245
 1180SOL     OW 3561   1.525   4.723   0.190
 1180SOL    HW1 3562   1.462   4.647   0.203
 1180SOL    HW2 3563   1.573   4.741   0.276
 1181SOL     OW 3564   0.317   3.975   1.801
 1181SOL    HW1 3565   0.388   4.046   1.807
 1181SOL    HW2 3566   0.229   4.014   1.829
 1182SOL     OW 3567   0.598   4.453   0.270
 1182SOL    HW1 3568   0.622   4.522   0.202
 1182SOL    HW2 3569   0.520   4.486   0.324
 1183SOL     OW 3570   1.281   4.069   0.944
 1183SOL    HW1 3571   1.195   4.019   0.931
 1183SOL    HW2 3572   1.343   4.015   1.000
 1184SOL     OW 3573   0.807   4.329   1.465
 1184SOL    HW1 3574   0.760   4.326   1.554
 1184SOL    HW2 3575   0.756   4.274   1.399
 1185SOL     OW 3576   1.394   4.193   1.674
 1185SOL    HW1 3577   1.374   4.236   1.762
 1185SOL    HW2 3578   1.472   4.131   1.683
 1186SOL     OW 3579   0.973   4.614   1.572
 1186SOL    HW1 3580   1.019   4.530   1.543
 1186SOL    HW2 3581   0.917   4.648   1.497
 1187SOL     OW 3582   0.991   4.134   1.242
 1187SOL    HW1 3583   0.914   4.168   1.296
 1187SOL    HW2 3584   0.957   4.083   1.163
 1188SOL     OW 3585   1.041   4.425   0.429
 1188SOL    HW1 3586   1.067   4.421   0.525
 1188SOL    HW2 3587   0.956   4.374   0.415
 1189SOL     OW 3588   0.076   4.535   0.789
 1189SOL    HW1 3589   0.175   4.523   0.798
 1189SOL    HW2 3590   0.052   4.630   0.810
 1190SOL     OW 3591   0.865   4.072   0.195
 1190SOL    HW1 3592   0.924   4.135   0.146
 1190SOL    HW2 3593   0.884   3.978   0.166
 1191SOL     OW 3594   1.719   4.309   1.831
 1191SOL    HW1 3595   1.693   4.398   1.795
 1191SOL    HW2 3596   1.717   4.241   1.758
 1192SOL     OW 3597   1.362   4.868   0.545
 1192SOL    HW1 3598   1.445   4.839   0.497
 1192SOL    HW2 3599   1.313   4.935   0.489
 1193SOL     OW 3600   0.550   3.920   0.885
 1193SOL    HW1 3601   0.545   3.915   0.985
 1193SOL    HW2 3602   0.552   4.016   0.856
 1194SOL     OW 3603   1.795   4.790   0.873
 1194SOL    HW1 3604   1.733   4.775   0.797
 1194SOL    HW2 3605   1.743   4.801   0.958
 1195SOL     OW 3606   0.321   4.667   0.242
 1195SOL    HW1 3607   0.403   4.706   0.200
 1195SOL    HW2 3608   0.294   4.585   0.193
 1196SOL     OW 3609   1.458   4.459   0.728
 1196SOL    HW1 3610   1.453   4.394   0.803
 1196SOL    HW2 3611   1.538   4.518   0.741
 1197SOL     OW 3612   0.202   4.009   1.498
 1197SOL    HW1 3613   0.122   4.069   1.485
 1197SOL    HW2 3614   0.192   3.960   1.584
 1198SOL     OW 3615   1.400   3.831   0.426
 1198SOL    HW1 3616   1.376   3.794   0.336
 1198SOL    HW2 3617   1.499   3.847   0.430
 1199SOL     OW 3618   0.382   4.424   0.480
 1199SOL    HW1 3619   0.427   4.334   0.477
 1199SOL    HW2 3620   0.288   4.413   0.513
 1200SOL     OW 3621   1.547   3.946   1.729
 1200SOL    HW1 3622   1.542   3.983   1.821
 1200SOL    HW2 3623   1.475   3.877   1.717
 1201SOL     OW 3624   0.614   3.846   0.117
 1201SOL    HW1 3625   0.712   3.824   0.124
 1201SOL    HW2 3626   0.583   3.829   0.024
 1202SOL     OW 3627   0.781   3.988   1.749
 1202SOL    HW1 3628   0.848   3.927   1.792
 1202SOL    HW2 3629   0.708   4.007   1.814
 1203SOL     OW 3630   1.351   4.314   1.433
 1203SOL    HW1 3631   1.379   4.271   1.518
 1203SOL    HW2 3632   1.376   4.410   1.434
 1204SOL     OW 3633   0.803   5.126   0.924
 1204SOL    HW1 3634   0.893   5.140   0.882
 1204SOL    HW2 3635   0.732   5.128   0.853
 1205SOL     OW 3636   0.922   4.227   0.899
 1205SOL    HW1 3637   0.897   4.218   0.803
 1205SOL    HW2 3638   0.970   4.145   0.930
 1206SOL     OW 3639   0.539   3.788   0.512
 1206SOL    HW1 3640   0.458   3.789   0.570
 1206SOL    HW2 3641   0.542   3.871   0.457
 1207SOL     OW 3642   0.297   3.759   0.171
 1207SOL    HW1 3643   0.346   3.843   0.150
 1207SOL    HW2 3644   0.359   3.694   0.216
 1208SOL     OW 3645   0.935   3.960   0.480
 1208SOL    HW1 3646   0.887   4.001   0.402
 1208SOL    HW2 3647   1.034   3.958   0.461
 1209SOL     OW 3648   1.076   4.407   1.464
 1209SOL    HW1 3649   0.996   4.346   1.467
 1209SOL    HW2 3650   1.157   4.354   1.440
 1210SOL     OW 3651   0.459   4.876   0.741
 1210SOL    HW1 3652   0.388   4.849   0.806
 1210SOL    HW2 3653   0.433   4.848   0.648
 1211SOL     OW 3654   1.032   4.273   0.016
 1211SOL    HW1 3655   0.991   4.355  -0.023
 1211SOL    HW2 3656   1.096   4.299   0.089
 1212SOL     OW 3657   0.078   4.280   1.386
 1212SOL    HW1 3658   0.170   4.279   1.345
 1212SOL    HW2 3659   0.072   4.354   1.453
 1213SOL     OW 3660   0.561   3.946   1.147
 1213SOL    HW1 3661   0.599   3.862   1.184
 1213SOL    HW2 3662   0.473   3.965   1.191
 1214SOL     OW 3663   0.866   4.178   0.642
 1214SOL    HW1 3664   0.834   4.250   0.580
 1214SOL    HW2 3665   0.890   4.097   0.589
 1215SOL     OW 3666   1.017   3.763   0.753
 1215SOL    HW1 3667   0.945   3.768   0.684
 1215SOL    HW2 3668   0.993   3.694   0.822
 1216SOL     OW 3669   1.429   4.897   0.867
 1216SOL    HW1 3670   1.374   4.813   0.860
 1216SOL    HW2 3671   1.455   4.926   0.775
 1217SOL     OW 3672   1.466   4.314   0.992
 1217SOL    HW1 3673   1.436   4.219   0.999
 1217SOL    HW2 3674   1.539   4.330   1.058
 1218SOL     OW 3675   1.857   4.557   0.377
 1218SOL    HW1 3676   1.899   4.493   0.441
 1218SOL    HW2 3677   1.819   4.506   0.299
 1219SOL     OW 3678   1.390   4.299   0.078
 1219SOL    HW1 3679   1.336   4.278   0.159
 1219SOL    HW2 3680   1.481   4.258   0.087
 1220SOL     OW 3681   0.527   3.980   0.328
 1220SOL    HW1 3682   0.554   3.921   0.253
 1220SOL    HW2 3683   0.527   4.075   0.297
 1221SOL     OW 3684   1.754   4.947   1.588
 1221SOL    HW1 3685   1.845   4.908   1.575
 1221SOL    HW2 3686   1.762   5.043   1.612
 1222SOL     OW 3687   1.638   4.823   1.079
 1222SOL    HW1 3688   1.643   4.904   1.138
 1222SOL    HW2 3689   1.552   4.825   1.028
 1223SOL     OW 3690   0.915   3.813   1.402
 1223SOL    HW1 3691   0.940   3.793   1.307
 1223SOL    HW2 3692   0.987   3.869   1.444
 1224SOL     OW 3693   0.980   4.840   1.719
 1224SOL    HW1 3694   0.881   4.846   1.729
 1224SOL    HW2 3695   1.003   4.760   1.663
 1225SOL     OW 3696   0.705   4.774   0.368
 1225SOL    HW1 3697   0.691   4.781   0.467
 1225SOL    HW2 3698   0.789   4.723   0.350
 1226SOL     OW 3699   0.410   4.537   1.251
 1226SOL    HW1 3700   0.496   4.549   1.301
 1226SOL    HW2 3701   0.368   4.450   1.278
 1227SOL     OW 3702   1.274   4.110   1.262
 1227SOL    HW1 3703   1.295   4.184   1.326
 1227SOL    HW2 3704   1.185   4.127   1.219
 1228SOL     OW 3705   0.367   4.824   0.501
 1228SOL    HW1 3706   0.360   4.907   0.445
 1228SOL    HW2 3707   0.371   4.744   0.441
 1229SOL     OW 3708   0.566   4.261   0.865
 1229SOL    HW1 3709   0.578   4.327   0.791
 1229SOL    HW2 3710   0.612   4.295   0.948
 1230SOL     OW 3711   1.582   4.363   0.472
 1230SOL    HW1 3712   1.551   4.424   0.545
 1230SOL    HW2 3713   1.632   4.415   0.403
 1231SOL     OW 3714   0.402   4.475   1.598
 1231SOL    HW1 3715   0.470   4.530   1.551
 1231SOL    HW2 3716   0.442   4.387   1.625
 1232SOL     OW 3717   1.587   4.503   1.670
 1232SOL    HW1 3718   1.495   4.541   1.665
 1232SOL    HW2 3719   1.647   4.550   1.605
 1233SOL     OW 3720   1.013   3.829   1.770
 1233SOL    HW1 3721   1.019   3.914   1.718
 1233SOL    HW2 3722   1.045   3.753   1.713
 1234SOL     OW 3723   0.504   3.774   1.740
 1234SOL    HW1 3724   0.462   3.717   1.670
 1234SOL    HW2 3725   0.438   3.843   1.772
 1235SOL     OW 3726   0.573   4.594   1.029
 1235SOL    HW1 3727   0.617   4.683   1.020
 1235SOL    HW2 3728   0.510   4.594   1.106
 1236SOL     OW 3729   1.360   4.586   1.045
 1236SOL    HW1 3730   1.285   4.586   0.979
 1236SOL    HW2 3731   1.397   4.494   1.054
 1237SOL     OW 3732   1.209   4.249   0.275
 1237SOL    HW1 3733   1.222   4.165   0.329
 1237SOL    HW2 3734   1.180   4.323   0.335
 1238SOL     OW 3735   0.307   3.937   1.231
 1238SOL    HW1 3736   0.284   3.974   1.321
 1238SOL    HW2 3737   0.277   3.842   1.225
 1239SOL     OW 3738   0.037   5.034   1.282
 1239SOL    HW1 3739   0.090   4.985   1.350
 1239SOL    HW2 3740   0.059   5.132   1.287
 1240SOL     OW 3741   0.732   4.358   1.064
 1240SOL    HW1 3742   0.791   4.332   0.988
 1240SOL    HW2 3743   0.704   4.454   1.053
 1241SOL     OW 3744   1.728   4.659   1.854
 1241SOL    HW1 3745   1.682   4.652   1.765
 1241SOL    HW2 3746   1.666   4.703   1.920
 1242SOL     OW 3747   0.307   3.787   0.618
 1242SOL    HW1 3748   0.296   3.881   0.651
 1242SOL    HW2 3749   0.302   3.724   0.695
 1243SOL     OW 3750   1.622   4.091   0.374
 1243SOL    HW1 3751   1.624   4.015   0.438
 1243SOL    HW2 3752   1.574   4.168   0.414
 1244SOL     OW 3753   1.023   4.490   0.966
 1244SOL    HW1 3754   1.038   4.511   1.062
 1244SOL    HW2 3755   0.993   4.395   0.957
 1245SOL     OW 3756   1.859   5.242   1.605
 1245SOL    HW1 3757   1.873   5.269   1.510
 1245SOL    HW2 3758   1.942   5.264   1.658
 1246SOL     OW 3759   0.350   4.622   1.804
 1246SOL    HW1 3760   0.426   4.666   1.852
 1246SOL    HW2 3761   0.385   4.575   1.722
 1247SOL     OW 3762   1.540   3.998   0.125
 1247SOL    HW1 3763   1.479   3.923   0.148
 1247SOL    HW2 3764   1.562   4.050   0.208
 1248SOL     OW 3765   1.303   4.562   0.042
 1248SOL    HW1 3766   1.337   4.469   0.057
 1248SOL    HW2 3767   1.321   4.589  -0.053
 1249SOL     OW 3768   0.319   4.534   0.949
 1249SOL    HW1 3769   0.412   4.570   0.954
 1249SOL    HW2 3770   0.313   4.449   1.001
 1250SOL     OW 3771   0.339   4.233   1.006
 1250SOL    HW1 3772   0.287   4.150   0.989
 1250SOL    HW2 3773   0.416   4.238   0.942
 1251SOL     OW 3774   1.138   4.104   1.678
 1251SOL    HW1 3775   1.093   4.167   1.742
 1251SOL    HW2 3776   1.231   4.135   1.661
 1252SOL     OW 3777   1.160   3.931   1.477
 1252SOL    HW1 3778   1.160   3.995   1.554
 1252SOL    HW2 3779   1.188   3.979   1.394
 1253SOL     OW 3780   0.008   5.050   0.200
 1253SOL    HW1 3781  -0.085   5.071   0.169
 1253SOL    HW2 3782   0.018   4.951   0.213
 1254SOL     OW 3783   1.002   4.520   1.238
 1254SOL    HW1 3784   1.043   4.488   1.324
 1254SOL    HW2 3785   0.906   4.493   1.235
 1255SOL     OW 3786   0.040   4.268   1.114
 1255SOL    HW1 3787   0.125   4.235   1.073
 1255SOL    HW2 3788   0.053   4.283   1.212
 1256SOL     OW 3789   0.189   4.244   1.722
 1256SOL    HW1 3790   0.248   4.204   1.652
 1256SOL    HW2 3791   0.131   4.315   1.681
 1257SOL     OW 3792   1.369   4.674   1.660
 1257SOL    HW1 3793   1.408   4.763   1.680
 1257SOL    HW2 3794   1.379   4.654   1.563
 1258SOL     OW 3795   0.815   4.296   0.325
 1258SOL    HW1 3796   0.822   4.207   0.279
 1258SOL    HW2 3797   0.721   4.330   0.317
 1259SOL     OW 3798   1.657   4.328   1.206
 1259SOL    HW1 3799   1.619   4.259   1.268
 1259SOL    HW2 3800   1.739   4.292   1.162
 1260SOL     OW 3801   0.671   4.188   1.269
 1260SOL    HW1 3802   0.637   4.099   1.239
 1260SOL    HW2 3803   0.697   4.242   1.189
 1261SOL     OW 3804   0.473   4.224   0.191
 1261SOL    HW1 3805   0.534   4.304   0.195
 1261SOL    HW2 3806   0.378   4.255   0.198
 1262SOL     OW 3807   0.159   4.861   1.466
 1262SOL    HW1 3808   0.181   4.800   1.542
 1262SOL    HW2 3809   0.169   4.812   1.380
 1263SOL     OW 3810   1.347   4.783   1.234
 1263SOL    HW1 3811   1.371   4.720   1.160
 1263SOL    HW2 3812   1.257   4.823   1.216
 1264SOL     OW 3813   1.302   4.579   0.309
 1264SOL    HW1 3814   1.216   4.548   0.351
 1264SOL    HW2 3815   1.298   4.565   0.210
 1265SOL     OW 3816   0.083   4.982   1.022
 1265SOL    HW1 3817   0.078   4.981   1.122
 1265SOL    HW2 3818   0.000   4.941   0.984
 1266SOL     OW 3819   0.903   3.810   0.133
 1266SOL    HW1 3820   0.954   3.811   0.047
 1266SOL    HW2 3821   0.959   3.768   0.204
 1267SOL     OW 3822   1.726   3.859   0.523
 1267SOL    HW1 3823   1.799   3.842   0.456
 1267SOL    HW2 3824   1.695   3.772   0.561
 1268SOL     OW 3825   1.280   4.651   0.672
 1268SOL    HW1 3826   1.340   4.570   0.674
 1268SOL    HW2 3827   1.320   4.720   0.612
 1269SOL     OW 3828   1.841   3.899   0.963
 1269SOL    HW1 3829   1.880   3.814   0.927
 1269SOL    HW2 3830   1.743   3.901   0.944
 1270SOL     OW 3831   0.263   4.050   0.720
 1270SOL    HW1 3832   0.184   4.101   0.686
 1270SOL    HW2 3833   0.254   4.035   0.818
 1271SOL     OW 3834   0.822   4.726   1.372
 1271SOL    HW1 3835   0.862   4.725   1.280
 1271SOL    HW2 3836   0.832   4.818   1.412
 1272SOL     OW 3837   0.916   4.634   0.291
 1272SOL    HW1 3838   0.979   4.672   0.223
 1272SOL    HW2 3839   0.956   4.551   0.330
 1273SOL     OW 3840   0.372   5.012   1.490
 1273SOL    HW1 3841   0.359   5.105   1.456
 1273SOL    HW2 3842   0.288   4.960   1.477
 1274SOL     OW 3843   1.614   5.016   1.289
 1274SOL    HW1 3844   1.674   5.019   1.369
 1274SOL    HW2 3845   1.539   5.080   1.302
 1275SOL     OW 3846   1.039   4.822   0.696
 1275SOL    HW1 3847   0.969   4.775   0.750
 1275SOL    HW2 3848   1.098   4.754   0.653
 1276SOL     OW 3849   1.014   3.960   0.971
 1276SOL    HW1 3850   1.006   3.924   0.878
 1276SOL    HW2 3851   1.012   3.884   1.036
 1277SOL     OW 3852   1.709   4.109   1.381
 1277SOL    HW1 3853   1.782   4.178   1.385
 1277SOL    HW2 3854   1.737   4.034   1.322
 1278SOL     OW 3855   0.105   4.737   1.726
 1278SOL    HW1 3856   0.028   4.704   1.780
 1278SOL    HW2 3857   0.190   4.707   1.768
 1279SOL     OW 3858   0.672   3.927   1.489
 1279SOL    HW1 3859   0.762   3.911   1.449
 1279SOL    HW2 3860   0.680   3.932   1.588
 1280SOL     OW 3861   0.075   4.069   0.033
 1280SOL    HW1 3862  -0.017   4.041   0.004
 1280SOL    HW2 3863   0.106   4.146  -0.023
 1281SOL     OW 3864   1.440   4.580   1.398
 1281SOL    HW1 3865   1.383   4.632   1.335
 1281SOL    HW2 3866   1.536   4.592   1.374
 1282SOL     OW 3867   0.072   3.890   0.318
 1282SOL    HW1 3868   0.055   3.973   0.264
 1282SOL    HW2 3869   0.162   3.853   0.296
 1283SOL     OW 3870   0.613   4.566   1.431
 1283SOL    HW1 3871   0.669   4.647   1.414
 1283SOL    HW2 3872   0.672   4.486   1.434
 1284SOL     OW 3873   0.716   4.289   1.708
 1284SOL    HW1 3874   0.735   4.354   1.782
 1284SOL    HW2 3875   0.776   4.209   1.717
 1285SOL     OW 3876   1.450   4.944   1.633
 1285SOL    HW1 3877   1.441   4.934   1.732
 1285SOL    HW2 3878   1.546   4.937   1.607
 1286SOL     OW 3879   1.674   4.607   1.254
 1286SOL    HW1 3880   1.647   4.518   1.217
 1286SOL    HW2 3881   1.675   4.675   1.181
 1287SOL     OW 3882   1.225   4.049   0.449
 1287SOL    HW1 3883   1.290   3.975   0.438
 1287SOL    HW2 3884   1.245   4.099   0.533
 1288SOL     OW 3885   0.594   4.469   0.652
 1288SOL    HW1 3886   0.644   4.554   0.633
 1288SOL    HW2 3887   0.506   4.471   0.604
 1289SOL     OW 3888   1.777   4.066   1.642
 1289SOL    HW1 3889   1.760   4.097   1.548
 1289SOL    HW2 3890   1.693   4.029   1.680
 1290SOL     OW 3891   1.730   4.658   1.517
 1290SOL    HW1 3892   1.768   4.749   1.532
 1290SOL    HW2 3893   1.722   4.641   1.418
 1291SOL     OW 3894   0.859   4.680   0.861
 1291SOL    HW1 3895   0.913   4.611   0.909
 1291SOL    HW2 3896   0.827   4.749   0.927
 1292SOL     OW 3897   1.083   4.708   0.087
 1292SOL    HW1 3898   1.060   4.761   0.005
 1292SOL    HW2 3899   1.164   4.652   0.068
 1293SOL     OW 3900   0.079   4.964   0.653
 1293SOL    HW1 3901   0.078   4.917   0.741
 1293SOL    HW2 3902   0.161   4.936   0.602
 1294SOL     OW 3903   1.824   3.916   1.227
 1294SOL    HW1 3904   1.820   3.826   1.271
 1294SOL    HW2 3905   1.827   3.905   1.128
 1295SOL     OW 3906   0.428   4.148   0.520
 1295SOL    HW1 3907   0.458   4.076   0.458
 1295SOL    HW2 3908   0.389   4.108   0.603
 1296SOL     OW 3909   0.317   4.271   1.280
 1296SOL    HW1 3910   0.355   4.212   1.352
 1296SOL    HW2 3911   0.357   4.245   1.192
 1297SOL     OW 3912   1.424   3.938   1.112
 1297SOL    HW1 3913   1.476   3.873   1.167
 1297SOL    HW2 3914   1.375   4.001   1.173
 1298SOL     OW 3915   1.001   3.758   1.154
 1298SOL    HW1 3916   0.938   3.686   1.123
 1298SOL    HW2 3917   1.094   3.722   1.154
 1299SOL     OW 3918   0.770   5.054   0.301
 1299SOL    HW1 3919   0.724   4.967   0.318
 1299SOL    HW2 3920   0.861   5.051   0.342
 1300SOL     OW 3921   1.352   3.776   0.168
 1300SOL    HW1 3922   1.387   3.735   0.084
 1300SOL    HW2 3923   1.262   3.738   0.188
 1301SOL     OW 3924   1.300   4.177   0.691
 1301SOL    HW1 3925   1.241   4.257   0.695
 1301SOL    HW2 3926   1.315   4.142   0.784
 1302SOL     OW 3927   1.593   3.945   0.882
 1302SOL    HW1 3928   1.509   3.944   0.936
 1302SOL    HW2 3929   1.595   4.028   0.826
 1303SOL     OW 3930   0.039   4.801   0.300
 1303SOL    HW1 3931   0.138   4.790   0.291
 1303SOL    HW2 3932  -0.001   4.715   0.332
 1304SOL     OW 3933   0.230   4.352   1.975
 1304SOL    HW1 3934   0.137   4.350   2.012
 1304SOL    HW2 3935   0.231   4.313   1.883
 1305SOL     OW 3936   0.225   3.999   2.858
 1305SOL    HW1 3937   0.260   3.982   2.950
 1305SOL    HW2 3938   0.137   3.954   2.846
 1306SOL     OW 3939   0.019   4.092   2.509
 1306SOL    HW1 3940  -0.063   4.135   2.548
 1306SOL    HW2 3941  -0.009   4.019   2.446
 1307SOL     OW 3942   1.135   4.427   2.579
 1307SOL    HW1 3943   1.192   4.505   2.554
 1307SOL    HW2 3944   1.075   4.453   2.655
 1308SOL     OW 3945   1.755   4.331   2.093
 1308SOL    HW1 3946   1.743   4.318   1.994
 1308SOL    HW2 3947   1.725   4.250   2.142
 1309SOL     OW 3948   0.768   4.868   2.885
 1309SOL    HW1 3949   0.690   4.885   2.945
 1309SOL    HW2 3950   0.802   4.955   2.849
 1310SOL     OW 3951   0.850   4.522   3.685
 1310SOL    HW1 3952   0.846   4.598   3.750
 1310SOL    HW2 3953   0.872   4.558   3.594
 1311SOL     OW 3954   0.685   4.736   2.527
 1311SOL    HW1 3955   0.754   4.720   2.597
 1311SOL    HW2 3956   0.612   4.793   2.565
 1312SOL     OW 3957   0.686   4.885   3.665
 1312SOL    HW1 3958   0.746   4.964   3.679
 1312SOL    HW2 3959   0.600   4.916   3.624
 1313SOL     OW 3960   0.335   5.159   2.923
 1313SOL    HW1 3961   0.257   5.128   2.870
 1313SOL    HW2 3962   0.393   5.217   2.866
 1314SOL     OW 3963   0.438   4.116   3.361
 1314SOL    HW1 3964   0.520   4.060   3.370
 1314SOL    HW2 3965   0.357   4.058   3.365
 1315SOL     OW 3966   1.603   4.171   2.599
 1315SOL    HW1 3967   1.529   4.217   2.549
 1315SOL    HW2 3968   1.654   4.239   2.652
 1316SOL     OW 3969   0.240   4.815   2.748
 1316SOL    HW1 3970   0.254   4.731   2.800
 1316SOL    HW2 3971   0.185   4.879   2.803
 1317SOL     OW 3972   0.606   4.688   1.985
 1317SOL    HW1 3973   0.613   4.772   1.931
 1317SOL    HW2 3974   0.652   4.701   2.073
 1318SOL     OW 3975   1.594   3.838   3.342
 1318SOL    HW1 3976   1.576   3.905   3.270
 1318SOL    HW2 3977   1.591   3.884   3.431
 1319SOL     OW 3978   0.122   4.367   2.425
 1319SOL    HW1 3979   0.077   4.279   2.442
 1319SOL    HW2 3980   0.121   4.421   2.509
 1320SOL     OW 3981   1.689   4.646   2.474
 1320SOL    HW1 3982   1.784   4.617   2.482
 1320SOL    HW2 3983   1.681   4.711   2.399
 1321SOL     OW 3984   1.641   4.832   2.294
 1321SOL    HW1 3985   1.727   4.834   2.242
 1321SOL    HW2 3986   1.655   4.879   2.382
 1322SOL     OW 3987   0.113   4.461   3.459
 1322SOL    HW1 3988   0.201   4.448   3.504
 1322SOL    HW2 3989   0.100   4.558   3.437
 1323SOL     OW 3990   1.293   4.952   3.285
 1323SOL    HW1 3991   1.330   4.879   3.227
 1323SOL    HW2 3992   1.345   4.957   3.370
 1324SOL     OW 3993   0.809   3.728   2.364
 1324SOL    HW1 3994   0.849   3.819   2.355
 1324SOL    HW2 3995   0.709   3.736   2.370
 1325SOL     OW 3996   0.197   4.700   3.126
 1325SOL    HW1 3997   0.286   4.655   3.112
 1325SOL    HW2 3998   0.124   4.635   3.107
 1326SOL     OW 3999   1.525   4.723   2.052
 1326SOL    HW1 4000   1.462   4.647   2.065
 1326SOL    HW2 4001   1.573   4.741   2.138
 1327SOL     OW 4002   0.317   3.975   3.663
 1327SOL    HW1 4003   0.388   4.046   3.669
 1327SOL    HW2 4004   0.229   4.014   3.691
 1328SOL     OW 4005   0.598   4.453   2.132
 1328SOL    HW1 4006   0.622   4.522   2.064
 1328SOL    HW2 4007   0.520   4.486   2.186
 1329SOL     OW 4008   1.281   4.069   2.806
 1329SOL    HW1 4009   1.195   4.019   2.793
 1329SOL    HW2 4010   1.343   4.015   2.862
 1330SOL     OW 4011   0.807   4.329   3.327
 1330SOL    HW1 4012   0.760   4.326   3.416
 1330SOL    HW2 4013   0.756   4.274   3.261
 1331SOL     OW 4014   1.394   4.193   3.536
 1331SOL    HW1 4015   1.374   4.236   3.624
 1331SOL    HW2 4016   1.472   4.131   3.545
 1332SOL     OW 4017   0.973   4.614   3.434
 1332SOL    HW1 4018   1.019   4.530   3.405
 1332SOL    HW2 4019   0.917   4.648   3.359
 1333SOL     OW 4020   0.991   4.134   3.104
 1333SOL    HW1 4021   0.914   4.168   3.158
 1333SOL    HW2 4022   0.957   4.083   3.025
 1334SOL     OW 4023   1.041   4.425   2.291
 1334SOL    HW1 4024   1.067   4.421   2.387
 1334SOL    HW2 4025   0.956   4.374   2.277
 1335SOL     OW 4026   0.076   4.535   2.651
 1335SOL    HW1 4027   0.175   4.523   2.660
 1335SOL    HW2 4028   0.052   4.630   2.672
 1336SOL     OW 4029   0.865   4.072   2.057
 1336SOL    HW1 4030   0.924   4.135   2.008
 1336SOL    HW2 4031   0.884   3.978   2.028
 1337SOL     OW 4032   1.719   4.309   3.693
 1337SOL    HW1 4033   1.693   4.398   3.657
 1337SOL    HW2 4034   1.717   4.241   3.620
 1338SOL     OW 4035   1.362   4.868   2.407
 1338SOL    HW1 4036   1.445   4.839   2.359
 1338SOL    HW2 4037   1.313   4.935   2.351
 1339SOL     OW 4038   0.550   3.920   2.747
 1339SOL    HW1 4039   0.545   3.915   2.847
 1339SOL    HW2 4040   0.552   4.016   2.718
 1340SOL     OW 4041   1.795   4.790   2.735
 1340SOL    HW1 4042   1.733   4.775   2.659
 1340SOL    HW2 4043   1.743   4.801   2.820
 1341SOL     OW 4044   0.321   4.667   2.104
 1341SOL    HW1 4045   0.403   4.706   2.062
 1341SOL    HW2 4046   0.294   4.585   2.055
 1342SOL     OW 4047   1.458   4.459   2.590
 1342SOL    HW1 4048   1.453   4.394   2.665
 1342SOL    HW2 4049   1.538   4.518   2.603
 1343SOL     OW 4050   0.202   4.009   3.360
 1343SOL    HW1 4051   0.122   4.069   3.347
 1343SOL    HW2 4052   0.192   3.960   3.446
 1344SOL     OW 4053   1.400   3.831   2.288
 1344SOL    HW1 4054   1.376   3.794   2.198
 1344SOL    HW2 4055   1.499   3.847   2.292
 1345SOL     OW 4056   0.382   4.424   2.342
 1345SOL    HW1 4057   0.427   4.334   2.339
 1345SOL    HW2 4058   0.288   4.413   2.375
 1346SOL     OW 4059   1.547   3.946   3.591
 1346SOL    HW1 4060   1.542   3.983   3.683
 1346SOL    HW2 4061   1.475   3.877   3.579
 1347SOL     OW 4062   0.614   3.846   1.979
 1347SOL    HW1 4063   0.712   3.824   1.986
 1347SOL    HW2 4064   0.583   3.829   1.886
 1348SOL     OW 4065   0.781   3.988   3.611
 1348SOL    HW1 4066   0.848   3.927   3.654
 1348SOL    HW2 4067   0.708   4.007   3.676
 1349SOL     OW 4068   1.351   4.314   3.295
 1349SOL    HW1 4069   1.379   4.271   3.380
 1349SOL    HW2 4070   1.376   4.410   3.296
 1350SOL     OW 4071   0.803   5.126   2.786
 1350SOL    HW1 4072   0.893   5.140   2.744
 1350SOL    HW2 4073   0.732   5.128   2.715
 1351SOL     OW 4074   0.922   4.227   2.761
 1351SOL    HW1 4075   0.897   4.218   2.665
 1351SOL    HW2 4076   0.970   4.145   2.792
 1352SOL     OW 4077   0.539   3.788   2.374
 1352SOL    HW1 4078   0.458   3.789   2.432
 1352SOL    HW2 4079   0.542   3.871   2.319
 1353SOL     OW 4080   0.297   3.759   2.033
 1353SOL    HW1 4081   0.346   3.843   2.012
 1353SOL    HW2 4082   0.359   3.694   2.078
 1354SOL     OW 4083   0.935   3.960   2.342
 1354SOL    HW1 4084   0.887   4.001   2.264
 1354SOL    HW2 4085   1.034   3.958   2.323
 1355SOL     OW 4086   1.076   4.407   3.326
 1355SOL    HW1 4087   0.996   4.346   3.329
 1355SOL    HW2 4088   1.157   4.354   3.302
 1356SOL     OW 4089   0.459   4.876   2.603
 1356SOL    HW1 4090   0.388   4.849   2.668
 1356SOL    HW2 4091   0.433   4.848   2.510
 1357SOL     OW 4092   1.032   4.273   1.878
 1357SOL    HW1 4093   0.991   4.355   1.839
 1357SOL    HW2 4094   1.096   4.299   1.951
 1358SOL     OW 4095   0.078   4.280   3.248
 1358SOL    HW1 4096   0.170   4.279   3.207
 1358SOL    HW2 4097   0.072   4.354   3.315
 1359SOL     OW 4098   0.561   3.946   3.009
 1359SOL    HW1 4099   0.599   3.862   3.046
 1359SOL    HW2 4100   0.473   3.965   3.053
 1360SOL     OW 4101   0.866   4.178   2.504
 1360SOL    HW1 4102   0.834   4.250   2.442
 1360SOL    HW2 4103   0.890   4.097   2.451
 1361SOL     OW 4104   1.017   3.763   2.615
 1361SOL    HW1 4105   0.945   3.768   2.546
 1361SOL    HW2 4106   0.993   3.694   2.684
 1362SOL     OW 4107   1.429   4.897   2.729
 1362SOL    HW1 4108   1.374   4.813   2.722
 1362SOL    HW2 4109   1.455   4.926   2.637
 1363SOL     OW 4110   1.466   4.314   2.854
 1363SOL    HW1 4111   1.436   4.219   2.861
 1363SOL    HW2 4112   1.539   4.330   2.920
 1364SOL     OW 4113   1.857   4.557   2.239
 1364SOL    HW1 4114   1.899   4.493   2.303
 1364SOL    HW2 4115   1.819   4.506   2.161
 1365SOL     OW 4116   1.390   4.299   1.940
 1365SOL    HW1 4117   1.336   4.278   2.021
 1365SOL    HW2 4118   1.481   4.258   1.949
 1366SOL     OW 4119   0.527   3.980   2.190
 1366SOL    HW1 4120   0.554   3.921   2.115
 1366SOL    HW2 4121   0.527   4.075   2.159
 1367SOL     OW 4122   1.754   4.947   3.450
 1367SOL    HW1 4123   1.845   4.908   3.437
 1367SOL    HW2 4124   1.762   5.043   3.474
 1368SOL     OW 4125   1.638   4.823   2.941
 1368SOL    HW1 4126   1.643   4.904   3.000
 1368SOL    HW2 4127   1.552   4.825   2.890
 1369SOL     OW 4128   0.915   3.813   3.264
 1369SOL    HW1 4129   0.940   3.793   3.169
 1369SOL    HW2 4130   0.987   3.869   3.306
 1370SOL     OW 4131   0.980   4.840   3.581
 1370SOL    HW1 4132   0.881   4.846   3.591
 1370SOL    HW2 4133   1.003   4.760   3.525
 1371SOL     OW 4134   0.705   4.774   2.230
 1371SOL    HW1 4135   0.691   4.781   2.329
 1371SOL    HW2 4136   0.789   4.723   2.212
 1372SOL     OW 4137   0.410   4.537   3.113
 1372SOL    HW1 4138   0.496   4.549   3.163
 1372SOL    HW2 4139   0.368   4.450   3.140
 1373SOL     OW 4140   1.274   4.110   3.124
 1373SOL    HW1 4141   1.295   4.184   3.188
 1373SOL    HW2 4142   1.185   4.127   3.081
 1374SOL     OW 4143   0.367   4.824   2.363
 1374SOL    HW1 4144   0.360   4.907   2.307
 1374SOL    HW2 4145   0.371   4.744   2.303
 1375SOL     OW 4146   0.566   4.261   2.727
 1375SOL    HW1 4147   0.578   4.327   2.653
 1375SOL    HW2 4148   0.612   4.295   2.810
 1376SOL     OW 4149   1.582   4.363   2.334
 1376SOL    HW1 4150   1.551   4.424   2.407
 1376SOL    HW2 4151   1.632   4.415   2.265
 1377SOL     OW 4152   0.402   4.475   3.460
 1377SOL    HW1 4153   0.470   4.530   3.413
 1377SOL    HW2 4154   0.442   4.387   3.487
 1378SOL     OW 4155   1.587   4.503   3.532
 1378SOL    HW1 4156   1.495   4.541   3.527
 1378SOL    HW2 4157   1.647   4.550   3.467
 1379SOL     OW 4158   1.013   3.829   3.632
 1379SOL    HW1 4159   1.019   3.914   3.580
 1379SOL    HW2 4160   1.045   3.753   3.575
 1380SOL     OW 4161   0.504   3.774   3.602
 1380SOL    HW1 4162   0.462   3.717   3.532
 1380SOL    HW2 4163   0.438   3.843   3.634
 1381SOL     OW 4164   0.573   4.594   2.891
 1381SOL    HW1 4165   0.617   4.683   2.882
 1381SOL    HW2 4166   0.510   4.594   2.968
 1382SOL     OW 4167   1.360   4.586   2.907
 1382SOL    HW1 4168   1.285   4.586   2.841
 1382SOL    HW2 4169   1.397   4.494   2.916
 1383SOL     OW 4170   1.209   4.249   2.137
 1383SOL    HW1 4171   1.222   4.165   2.191
 1383SOL    HW2 4172   1.180   4.323   2.197
 1384SOL     OW 4173   0.307   3.937   3.093
 1384SOL    HW1 4174   0.284   3.974   3.183
 1384SOL    HW2 4175   0.277   3.842   3.087
 1385SOL     OW 4176   0.037   5.034   3.144
 1385SOL    HW1 4177   0.090   4.985   3.212
 1385SOL    HW2 4178   0.059   5.132   3.149
 1386SOL     OW 4179   0.732   4.358   2.926
 1386SOL    HW1 4180   0.791   4.332   2.850
 1386SOL    HW2 4181   0.704   4.454   2.915
 1387SOL     OW 4182   1.728   4.659   3.716
 1387SOL    HW1 4183   1.682   4.652   3.627
 1387SOL    HW2 4184   1.666   4.703   3.782
 1388SOL     OW 4185   0.307   3.787   2.480
 1388SOL    HW1 4186   0.296   3.881   2.513
 1388SOL    HW2 4187   0.302   3.724   2.557
 1389SOL     OW 4188   1.622   4.091   2.236
 1389SOL    HW1 4189   1.624   4.015   2.300
 1389SOL    HW2 4190   1.574   4.168   2.276
 1390SOL     OW 4191   1.023   4.490   2.828
 1390SOL    HW1 4192   1.038   4.511   2.924
 1390SOL    HW2 4193   0.993   4.395   2.819
 1391SOL     OW 4194   1.859   5.242   3.467
 1391SOL    HW1 4195   1.873   5.269   3.372
 1391SOL    HW2 4196   1.942   5.264   3.520
 1392SOL     OW 4197   0.350   4.622   3.666
 1392SOL    HW1 4198   0.426   4.666   3.714
 1392SOL    HW2 4199   0.385   4.575   3.584
 1393SOL     OW 4200   1.540   3.998   1.987
 1393SOL    HW1 4201   1.479   3.923   2.010
 1393SOL    HW2 4202   1.562   4.050   2.070
 1394SOL     OW 4203   1.303   4.562   1.904
 1394SOL    HW1 4204   1.337   4.469   1.919
 1394SOL    HW2 4205   1.321   4.589   1.809
 1395SOL     OW 4206   0.319   4.534   2.811
 1395SOL    HW1 4207   0.412   4.570   2.816
 1395SOL    HW2 4208   0.313   4.449   2.863
 1396SOL     OW 4209   0.339   4.233   2.868
 1396SOL    HW1 4210   0.287   4.150   2.851
 1396SOL    HW2 4211   0.416   4.238   2.804
 1397SOL     OW 4212   1.138   4.104   3.540
 1397SOL    HW1 4213   1.093   4.167   3.604
 1397SOL    HW2 4214   1.231   4.135   3.523
 1398SOL     OW 4215   1.160   3.931   3.339
 1398SOL    HW1 4216   1.160   3.995   3.416
 1398SOL    HW2 4217   1.188   3.979   3.256
 1399SOL     OW 4218   0.008   5.050   2.062
 1399SOL    HW1 4219  -0.085   5.071   2.031
 1399SOL    HW2 4220   0.018   4.951   2.075
 1400SOL     OW 4221   1.002   4.520   3.100
 1400SOL    HW1 4222   1.043   4.488   3.186
 1400SOL    HW2 4223   0.906   4.493   3.097
 1401SOL     OW 4224   0.040   4.268   2.976
 1401SOL    HW1 4225   0.125   4.235   2.935
 1401SOL    HW2 4226   0.053   4.283   3.074
 1402SOL     OW 4227   0.189   4.244   3.584
 1402SOL    HW1 4228   0.248   4.204   3.514
 1402SOL    HW2 4229   0.131   4.315   3.543
 1403SOL     OW 4230   1.369   4.674   3.522
 1403SOL    HW1 4231   1.408   4.763   3.542
 1403SOL    HW2 4232   1.379   4.654   3.425
 1404SOL     OW 4233   0.815   4.296   2.187
 1404SOL    HW1 4234   0.822   4.207   2.141
 1404SOL    HW2 4235   0.721   4.330   2.179
 1405SOL     OW 4236   1.657   4.328   3.068
 1405SOL    HW1 4237   1.619   4.259   3.130
 1405SOL    HW2 4238   1.739   4.292   3.024
 1406SOL     OW 4239   0.671   4.188   3.131
 1406SOL    HW1 4240   0.637   4.099   3.101
 1406SOL    HW2 4241   0.697   4.242   3.051
 1407SOL     OW 4242   0.473   4.224   2.053
 1407SOL    HW1 4243   0.534   4.304   2.057
 1407SOL    HW2 4244   0.378   4.255   2.060
 1408SOL     OW 4245   0.159   4.861   3.328
 1408SOL    HW1 4246   0.181   4.800   3.404
 1408SOL    HW2 4247   0.169   4.812   3.242
 1409SOL     OW 4248   1.347   4.783   3.096
 1409SOL    HW1 4249   1.371   4.720   3.022
 1409SOL    HW2 4250   1.257   4.823   3.078
 1410SOL     OW 4251   1.302   4.579   2.171
 1410SOL    HW1 4252   1.216   4.548   2.213
 1410SOL    HW2 4253   1.298   4.565   2.072
 1411SOL     OW 4254   0.083   4.982   2.884
 1411SOL    HW1 4255   0.078   4.981   2.984
 1411SOL    HW2 4256   0.000   4.941   2.846
 1412SOL     OW 4257   1.726   3.859   2.385
 1412SOL    HW1 4258   1.799   3.842   2.318
 1412SOL    HW2 4259   1.695   3.772   2.423
 1413SOL     OW 4260   1.280   4.651   2.534
 1413SOL    HW1 4261   1.340   4.570   2.536
 1413SOL    HW2 4262   1.320   4.720   2.474
 1414SOL     OW 4263   1.841   3.899   2.825
 1414SOL    HW1 4264   1.880   3.814   2.789
 1414SOL    HW2 4265   1.743   3.901   2.806
 1415SOL     OW 4266   0.263   4.050   2.582
 1415SOL    HW1 4267   0.184   4.101   2.548
 1415SOL    HW2 4268   0.254   4.035   2.680
 1416SOL     OW 4269   1.194   5.336   1.893
 1416SOL    HW1 4270   1.200   5.243   1.930
 1416SOL    HW2 4271   1.135   5.336   1.813
 1417SOL     OW 4272   0.822   4.726   3.234
 1417SOL    HW1 4273   0.862   4.725   3.142
 1417SOL    HW2 4274   0.832   4.818   3.274
 1418SOL     OW 4275   0.916   4.634   2.153
 1418SOL    HW1 4276   0.979   4.672   2.085
 1418SOL    HW2 4277   0.956   4.551   2.192
 1419SOL     OW 4278   0.372   5.012   3.352
 1419SOL    HW1 4279   0.359   5.105   3.318
 1419SOL    HW2 4280   0.288   4.960   3.339
 1420SOL     OW 4281   1.614   5.016   3.151
 1420SOL    HW1 4282   1.674   5.019   3.231
 1420SOL    HW2 4283   1.539   5.080   3.164
 1421SOL     OW 4284   1.039   4.822   2.558
 1421SOL    HW1 4285   0.969   4.775   2.612
 1421SOL    HW2 4286   1.098   4.754   2.515
 1422SOL     OW 4287   1.014   3.960   2.833
 1422SOL    HW1 4288   1.006   3.924   2.740
 1422SOL    HW2 4289   1.012   3.884   2.898
 1423SOL     OW 4290   1.709   4.109   3.243
 1423SOL    HW1 4291   1.782   4.178   3.247
 1423SOL    HW2 4292   1.737   4.034   3.184
 1424SOL     OW 4293   0.105   4.737   3.588
 1424SOL    HW1 4294   0.028   4.704   3.642
 1424SOL    HW2 4295   0.190   4.707   3.630
 1425SOL     OW 4296   0.672   3.927   3.351
 1425SOL    HW1 4297   0.762   3.911   3.311
 1425SOL    HW2 4298   0.680   3.932   3.450
 1426SOL     OW 4299   0.075   4.069   1.895
 1426SOL    HW1 4300  -0.017   4.041   1.866
 1426SOL    HW2 4301   0.106   4.146   1.839
 1427SOL     OW 4302   1.440   4.580   3.260
 1427SOL    HW1 4303   1.383   4.632   3.197
 1427SOL    HW2 4304   1.536   4.592   3.236
 1428SOL     OW 4305   0.072   3.890   2.180
 1428SOL    HW1 4306   0.055   3.973   2.126
 1428SOL    HW2 4307   0.162   3.853   2.158
 1429SOL     OW 4308   0.613   4.566   3.293
 1429SOL    HW1 4309   0.669   4.647   3.276
 1429SOL    HW2 4310   0.672   4.486   3.296
 1430SOL     OW 4311   0.716   4.289   3.570
 1430SOL    HW1 4312   0.735   4.354   3.644
 1430SOL    HW2 4313   0.776   4.209   3.579
 1431SOL     OW 4314   1.450   4.944   3.495
 1431SOL    HW1 4315   1.441   4.934   3.594
 1431SOL    HW2 4316   1.546   4.937   3.469
 1432SOL     OW 4317   1.674   4.607   3.116
 1432SOL    HW1 4318   1.647   4.518   3.079
 1432SOL    HW2 4319   1.675   4.675   3.043
 1433SOL     OW 4320   1.225   4.049   2.311
 1433SOL    HW1 4321   1.290   3.975   2.300
 1433SOL    HW2 4322   1.245   4.099   2.395
 1434SOL     OW 4323   0.594   4.469   2.514
 1434SOL    HW1 4324   0.644   4.554   2.495
 1434SOL    HW2 4325   0.506   4.471   2.466
 1435SOL     OW 4326   1.777   4.066   3.504
 1435SOL    HW1 4327   1.760   4.097   3.410
 1435SOL    HW2 4328   1.693   4.029   3.542
 1436SOL     OW 4329   1.730   4.658   3.379
 1436SOL    HW1 4330   1.768   4.749   3.394
 1436SOL    HW2 4331   1.722   4.641   3.280
 1437SOL     OW 4332   0.859   4.680   2.723
 1437SOL    HW1 4333   0.913   4.611   2.771
 1437SOL    HW2 4334   0.827   4.749   2.789
 1438SOL     OW 4335   1.083   4.708   1.949
 1438SOL    HW1 4336   1.060   4.761   1.867
 1438SOL    HW2 4337   1.164   4.652   1.930
 1439SOL     OW 4338   0.079   4.964   2.515
 1439SOL    HW1 4339   0.078   4.917   2.603
 1439SOL    HW2 4340   0.161   4.936   2.464
 1440SOL     OW 4341   1.824   3.916   3.089
 1440SOL    HW1 4342   1.820   3.826   3.133
 1440SOL    HW2 4343   1.827   3.905   2.990
 1441SOL     OW 4344   0.428   4.148   2.382
 1441SOL    HW1 4345   0.458   4.076   2.320
 1441SOL    HW2 4346   0.389   4.108   2.465
 1442SOL     OW 4347   0.317   4.271   3.142
 1442SOL    HW1 4348   0.355   4.212   3.214
 1442SOL    HW2 4349   0.357   4.245   3.054
 1443SOL     OW 4350   1.424   3.938   2.974
 1443SOL    HW1 4351   1.476   3.873   3.029
 1443SOL    HW2 4352   1.375   4.001   3.035
 1444SOL     OW 4353   1.001   3.758   3.016
 1444SOL    HW1 4354   0.938   3.686   2.985
 1444SOL    HW2 4355   1.094   3.722   3.016
 1445SOL     OW 4356   0.770   5.054   2.163
 1445SOL    HW1 4357   0.724   4.967   2.180
 1445SOL    HW2 4358   0.861   5.051   2.204
 1446SOL     OW 4359   1.352   3.776   2.030
 1446SOL    HW1 4360   1.387   3.735   1.946
 1446SOL    HW2 4361   1.262   3.738   2.050
 1447SOL     OW 4362   1.300   4.177   2.553
 1447SOL    HW1 4363   1.241   4.257   2.557
 1447SOL    HW2 4364   1.315   4.142   2.646
 1448SOL     OW 4365   1.593   3.945   2.744
 1448SOL    HW1 4366   1.509   3.944   2.798
 1448SOL    HW2 4367   1.595   4.028   2.688
 1449SOL     OW 4368   0.039   4.801   2.162
 1449SOL    HW1 4369   0.138   4.790   2.153
 1449SOL    HW2 4370  -0.001   4.715   2.194
 1450SOL     OW 4371   0.230   4.352   3.837
 1450SOL    HW1 4372   0.137   4.350   3.874
 1450SOL    HW2 4373   0.231   4.313   3.745
 1451SOL     OW 4374   0.225   3.999   4.720
 1451SOL    HW1 4375   0.260   3.982   4.812
 1451SOL    HW2 4376   0.137   3.954   4.708
 1452SOL     OW 4377   0.019   4.092   4.371
 1452SOL    HW1 4378  -0.063   4.135   4.410
 1452SOL    HW2 4379  -0.009   4.019   4.308
 1453SOL     OW 4380   1.135   4.427   4.441
 1453SOL    HW1 4381   1.192   4.505   4.416
 1453SOL    HW2 4382   1.075   4.453   4.517
 1454SOL     OW 4383   1.755   4.331   3.955
 1454SOL    HW1 4384   1.743   4.318   3.856
 1454SOL    HW2 4385   1.725   4.250   4.004
 1455SOL     OW 4386   0.768   4.868   4.747
 1455SOL    HW1 4387   0.690   4.885   4.807
 1455SOL    HW2 4388   0.802   4.955   4.711
 1456SOL     OW 4389   0.685   4.736   4.389
 1456SOL    HW1 4390   0.754   4.720   4.459
 1456SOL    HW2 4391   0.612   4.793   4.427
 1457SOL     OW 4392   0.335   5.159   4.785
 1457SOL    HW1 4393   0.257   5.128   4.732
 1457SOL    HW2 4394   0.393   5.217   4.728
 1458SOL     OW 4395   1.603   4.171   4.461
 1458SOL    HW1 4396   1.529   4.217   4.411
 1458SOL    HW2 4397   1.654   4.239   4.514
 1459SOL     OW 4398   0.240   4.815   4.610
 1459SOL    HW1 4399   0.254   4.731   4.662
 1459SOL    HW2 4400   0.185   4.879   4.665
 1460SOL     OW 4401   0.606   4.688   3.847
 1460SOL    HW1 4402   0.613   4.772   3.793
 1460SOL    HW2 4403   0.652   4.701   3.935
 1461SOL     OW 4404   0.122   4.367   4.287
 1461SOL    HW1 4405   0.077   4.279   4.304
 1461SOL    HW2 4406   0.121   4.421   4.371
 1462SOL     OW 4407   1.689   4.646   4.336
 1462SOL    HW1 4408   1.784   4.617   4.344
 1462SOL    HW2 4409   1.681   4.711   4.261
 1463SOL     OW 4410   1.641   4.832   4.156
 1463SOL    HW1 4411   1.727   4.834   4.104
 1463SOL    HW2 4412   1.655   4.879   4.244
 1464SOL     OW 4413   0.113   4.461   5.321
 1464SOL    HW1 4414   0.201   4.448   5.366
 1464SOL    HW2 4415   0.100   4.558   5.299
 1465SOL     OW 4416   0.809   3.728   4.226
 1465SOL    HW1 4417   0.849   3.819   4.217
 1465SOL    HW2 4418   0.709   3.736   4.232
 1466SOL     OW 4419   0.197   4.700   4.988
 1466SOL    HW1 4420   0.286   4.655   4.974
 1466SOL    HW2 4421   0.124   4.635   4.969
 1467SOL     OW 4422   1.525   4.723   3.914
 1467SOL    HW1 4423   1.462   4.647   3.927
 1467SOL    HW2 4424   1.573   4.741   4.000
 1468SOL     OW 4425   0.598   4.453   3.994
 1468SOL    HW1 4426   0.622   4.522   3.926
 1468SOL    HW2 4427   0.520   4.486   4.048
 1469SOL     OW 4428   1.281   4.069   4.668
 1469SOL    HW1 4429   1.195   4.019   4.655
 1469SOL    HW2 4430   1.343   4.015   4.724
 1470SOL     OW 4431   0.991   4.134   4.966
 1470SOL    HW1 4432   0.914   4.168   5.020
 1470SOL    HW2 4433   0.957   4.083   4.887
 1471SOL     OW 4434   1.041   4.425   4.153
 1471SOL    HW1 4435   1.067   4.421   4.249
 1471SOL    HW2 4436   0.956   4.374   4.139
 1472SOL     OW 4437   0.076   4.535   4.513
 1472SOL    HW1 4438   0.175   4.523   4.522
 1472SOL    HW2 4439   0.052   4.630   4.534
 1473SOL     OW 4440   0.865   4.072   3.919
 1473SOL    HW1 4441   0.924   4.135   3.870
 1473SOL    HW2 4442   0.884   3.978   3.890
 1474SOL     OW 4443   1.362   4.868   4.269
 1474SOL    HW1 4444   1.445   4.839   4.221
 1474SOL    HW2 4445   1.313   4.935   4.213
 1475SOL     OW 4446   0.550   3.920   4.609
 1475SOL    HW1 4447   0.545   3.915   4.709
 1475SOL    HW2 4448   0.552   4.016   4.580
 1476SOL     OW 4449   1.795   4.790   4.597
 1476SOL    HW1 4450   1.733   4.775   4.521
 1476SOL    HW2 4451   1.743   4.801   4.682
 1477SOL     OW 4452   0.321   4.667   3.966
 1477SOL    HW1 4453   0.403   4.706   3.924
 1477SOL    HW2 4454   0.294   4.585   3.917
 1478SOL     OW 4455   1.458   4.459   4.452
 1478SOL    HW1 4456   1.453   4.394   4.527
 1478SOL    HW2 4457   1.538   4.518   4.465
 1479SOL     OW 4458   1.400   3.831   4.150
 1479SOL    HW1 4459   1.376   3.794   4.060
 1479SOL    HW2 4460   1.499   3.847   4.154
 1480SOL     OW 4461   0.382   4.424   4.204
 1480SOL    HW1 4462   0.427   4.334   4.201
 1480SOL    HW2 4463   0.288   4.413   4.237
 1481SOL     OW 4464   0.614   3.846   3.841
 1481SOL    HW1 4465   0.712   3.824   3.848
 1481SOL    HW2 4466   0.583   3.829   3.748
 1482SOL     OW 4467   0.803   5.126   4.648
 1482SOL    HW1 4468   0.893   5.140   4.606
 1482SOL    HW2 4469   0.732   5.128   4.577
 1483SOL     OW 4470   0.922   4.227   4.623
 1483SOL    HW1 4471   0.897   4.218   4.527
 1483SOL    HW2 4472   0.970   4.145   4.654
 1484SOL     OW 4473   0.539   3.788   4.236
 1484SOL    HW1 4474   0.458   3.789   4.294
 1484SOL    HW2 4475   0.542   3.871   4.181
 1485SOL     OW 4476   0.297   3.759   3.895
 1485SOL    HW1 4477   0.346   3.843   3.874
 1485SOL    HW2 4478   0.359   3.694   3.940
 1486SOL     OW 4479   0.935   3.960   4.204
 1486SOL    HW1 4480   0.887   4.001   4.126
 1486SOL    HW2 4481   1.034   3.958   4.185
 1487SOL     OW 4482   0.459   4.876   4.465
 1487SOL    HW1 4483   0.388   4.849   4.530
 1487SOL    HW2 4484   0.433   4.848   4.372
 1488SOL     OW 4485   1.032   4.273   3.740
 1488SOL    HW1 4486   0.991   4.355   3.701
 1488SOL    HW2 4487   1.096   4.299   3.813
 1489SOL     OW 4488   0.561   3.946   4.871
 1489SOL    HW1 4489   0.599   3.862   4.908
 1489SOL    HW2 4490   0.473   3.965   4.915
 1490SOL     OW 4491   0.866   4.178   4.366
 1490SOL    HW1 4492   0.834   4.250   4.304
 1490SOL    HW2 4493   0.890   4.097   4.313
 1491SOL     OW 4494   1.017   3.763   4.477
 1491SOL    HW1 4495   0.945   3.768   4.408
 1491SOL    HW2 4496   0.993   3.694   4.546
 1492SOL     OW 4497   1.429   4.897   4.591
 1492SOL    HW1 4498   1.374   4.813   4.584
 1492SOL    HW2 4499   1.455   4.926   4.499
 1493SOL     OW 4500   1.466   4.314   4.716
 1493SOL    HW1 4501   1.436   4.219   4.723
 1493SOL    HW2 4502   1.539   4.330   4.782
 1494SOL     OW 4503   1.857   4.557   4.101
 1494SOL    HW1 4504   1.899   4.493   4.165
 1494SOL    HW2 4505   1.819   4.506   4.023
 1495SOL     OW 4506   1.390   4.299   3.802
 1495SOL    HW1 4507   1.336   4.278   3.883
 1495SOL    HW2 4508   1.481   4.258   3.811
 1496SOL     OW 4509   0.527   3.980   4.052
 1496SOL    HW1 4510   0.554   3.921   3.977
 1496SOL    HW2 4511   0.527   4.075   4.021
 1497SOL     OW 4512   1.638   4.823   4.803
 1497SOL    HW1 4513   1.643   4.904   4.862
 1497SOL    HW2 4514   1.552   4.825   4.752
 1498SOL     OW 4515   0.705   4.774   4.092
 1498SOL    HW1 4516   0.691   4.781   4.191
 1498SOL    HW2 4517   0.789   4.723   4.074
 1499SOL     OW 4518   0.410   4.537   4.975
 1499SOL    HW1 4519   0.496   4.549   5.025
 1499SOL    HW2 4520   0.368   4.450   5.002
 1500SOL     OW 4521   1.274   4.110   4.986
 1500SOL    HW1 4522   1.295   4.184   5.050
 1500SOL    HW2 4523   1.185   4.127   4.943
 1501SOL     OW 4524   0.367   4.824   4.225
 1501SOL    HW1 4525   0.360   4.907   4.169
 1501SOL    HW2 4526   0.371   4.744   4.165
 1502SOL     OW 4527   0.566   4.261   4.589
 1502SOL    HW1 4528   0.578   4.327   4.515
 1502SOL    HW2 4529   0.612   4.295   4.672
 1503SOL     OW 4530   1.582   4.363   4.196
 1503SOL    HW1 4531   1.551   4.424   4.269
 1503SOL    HW2 4532   1.632   4.415   4.127
 1504SOL     OW 4533   0.573   4.594   4.753
 1504SOL    HW1 4534   0.617   4.683   4.744
 1504SOL    HW2 4535   0.510   4.594   4.830
 1505SOL     OW 4536   1.360   4.586   4.769
 1505SOL    HW1 4537   1.285   4.586   4.703
 1505SOL    HW2 4538   1.397   4.494   4.778
 1506SOL     OW 4539   1.209   4.249   3.999
 1506SOL    HW1 4540   1.222   4.165   4.053
 1506SOL    HW2 4541   1.180   4.323   4.059
 1507SOL     OW 4542   0.307   3.937   4.955
 1507SOL    HW1 4543   0.284   3.974   5.045
 1507SOL    HW2 4544   0.277   3.842   4.949
 1508SOL     OW 4545   0.037   5.034   5.006
 1508SOL    HW1 4546   0.090   4.985   5.074
 1508SOL    HW2 4547   0.059   5.132   5.011
 1509SOL     OW 4548   0.732   4.358   4.788
 1509SOL    HW1 4549   0.791   4.332   4.712
 1509SOL    HW2 4550   0.704   4.454   4.777
 1510SOL     OW 4551   0.307   3.787   4.342
 1510SOL    HW1 4552   0.296   3.881   4.375
 1510SOL    HW2 4553   0.302   3.724   4.419
 1511SOL     OW 4554   1.622   4.091   4.098
 1511SOL    HW1 4555   1.624   4.015   4.162
 1511SOL    HW2 4556   1.574   4.168   4.138
 1512SOL     OW 4557   1.023   4.490   4.690
 1512SOL    HW1 4558   1.038   4.511   4.786
 1512SOL    HW2 4559   0.993   4.395   4.681
 1513SOL     OW 4560   1.540   3.998   3.849
 1513SOL    HW1 4561   1.479   3.923   3.872
 1513SOL    HW2 4562   1.562   4.050   3.932
 1514SOL     OW 4563   1.303   4.562   3.766
 1514SOL    HW1 4564   1.337   4.469   3.781
 1514SOL    HW2 4565   1.321   4.589   3.671
 1515SOL     OW 4566   0.319   4.534   4.673
 1515SOL    HW1 4567   0.412   4.570   4.678
 1515SOL    HW2 4568   0.313   4.449   4.725
 1516SOL     OW 4569   0.339   4.233   4.730
 1516SOL    HW1 4570   0.287   4.150   4.713
 1516SOL    HW2 4571   0.416   4.238   4.666
 1517SOL     OW 4572   1.160   3.931   5.201
 1517SOL    HW1 4573   1.160   3.995   5.278
 1517SOL    HW2 4574   1.188   3.979   5.118
 1518SOL     OW 4575   0.008   5.050   3.924
 1518SOL    HW1 4576  -0.085   5.071   3.893
 1518SOL    HW2 4577   0.018   4.951   3.937
 1519SOL     OW 4578   1.002   4.520   4.962
 1519SOL    HW1 4579   1.043   4.488   5.048
 1519SOL    HW2 4580   0.906   4.493   4.959
 1520SOL     OW 4581   0.040   4.268   4.838
 1520SOL    HW1 4582   0.125   4.235   4.797
 1520SOL    HW2 4583   0.053   4.283   4.936
 1521SOL     OW 4584   0.815   4.296   4.049
 1521SOL    HW1 4585   0.822   4.207   4.003
 1521SOL    HW2 4586   0.721   4.330   4.041
 1522SOL     OW 4587   1.657   4.328   4.930
 1522SOL    HW1 4588   1.619   4.259   4.992
 1522SOL    HW2 4589   1.739   4.292   4.886
 1523SOL     OW 4590   0.671   4.188   4.993
 1523SOL    HW1 4591   0.637   4.099   4.963
 1523SOL    HW2 4592   0.697   4.242   4.913
 1524SOL     OW 4593   0.473   4.224   3.915
 1524SOL    HW1 4594   0.534   4.304   3.919
 1524SOL    HW2 4595   0.378   4.255   3.922
 1525SOL     OW 4596   1.347   4.783   4.958
 1525SOL    HW1 4597   1.371   4.720   4.884
 1525SOL    HW2 4598   1.257   4.823   4.940
 1526SOL     OW 4599   1.302   4.579   4.033
 1526SOL    HW1 4600   1.216   4.548   4.075
 1526SOL    HW2 4601   1.298   4.565   3.934
 1527SOL     OW 4602   0.083   4.982   4.746
 1527SOL    HW1 4603   0.078   4.981   4.846
 1527SOL    HW2 4604   0.000   4.941   4.708
 1528SOL     OW 4605   1.726   3.859   4.247
 1528SOL    HW1 4606   1.799   3.842   4.180
 1528SOL    HW2 4607   1.695   3.772   4.285
 1529SOL     OW 4608   1.280   4.651   4.396
 1529SOL    HW1 4609   1.340   4.570   4.398
 1529SOL    HW2 4610   1.320   4.720   4.336
 1530SOL     OW 4611   1.841   3.899   4.687
 1530SOL    HW1 4612   1.880   3.814   4.651
 1530SOL    HW2 4613   1.743   3.901   4.668
 1531SOL     OW 4614   0.263   4.050   4.444
 1531SOL    HW1 4615   0.184   4.101   4.410
 1531SOL    HW2 4616   0.254   4.035   4.542
 1532SOL     OW 4617   1.194   5.336   3.755
 1532SOL    HW1 4618   1.200   5.243   3.792
 1532SOL    HW2 4619   1.135   5.336   3.675
 1533SOL     OW 4620   0.822   4.726   5.096
 1533SOL    HW1 4621   0.862   4.725   5.004
 1533SOL    HW2 4622   0.832   4.818   5.136
 1534SOL     OW 4623   0.916   4.634   4.015
 1534SOL    HW1 4624   0.979   4.672   3.947
 1534SOL    HW2 4625   0.956   4.551   4.054
 1535SOL     OW 4626   1.614   5.016   5.013
 1535SOL    HW1 4627   1.674   5.019   5.093
 1535SOL    HW2 4628   1.539   5.080   5.026
 1536SOL     OW 4629   1.039   4.822   4.420
 1536SOL    HW1 4630   0.969   4.775   4.474
 1536SOL    HW2 4631   1.098   4.754   4.377
 1537SOL     OW 4632   1.014   3.960   4.695
 1537SOL    HW1 4633   1.006   3.924   4.602
 1537SOL    HW2 4634   1.012   3.884   4.760
 1538SOL     OW 4635   1.709   4.109   5.105
 1538SOL    HW1 4636   1.782   4.178   5.109
 1538SOL    HW2 4637   1.737   4.034   5.046
 1539SOL     OW 4638   0.075   4.069   3.757
 1539SOL    HW1 4639  -0.017   4.041   3.728
 1539SOL    HW2 4640   0.106   4.146   3.701
 1540SOL     OW 4641   0.072   3.890   4.042
 1540SOL    HW1 4642   0.055   3.973   3.988
 1540SOL    HW2 4643   0.162   3.853   4.020
 1541SOL     OW 4644   1.674   4.607   4.978
 1541SOL    HW1 4645   1.647   4.518   4.941
 1541SOL    HW2 4646   1.675   4.675   4.905
 1542SOL     OW 4647   1.225   4.049   4.173
 1542SOL    HW1 4648   1.290   3.975   4.162
 1542SOL    HW2 4649   1.245   4.099   4.257
 1543SOL     OW 4650   0.594   4.469   4.376
 1543SOL    HW1 4651   0.644   4.554   4.357
 1543SOL    HW2 4652   0.506   4.471   4.328
 1544SOL     OW 4653   1.730   4.658   5.241
 1544SOL    HW1 4654   1.768   4.749   5.256
 1544SOL    HW2 4655   1.722   4.641   5.142
 1545SOL     OW 4656   0.859   4.680   4.585
 1545SOL    HW1 4657   0.913   4.611   4.633
 1545SOL    HW2 4658   0.827   4.749   4.651
 1546SOL     OW 4659   1.083   4.708   3.811
 1546SOL    HW1 4660   1.060   4.761   3.729
 1546SOL    HW2 4661   1.164   4.652   3.792
 1547SOL     OW 4662   0.079   4.964   4.377
 1547SOL    HW1 4663   0.078   4.917   4.465
 1547SOL    HW2 4664   0.161   4.936   4.326
 1548SOL     OW 4665   1.824   3.916   4.951
 1548SOL    HW1 4666   1.820   3.826   4.995
 1548SOL    HW2 4667   1.827   3.905   4.852
 1549SOL     OW 4668   0.428   4.148   4.244
 1549SOL    HW1 4669   0.458   4.076   4.182
 1549SOL    HW2 4670   0.389   4.108   4.327
 1550SOL     OW 4671   1.424   3.938   4.836
 1550SOL    HW1 4672   1.476   3.873   4.891
 1550SOL    HW2 4673   1.375   4.001   4.897
 1551SOL     OW 4674   1.001   3.758   4.878
 1551SOL    HW1 4675   0.938   3.686   4.847
 1551SOL    HW2 4676   1.094   3.722   4.878
 1552SOL     OW 4677   0.770   5.054   4.025
 1552SOL    HW1 4678   0.724   4.967   4.042
 1552SOL    HW2 4679   0.861   5.051   4.066
 1553SOL     OW 4680   1.352   3.776   3.892
 1553SOL    HW1 4681   1.387   3.735   3.808
 1553SOL    HW2 4682   1.262   3.738   3.912
 1554SOL     OW 4683   1.300   4.177   4.415
 1554SOL    HW1 4684   1.241   4.257   4.419
 1554SOL    HW2 4685   1.315   4.142   4.508
 1555SOL     OW 4686   1.593   3.945   4.606
 1555SOL    HW1 4687   1.509   3.944   4.660
 1555SOL    HW2 4688   1.595   4.028   4.550
 1556SOL     OW 4689   0.039   4.801   4.024
 1556SOL    HW1 4690   0.138   4.790   4.015
 1556SOL    HW2 4691  -0.001   4.715   4.056
 1557SOL     OW 4692   2.092   0.628   0.113
 1557SOL    HW1 4693   1.999   0.626   0.150
 1557SOL    HW2 4694   2.093   0.589   0.021
 1558SOL     OW 4695   2.087   0.275   0.996
 1558SOL    HW1 4696   2.122   0.258   1.088
 1558SOL    HW2 4697   1.999   0.230   0.984
 1559SOL     OW 4698   1.881   0.368   0.647
 1559SOL    HW1 4699   1.799   0.411   0.686
 1559SOL    HW2 4700   1.853   0.295   0.584
 1560SOL     OW 4701   2.431   1.275   1.165
 1560SOL    HW1 4702   2.338   1.268   1.128
 1560SOL    HW2 4703   2.442   1.364   1.209
 1561SOL     OW 4704   3.417   1.511   0.703
 1561SOL    HW1 4705   3.360   1.495   0.784
 1561SOL    HW2 4706   3.358   1.521   0.623
 1562SOL     OW 4707   2.997   0.703   0.717
 1562SOL    HW1 4708   3.054   0.781   0.692
 1562SOL    HW2 4709   2.937   0.729   0.793
 1563SOL     OW 4710   3.617   0.607   0.231
 1563SOL    HW1 4711   3.605   0.594   0.132
 1563SOL    HW2 4712   3.587   0.526   0.280
 1564SOL     OW 4713   2.630   1.144   1.023
 1564SOL    HW1 4714   2.552   1.161   1.083
 1564SOL    HW2 4715   2.664   1.231   0.987
 1565SOL     OW 4716   2.712   0.798   1.823
 1565SOL    HW1 4717   2.708   0.874   1.888
 1565SOL    HW2 4718   2.734   0.834   1.732
 1566SOL     OW 4719   2.547   1.012   0.665
 1566SOL    HW1 4720   2.616   0.996   0.735
 1566SOL    HW2 4721   2.474   1.069   0.703
 1567SOL     OW 4722   2.548   1.161   1.803
 1567SOL    HW1 4723   2.608   1.240   1.817
 1567SOL    HW2 4724   2.462   1.192   1.762
 1568SOL     OW 4725   2.197   1.435   1.061
 1568SOL    HW1 4726   2.119   1.404   1.008
 1568SOL    HW2 4727   2.255   1.493   1.004
 1569SOL     OW 4728   3.322   1.505   1.339
 1569SOL    HW1 4729   3.346   1.599   1.365
 1569SOL    HW2 4730   3.306   1.451   1.421
 1570SOL     OW 4731   2.300   0.392   1.499
 1570SOL    HW1 4732   2.382   0.336   1.508
 1570SOL    HW2 4733   2.219   0.334   1.503
 1571SOL     OW 4734   3.465   0.447   0.737
 1571SOL    HW1 4735   3.391   0.493   0.687
 1571SOL    HW2 4736   3.516   0.515   0.790
 1572SOL     OW 4737   2.093   1.713   0.483
 1572SOL    HW1 4738   2.127   1.790   0.537
 1572SOL    HW2 4739   2.137   1.713   0.393
 1573SOL     OW 4740   2.989   1.341   1.690
 1573SOL    HW1 4741   3.036   1.341   1.778
 1573SOL    HW2 4742   2.941   1.254   1.679
 1574SOL     OW 4743   2.092   1.434   0.538
 1574SOL    HW1 4744   2.066   1.530   0.538
 1574SOL    HW2 4745   2.021   1.380   0.583
 1575SOL     OW 4746   2.102   1.091   0.886
 1575SOL    HW1 4747   2.116   1.007   0.938
 1575SOL    HW2 4748   2.047   1.155   0.941
 1576SOL     OW 4749   2.482   1.786   1.439
 1576SOL    HW1 4750   2.390   1.769   1.474
 1576SOL    HW2 4751   2.510   1.878   1.465
 1577SOL     OW 4752   2.468   0.964   0.123
 1577SOL    HW1 4753   2.475   1.048   0.069
 1577SOL    HW2 4754   2.514   0.977   0.211
 1578SOL     OW 4755   3.456   0.114   1.480
 1578SOL    HW1 4756   3.438   0.181   1.408
 1578SOL    HW2 4757   3.453   0.160   1.569
 1579SOL     OW 4758   1.984   0.643   0.563
 1579SOL    HW1 4759   1.939   0.555   0.580
 1579SOL    HW2 4760   1.983   0.697   0.647
 1580SOL     OW 4761   3.704   1.767   0.359
 1580SOL    HW1 4762   3.758   1.738   0.439
 1580SOL    HW2 4763   3.734   1.857   0.330
 1581SOL     OW 4764   1.889   1.596   0.117
 1581SOL    HW1 4765   1.870   1.500   0.138
 1581SOL    HW2 4766   1.856   1.654   0.192
 1582SOL     OW 4767   3.551   0.922   0.612
 1582SOL    HW1 4768   3.646   0.893   0.620
 1582SOL    HW2 4769   3.543   0.987   0.537
 1583SOL     OW 4770   3.503   1.108   0.432
 1583SOL    HW1 4771   3.589   1.110   0.380
 1583SOL    HW2 4772   3.517   1.155   0.520
 1584SOL     OW 4773   1.975   0.737   1.597
 1584SOL    HW1 4774   2.063   0.724   1.642
 1584SOL    HW2 4775   1.962   0.834   1.575
 1585SOL     OW 4776   2.475   1.365   0.726
 1585SOL    HW1 4777   2.426   1.278   0.735
 1585SOL    HW2 4778   2.452   1.408   0.639
 1586SOL     OW 4779   3.155   1.228   1.423
 1586SOL    HW1 4780   3.192   1.155   1.365
 1586SOL    HW2 4781   3.207   1.233   1.508
 1587SOL     OW 4782   2.671   0.004   0.502
 1587SOL    HW1 4783   2.711   0.095   0.493
 1587SOL    HW2 4784   2.571   0.012   0.508
 1588SOL     OW 4785   2.059   0.976   1.264
 1588SOL    HW1 4786   2.148   0.931   1.250
 1588SOL    HW2 4787   1.986   0.911   1.245
 1589SOL     OW 4788   3.387   0.999   0.190
 1589SOL    HW1 4789   3.324   0.923   0.203
 1589SOL    HW2 4790   3.435   1.017   0.276
 1590SOL     OW 4791   3.049   1.792   1.616
 1590SOL    HW1 4792   3.073   1.852   1.540
 1590SOL    HW2 4793   3.056   1.697   1.586
 1591SOL     OW 4794   2.179   0.251   1.801
 1591SOL    HW1 4795   2.250   0.322   1.807
 1591SOL    HW2 4796   2.091   0.290   1.829
 1592SOL     OW 4797   3.328   1.417   0.953
 1592SOL    HW1 4798   3.269   1.423   1.033
 1592SOL    HW2 4799   3.313   1.329   0.907
 1593SOL     OW 4800   3.529   1.714   0.572
 1593SOL    HW1 4801   3.488   1.691   0.484
 1593SOL    HW2 4802   3.511   1.640   0.637
 1594SOL     OW 4803   2.460   0.729   0.270
 1594SOL    HW1 4804   2.484   0.798   0.202
 1594SOL    HW2 4805   2.382   0.762   0.324
 1595SOL     OW 4806   3.143   0.345   0.944
 1595SOL    HW1 4807   3.057   0.295   0.931
 1595SOL    HW2 4808   3.205   0.291   1.000
 1596SOL     OW 4809   3.438   1.662   0.307
 1596SOL    HW1 4810   3.527   1.708   0.310
 1596SOL    HW2 4811   3.417   1.638   0.212
 1597SOL     OW 4812   2.669   0.605   1.465
 1597SOL    HW1 4813   2.622   0.602   1.554
 1597SOL    HW2 4814   2.618   0.550   1.399
 1598SOL     OW 4815   3.256   0.469   1.674
 1598SOL    HW1 4816   3.236   0.512   1.762
 1598SOL    HW2 4817   3.334   0.407   1.683
 1599SOL     OW 4818   2.835   0.890   1.572
 1599SOL    HW1 4819   2.881   0.806   1.543
 1599SOL    HW2 4820   2.779   0.924   1.497
 1600SOL     OW 4821   2.853   0.410   1.242
 1600SOL    HW1 4822   2.776   0.444   1.296
 1600SOL    HW2 4823   2.819   0.359   1.163
 1601SOL     OW 4824   2.903   0.701   0.429
 1601SOL    HW1 4825   2.929   0.697   0.525
 1601SOL    HW2 4826   2.818   0.650   0.415
 1602SOL     OW 4827   1.938   0.811   0.789
 1602SOL    HW1 4828   2.037   0.799   0.798
 1602SOL    HW2 4829   1.914   0.906   0.810
 1603SOL     OW 4830   1.992   1.821   1.571
 1603SOL    HW1 4831   1.982   1.806   1.670
 1603SOL    HW2 4832   1.906   1.857   1.535
 1604SOL     OW 4833   2.727   0.348   0.195
 1604SOL    HW1 4834   2.786   0.411   0.146
 1604SOL    HW2 4835   2.746   0.254   0.166
 1605SOL     OW 4836   3.581   0.585   1.831
 1605SOL    HW1 4837   3.555   0.674   1.795
 1605SOL    HW2 4838   3.579   0.517   1.758
 1606SOL     OW 4839   3.224   1.144   0.545
 1606SOL    HW1 4840   3.307   1.115   0.497
 1606SOL    HW2 4841   3.175   1.211   0.489
 1607SOL     OW 4842   2.412   0.196   0.885
 1607SOL    HW1 4843   2.407   0.191   0.985
 1607SOL    HW2 4844   2.414   0.292   0.856
 1608SOL     OW 4845   2.870   1.456   0.477
 1608SOL    HW1 4846   2.824   1.528   0.425
 1608SOL    HW2 4847   2.866   1.476   0.575
 1609SOL     OW 4848   2.213   1.801   0.853
 1609SOL    HW1 4849   2.263   1.715   0.859
 1609SOL    HW2 4850   2.278   1.878   0.850
 1610SOL     OW 4851   3.657   1.066   0.873
 1610SOL    HW1 4852   3.595   1.051   0.797
 1610SOL    HW2 4853   3.605   1.077   0.958
 1611SOL     OW 4854   3.089   1.550   1.506
 1611SOL    HW1 4855   3.095   1.473   1.570
 1611SOL    HW2 4856   3.037   1.524   1.426
 1612SOL     OW 4857   2.183   0.943   0.242
 1612SOL    HW1 4858   2.265   0.982   0.200
 1612SOL    HW2 4859   2.156   0.861   0.193
 1613SOL     OW 4860   3.320   0.735   0.728
 1613SOL    HW1 4861   3.315   0.670   0.803
 1613SOL    HW2 4862   3.400   0.794   0.741
 1614SOL     OW 4863   2.323   1.266   1.727
 1614SOL    HW1 4864   2.273   1.267   1.641
 1614SOL    HW2 4865   2.260   1.248   1.803
 1615SOL     OW 4866   2.973   1.776   0.237
 1615SOL    HW1 4867   2.913   1.714   0.287
 1615SOL    HW2 4868   3.004   1.732   0.152
 1616SOL     OW 4869   3.494   1.377   0.081
 1616SOL    HW1 4870   3.462   1.471   0.071
 1616SOL    HW2 4871   3.418   1.314   0.069
 1617SOL     OW 4872   2.326   1.743   0.323
 1617SOL    HW1 4873   2.359   1.782   0.409
 1617SOL    HW2 4874   2.402   1.736   0.258
 1618SOL     OW 4875   3.262   0.107   0.426
 1618SOL    HW1 4876   3.238   0.070   0.336
 1618SOL    HW2 4877   3.361   0.123   0.430
 1619SOL     OW 4878   2.111   1.785   1.241
 1619SOL    HW1 4879   2.168   1.720   1.291
 1619SOL    HW2 4880   2.095   1.752   1.148
 1620SOL     OW 4881   2.802   1.698   0.904
 1620SOL    HW1 4882   2.882   1.641   0.925
 1620SOL    HW2 4883   2.753   1.658   0.827
 1621SOL     OW 4884   2.244   0.700   0.480
 1621SOL    HW1 4885   2.289   0.610   0.477
 1621SOL    HW2 4886   2.150   0.689   0.513
 1622SOL     OW 4887   3.409   0.222   1.729
 1622SOL    HW1 4888   3.404   0.259   1.821
 1622SOL    HW2 4889   3.337   0.153   1.717
 1623SOL     OW 4890   2.476   0.122   0.117
 1623SOL    HW1 4891   2.574   0.100   0.124
 1623SOL    HW2 4892   2.445   0.105   0.024
 1624SOL     OW 4893   2.643   0.264   1.749
 1624SOL    HW1 4894   2.710   0.203   1.792
 1624SOL    HW2 4895   2.570   0.283   1.814
 1625SOL     OW 4896   2.750   1.514   1.195
 1625SOL    HW1 4897   2.727   1.489   1.101
 1625SOL    HW2 4898   2.811   1.445   1.234
 1626SOL     OW 4899   3.213   0.590   1.433
 1626SOL    HW1 4900   3.241   0.547   1.518
 1626SOL    HW2 4901   3.238   0.686   1.434
 1627SOL     OW 4902   2.665   1.402   0.924
 1627SOL    HW1 4903   2.755   1.416   0.882
 1627SOL    HW2 4904   2.594   1.404   0.853
 1628SOL     OW 4905   2.784   0.503   0.899
 1628SOL    HW1 4906   2.759   0.494   0.803
 1628SOL    HW2 4907   2.832   0.421   0.930
 1629SOL     OW 4908   2.401   0.064   0.512
 1629SOL    HW1 4909   2.320   0.065   0.570
 1629SOL    HW2 4910   2.404   0.147   0.457
 1630SOL     OW 4911   3.296   1.188   0.041
 1630SOL    HW1 4912   3.328   1.112   0.098
 1630SOL    HW2 4913   3.204   1.215   0.071
 1631SOL     OW 4914   2.159   0.035   0.171
 1631SOL    HW1 4915   2.208   0.119   0.150
 1631SOL    HW2 4916   2.221  -0.030   0.216
 1632SOL     OW 4917   2.797   0.236   0.480
 1632SOL    HW1 4918   2.749   0.277   0.402
 1632SOL    HW2 4919   2.896   0.234   0.461
 1633SOL     OW 4920   2.938   0.683   1.464
 1633SOL    HW1 4921   2.858   0.622   1.467
 1633SOL    HW2 4922   3.019   0.630   1.440
 1634SOL     OW 4923   3.089   1.570   0.793
 1634SOL    HW1 4924   3.110   1.644   0.728
 1634SOL    HW2 4925   3.157   1.570   0.866
 1635SOL     OW 4926   2.321   1.152   0.741
 1635SOL    HW1 4927   2.250   1.125   0.806
 1635SOL    HW2 4928   2.295   1.124   0.648
 1636SOL     OW 4929   3.133   1.797   0.591
 1636SOL    HW1 4930   3.177   1.861   0.527
 1636SOL    HW2 4931   3.083   1.849   0.661
 1637SOL     OW 4932   2.894   0.549   0.016
 1637SOL    HW1 4933   2.853   0.631  -0.023
 1637SOL    HW2 4934   2.958   0.575   0.089
 1638SOL     OW 4935   1.940   0.556   1.386
 1638SOL    HW1 4936   2.032   0.555   1.345
 1638SOL    HW2 4937   1.934   0.630   1.453
 1639SOL     OW 4938   2.423   0.222   1.147
 1639SOL    HW1 4939   2.461   0.138   1.184
 1639SOL    HW2 4940   2.335   0.241   1.191
 1640SOL     OW 4941   2.728   0.454   0.642
 1640SOL    HW1 4942   2.696   0.526   0.580
 1640SOL    HW2 4943   2.752   0.373   0.589
 1641SOL     OW 4944   2.879   0.039   0.753
 1641SOL    HW1 4945   2.807   0.044   0.684
 1641SOL    HW2 4946   2.855  -0.030   0.822
 1642SOL     OW 4947   3.291   1.173   0.867
 1642SOL    HW1 4948   3.236   1.089   0.860
 1642SOL    HW2 4949   3.317   1.202   0.775
 1643SOL     OW 4950   3.328   0.590   0.992
 1643SOL    HW1 4951   3.298   0.495   0.999
 1643SOL    HW2 4952   3.401   0.606   1.058
 1644SOL     OW 4953   3.719   0.833   0.377
 1644SOL    HW1 4954   3.761   0.769   0.441
 1644SOL    HW2 4955   3.681   0.782   0.299
 1645SOL     OW 4956   2.350   1.385   0.174
 1645SOL    HW1 4957   2.263   1.370   0.221
 1645SOL    HW2 4958   2.333   1.411   0.079
 1646SOL     OW 4959   3.526   1.280   0.657
 1646SOL    HW1 4960   3.625   1.288   0.671
 1646SOL    HW2 4961   3.481   1.364   0.688
 1647SOL     OW 4962   3.252   0.575   0.078
 1647SOL    HW1 4963   3.198   0.554   0.159
 1647SOL    HW2 4964   3.343   0.534   0.087
 1648SOL     OW 4965   2.389   0.256   0.328
 1648SOL    HW1 4966   2.416   0.197   0.253
 1648SOL    HW2 4967   2.389   0.351   0.297
 1649SOL     OW 4968   3.616   1.223   1.588
 1649SOL    HW1 4969   3.707   1.184   1.575
 1649SOL    HW2 4970   3.624   1.319   1.612
 1650SOL     OW 4971   2.926   1.347   1.340
 1650SOL    HW1 4972   2.846   1.324   1.395
 1650SOL    HW2 4973   3.009   1.321   1.389
 1651SOL     OW 4974   3.454   1.629   1.625
 1651SOL    HW1 4975   3.481   1.663   1.535
 1651SOL    HW2 4976   3.533   1.591   1.671
 1652SOL     OW 4977   2.973   1.195   1.100
 1652SOL    HW1 4978   2.933   1.239   1.181
 1652SOL    HW2 4979   2.932   1.232   1.017
 1653SOL     OW 4980   3.500   1.099   1.079
 1653SOL    HW1 4981   3.505   1.180   1.138
 1653SOL    HW2 4982   3.414   1.101   1.028
 1654SOL     OW 4983   2.777   0.089   1.402
 1654SOL    HW1 4984   2.802   0.069   1.307
 1654SOL    HW2 4985   2.849   0.145   1.444
 1655SOL     OW 4986   2.842   1.116   1.719
 1655SOL    HW1 4987   2.743   1.122   1.729
 1655SOL    HW2 4988   2.865   1.036   1.663
 1656SOL     OW 4989   2.567   1.050   0.368
 1656SOL    HW1 4990   2.553   1.057   0.467
 1656SOL    HW2 4991   2.651   0.999   0.350
 1657SOL     OW 4992   2.272   0.813   1.251
 1657SOL    HW1 4993   2.358   0.825   1.301
 1657SOL    HW2 4994   2.230   0.726   1.278
 1658SOL     OW 4995   3.136   0.386   1.262
 1658SOL    HW1 4996   3.157   0.460   1.326
 1658SOL    HW2 4997   3.047   0.403   1.219
 1659SOL     OW 4998   1.926   1.564   1.331
 1659SOL    HW1 4999   1.880   1.646   1.297
 1659SOL    HW2 5000   2.024   1.583   1.340
 1660SOL     OW 5001   2.229   1.100   0.501
 1660SOL    HW1 5002   2.222   1.183   0.445
 1660SOL    HW2 5003   2.233   1.020   0.441
 1661SOL     OW 5004   2.428   0.537   0.865
 1661SOL    HW1 5005   2.440   0.603   0.791
 1661SOL    HW2 5006   2.474   0.571   0.948
 1662SOL     OW 5007   3.114   1.348   0.388
 1662SOL    HW1 5008   3.164   1.425   0.428
 1662SOL    HW2 5009   3.019   1.350   0.420
 1663SOL     OW 5010   3.134   1.445   1.142
 1663SOL    HW1 5011   3.181   1.458   1.229
 1663SOL    HW2 5012   3.068   1.371   1.151
 1664SOL     OW 5013   3.444   0.639   0.472
 1664SOL    HW1 5014   3.413   0.700   0.545
 1664SOL    HW2 5015   3.494   0.691   0.403
 1665SOL     OW 5016   2.216   1.510   1.329
 1665SOL    HW1 5017   2.195   1.466   1.242
 1665SOL    HW2 5018   2.313   1.536   1.332
 1666SOL     OW 5019   2.264   0.751   1.598
 1666SOL    HW1 5020   2.332   0.806   1.551
 1666SOL    HW2 5021   2.304   0.663   1.625
 1667SOL     OW 5022   3.449   0.779   1.670
 1667SOL    HW1 5023   3.357   0.817   1.665
 1667SOL    HW2 5024   3.509   0.826   1.605
 1668SOL     OW 5025   2.875   0.105   1.770
 1668SOL    HW1 5026   2.881   0.190   1.718
 1668SOL    HW2 5027   2.907   0.029   1.713
 1669SOL     OW 5028   2.366   0.050   1.740
 1669SOL    HW1 5029   2.324  -0.007   1.670
 1669SOL    HW2 5030   2.300   0.119   1.772
 1670SOL     OW 5031   2.435   0.870   1.029
 1670SOL    HW1 5032   2.479   0.959   1.020
 1670SOL    HW2 5033   2.372   0.870   1.106
 1671SOL     OW 5034   3.222   0.862   1.045
 1671SOL    HW1 5035   3.147   0.862   0.979
 1671SOL    HW2 5036   3.259   0.770   1.054
 1672SOL     OW 5037   3.071   0.525   0.275
 1672SOL    HW1 5038   3.084   0.441   0.329
 1672SOL    HW2 5039   3.042   0.599   0.335
 1673SOL     OW 5040   2.169   0.213   1.231
 1673SOL    HW1 5041   2.146   0.250   1.321
 1673SOL    HW2 5042   2.139   0.118   1.225
 1674SOL     OW 5043   1.899   1.310   1.282
 1674SOL    HW1 5044   1.952   1.261   1.350
 1674SOL    HW2 5045   1.921   1.408   1.287
 1675SOL     OW 5046   2.594   0.634   1.064
 1675SOL    HW1 5047   2.653   0.608   0.988
 1675SOL    HW2 5048   2.566   0.730   1.053
 1676SOL     OW 5049   3.590   0.935   1.854
 1676SOL    HW1 5050   3.544   0.928   1.765
 1676SOL    HW2 5051   3.528   0.979   1.920
 1677SOL     OW 5052   2.169   0.063   0.618
 1677SOL    HW1 5053   2.158   0.157   0.651
 1677SOL    HW2 5054   2.164   0.000   0.695
 1678SOL     OW 5055   3.484   0.367   0.374
 1678SOL    HW1 5056   3.486   0.291   0.438
 1678SOL    HW2 5057   3.436   0.444   0.414
 1679SOL     OW 5058   2.885   0.766   0.966
 1679SOL    HW1 5059   2.900   0.787   1.062
 1679SOL    HW2 5060   2.855   0.671   0.957
 1680SOL     OW 5061   2.842   1.573   1.700
 1680SOL    HW1 5062   2.822   1.617   1.612
 1680SOL    HW2 5063   2.881   1.482   1.684
 1681SOL     OW 5064   3.721   1.518   1.605
 1681SOL    HW1 5065   3.735   1.545   1.510
 1681SOL    HW2 5066   3.804   1.540   1.658
 1682SOL     OW 5067   2.212   0.898   1.804
 1682SOL    HW1 5068   2.288   0.942   1.852
 1682SOL    HW2 5069   2.247   0.851   1.722
 1683SOL     OW 5070   3.402   0.274   0.125
 1683SOL    HW1 5071   3.341   0.199   0.148
 1683SOL    HW2 5072   3.424   0.326   0.208
 1684SOL     OW 5073   3.165   0.838   0.042
 1684SOL    HW1 5074   3.199   0.745   0.057
 1684SOL    HW2 5075   3.183   0.865  -0.053
 1685SOL     OW 5076   2.930   1.333   0.849
 1685SOL    HW1 5077   2.937   1.249   0.794
 1685SOL    HW2 5078   2.992   1.402   0.813
 1686SOL     OW 5079   2.181   0.810   0.949
 1686SOL    HW1 5080   2.274   0.846   0.954
 1686SOL    HW2 5081   2.175   0.725   1.001
 1687SOL     OW 5082   2.201   0.509   1.006
 1687SOL    HW1 5083   2.149   0.426   0.989
 1687SOL    HW2 5084   2.278   0.514   0.942
 1688SOL     OW 5085   3.000   0.380   1.678
 1688SOL    HW1 5086   2.955   0.443   1.742
 1688SOL    HW2 5087   3.093   0.411   1.661
 1689SOL     OW 5088   3.022   0.207   1.477
 1689SOL    HW1 5089   3.022   0.271   1.554
 1689SOL    HW2 5090   3.050   0.255   1.394
 1690SOL     OW 5091   1.950   1.801   0.927
 1690SOL    HW1 5092   1.908   1.715   0.900
 1690SOL    HW2 5093   2.044   1.804   0.893
 1691SOL     OW 5094   2.366   1.568   0.910
 1691SOL    HW1 5095   2.432   1.642   0.919
 1691SOL    HW2 5096   2.410   1.489   0.868
 1692SOL     OW 5097   2.864   0.796   1.238
 1692SOL    HW1 5098   2.905   0.764   1.324
 1692SOL    HW2 5099   2.768   0.769   1.235
 1693SOL     OW 5100   1.902   0.544   1.114
 1693SOL    HW1 5101   1.987   0.511   1.073
 1693SOL    HW2 5102   1.915   0.559   1.212
 1694SOL     OW 5103   2.051   0.520   1.722
 1694SOL    HW1 5104   2.110   0.480   1.652
 1694SOL    HW2 5105   1.993   0.591   1.681
 1695SOL     OW 5106   3.231   0.950   1.660
 1695SOL    HW1 5107   3.270   1.039   1.680
 1695SOL    HW2 5108   3.241   0.930   1.563
 1696SOL     OW 5109   2.677   0.572   0.325
 1696SOL    HW1 5110   2.684   0.483   0.279
 1696SOL    HW2 5111   2.583   0.606   0.317
 1697SOL     OW 5112   3.519   0.604   1.206
 1697SOL    HW1 5113   3.481   0.535   1.268
 1697SOL    HW2 5114   3.601   0.568   1.162
 1698SOL     OW 5115   2.114   1.564   1.744
 1698SOL    HW1 5116   2.084   1.621   1.820
 1698SOL    HW2 5117   2.107   1.467   1.770
 1699SOL     OW 5118   2.533   0.464   1.269
 1699SOL    HW1 5119   2.499   0.375   1.239
 1699SOL    HW2 5120   2.559   0.518   1.189
 1700SOL     OW 5121   2.792   1.678   1.465
 1700SOL    HW1 5122   2.768   1.660   1.370
 1700SOL    HW2 5123   2.822   1.772   1.475
 1701SOL     OW 5124   2.335   0.500   0.191
 1701SOL    HW1 5125   2.396   0.580   0.195
 1701SOL    HW2 5126   2.240   0.531   0.198
 1702SOL     OW 5127   2.021   1.137   1.466
 1702SOL    HW1 5128   2.043   1.076   1.542
 1702SOL    HW2 5129   2.031   1.088   1.380
 1703SOL     OW 5130   3.209   1.059   1.234
 1703SOL    HW1 5131   3.233   0.996   1.160
 1703SOL    HW2 5132   3.119   1.099   1.216
 1704SOL     OW 5133   3.164   0.855   0.309
 1704SOL    HW1 5134   3.078   0.824   0.351
 1704SOL    HW2 5135   3.160   0.841   0.210
 1705SOL     OW 5136   3.621   1.747   1.154
 1705SOL    HW1 5137   3.682   1.777   1.081
 1705SOL    HW2 5138   3.583   1.658   1.132
 1706SOL     OW 5139   3.114   1.731   1.128
 1706SOL    HW1 5140   3.198   1.736   1.074
 1706SOL    HW2 5141   3.091   1.635   1.146
 1707SOL     OW 5142   1.945   1.258   1.022
 1707SOL    HW1 5143   1.940   1.257   1.122
 1707SOL    HW2 5144   1.862   1.217   0.984
 1708SOL     OW 5145   2.550   1.662   1.716
 1708SOL    HW1 5146   2.494   1.743   1.725
 1708SOL    HW2 5147   2.602   1.666   1.630
 1709SOL     OW 5148   2.765   0.086   0.133
 1709SOL    HW1 5149   2.816   0.087   0.047
 1709SOL    HW2 5150   2.821   0.044   0.204
 1710SOL     OW 5151   3.588   0.135   0.523
 1710SOL    HW1 5152   3.661   0.118   0.456
 1710SOL    HW2 5153   3.557   0.048   0.561
 1711SOL     OW 5154   3.250   1.573   0.477
 1711SOL    HW1 5155   3.317   1.585   0.403
 1711SOL    HW2 5156   3.210   1.662   0.500
 1712SOL     OW 5157   1.992   1.794   1.851
 1712SOL    HW1 5158   1.951   1.720   1.904
 1712SOL    HW2 5159   2.056   1.845   1.909
 1713SOL     OW 5160   3.142   0.927   0.672
 1713SOL    HW1 5161   3.202   0.846   0.674
 1713SOL    HW2 5162   3.182   0.996   0.612
 1714SOL     OW 5163   2.692   1.273   1.422
 1714SOL    HW1 5164   2.687   1.306   1.517
 1714SOL    HW2 5165   2.606   1.292   1.376
 1715SOL     OW 5166   2.534   1.616   0.154
 1715SOL    HW1 5167   2.543   1.626   0.055
 1715SOL    HW2 5168   2.494   1.527   0.175
 1716SOL     OW 5169   3.512   1.720   1.394
 1716SOL    HW1 5170   3.565   1.730   1.310
 1716SOL    HW2 5171   3.485   1.810   1.428
 1717SOL     OW 5172   3.703   0.175   0.963
 1717SOL    HW1 5173   3.742   0.090   0.927
 1717SOL    HW2 5174   3.605   0.177   0.944
 1718SOL     OW 5175   2.125   0.326   0.720
 1718SOL    HW1 5176   2.046   0.377   0.686
 1718SOL    HW2 5177   2.116   0.311   0.818
 1719SOL     OW 5178   3.056   1.612   0.031
 1719SOL    HW1 5179   3.062   1.519   0.068
 1719SOL    HW2 5180   2.997   1.612  -0.049
 1720SOL     OW 5181   2.684   1.002   1.372
 1720SOL    HW1 5182   2.724   1.001   1.280
 1720SOL    HW2 5183   2.694   1.094   1.412
 1721SOL     OW 5184   2.778   0.910   0.291
 1721SOL    HW1 5185   2.841   0.948   0.223
 1721SOL    HW2 5186   2.818   0.827   0.330
 1722SOL     OW 5187   3.366   1.607   0.044
 1722SOL    HW1 5188   3.274   1.644   0.051
 1722SOL    HW2 5189   3.404   1.627  -0.046
 1723SOL     OW 5190   2.234   1.288   1.490
 1723SOL    HW1 5191   2.221   1.381   1.456
 1723SOL    HW2 5192   2.150   1.236   1.477
 1724SOL     OW 5193   3.476   1.292   1.289
 1724SOL    HW1 5194   3.536   1.295   1.369
 1724SOL    HW2 5195   3.401   1.356   1.302
 1725SOL     OW 5196   2.901   1.098   0.696
 1725SOL    HW1 5197   2.831   1.051   0.750
 1725SOL    HW2 5198   2.960   1.030   0.653
 1726SOL     OW 5199   2.876   0.236   0.971
 1726SOL    HW1 5200   2.868   0.200   0.878
 1726SOL    HW2 5201   2.874   0.160   1.036
 1727SOL     OW 5202   2.452   1.487   0.491
 1727SOL    HW1 5203   2.494   1.429   0.421
 1727SOL    HW2 5204   2.408   1.566   0.447
 1728SOL     OW 5205   3.571   0.385   1.381
 1728SOL    HW1 5206   3.644   0.454   1.385
 1728SOL    HW2 5207   3.599   0.310   1.322
 1729SOL     OW 5208   2.117   1.348   0.290
 1729SOL    HW1 5209   2.021   1.349   0.263
 1729SOL    HW2 5210   2.129   1.401   0.374
 1730SOL     OW 5211   1.967   1.013   1.726
 1730SOL    HW1 5212   1.890   0.980   1.780
 1730SOL    HW2 5213   2.052   0.983   1.768
 1731SOL     OW 5214   2.534   0.203   1.489
 1731SOL    HW1 5215   2.624   0.187   1.449
 1731SOL    HW2 5216   2.542   0.208   1.588
 1732SOL     OW 5217   3.302   0.856   1.398
 1732SOL    HW1 5218   3.245   0.908   1.335
 1732SOL    HW2 5219   3.398   0.868   1.374
 1733SOL     OW 5220   1.934   0.166   0.318
 1733SOL    HW1 5221   1.917   0.249   0.264
 1733SOL    HW2 5222   2.024   0.129   0.296
 1734SOL     OW 5223   3.045   1.335   0.119
 1734SOL    HW1 5224   2.946   1.324   0.121
 1734SOL    HW2 5225   3.079   1.350   0.212
 1735SOL     OW 5226   2.475   0.842   1.431
 1735SOL    HW1 5227   2.531   0.923   1.414
 1735SOL    HW2 5228   2.534   0.762   1.434
 1736SOL     OW 5229   3.355   1.767   0.959
 1736SOL    HW1 5230   3.388   1.831   0.890
 1736SOL    HW2 5231   3.421   1.761   1.034
 1737SOL     OW 5232   2.578   0.565   1.708
 1737SOL    HW1 5233   2.597   0.630   1.782
 1737SOL    HW2 5234   2.638   0.485   1.717
 1738SOL     OW 5235   3.312   1.220   1.633
 1738SOL    HW1 5236   3.303   1.210   1.732
 1738SOL    HW2 5237   3.408   1.213   1.607
 1739SOL     OW 5238   2.252   1.741   1.560
 1739SOL    HW1 5239   2.161   1.782   1.558
 1739SOL    HW2 5240   2.245   1.647   1.592
 1740SOL     OW 5241   3.536   0.883   1.254
 1740SOL    HW1 5242   3.509   0.794   1.217
 1740SOL    HW2 5243   3.537   0.951   1.181
 1741SOL     OW 5244   3.087   0.325   0.449
 1741SOL    HW1 5245   3.152   0.251   0.438
 1741SOL    HW2 5246   3.107   0.375   0.533
 1742SOL     OW 5247   2.456   0.745   0.652
 1742SOL    HW1 5248   2.506   0.830   0.633
 1742SOL    HW2 5249   2.368   0.747   0.604
 1743SOL     OW 5250   3.639   0.342   1.642
 1743SOL    HW1 5251   3.622   0.373   1.548
 1743SOL    HW2 5252   3.555   0.305   1.680
 1744SOL     OW 5253   3.592   0.934   1.517
 1744SOL    HW1 5254   3.630   1.025   1.532
 1744SOL    HW2 5255   3.584   0.917   1.418
 1745SOL     OW 5256   2.721   1.374   0.016
 1745SOL    HW1 5257   2.675   1.389   0.104
 1745SOL    HW2 5258   2.765   1.459  -0.014
 1746SOL     OW 5259   2.523   1.790   0.953
 1746SOL    HW1 5260   2.477   1.878   0.940
 1746SOL    HW2 5261   2.622   1.802   0.946
 1747SOL     OW 5262   2.721   0.956   0.861
 1747SOL    HW1 5263   2.775   0.887   0.909
 1747SOL    HW2 5264   2.689   1.025   0.927
 1748SOL     OW 5265   2.945   0.984   0.087
 1748SOL    HW1 5266   2.922   1.037   0.005
 1748SOL    HW2 5267   3.026   0.928   0.068
 1749SOL     OW 5268   3.723   1.569   0.851
 1749SOL    HW1 5269   3.652   1.557   0.781
 1749SOL    HW2 5270   3.724   1.490   0.911
 1750SOL     OW 5271   2.083   1.314   1.844
 1750SOL    HW1 5272   2.018   1.241   1.823
 1750SOL    HW2 5273   2.087   1.328   1.942
 1751SOL     OW 5274   1.941   1.240   0.653
 1751SOL    HW1 5275   1.940   1.193   0.741
 1751SOL    HW2 5276   2.023   1.212   0.602
 1752SOL     OW 5277   2.534   1.391   1.624
 1752SOL    HW1 5278   2.456   1.341   1.662
 1752SOL    HW2 5279   2.531   1.486   1.655
 1753SOL     OW 5280   3.686   0.192   1.227
 1753SOL    HW1 5281   3.682   0.102   1.271
 1753SOL    HW2 5282   3.689   0.181   1.128
 1754SOL     OW 5283   2.290   0.424   0.520
 1754SOL    HW1 5284   2.320   0.352   0.458
 1754SOL    HW2 5285   2.251   0.384   0.603
 1755SOL     OW 5286   3.567   1.487   1.104
 1755SOL    HW1 5287   3.474   1.462   1.077
 1755SOL    HW2 5288   3.593   1.437   1.186
 1756SOL     OW 5289   2.179   0.547   1.280
 1756SOL    HW1 5290   2.217   0.488   1.352
 1756SOL    HW2 5291   2.219   0.521   1.192
 1757SOL     OW 5292   2.674   1.586   0.687
 1757SOL    HW1 5293   2.706   1.596   0.593
 1757SOL    HW2 5294   2.595   1.524   0.689
 1758SOL     OW 5295   3.286   0.214   1.112
 1758SOL    HW1 5296   3.338   0.149   1.167
 1758SOL    HW2 5297   3.237   0.277   1.173
 1759SOL     OW 5298   2.863   0.034   1.154
 1759SOL    HW1 5299   2.800  -0.038   1.123
 1759SOL    HW2 5300   2.956  -0.002   1.154
 1760SOL     OW 5301   2.632   1.330   0.301
 1760SOL    HW1 5302   2.586   1.243   0.318
 1760SOL    HW2 5303   2.723   1.327   0.342
 1761SOL     OW 5304   2.480   1.567   1.284
 1761SOL    HW1 5305   2.475   1.649   1.341
 1761SOL    HW2 5306   2.569   1.564   1.239
 1762SOL     OW 5307   3.214   0.052   0.168
 1762SOL    HW1 5308   3.249   0.011   0.084
 1762SOL    HW2 5309   3.124   0.014   0.188
 1763SOL     OW 5310   3.162   0.453   0.691
 1763SOL    HW1 5311   3.103   0.533   0.695
 1763SOL    HW2 5312   3.177   0.418   0.784
 1764SOL     OW 5313   3.455   0.221   0.882
 1764SOL    HW1 5314   3.371   0.220   0.936
 1764SOL    HW2 5315   3.457   0.304   0.826
 1765SOL     OW 5316   1.901   1.077   0.300
 1765SOL    HW1 5317   2.000   1.066   0.291
 1765SOL    HW2 5318   1.861   0.991   0.332
 1766SOL     OW 5319   2.737   1.646   0.337
 1766SOL    HW1 5320   2.660   1.611   0.283
 1766SOL    HW2 5321   2.705   1.717   0.399
 1767SOL     OW 5322   2.092   0.628   1.975
 1767SOL    HW1 5323   1.999   0.626   2.012
 1767SOL    HW2 5324   2.093   0.589   1.883
 1768SOL     OW 5325   2.087   0.275   2.858
 1768SOL    HW1 5326   2.122   0.258   2.950
 1768SOL    HW2 5327   1.999   0.230   2.846
 1769SOL     OW 5328   1.881   0.368   2.509
 1769SOL    HW1 5329   1.799   0.411   2.548
 1769SOL    HW2 5330   1.853   0.295   2.446
 1770SOL     OW 5331   2.431   1.275   3.027
 1770SOL    HW1 5332   2.338   1.268   2.990
 1770SOL    HW2 5333   2.442   1.364   3.071
 1771SOL     OW 5334   3.417   1.511   2.565
 1771SOL    HW1 5335   3.360   1.495   2.646
 1771SOL    HW2 5336   3.358   1.521   2.485
 1772SOL     OW 5337   2.997   0.703   2.579
 1772SOL    HW1 5338   3.054   0.781   2.554
 1772SOL    HW2 5339   2.937   0.729   2.655
 1773SOL     OW 5340   3.617   0.607   2.093
 1773SOL    HW1 5341   3.605   0.594   1.994
 1773SOL    HW2 5342   3.587   0.526   2.142
 1774SOL     OW 5343   2.630   1.144   2.885
 1774SOL    HW1 5344   2.552   1.161   2.945
 1774SOL    HW2 5345   2.664   1.231   2.849
 1775SOL     OW 5346   2.712   0.798   3.685
 1775SOL    HW1 5347   2.708   0.874   3.750
 1775SOL    HW2 5348   2.734   0.834   3.594
 1776SOL     OW 5349   2.547   1.012   2.527
 1776SOL    HW1 5350   2.616   0.996   2.597
 1776SOL    HW2 5351   2.474   1.069   2.565
 1777SOL     OW 5352   2.548   1.161   3.665
 1777SOL    HW1 5353   2.608   1.240   3.679
 1777SOL    HW2 5354   2.462   1.192   3.624
 1778SOL     OW 5355   2.197   1.435   2.923
 1778SOL    HW1 5356   2.119   1.404   2.870
 1778SOL    HW2 5357   2.255   1.493   2.866
 1779SOL     OW 5358   3.322   1.505   3.201
 1779SOL    HW1 5359   3.346   1.599   3.227
 1779SOL    HW2 5360   3.306   1.451   3.283
 1780SOL     OW 5361   2.300   0.392   3.361
 1780SOL    HW1 5362   2.382   0.336   3.370
 1780SOL    HW2 5363   2.219   0.334   3.365
 1781SOL     OW 5364   3.465   0.447   2.599
 1781SOL    HW1 5365   3.391   0.493   2.549
 1781SOL    HW2 5366   3.516   0.515   2.652
 1782SOL     OW 5367   2.093   1.713   2.345
 1782SOL    HW1 5368   2.127   1.790   2.399
 1782SOL    HW2 5369   2.137   1.713   2.255
 1783SOL     OW 5370   2.989   1.341   3.552
 1783SOL    HW1 5371   3.036   1.341   3.640
 1783SOL    HW2 5372   2.941   1.254   3.541
 1784SOL     OW 5373   2.092   1.434   2.400
 1784SOL    HW1 5374   2.066   1.530   2.400
 1784SOL    HW2 5375   2.021   1.380   2.445
 1785SOL     OW 5376   2.102   1.091   2.748
 1785SOL    HW1 5377   2.116   1.007   2.800
 1785SOL    HW2 5378   2.047   1.155   2.803
 1786SOL     OW 5379   2.482   1.786   3.301
 1786SOL    HW1 5380   2.390   1.769   3.336
 1786SOL    HW2 5381   2.510   1.878   3.327
 1787SOL     OW 5382   2.468   0.964   1.985
 1787SOL    HW1 5383   2.475   1.048   1.931
 1787SOL    HW2 5384   2.514   0.977   2.073
 1788SOL     OW 5385   3.456   0.114   3.342
 1788SOL    HW1 5386   3.438   0.181   3.270
 1788SOL    HW2 5387   3.453   0.160   3.431
 1789SOL     OW 5388   1.984   0.643   2.425
 1789SOL    HW1 5389   1.939   0.555   2.442
 1789SOL    HW2 5390   1.983   0.697   2.509
 1790SOL     OW 5391   3.704   1.767   2.221
 1790SOL    HW1 5392   3.758   1.738   2.301
 1790SOL    HW2 5393   3.734   1.857   2.192
 1791SOL     OW 5394   1.889   1.596   1.979
 1791SOL    HW1 5395   1.870   1.500   2.000
 1791SOL    HW2 5396   1.856   1.654   2.054
 1792SOL     OW 5397   3.551   0.922   2.474
 1792SOL    HW1 5398   3.646   0.893   2.482
 1792SOL    HW2 5399   3.543   0.987   2.399
 1793SOL     OW 5400   3.503   1.108   2.294
 1793SOL    HW1 5401   3.589   1.110   2.242
 1793SOL    HW2 5402   3.517   1.155   2.382
 1794SOL     OW 5403   1.975   0.737   3.459
 1794SOL    HW1 5404   2.063   0.724   3.504
 1794SOL    HW2 5405   1.962   0.834   3.437
 1795SOL     OW 5406   2.475   1.365   2.588
 1795SOL    HW1 5407   2.426   1.278   2.597
 1795SOL    HW2 5408   2.452   1.408   2.501
 1796SOL     OW 5409   3.155   1.228   3.285
 1796SOL    HW1 5410   3.192   1.155   3.227
 1796SOL    HW2 5411   3.207   1.233   3.370
 1797SOL     OW 5412   2.671   0.004   2.364
 1797SOL    HW1 5413   2.711   0.095   2.355
 1797SOL    HW2 5414   2.571   0.012   2.370
 1798SOL     OW 5415   2.059   0.976   3.126
 1798SOL    HW1 5416   2.148   0.931   3.112
 1798SOL    HW2 5417   1.986   0.911   3.107
 1799SOL     OW 5418   3.387   0.999   2.052
 1799SOL    HW1 5419   3.324   0.923   2.065
 1799SOL    HW2 5420   3.435   1.017   2.138
 1800SOL     OW 5421   3.049   1.792   3.478
 1800SOL    HW1 5422   3.073   1.852   3.402
 1800SOL    HW2 5423   3.056   1.697   3.448
 1801SOL     OW 5424   2.179   0.251   3.663
 1801SOL    HW1 5425   2.250   0.322   3.669
 1801SOL    HW2 5426   2.091   0.290   3.691
 1802SOL     OW 5427   3.328   1.417   2.815
 1802SOL    HW1 5428   3.269   1.423   2.895
 1802SOL    HW2 5429   3.313   1.329   2.769
 1803SOL     OW 5430   3.529   1.714   2.434
 1803SOL    HW1 5431   3.488   1.691   2.346
 1803SOL    HW2 5432   3.511   1.640   2.499
 1804SOL     OW 5433   2.460   0.729   2.132
 1804SOL    HW1 5434   2.484   0.798   2.064
 1804SOL    HW2 5435   2.382   0.762   2.186
 1805SOL     OW 5436   3.143   0.345   2.806
 1805SOL    HW1 5437   3.057   0.295   2.793
 1805SOL    HW2 5438   3.205   0.291   2.862
 1806SOL     OW 5439   3.438   1.662   2.169
 1806SOL    HW1 5440   3.527   1.708   2.172
 1806SOL    HW2 5441   3.417   1.638   2.074
 1807SOL     OW 5442   2.669   0.605   3.327
 1807SOL    HW1 5443   2.622   0.602   3.416
 1807SOL    HW2 5444   2.618   0.550   3.261
 1808SOL     OW 5445   3.256   0.469   3.536
 1808SOL    HW1 5446   3.236   0.512   3.624
 1808SOL    HW2 5447   3.334   0.407   3.545
 1809SOL     OW 5448   2.835   0.890   3.434
 1809SOL    HW1 5449   2.881   0.806   3.405
 1809SOL    HW2 5450   2.779   0.924   3.359
 1810SOL     OW 5451   2.853   0.410   3.104
 1810SOL    HW1 5452   2.776   0.444   3.158
 1810SOL    HW2 5453   2.819   0.359   3.025
 1811SOL     OW 5454   2.903   0.701   2.291
 1811SOL    HW1 5455   2.929   0.697   2.387
 1811SOL    HW2 5456   2.818   0.650   2.277
 1812SOL     OW 5457   1.938   0.811   2.651
 1812SOL    HW1 5458   2.037   0.799   2.660
 1812SOL    HW2 5459   1.914   0.906   2.672
 1813SOL     OW 5460   1.992   1.821   3.433
 1813SOL    HW1 5461   1.982   1.806   3.532
 1813SOL    HW2 5462   1.906   1.857   3.397
 1814SOL     OW 5463   2.727   0.348   2.057
 1814SOL    HW1 5464   2.786   0.411   2.008
 1814SOL    HW2 5465   2.746   0.254   2.028
 1815SOL     OW 5466   3.581   0.585   3.693
 1815SOL    HW1 5467   3.555   0.674   3.657
 1815SOL    HW2 5468   3.579   0.517   3.620
 1816SOL     OW 5469   3.224   1.144   2.407
 1816SOL    HW1 5470   3.307   1.115   2.359
 1816SOL    HW2 5471   3.175   1.211   2.351
 1817SOL     OW 5472   2.412   0.196   2.747
 1817SOL    HW1 5473   2.407   0.191   2.847
 1817SOL    HW2 5474   2.414   0.292   2.718
 1818SOL     OW 5475   2.870   1.456   2.339
 1818SOL    HW1 5476   2.824   1.528   2.287
 1818SOL    HW2 5477   2.866   1.476   2.437
 1819SOL     OW 5478   2.213   1.801   2.715
 1819SOL    HW1 5479   2.263   1.715   2.721
 1819SOL    HW2 5480   2.278   1.878   2.712
 1820SOL     OW 5481   3.657   1.066   2.735
 1820SOL    HW1 5482   3.595   1.051   2.659
 1820SOL    HW2 5483   3.605   1.077   2.820
 1821SOL     OW 5484   3.089   1.550   3.368
 1821SOL    HW1 5485   3.095   1.473   3.432
 1821SOL    HW2 5486   3.037   1.524   3.288
 1822SOL     OW 5487   2.183   0.943   2.104
 1822SOL    HW1 5488   2.265   0.982   2.062
 1822SOL    HW2 5489   2.156   0.861   2.055
 1823SOL     OW 5490   3.320   0.735   2.590
 1823SOL    HW1 5491   3.315   0.670   2.665
 1823SOL    HW2 5492   3.400   0.794   2.603
 1824SOL     OW 5493   2.323   1.266   3.589
 1824SOL    HW1 5494   2.273   1.267   3.503
 1824SOL    HW2 5495   2.260   1.248   3.665
 1825SOL     OW 5496   2.973   1.776   2.099
 1825SOL    HW1 5497   2.913   1.714   2.149
 1825SOL    HW2 5498   3.004   1.732   2.014
 1826SOL     OW 5499   3.494   1.377   1.943
 1826SOL    HW1 5500   3.462   1.471   1.933
 1826SOL    HW2 5501   3.418   1.314   1.931
 1827SOL     OW 5502   2.326   1.743   2.185
 1827SOL    HW1 5503   2.359   1.782   2.271
 1827SOL    HW2 5504   2.402   1.736   2.120
 1828SOL     OW 5505   3.262   0.107   2.288
 1828SOL    HW1 5506   3.238   0.070   2.198
 1828SOL    HW2 5507   3.361   0.123   2.292
 1829SOL     OW 5508   2.111   1.785   3.103
 1829SOL    HW1 5509   2.168   1.720   3.153
 1829SOL    HW2 5510   2.095   1.752   3.010
 1830SOL     OW 5511   2.802   1.698   2.766
 1830SOL    HW1 5512   2.882   1.641   2.787
 1830SOL    HW2 5513   2.753   1.658   2.689
 1831SOL     OW 5514   2.244   0.700   2.342
 1831SOL    HW1 5515   2.289   0.610   2.339
 1831SOL    HW2 5516   2.150   0.689   2.375
 1832SOL     OW 5517   3.409   0.222   3.591
 1832SOL    HW1 5518   3.404   0.259   3.683
 1832SOL    HW2 5519   3.337   0.153   3.579
 1833SOL     OW 5520   2.476   0.122   1.979
 1833SOL    HW1 5521   2.574   0.100   1.986
 1833SOL    HW2 5522   2.445   0.105   1.886
 1834SOL     OW 5523   2.643   0.264   3.611
 1834SOL    HW1 5524   2.710   0.203   3.654
 1834SOL    HW2 5525   2.570   0.283   3.676
 1835SOL     OW 5526   2.750   1.514   3.057
 1835SOL    HW1 5527   2.727   1.489   2.963
 1835SOL    HW2 5528   2.811   1.445   3.096
 1836SOL     OW 5529   3.213   0.590   3.295
 1836SOL    HW1 5530   3.241   0.547   3.380
 1836SOL    HW2 5531   3.238   0.686   3.296
 1837SOL     OW 5532   2.665   1.402   2.786
 1837SOL    HW1 5533   2.755   1.416   2.744
 1837SOL    HW2 5534   2.594   1.404   2.715
 1838SOL     OW 5535   2.784   0.503   2.761
 1838SOL    HW1 5536   2.759   0.494   2.665
 1838SOL    HW2 5537   2.832   0.421   2.792
 1839SOL     OW 5538   2.401   0.064   2.374
 1839SOL    HW1 5539   2.320   0.065   2.432
 1839SOL    HW2 5540   2.404   0.147   2.319
 1840SOL     OW 5541   3.296   1.188   1.903
 1840SOL    HW1 5542   3.328   1.112   1.960
 1840SOL    HW2 5543   3.204   1.215   1.933
 1841SOL     OW 5544   2.159   0.035   2.033
 1841SOL    HW1 5545   2.208   0.119   2.012
 1841SOL    HW2 5546   2.221  -0.030   2.078
 1842SOL     OW 5547   2.797   0.236   2.342
 1842SOL    HW1 5548   2.749   0.277   2.264
 1842SOL    HW2 5549   2.896   0.234   2.323
 1843SOL     OW 5550   2.938   0.683   3.326
 1843SOL    HW1 5551   2.858   0.622   3.329
 1843SOL    HW2 5552   3.019   0.630   3.302
 1844SOL     OW 5553   3.089   1.570   2.655
 1844SOL    HW1 5554   3.110   1.644   2.590
 1844SOL    HW2 5555   3.157   1.570   2.728
 1845SOL     OW 5556   2.321   1.152   2.603
 1845SOL    HW1 5557   2.250   1.125   2.668
 1845SOL    HW2 5558   2.295   1.124   2.510
 1846SOL     OW 5559   3.133   1.797   2.453
 1846SOL    HW1 5560   3.177   1.861   2.389
 1846SOL    HW2 5561   3.083   1.849   2.523
 1847SOL     OW 5562   2.894   0.549   1.878
 1847SOL    HW1 5563   2.853   0.631   1.839
 1847SOL    HW2 5564   2.958   0.575   1.951
 1848SOL     OW 5565   1.940   0.556   3.248
 1848SOL    HW1 5566   2.032   0.555   3.207
 1848SOL    HW2 5567   1.934   0.630   3.315
 1849SOL     OW 5568   2.423   0.222   3.009
 1849SOL    HW1 5569   2.461   0.138   3.046
 1849SOL    HW2 5570   2.335   0.241   3.053
 1850SOL     OW 5571   2.728   0.454   2.504
 1850SOL    HW1 5572   2.696   0.526   2.442
 1850SOL    HW2 5573   2.752   0.373   2.451
 1851SOL     OW 5574   2.879   0.039   2.615
 1851SOL    HW1 5575   2.807   0.044   2.546
 1851SOL    HW2 5576   2.855  -0.030   2.684
 1852SOL     OW 5577   3.291   1.173   2.729
 1852SOL    HW1 5578   3.236   1.089   2.722
 1852SOL    HW2 5579   3.317   1.202   2.637
 1853SOL     OW 5580   3.328   0.590   2.854
 1853SOL    HW1 5581   3.298   0.495   2.861
 1853SOL    HW2 5582   3.401   0.606   2.920
 1854SOL     OW 5583   3.719   0.833   2.239
 1854SOL    HW1 5584   3.761   0.769   2.303
 1854SOL    HW2 5585   3.681   0.782   2.161
 1855SOL     OW 5586   2.350   1.385   2.036
 1855SOL    HW1 5587   2.263   1.370   2.083
 1855SOL    HW2 5588   2.333   1.411   1.941
 1856SOL     OW 5589   3.526   1.280   2.519
 1856SOL    HW1 5590   3.625   1.288   2.533
 1856SOL    HW2 5591   3.481   1.364   2.550
 1857SOL     OW 5592   3.252   0.575   1.940
 1857SOL    HW1 5593   3.198   0.554   2.021
 1857SOL    HW2 5594   3.343   0.534   1.949
 1858SOL     OW 5595   2.389   0.256   2.190
 1858SOL    HW1 5596   2.416   0.197   2.115
 1858SOL    HW2 5597   2.389   0.351   2.159
 1859SOL     OW 5598   3.616   1.223   3.450
 1859SOL    HW1 5599   3.707   1.184   3.437
 1859SOL    HW2 5600   3.624   1.319   3.474
 1860SOL     OW 5601   2.926   1.347   3.202
 1860SOL    HW1 5602   2.846   1.324   3.257
 1860SOL    HW2 5603   3.009   1.321   3.251
 1861SOL     OW 5604   3.454   1.629   3.487
 1861SOL    HW1 5605   3.481   1.663   3.397
 1861SOL    HW2 5606   3.533   1.591   3.533
 1862SOL     OW 5607   2.973   1.195   2.962
 1862SOL    HW1 5608   2.933   1.239   3.043
 1862SOL    HW2 5609   2.932   1.232   2.879
 1863SOL     OW 5610   3.500   1.099   2.941
 1863SOL    HW1 5611   3.505   1.180   3.000
 1863SOL    HW2 5612   3.414   1.101   2.890
 1864SOL     OW 5613   2.777   0.089   3.264
 1864SOL    HW1 5614   2.802   0.069   3.169
 1864SOL    HW2 5615   2.849   0.145   3.306
 1865SOL     OW 5616   2.842   1.116   3.581
 1865SOL    HW1 5617   2.743   1.122   3.591
 1865SOL    HW2 5618   2.865   1.036   3.525
 1866SOL     OW 5619   2.567   1.050   2.230
 1866SOL    HW1 5620   2.553   1.057   2.329
 1866SOL    HW2 5621   2.651   0.999   2.212
 1867SOL     OW 5622   2.272   0.813   3.113
 1867SOL    HW1 5623   2.358   0.825   3.163
 1867SOL    HW2 5624   2.230   0.726   3.140
 1868SOL     OW 5625   3.136   0.386   3.124
 1868SOL    HW1 5626   3.157   0.460   3.188
 1868SOL    HW2 5627   3.047   0.403   3.081
 1869SOL     OW 5628   1.926   1.564   3.193
 1869SOL    HW1 5629   1.880   1.646   3.159
 1869SOL    HW2 5630   2.024   1.583   3.202
 1870SOL     OW 5631   2.229   1.100   2.363
 1870SOL    HW1 5632   2.222   1.183   2.307
 1870SOL    HW2 5633   2.233   1.020   2.303
 1871SOL     OW 5634   2.428   0.537   2.727
 1871SOL    HW1 5635   2.440   0.603   2.653
 1871SOL    HW2 5636   2.474   0.571   2.810
 1872SOL     OW 5637   3.114   1.348   2.250
 1872SOL    HW1 5638   3.164   1.425   2.290
 1872SOL    HW2 5639   3.019   1.350   2.282
 1873SOL     OW 5640   3.134   1.445   3.004
 1873SOL    HW1 5641   3.181   1.458   3.091
 1873SOL    HW2 5642   3.068   1.371   3.013
 1874SOL     OW 5643   3.444   0.639   2.334
 1874SOL    HW1 5644   3.413   0.700   2.407
 1874SOL    HW2 5645   3.494   0.691   2.265
 1875SOL     OW 5646   2.216   1.510   3.191
 1875SOL    HW1 5647   2.195   1.466   3.104
 1875SOL    HW2 5648   2.313   1.536   3.194
 1876SOL     OW 5649   2.264   0.751   3.460
 1876SOL    HW1 5650   2.332   0.806   3.413
 1876SOL    HW2 5651   2.304   0.663   3.487
 1877SOL     OW 5652   3.449   0.779   3.532
 1877SOL    HW1 5653   3.357   0.817   3.527
 1877SOL    HW2 5654   3.509   0.826   3.467
 1878SOL     OW 5655   2.875   0.105   3.632
 1878SOL    HW1 5656   2.881   0.190   3.580
 1878SOL    HW2 5657   2.907   0.029   3.575
 1879SOL     OW 5658   2.366   0.050   3.602
 1879SOL    HW1 5659   2.324  -0.007   3.532
 1879SOL    HW2 5660   2.300   0.119   3.634
 1880SOL     OW 5661   2.435   0.870   2.891
 1880SOL    HW1 5662   2.479   0.959   2.882
 1880SOL    HW2 5663   2.372   0.870   2.968
 1881SOL     OW 5664   3.222   0.862   2.907
 1881SOL    HW1 5665   3.147   0.862   2.841
 1881SOL    HW2 5666   3.259   0.770   2.916
 1882SOL     OW 5667   3.071   0.525   2.137
 1882SOL    HW1 5668   3.084   0.441   2.191
 1882SOL    HW2 5669   3.042   0.599   2.197
 1883SOL     OW 5670   2.169   0.213   3.093
 1883SOL    HW1 5671   2.146   0.250   3.183
 1883SOL    HW2 5672   2.139   0.118   3.087
 1884SOL     OW 5673   1.899   1.310   3.144
 1884SOL    HW1 5674   1.952   1.261   3.212
 1884SOL    HW2 5675   1.921   1.408   3.149
 1885SOL     OW 5676   2.594   0.634   2.926
 1885SOL    HW1 5677   2.653   0.608   2.850
 1885SOL    HW2 5678   2.566   0.730   2.915
 1886SOL     OW 5679   3.590   0.935   3.716
 1886SOL    HW1 5680   3.544   0.928   3.627
 1886SOL    HW2 5681   3.528   0.979   3.782
 1887SOL     OW 5682   2.169   0.063   2.480
 1887SOL    HW1 5683   2.158   0.157   2.513
 1887SOL    HW2 5684   2.164   0.000   2.557
 1888SOL     OW 5685   3.484   0.367   2.236
 1888SOL    HW1 5686   3.486   0.291   2.300
 1888SOL    HW2 5687   3.436   0.444   2.276
 1889SOL     OW 5688   2.885   0.766   2.828
 1889SOL    HW1 5689   2.900   0.787   2.924
 1889SOL    HW2 5690   2.855   0.671   2.819
 1890SOL     OW 5691   2.842   1.573   3.562
 1890SOL    HW1 5692   2.822   1.617   3.474
 1890SOL    HW2 5693   2.881   1.482   3.546
 1891SOL     OW 5694   3.721   1.518   3.467
 1891SOL    HW1 5695   3.735   1.545   3.372
 1891SOL    HW2 5696   3.804   1.540   3.520
 1892SOL     OW 5697   2.212   0.898   3.666
 1892SOL    HW1 5698   2.288   0.942   3.714
 1892SOL    HW2 5699   2.247   0.851   3.584
 1893SOL     OW 5700   3.402   0.274   1.987
 1893SOL    HW1 5701   3.341   0.199   2.010
 1893SOL    HW2 5702   3.424   0.326   2.070
 1894SOL     OW 5703   3.165   0.838   1.904
 1894SOL    HW1 5704   3.199   0.745   1.919
 1894SOL    HW2 5705   3.183   0.865   1.809
 1895SOL     OW 5706   2.930   1.333   2.711
 1895SOL    HW1 5707   2.937   1.249   2.656
 1895SOL    HW2 5708   2.992   1.402   2.675
 1896SOL     OW 5709   2.181   0.810   2.811
 1896SOL    HW1 5710   2.274   0.846   2.816
 1896SOL    HW2 5711   2.175   0.725   2.863
 1897SOL     OW 5712   2.201   0.509   2.868
 1897SOL    HW1 5713   2.149   0.426   2.851
 1897SOL    HW2 5714   2.278   0.514   2.804
 1898SOL     OW 5715   3.000   0.380   3.540
 1898SOL    HW1 5716   2.955   0.443   3.604
 1898SOL    HW2 5717   3.093   0.411   3.523
 1899SOL     OW 5718   3.022   0.207   3.339
 1899SOL    HW1 5719   3.022   0.271   3.416
 1899SOL    HW2 5720   3.050   0.255   3.256
 1900SOL     OW 5721   1.870   1.326   2.062
 1900SOL    HW1 5722   1.777   1.347   2.031
 1900SOL    HW2 5723   1.880   1.227   2.075
 1901SOL     OW 5724   1.950   1.801   2.789
 1901SOL    HW1 5725   1.908   1.715   2.762
 1901SOL    HW2 5726   2.044   1.804   2.755
 1902SOL     OW 5727   2.366   1.568   2.772
 1902SOL    HW1 5728   2.432   1.642   2.781
 1902SOL    HW2 5729   2.410   1.489   2.730
 1903SOL     OW 5730   2.864   0.796   3.100
 1903SOL    HW1 5731   2.905   0.764   3.186
 1903SOL    HW2 5732   2.768   0.769   3.097
 1904SOL     OW 5733   1.902   0.544   2.976
 1904SOL    HW1 5734   1.987   0.511   2.935
 1904SOL    HW2 5735   1.915   0.559   3.074
 1905SOL     OW 5736   2.051   0.520   3.584
 1905SOL    HW1 5737   2.110   0.480   3.514
 1905SOL    HW2 5738   1.993   0.591   3.543
 1906SOL     OW 5739   3.231   0.950   3.522
 1906SOL    HW1 5740   3.270   1.039   3.542
 1906SOL    HW2 5741   3.241   0.930   3.425
 1907SOL     OW 5742   2.677   0.572   2.187
 1907SOL    HW1 5743   2.684   0.483   2.141
 1907SOL    HW2 5744   2.583   0.606   2.179
 1908SOL     OW 5745   3.519   0.604   3.068
 1908SOL    HW1 5746   3.481   0.535   3.130
 1908SOL    HW2 5747   3.601   0.568   3.024
 1909SOL     OW 5748   2.114   1.564   3.606
 1909SOL    HW1 5749   2.084   1.621   3.682
 1909SOL    HW2 5750   2.107   1.467   3.632
 1910SOL     OW 5751   2.533   0.464   3.131
 1910SOL    HW1 5752   2.499   0.375   3.101
 1910SOL    HW2 5753   2.559   0.518   3.051
 1911SOL     OW 5754   2.792   1.678   3.327
 1911SOL    HW1 5755   2.768   1.660   3.232
 1911SOL    HW2 5756   2.822   1.772   3.337
 1912SOL     OW 5757   2.335   0.500   2.053
 1912SOL    HW1 5758   2.396   0.580   2.057
 1912SOL    HW2 5759   2.240   0.531   2.060
 1913SOL     OW 5760   2.021   1.137   3.328
 1913SOL    HW1 5761   2.043   1.076   3.404
 1913SOL    HW2 5762   2.031   1.088   3.242
 1914SOL     OW 5763   3.209   1.059   3.096
 1914SOL    HW1 5764   3.233   0.996   3.022
 1914SOL    HW2 5765   3.119   1.099   3.078
 1915SOL     OW 5766   3.164   0.855   2.171
 1915SOL    HW1 5767   3.078   0.824   2.213
 1915SOL    HW2 5768   3.160   0.841   2.072
 1916SOL     OW 5769   3.621   1.747   3.016
 1916SOL    HW1 5770   3.682   1.777   2.943
 1916SOL    HW2 5771   3.583   1.658   2.994
 1917SOL     OW 5772   3.114   1.731   2.990
 1917SOL    HW1 5773   3.198   1.736   2.936
 1917SOL    HW2 5774   3.091   1.635   3.008
 1918SOL     OW 5775   1.945   1.258   2.884
 1918SOL    HW1 5776   1.940   1.257   2.984
 1918SOL    HW2 5777   1.862   1.217   2.846
 1919SOL     OW 5778   2.550   1.662   3.578
 1919SOL    HW1 5779   2.494   1.743   3.587
 1919SOL    HW2 5780   2.602   1.666   3.492
 1920SOL     OW 5781   3.588   0.135   2.385
 1920SOL    HW1 5782   3.661   0.118   2.318
 1920SOL    HW2 5783   3.557   0.048   2.423
 1921SOL     OW 5784   3.250   1.573   2.339
 1921SOL    HW1 5785   3.317   1.585   2.265
 1921SOL    HW2 5786   3.210   1.662   2.362
 1922SOL     OW 5787   1.992   1.794   3.713
 1922SOL    HW1 5788   1.951   1.720   3.766
 1922SOL    HW2 5789   2.056   1.845   3.771
 1923SOL     OW 5790   3.142   0.927   2.534
 1923SOL    HW1 5791   3.202   0.846   2.536
 1923SOL    HW2 5792   3.182   0.996   2.474
 1924SOL     OW 5793   2.692   1.273   3.284
 1924SOL    HW1 5794   2.687   1.306   3.379
 1924SOL    HW2 5795   2.606   1.292   3.238
 1925SOL     OW 5796   2.534   1.616   2.016
 1925SOL    HW1 5797   2.543   1.626   1.917
 1925SOL    HW2 5798   2.494   1.527   2.037
 1926SOL     OW 5799   3.512   1.720   3.256
 1926SOL    HW1 5800   3.565   1.730   3.172
 1926SOL    HW2 5801   3.485   1.810   3.290
 1927SOL     OW 5802   3.703   0.175   2.825
 1927SOL    HW1 5803   3.742   0.090   2.789
 1927SOL    HW2 5804   3.605   0.177   2.806
 1928SOL     OW 5805   2.125   0.326   2.582
 1928SOL    HW1 5806   2.046   0.377   2.548
 1928SOL    HW2 5807   2.116   0.311   2.680
 1929SOL     OW 5808   3.056   1.612   1.893
 1929SOL    HW1 5809   3.062   1.519   1.930
 1929SOL    HW2 5810   2.997   1.612   1.813
 1930SOL     OW 5811   2.684   1.002   3.234
 1930SOL    HW1 5812   2.724   1.001   3.142
 1930SOL    HW2 5813   2.694   1.094   3.274
 1931SOL     OW 5814   2.778   0.910   2.153
 1931SOL    HW1 5815   2.841   0.948   2.085
 1931SOL    HW2 5816   2.818   0.827   2.192
 1932SOL     OW 5817   3.366   1.607   1.906
 1932SOL    HW1 5818   3.274   1.644   1.913
 1932SOL    HW2 5819   3.404   1.627   1.816
 1933SOL     OW 5820   2.234   1.288   3.352
 1933SOL    HW1 5821   2.221   1.381   3.318
 1933SOL    HW2 5822   2.150   1.236   3.339
 1934SOL     OW 5823   3.476   1.292   3.151
 1934SOL    HW1 5824   3.536   1.295   3.231
 1934SOL    HW2 5825   3.401   1.356   3.164
 1935SOL     OW 5826   2.901   1.098   2.558
 1935SOL    HW1 5827   2.831   1.051   2.612
 1935SOL    HW2 5828   2.960   1.030   2.515
 1936SOL     OW 5829   2.876   0.236   2.833
 1936SOL    HW1 5830   2.868   0.200   2.740
 1936SOL    HW2 5831   2.874   0.160   2.898
 1937SOL     OW 5832   2.452   1.487   2.353
 1937SOL    HW1 5833   2.494   1.429   2.283
 1937SOL    HW2 5834   2.408   1.566   2.309
 1938SOL     OW 5835   3.571   0.385   3.243
 1938SOL    HW1 5836   3.644   0.454   3.247
 1938SOL    HW2 5837   3.599   0.310   3.184
 1939SOL     OW 5838   2.117   1.348   2.152
 1939SOL    HW1 5839   2.021   1.349   2.125
 1939SOL    HW2 5840   2.129   1.401   2.236
 1940SOL     OW 5841   1.967   1.013   3.588
 1940SOL    HW1 5842   1.890   0.980   3.642
 1940SOL    HW2 5843   2.052   0.983   3.630
 1941SOL     OW 5844   2.534   0.203   3.351
 1941SOL    HW1 5845   2.624   0.187   3.311
 1941SOL    HW2 5846   2.542   0.208   3.450
 1942SOL     OW 5847   1.937   0.345   1.895
 1942SOL    HW1 5848   1.845   0.317   1.866
 1942SOL    HW2 5849   1.968   0.422   1.839
 1943SOL     OW 5850   3.302   0.856   3.260
 1943SOL    HW1 5851   3.245   0.908   3.197
 1943SOL    HW2 5852   3.398   0.868   3.236
 1944SOL     OW 5853   1.934   0.166   2.180
 1944SOL    HW1 5854   1.917   0.249   2.126
 1944SOL    HW2 5855   2.024   0.129   2.158
 1945SOL     OW 5856   3.045   1.335   1.981
 1945SOL    HW1 5857   2.946   1.324   1.983
 1945SOL    HW2 5858   3.079   1.350   2.074
 1946SOL     OW 5859   2.475   0.842   3.293
 1946SOL    HW1 5860   2.531   0.923   3.276
 1946SOL    HW2 5861   2.534   0.762   3.296
 1947SOL     OW 5862   3.355   1.767   2.821
 1947SOL    HW1 5863   3.388   1.831   2.752
 1947SOL    HW2 5864   3.421   1.761   2.896
 1948SOL     OW 5865   2.578   0.565   3.570
 1948SOL    HW1 5866   2.597   0.630   3.644
 1948SOL    HW2 5867   2.638   0.485   3.579
 1949SOL     OW 5868   3.312   1.220   3.495
 1949SOL    HW1 5869   3.303   1.210   3.594
 1949SOL    HW2 5870   3.408   1.213   3.469
 1950SOL     OW 5871   2.252   1.741   3.422
 1950SOL    HW1 5872   2.161   1.782   3.420
 1950SOL    HW2 5873   2.245   1.647   3.454
 1951SOL     OW 5874   3.536   0.883   3.116
 1951SOL    HW1 5875   3.509   0.794   3.079
 1951SOL    HW2 5876   3.537   0.951   3.043
 1952SOL     OW 5877   3.087   0.325   2.311
 1952SOL    HW1 5878   3.152   0.251   2.300
 1952SOL    HW2 5879   3.107   0.375   2.395
 1953SOL     OW 5880   2.456   0.745   2.514
 1953SOL    HW1 5881   2.506   0.830   2.495
 1953SOL    HW2 5882   2.368   0.747   2.466
 1954SOL     OW 5883   3.639   0.342   3.504
 1954SOL    HW1 5884   3.622   0.373   3.410
 1954SOL    HW2 5885   3.555   0.305   3.542
 1955SOL     OW 5886   3.592   0.934   3.379
 1955SOL    HW1 5887   3.630   1.025   3.394
 1955SOL    HW2 5888   3.584   0.917   3.280
 1956SOL     OW 5889   2.721   1.374   1.878
 1956SOL    HW1 5890   2.675   1.389   1.966
 1956SOL    HW2 5891   2.765   1.459   1.848
 1957SOL     OW 5892   2.523   1.790   2.815
 1957SOL    HW1 5893   2.477   1.878   2.802
 1957SOL    HW2 5894   2.622   1.802   2.808
 1958SOL     OW 5895   2.721   0.956   2.723
 1958SOL    HW1 5896   2.775   0.887   2.771
 1958SOL    HW2 5897   2.689   1.025   2.789
 1959SOL     OW 5898   2.945   0.984   1.949
 1959SOL    HW1 5899   2.922   1.037   1.867
 1959SOL    HW2 5900   3.026   0.928   1.930
 1960SOL     OW 5901   3.723   1.569   2.713
 1960SOL    HW1 5902   3.652   1.557   2.643
 1960SOL    HW2 5903   3.724   1.490   2.773
 1961SOL     OW 5904   2.083   1.314   3.706
 1961SOL    HW1 5905   2.018   1.241   3.685
 1961SOL    HW2 5906   2.087   1.328   3.804
 1962SOL     OW 5907   1.941   1.240   2.515
 1962SOL    HW1 5908   1.940   1.193   2.603
 1962SOL    HW2 5909   2.023   1.212   2.464
 1963SOL     OW 5910   2.534   1.391   3.486
 1963SOL    HW1 5911   2.456   1.341   3.524
 1963SOL    HW2 5912   2.531   1.486   3.517
 1964SOL     OW 5913   3.686   0.192   3.089
 1964SOL    HW1 5914   3.682   0.102   3.133
 1964SOL    HW2 5915   3.689   0.181   2.990
 1965SOL     OW 5916   2.290   0.424   2.382
 1965SOL    HW1 5917   2.320   0.352   2.320
 1965SOL    HW2 5918   2.251   0.384   2.465
 1966SOL     OW 5919   3.567   1.487   2.966
 1966SOL    HW1 5920   3.474   1.462   2.939
 1966SOL    HW2 5921   3.593   1.437   3.048
 1967SOL     OW 5922   2.179   0.547   3.142
 1967SOL    HW1 5923   2.217   0.488   3.214
 1967SOL    HW2 5924   2.219   0.521   3.054
 1968SOL     OW 5925   2.674   1.586   2.549
 1968SOL    HW1 5926   2.706   1.596   2.455
 1968SOL    HW2 5927   2.595   1.524   2.551
 1969SOL     OW 5928   3.286   0.214   2.974
 1969SOL    HW1 5929   3.338   0.149   3.029
 1969SOL    HW2 5930   3.237   0.277   3.035
 1970SOL     OW 5931   2.863   0.034   3.016
 1970SOL    HW1 5932   2.800  -0.038   2.985
 1970SOL    HW2 5933   2.956  -0.002   3.016
 1971SOL     OW 5934   2.632   1.330   2.163
 1971SOL    HW1 5935   2.586   1.243   2.180
 1971SOL    HW2 5936   2.723   1.327   2.204
 1972SOL     OW 5937   2.480   1.567   3.146
 1972SOL    HW1 5938   2.475   1.649   3.203
 1972SOL    HW2 5939   2.569   1.564   3.101
 1973SOL     OW 5940   3.214   0.052   2.030
 1973SOL    HW1 5941   3.249   0.011   1.946
 1973SOL    HW2 5942   3.124   0.014   2.050
 1974SOL     OW 5943   3.162   0.453   2.553
 1974SOL    HW1 5944   3.103   0.533   2.557
 1974SOL    HW2 5945   3.177   0.418   2.646
 1975SOL     OW 5946   3.455   0.221   2.744
 1975SOL    HW1 5947   3.371   0.220   2.798
 1975SOL    HW2 5948   3.457   0.304   2.688
 1976SOL     OW 5949   1.901   1.077   2.162
 1976SOL    HW1 5950   2.000   1.066   2.153
 1976SOL    HW2 5951   1.861   0.991   2.194
 1977SOL     OW 5952   2.737   1.646   2.199
 1977SOL    HW1 5953   2.660   1.611   2.145
 1977SOL    HW2 5954   2.705   1.717   2.261
 1978SOL     OW 5955   2.092   0.628   3.837
 1978SOL    HW1 5956   1.999   0.626   3.874
 1978SOL    HW2 5957   2.093   0.589   3.745
 1979SOL     OW 5958   2.087   0.275   4.720
 1979SOL    HW1 5959   2.122   0.258   4.812
 1979SOL    HW2 5960   1.999   0.230   4.708
 1980SOL     OW 5961   1.881   0.368   4.371
 1980SOL    HW1 5962   1.799   0.411   4.410
 1980SOL    HW2 5963   1.853   0.295   4.308
 1981SOL     OW 5964   2.431   1.275   4.889
 1981SOL    HW1 5965   2.338   1.268   4.852
 1981SOL    HW2 5966   2.442   1.364   4.933
 1982SOL     OW 5967   3.417   1.511   4.427
 1982SOL    HW1 5968   3.360   1.495   4.508
 1982SOL    HW2 5969   3.358   1.521   4.347
 1983SOL     OW 5970   2.997   0.703   4.441
 1983SOL    HW1 5971   3.054   0.781   4.416
 1983SOL    HW2 5972   2.937   0.729   4.517
 1984SOL     OW 5973   3.617   0.607   3.955
 1984SOL    HW1 5974   3.605   0.594   3.856
 1984SOL    HW2 5975   3.587   0.526   4.004
 1985SOL     OW 5976   2.630   1.144   4.747
 1985SOL    HW1 5977   2.552   1.161   4.807
 1985SOL    HW2 5978   2.664   1.231   4.711
 1986SOL     OW 5979   2.547   1.012   4.389
 1986SOL    HW1 5980   2.616   0.996   4.459
 1986SOL    HW2 5981   2.474   1.069   4.427
 1987SOL     OW 5982   2.197   1.435   4.785
 1987SOL    HW1 5983   2.119   1.404   4.732
 1987SOL    HW2 5984   2.255   1.493   4.728
 1988SOL     OW 5985   3.465   0.447   4.461
 1988SOL    HW1 5986   3.391   0.493   4.411
 1988SOL    HW2 5987   3.516   0.515   4.514
 1989SOL     OW 5988   2.093   1.713   4.207
 1989SOL    HW1 5989   2.127   1.790   4.261
 1989SOL    HW2 5990   2.137   1.713   4.117
 1990SOL     OW 5991   2.092   1.434   4.262
 1990SOL    HW1 5992   2.066   1.530   4.262
 1990SOL    HW2 5993   2.021   1.380   4.307
 1991SOL     OW 5994   2.102   1.091   4.610
 1991SOL    HW1 5995   2.116   1.007   4.662
 1991SOL    HW2 5996   2.047   1.155   4.665
 1992SOL     OW 5997   2.468   0.964   3.847
 1992SOL    HW1 5998   2.475   1.048   3.793
 1992SOL    HW2 5999   2.514   0.977   3.935
 1993SOL     OW 6000   1.984   0.643   4.287
 1993SOL    HW1 6001   1.939   0.555   4.304
 1993SOL    HW2 6002   1.983   0.697   4.371
 1994SOL     OW 6003   3.704   1.767   4.083
 1994SOL    HW1 6004   3.758   1.738   4.163
 1994SOL    HW2 6005   3.734   1.857   4.054
 1995SOL     OW 6006   1.889   1.596   3.841
 1995SOL    HW1 6007   1.870   1.500   3.862
 1995SOL    HW2 6008   1.856   1.654   3.916
 1996SOL     OW 6009   3.551   0.922   4.336
 1996SOL    HW1 6010   3.646   0.893   4.344
 1996SOL    HW2 6011   3.543   0.987   4.261
 1997SOL     OW 6012   3.503   1.108   4.156
 1997SOL    HW1 6013   3.589   1.110   4.104
 1997SOL    HW2 6014   3.517   1.155   4.244
 1998SOL     OW 6015   1.975   0.737   5.321
 1998SOL    HW1 6016   2.063   0.724   5.366
 1998SOL    HW2 6017   1.962   0.834   5.299
 1999SOL     OW 6018   2.475   1.365   4.450
 1999SOL    HW1 6019   2.426   1.278   4.459
 1999SOL    HW2 6020   2.452   1.408   4.363
 2000SOL     OW 6021   2.671   0.004   4.226
 2000SOL    HW1 6022   2.711   0.095   4.217
 2000SOL    HW2 6023   2.571   0.012   4.232
 2001SOL     OW 6024   2.059   0.976   4.988
 2001SOL    HW1 6025   2.148   0.931   4.974
 2001SOL    HW2 6026   1.986   0.911   4.969
 2002SOL     OW 6027   3.387   0.999   3.914
 2002SOL    HW1 6028   3.324   0.923   3.927
 2002SOL    HW2 6029   3.435   1.017   4.000
 2003SOL     OW 6030   3.328   1.417   4.677
 2003SOL    HW1 6031   3.269   1.423   4.757
 2003SOL    HW2 6032   3.313   1.329   4.631
 2004SOL     OW 6033   3.529   1.714   4.296
 2004SOL    HW1 6034   3.488   1.691   4.208
 2004SOL    HW2 6035   3.511   1.640   4.361
 2005SOL     OW 6036   2.460   0.729   3.994
 2005SOL    HW1 6037   2.484   0.798   3.926
 2005SOL    HW2 6038   2.382   0.762   4.048
 2006SOL     OW 6039   3.143   0.345   4.668
 2006SOL    HW1 6040   3.057   0.295   4.655
 2006SOL    HW2 6041   3.205   0.291   4.724
 2007SOL     OW 6042   3.438   1.662   4.031
 2007SOL    HW1 6043   3.527   1.708   4.034
 2007SOL    HW2 6044   3.417   1.638   3.936
 2008SOL     OW 6045   2.853   0.410   4.966
 2008SOL    HW1 6046   2.776   0.444   5.020
 2008SOL    HW2 6047   2.819   0.359   4.887
 2009SOL     OW 6048   2.903   0.701   4.153
 2009SOL    HW1 6049   2.929   0.697   4.249
 2009SOL    HW2 6050   2.818   0.650   4.139
 2010SOL     OW 6051   1.938   0.811   4.513
 2010SOL    HW1 6052   2.037   0.799   4.522
 2010SOL    HW2 6053   1.914   0.906   4.534
 2011SOL     OW 6054   2.727   0.348   3.919
 2011SOL    HW1 6055   2.786   0.411   3.870
 2011SOL    HW2 6056   2.746   0.254   3.890
 2012SOL     OW 6057   3.224   1.144   4.269
 2012SOL    HW1 6058   3.307   1.115   4.221
 2012SOL    HW2 6059   3.175   1.211   4.213
 2013SOL     OW 6060   2.412   0.196   4.609
 2013SOL    HW1 6061   2.407   0.191   4.709
 2013SOL    HW2 6062   2.414   0.292   4.580
 2014SOL     OW 6063   2.870   1.456   4.201
 2014SOL    HW1 6064   2.824   1.528   4.149
 2014SOL    HW2 6065   2.866   1.476   4.299
 2015SOL     OW 6066   2.213   1.801   4.577
 2015SOL    HW1 6067   2.263   1.715   4.583
 2015SOL    HW2 6068   2.278   1.878   4.574
 2016SOL     OW 6069   3.657   1.066   4.597
 2016SOL    HW1 6070   3.595   1.051   4.521
 2016SOL    HW2 6071   3.605   1.077   4.682
 2017SOL     OW 6072   2.183   0.943   3.966
 2017SOL    HW1 6073   2.265   0.982   3.924
 2017SOL    HW2 6074   2.156   0.861   3.917
 2018SOL     OW 6075   3.320   0.735   4.452
 2018SOL    HW1 6076   3.315   0.670   4.527
 2018SOL    HW2 6077   3.400   0.794   4.465
 2019SOL     OW 6078   2.973   1.776   3.961
 2019SOL    HW1 6079   2.913   1.714   4.011
 2019SOL    HW2 6080   3.004   1.732   3.876
 2020SOL     OW 6081   3.494   1.377   3.805
 2020SOL    HW1 6082   3.462   1.471   3.795
 2020SOL    HW2 6083   3.418   1.314   3.793
 2021SOL     OW 6084   2.326   1.743   4.047
 2021SOL    HW1 6085   2.359   1.782   4.133
 2021SOL    HW2 6086   2.402   1.736   3.982
 2022SOL     OW 6087   3.262   0.107   4.150
 2022SOL    HW1 6088   3.238   0.070   4.060
 2022SOL    HW2 6089   3.361   0.123   4.154
 2023SOL     OW 6090   2.111   1.785   4.965
 2023SOL    HW1 6091   2.168   1.720   5.015
 2023SOL    HW2 6092   2.095   1.752   4.872
 2024SOL     OW 6093   2.802   1.698   4.628
 2024SOL    HW1 6094   2.882   1.641   4.649
 2024SOL    HW2 6095   2.753   1.658   4.551
 2025SOL     OW 6096   2.244   0.700   4.204
 2025SOL    HW1 6097   2.289   0.610   4.201
 2025SOL    HW2 6098   2.150   0.689   4.237
 2026SOL     OW 6099   2.476   0.122   3.841
 2026SOL    HW1 6100   2.574   0.100   3.848
 2026SOL    HW2 6101   2.445   0.105   3.748
 2027SOL     OW 6102   2.665   1.402   4.648
 2027SOL    HW1 6103   2.755   1.416   4.606
 2027SOL    HW2 6104   2.594   1.404   4.577
 2028SOL     OW 6105   2.784   0.503   4.623
 2028SOL    HW1 6106   2.759   0.494   4.527
 2028SOL    HW2 6107   2.832   0.421   4.654
 2029SOL     OW 6108   2.401   0.064   4.236
 2029SOL    HW1 6109   2.320   0.065   4.294
 2029SOL    HW2 6110   2.404   0.147   4.181
 2030SOL     OW 6111   3.296   1.188   3.765
 2030SOL    HW1 6112   3.328   1.112   3.822
 2030SOL    HW2 6113   3.204   1.215   3.795
 2031SOL     OW 6114   2.159   0.035   3.895
 2031SOL    HW1 6115   2.208   0.119   3.874
 2031SOL    HW2 6116   2.221  -0.030   3.940
 2032SOL     OW 6117   2.797   0.236   4.204
 2032SOL    HW1 6118   2.749   0.277   4.126
 2032SOL    HW2 6119   2.896   0.234   4.185
 2033SOL     OW 6120   3.089   1.570   4.517
 2033SOL    HW1 6121   3.110   1.644   4.452
 2033SOL    HW2 6122   3.157   1.570   4.590
 2034SOL     OW 6123   2.321   1.152   4.465
 2034SOL    HW1 6124   2.250   1.125   4.530
 2034SOL    HW2 6125   2.295   1.124   4.372
 2035SOL     OW 6126   3.133   1.797   4.315
 2035SOL    HW1 6127   3.177   1.861   4.251
 2035SOL    HW2 6128   3.083   1.849   4.385
 2036SOL     OW 6129   2.894   0.549   3.740
 2036SOL    HW1 6130   2.853   0.631   3.701
 2036SOL    HW2 6131   2.958   0.575   3.813
 2037SOL     OW 6132   2.423   0.222   4.871
 2037SOL    HW1 6133   2.461   0.138   4.908
 2037SOL    HW2 6134   2.335   0.241   4.915
 2038SOL     OW 6135   2.728   0.454   4.366
 2038SOL    HW1 6136   2.696   0.526   4.304
 2038SOL    HW2 6137   2.752   0.373   4.313
 2039SOL     OW 6138   2.879   0.039   4.477
 2039SOL    HW1 6139   2.807   0.044   4.408
 2039SOL    HW2 6140   2.855  -0.030   4.546
 2040SOL     OW 6141   3.291   1.173   4.591
 2040SOL    HW1 6142   3.236   1.089   4.584
 2040SOL    HW2 6143   3.317   1.202   4.499
 2041SOL     OW 6144   3.328   0.590   4.716
 2041SOL    HW1 6145   3.298   0.495   4.723
 2041SOL    HW2 6146   3.401   0.606   4.782
 2042SOL     OW 6147   3.719   0.833   4.101
 2042SOL    HW1 6148   3.761   0.769   4.165
 2042SOL    HW2 6149   3.681   0.782   4.023
 2043SOL     OW 6150   2.350   1.385   3.898
 2043SOL    HW1 6151   2.263   1.370   3.945
 2043SOL    HW2 6152   2.333   1.411   3.803
 2044SOL     OW 6153   3.526   1.280   4.381
 2044SOL    HW1 6154   3.625   1.288   4.395
 2044SOL    HW2 6155   3.481   1.364   4.412
 2045SOL     OW 6156   3.252   0.575   3.802
 2045SOL    HW1 6157   3.198   0.554   3.883
 2045SOL    HW2 6158   3.343   0.534   3.811
 2046SOL     OW 6159   2.389   0.256   4.052
 2046SOL    HW1 6160   2.416   0.197   3.977
 2046SOL    HW2 6161   2.389   0.351   4.021
 2047SOL     OW 6162   2.973   1.195   4.824
 2047SOL    HW1 6163   2.933   1.239   4.905
 2047SOL    HW2 6164   2.932   1.232   4.741
 2048SOL     OW 6165   3.500   1.099   4.803
 2048SOL    HW1 6166   3.505   1.180   4.862
 2048SOL    HW2 6167   3.414   1.101   4.752
 2049SOL     OW 6168   2.567   1.050   4.092
 2049SOL    HW1 6169   2.553   1.057   4.191
 2049SOL    HW2 6170   2.651   0.999   4.074
 2050SOL     OW 6171   2.272   0.813   4.975
 2050SOL    HW1 6172   2.358   0.825   5.025
 2050SOL    HW2 6173   2.230   0.726   5.002
 2051SOL     OW 6174   3.136   0.386   4.986
 2051SOL    HW1 6175   3.157   0.460   5.050
 2051SOL    HW2 6176   3.047   0.403   4.943
 2052SOL     OW 6177   2.229   1.100   4.225
 2052SOL    HW1 6178   2.222   1.183   4.169
 2052SOL    HW2 6179   2.233   1.020   4.165
 2053SOL     OW 6180   2.428   0.537   4.589
 2053SOL    HW1 6181   2.440   0.603   4.515
 2053SOL    HW2 6182   2.474   0.571   4.672
 2054SOL     OW 6183   3.114   1.348   4.112
 2054SOL    HW1 6184   3.164   1.425   4.152
 2054SOL    HW2 6185   3.019   1.350   4.144
 2055SOL     OW 6186   3.134   1.445   4.866
 2055SOL    HW1 6187   3.181   1.458   4.953
 2055SOL    HW2 6188   3.068   1.371   4.875
 2056SOL     OW 6189   3.444   0.639   4.196
 2056SOL    HW1 6190   3.413   0.700   4.269
 2056SOL    HW2 6191   3.494   0.691   4.127
 2057SOL     OW 6192   2.216   1.510   5.053
 2057SOL    HW1 6193   2.195   1.466   4.966
 2057SOL    HW2 6194   2.313   1.536   5.056
 2058SOL     OW 6195   2.435   0.870   4.753
 2058SOL    HW1 6196   2.479   0.959   4.744
 2058SOL    HW2 6197   2.372   0.870   4.830
 2059SOL     OW 6198   3.222   0.862   4.769
 2059SOL    HW1 6199   3.147   0.862   4.703
 2059SOL    HW2 6200   3.259   0.770   4.778
 2060SOL     OW 6201   3.071   0.525   3.999
 2060SOL    HW1 6202   3.084   0.441   4.053
 2060SOL    HW2 6203   3.042   0.599   4.059
 2061SOL     OW 6204   2.169   0.213   4.955
 2061SOL    HW1 6205   2.146   0.250   5.045
 2061SOL    HW2 6206   2.139   0.118   4.949
 2062SOL     OW 6207   1.899   1.310   5.006
 2062SOL    HW1 6208   1.952   1.261   5.074
 2062SOL    HW2 6209   1.921   1.408   5.011
 2063SOL     OW 6210   2.594   0.634   4.788
 2063SOL    HW1 6211   2.653   0.608   4.712
 2063SOL    HW2 6212   2.566   0.730   4.777
 2064SOL     OW 6213   2.169   0.063   4.342
 2064SOL    HW1 6214   2.158   0.157   4.375
 2064SOL    HW2 6215   2.164   0.000   4.419
 2065SOL     OW 6216   3.484   0.367   4.098
 2065SOL    HW1 6217   3.486   0.291   4.162
 2065SOL    HW2 6218   3.436   0.444   4.138
 2066SOL     OW 6219   2.885   0.766   4.690
 2066SOL    HW1 6220   2.900   0.787   4.786
 2066SOL    HW2 6221   2.855   0.671   4.681
 2067SOL     OW 6222   3.402   0.274   3.849
 2067SOL    HW1 6223   3.341   0.199   3.872
 2067SOL    HW2 6224   3.424   0.326   3.932
 2068SOL     OW 6225   3.165   0.838   3.766
 2068SOL    HW1 6226   3.199   0.745   3.781
 2068SOL    HW2 6227   3.183   0.865   3.671
 2069SOL     OW 6228   2.930   1.333   4.573
 2069SOL    HW1 6229   2.937   1.249   4.518
 2069SOL    HW2 6230   2.992   1.402   4.537
 2070SOL     OW 6231   2.181   0.810   4.673
 2070SOL    HW1 6232   2.274   0.846   4.678
 2070SOL    HW2 6233   2.175   0.725   4.725
 2071SOL     OW 6234   2.201   0.509   4.730
 2071SOL    HW1 6235   2.149   0.426   4.713
 2071SOL    HW2 6236   2.278   0.514   4.666
 2072SOL     OW 6237   3.022   0.207   5.201
 2072SOL    HW1 6238   3.022   0.271   5.278
 2072SOL    HW2 6239   3.050   0.255   5.118
 2073SOL     OW 6240   1.870   1.326   3.924
 2073SOL    HW1 6241   1.777   1.347   3.893
 2073SOL    HW2 6242   1.880   1.227   3.937
 2074SOL     OW 6243   1.950   1.801   4.651
 2074SOL    HW1 6244   1.908   1.715   4.624
 2074SOL    HW2 6245   2.044   1.804   4.617
 2075SOL     OW 6246   2.366   1.568   4.634
 2075SOL    HW1 6247   2.432   1.642   4.643
 2075SOL    HW2 6248   2.410   1.489   4.592
 2076SOL     OW 6249   2.864   0.796   4.962
 2076SOL    HW1 6250   2.905   0.764   5.048
 2076SOL    HW2 6251   2.768   0.769   4.959
 2077SOL     OW 6252   1.902   0.544   4.838
 2077SOL    HW1 6253   1.987   0.511   4.797
 2077SOL    HW2 6254   1.915   0.559   4.936
 2078SOL     OW 6255   2.677   0.572   4.049
 2078SOL    HW1 6256   2.684   0.483   4.003
 2078SOL    HW2 6257   2.583   0.606   4.041
 2079SOL     OW 6258   3.519   0.604   4.930
 2079SOL    HW1 6259   3.481   0.535   4.992
 2079SOL    HW2 6260   3.601   0.568   4.886
 2080SOL     OW 6261   2.533   0.464   4.993
 2080SOL    HW1 6262   2.499   0.375   4.963
 2080SOL    HW2 6263   2.559   0.518   4.913
 2081SOL     OW 6264   2.792   1.678   5.189
 2081SOL    HW1 6265   2.768   1.660   5.094
 2081SOL    HW2 6266   2.822   1.772   5.199
 2082SOL     OW 6267   2.335   0.500   3.915
 2082SOL    HW1 6268   2.396   0.580   3.919
 2082SOL    HW2 6269   2.240   0.531   3.922
 2083SOL     OW 6270   3.209   1.059   4.958
 2083SOL    HW1 6271   3.233   0.996   4.884
 2083SOL    HW2 6272   3.119   1.099   4.940
 2084SOL     OW 6273   3.164   0.855   4.033
 2084SOL    HW1 6274   3.078   0.824   4.075
 2084SOL    HW2 6275   3.160   0.841   3.934
 2085SOL     OW 6276   3.621   1.747   4.878
 2085SOL    HW1 6277   3.682   1.777   4.805
 2085SOL    HW2 6278   3.583   1.658   4.856
 2086SOL     OW 6279   3.114   1.731   4.852
 2086SOL    HW1 6280   3.198   1.736   4.798
 2086SOL    HW2 6281   3.091   1.635   4.870
 2087SOL     OW 6282   1.945   1.258   4.746
 2087SOL    HW1 6283   1.940   1.257   4.846
 2087SOL    HW2 6284   1.862   1.217   4.708
 2088SOL     OW 6285   3.588   0.135   4.247
 2088SOL    HW1 6286   3.661   0.118   4.180
 2088SOL    HW2 6287   3.557   0.048   4.285
 2089SOL     OW 6288   3.250   1.573   4.201
 2089SOL    HW1 6289   3.317   1.585   4.127
 2089SOL    HW2 6290   3.210   1.662   4.224
 2090SOL     OW 6291   3.142   0.927   4.396
 2090SOL    HW1 6292   3.202   0.846   4.398
 2090SOL    HW2 6293   3.182   0.996   4.336
 2091SOL     OW 6294   2.534   1.616   3.878
 2091SOL    HW1 6295   2.543   1.626   3.779
 2091SOL    HW2 6296   2.494   1.527   3.899
 2092SOL     OW 6297   3.512   1.720   5.118
 2092SOL    HW1 6298   3.565   1.730   5.034
 2092SOL    HW2 6299   3.485   1.810   5.152
 2093SOL     OW 6300   3.703   0.175   4.687
 2093SOL    HW1 6301   3.742   0.090   4.651
 2093SOL    HW2 6302   3.605   0.177   4.668
 2094SOL     OW 6303   2.125   0.326   4.444
 2094SOL    HW1 6304   2.046   0.377   4.410
 2094SOL    HW2 6305   2.116   0.311   4.542
 2095SOL     OW 6306   3.056   1.612   3.755
 2095SOL    HW1 6307   3.062   1.519   3.792
 2095SOL    HW2 6308   2.997   1.612   3.675
 2096SOL     OW 6309   2.684   1.002   5.096
 2096SOL    HW1 6310   2.724   1.001   5.004
 2096SOL    HW2 6311   2.694   1.094   5.136
 2097SOL     OW 6312   2.778   0.910   4.015
 2097SOL    HW1 6313   2.841   0.948   3.947
 2097SOL    HW2 6314   2.818   0.827   4.054
 2098SOL     OW 6315   3.366   1.607   3.768
 2098SOL    HW1 6316   3.274   1.644   3.775
 2098SOL    HW2 6317   3.404   1.627   3.678
 2099SOL     OW 6318   2.901   1.098   4.420
 2099SOL    HW1 6319   2.831   1.051   4.474
 2099SOL    HW2 6320   2.960   1.030   4.377
 2100SOL     OW 6321   2.876   0.236   4.695
 2100SOL    HW1 6322   2.868   0.200   4.602
 2100SOL    HW2 6323   2.874   0.160   4.760
 2101SOL     OW 6324   2.452   1.487   4.215
 2101SOL    HW1 6325   2.494   1.429   4.145
 2101SOL    HW2 6326   2.408   1.566   4.171
 2102SOL     OW 6327   3.571   0.385   5.105
 2102SOL    HW1 6328   3.644   0.454   5.109
 2102SOL    HW2 6329   3.599   0.310   5.046
 2103SOL     OW 6330   2.117   1.348   4.014
 2103SOL    HW1 6331   2.021   1.349   3.987
 2103SOL    HW2 6332   2.129   1.401   4.098
 2104SOL     OW 6333   1.937   0.345   3.757
 2104SOL    HW1 6334   1.845   0.317   3.728
 2104SOL    HW2 6335   1.968   0.422   3.701
 2105SOL     OW 6336   1.934   0.166   4.042
 2105SOL    HW1 6337   1.917   0.249   3.988
 2105SOL    HW2 6338   2.024   0.129   4.020
 2106SOL     OW 6339   3.045   1.335   3.843
 2106SOL    HW1 6340   2.946   1.324   3.845
 2106SOL    HW2 6341   3.079   1.350   3.936
 2107SOL     OW 6342   3.355   1.767   4.683
 2107SOL    HW1 6343   3.388   1.831   4.614
 2107SOL    HW2 6344   3.421   1.761   4.758
 2108SOL     OW 6345   3.536   0.883   4.978
 2108SOL    HW1 6346   3.509   0.794   4.941
 2108SOL    HW2 6347   3.537   0.951   4.905
 2109SOL     OW 6348   3.087   0.325   4.173
 2109SOL    HW1 6349   3.152   0.251   4.162
 2109SOL    HW2 6350   3.107   0.375   4.257
 2110SOL     OW 6351   2.456   0.745   4.376
 2110SOL    HW1 6352   2.506   0.830   4.357
 2110SOL    HW2 6353   2.368   0.747   4.328
 2111SOL     OW 6354   3.592   0.934   5.241
 2111SOL    HW1 6355   3.630   1.025   5.256
 2111SOL    HW2 6356   3.584   0.917   5.142
 2112SOL     OW 6357   2.721   1.374   3.740
 2112SOL    HW1 6358   2.675   1.389   3.828
 2112SOL    HW2 6359   2.765   1.459   3.710
 2113SOL     OW 6360   2.523   1.790   4.677
 2113SOL    HW1 6361   2.477   1.878   4.664
 2113SOL    HW2 6362   2.622   1.802   4.670
 2114SOL     OW 6363   2.721   0.956   4.585
 2114SOL    HW1 6364   2.775   0.887   4.633
 2114SOL    HW2 6365   2.689   1.025   4.651
 2115SOL     OW 6366   2.945   0.984   3.811
 2115SOL    HW1 6367   2.922   1.037   3.729
 2115SOL    HW2 6368   3.026   0.928   3.792
 2116SOL     OW 6369   3.723   1.569   4.575
 2116SOL    HW1 6370   3.652   1.557   4.505
 2116SOL    HW2 6371   3.724   1.490   4.635
 2117SOL     OW 6372   1.941   1.240   4.377
 2117SOL    HW1 6373   1.940   1.193   4.465
 2117SOL    HW2 6374   2.023   1.212   4.326
 2118SOL     OW 6375   3.686   0.192   4.951
 2118SOL    HW1 6376   3.682   0.102   4.995
 2118SOL    HW2 6377   3.689   0.181   4.852
 2119SOL     OW 6378   2.290   0.424   4.244
 2119SOL    HW1 6379   2.320   0.352   4.182
 2119SOL    HW2 6380   2.251   0.384   4.327
 2120SOL     OW 6381   3.567   1.487   4.828
 2120SOL    HW1 6382   3.474   1.462   4.801
 2120SOL    HW2 6383   3.593   1.437   4.910
 2121SOL     OW 6384   2.674   1.586   4.411
 2121SOL    HW1 6385   2.706   1.596   4.317
 2121SOL    HW2 6386   2.595   1.524   4.413
 2122SOL     OW 6387   3.286   0.214   4.836
 2122SOL    HW1 6388   3.338   0.149   4.891
 2122SOL    HW2 6389   3.237   0.277   4.897
 2123SOL     OW 6390   2.863   0.034   4.878
 2123SOL    HW1 6391   2.800  -0.038   4.847
 2123SOL    HW2 6392   2.956  -0.002   4.878
 2124SOL     OW 6393   2.632   1.330   4.025
 2124SOL    HW1 6394   2.586   1.243   4.042
 2124SOL    HW2 6395   2.723   1.327   4.066
 2125SOL     OW 6396   3.214   0.052   3.892
 2125SOL    HW1 6397   3.249   0.011   3.808
 2125SOL    HW2 6398   3.124   0.014   3.912
 2126SOL     OW 6399   3.162   0.453   4.415
 2126SOL    HW1 6400   3.103   0.533   4.419
 2126SOL    HW2 6401   3.177   0.418   4.508
 2127SOL     OW 6402   3.455   0.221   4.606
 2127SOL    HW1 6403   3.371   0.220   4.660
 2127SOL    HW2 6404   3.457   0.304   4.550
 2128SOL     OW 6405   1.901   1.077   4.024
 2128SOL    HW1 6406   2.000   1.066   4.015
 2128SOL    HW2 6407   1.861   0.991   4.056
 2129SOL     OW 6408   2.737   1.646   4.061
 2129SOL    HW1 6409   2.660   1.611   4.007
 2129SOL    HW2 6410   2.705   1.717   4.123
 2130SOL     OW 6411   2.092   2.490   0.113
 2130SOL    HW1 6412   1.999   2.488   0.150
 2130SOL    HW2 6413   2.093   2.451   0.021
 2131SOL     OW 6414   2.087   2.137   0.996
 2131SOL    HW1 6415   2.122   2.120   1.088
 2131SOL    HW2 6416   1.999   2.092   0.984
 2132SOL     OW 6417   1.881   2.230   0.647
 2132SOL    HW1 6418   1.799   2.273   0.686
 2132SOL    HW2 6419   1.853   2.157   0.584
 2133SOL     OW 6420   2.431   3.137   1.165
 2133SOL    HW1 6421   2.338   3.130   1.128
 2133SOL    HW2 6422   2.442   3.226   1.209
 2134SOL     OW 6423   3.417   3.373   0.703
 2134SOL    HW1 6424   3.360   3.357   0.784
 2134SOL    HW2 6425   3.358   3.383   0.623
 2135SOL     OW 6426   2.997   2.565   0.717
 2135SOL    HW1 6427   3.054   2.643   0.692
 2135SOL    HW2 6428   2.937   2.591   0.793
 2136SOL     OW 6429   3.617   2.469   0.231
 2136SOL    HW1 6430   3.605   2.456   0.132
 2136SOL    HW2 6431   3.587   2.388   0.280
 2137SOL     OW 6432   2.630   3.006   1.023
 2137SOL    HW1 6433   2.552   3.023   1.083
 2137SOL    HW2 6434   2.664   3.093   0.987
 2138SOL     OW 6435   2.712   2.660   1.823
 2138SOL    HW1 6436   2.708   2.736   1.888
 2138SOL    HW2 6437   2.734   2.696   1.732
 2139SOL     OW 6438   2.547   2.874   0.665
 2139SOL    HW1 6439   2.616   2.858   0.735
 2139SOL    HW2 6440   2.474   2.931   0.703
 2140SOL     OW 6441   2.548   3.023   1.803
 2140SOL    HW1 6442   2.608   3.102   1.817
 2140SOL    HW2 6443   2.462   3.054   1.762
 2141SOL     OW 6444   2.197   3.297   1.061
 2141SOL    HW1 6445   2.119   3.266   1.008
 2141SOL    HW2 6446   2.255   3.355   1.004
 2142SOL     OW 6447   3.322   3.367   1.339
 2142SOL    HW1 6448   3.346   3.461   1.365
 2142SOL    HW2 6449   3.306   3.313   1.421
 2143SOL     OW 6450   2.300   2.254   1.499
 2143SOL    HW1 6451   2.382   2.198   1.508
 2143SOL    HW2 6452   2.219   2.196   1.503
 2144SOL     OW 6453   3.465   2.309   0.737
 2144SOL    HW1 6454   3.391   2.355   0.687
 2144SOL    HW2 6455   3.516   2.377   0.790
 2145SOL     OW 6456   2.093   3.575   0.483
 2145SOL    HW1 6457   2.127   3.652   0.537
 2145SOL    HW2 6458   2.137   3.575   0.393
 2146SOL     OW 6459   2.989   3.203   1.690
 2146SOL    HW1 6460   3.036   3.203   1.778
 2146SOL    HW2 6461   2.941   3.116   1.679
 2147SOL     OW 6462   2.092   3.296   0.538
 2147SOL    HW1 6463   2.066   3.392   0.538
 2147SOL    HW2 6464   2.021   3.242   0.583
 2148SOL     OW 6465   2.102   2.953   0.886
 2148SOL    HW1 6466   2.116   2.869   0.938
 2148SOL    HW2 6467   2.047   3.017   0.941
 2149SOL     OW 6468   2.482   3.648   1.439
 2149SOL    HW1 6469   2.390   3.631   1.474
 2149SOL    HW2 6470   2.510   3.740   1.465
 2150SOL     OW 6471   2.468   2.826   0.123
 2150SOL    HW1 6472   2.475   2.910   0.069
 2150SOL    HW2 6473   2.514   2.839   0.211
 2151SOL     OW 6474   3.456   1.976   1.480
 2151SOL    HW1 6475   3.438   2.043   1.408
 2151SOL    HW2 6476   3.453   2.022   1.569
 2152SOL     OW 6477   1.984   2.505   0.563
 2152SOL    HW1 6478   1.939   2.417   0.580
 2152SOL    HW2 6479   1.983   2.559   0.647
 2153SOL     OW 6480   3.704   3.629   0.359
 2153SOL    HW1 6481   3.758   3.600   0.439
 2153SOL    HW2 6482   3.734   3.719   0.330
 2154SOL     OW 6483   1.889   3.458   0.117
 2154SOL    HW1 6484   1.870   3.362   0.138
 2154SOL    HW2 6485   1.856   3.516   0.192
 2155SOL     OW 6486   3.551   2.784   0.612
 2155SOL    HW1 6487   3.646   2.755   0.620
 2155SOL    HW2 6488   3.543   2.849   0.537
 2156SOL     OW 6489   3.503   2.970   0.432
 2156SOL    HW1 6490   3.589   2.972   0.380
 2156SOL    HW2 6491   3.517   3.017   0.520
 2157SOL     OW 6492   1.975   2.599   1.597
 2157SOL    HW1 6493   2.063   2.586   1.642
 2157SOL    HW2 6494   1.962   2.696   1.575
 2158SOL     OW 6495   2.475   3.227   0.726
 2158SOL    HW1 6496   2.426   3.140   0.735
 2158SOL    HW2 6497   2.452   3.270   0.639
 2159SOL     OW 6498   3.155   3.090   1.423
 2159SOL    HW1 6499   3.192   3.017   1.365
 2159SOL    HW2 6500   3.207   3.095   1.508
 2160SOL     OW 6501   2.671   1.866   0.502
 2160SOL    HW1 6502   2.711   1.957   0.493
 2160SOL    HW2 6503   2.571   1.874   0.508
 2161SOL     OW 6504   2.059   2.838   1.264
 2161SOL    HW1 6505   2.148   2.793   1.250
 2161SOL    HW2 6506   1.986   2.773   1.245
 2162SOL     OW 6507   3.387   2.861   0.190
 2162SOL    HW1 6508   3.324   2.785   0.203
 2162SOL    HW2 6509   3.435   2.879   0.276
 2163SOL     OW 6510   3.049   3.654   1.616
 2163SOL    HW1 6511   3.073   3.714   1.540
 2163SOL    HW2 6512   3.056   3.559   1.586
 2164SOL     OW 6513   2.179   2.113   1.801
 2164SOL    HW1 6514   2.250   2.184   1.807
 2164SOL    HW2 6515   2.091   2.152   1.829
 2165SOL     OW 6516   3.328   3.279   0.953
 2165SOL    HW1 6517   3.269   3.285   1.033
 2165SOL    HW2 6518   3.313   3.191   0.907
 2166SOL     OW 6519   3.529   3.576   0.572
 2166SOL    HW1 6520   3.488   3.553   0.484
 2166SOL    HW2 6521   3.511   3.502   0.637
 2167SOL     OW 6522   2.460   2.591   0.270
 2167SOL    HW1 6523   2.484   2.660   0.202
 2167SOL    HW2 6524   2.382   2.624   0.324
 2168SOL     OW 6525   3.143   2.207   0.944
 2168SOL    HW1 6526   3.057   2.157   0.931
 2168SOL    HW2 6527   3.205   2.153   1.000
 2169SOL     OW 6528   3.438   3.524   0.307
 2169SOL    HW1 6529   3.527   3.570   0.310
 2169SOL    HW2 6530   3.417   3.500   0.212
 2170SOL     OW 6531   2.669   2.467   1.465
 2170SOL    HW1 6532   2.622   2.464   1.554
 2170SOL    HW2 6533   2.618   2.412   1.399
 2171SOL     OW 6534   3.256   2.331   1.674
 2171SOL    HW1 6535   3.236   2.374   1.762
 2171SOL    HW2 6536   3.334   2.269   1.683
 2172SOL     OW 6537   2.835   2.752   1.572
 2172SOL    HW1 6538   2.881   2.668   1.543
 2172SOL    HW2 6539   2.779   2.786   1.497
 2173SOL     OW 6540   2.853   2.272   1.242
 2173SOL    HW1 6541   2.776   2.306   1.296
 2173SOL    HW2 6542   2.819   2.221   1.163
 2174SOL     OW 6543   2.903   2.563   0.429
 2174SOL    HW1 6544   2.929   2.559   0.525
 2174SOL    HW2 6545   2.818   2.512   0.415
 2175SOL     OW 6546   1.938   2.673   0.789
 2175SOL    HW1 6547   2.037   2.661   0.798
 2175SOL    HW2 6548   1.914   2.768   0.810
 2176SOL     OW 6549   1.992   3.683   1.571
 2176SOL    HW1 6550   1.982   3.668   1.670
 2176SOL    HW2 6551   1.906   3.719   1.535
 2177SOL     OW 6552   2.727   2.210   0.195
 2177SOL    HW1 6553   2.786   2.273   0.146
 2177SOL    HW2 6554   2.746   2.116   0.166
 2178SOL     OW 6555   3.581   2.447   1.831
 2178SOL    HW1 6556   3.555   2.536   1.795
 2178SOL    HW2 6557   3.579   2.379   1.758
 2179SOL     OW 6558   3.224   3.006   0.545
 2179SOL    HW1 6559   3.307   2.977   0.497
 2179SOL    HW2 6560   3.175   3.073   0.489
 2180SOL     OW 6561   2.412   2.058   0.885
 2180SOL    HW1 6562   2.407   2.053   0.985
 2180SOL    HW2 6563   2.414   2.154   0.856
 2181SOL     OW 6564   2.870   3.318   0.477
 2181SOL    HW1 6565   2.824   3.390   0.425
 2181SOL    HW2 6566   2.866   3.338   0.575
 2182SOL     OW 6567   2.213   3.663   0.853
 2182SOL    HW1 6568   2.263   3.577   0.859
 2182SOL    HW2 6569   2.278   3.740   0.850
 2183SOL     OW 6570   3.657   2.928   0.873
 2183SOL    HW1 6571   3.595   2.913   0.797
 2183SOL    HW2 6572   3.605   2.939   0.958
 2184SOL     OW 6573   3.089   3.412   1.506
 2184SOL    HW1 6574   3.095   3.335   1.570
 2184SOL    HW2 6575   3.037   3.386   1.426
 2185SOL     OW 6576   2.183   2.805   0.242
 2185SOL    HW1 6577   2.265   2.844   0.200
 2185SOL    HW2 6578   2.156   2.723   0.193
 2186SOL     OW 6579   3.320   2.597   0.728
 2186SOL    HW1 6580   3.315   2.532   0.803
 2186SOL    HW2 6581   3.400   2.656   0.741
 2187SOL     OW 6582   2.323   3.128   1.727
 2187SOL    HW1 6583   2.273   3.129   1.641
 2187SOL    HW2 6584   2.260   3.110   1.803
 2188SOL     OW 6585   2.973   3.638   0.237
 2188SOL    HW1 6586   2.913   3.576   0.287
 2188SOL    HW2 6587   3.004   3.594   0.152
 2189SOL     OW 6588   2.064   2.147   1.498
 2189SOL    HW1 6589   1.984   2.207   1.485
 2189SOL    HW2 6590   2.054   2.098   1.584
 2190SOL     OW 6591   3.494   3.239   0.081
 2190SOL    HW1 6592   3.462   3.333   0.071
 2190SOL    HW2 6593   3.418   3.176   0.069
 2191SOL     OW 6594   2.326   3.605   0.323
 2191SOL    HW1 6595   2.359   3.644   0.409
 2191SOL    HW2 6596   2.402   3.598   0.258
 2192SOL     OW 6597   3.262   1.969   0.426
 2192SOL    HW1 6598   3.238   1.932   0.336
 2192SOL    HW2 6599   3.361   1.985   0.430
 2193SOL     OW 6600   2.111   3.647   1.241
 2193SOL    HW1 6601   2.168   3.582   1.291
 2193SOL    HW2 6602   2.095   3.614   1.148
 2194SOL     OW 6603   2.802   3.560   0.904
 2194SOL    HW1 6604   2.882   3.503   0.925
 2194SOL    HW2 6605   2.753   3.520   0.827
 2195SOL     OW 6606   2.244   2.562   0.480
 2195SOL    HW1 6607   2.289   2.472   0.477
 2195SOL    HW2 6608   2.150   2.551   0.513
 2196SOL     OW 6609   3.409   2.084   1.729
 2196SOL    HW1 6610   3.404   2.121   1.821
 2196SOL    HW2 6611   3.337   2.015   1.717
 2197SOL     OW 6612   2.476   1.984   0.117
 2197SOL    HW1 6613   2.574   1.962   0.124
 2197SOL    HW2 6614   2.445   1.967   0.024
 2198SOL     OW 6615   2.643   2.126   1.749
 2198SOL    HW1 6616   2.710   2.065   1.792
 2198SOL    HW2 6617   2.570   2.145   1.814
 2199SOL     OW 6618   2.750   3.376   1.195
 2199SOL    HW1 6619   2.727   3.351   1.101
 2199SOL    HW2 6620   2.811   3.307   1.234
 2200SOL     OW 6621   3.213   2.452   1.433
 2200SOL    HW1 6622   3.241   2.409   1.518
 2200SOL    HW2 6623   3.238   2.548   1.434
 2201SOL     OW 6624   2.665   3.264   0.924
 2201SOL    HW1 6625   2.755   3.278   0.882
 2201SOL    HW2 6626   2.594   3.266   0.853
 2202SOL     OW 6627   2.784   2.365   0.899
 2202SOL    HW1 6628   2.759   2.356   0.803
 2202SOL    HW2 6629   2.832   2.283   0.930
 2203SOL     OW 6630   2.401   1.926   0.512
 2203SOL    HW1 6631   2.320   1.927   0.570
 2203SOL    HW2 6632   2.404   2.009   0.457
 2204SOL     OW 6633   3.296   3.050   0.041
 2204SOL    HW1 6634   3.328   2.974   0.098
 2204SOL    HW2 6635   3.204   3.077   0.071
 2205SOL     OW 6636   2.159   1.897   0.171
 2205SOL    HW1 6637   2.208   1.981   0.150
 2205SOL    HW2 6638   2.221   1.832   0.216
 2206SOL     OW 6639   2.797   2.098   0.480
 2206SOL    HW1 6640   2.749   2.139   0.402
 2206SOL    HW2 6641   2.896   2.096   0.461
 2207SOL     OW 6642   2.938   2.545   1.464
 2207SOL    HW1 6643   2.858   2.484   1.467
 2207SOL    HW2 6644   3.019   2.492   1.440
 2208SOL     OW 6645   3.089   3.432   0.793
 2208SOL    HW1 6646   3.110   3.506   0.728
 2208SOL    HW2 6647   3.157   3.432   0.866
 2209SOL     OW 6648   2.321   3.014   0.741
 2209SOL    HW1 6649   2.250   2.987   0.806
 2209SOL    HW2 6650   2.295   2.986   0.648
 2210SOL     OW 6651   3.133   3.659   0.591
 2210SOL    HW1 6652   3.177   3.723   0.527
 2210SOL    HW2 6653   3.083   3.711   0.661
 2211SOL     OW 6654   2.894   2.411   0.016
 2211SOL    HW1 6655   2.853   2.493  -0.023
 2211SOL    HW2 6656   2.958   2.437   0.089
 2212SOL     OW 6657   1.940   2.418   1.386
 2212SOL    HW1 6658   2.032   2.417   1.345
 2212SOL    HW2 6659   1.934   2.492   1.453
 2213SOL     OW 6660   2.423   2.084   1.147
 2213SOL    HW1 6661   2.461   2.000   1.184
 2213SOL    HW2 6662   2.335   2.103   1.191
 2214SOL     OW 6663   2.728   2.316   0.642
 2214SOL    HW1 6664   2.696   2.388   0.580
 2214SOL    HW2 6665   2.752   2.235   0.589
 2215SOL     OW 6666   2.879   1.901   0.753
 2215SOL    HW1 6667   2.807   1.906   0.684
 2215SOL    HW2 6668   2.855   1.832   0.822
 2216SOL     OW 6669   3.291   3.035   0.867
 2216SOL    HW1 6670   3.236   2.951   0.860
 2216SOL    HW2 6671   3.317   3.064   0.775
 2217SOL     OW 6672   3.328   2.452   0.992
 2217SOL    HW1 6673   3.298   2.357   0.999
 2217SOL    HW2 6674   3.401   2.468   1.058
 2218SOL     OW 6675   3.719   2.695   0.377
 2218SOL    HW1 6676   3.761   2.631   0.441
 2218SOL    HW2 6677   3.681   2.644   0.299
 2219SOL     OW 6678   2.350   3.247   0.174
 2219SOL    HW1 6679   2.263   3.232   0.221
 2219SOL    HW2 6680   2.333   3.273   0.079
 2220SOL     OW 6681   3.526   3.142   0.657
 2220SOL    HW1 6682   3.625   3.150   0.671
 2220SOL    HW2 6683   3.481   3.226   0.688
 2221SOL     OW 6684   3.252   2.437   0.078
 2221SOL    HW1 6685   3.198   2.416   0.159
 2221SOL    HW2 6686   3.343   2.396   0.087
 2222SOL     OW 6687   2.389   2.118   0.328
 2222SOL    HW1 6688   2.416   2.059   0.253
 2222SOL    HW2 6689   2.389   2.213   0.297
 2223SOL     OW 6690   3.616   3.085   1.588
 2223SOL    HW1 6691   3.707   3.046   1.575
 2223SOL    HW2 6692   3.624   3.181   1.612
 2224SOL     OW 6693   2.926   3.209   1.340
 2224SOL    HW1 6694   2.846   3.186   1.395
 2224SOL    HW2 6695   3.009   3.183   1.389
 2225SOL     OW 6696   3.454   3.491   1.625
 2225SOL    HW1 6697   3.481   3.525   1.535
 2225SOL    HW2 6698   3.533   3.453   1.671
 2226SOL     OW 6699   2.973   3.057   1.100
 2226SOL    HW1 6700   2.933   3.101   1.181
 2226SOL    HW2 6701   2.932   3.094   1.017
 2227SOL     OW 6702   3.500   2.961   1.079
 2227SOL    HW1 6703   3.505   3.042   1.138
 2227SOL    HW2 6704   3.414   2.963   1.028
 2228SOL     OW 6705   2.777   1.951   1.402
 2228SOL    HW1 6706   2.802   1.931   1.307
 2228SOL    HW2 6707   2.849   2.007   1.444
 2229SOL     OW 6708   2.842   2.978   1.719
 2229SOL    HW1 6709   2.743   2.984   1.729
 2229SOL    HW2 6710   2.865   2.898   1.663
 2230SOL     OW 6711   2.567   2.912   0.368
 2230SOL    HW1 6712   2.553   2.919   0.467
 2230SOL    HW2 6713   2.651   2.861   0.350
 2231SOL     OW 6714   2.272   2.675   1.251
 2231SOL    HW1 6715   2.358   2.687   1.301
 2231SOL    HW2 6716   2.230   2.588   1.278
 2232SOL     OW 6717   3.136   2.248   1.262
 2232SOL    HW1 6718   3.157   2.322   1.326
 2232SOL    HW2 6719   3.047   2.265   1.219
 2233SOL     OW 6720   1.926   3.426   1.331
 2233SOL    HW1 6721   1.880   3.508   1.297
 2233SOL    HW2 6722   2.024   3.445   1.340
 2234SOL     OW 6723   2.229   2.962   0.501
 2234SOL    HW1 6724   2.222   3.045   0.445
 2234SOL    HW2 6725   2.233   2.882   0.441
 2235SOL     OW 6726   2.428   2.399   0.865
 2235SOL    HW1 6727   2.440   2.465   0.791
 2235SOL    HW2 6728   2.474   2.433   0.948
 2236SOL     OW 6729   3.114   3.210   0.388
 2236SOL    HW1 6730   3.164   3.287   0.428
 2236SOL    HW2 6731   3.019   3.212   0.420
 2237SOL     OW 6732   3.134   3.307   1.142
 2237SOL    HW1 6733   3.181   3.320   1.229
 2237SOL    HW2 6734   3.068   3.233   1.151
 2238SOL     OW 6735   3.444   2.501   0.472
 2238SOL    HW1 6736   3.413   2.562   0.545
 2238SOL    HW2 6737   3.494   2.553   0.403
 2239SOL     OW 6738   2.216   3.372   1.329
 2239SOL    HW1 6739   2.195   3.328   1.242
 2239SOL    HW2 6740   2.313   3.398   1.332
 2240SOL     OW 6741   2.264   2.613   1.598
 2240SOL    HW1 6742   2.332   2.668   1.551
 2240SOL    HW2 6743   2.304   2.525   1.625
 2241SOL     OW 6744   3.449   2.641   1.670
 2241SOL    HW1 6745   3.357   2.679   1.665
 2241SOL    HW2 6746   3.509   2.688   1.605
 2242SOL     OW 6747   2.875   1.967   1.770
 2242SOL    HW1 6748   2.881   2.052   1.718
 2242SOL    HW2 6749   2.907   1.891   1.713
 2243SOL     OW 6750   2.366   1.912   1.740
 2243SOL    HW1 6751   2.324   1.855   1.670
 2243SOL    HW2 6752   2.300   1.981   1.772
 2244SOL     OW 6753   2.435   2.732   1.029
 2244SOL    HW1 6754   2.479   2.821   1.020
 2244SOL    HW2 6755   2.372   2.732   1.106
 2245SOL     OW 6756   3.222   2.724   1.045
 2245SOL    HW1 6757   3.147   2.724   0.979
 2245SOL    HW2 6758   3.259   2.632   1.054
 2246SOL     OW 6759   3.071   2.387   0.275
 2246SOL    HW1 6760   3.084   2.303   0.329
 2246SOL    HW2 6761   3.042   2.461   0.335
 2247SOL     OW 6762   2.169   2.075   1.231
 2247SOL    HW1 6763   2.146   2.112   1.321
 2247SOL    HW2 6764   2.139   1.980   1.225
 2248SOL     OW 6765   1.899   3.172   1.282
 2248SOL    HW1 6766   1.952   3.123   1.350
 2248SOL    HW2 6767   1.921   3.270   1.287
 2249SOL     OW 6768   2.594   2.496   1.064
 2249SOL    HW1 6769   2.653   2.470   0.988
 2249SOL    HW2 6770   2.566   2.592   1.053
 2250SOL     OW 6771   3.590   2.797   1.854
 2250SOL    HW1 6772   3.544   2.790   1.765
 2250SOL    HW2 6773   3.528   2.841   1.920
 2251SOL     OW 6774   2.169   1.925   0.618
 2251SOL    HW1 6775   2.158   2.019   0.651
 2251SOL    HW2 6776   2.164   1.862   0.695
 2252SOL     OW 6777   3.484   2.229   0.374
 2252SOL    HW1 6778   3.486   2.153   0.438
 2252SOL    HW2 6779   3.436   2.306   0.414
 2253SOL     OW 6780   2.885   2.628   0.966
 2253SOL    HW1 6781   2.900   2.649   1.062
 2253SOL    HW2 6782   2.855   2.533   0.957
 2254SOL     OW 6783   2.842   3.435   1.700
 2254SOL    HW1 6784   2.822   3.479   1.612
 2254SOL    HW2 6785   2.881   3.344   1.684
 2255SOL     OW 6786   3.721   3.380   1.605
 2255SOL    HW1 6787   3.735   3.407   1.510
 2255SOL    HW2 6788   3.804   3.402   1.658
 2256SOL     OW 6789   2.212   2.760   1.804
 2256SOL    HW1 6790   2.288   2.804   1.852
 2256SOL    HW2 6791   2.247   2.713   1.722
 2257SOL     OW 6792   3.402   2.136   0.125
 2257SOL    HW1 6793   3.341   2.061   0.148
 2257SOL    HW2 6794   3.424   2.188   0.208
 2258SOL     OW 6795   3.165   2.700   0.042
 2258SOL    HW1 6796   3.199   2.607   0.057
 2258SOL    HW2 6797   3.183   2.727  -0.053
 2259SOL     OW 6798   2.930   3.195   0.849
 2259SOL    HW1 6799   2.937   3.111   0.794
 2259SOL    HW2 6800   2.992   3.264   0.813
 2260SOL     OW 6801   2.181   2.672   0.949
 2260SOL    HW1 6802   2.274   2.708   0.954
 2260SOL    HW2 6803   2.175   2.587   1.001
 2261SOL     OW 6804   2.201   2.371   1.006
 2261SOL    HW1 6805   2.149   2.288   0.989
 2261SOL    HW2 6806   2.278   2.376   0.942
 2262SOL     OW 6807   3.000   2.242   1.678
 2262SOL    HW1 6808   2.955   2.305   1.742
 2262SOL    HW2 6809   3.093   2.273   1.661
 2263SOL     OW 6810   3.022   2.069   1.477
 2263SOL    HW1 6811   3.022   2.133   1.554
 2263SOL    HW2 6812   3.050   2.117   1.394
 2264SOL     OW 6813   1.950   3.663   0.927
 2264SOL    HW1 6814   1.908   3.577   0.900
 2264SOL    HW2 6815   2.044   3.666   0.893
 2265SOL     OW 6816   2.366   3.430   0.910
 2265SOL    HW1 6817   2.432   3.504   0.919
 2265SOL    HW2 6818   2.410   3.351   0.868
 2266SOL     OW 6819   2.864   2.658   1.238
 2266SOL    HW1 6820   2.905   2.626   1.324
 2266SOL    HW2 6821   2.768   2.631   1.235
 2267SOL     OW 6822   1.902   2.406   1.114
 2267SOL    HW1 6823   1.987   2.373   1.073
 2267SOL    HW2 6824   1.915   2.421   1.212
 2268SOL     OW 6825   2.051   2.382   1.722
 2268SOL    HW1 6826   2.110   2.342   1.652
 2268SOL    HW2 6827   1.993   2.453   1.681
 2269SOL     OW 6828   3.231   2.812   1.660
 2269SOL    HW1 6829   3.270   2.901   1.680
 2269SOL    HW2 6830   3.241   2.792   1.563
 2270SOL     OW 6831   2.677   2.434   0.325
 2270SOL    HW1 6832   2.684   2.345   0.279
 2270SOL    HW2 6833   2.583   2.468   0.317
 2271SOL     OW 6834   3.519   2.466   1.206
 2271SOL    HW1 6835   3.481   2.397   1.268
 2271SOL    HW2 6836   3.601   2.430   1.162
 2272SOL     OW 6837   2.114   3.426   1.744
 2272SOL    HW1 6838   2.084   3.483   1.820
 2272SOL    HW2 6839   2.107   3.329   1.770
 2273SOL     OW 6840   2.533   2.326   1.269
 2273SOL    HW1 6841   2.499   2.237   1.239
 2273SOL    HW2 6842   2.559   2.380   1.189
 2274SOL     OW 6843   2.792   3.540   1.465
 2274SOL    HW1 6844   2.768   3.522   1.370
 2274SOL    HW2 6845   2.822   3.634   1.475
 2275SOL     OW 6846   2.335   2.362   0.191
 2275SOL    HW1 6847   2.396   2.442   0.195
 2275SOL    HW2 6848   2.240   2.393   0.198
 2276SOL     OW 6849   2.021   2.999   1.466
 2276SOL    HW1 6850   2.043   2.938   1.542
 2276SOL    HW2 6851   2.031   2.950   1.380
 2277SOL     OW 6852   3.209   2.921   1.234
 2277SOL    HW1 6853   3.233   2.858   1.160
 2277SOL    HW2 6854   3.119   2.961   1.216
 2278SOL     OW 6855   3.164   2.717   0.309
 2278SOL    HW1 6856   3.078   2.686   0.351
 2278SOL    HW2 6857   3.160   2.703   0.210
 2279SOL     OW 6858   3.621   3.609   1.154
 2279SOL    HW1 6859   3.682   3.639   1.081
 2279SOL    HW2 6860   3.583   3.520   1.132
 2280SOL     OW 6861   3.114   3.593   1.128
 2280SOL    HW1 6862   3.198   3.598   1.074
 2280SOL    HW2 6863   3.091   3.497   1.146
 2281SOL     OW 6864   1.945   3.120   1.022
 2281SOL    HW1 6865   1.940   3.119   1.122
 2281SOL    HW2 6866   1.862   3.079   0.984
 2282SOL     OW 6867   2.550   3.524   1.716
 2282SOL    HW1 6868   2.494   3.605   1.725
 2282SOL    HW2 6869   2.602   3.528   1.630
 2283SOL     OW 6870   2.765   1.948   0.133
 2283SOL    HW1 6871   2.816   1.949   0.047
 2283SOL    HW2 6872   2.821   1.906   0.204
 2284SOL     OW 6873   3.588   1.997   0.523
 2284SOL    HW1 6874   3.661   1.980   0.456
 2284SOL    HW2 6875   3.557   1.910   0.561
 2285SOL     OW 6876   3.250   3.435   0.477
 2285SOL    HW1 6877   3.317   3.447   0.403
 2285SOL    HW2 6878   3.210   3.524   0.500
 2286SOL     OW 6879   1.992   3.656   1.851
 2286SOL    HW1 6880   1.951   3.582   1.904
 2286SOL    HW2 6881   2.056   3.707   1.909
 2287SOL     OW 6882   3.142   2.789   0.672
 2287SOL    HW1 6883   3.202   2.708   0.674
 2287SOL    HW2 6884   3.182   2.858   0.612
 2288SOL     OW 6885   2.692   3.135   1.422
 2288SOL    HW1 6886   2.687   3.168   1.517
 2288SOL    HW2 6887   2.606   3.154   1.376
 2289SOL     OW 6888   2.534   3.478   0.154
 2289SOL    HW1 6889   2.543   3.488   0.055
 2289SOL    HW2 6890   2.494   3.389   0.175
 2290SOL     OW 6891   3.512   3.582   1.394
 2290SOL    HW1 6892   3.565   3.592   1.310
 2290SOL    HW2 6893   3.485   3.672   1.428
 2291SOL     OW 6894   3.703   2.037   0.963
 2291SOL    HW1 6895   3.742   1.952   0.927
 2291SOL    HW2 6896   3.605   2.039   0.944
 2292SOL     OW 6897   2.125   2.188   0.720
 2292SOL    HW1 6898   2.046   2.239   0.686
 2292SOL    HW2 6899   2.116   2.173   0.818
 2293SOL     OW 6900   3.056   3.474   0.031
 2293SOL    HW1 6901   3.062   3.381   0.068
 2293SOL    HW2 6902   2.997   3.474  -0.049
 2294SOL     OW 6903   2.684   2.864   1.372
 2294SOL    HW1 6904   2.724   2.863   1.280
 2294SOL    HW2 6905   2.694   2.956   1.412
 2295SOL     OW 6906   2.778   2.772   0.291
 2295SOL    HW1 6907   2.841   2.810   0.223
 2295SOL    HW2 6908   2.818   2.689   0.330
 2296SOL     OW 6909   3.366   3.469   0.044
 2296SOL    HW1 6910   3.274   3.506   0.051
 2296SOL    HW2 6911   3.404   3.489  -0.046
 2297SOL     OW 6912   2.234   3.150   1.490
 2297SOL    HW1 6913   2.221   3.243   1.456
 2297SOL    HW2 6914   2.150   3.098   1.477
 2298SOL     OW 6915   3.476   3.154   1.289
 2298SOL    HW1 6916   3.536   3.157   1.369
 2298SOL    HW2 6917   3.401   3.218   1.302
 2299SOL     OW 6918   2.901   2.960   0.696
 2299SOL    HW1 6919   2.831   2.913   0.750
 2299SOL    HW2 6920   2.960   2.892   0.653
 2300SOL     OW 6921   2.876   2.098   0.971
 2300SOL    HW1 6922   2.868   2.062   0.878
 2300SOL    HW2 6923   2.874   2.022   1.036
 2301SOL     OW 6924   2.452   3.349   0.491
 2301SOL    HW1 6925   2.494   3.291   0.421
 2301SOL    HW2 6926   2.408   3.428   0.447
 2302SOL     OW 6927   3.571   2.247   1.381
 2302SOL    HW1 6928   3.644   2.316   1.385
 2302SOL    HW2 6929   3.599   2.172   1.322
 2303SOL     OW 6930   2.117   3.210   0.290
 2303SOL    HW1 6931   2.021   3.211   0.263
 2303SOL    HW2 6932   2.129   3.263   0.374
 2304SOL     OW 6933   1.967   2.875   1.726
 2304SOL    HW1 6934   1.890   2.842   1.780
 2304SOL    HW2 6935   2.052   2.845   1.768
 2305SOL     OW 6936   2.534   2.065   1.489
 2305SOL    HW1 6937   2.624   2.049   1.449
 2305SOL    HW2 6938   2.542   2.070   1.588
 2306SOL     OW 6939   3.302   2.718   1.398
 2306SOL    HW1 6940   3.245   2.770   1.335
 2306SOL    HW2 6941   3.398   2.730   1.374
 2307SOL     OW 6942   1.934   2.028   0.318
 2307SOL    HW1 6943   1.917   2.111   0.264
 2307SOL    HW2 6944   2.024   1.991   0.296
 2308SOL     OW 6945   3.045   3.197   0.119
 2308SOL    HW1 6946   2.946   3.186   0.121
 2308SOL    HW2 6947   3.079   3.212   0.212
 2309SOL     OW 6948   2.475   2.704   1.431
 2309SOL    HW1 6949   2.531   2.785   1.414
 2309SOL    HW2 6950   2.534   2.624   1.434
 2310SOL     OW 6951   3.355   3.629   0.959
 2310SOL    HW1 6952   3.388   3.693   0.890
 2310SOL    HW2 6953   3.421   3.623   1.034
 2311SOL     OW 6954   2.578   2.427   1.708
 2311SOL    HW1 6955   2.597   2.492   1.782
 2311SOL    HW2 6956   2.638   2.347   1.717
 2312SOL     OW 6957   3.312   3.082   1.633
 2312SOL    HW1 6958   3.303   3.072   1.732
 2312SOL    HW2 6959   3.408   3.075   1.607
 2313SOL     OW 6960   2.252   3.603   1.560
 2313SOL    HW1 6961   2.161   3.644   1.558
 2313SOL    HW2 6962   2.245   3.509   1.592
 2314SOL     OW 6963   3.536   2.745   1.254
 2314SOL    HW1 6964   3.509   2.656   1.217
 2314SOL    HW2 6965   3.537   2.813   1.181
 2315SOL     OW 6966   3.087   2.187   0.449
 2315SOL    HW1 6967   3.152   2.113   0.438
 2315SOL    HW2 6968   3.107   2.237   0.533
 2316SOL     OW 6969   2.456   2.607   0.652
 2316SOL    HW1 6970   2.506   2.692   0.633
 2316SOL    HW2 6971   2.368   2.609   0.604
 2317SOL     OW 6972   3.639   2.204   1.642
 2317SOL    HW1 6973   3.622   2.235   1.548
 2317SOL    HW2 6974   3.555   2.167   1.680
 2318SOL     OW 6975   3.592   2.796   1.517
 2318SOL    HW1 6976   3.630   2.887   1.532
 2318SOL    HW2 6977   3.584   2.779   1.418
 2319SOL     OW 6978   2.721   3.236   0.016
 2319SOL    HW1 6979   2.675   3.251   0.104
 2319SOL    HW2 6980   2.765   3.321  -0.014
 2320SOL     OW 6981   2.523   3.652   0.953
 2320SOL    HW1 6982   2.477   3.740   0.940
 2320SOL    HW2 6983   2.622   3.664   0.946
 2321SOL     OW 6984   2.721   2.818   0.861
 2321SOL    HW1 6985   2.775   2.749   0.909
 2321SOL    HW2 6986   2.689   2.887   0.927
 2322SOL     OW 6987   2.945   2.846   0.087
 2322SOL    HW1 6988   2.922   2.899   0.005
 2322SOL    HW2 6989   3.026   2.790   0.068
 2323SOL     OW 6990   3.723   3.431   0.851
 2323SOL    HW1 6991   3.652   3.419   0.781
 2323SOL    HW2 6992   3.724   3.352   0.911
 2324SOL     OW 6993   2.083   3.176   1.844
 2324SOL    HW1 6994   2.018   3.103   1.823
 2324SOL    HW2 6995   2.087   3.190   1.942
 2325SOL     OW 6996   1.941   3.102   0.653
 2325SOL    HW1 6997   1.940   3.055   0.741
 2325SOL    HW2 6998   2.023   3.074   0.602
 2326SOL     OW 6999   2.534   3.253   1.624
 2326SOL    HW1 7000   2.456   3.203   1.662
 2326SOL    HW2 7001   2.531   3.348   1.655
 2327SOL     OW 7002   3.686   2.054   1.227
 2327SOL    HW1 7003   3.682   1.964   1.271
 2327SOL    HW2 7004   3.689   2.043   1.128
 2328SOL     OW 7005   2.290   2.286   0.520
 2328SOL    HW1 7006   2.320   2.214   0.458
 2328SOL    HW2 7007   2.251   2.246   0.603
 2329SOL     OW 7008   3.567   3.349   1.104
 2329SOL    HW1 7009   3.474   3.324   1.077
 2329SOL    HW2 7010   3.593   3.299   1.186
 2330SOL     OW 7011   2.179   2.409   1.280
 2330SOL    HW1 7012   2.217   2.350   1.352
 2330SOL    HW2 7013   2.219   2.383   1.192
 2331SOL     OW 7014   2.674   3.448   0.687
 2331SOL    HW1 7015   2.706   3.458   0.593
 2331SOL    HW2 7016   2.595   3.386   0.689
 2332SOL     OW 7017   3.286   2.076   1.112
 2332SOL    HW1 7018   3.338   2.011   1.167
 2332SOL    HW2 7019   3.237   2.139   1.173
 2333SOL     OW 7020   2.863   1.896   1.154
 2333SOL    HW1 7021   2.800   1.824   1.123
 2333SOL    HW2 7022   2.956   1.860   1.154
 2334SOL     OW 7023   2.632   3.192   0.301
 2334SOL    HW1 7024   2.586   3.105   0.318
 2334SOL    HW2 7025   2.723   3.189   0.342
 2335SOL     OW 7026   2.480   3.429   1.284
 2335SOL    HW1 7027   2.475   3.511   1.341
 2335SOL    HW2 7028   2.569   3.426   1.239
 2336SOL     OW 7029   3.214   1.914   0.168
 2336SOL    HW1 7030   3.249   1.873   0.084
 2336SOL    HW2 7031   3.124   1.876   0.188
 2337SOL     OW 7032   3.162   2.315   0.691
 2337SOL    HW1 7033   3.103   2.395   0.695
 2337SOL    HW2 7034   3.177   2.280   0.784
 2338SOL     OW 7035   3.455   2.083   0.882
 2338SOL    HW1 7036   3.371   2.082   0.936
 2338SOL    HW2 7037   3.457   2.166   0.826
 2339SOL     OW 7038   1.901   2.939   0.300
 2339SOL    HW1 7039   2.000   2.928   0.291
 2339SOL    HW2 7040   1.861   2.853   0.332
 2340SOL     OW 7041   2.737   3.508   0.337
 2340SOL    HW1 7042   2.660   3.473   0.283
 2340SOL    HW2 7043   2.705   3.579   0.399
 2341SOL     OW 7044   2.092   2.490   1.975
 2341SOL    HW1 7045   1.999   2.488   2.012
 2341SOL    HW2 7046   2.093   2.451   1.883
 2342SOL     OW 7047   2.087   2.137   2.858
 2342SOL    HW1 7048   2.122   2.120   2.950
 2342SOL    HW2 7049   1.999   2.092   2.846
 2343SOL     OW 7050   1.881   2.230   2.509
 2343SOL    HW1 7051   1.799   2.273   2.548
 2343SOL    HW2 7052   1.853   2.157   2.446
 2344SOL     OW 7053   2.431   3.137   3.027
 2344SOL    HW1 7054   2.338   3.130   2.990
 2344SOL    HW2 7055   2.442   3.226   3.071
 2345SOL     OW 7056   3.417   3.373   2.565
 2345SOL    HW1 7057   3.360   3.357   2.646
 2345SOL    HW2 7058   3.358   3.383   2.485
 2346SOL     OW 7059   2.997   2.565   2.579
 2346SOL    HW1 7060   3.054   2.643   2.554
 2346SOL    HW2 7061   2.937   2.591   2.655
 2347SOL     OW 7062   3.617   2.469   2.093
 2347SOL    HW1 7063   3.605   2.456   1.994
 2347SOL    HW2 7064   3.587   2.388   2.142
 2348SOL     OW 7065   2.630   3.006   2.885
 2348SOL    HW1 7066   2.552   3.023   2.945
 2348SOL    HW2 7067   2.664   3.093   2.849
 2349SOL     OW 7068   2.712   2.660   3.685
 2349SOL    HW1 7069   2.708   2.736   3.750
 2349SOL    HW2 7070   2.734   2.696   3.594
 2350SOL     OW 7071   2.548   3.023   3.665
 2350SOL    HW1 7072   2.608   3.102   3.679
 2350SOL    HW2 7073   2.462   3.054   3.624
 2351SOL     OW 7074   2.197   3.297   2.923
 2351SOL    HW1 7075   2.119   3.266   2.870
 2351SOL    HW2 7076   2.255   3.355   2.866
 2352SOL     OW 7077   3.322   3.367   3.201
 2352SOL    HW1 7078   3.346   3.461   3.227
 2352SOL    HW2 7079   3.306   3.313   3.283
 2353SOL     OW 7080   2.300   2.254   3.361
 2353SOL    HW1 7081   2.382   2.198   3.370
 2353SOL    HW2 7082   2.219   2.196   3.365
 2354SOL     OW 7083   3.465   2.309   2.599
 2354SOL    HW1 7084   3.391   2.355   2.549
 2354SOL    HW2 7085   3.516   2.377   2.652
 2355SOL     OW 7086   2.093   3.575   2.345
 2355SOL    HW1 7087   2.127   3.652   2.399
 2355SOL    HW2 7088   2.137   3.575   2.255
 2356SOL     OW 7089   2.989   3.203   3.552
 2356SOL    HW1 7090   3.036   3.203   3.640
 2356SOL    HW2 7091   2.941   3.116   3.541
 2357SOL     OW 7092   2.092   3.296   2.400
 2357SOL    HW1 7093   2.066   3.392   2.400
 2357SOL    HW2 7094   2.021   3.242   2.445
 2358SOL     OW 7095   2.102   2.953   2.748
 2358SOL    HW1 7096   2.116   2.869   2.800
 2358SOL    HW2 7097   2.047   3.017   2.803
 2359SOL     OW 7098   2.482   3.648   3.301
 2359SOL    HW1 7099   2.390   3.631   3.336
 2359SOL    HW2 7100   2.510   3.740   3.327
 2360SOL     OW 7101   2.468   2.826   1.985
 2360SOL    HW1 7102   2.475   2.910   1.931
 2360SOL    HW2 7103   2.514   2.839   2.073
 2361SOL     OW 7104   3.456   1.976   3.342
 2361SOL    HW1 7105   3.438   2.043   3.270
 2361SOL    HW2 7106   3.453   2.022   3.431
 2362SOL     OW 7107   1.984   2.505   2.425
 2362SOL    HW1 7108   1.939   2.417   2.442
 2362SOL    HW2 7109   1.983   2.559   2.509
 2363SOL     OW 7110   3.704   3.629   2.221
 2363SOL    HW1 7111   3.758   3.600   2.301
 2363SOL    HW2 7112   3.734   3.719   2.192
 2364SOL     OW 7113   1.889   3.458   1.979
 2364SOL    HW1 7114   1.870   3.362   2.000
 2364SOL    HW2 7115   1.856   3.516   2.054
 2365SOL     OW 7116   3.551   2.784   2.474
 2365SOL    HW1 7117   3.646   2.755   2.482
 2365SOL    HW2 7118   3.543   2.849   2.399
 2366SOL     OW 7119   3.503   2.970   2.294
 2366SOL    HW1 7120   3.589   2.972   2.242
 2366SOL    HW2 7121   3.517   3.017   2.382
 2367SOL     OW 7122   1.975   2.599   3.459
 2367SOL    HW1 7123   2.063   2.586   3.504
 2367SOL    HW2 7124   1.962   2.696   3.437
 2368SOL     OW 7125   2.475   3.227   2.588
 2368SOL    HW1 7126   2.426   3.140   2.597
 2368SOL    HW2 7127   2.452   3.270   2.501
 2369SOL     OW 7128   3.155   3.090   3.285
 2369SOL    HW1 7129   3.192   3.017   3.227
 2369SOL    HW2 7130   3.207   3.095   3.370
 2370SOL     OW 7131   2.671   1.866   2.364
 2370SOL    HW1 7132   2.711   1.957   2.355
 2370SOL    HW2 7133   2.571   1.874   2.370
 2371SOL     OW 7134   2.059   2.838   3.126
 2371SOL    HW1 7135   2.148   2.793   3.112
 2371SOL    HW2 7136   1.986   2.773   3.107
 2372SOL     OW 7137   3.387   2.861   2.052
 2372SOL    HW1 7138   3.324   2.785   2.065
 2372SOL    HW2 7139   3.435   2.879   2.138
 2373SOL     OW 7140   3.049   3.654   3.478
 2373SOL    HW1 7141   3.073   3.714   3.402
 2373SOL    HW2 7142   3.056   3.559   3.448
 2374SOL     OW 7143   2.179   2.113   3.663
 2374SOL    HW1 7144   2.250   2.184   3.669
 2374SOL    HW2 7145   2.091   2.152   3.691
 2375SOL     OW 7146   3.328   3.279   2.815
 2375SOL    HW1 7147   3.269   3.285   2.895
 2375SOL    HW2 7148   3.313   3.191   2.769
 2376SOL     OW 7149   3.529   3.576   2.434
 2376SOL    HW1 7150   3.488   3.553   2.346
 2376SOL    HW2 7151   3.511   3.502   2.499
 2377SOL     OW 7152   2.460   2.591   2.132
 2377SOL    HW1 7153   2.484   2.660   2.064
 2377SOL    HW2 7154   2.382   2.624   2.186
 2378SOL     OW 7155   3.143   2.207   2.806
 2378SOL    HW1 7156   3.057   2.157   2.793
 2378SOL    HW2 7157   3.205   2.153   2.862
 2379SOL     OW 7158   3.438   3.524   2.169
 2379SOL    HW1 7159   3.527   3.570   2.172
 2379SOL    HW2 7160   3.417   3.500   2.074
 2380SOL     OW 7161   2.669   2.467   3.327
 2380SOL    HW1 7162   2.622   2.464   3.416
 2380SOL    HW2 7163   2.618   2.412   3.261
 2381SOL     OW 7164   3.256   2.331   3.536
 2381SOL    HW1 7165   3.236   2.374   3.624
 2381SOL    HW2 7166   3.334   2.269   3.545
 2382SOL     OW 7167   2.835   2.752   3.434
 2382SOL    HW1 7168   2.881   2.668   3.405
 2382SOL    HW2 7169   2.779   2.786   3.359
 2383SOL     OW 7170   2.853   2.272   3.104
 2383SOL    HW1 7171   2.776   2.306   3.158
 2383SOL    HW2 7172   2.819   2.221   3.025
 2384SOL     OW 7173   2.903   2.563   2.291
 2384SOL    HW1 7174   2.929   2.559   2.387
 2384SOL    HW2 7175   2.818   2.512   2.277
 2385SOL     OW 7176   1.938   2.673   2.651
 2385SOL    HW1 7177   2.037   2.661   2.660
 2385SOL    HW2 7178   1.914   2.768   2.672
 2386SOL     OW 7179   1.992   3.683   3.433
 2386SOL    HW1 7180   1.982   3.668   3.532
 2386SOL    HW2 7181   1.906   3.719   3.397
 2387SOL     OW 7182   2.727   2.210   2.057
 2387SOL    HW1 7183   2.786   2.273   2.008
 2387SOL    HW2 7184   2.746   2.116   2.028
 2388SOL     OW 7185   3.581   2.447   3.693
 2388SOL    HW1 7186   3.555   2.536   3.657
 2388SOL    HW2 7187   3.579   2.379   3.620
 2389SOL     OW 7188   3.224   3.006   2.407
 2389SOL    HW1 7189   3.307   2.977   2.359
 2389SOL    HW2 7190   3.175   3.073   2.351
 2390SOL     OW 7191   2.412   2.058   2.747
 2390SOL    HW1 7192   2.407   2.053   2.847
 2390SOL    HW2 7193   2.414   2.154   2.718
 2391SOL     OW 7194   2.870   3.318   2.339
 2391SOL    HW1 7195   2.824   3.390   2.287
 2391SOL    HW2 7196   2.866   3.338   2.437
 2392SOL     OW 7197   2.213   3.663   2.715
 2392SOL    HW1 7198   2.263   3.577   2.721
 2392SOL    HW2 7199   2.278   3.740   2.712
 2393SOL     OW 7200   3.657   2.928   2.735
 2393SOL    HW1 7201   3.595   2.913   2.659
 2393SOL    HW2 7202   3.605   2.939   2.820
 2394SOL     OW 7203   3.089   3.412   3.368
 2394SOL    HW1 7204   3.095   3.335   3.432
 2394SOL    HW2 7205   3.037   3.386   3.288
 2395SOL     OW 7206   2.183   2.805   2.104
 2395SOL    HW1 7207   2.265   2.844   2.062
 2395SOL    HW2 7208   2.156   2.723   2.055
 2396SOL     OW 7209   3.320   2.597   2.590
 2396SOL    HW1 7210   3.315   2.532   2.665
 2396SOL    HW2 7211   3.400   2.656   2.603
 2397SOL     OW 7212   2.323   3.128   3.589
 2397SOL    HW1 7213   2.273   3.129   3.503
 2397SOL    HW2 7214   2.260   3.110   3.665
 2398SOL     OW 7215   2.973   3.638   2.099
 2398SOL    HW1 7216   2.913   3.576   2.149
 2398SOL    HW2 7217   3.004   3.594   2.014
 2399SOL     OW 7218   2.064   2.147   3.360
 2399SOL    HW1 7219   1.984   2.207   3.347
 2399SOL    HW2 7220   2.054   2.098   3.446
 2400SOL     OW 7221   3.494   3.239   1.943
 2400SOL    HW1 7222   3.462   3.333   1.933
 2400SOL    HW2 7223   3.418   3.176   1.931
 2401SOL     OW 7224   2.326   3.605   2.185
 2401SOL    HW1 7225   2.359   3.644   2.271
 2401SOL    HW2 7226   2.402   3.598   2.120
 2402SOL     OW 7227   3.262   1.969   2.288
 2402SOL    HW1 7228   3.238   1.932   2.198
 2402SOL    HW2 7229   3.361   1.985   2.292
 2403SOL     OW 7230   2.111   3.647   3.103
 2403SOL    HW1 7231   2.168   3.582   3.153
 2403SOL    HW2 7232   2.095   3.614   3.010
 2404SOL     OW 7233   2.802   3.560   2.766
 2404SOL    HW1 7234   2.882   3.503   2.787
 2404SOL    HW2 7235   2.753   3.520   2.689
 2405SOL     OW 7236   3.409   2.084   3.591
 2405SOL    HW1 7237   3.404   2.121   3.683
 2405SOL    HW2 7238   3.337   2.015   3.579
 2406SOL     OW 7239   2.476   1.984   1.979
 2406SOL    HW1 7240   2.574   1.962   1.986
 2406SOL    HW2 7241   2.445   1.967   1.886
 2407SOL     OW 7242   2.643   2.126   3.611
 2407SOL    HW1 7243   2.710   2.065   3.654
 2407SOL    HW2 7244   2.570   2.145   3.676
 2408SOL     OW 7245   2.750   3.376   3.057
 2408SOL    HW1 7246   2.727   3.351   2.963
 2408SOL    HW2 7247   2.811   3.307   3.096
 2409SOL     OW 7248   3.213   2.452   3.295
 2409SOL    HW1 7249   3.241   2.409   3.380
 2409SOL    HW2 7250   3.238   2.548   3.296
 2410SOL     OW 7251   2.665   3.264   2.786
 2410SOL    HW1 7252   2.755   3.278   2.744
 2410SOL    HW2 7253   2.594   3.266   2.715
 2411SOL     OW 7254   2.401   1.926   2.374
 2411SOL    HW1 7255   2.320   1.927   2.432
 2411SOL    HW2 7256   2.404   2.009   2.319
 2412SOL     OW 7257   3.296   3.050   1.903
 2412SOL    HW1 7258   3.328   2.974   1.960
 2412SOL    HW2 7259   3.204   3.077   1.933
 2413SOL     OW 7260   2.159   1.897   2.033
 2413SOL    HW1 7261   2.208   1.981   2.012
 2413SOL    HW2 7262   2.221   1.832   2.078
 2414SOL     OW 7263   2.797   2.098   2.342
 2414SOL    HW1 7264   2.749   2.139   2.264
 2414SOL    HW2 7265   2.896   2.096   2.323
 2415SOL     OW 7266   2.938   2.545   3.326
 2415SOL    HW1 7267   2.858   2.484   3.329
 2415SOL    HW2 7268   3.019   2.492   3.302
 2416SOL     OW 7269   3.089   3.432   2.655
 2416SOL    HW1 7270   3.110   3.506   2.590
 2416SOL    HW2 7271   3.157   3.432   2.728
 2417SOL     OW 7272   2.321   3.014   2.603
 2417SOL    HW1 7273   2.250   2.987   2.668
 2417SOL    HW2 7274   2.295   2.986   2.510
 2418SOL     OW 7275   3.133   3.659   2.453
 2418SOL    HW1 7276   3.177   3.723   2.389
 2418SOL    HW2 7277   3.083   3.711   2.523
 2419SOL     OW 7278   2.894   2.411   1.878
 2419SOL    HW1 7279   2.853   2.493   1.839
 2419SOL    HW2 7280   2.958   2.437   1.951
 2420SOL     OW 7281   1.940   2.418   3.248
 2420SOL    HW1 7282   2.032   2.417   3.207
 2420SOL    HW2 7283   1.934   2.492   3.315
 2421SOL     OW 7284   2.423   2.084   3.009
 2421SOL    HW1 7285   2.461   2.000   3.046
 2421SOL    HW2 7286   2.335   2.103   3.053
 2422SOL     OW 7287   2.879   1.901   2.615
 2422SOL    HW1 7288   2.807   1.906   2.546
 2422SOL    HW2 7289   2.855   1.832   2.684
 2423SOL     OW 7290   3.291   3.035   2.729
 2423SOL    HW1 7291   3.236   2.951   2.722
 2423SOL    HW2 7292   3.317   3.064   2.637
 2424SOL     OW 7293   3.328   2.452   2.854
 2424SOL    HW1 7294   3.298   2.357   2.861
 2424SOL    HW2 7295   3.401   2.468   2.920
 2425SOL     OW 7296   3.719   2.695   2.239
 2425SOL    HW1 7297   3.761   2.631   2.303
 2425SOL    HW2 7298   3.681   2.644   2.161
 2426SOL     OW 7299   2.350   3.247   2.036
 2426SOL    HW1 7300   2.263   3.232   2.083
 2426SOL    HW2 7301   2.333   3.273   1.941
 2427SOL     OW 7302   3.526   3.142   2.519
 2427SOL    HW1 7303   3.625   3.150   2.533
 2427SOL    HW2 7304   3.481   3.226   2.550
 2428SOL     OW 7305   3.252   2.437   1.940
 2428SOL    HW1 7306   3.198   2.416   2.021
 2428SOL    HW2 7307   3.343   2.396   1.949
 2429SOL     OW 7308   2.389   2.118   2.190
 2429SOL    HW1 7309   2.416   2.059   2.115
 2429SOL    HW2 7310   2.389   2.213   2.159
 2430SOL     OW 7311   3.616   3.085   3.450
 2430SOL    HW1 7312   3.707   3.046   3.437
 2430SOL    HW2 7313   3.624   3.181   3.474
 2431SOL     OW 7314   2.926   3.209   3.202
 2431SOL    HW1 7315   2.846   3.186   3.257
 2431SOL    HW2 7316   3.009   3.183   3.251
 2432SOL     OW 7317   3.454   3.491   3.487
 2432SOL    HW1 7318   3.481   3.525   3.397
 2432SOL    HW2 7319   3.533   3.453   3.533
 2433SOL     OW 7320   2.973   3.057   2.962
 2433SOL    HW1 7321   2.933   3.101   3.043
 2433SOL    HW2 7322   2.932   3.094   2.879
 2434SOL     OW 7323   3.500   2.961   2.941
 2434SOL    HW1 7324   3.505   3.042   3.000
 2434SOL    HW2 7325   3.414   2.963   2.890
 2435SOL     OW 7326   2.777   1.951   3.264
 2435SOL    HW1 7327   2.802   1.931   3.169
 2435SOL    HW2 7328   2.849   2.007   3.306
 2436SOL     OW 7329   2.842   2.978   3.581
 2436SOL    HW1 7330   2.743   2.984   3.591
 2436SOL    HW2 7331   2.865   2.898   3.525
 2437SOL     OW 7332   2.567   2.912   2.230
 2437SOL    HW1 7333   2.553   2.919   2.329
 2437SOL    HW2 7334   2.651   2.861   2.212
 2438SOL     OW 7335   2.272   2.675   3.113
 2438SOL    HW1 7336   2.358   2.687   3.163
 2438SOL    HW2 7337   2.230   2.588   3.140
 2439SOL     OW 7338   3.136   2.248   3.124
 2439SOL    HW1 7339   3.157   2.322   3.188
 2439SOL    HW2 7340   3.047   2.265   3.081
 2440SOL     OW 7341   1.926   3.426   3.193
 2440SOL    HW1 7342   1.880   3.508   3.159
 2440SOL    HW2 7343   2.024   3.445   3.202
 2441SOL     OW 7344   2.229   2.962   2.363
 2441SOL    HW1 7345   2.222   3.045   2.307
 2441SOL    HW2 7346   2.233   2.882   2.303
 2442SOL     OW 7347   3.114   3.210   2.250
 2442SOL    HW1 7348   3.164   3.287   2.290
 2442SOL    HW2 7349   3.019   3.212   2.282
 2443SOL     OW 7350   3.134   3.307   3.004
 2443SOL    HW1 7351   3.181   3.320   3.091
 2443SOL    HW2 7352   3.068   3.233   3.013
 2444SOL     OW 7353   3.444   2.501   2.334
 2444SOL    HW1 7354   3.413   2.562   2.407
 2444SOL    HW2 7355   3.494   2.553   2.265
 2445SOL     OW 7356   2.216   3.372   3.191
 2445SOL    HW1 7357   2.195   3.328   3.104
 2445SOL    HW2 7358   2.313   3.398   3.194
 2446SOL     OW 7359   2.264   2.613   3.460
 2446SOL    HW1 7360   2.332   2.668   3.413
 2446SOL    HW2 7361   2.304   2.525   3.487
 2447SOL     OW 7362   3.449   2.641   3.532
 2447SOL    HW1 7363   3.357   2.679   3.527
 2447SOL    HW2 7364   3.509   2.688   3.467
 2448SOL     OW 7365   2.875   1.967   3.632
 2448SOL    HW1 7366   2.881   2.052   3.580
 2448SOL    HW2 7367   2.907   1.891   3.575
 2449SOL     OW 7368   2.366   1.912   3.602
 2449SOL    HW1 7369   2.324   1.855   3.532
 2449SOL    HW2 7370   2.300   1.981   3.634
 2450SOL     OW 7371   2.435   2.732   2.891
 2450SOL    HW1 7372   2.479   2.821   2.882
 2450SOL    HW2 7373   2.372   2.732   2.968
 2451SOL     OW 7374   3.222   2.724   2.907
 2451SOL    HW1 7375   3.147   2.724   2.841
 2451SOL    HW2 7376   3.259   2.632   2.916
 2452SOL     OW 7377   3.071   2.387   2.137
 2452SOL    HW1 7378   3.084   2.303   2.191
 2452SOL    HW2 7379   3.042   2.461   2.197
 2453SOL     OW 7380   2.169   2.075   3.093
 2453SOL    HW1 7381   2.146   2.112   3.183
 2453SOL    HW2 7382   2.139   1.980   3.087
 2454SOL     OW 7383   1.899   3.172   3.144
 2454SOL    HW1 7384   1.952   3.123   3.212
 2454SOL    HW2 7385   1.921   3.270   3.149
 2455SOL     OW 7386   2.594   2.496   2.926
 2455SOL    HW1 7387   2.653   2.470   2.850
 2455SOL    HW2 7388   2.566   2.592   2.915
 2456SOL     OW 7389   3.590   2.797   3.716
 2456SOL    HW1 7390   3.544   2.790   3.627
 2456SOL    HW2 7391   3.528   2.841   3.782
 2457SOL     OW 7392   2.169   1.925   2.480
 2457SOL    HW1 7393   2.158   2.019   2.513
 2457SOL    HW2 7394   2.164   1.862   2.557
 2458SOL     OW 7395   3.484   2.229   2.236
 2458SOL    HW1 7396   3.486   2.153   2.300
 2458SOL    HW2 7397   3.436   2.306   2.276
 2459SOL     OW 7398   2.842   3.435   3.562
 2459SOL    HW1 7399   2.822   3.479   3.474
 2459SOL    HW2 7400   2.881   3.344   3.546
 2460SOL     OW 7401   3.721   3.380   3.467
 2460SOL    HW1 7402   3.735   3.407   3.372
 2460SOL    HW2 7403   3.804   3.402   3.520
 2461SOL     OW 7404   2.212   2.760   3.666
 2461SOL    HW1 7405   2.288   2.804   3.714
 2461SOL    HW2 7406   2.247   2.713   3.584
 2462SOL     OW 7407   3.402   2.136   1.987
 2462SOL    HW1 7408   3.341   2.061   2.010
 2462SOL    HW2 7409   3.424   2.188   2.070
 2463SOL     OW 7410   3.165   2.700   1.904
 2463SOL    HW1 7411   3.199   2.607   1.919
 2463SOL    HW2 7412   3.183   2.727   1.809
 2464SOL     OW 7413   2.930   3.195   2.711
 2464SOL    HW1 7414   2.937   3.111   2.656
 2464SOL    HW2 7415   2.992   3.264   2.675
 2465SOL     OW 7416   2.181   2.672   2.811
 2465SOL    HW1 7417   2.274   2.708   2.816
 2465SOL    HW2 7418   2.175   2.587   2.863
 2466SOL     OW 7419   2.201   2.371   2.868
 2466SOL    HW1 7420   2.149   2.288   2.851
 2466SOL    HW2 7421   2.278   2.376   2.804
 2467SOL     OW 7422   3.000   2.242   3.540
 2467SOL    HW1 7423   2.955   2.305   3.604
 2467SOL    HW2 7424   3.093   2.273   3.523
 2468SOL     OW 7425   3.022   2.069   3.339
 2468SOL    HW1 7426   3.022   2.133   3.416
 2468SOL    HW2 7427   3.050   2.117   3.256
 2469SOL     OW 7428   1.870   3.188   2.062
 2469SOL    HW1 7429   1.777   3.209   2.031
 2469SOL    HW2 7430   1.880   3.089   2.075
 2470SOL     OW 7431   1.950   3.663   2.789
 2470SOL    HW1 7432   1.908   3.577   2.762
 2470SOL    HW2 7433   2.044   3.666   2.755
 2471SOL     OW 7434   2.366   3.430   2.772
 2471SOL    HW1 7435   2.432   3.504   2.781
 2471SOL    HW2 7436   2.410   3.351   2.730
 2472SOL     OW 7437   2.864   2.658   3.100
 2472SOL    HW1 7438   2.905   2.626   3.186
 2472SOL    HW2 7439   2.768   2.631   3.097
 2473SOL     OW 7440   1.902   2.406   2.976
 2473SOL    HW1 7441   1.987   2.373   2.935
 2473SOL    HW2 7442   1.915   2.421   3.074
 2474SOL     OW 7443   2.051   2.382   3.584
 2474SOL    HW1 7444   2.110   2.342   3.514
 2474SOL    HW2 7445   1.993   2.453   3.543
 2475SOL     OW 7446   3.231   2.812   3.522
 2475SOL    HW1 7447   3.270   2.901   3.542
 2475SOL    HW2 7448   3.241   2.792   3.425
 2476SOL     OW 7449   2.677   2.434   2.187
 2476SOL    HW1 7450   2.684   2.345   2.141
 2476SOL    HW2 7451   2.583   2.468   2.179
 2477SOL     OW 7452   3.519   2.466   3.068
 2477SOL    HW1 7453   3.481   2.397   3.130
 2477SOL    HW2 7454   3.601   2.430   3.024
 2478SOL     OW 7455   2.114   3.426   3.606
 2478SOL    HW1 7456   2.084   3.483   3.682
 2478SOL    HW2 7457   2.107   3.329   3.632
 2479SOL     OW 7458   2.533   2.326   3.131
 2479SOL    HW1 7459   2.499   2.237   3.101
 2479SOL    HW2 7460   2.559   2.380   3.051
 2480SOL     OW 7461   2.792   3.540   3.327
 2480SOL    HW1 7462   2.768   3.522   3.232
 2480SOL    HW2 7463   2.822   3.634   3.337
 2481SOL     OW 7464   2.021   2.999   3.328
 2481SOL    HW1 7465   2.043   2.938   3.404
 2481SOL    HW2 7466   2.031   2.950   3.242
 2482SOL     OW 7467   3.209   2.921   3.096
 2482SOL    HW1 7468   3.233   2.858   3.022
 2482SOL    HW2 7469   3.119   2.961   3.078
 2483SOL     OW 7470   3.164   2.717   2.171
 2483SOL    HW1 7471   3.078   2.686   2.213
 2483SOL    HW2 7472   3.160   2.703   2.072
 2484SOL     OW 7473   3.621   3.609   3.016
 2484SOL    HW1 7474   3.682   3.639   2.943
 2484SOL    HW2 7475   3.583   3.520   2.994
 2485SOL     OW 7476   3.114   3.593   2.990
 2485SOL    HW1 7477   3.198   3.598   2.936
 2485SOL    HW2 7478   3.091   3.497   3.008
 2486SOL     OW 7479   1.945   3.120   2.884
 2486SOL    HW1 7480   1.940   3.119   2.984
 2486SOL    HW2 7481   1.862   3.079   2.846
 2487SOL     OW 7482   2.550   3.524   3.578
 2487SOL    HW1 7483   2.494   3.605   3.587
 2487SOL    HW2 7484   2.602   3.528   3.492
 2488SOL     OW 7485   3.588   1.997   2.385
 2488SOL    HW1 7486   3.661   1.980   2.318
 2488SOL    HW2 7487   3.557   1.910   2.423
 2489SOL     OW 7488   3.250   3.435   2.339
 2489SOL    HW1 7489   3.317   3.447   2.265
 2489SOL    HW2 7490   3.210   3.524   2.362
 2490SOL     OW 7491   1.992   3.656   3.713
 2490SOL    HW1 7492   1.951   3.582   3.766
 2490SOL    HW2 7493   2.056   3.707   3.771
 2491SOL     OW 7494   3.142   2.789   2.534
 2491SOL    HW1 7495   3.202   2.708   2.536
 2491SOL    HW2 7496   3.182   2.858   2.474
 2492SOL     OW 7497   2.692   3.135   3.284
 2492SOL    HW1 7498   2.687   3.168   3.379
 2492SOL    HW2 7499   2.606   3.154   3.238
 2493SOL     OW 7500   2.534   3.478   2.016
 2493SOL    HW1 7501   2.543   3.488   1.917
 2493SOL    HW2 7502   2.494   3.389   2.037
 2494SOL     OW 7503   3.512   3.582   3.256
 2494SOL    HW1 7504   3.565   3.592   3.172
 2494SOL    HW2 7505   3.485   3.672   3.290
 2495SOL     OW 7506   3.703   2.037   2.825
 2495SOL    HW1 7507   3.742   1.952   2.789
 2495SOL    HW2 7508   3.605   2.039   2.806
 2496SOL     OW 7509   2.125   2.188   2.582
 2496SOL    HW1 7510   2.046   2.239   2.548
 2496SOL    HW2 7511   2.116   2.173   2.680
 2497SOL     OW 7512   3.056   3.474   1.893
 2497SOL    HW1 7513   3.062   3.381   1.930
 2497SOL    HW2 7514   2.997   3.474   1.813
 2498SOL     OW 7515   2.684   2.864   3.234
 2498SOL    HW1 7516   2.724   2.863   3.142
 2498SOL    HW2 7517   2.694   2.956   3.274
 2499SOL     OW 7518   2.778   2.772   2.153
 2499SOL    HW1 7519   2.841   2.810   2.085
 2499SOL    HW2 7520   2.818   2.689   2.192
 2500SOL     OW 7521   3.366   3.469   1.906
 2500SOL    HW1 7522   3.274   3.506   1.913
 2500SOL    HW2 7523   3.404   3.489   1.816
 2501SOL     OW 7524   2.234   3.150   3.352
 2501SOL    HW1 7525   2.221   3.243   3.318
 2501SOL    HW2 7526   2.150   3.098   3.339
 2502SOL     OW 7527   3.476   3.154   3.151
 2502SOL    HW1 7528   3.536   3.157   3.231
 2502SOL    HW2 7529   3.401   3.218   3.164
 2503SOL     OW 7530   2.901   2.960   2.558
 2503SOL    HW1 7531   2.831   2.913   2.612
 2503SOL    HW2 7532   2.960   2.892   2.515
 2504SOL     OW 7533   2.876   2.098   2.833
 2504SOL    HW1 7534   2.868   2.062   2.740
 2504SOL    HW2 7535   2.874   2.022   2.898
 2505SOL     OW 7536   2.452   3.349   2.353
 2505SOL    HW1 7537   2.494   3.291   2.283
 2505SOL    HW2 7538   2.408   3.428   2.309
 2506SOL     OW 7539   3.571   2.247   3.243
 2506SOL    HW1 7540   3.644   2.316   3.247
 2506SOL    HW2 7541   3.599   2.172   3.184
 2507SOL     OW 7542   2.117   3.210   2.152
 2507SOL    HW1 7543   2.021   3.211   2.125
 2507SOL    HW2 7544   2.129   3.263   2.236
 2508SOL     OW 7545   1.967   2.875   3.588
 2508SOL    HW1 7546   1.890   2.842   3.642
 2508SOL    HW2 7547   2.052   2.845   3.630
 2509SOL     OW 7548   2.534   2.065   3.351
 2509SOL    HW1 7549   2.624   2.049   3.311
 2509SOL    HW2 7550   2.542   2.070   3.450
 2510SOL     OW 7551   1.937   2.207   1.895
 2510SOL    HW1 7552   1.845   2.179   1.866
 2510SOL    HW2 7553   1.968   2.284   1.839
 2511SOL     OW 7554   3.302   2.718   3.260
 2511SOL    HW1 7555   3.245   2.770   3.197
 2511SOL    HW2 7556   3.398   2.730   3.236
 2512SOL     OW 7557   1.934   2.028   2.180
 2512SOL    HW1 7558   1.917   2.111   2.126
 2512SOL    HW2 7559   2.024   1.991   2.158
 2513SOL     OW 7560   3.045   3.197   1.981
 2513SOL    HW1 7561   2.946   3.186   1.983
 2513SOL    HW2 7562   3.079   3.212   2.074
 2514SOL     OW 7563   2.475   2.704   3.293
 2514SOL    HW1 7564   2.531   2.785   3.276
 2514SOL    HW2 7565   2.534   2.624   3.296
 2515SOL     OW 7566   3.355   3.629   2.821
 2515SOL    HW1 7567   3.388   3.693   2.752
 2515SOL    HW2 7568   3.421   3.623   2.896
 2516SOL     OW 7569   2.578   2.427   3.570
 2516SOL    HW1 7570   2.597   2.492   3.644
 2516SOL    HW2 7571   2.638   2.347   3.579
 2517SOL     OW 7572   3.312   3.082   3.495
 2517SOL    HW1 7573   3.303   3.072   3.594
 2517SOL    HW2 7574   3.408   3.075   3.469
 2518SOL     OW 7575   2.252   3.603   3.422
 2518SOL    HW1 7576   2.161   3.644   3.420
 2518SOL    HW2 7577   2.245   3.509   3.454
 2519SOL     OW 7578   3.536   2.745   3.116
 2519SOL    HW1 7579   3.509   2.656   3.079
 2519SOL    HW2 7580   3.537   2.813   3.043
 2520SOL     OW 7581   3.087   2.187   2.311
 2520SOL    HW1 7582   3.152   2.113   2.300
 2520SOL    HW2 7583   3.107   2.237   2.395
 2521SOL     OW 7584   3.639   2.204   3.504
 2521SOL    HW1 7585   3.622   2.235   3.410
 2521SOL    HW2 7586   3.555   2.167   3.542
 2522SOL     OW 7587   3.592   2.796   3.379
 2522SOL    HW1 7588   3.630   2.887   3.394
 2522SOL    HW2 7589   3.584   2.779   3.280
 2523SOL     OW 7590   2.721   3.236   1.878
 2523SOL    HW1 7591   2.675   3.251   1.966
 2523SOL    HW2 7592   2.765   3.321   1.848
 2524SOL     OW 7593   2.523   3.652   2.815
 2524SOL    HW1 7594   2.477   3.740   2.802
 2524SOL    HW2 7595   2.622   3.664   2.808
 2525SOL     OW 7596   2.945   2.846   1.949
 2525SOL    HW1 7597   2.922   2.899   1.867
 2525SOL    HW2 7598   3.026   2.790   1.930
 2526SOL     OW 7599   3.723   3.431   2.713
 2526SOL    HW1 7600   3.652   3.419   2.643
 2526SOL    HW2 7601   3.724   3.352   2.773
 2527SOL     OW 7602   2.083   3.176   3.706
 2527SOL    HW1 7603   2.018   3.103   3.685
 2527SOL    HW2 7604   2.087   3.190   3.804
 2528SOL     OW 7605   1.941   3.102   2.515
 2528SOL    HW1 7606   1.940   3.055   2.603
 2528SOL    HW2 7607   2.023   3.074   2.464
 2529SOL     OW 7608   2.534   3.253   3.486
 2529SOL    HW1 7609   2.456   3.203   3.524
 2529SOL    HW2 7610   2.531   3.348   3.517
 2530SOL     OW 7611   3.686   2.054   3.089
 2530SOL    HW1 7612   3.682   1.964   3.133
 2530SOL    HW2 7613   3.689   2.043   2.990
 2531SOL     OW 7614   3.567   3.349   2.966
 2531SOL    HW1 7615   3.474   3.324   2.939
 2531SOL    HW2 7616   3.593   3.299   3.048
 2532SOL     OW 7617   2.179   2.409   3.142
 2532SOL    HW1 7618   2.217   2.350   3.214
 2532SOL    HW2 7619   2.219   2.383   3.054
 2533SOL     OW 7620   2.674   3.448   2.549
 2533SOL    HW1 7621   2.706   3.458   2.455
 2533SOL    HW2 7622   2.595   3.386   2.551
 2534SOL     OW 7623   3.286   2.076   2.974
 2534SOL    HW1 7624   3.338   2.011   3.029
 2534SOL    HW2 7625   3.237   2.139   3.035
 2535SOL     OW 7626   2.863   1.896   3.016
 2535SOL    HW1 7627   2.800   1.824   2.985
 2535SOL    HW2 7628   2.956   1.860   3.016
 2536SOL     OW 7629   2.632   3.192   2.163
 2536SOL    HW1 7630   2.586   3.105   2.180
 2536SOL    HW2 7631   2.723   3.189   2.204
 2537SOL     OW 7632   2.480   3.429   3.146
 2537SOL    HW1 7633   2.475   3.511   3.203
 2537SOL    HW2 7634   2.569   3.426   3.101
 2538SOL     OW 7635   3.214   1.914   2.030
 2538SOL    HW1 7636   3.249   1.873   1.946
 2538SOL    HW2 7637   3.124   1.876   2.050
 2539SOL     OW 7638   3.162   2.315   2.553
 2539SOL    HW1 7639   3.103   2.395   2.557
 2539SOL    HW2 7640   3.177   2.280   2.646
 2540SOL     OW 7641   3.455   2.083   2.744
 2540SOL    HW1 7642   3.371   2.082   2.798
 2540SOL    HW2 7643   3.457   2.166   2.688
 2541SOL     OW 7644   1.901   2.939   2.162
 2541SOL    HW1 7645   2.000   2.928   2.153
 2541SOL    HW2 7646   1.861   2.853   2.194
 2542SOL     OW 7647   2.737   3.508   2.199
 2542SOL    HW1 7648   2.660   3.473   2.145
 2542SOL    HW2 7649   2.705   3.579   2.261
 2543SOL     OW 7650   2.092   2.490   3.837
 2543SOL    HW1 7651   1.999   2.488   3.874
 2543SOL    HW2 7652   2.093   2.451   3.745
 2544SOL     OW 7653   2.087   2.137   4.720
 2544SOL    HW1 7654   2.122   2.120   4.812
 2544SOL    HW2 7655   1.999   2.092   4.708
 2545SOL     OW 7656   1.881   2.230   4.371
 2545SOL    HW1 7657   1.799   2.273   4.410
 2545SOL    HW2 7658   1.853   2.157   4.308
 2546SOL     OW 7659   2.431   3.137   4.889
 2546SOL    HW1 7660   2.338   3.130   4.852
 2546SOL    HW2 7661   2.442   3.226   4.933
 2547SOL     OW 7662   3.417   3.373   4.427
 2547SOL    HW1 7663   3.360   3.357   4.508
 2547SOL    HW2 7664   3.358   3.383   4.347
 2548SOL     OW 7665   2.997   2.565   4.441
 2548SOL    HW1 7666   3.054   2.643   4.416
 2548SOL    HW2 7667   2.937   2.591   4.517
 2549SOL     OW 7668   3.617   2.469   3.955
 2549SOL    HW1 7669   3.605   2.456   3.856
 2549SOL    HW2 7670   3.587   2.388   4.004
 2550SOL     OW 7671   2.630   3.006   4.747
 2550SOL    HW1 7672   2.552   3.023   4.807
 2550SOL    HW2 7673   2.664   3.093   4.711
 2551SOL     OW 7674   2.547   2.874   4.389
 2551SOL    HW1 7675   2.616   2.858   4.459
 2551SOL    HW2 7676   2.474   2.931   4.427
 2552SOL     OW 7677   2.197   3.297   4.785
 2552SOL    HW1 7678   2.119   3.266   4.732
 2552SOL    HW2 7679   2.255   3.355   4.728
 2553SOL     OW 7680   3.465   2.309   4.461
 2553SOL    HW1 7681   3.391   2.355   4.411
 2553SOL    HW2 7682   3.516   2.377   4.514
 2554SOL     OW 7683   2.093   3.575   4.207
 2554SOL    HW1 7684   2.127   3.652   4.261
 2554SOL    HW2 7685   2.137   3.575   4.117
 2555SOL     OW 7686   2.092   3.296   4.262
 2555SOL    HW1 7687   2.066   3.392   4.262
 2555SOL    HW2 7688   2.021   3.242   4.307
 2556SOL     OW 7689   2.102   2.953   4.610
 2556SOL    HW1 7690   2.116   2.869   4.662
 2556SOL    HW2 7691   2.047   3.017   4.665
 2557SOL     OW 7692   2.468   2.826   3.847
 2557SOL    HW1 7693   2.475   2.910   3.793
 2557SOL    HW2 7694   2.514   2.839   3.935
 2558SOL     OW 7695   1.984   2.505   4.287
 2558SOL    HW1 7696   1.939   2.417   4.304
 2558SOL    HW2 7697   1.983   2.559   4.371
 2559SOL     OW 7698   3.704   3.629   4.083
 2559SOL    HW1 7699   3.758   3.600   4.163
 2559SOL    HW2 7700   3.734   3.719   4.054
 2560SOL     OW 7701   1.889   3.458   3.841
 2560SOL    HW1 7702   1.870   3.362   3.862
 2560SOL    HW2 7703   1.856   3.516   3.916
 2561SOL     OW 7704   3.551   2.784   4.336
 2561SOL    HW1 7705   3.646   2.755   4.344
 2561SOL    HW2 7706   3.543   2.849   4.261
 2562SOL     OW 7707   3.503   2.970   4.156
 2562SOL    HW1 7708   3.589   2.972   4.104
 2562SOL    HW2 7709   3.517   3.017   4.244
 2563SOL     OW 7710   1.975   2.599   5.321
 2563SOL    HW1 7711   2.063   2.586   5.366
 2563SOL    HW2 7712   1.962   2.696   5.299
 2564SOL     OW 7713   2.475   3.227   4.450
 2564SOL    HW1 7714   2.426   3.140   4.459
 2564SOL    HW2 7715   2.452   3.270   4.363
 2565SOL     OW 7716   2.671   1.866   4.226
 2565SOL    HW1 7717   2.711   1.957   4.217
 2565SOL    HW2 7718   2.571   1.874   4.232
 2566SOL     OW 7719   2.059   2.838   4.988
 2566SOL    HW1 7720   2.148   2.793   4.974
 2566SOL    HW2 7721   1.986   2.773   4.969
 2567SOL     OW 7722   3.387   2.861   3.914
 2567SOL    HW1 7723   3.324   2.785   3.927
 2567SOL    HW2 7724   3.435   2.879   4.000
 2568SOL     OW 7725   3.328   3.279   4.677
 2568SOL    HW1 7726   3.269   3.285   4.757
 2568SOL    HW2 7727   3.313   3.191   4.631
 2569SOL     OW 7728   3.529   3.576   4.296
 2569SOL    HW1 7729   3.488   3.553   4.208
 2569SOL    HW2 7730   3.511   3.502   4.361
 2570SOL     OW 7731   2.460   2.591   3.994
 2570SOL    HW1 7732   2.484   2.660   3.926
 2570SOL    HW2 7733   2.382   2.624   4.048
 2571SOL     OW 7734   3.143   2.207   4.668
 2571SOL    HW1 7735   3.057   2.157   4.655
 2571SOL    HW2 7736   3.205   2.153   4.724
 2572SOL     OW 7737   3.438   3.524   4.031
 2572SOL    HW1 7738   3.527   3.570   4.034
 2572SOL    HW2 7739   3.417   3.500   3.936
 2573SOL     OW 7740   2.853   2.272   4.966
 2573SOL    HW1 7741   2.776   2.306   5.020
 2573SOL    HW2 7742   2.819   2.221   4.887
 2574SOL     OW 7743   2.903   2.563   4.153
 2574SOL    HW1 7744   2.929   2.559   4.249
 2574SOL    HW2 7745   2.818   2.512   4.139
 2575SOL     OW 7746   1.938   2.673   4.513
 2575SOL    HW1 7747   2.037   2.661   4.522
 2575SOL    HW2 7748   1.914   2.768   4.534
 2576SOL     OW 7749   2.727   2.210   3.919
 2576SOL    HW1 7750   2.786   2.273   3.870
 2576SOL    HW2 7751   2.746   2.116   3.890
 2577SOL     OW 7752   3.224   3.006   4.269
 2577SOL    HW1 7753   3.307   2.977   4.221
 2577SOL    HW2 7754   3.175   3.073   4.213
 2578SOL     OW 7755   2.412   2.058   4.609
 2578SOL    HW1 7756   2.407   2.053   4.709
 2578SOL    HW2 7757   2.414   2.154   4.580
 2579SOL     OW 7758   2.870   3.318   4.201
 2579SOL    HW1 7759   2.824   3.390   4.149
 2579SOL    HW2 7760   2.866   3.338   4.299
 2580SOL     OW 7761   2.213   3.663   4.577
 2580SOL    HW1 7762   2.263   3.577   4.583
 2580SOL    HW2 7763   2.278   3.740   4.574
 2581SOL     OW 7764   3.657   2.928   4.597
 2581SOL    HW1 7765   3.595   2.913   4.521
 2581SOL    HW2 7766   3.605   2.939   4.682
 2582SOL     OW 7767   2.183   2.805   3.966
 2582SOL    HW1 7768   2.265   2.844   3.924
 2582SOL    HW2 7769   2.156   2.723   3.917
 2583SOL     OW 7770   3.320   2.597   4.452
 2583SOL    HW1 7771   3.315   2.532   4.527
 2583SOL    HW2 7772   3.400   2.656   4.465
 2584SOL     OW 7773   2.973   3.638   3.961
 2584SOL    HW1 7774   2.913   3.576   4.011
 2584SOL    HW2 7775   3.004   3.594   3.876
 2585SOL     OW 7776   3.494   3.239   3.805
 2585SOL    HW1 7777   3.462   3.333   3.795
 2585SOL    HW2 7778   3.418   3.176   3.793
 2586SOL     OW 7779   2.326   3.605   4.047
 2586SOL    HW1 7780   2.359   3.644   4.133
 2586SOL    HW2 7781   2.402   3.598   3.982
 2587SOL     OW 7782   3.262   1.969   4.150
 2587SOL    HW1 7783   3.238   1.932   4.060
 2587SOL    HW2 7784   3.361   1.985   4.154
 2588SOL     OW 7785   2.111   3.647   4.965
 2588SOL    HW1 7786   2.168   3.582   5.015
 2588SOL    HW2 7787   2.095   3.614   4.872
 2589SOL     OW 7788   2.802   3.560   4.628
 2589SOL    HW1 7789   2.882   3.503   4.649
 2589SOL    HW2 7790   2.753   3.520   4.551
 2590SOL     OW 7791   2.244   2.562   4.204
 2590SOL    HW1 7792   2.289   2.472   4.201
 2590SOL    HW2 7793   2.150   2.551   4.237
 2591SOL     OW 7794   2.476   1.984   3.841
 2591SOL    HW1 7795   2.574   1.962   3.848
 2591SOL    HW2 7796   2.445   1.967   3.748
 2592SOL     OW 7797   2.665   3.264   4.648
 2592SOL    HW1 7798   2.755   3.278   4.606
 2592SOL    HW2 7799   2.594   3.266   4.577
 2593SOL     OW 7800   2.784   2.365   4.623
 2593SOL    HW1 7801   2.759   2.356   4.527
 2593SOL    HW2 7802   2.832   2.283   4.654
 2594SOL     OW 7803   2.401   1.926   4.236
 2594SOL    HW1 7804   2.320   1.927   4.294
 2594SOL    HW2 7805   2.404   2.009   4.181
 2595SOL     OW 7806   3.296   3.050   3.765
 2595SOL    HW1 7807   3.328   2.974   3.822
 2595SOL    HW2 7808   3.204   3.077   3.795
 2596SOL     OW 7809   2.159   1.897   3.895
 2596SOL    HW1 7810   2.208   1.981   3.874
 2596SOL    HW2 7811   2.221   1.832   3.940
 2597SOL     OW 7812   2.797   2.098   4.204
 2597SOL    HW1 7813   2.749   2.139   4.126
 2597SOL    HW2 7814   2.896   2.096   4.185
 2598SOL     OW 7815   3.089   3.432   4.517
 2598SOL    HW1 7816   3.110   3.506   4.452
 2598SOL    HW2 7817   3.157   3.432   4.590
 2599SOL     OW 7818   2.321   3.014   4.465
 2599SOL    HW1 7819   2.250   2.987   4.530
 2599SOL    HW2 7820   2.295   2.986   4.372
 2600SOL     OW 7821   3.133   3.659   4.315
 2600SOL    HW1 7822   3.177   3.723   4.251
 2600SOL    HW2 7823   3.083   3.711   4.385
 2601SOL     OW 7824   2.894   2.411   3.740
 2601SOL    HW1 7825   2.853   2.493   3.701
 2601SOL    HW2 7826   2.958   2.437   3.813
 2602SOL     OW 7827   2.423   2.084   4.871
 2602SOL    HW1 7828   2.461   2.000   4.908
 2602SOL    HW2 7829   2.335   2.103   4.915
 2603SOL     OW 7830   2.728   2.316   4.366
 2603SOL    HW1 7831   2.696   2.388   4.304
 2603SOL    HW2 7832   2.752   2.235   4.313
 2604SOL     OW 7833   2.879   1.901   4.477
 2604SOL    HW1 7834   2.807   1.906   4.408
 2604SOL    HW2 7835   2.855   1.832   4.546
 2605SOL     OW 7836   3.291   3.035   4.591
 2605SOL    HW1 7837   3.236   2.951   4.584
 2605SOL    HW2 7838   3.317   3.064   4.499
 2606SOL     OW 7839   3.328   2.452   4.716
 2606SOL    HW1 7840   3.298   2.357   4.723
 2606SOL    HW2 7841   3.401   2.468   4.782
 2607SOL     OW 7842   3.719   2.695   4.101
 2607SOL    HW1 7843   3.761   2.631   4.165
 2607SOL    HW2 7844   3.681   2.644   4.023
 2608SOL     OW 7845   2.350   3.247   3.898
 2608SOL    HW1 7846   2.263   3.232   3.945
 2608SOL    HW2 7847   2.333   3.273   3.803
 2609SOL     OW 7848   3.526   3.142   4.381
 2609SOL    HW1 7849   3.625   3.150   4.395
 2609SOL    HW2 7850   3.481   3.226   4.412
 2610SOL     OW 7851   3.252   2.437   3.802
 2610SOL    HW1 7852   3.198   2.416   3.883
 2610SOL    HW2 7853   3.343   2.396   3.811
 2611SOL     OW 7854   2.389   2.118   4.052
 2611SOL    HW1 7855   2.416   2.059   3.977
 2611SOL    HW2 7856   2.389   2.213   4.021
 2612SOL     OW 7857   2.973   3.057   4.824
 2612SOL    HW1 7858   2.933   3.101   4.905
 2612SOL    HW2 7859   2.932   3.094   4.741
 2613SOL     OW 7860   3.500   2.961   4.803
 2613SOL    HW1 7861   3.505   3.042   4.862
 2613SOL    HW2 7862   3.414   2.963   4.752
 2614SOL     OW 7863   2.567   2.912   4.092
 2614SOL    HW1 7864   2.553   2.919   4.191
 2614SOL    HW2 7865   2.651   2.861   4.074
 2615SOL     OW 7866   2.272   2.675   4.975
 2615SOL    HW1 7867   2.358   2.687   5.025
 2615SOL    HW2 7868   2.230   2.588   5.002
 2616SOL     OW 7869   3.136   2.248   4.986
 2616SOL    HW1 7870   3.157   2.322   5.050
 2616SOL    HW2 7871   3.047   2.265   4.943
 2617SOL     OW 7872   2.229   2.962   4.225
 2617SOL    HW1 7873   2.222   3.045   4.169
 2617SOL    HW2 7874   2.233   2.882   4.165
 2618SOL     OW 7875   2.428   2.399   4.589
 2618SOL    HW1 7876   2.440   2.465   4.515
 2618SOL    HW2 7877   2.474   2.433   4.672
 2619SOL     OW 7878   3.114   3.210   4.112
 2619SOL    HW1 7879   3.164   3.287   4.152
 2619SOL    HW2 7880   3.019   3.212   4.144
 2620SOL     OW 7881   3.134   3.307   4.866
 2620SOL    HW1 7882   3.181   3.320   4.953
 2620SOL    HW2 7883   3.068   3.233   4.875
 2621SOL     OW 7884   3.444   2.501   4.196
 2621SOL    HW1 7885   3.413   2.562   4.269
 2621SOL    HW2 7886   3.494   2.553   4.127
 2622SOL     OW 7887   2.216   3.372   5.053
 2622SOL    HW1 7888   2.195   3.328   4.966
 2622SOL    HW2 7889   2.313   3.398   5.056
 2623SOL     OW 7890   2.435   2.732   4.753
 2623SOL    HW1 7891   2.479   2.821   4.744
 2623SOL    HW2 7892   2.372   2.732   4.830
 2624SOL     OW 7893   3.222   2.724   4.769
 2624SOL    HW1 7894   3.147   2.724   4.703
 2624SOL    HW2 7895   3.259   2.632   4.778
 2625SOL     OW 7896   3.071   2.387   3.999
 2625SOL    HW1 7897   3.084   2.303   4.053
 2625SOL    HW2 7898   3.042   2.461   4.059
 2626SOL     OW 7899   2.169   2.075   4.955
 2626SOL    HW1 7900   2.146   2.112   5.045
 2626SOL    HW2 7901   2.139   1.980   4.949
 2627SOL     OW 7902   1.899   3.172   5.006
 2627SOL    HW1 7903   1.952   3.123   5.074
 2627SOL    HW2 7904   1.921   3.270   5.011
 2628SOL     OW 7905   2.594   2.496   4.788
 2628SOL    HW1 7906   2.653   2.470   4.712
 2628SOL    HW2 7907   2.566   2.592   4.777
 2629SOL     OW 7908   2.169   1.925   4.342
 2629SOL    HW1 7909   2.158   2.019   4.375
 2629SOL    HW2 7910   2.164   1.862   4.419
 2630SOL     OW 7911   3.484   2.229   4.098
 2630SOL    HW1 7912   3.486   2.153   4.162
 2630SOL    HW2 7913   3.436   2.306   4.138
 2631SOL     OW 7914   2.885   2.628   4.690
 2631SOL    HW1 7915   2.900   2.649   4.786
 2631SOL    HW2 7916   2.855   2.533   4.681
 2632SOL     OW 7917   3.402   2.136   3.849
 2632SOL    HW1 7918   3.341   2.061   3.872
 2632SOL    HW2 7919   3.424   2.188   3.932
 2633SOL     OW 7920   3.165   2.700   3.766
 2633SOL    HW1 7921   3.199   2.607   3.781
 2633SOL    HW2 7922   3.183   2.727   3.671
 2634SOL     OW 7923   2.930   3.195   4.573
 2634SOL    HW1 7924   2.937   3.111   4.518
 2634SOL    HW2 7925   2.992   3.264   4.537
 2635SOL     OW 7926   2.181   2.672   4.673
 2635SOL    HW1 7927   2.274   2.708   4.678
 2635SOL    HW2 7928   2.175   2.587   4.725
 2636SOL     OW 7929   2.201   2.371   4.730
 2636SOL    HW1 7930   2.149   2.288   4.713
 2636SOL    HW2 7931   2.278   2.376   4.666
 2637SOL     OW 7932   3.022   2.069   5.201
 2637SOL    HW1 7933   3.022   2.133   5.278
 2637SOL    HW2 7934   3.050   2.117   5.118
 2638SOL     OW 7935   1.870   3.188   3.924
 2638SOL    HW1 7936   1.777   3.209   3.893
 2638SOL    HW2 7937   1.880   3.089   3.937
 2639SOL     OW 7938   1.950   3.663   4.651
 2639SOL    HW1 7939   1.908   3.577   4.624
 2639SOL    HW2 7940   2.044   3.666   4.617
 2640SOL     OW 7941   2.366   3.430   4.634
 2640SOL    HW1 7942   2.432   3.504   4.643
 2640SOL    HW2 7943   2.410   3.351   4.592
 2641SOL     OW 7944   2.864   2.658   4.962
 2641SOL    HW1 7945   2.905   2.626   5.048
 2641SOL    HW2 7946   2.768   2.631   4.959
 2642SOL     OW 7947   1.902   2.406   4.838
 2642SOL    HW1 7948   1.987   2.373   4.797
 2642SOL    HW2 7949   1.915   2.421   4.936
 2643SOL     OW 7950   2.677   2.434   4.049
 2643SOL    HW1 7951   2.684   2.345   4.003
 2643SOL    HW2 7952   2.583   2.468   4.041
 2644SOL     OW 7953   3.519   2.466   4.930
 2644SOL    HW1 7954   3.481   2.397   4.992
 2644SOL    HW2 7955   3.601   2.430   4.886
 2645SOL     OW 7956   2.533   2.326   4.993
 2645SOL    HW1 7957   2.499   2.237   4.963
 2645SOL    HW2 7958   2.559   2.380   4.913
 2646SOL     OW 7959   2.792   3.540   5.189
 2646SOL    HW1 7960   2.768   3.522   5.094
 2646SOL    HW2 7961   2.822   3.634   5.199
 2647SOL     OW 7962   2.335   2.362   3.915
 2647SOL    HW1 7963   2.396   2.442   3.919
 2647SOL    HW2 7964   2.240   2.393   3.922
 2648SOL     OW 7965   3.209   2.921   4.958
 2648SOL    HW1 7966   3.233   2.858   4.884
 2648SOL    HW2 7967   3.119   2.961   4.940
 2649SOL     OW 7968   3.164   2.717   4.033
 2649SOL    HW1 7969   3.078   2.686   4.075
 2649SOL    HW2 7970   3.160   2.703   3.934
 2650SOL     OW 7971   3.621   3.609   4.878
 2650SOL    HW1 7972   3.682   3.639   4.805
 2650SOL    HW2 7973   3.583   3.520   4.856
 2651SOL     OW 7974   3.114   3.593   4.852
 2651SOL    HW1 7975   3.198   3.598   4.798
 2651SOL    HW2 7976   3.091   3.497   4.870
 2652SOL     OW 7977   1.945   3.120   4.746
 2652SOL    HW1 7978   1.940   3.119   4.846
 2652SOL    HW2 7979   1.862   3.079   4.708
 2653SOL     OW 7980   3.588   1.997   4.247
 2653SOL    HW1 7981   3.661   1.980   4.180
 2653SOL    HW2 7982   3.557   1.910   4.285
 2654SOL     OW 7983   3.250   3.435   4.201
 2654SOL    HW1 7984   3.317   3.447   4.127
 2654SOL    HW2 7985   3.210   3.524   4.224
 2655SOL     OW 7986   3.142   2.789   4.396
 2655SOL    HW1 7987   3.202   2.708   4.398
 2655SOL    HW2 7988   3.182   2.858   4.336
 2656SOL     OW 7989   2.534   3.478   3.878
 2656SOL    HW1 7990   2.543   3.488   3.779
 2656SOL    HW2 7991   2.494   3.389   3.899
 2657SOL     OW 7992   3.512   3.582   5.118
 2657SOL    HW1 7993   3.565   3.592   5.034
 2657SOL    HW2 7994   3.485   3.672   5.152
 2658SOL     OW 7995   3.703   2.037   4.687
 2658SOL    HW1 7996   3.742   1.952   4.651
 2658SOL    HW2 7997   3.605   2.039   4.668
 2659SOL     OW 7998   2.125   2.188   4.444
 2659SOL    HW1 7999   2.046   2.239   4.410
 2659SOL    HW2 8000   2.116   2.173   4.542
 2660SOL     OW 8001   3.056   3.474   3.755
 2660SOL    HW1 8002   3.062   3.381   3.792
 2660SOL    HW2 8003   2.997   3.474   3.675
 2661SOL     OW 8004   2.684   2.864   5.096
 2661SOL    HW1 8005   2.724   2.863   5.004
 2661SOL    HW2 8006   2.694   2.956   5.136
 2662SOL     OW 8007   2.778   2.772   4.015
 2662SOL    HW1 8008   2.841   2.810   3.947
 2662SOL    HW2 8009   2.818   2.689   4.054
 2663SOL     OW 8010   3.366   3.469   3.768
 2663SOL    HW1 8011   3.274   3.506   3.775
 2663SOL    HW2 8012   3.404   3.489   3.678
 2664SOL     OW 8013   2.901   2.960   4.420
 2664SOL    HW1 8014   2.831   2.913   4.474
 2664SOL    HW2 8015   2.960   2.892   4.377
 2665SOL     OW 8016   2.876   2.098   4.695
 2665SOL    HW1 8017   2.868   2.062   4.602
 2665SOL    HW2 8018   2.874   2.022   4.760
 2666SOL     OW 8019   2.452   3.349   4.215
 2666SOL    HW1 8020   2.494   3.291   4.145
 2666SOL    HW2 8021   2.408   3.428   4.171
 2667SOL     OW 8022   3.571   2.247   5.105
 2667SOL    HW1 8023   3.644   2.316   5.109
 2667SOL    HW2 8024   3.599   2.172   5.046
 2668SOL     OW 8025   2.117   3.210   4.014
 2668SOL    HW1 8026   2.021   3.211   3.987
 2668SOL    HW2 8027   2.129   3.263   4.098
 2669SOL     OW 8028   1.937   2.207   3.757
 2669SOL    HW1 8029   1.845   2.179   3.728
 2669SOL    HW2 8030   1.968   2.284   3.701
 2670SOL     OW 8031   1.934   2.028   4.042
 2670SOL    HW1 8032   1.917   2.111   3.988
 2670SOL    HW2 8033   2.024   1.991   4.020
 2671SOL     OW 8034   3.045   3.197   3.843
 2671SOL    HW1 8035   2.946   3.186   3.845
 2671SOL    HW2 8036   3.079   3.212   3.936
 2672SOL     OW 8037   3.355   3.629   4.683
 2672SOL    HW1 8038   3.388   3.693   4.614
 2672SOL    HW2 8039   3.421   3.623   4.758
 2673SOL     OW 8040   3.536   2.745   4.978
 2673SOL    HW1 8041   3.509   2.656   4.941
 2673SOL    HW2 8042   3.537   2.813   4.905
 2674SOL     OW 8043   3.087   2.187   4.173
 2674SOL    HW1 8044   3.152   2.113   4.162
 2674SOL    HW2 8045   3.107   2.237   4.257
 2675SOL     OW 8046   2.456   2.607   4.376
 2675SOL    HW1 8047   2.506   2.692   4.357
 2675SOL    HW2 8048   2.368   2.609   4.328
 2676SOL     OW 8049   3.592   2.796   5.241
 2676SOL    HW1 8050   3.630   2.887   5.256
 2676SOL    HW2 8051   3.584   2.779   5.142
 2677SOL     OW 8052   2.721   3.236   3.740
 2677SOL    HW1 8053   2.675   3.251   3.828
 2677SOL    HW2 8054   2.765   3.321   3.710
 2678SOL     OW 8055   2.523   3.652   4.677
 2678SOL    HW1 8056   2.477   3.740   4.664
 2678SOL    HW2 8057   2.622   3.664   4.670
 2679SOL     OW 8058   2.721   2.818   4.585
 2679SOL    HW1 8059   2.775   2.749   4.633
 2679SOL    HW2 8060   2.689   2.887   4.651
 2680SOL     OW 8061   2.945   2.846   3.811
 2680SOL    HW1 8062   2.922   2.899   3.729
 2680SOL    HW2 8063   3.026   2.790   3.792
 2681SOL     OW 8064   3.723   3.431   4.575
 2681SOL    HW1 8065   3.652   3.419   4.505
 2681SOL    HW2 8066   3.724   3.352   4.635
 2682SOL     OW 8067   1.941   3.102   4.377
 2682SOL    HW1 8068   1.940   3.055   4.465
 2682SOL    HW2 8069   2.023   3.074   4.326
 2683SOL     OW 8070   3.686   2.054   4.951
 2683SOL    HW1 8071   3.682   1.964   4.995
 2683SOL    HW2 8072   3.689   2.043   4.852
 2684SOL     OW 8073   2.290   2.286   4.244
 2684SOL    HW1 8074   2.320   2.214   4.182
 2684SOL    HW2 8075   2.251   2.246   4.327
 2685SOL     OW 8076   3.567   3.349   4.828
 2685SOL    HW1 8077   3.474   3.324   4.801
 2685SOL    HW2 8078   3.593   3.299   4.910
 2686SOL     OW 8079   2.674   3.448   4.411
 2686SOL    HW1 8080   2.706   3.458   4.317
 2686SOL    HW2 8081   2.595   3.386   4.413
 2687SOL     OW 8082   3.286   2.076   4.836
 2687SOL    HW1 8083   3.338   2.011   4.891
 2687SOL    HW2 8084   3.237   2.139   4.897
 2688SOL     OW 8085   2.863   1.896   4.878
 2688SOL    HW1 8086   2.800   1.824   4.847
 2688SOL    HW2 8087   2.956   1.860   4.878
 2689SOL     OW 8088   2.632   3.192   4.025
 2689SOL    HW1 8089   2.586   3.105   4.042
 2689SOL    HW2 8090   2.723   3.189   4.066
 2690SOL     OW 8091   3.214   1.914   3.892
 2690SOL    HW1 8092   3.249   1.873   3.808
 2690SOL    HW2 8093   3.124   1.876   3.912
 2691SOL     OW 8094   3.162   2.315   4.415
 2691SOL    HW1 8095   3.103   2.395   4.419
 2691SOL    HW2 8096   3.177   2.280   4.508
 2692SOL     OW 8097   3.455   2.083   4.606
 2692SOL    HW1 8098   3.371   2.082   4.660
 2692SOL    HW2 8099   3.457   2.166   4.550
 2693SOL     OW 8100   1.901   2.939   4.024
 2693SOL    HW1 8101   2.000   2.928   4.015
 2693SOL    HW2 8102   1.861   2.853   4.056
 2694SOL     OW 8103   2.737   3.508   4.061
 2694SOL    HW1 8104   2.660   3.473   4.007
 2694SOL    HW2 8105   2.705   3.579   4.123
 2695SOL     OW 8106   2.092   4.352   0.113
 2695SOL    HW1 8107   1.999   4.350   0.150
 2695SOL    HW2 8108   2.093   4.313   0.021
 2696SOL     OW 8109   2.087   3.999   0.996
 2696SOL    HW1 8110   2.122   3.982   1.088
 2696SOL    HW2 8111   1.999   3.954   0.984
 2697SOL     OW 8112   1.881   4.092   0.647
 2697SOL    HW1 8113   1.799   4.135   0.686
 2697SOL    HW2 8114   1.853   4.019   0.584
 2698SOL     OW 8115   2.997   4.427   0.717
 2698SOL    HW1 8116   3.054   4.505   0.692
 2698SOL    HW2 8117   2.937   4.453   0.793
 2699SOL     OW 8118   3.617   4.331   0.231
 2699SOL    HW1 8119   3.605   4.318   0.132
 2699SOL    HW2 8120   3.587   4.250   0.280
 2700SOL     OW 8121   2.630   4.868   1.023
 2700SOL    HW1 8122   2.552   4.885   1.083
 2700SOL    HW2 8123   2.664   4.955   0.987
 2701SOL     OW 8124   2.712   4.522   1.823
 2701SOL    HW1 8125   2.708   4.598   1.888
 2701SOL    HW2 8126   2.734   4.558   1.732
 2702SOL     OW 8127   2.547   4.736   0.665
 2702SOL    HW1 8128   2.616   4.720   0.735
 2702SOL    HW2 8129   2.474   4.793   0.703
 2703SOL     OW 8130   2.548   4.885   1.803
 2703SOL    HW1 8131   2.608   4.964   1.817
 2703SOL    HW2 8132   2.462   4.916   1.762
 2704SOL     OW 8133   2.197   5.159   1.061
 2704SOL    HW1 8134   2.119   5.128   1.008
 2704SOL    HW2 8135   2.255   5.217   1.004
 2705SOL     OW 8136   2.300   4.116   1.499
 2705SOL    HW1 8137   2.382   4.060   1.508
 2705SOL    HW2 8138   2.219   4.058   1.503
 2706SOL     OW 8139   3.465   4.171   0.737
 2706SOL    HW1 8140   3.391   4.217   0.687
 2706SOL    HW2 8141   3.516   4.239   0.790
 2707SOL     OW 8142   2.102   4.815   0.886
 2707SOL    HW1 8143   2.116   4.731   0.938
 2707SOL    HW2 8144   2.047   4.879   0.941
 2708SOL     OW 8145   2.468   4.688   0.123
 2708SOL    HW1 8146   2.475   4.772   0.069
 2708SOL    HW2 8147   2.514   4.701   0.211
 2709SOL     OW 8148   3.456   3.838   1.480
 2709SOL    HW1 8149   3.438   3.905   1.408
 2709SOL    HW2 8150   3.453   3.884   1.569
 2710SOL     OW 8151   1.984   4.367   0.563
 2710SOL    HW1 8152   1.939   4.279   0.580
 2710SOL    HW2 8153   1.983   4.421   0.647
 2711SOL     OW 8154   3.551   4.646   0.612
 2711SOL    HW1 8155   3.646   4.617   0.620
 2711SOL    HW2 8156   3.543   4.711   0.537
 2712SOL     OW 8157   3.503   4.832   0.432
 2712SOL    HW1 8158   3.589   4.834   0.380
 2712SOL    HW2 8159   3.517   4.879   0.520
 2713SOL     OW 8160   1.975   4.461   1.597
 2713SOL    HW1 8161   2.063   4.448   1.642
 2713SOL    HW2 8162   1.962   4.558   1.575
 2714SOL     OW 8163   3.155   4.952   1.423
 2714SOL    HW1 8164   3.192   4.879   1.365
 2714SOL    HW2 8165   3.207   4.957   1.508
 2715SOL     OW 8166   2.671   3.728   0.502
 2715SOL    HW1 8167   2.711   3.819   0.493
 2715SOL    HW2 8168   2.571   3.736   0.508
 2716SOL     OW 8169   2.059   4.700   1.264
 2716SOL    HW1 8170   2.148   4.655   1.250
 2716SOL    HW2 8171   1.986   4.635   1.245
 2717SOL     OW 8172   3.387   4.723   0.190
 2717SOL    HW1 8173   3.324   4.647   0.203
 2717SOL    HW2 8174   3.435   4.741   0.276
 2718SOL     OW 8175   2.179   3.975   1.801
 2718SOL    HW1 8176   2.250   4.046   1.807
 2718SOL    HW2 8177   2.091   4.014   1.829
 2719SOL     OW 8178   2.460   4.453   0.270
 2719SOL    HW1 8179   2.484   4.522   0.202
 2719SOL    HW2 8180   2.382   4.486   0.324
 2720SOL     OW 8181   3.143   4.069   0.944
 2720SOL    HW1 8182   3.057   4.019   0.931
 2720SOL    HW2 8183   3.205   4.015   1.000
 2721SOL     OW 8184   2.669   4.329   1.465
 2721SOL    HW1 8185   2.622   4.326   1.554
 2721SOL    HW2 8186   2.618   4.274   1.399
 2722SOL     OW 8187   3.256   4.193   1.674
 2722SOL    HW1 8188   3.236   4.236   1.762
 2722SOL    HW2 8189   3.334   4.131   1.683
 2723SOL     OW 8190   2.835   4.614   1.572
 2723SOL    HW1 8191   2.881   4.530   1.543
 2723SOL    HW2 8192   2.779   4.648   1.497
 2724SOL     OW 8193   2.853   4.134   1.242
 2724SOL    HW1 8194   2.776   4.168   1.296
 2724SOL    HW2 8195   2.819   4.083   1.163
 2725SOL     OW 8196   2.903   4.425   0.429
 2725SOL    HW1 8197   2.929   4.421   0.525
 2725SOL    HW2 8198   2.818   4.374   0.415
 2726SOL     OW 8199   1.938   4.535   0.789
 2726SOL    HW1 8200   2.037   4.523   0.798
 2726SOL    HW2 8201   1.914   4.630   0.810
 2727SOL     OW 8202   2.727   4.072   0.195
 2727SOL    HW1 8203   2.786   4.135   0.146
 2727SOL    HW2 8204   2.746   3.978   0.166
 2728SOL     OW 8205   3.581   4.309   1.831
 2728SOL    HW1 8206   3.555   4.398   1.795
 2728SOL    HW2 8207   3.579   4.241   1.758
 2729SOL     OW 8208   3.224   4.868   0.545
 2729SOL    HW1 8209   3.307   4.839   0.497
 2729SOL    HW2 8210   3.175   4.935   0.489
 2730SOL     OW 8211   2.412   3.920   0.885
 2730SOL    HW1 8212   2.407   3.915   0.985
 2730SOL    HW2 8213   2.414   4.016   0.856
 2731SOL     OW 8214   3.657   4.790   0.873
 2731SOL    HW1 8215   3.595   4.775   0.797
 2731SOL    HW2 8216   3.605   4.801   0.958
 2732SOL     OW 8217   2.183   4.667   0.242
 2732SOL    HW1 8218   2.265   4.706   0.200
 2732SOL    HW2 8219   2.156   4.585   0.193
 2733SOL     OW 8220   3.320   4.459   0.728
 2733SOL    HW1 8221   3.315   4.394   0.803
 2733SOL    HW2 8222   3.400   4.518   0.741
 2734SOL     OW 8223   2.064   4.009   1.498
 2734SOL    HW1 8224   1.984   4.069   1.485
 2734SOL    HW2 8225   2.054   3.960   1.584
 2735SOL     OW 8226   3.262   3.831   0.426
 2735SOL    HW1 8227   3.238   3.794   0.336
 2735SOL    HW2 8228   3.361   3.847   0.430
 2736SOL     OW 8229   2.244   4.424   0.480
 2736SOL    HW1 8230   2.289   4.334   0.477
 2736SOL    HW2 8231   2.150   4.413   0.513
 2737SOL     OW 8232   3.409   3.946   1.729
 2737SOL    HW1 8233   3.404   3.983   1.821
 2737SOL    HW2 8234   3.337   3.877   1.717
 2738SOL     OW 8235   2.476   3.846   0.117
 2738SOL    HW1 8236   2.574   3.824   0.124
 2738SOL    HW2 8237   2.445   3.829   0.024
 2739SOL     OW 8238   2.643   3.988   1.749
 2739SOL    HW1 8239   2.710   3.927   1.792
 2739SOL    HW2 8240   2.570   4.007   1.814
 2740SOL     OW 8241   3.213   4.314   1.433
 2740SOL    HW1 8242   3.241   4.271   1.518
 2740SOL    HW2 8243   3.238   4.410   1.434
 2741SOL     OW 8244   2.665   5.126   0.924
 2741SOL    HW1 8245   2.755   5.140   0.882
 2741SOL    HW2 8246   2.594   5.128   0.853
 2742SOL     OW 8247   2.784   4.227   0.899
 2742SOL    HW1 8248   2.759   4.218   0.803
 2742SOL    HW2 8249   2.832   4.145   0.930
 2743SOL     OW 8250   2.401   3.788   0.512
 2743SOL    HW1 8251   2.320   3.789   0.570
 2743SOL    HW2 8252   2.404   3.871   0.457
 2744SOL     OW 8253   2.159   3.759   0.171
 2744SOL    HW1 8254   2.208   3.843   0.150
 2744SOL    HW2 8255   2.221   3.694   0.216
 2745SOL     OW 8256   2.797   3.960   0.480
 2745SOL    HW1 8257   2.749   4.001   0.402
 2745SOL    HW2 8258   2.896   3.958   0.461
 2746SOL     OW 8259   2.938   4.407   1.464
 2746SOL    HW1 8260   2.858   4.346   1.467
 2746SOL    HW2 8261   3.019   4.354   1.440
 2747SOL     OW 8262   2.321   4.876   0.741
 2747SOL    HW1 8263   2.250   4.849   0.806
 2747SOL    HW2 8264   2.295   4.848   0.648
 2748SOL     OW 8265   2.894   4.273   0.016
 2748SOL    HW1 8266   2.853   4.355  -0.023
 2748SOL    HW2 8267   2.958   4.299   0.089
 2749SOL     OW 8268   1.940   4.280   1.386
 2749SOL    HW1 8269   2.032   4.279   1.345
 2749SOL    HW2 8270   1.934   4.354   1.453
 2750SOL     OW 8271   2.423   3.946   1.147
 2750SOL    HW1 8272   2.461   3.862   1.184
 2750SOL    HW2 8273   2.335   3.965   1.191
 2751SOL     OW 8274   2.728   4.178   0.642
 2751SOL    HW1 8275   2.696   4.250   0.580
 2751SOL    HW2 8276   2.752   4.097   0.589
 2752SOL     OW 8277   2.879   3.763   0.753
 2752SOL    HW1 8278   2.807   3.768   0.684
 2752SOL    HW2 8279   2.855   3.694   0.822
 2753SOL     OW 8280   3.291   4.897   0.867
 2753SOL    HW1 8281   3.236   4.813   0.860
 2753SOL    HW2 8282   3.317   4.926   0.775
 2754SOL     OW 8283   3.328   4.314   0.992
 2754SOL    HW1 8284   3.298   4.219   0.999
 2754SOL    HW2 8285   3.401   4.330   1.058
 2755SOL     OW 8286   3.719   4.557   0.377
 2755SOL    HW1 8287   3.761   4.493   0.441
 2755SOL    HW2 8288   3.681   4.506   0.299
 2756SOL     OW 8289   3.252   4.299   0.078
 2756SOL    HW1 8290   3.198   4.278   0.159
 2756SOL    HW2 8291   3.343   4.258   0.087
 2757SOL     OW 8292   2.389   3.980   0.328
 2757SOL    HW1 8293   2.416   3.921   0.253
 2757SOL    HW2 8294   2.389   4.075   0.297
 2758SOL     OW 8295   3.616   4.947   1.588
 2758SOL    HW1 8296   3.707   4.908   1.575
 2758SOL    HW2 8297   3.624   5.043   1.612
 2759SOL     OW 8298   3.500   4.823   1.079
 2759SOL    HW1 8299   3.505   4.904   1.138
 2759SOL    HW2 8300   3.414   4.825   1.028
 2760SOL     OW 8301   2.777   3.813   1.402
 2760SOL    HW1 8302   2.802   3.793   1.307
 2760SOL    HW2 8303   2.849   3.869   1.444
 2761SOL     OW 8304   2.842   4.840   1.719
 2761SOL    HW1 8305   2.743   4.846   1.729
 2761SOL    HW2 8306   2.865   4.760   1.663
 2762SOL     OW 8307   2.567   4.774   0.368
 2762SOL    HW1 8308   2.553   4.781   0.467
 2762SOL    HW2 8309   2.651   4.723   0.350
 2763SOL     OW 8310   2.272   4.537   1.251
 2763SOL    HW1 8311   2.358   4.549   1.301
 2763SOL    HW2 8312   2.230   4.450   1.278
 2764SOL     OW 8313   3.136   4.110   1.262
 2764SOL    HW1 8314   3.157   4.184   1.326
 2764SOL    HW2 8315   3.047   4.127   1.219
 2765SOL     OW 8316   2.229   4.824   0.501
 2765SOL    HW1 8317   2.222   4.907   0.445
 2765SOL    HW2 8318   2.233   4.744   0.441
 2766SOL     OW 8319   2.428   4.261   0.865
 2766SOL    HW1 8320   2.440   4.327   0.791
 2766SOL    HW2 8321   2.474   4.295   0.948
 2767SOL     OW 8322   3.444   4.363   0.472
 2767SOL    HW1 8323   3.413   4.424   0.545
 2767SOL    HW2 8324   3.494   4.415   0.403
 2768SOL     OW 8325   2.264   4.475   1.598
 2768SOL    HW1 8326   2.332   4.530   1.551
 2768SOL    HW2 8327   2.304   4.387   1.625
 2769SOL     OW 8328   3.449   4.503   1.670
 2769SOL    HW1 8329   3.357   4.541   1.665
 2769SOL    HW2 8330   3.509   4.550   1.605
 2770SOL     OW 8331   2.875   3.829   1.770
 2770SOL    HW1 8332   2.881   3.914   1.718
 2770SOL    HW2 8333   2.907   3.753   1.713
 2771SOL     OW 8334   2.366   3.774   1.740
 2771SOL    HW1 8335   2.324   3.717   1.670
 2771SOL    HW2 8336   2.300   3.843   1.772
 2772SOL     OW 8337   2.435   4.594   1.029
 2772SOL    HW1 8338   2.479   4.683   1.020
 2772SOL    HW2 8339   2.372   4.594   1.106
 2773SOL     OW 8340   3.222   4.586   1.045
 2773SOL    HW1 8341   3.147   4.586   0.979
 2773SOL    HW2 8342   3.259   4.494   1.054
 2774SOL     OW 8343   3.071   4.249   0.275
 2774SOL    HW1 8344   3.084   4.165   0.329
 2774SOL    HW2 8345   3.042   4.323   0.335
 2775SOL     OW 8346   2.169   3.937   1.231
 2775SOL    HW1 8347   2.146   3.974   1.321
 2775SOL    HW2 8348   2.139   3.842   1.225
 2776SOL     OW 8349   2.594   4.358   1.064
 2776SOL    HW1 8350   2.653   4.332   0.988
 2776SOL    HW2 8351   2.566   4.454   1.053
 2777SOL     OW 8352   3.590   4.659   1.854
 2777SOL    HW1 8353   3.544   4.652   1.765
 2777SOL    HW2 8354   3.528   4.703   1.920
 2778SOL     OW 8355   2.169   3.787   0.618
 2778SOL    HW1 8356   2.158   3.881   0.651
 2778SOL    HW2 8357   2.164   3.724   0.695
 2779SOL     OW 8358   3.484   4.091   0.374
 2779SOL    HW1 8359   3.486   4.015   0.438
 2779SOL    HW2 8360   3.436   4.168   0.414
 2780SOL     OW 8361   2.885   4.490   0.966
 2780SOL    HW1 8362   2.900   4.511   1.062
 2780SOL    HW2 8363   2.855   4.395   0.957
 2781SOL     OW 8364   3.721   5.242   1.605
 2781SOL    HW1 8365   3.735   5.269   1.510
 2781SOL    HW2 8366   3.804   5.264   1.658
 2782SOL     OW 8367   2.212   4.622   1.804
 2782SOL    HW1 8368   2.288   4.666   1.852
 2782SOL    HW2 8369   2.247   4.575   1.722
 2783SOL     OW 8370   3.402   3.998   0.125
 2783SOL    HW1 8371   3.341   3.923   0.148
 2783SOL    HW2 8372   3.424   4.050   0.208
 2784SOL     OW 8373   3.165   4.562   0.042
 2784SOL    HW1 8374   3.199   4.469   0.057
 2784SOL    HW2 8375   3.183   4.589  -0.053
 2785SOL     OW 8376   2.181   4.534   0.949
 2785SOL    HW1 8377   2.274   4.570   0.954
 2785SOL    HW2 8378   2.175   4.449   1.001
 2786SOL     OW 8379   2.201   4.233   1.006
 2786SOL    HW1 8380   2.149   4.150   0.989
 2786SOL    HW2 8381   2.278   4.238   0.942
 2787SOL     OW 8382   3.000   4.104   1.678
 2787SOL    HW1 8383   2.955   4.167   1.742
 2787SOL    HW2 8384   3.093   4.135   1.661
 2788SOL     OW 8385   3.022   3.931   1.477
 2788SOL    HW1 8386   3.022   3.995   1.554
 2788SOL    HW2 8387   3.050   3.979   1.394
 2789SOL     OW 8388   2.864   4.520   1.238
 2789SOL    HW1 8389   2.905   4.488   1.324
 2789SOL    HW2 8390   2.768   4.493   1.235
 2790SOL     OW 8391   1.902   4.268   1.114
 2790SOL    HW1 8392   1.987   4.235   1.073
 2790SOL    HW2 8393   1.915   4.283   1.212
 2791SOL     OW 8394   2.051   4.244   1.722
 2791SOL    HW1 8395   2.110   4.204   1.652
 2791SOL    HW2 8396   1.993   4.315   1.681
 2792SOL     OW 8397   3.231   4.674   1.660
 2792SOL    HW1 8398   3.270   4.763   1.680
 2792SOL    HW2 8399   3.241   4.654   1.563
 2793SOL     OW 8400   2.677   4.296   0.325
 2793SOL    HW1 8401   2.684   4.207   0.279
 2793SOL    HW2 8402   2.583   4.330   0.317
 2794SOL     OW 8403   3.519   4.328   1.206
 2794SOL    HW1 8404   3.481   4.259   1.268
 2794SOL    HW2 8405   3.601   4.292   1.162
 2795SOL     OW 8406   2.533   4.188   1.269
 2795SOL    HW1 8407   2.499   4.099   1.239
 2795SOL    HW2 8408   2.559   4.242   1.189
 2796SOL     OW 8409   2.335   4.224   0.191
 2796SOL    HW1 8410   2.396   4.304   0.195
 2796SOL    HW2 8411   2.240   4.255   0.198
 2797SOL     OW 8412   2.021   4.861   1.466
 2797SOL    HW1 8413   2.043   4.800   1.542
 2797SOL    HW2 8414   2.031   4.812   1.380
 2798SOL     OW 8415   3.209   4.783   1.234
 2798SOL    HW1 8416   3.233   4.720   1.160
 2798SOL    HW2 8417   3.119   4.823   1.216
 2799SOL     OW 8418   3.164   4.579   0.309
 2799SOL    HW1 8419   3.078   4.548   0.351
 2799SOL    HW2 8420   3.160   4.565   0.210
 2800SOL     OW 8421   1.945   4.982   1.022
 2800SOL    HW1 8422   1.940   4.981   1.122
 2800SOL    HW2 8423   1.862   4.941   0.984
 2801SOL     OW 8424   2.765   3.810   0.133
 2801SOL    HW1 8425   2.816   3.811   0.047
 2801SOL    HW2 8426   2.821   3.768   0.204
 2802SOL     OW 8427   3.588   3.859   0.523
 2802SOL    HW1 8428   3.661   3.842   0.456
 2802SOL    HW2 8429   3.557   3.772   0.561
 2803SOL     OW 8430   3.142   4.651   0.672
 2803SOL    HW1 8431   3.202   4.570   0.674
 2803SOL    HW2 8432   3.182   4.720   0.612
 2804SOL     OW 8433   3.703   3.899   0.963
 2804SOL    HW1 8434   3.742   3.814   0.927
 2804SOL    HW2 8435   3.605   3.901   0.944
 2805SOL     OW 8436   2.125   4.050   0.720
 2805SOL    HW1 8437   2.046   4.101   0.686
 2805SOL    HW2 8438   2.116   4.035   0.818
 2806SOL     OW 8439   2.684   4.726   1.372
 2806SOL    HW1 8440   2.724   4.725   1.280
 2806SOL    HW2 8441   2.694   4.818   1.412
 2807SOL     OW 8442   2.778   4.634   0.291
 2807SOL    HW1 8443   2.841   4.672   0.223
 2807SOL    HW2 8444   2.818   4.551   0.330
 2808SOL     OW 8445   2.234   5.012   1.490
 2808SOL    HW1 8446   2.221   5.105   1.456
 2808SOL    HW2 8447   2.150   4.960   1.477
 2809SOL     OW 8448   3.476   5.016   1.289
 2809SOL    HW1 8449   3.536   5.019   1.369
 2809SOL    HW2 8450   3.401   5.080   1.302
 2810SOL     OW 8451   2.901   4.822   0.696
 2810SOL    HW1 8452   2.831   4.775   0.750
 2810SOL    HW2 8453   2.960   4.754   0.653
 2811SOL     OW 8454   2.876   3.960   0.971
 2811SOL    HW1 8455   2.868   3.924   0.878
 2811SOL    HW2 8456   2.874   3.884   1.036
 2812SOL     OW 8457   3.571   4.109   1.381
 2812SOL    HW1 8458   3.644   4.178   1.385
 2812SOL    HW2 8459   3.599   4.034   1.322
 2813SOL     OW 8460   1.967   4.737   1.726
 2813SOL    HW1 8461   1.890   4.704   1.780
 2813SOL    HW2 8462   2.052   4.707   1.768
 2814SOL     OW 8463   2.534   3.927   1.489
 2814SOL    HW1 8464   2.624   3.911   1.449
 2814SOL    HW2 8465   2.542   3.932   1.588
 2815SOL     OW 8466   3.302   4.580   1.398
 2815SOL    HW1 8467   3.245   4.632   1.335
 2815SOL    HW2 8468   3.398   4.592   1.374
 2816SOL     OW 8469   1.934   3.890   0.318
 2816SOL    HW1 8470   1.917   3.973   0.264
 2816SOL    HW2 8471   2.024   3.853   0.296
 2817SOL     OW 8472   2.475   4.566   1.431
 2817SOL    HW1 8473   2.531   4.647   1.414
 2817SOL    HW2 8474   2.534   4.486   1.434
 2818SOL     OW 8475   2.578   4.289   1.708
 2818SOL    HW1 8476   2.597   4.354   1.782
 2818SOL    HW2 8477   2.638   4.209   1.717
 2819SOL     OW 8478   3.312   4.944   1.633
 2819SOL    HW1 8479   3.303   4.934   1.732
 2819SOL    HW2 8480   3.408   4.937   1.607
 2820SOL     OW 8481   3.536   4.607   1.254
 2820SOL    HW1 8482   3.509   4.518   1.217
 2820SOL    HW2 8483   3.537   4.675   1.181
 2821SOL     OW 8484   3.087   4.049   0.449
 2821SOL    HW1 8485   3.152   3.975   0.438
 2821SOL    HW2 8486   3.107   4.099   0.533
 2822SOL     OW 8487   2.456   4.469   0.652
 2822SOL    HW1 8488   2.506   4.554   0.633
 2822SOL    HW2 8489   2.368   4.471   0.604
 2823SOL     OW 8490   3.639   4.066   1.642
 2823SOL    HW1 8491   3.622   4.097   1.548
 2823SOL    HW2 8492   3.555   4.029   1.680
 2824SOL     OW 8493   3.592   4.658   1.517
 2824SOL    HW1 8494   3.630   4.749   1.532
 2824SOL    HW2 8495   3.584   4.641   1.418
 2825SOL     OW 8496   2.721   4.680   0.861
 2825SOL    HW1 8497   2.775   4.611   0.909
 2825SOL    HW2 8498   2.689   4.749   0.927
 2826SOL     OW 8499   2.945   4.708   0.087
 2826SOL    HW1 8500   2.922   4.761   0.005
 2826SOL    HW2 8501   3.026   4.652   0.068
 2827SOL     OW 8502   1.941   4.964   0.653
 2827SOL    HW1 8503   1.940   4.917   0.741
 2827SOL    HW2 8504   2.023   4.936   0.602
 2828SOL     OW 8505   3.686   3.916   1.227
 2828SOL    HW1 8506   3.682   3.826   1.271
 2828SOL    HW2 8507   3.689   3.905   1.128
 2829SOL     OW 8508   2.290   4.148   0.520
 2829SOL    HW1 8509   2.320   4.076   0.458
 2829SOL    HW2 8510   2.251   4.108   0.603
 2830SOL     OW 8511   2.179   4.271   1.280
 2830SOL    HW1 8512   2.217   4.212   1.352
 2830SOL    HW2 8513   2.219   4.245   1.192
 2831SOL     OW 8514   3.286   3.938   1.112
 2831SOL    HW1 8515   3.338   3.873   1.167
 2831SOL    HW2 8516   3.237   4.001   1.173
 2832SOL     OW 8517   2.863   3.758   1.154
 2832SOL    HW1 8518   2.800   3.686   1.123
 2832SOL    HW2 8519   2.956   3.722   1.154
 2833SOL     OW 8520   2.632   5.054   0.301
 2833SOL    HW1 8521   2.586   4.967   0.318
 2833SOL    HW2 8522   2.723   5.051   0.342
 2834SOL     OW 8523   3.214   3.776   0.168
 2834SOL    HW1 8524   3.249   3.735   0.084
 2834SOL    HW2 8525   3.124   3.738   0.188
 2835SOL     OW 8526   3.162   4.177   0.691
 2835SOL    HW1 8527   3.103   4.257   0.695
 2835SOL    HW2 8528   3.177   4.142   0.784
 2836SOL     OW 8529   3.455   3.945   0.882
 2836SOL    HW1 8530   3.371   3.944   0.936
 2836SOL    HW2 8531   3.457   4.028   0.826
 2837SOL     OW 8532   1.901   4.801   0.300
 2837SOL    HW1 8533   2.000   4.790   0.291
 2837SOL    HW2 8534   1.861   4.715   0.332
 2838SOL     OW 8535   2.092   4.352   1.975
 2838SOL    HW1 8536   1.999   4.350   2.012
 2838SOL    HW2 8537   2.093   4.313   1.883
 2839SOL     OW 8538   2.087   3.999   2.858
 2839SOL    HW1 8539   2.122   3.982   2.950
 2839SOL    HW2 8540   1.999   3.954   2.846
 2840SOL     OW 8541   1.881   4.092   2.509
 2840SOL    HW1 8542   1.799   4.135   2.548
 2840SOL    HW2 8543   1.853   4.019   2.446
 2841SOL     OW 8544   2.997   4.427   2.579
 2841SOL    HW1 8545   3.054   4.505   2.554
 2841SOL    HW2 8546   2.937   4.453   2.655
 2842SOL     OW 8547   3.617   4.331   2.093
 2842SOL    HW1 8548   3.605   4.318   1.994
 2842SOL    HW2 8549   3.587   4.250   2.142
 2843SOL     OW 8550   2.630   4.868   2.885
 2843SOL    HW1 8551   2.552   4.885   2.945
 2843SOL    HW2 8552   2.664   4.955   2.849
 2844SOL     OW 8553   2.712   4.522   3.685
 2844SOL    HW1 8554   2.708   4.598   3.750
 2844SOL    HW2 8555   2.734   4.558   3.594
 2845SOL     OW 8556   2.547   4.736   2.527
 2845SOL    HW1 8557   2.616   4.720   2.597
 2845SOL    HW2 8558   2.474   4.793   2.565
 2846SOL     OW 8559   2.548   4.885   3.665
 2846SOL    HW1 8560   2.608   4.964   3.679
 2846SOL    HW2 8561   2.462   4.916   3.624
 2847SOL     OW 8562   2.197   5.159   2.923
 2847SOL    HW1 8563   2.119   5.128   2.870
 2847SOL    HW2 8564   2.255   5.217   2.866
 2848SOL     OW 8565   2.300   4.116   3.361
 2848SOL    HW1 8566   2.382   4.060   3.370
 2848SOL    HW2 8567   2.219   4.058   3.365
 2849SOL     OW 8568   3.465   4.171   2.599
 2849SOL    HW1 8569   3.391   4.217   2.549
 2849SOL    HW2 8570   3.516   4.239   2.652
 2850SOL     OW 8571   2.102   4.815   2.748
 2850SOL    HW1 8572   2.116   4.731   2.800
 2850SOL    HW2 8573   2.047   4.879   2.803
 2851SOL     OW 8574   2.468   4.688   1.985
 2851SOL    HW1 8575   2.475   4.772   1.931
 2851SOL    HW2 8576   2.514   4.701   2.073
 2852SOL     OW 8577   3.456   3.838   3.342
 2852SOL    HW1 8578   3.438   3.905   3.270
 2852SOL    HW2 8579   3.453   3.884   3.431
 2853SOL     OW 8580   1.984   4.367   2.425
 2853SOL    HW1 8581   1.939   4.279   2.442
 2853SOL    HW2 8582   1.983   4.421   2.509
 2854SOL     OW 8583   3.551   4.646   2.474
 2854SOL    HW1 8584   3.646   4.617   2.482
 2854SOL    HW2 8585   3.543   4.711   2.399
 2855SOL     OW 8586   3.503   4.832   2.294
 2855SOL    HW1 8587   3.589   4.834   2.242
 2855SOL    HW2 8588   3.517   4.879   2.382
 2856SOL     OW 8589   1.975   4.461   3.459
 2856SOL    HW1 8590   2.063   4.448   3.504
 2856SOL    HW2 8591   1.962   4.558   3.437
 2857SOL     OW 8592   3.155   4.952   3.285
 2857SOL    HW1 8593   3.192   4.879   3.227
 2857SOL    HW2 8594   3.207   4.957   3.370
 2858SOL     OW 8595   2.671   3.728   2.364
 2858SOL    HW1 8596   2.711   3.819   2.355
 2858SOL    HW2 8597   2.571   3.736   2.370
 2859SOL     OW 8598   2.059   4.700   3.126
 2859SOL    HW1 8599   2.148   4.655   3.112
 2859SOL    HW2 8600   1.986   4.635   3.107
 2860SOL     OW 8601   3.387   4.723   2.052
 2860SOL    HW1 8602   3.324   4.647   2.065
 2860SOL    HW2 8603   3.435   4.741   2.138
 2861SOL     OW 8604   2.179   3.975   3.663
 2861SOL    HW1 8605   2.250   4.046   3.669
 2861SOL    HW2 8606   2.091   4.014   3.691
 2862SOL     OW 8607   2.460   4.453   2.132
 2862SOL    HW1 8608   2.484   4.522   2.064
 2862SOL    HW2 8609   2.382   4.486   2.186
 2863SOL     OW 8610   3.143   4.069   2.806
 2863SOL    HW1 8611   3.057   4.019   2.793
 2863SOL    HW2 8612   3.205   4.015   2.862
 2864SOL     OW 8613   2.669   4.329   3.327
 2864SOL    HW1 8614   2.622   4.326   3.416
 2864SOL    HW2 8615   2.618   4.274   3.261
 2865SOL     OW 8616   3.256   4.193   3.536
 2865SOL    HW1 8617   3.236   4.236   3.624
 2865SOL    HW2 8618   3.334   4.131   3.545
 2866SOL     OW 8619   2.835   4.614   3.434
 2866SOL    HW1 8620   2.881   4.530   3.405
 2866SOL    HW2 8621   2.779   4.648   3.359
 2867SOL     OW 8622   2.853   4.134   3.104
 2867SOL    HW1 8623   2.776   4.168   3.158
 2867SOL    HW2 8624   2.819   4.083   3.025
 2868SOL     OW 8625   2.903   4.425   2.291
 2868SOL    HW1 8626   2.929   4.421   2.387
 2868SOL    HW2 8627   2.818   4.374   2.277
 2869SOL     OW 8628   1.938   4.535   2.651
 2869SOL    HW1 8629   2.037   4.523   2.660
 2869SOL    HW2 8630   1.914   4.630   2.672
 2870SOL     OW 8631   2.727   4.072   2.057
 2870SOL    HW1 8632   2.786   4.135   2.008
 2870SOL    HW2 8633   2.746   3.978   2.028
 2871SOL     OW 8634   3.581   4.309   3.693
 2871SOL    HW1 8635   3.555   4.398   3.657
 2871SOL    HW2 8636   3.579   4.241   3.620
 2872SOL     OW 8637   3.224   4.868   2.407
 2872SOL    HW1 8638   3.307   4.839   2.359
 2872SOL    HW2 8639   3.175   4.935   2.351
 2873SOL     OW 8640   2.412   3.920   2.747
 2873SOL    HW1 8641   2.407   3.915   2.847
 2873SOL    HW2 8642   2.414   4.016   2.718
 2874SOL     OW 8643   3.657   4.790   2.735
 2874SOL    HW1 8644   3.595   4.775   2.659
 2874SOL    HW2 8645   3.605   4.801   2.820
 2875SOL     OW 8646   2.183   4.667   2.104
 2875SOL    HW1 8647   2.265   4.706   2.062
 2875SOL    HW2 8648   2.156   4.585   2.055
 2876SOL     OW 8649   3.320   4.459   2.590
 2876SOL    HW1 8650   3.315   4.394   2.665
 2876SOL    HW2 8651   3.400   4.518   2.603
 2877SOL     OW 8652   2.064   4.009   3.360
 2877SOL    HW1 8653   1.984   4.069   3.347
 2877SOL    HW2 8654   2.054   3.960   3.446
 2878SOL     OW 8655   3.262   3.831   2.288
 2878SOL    HW1 8656   3.238   3.794   2.198
 2878SOL    HW2 8657   3.361   3.847   2.292
 2879SOL     OW 8658   2.244   4.424   2.342
 2879SOL    HW1 8659   2.289   4.334   2.339
 2879SOL    HW2 8660   2.150   4.413   2.375
 2880SOL     OW 8661   3.409   3.946   3.591
 2880SOL    HW1 8662   3.404   3.983   3.683
 2880SOL    HW2 8663   3.337   3.877   3.579
 2881SOL     OW 8664   2.476   3.846   1.979
 2881SOL    HW1 8665   2.574   3.824   1.986
 2881SOL    HW2 8666   2.445   3.829   1.886
 2882SOL     OW 8667   2.643   3.988   3.611
 2882SOL    HW1 8668   2.710   3.927   3.654
 2882SOL    HW2 8669   2.570   4.007   3.676
 2883SOL     OW 8670   3.213   4.314   3.295
 2883SOL    HW1 8671   3.241   4.271   3.380
 2883SOL    HW2 8672   3.238   4.410   3.296
 2884SOL     OW 8673   2.665   5.126   2.786
 2884SOL    HW1 8674   2.755   5.140   2.744
 2884SOL    HW2 8675   2.594   5.128   2.715
 2885SOL     OW 8676   2.784   4.227   2.761
 2885SOL    HW1 8677   2.759   4.218   2.665
 2885SOL    HW2 8678   2.832   4.145   2.792
 2886SOL     OW 8679   2.401   3.788   2.374
 2886SOL    HW1 8680   2.320   3.789   2.432
 2886SOL    HW2 8681   2.404   3.871   2.319
 2887SOL     OW 8682   2.159   3.759   2.033
 2887SOL    HW1 8683   2.208   3.843   2.012
 2887SOL    HW2 8684   2.221   3.694   2.078
 2888SOL     OW 8685   2.797   3.960   2.342
 2888SOL    HW1 8686   2.749   4.001   2.264
 2888SOL    HW2 8687   2.896   3.958   2.323
 2889SOL     OW 8688   2.938   4.407   3.326
 2889SOL    HW1 8689   2.858   4.346   3.329
 2889SOL    HW2 8690   3.019   4.354   3.302
 2890SOL     OW 8691   2.321   4.876   2.603
 2890SOL    HW1 8692   2.250   4.849   2.668
 2890SOL    HW2 8693   2.295   4.848   2.510
 2891SOL     OW 8694   2.894   4.273   1.878
 2891SOL    HW1 8695   2.853   4.355   1.839
 2891SOL    HW2 8696   2.958   4.299   1.951
 2892SOL     OW 8697   1.940   4.280   3.248
 2892SOL    HW1 8698   2.032   4.279   3.207
 2892SOL    HW2 8699   1.934   4.354   3.315
 2893SOL     OW 8700   2.423   3.946   3.009
 2893SOL    HW1 8701   2.461   3.862   3.046
 2893SOL    HW2 8702   2.335   3.965   3.053
 2894SOL     OW 8703   2.728   4.178   2.504
 2894SOL    HW1 8704   2.696   4.250   2.442
 2894SOL    HW2 8705   2.752   4.097   2.451
 2895SOL     OW 8706   2.879   3.763   2.615
 2895SOL    HW1 8707   2.807   3.768   2.546
 2895SOL    HW2 8708   2.855   3.694   2.684
 2896SOL     OW 8709   3.291   4.897   2.729
 2896SOL    HW1 8710   3.236   4.813   2.722
 2896SOL    HW2 8711   3.317   4.926   2.637
 2897SOL     OW 8712   3.328   4.314   2.854
 2897SOL    HW1 8713   3.298   4.219   2.861
 2897SOL    HW2 8714   3.401   4.330   2.920
 2898SOL     OW 8715   3.719   4.557   2.239
 2898SOL    HW1 8716   3.761   4.493   2.303
 2898SOL    HW2 8717   3.681   4.506   2.161
 2899SOL     OW 8718   3.252   4.299   1.940
 2899SOL    HW1 8719   3.198   4.278   2.021
 2899SOL    HW2 8720   3.343   4.258   1.949
 2900SOL     OW 8721   2.389   3.980   2.190
 2900SOL    HW1 8722   2.416   3.921   2.115
 2900SOL    HW2 8723   2.389   4.075   2.159
 2901SOL     OW 8724   3.616   4.947   3.450
 2901SOL    HW1 8725   3.707   4.908   3.437
 2901SOL    HW2 8726   3.624   5.043   3.474
 2902SOL     OW 8727   3.500   4.823   2.941
 2902SOL    HW1 8728   3.505   4.904   3.000
 2902SOL    HW2 8729   3.414   4.825   2.890
 2903SOL     OW 8730   2.777   3.813   3.264
 2903SOL    HW1 8731   2.802   3.793   3.169
 2903SOL    HW2 8732   2.849   3.869   3.306
 2904SOL     OW 8733   2.842   4.840   3.581
 2904SOL    HW1 8734   2.743   4.846   3.591
 2904SOL    HW2 8735   2.865   4.760   3.525
 2905SOL     OW 8736   2.567   4.774   2.230
 2905SOL    HW1 8737   2.553   4.781   2.329
 2905SOL    HW2 8738   2.651   4.723   2.212
 2906SOL     OW 8739   2.272   4.537   3.113
 2906SOL    HW1 8740   2.358   4.549   3.163
 2906SOL    HW2 8741   2.230   4.450   3.140
 2907SOL     OW 8742   3.136   4.110   3.124
 2907SOL    HW1 8743   3.157   4.184   3.188
 2907SOL    HW2 8744   3.047   4.127   3.081
 2908SOL     OW 8745   2.229   4.824   2.363
 2908SOL    HW1 8746   2.222   4.907   2.307
 2908SOL    HW2 8747   2.233   4.744   2.303
 2909SOL     OW 8748   2.428   4.261   2.727
 2909SOL    HW1 8749   2.440   4.327   2.653
 2909SOL    HW2 8750   2.474   4.295   2.810
 2910SOL     OW 8751   3.444   4.363   2.334
 2910SOL    HW1 8752   3.413   4.424   2.407
 2910SOL    HW2 8753   3.494   4.415   2.265
 2911SOL     OW 8754   2.264   4.475   3.460
 2911SOL    HW1 8755   2.332   4.530   3.413
 2911SOL    HW2 8756   2.304   4.387   3.487
 2912SOL     OW 8757   3.449   4.503   3.532
 2912SOL    HW1 8758   3.357   4.541   3.527
 2912SOL    HW2 8759   3.509   4.550   3.467
 2913SOL     OW 8760   2.875   3.829   3.632
 2913SOL    HW1 8761   2.881   3.914   3.580
 2913SOL    HW2 8762   2.907   3.753   3.575
 2914SOL     OW 8763   2.366   3.774   3.602
 2914SOL    HW1 8764   2.324   3.717   3.532
 2914SOL    HW2 8765   2.300   3.843   3.634
 2915SOL     OW 8766   2.435   4.594   2.891
 2915SOL    HW1 8767   2.479   4.683   2.882
 2915SOL    HW2 8768   2.372   4.594   2.968
 2916SOL     OW 8769   3.222   4.586   2.907
 2916SOL    HW1 8770   3.147   4.586   2.841
 2916SOL    HW2 8771   3.259   4.494   2.916
 2917SOL     OW 8772   3.071   4.249   2.137
 2917SOL    HW1 8773   3.084   4.165   2.191
 2917SOL    HW2 8774   3.042   4.323   2.197
 2918SOL     OW 8775   2.169   3.937   3.093
 2918SOL    HW1 8776   2.146   3.974   3.183
 2918SOL    HW2 8777   2.139   3.842   3.087
 2919SOL     OW 8778   2.594   4.358   2.926
 2919SOL    HW1 8779   2.653   4.332   2.850
 2919SOL    HW2 8780   2.566   4.454   2.915
 2920SOL     OW 8781   3.590   4.659   3.716
 2920SOL    HW1 8782   3.544   4.652   3.627
 2920SOL    HW2 8783   3.528   4.703   3.782
 2921SOL     OW 8784   2.169   3.787   2.480
 2921SOL    HW1 8785   2.158   3.881   2.513
 2921SOL    HW2 8786   2.164   3.724   2.557
 2922SOL     OW 8787   3.484   4.091   2.236
 2922SOL    HW1 8788   3.486   4.015   2.300
 2922SOL    HW2 8789   3.436   4.168   2.276
 2923SOL     OW 8790   2.885   4.490   2.828
 2923SOL    HW1 8791   2.900   4.511   2.924
 2923SOL    HW2 8792   2.855   4.395   2.819
 2924SOL     OW 8793   3.721   5.242   3.467
 2924SOL    HW1 8794   3.735   5.269   3.372
 2924SOL    HW2 8795   3.804   5.264   3.520
 2925SOL     OW 8796   2.212   4.622   3.666
 2925SOL    HW1 8797   2.288   4.666   3.714
 2925SOL    HW2 8798   2.247   4.575   3.584
 2926SOL     OW 8799   3.402   3.998   1.987
 2926SOL    HW1 8800   3.341   3.923   2.010
 2926SOL    HW2 8801   3.424   4.050   2.070
 2927SOL     OW 8802   3.165   4.562   1.904
 2927SOL    HW1 8803   3.199   4.469   1.919
 2927SOL    HW2 8804   3.183   4.589   1.809
 2928SOL     OW 8805   2.181   4.534   2.811
 2928SOL    HW1 8806   2.274   4.570   2.816
 2928SOL    HW2 8807   2.175   4.449   2.863
 2929SOL     OW 8808   2.201   4.233   2.868
 2929SOL    HW1 8809   2.149   4.150   2.851
 2929SOL    HW2 8810   2.278   4.238   2.804
 2930SOL     OW 8811   3.000   4.104   3.540
 2930SOL    HW1 8812   2.955   4.167   3.604
 2930SOL    HW2 8813   3.093   4.135   3.523
 2931SOL     OW 8814   3.022   3.931   3.339
 2931SOL    HW1 8815   3.022   3.995   3.416
 2931SOL    HW2 8816   3.050   3.979   3.256
 2932SOL     OW 8817   1.870   5.050   2.062
 2932SOL    HW1 8818   1.777   5.071   2.031
 2932SOL    HW2 8819   1.880   4.951   2.075
 2933SOL     OW 8820   2.864   4.520   3.100
 2933SOL    HW1 8821   2.905   4.488   3.186
 2933SOL    HW2 8822   2.768   4.493   3.097
 2934SOL     OW 8823   1.902   4.268   2.976
 2934SOL    HW1 8824   1.987   4.235   2.935
 2934SOL    HW2 8825   1.915   4.283   3.074
 2935SOL     OW 8826   2.051   4.244   3.584
 2935SOL    HW1 8827   2.110   4.204   3.514
 2935SOL    HW2 8828   1.993   4.315   3.543
 2936SOL     OW 8829   3.231   4.674   3.522
 2936SOL    HW1 8830   3.270   4.763   3.542
 2936SOL    HW2 8831   3.241   4.654   3.425
 2937SOL     OW 8832   2.677   4.296   2.187
 2937SOL    HW1 8833   2.684   4.207   2.141
 2937SOL    HW2 8834   2.583   4.330   2.179
 2938SOL     OW 8835   3.519   4.328   3.068
 2938SOL    HW1 8836   3.481   4.259   3.130
 2938SOL    HW2 8837   3.601   4.292   3.024
 2939SOL     OW 8838   2.533   4.188   3.131
 2939SOL    HW1 8839   2.499   4.099   3.101
 2939SOL    HW2 8840   2.559   4.242   3.051
 2940SOL     OW 8841   2.335   4.224   2.053
 2940SOL    HW1 8842   2.396   4.304   2.057
 2940SOL    HW2 8843   2.240   4.255   2.060
 2941SOL     OW 8844   2.021   4.861   3.328
 2941SOL    HW1 8845   2.043   4.800   3.404
 2941SOL    HW2 8846   2.031   4.812   3.242
 2942SOL     OW 8847   3.209   4.783   3.096
 2942SOL    HW1 8848   3.233   4.720   3.022
 2942SOL    HW2 8849   3.119   4.823   3.078
 2943SOL     OW 8850   3.164   4.579   2.171
 2943SOL    HW1 8851   3.078   4.548   2.213
 2943SOL    HW2 8852   3.160   4.565   2.072
 2944SOL     OW 8853   1.945   4.982   2.884
 2944SOL    HW1 8854   1.940   4.981   2.984
 2944SOL    HW2 8855   1.862   4.941   2.846
 2945SOL     OW 8856   3.588   3.859   2.385
 2945SOL    HW1 8857   3.661   3.842   2.318
 2945SOL    HW2 8858   3.557   3.772   2.423
 2946SOL     OW 8859   3.142   4.651   2.534
 2946SOL    HW1 8860   3.202   4.570   2.536
 2946SOL    HW2 8861   3.182   4.720   2.474
 2947SOL     OW 8862   3.703   3.899   2.825
 2947SOL    HW1 8863   3.742   3.814   2.789
 2947SOL    HW2 8864   3.605   3.901   2.806
 2948SOL     OW 8865   2.125   4.050   2.582
 2948SOL    HW1 8866   2.046   4.101   2.548
 2948SOL    HW2 8867   2.116   4.035   2.680
 2949SOL     OW 8868   3.056   5.336   1.893
 2949SOL    HW1 8869   3.062   5.243   1.930
 2949SOL    HW2 8870   2.997   5.336   1.813
 2950SOL     OW 8871   2.684   4.726   3.234
 2950SOL    HW1 8872   2.724   4.725   3.142
 2950SOL    HW2 8873   2.694   4.818   3.274
 2951SOL     OW 8874   2.778   4.634   2.153
 2951SOL    HW1 8875   2.841   4.672   2.085
 2951SOL    HW2 8876   2.818   4.551   2.192
 2952SOL     OW 8877   2.234   5.012   3.352
 2952SOL    HW1 8878   2.221   5.105   3.318
 2952SOL    HW2 8879   2.150   4.960   3.339
 2953SOL     OW 8880   3.476   5.016   3.151
 2953SOL    HW1 8881   3.536   5.019   3.231
 2953SOL    HW2 8882   3.401   5.080   3.164
 2954SOL     OW 8883   2.901   4.822   2.558
 2954SOL    HW1 8884   2.831   4.775   2.612
 2954SOL    HW2 8885   2.960   4.754   2.515
 2955SOL     OW 8886   2.876   3.960   2.833
 2955SOL    HW1 8887   2.868   3.924   2.740
 2955SOL    HW2 8888   2.874   3.884   2.898
 2956SOL     OW 8889   3.571   4.109   3.243
 2956SOL    HW1 8890   3.644   4.178   3.247
 2956SOL    HW2 8891   3.599   4.034   3.184
 2957SOL     OW 8892   1.967   4.737   3.588
 2957SOL    HW1 8893   1.890   4.704   3.642
 2957SOL    HW2 8894   2.052   4.707   3.630
 2958SOL     OW 8895   2.534   3.927   3.351
 2958SOL    HW1 8896   2.624   3.911   3.311
 2958SOL    HW2 8897   2.542   3.932   3.450
 2959SOL     OW 8898   1.937   4.069   1.895
 2959SOL    HW1 8899   1.845   4.041   1.866
 2959SOL    HW2 8900   1.968   4.146   1.839
 2960SOL     OW 8901   3.302   4.580   3.260
 2960SOL    HW1 8902   3.245   4.632   3.197
 2960SOL    HW2 8903   3.398   4.592   3.236
 2961SOL     OW 8904   1.934   3.890   2.180
 2961SOL    HW1 8905   1.917   3.973   2.126
 2961SOL    HW2 8906   2.024   3.853   2.158
 2962SOL     OW 8907   2.475   4.566   3.293
 2962SOL    HW1 8908   2.531   4.647   3.276
 2962SOL    HW2 8909   2.534   4.486   3.296
 2963SOL     OW 8910   2.578   4.289   3.570
 2963SOL    HW1 8911   2.597   4.354   3.644
 2963SOL    HW2 8912   2.638   4.209   3.579
 2964SOL     OW 8913   3.312   4.944   3.495
 2964SOL    HW1 8914   3.303   4.934   3.594
 2964SOL    HW2 8915   3.408   4.937   3.469
 2965SOL     OW 8916   3.536   4.607   3.116
 2965SOL    HW1 8917   3.509   4.518   3.079
 2965SOL    HW2 8918   3.537   4.675   3.043
 2966SOL     OW 8919   3.087   4.049   2.311
 2966SOL    HW1 8920   3.152   3.975   2.300
 2966SOL    HW2 8921   3.107   4.099   2.395
 2967SOL     OW 8922   2.456   4.469   2.514
 2967SOL    HW1 8923   2.506   4.554   2.495
 2967SOL    HW2 8924   2.368   4.471   2.466
 2968SOL     OW 8925   3.639   4.066   3.504
 2968SOL    HW1 8926   3.622   4.097   3.410
 2968SOL    HW2 8927   3.555   4.029   3.542
 2969SOL     OW 8928   3.592   4.658   3.379
 2969SOL    HW1 8929   3.630   4.749   3.394
 2969SOL    HW2 8930   3.584   4.641   3.280
 2970SOL     OW 8931   2.721   4.680   2.723
 2970SOL    HW1 8932   2.775   4.611   2.771
 2970SOL    HW2 8933   2.689   4.749   2.789
 2971SOL     OW 8934   2.945   4.708   1.949
 2971SOL    HW1 8935   2.922   4.761   1.867
 2971SOL    HW2 8936   3.026   4.652   1.930
 2972SOL     OW 8937   1.941   4.964   2.515
 2972SOL    HW1 8938   1.940   4.917   2.603
 2972SOL    HW2 8939   2.023   4.936   2.464
 2973SOL     OW 8940   3.686   3.916   3.089
 2973SOL    HW1 8941   3.682   3.826   3.133
 2973SOL    HW2 8942   3.689   3.905   2.990
 2974SOL     OW 8943   2.290   4.148   2.382
 2974SOL    HW1 8944   2.320   4.076   2.320
 2974SOL    HW2 8945   2.251   4.108   2.465
 2975SOL     OW 8946   2.179   4.271   3.142
 2975SOL    HW1 8947   2.217   4.212   3.214
 2975SOL    HW2 8948   2.219   4.245   3.054
 2976SOL     OW 8949   3.286   3.938   2.974
 2976SOL    HW1 8950   3.338   3.873   3.029
 2976SOL    HW2 8951   3.237   4.001   3.035
 2977SOL     OW 8952   2.863   3.758   3.016
 2977SOL    HW1 8953   2.800   3.686   2.985
 2977SOL    HW2 8954   2.956   3.722   3.016
 2978SOL     OW 8955   2.632   5.054   2.163
 2978SOL    HW1 8956   2.586   4.967   2.180
 2978SOL    HW2 8957   2.723   5.051   2.204
 2979SOL     OW 8958   3.214   3.776   2.030
 2979SOL    HW1 8959   3.249   3.735   1.946
 2979SOL    HW2 8960   3.124   3.738   2.050
 2980SOL     OW 8961   3.162   4.177   2.553
 2980SOL    HW1 8962   3.103   4.257   2.557
 2980SOL    HW2 8963   3.177   4.142   2.646
 2981SOL     OW 8964   3.455   3.945   2.744
 2981SOL    HW1 8965   3.371   3.944   2.798
 2981SOL    HW2 8966   3.457   4.028   2.688
 2982SOL     OW 8967   1.901   4.801   2.162
 2982SOL    HW1 8968   2.000   4.790   2.153
 2982SOL    HW2 8969   1.861   4.715   2.194
 2983SOL     OW 8970   2.092   4.352   3.837
 2983SOL    HW1 8971   1.999   4.350   3.874
 2983SOL    HW2 8972   2.093   4.313   3.745
 2984SOL     OW 8973   2.087   3.999   4.720
 2984SOL    HW1 8974   2.122   3.982   4.812
 2984SOL    HW2 8975   1.999   3.954   4.708
 2985SOL     OW 8976   1.881   4.092   4.371
 2985SOL    HW1 8977   1.799   4.135   4.410
 2985SOL    HW2 8978   1.853   4.019   4.308
 2986SOL     OW 8979   2.997   4.427   4.441
 2986SOL    HW1 8980   3.054   4.505   4.416
 2986SOL    HW2 8981   2.937   4.453   4.517
 2987SOL     OW 8982   3.617   4.331   3.955
 2987SOL    HW1 8983   3.605   4.318   3.856
 2987SOL    HW2 8984   3.587   4.250   4.004
 2988SOL     OW 8985   2.630   4.868   4.747
 2988SOL    HW1 8986   2.552   4.885   4.807
 2988SOL    HW2 8987   2.664   4.955   4.711
 2989SOL     OW 8988   2.547   4.736   4.389
 2989SOL    HW1 8989   2.616   4.720   4.459
 2989SOL    HW2 8990   2.474   4.793   4.427
 2990SOL     OW 8991   2.197   5.159   4.785
 2990SOL    HW1 8992   2.119   5.128   4.732
 2990SOL    HW2 8993   2.255   5.217   4.728
 2991SOL     OW 8994   3.465   4.171   4.461
 2991SOL    HW1 8995   3.391   4.217   4.411
 2991SOL    HW2 8996   3.516   4.239   4.514
 2992SOL     OW 8997   2.102   4.815   4.610
 2992SOL    HW1 8998   2.116   4.731   4.662
 2992SOL    HW2 8999   2.047   4.879   4.665
 2993SOL     OW 9000   2.468   4.688   3.847
 2993SOL    HW1 9001   2.475   4.772   3.793
 2993SOL    HW2 9002   2.514   4.701   3.935
 2994SOL     OW 9003   1.984   4.367   4.287
 2994SOL    HW1 9004   1.939   4.279   4.304
 2994SOL    HW2 9005   1.983   4.421   4.371
 2995SOL     OW 9006   3.551   4.646   4.336
 2995SOL    HW1 9007   3.646   4.617   4.344
 2995SOL    HW2 9008   3.543   4.711   4.261
 2996SOL     OW 9009   3.503   4.832   4.156
 2996SOL    HW1 9010   3.589   4.834   4.104
 2996SOL    HW2 9011   3.517   4.879   4.244
 2997SOL     OW 9012   1.975   4.461   5.321
 2997SOL    HW1 9013   2.063   4.448   5.366
 2997SOL    HW2 9014   1.962   4.558   5.299
 2998SOL     OW 9015   2.671   3.728   4.226
 2998SOL    HW1 9016   2.711   3.819   4.217
 2998SOL    HW2 9017   2.571   3.736   4.232
 2999SOL     OW 9018   2.059   4.700   4.988
 2999SOL    HW1 9019   2.148   4.655   4.974
 2999SOL    HW2 9020   1.986   4.635   4.969
 3000SOL     OW 9021   3.387   4.723   3.914
 3000SOL    HW1 9022   3.324   4.647   3.927
 3000SOL    HW2 9023   3.435   4.741   4.000
 3001SOL     OW 9024   2.460   4.453   3.994
 3001SOL    HW1 9025   2.484   4.522   3.926
 3001SOL    HW2 9026   2.382   4.486   4.048
 3002SOL     OW 9027   3.143   4.069   4.668
 3002SOL    HW1 9028   3.057   4.019   4.655
 3002SOL    HW2 9029   3.205   4.015   4.724
 3003SOL     OW 9030   2.853   4.134   4.966
 3003SOL    HW1 9031   2.776   4.168   5.020
 3003SOL    HW2 9032   2.819   4.083   4.887
 3004SOL     OW 9033   2.903   4.425   4.153
 3004SOL    HW1 9034   2.929   4.421   4.249
 3004SOL    HW2 9035   2.818   4.374   4.139
 3005SOL     OW 9036   1.938   4.535   4.513
 3005SOL    HW1 9037   2.037   4.523   4.522
 3005SOL    HW2 9038   1.914   4.630   4.534
 3006SOL     OW 9039   2.727   4.072   3.919
 3006SOL    HW1 9040   2.786   4.135   3.870
 3006SOL    HW2 9041   2.746   3.978   3.890
 3007SOL     OW 9042   3.224   4.868   4.269
 3007SOL    HW1 9043   3.307   4.839   4.221
 3007SOL    HW2 9044   3.175   4.935   4.213
 3008SOL     OW 9045   2.412   3.920   4.609
 3008SOL    HW1 9046   2.407   3.915   4.709
 3008SOL    HW2 9047   2.414   4.016   4.580
 3009SOL     OW 9048   3.657   4.790   4.597
 3009SOL    HW1 9049   3.595   4.775   4.521
 3009SOL    HW2 9050   3.605   4.801   4.682
 3010SOL     OW 9051   2.183   4.667   3.966
 3010SOL    HW1 9052   2.265   4.706   3.924
 3010SOL    HW2 9053   2.156   4.585   3.917
 3011SOL     OW 9054   3.320   4.459   4.452
 3011SOL    HW1 9055   3.315   4.394   4.527
 3011SOL    HW2 9056   3.400   4.518   4.465
 3012SOL     OW 9057   3.262   3.831   4.150
 3012SOL    HW1 9058   3.238   3.794   4.060
 3012SOL    HW2 9059   3.361   3.847   4.154
 3013SOL     OW 9060   2.244   4.424   4.204
 3013SOL    HW1 9061   2.289   4.334   4.201
 3013SOL    HW2 9062   2.150   4.413   4.237
 3014SOL     OW 9063   2.476   3.846   3.841
 3014SOL    HW1 9064   2.574   3.824   3.848
 3014SOL    HW2 9065   2.445   3.829   3.748
 3015SOL     OW 9066   2.665   5.126   4.648
 3015SOL    HW1 9067   2.755   5.140   4.606
 3015SOL    HW2 9068   2.594   5.128   4.577
 3016SOL     OW 9069   2.784   4.227   4.623
 3016SOL    HW1 9070   2.759   4.218   4.527
 3016SOL    HW2 9071   2.832   4.145   4.654
 3017SOL     OW 9072   2.401   3.788   4.236
 3017SOL    HW1 9073   2.320   3.789   4.294
 3017SOL    HW2 9074   2.404   3.871   4.181
 3018SOL     OW 9075   2.159   3.759   3.895
 3018SOL    HW1 9076   2.208   3.843   3.874
 3018SOL    HW2 9077   2.221   3.694   3.940
 3019SOL     OW 9078   2.797   3.960   4.204
 3019SOL    HW1 9079   2.749   4.001   4.126
 3019SOL    HW2 9080   2.896   3.958   4.185
 3020SOL     OW 9081   2.321   4.876   4.465
 3020SOL    HW1 9082   2.250   4.849   4.530
 3020SOL    HW2 9083   2.295   4.848   4.372
 3021SOL     OW 9084   2.894   4.273   3.740
 3021SOL    HW1 9085   2.853   4.355   3.701
 3021SOL    HW2 9086   2.958   4.299   3.813
 3022SOL     OW 9087   2.423   3.946   4.871
 3022SOL    HW1 9088   2.461   3.862   4.908
 3022SOL    HW2 9089   2.335   3.965   4.915
 3023SOL     OW 9090   2.728   4.178   4.366
 3023SOL    HW1 9091   2.696   4.250   4.304
 3023SOL    HW2 9092   2.752   4.097   4.313
 3024SOL     OW 9093   2.879   3.763   4.477
 3024SOL    HW1 9094   2.807   3.768   4.408
 3024SOL    HW2 9095   2.855   3.694   4.546
 3025SOL     OW 9096   3.291   4.897   4.591
 3025SOL    HW1 9097   3.236   4.813   4.584
 3025SOL    HW2 9098   3.317   4.926   4.499
 3026SOL     OW 9099   3.328   4.314   4.716
 3026SOL    HW1 9100   3.298   4.219   4.723
 3026SOL    HW2 9101   3.401   4.330   4.782
 3027SOL     OW 9102   3.719   4.557   4.101
 3027SOL    HW1 9103   3.761   4.493   4.165
 3027SOL    HW2 9104   3.681   4.506   4.023
 3028SOL     OW 9105   3.252   4.299   3.802
 3028SOL    HW1 9106   3.198   4.278   3.883
 3028SOL    HW2 9107   3.343   4.258   3.811
 3029SOL     OW 9108   2.389   3.980   4.052
 3029SOL    HW1 9109   2.416   3.921   3.977
 3029SOL    HW2 9110   2.389   4.075   4.021
 3030SOL     OW 9111   3.500   4.823   4.803
 3030SOL    HW1 9112   3.505   4.904   4.862
 3030SOL    HW2 9113   3.414   4.825   4.752
 3031SOL     OW 9114   2.567   4.774   4.092
 3031SOL    HW1 9115   2.553   4.781   4.191
 3031SOL    HW2 9116   2.651   4.723   4.074
 3032SOL     OW 9117   2.272   4.537   4.975
 3032SOL    HW1 9118   2.358   4.549   5.025
 3032SOL    HW2 9119   2.230   4.450   5.002
 3033SOL     OW 9120   3.136   4.110   4.986
 3033SOL    HW1 9121   3.157   4.184   5.050
 3033SOL    HW2 9122   3.047   4.127   4.943
 3034SOL     OW 9123   2.229   4.824   4.225
 3034SOL    HW1 9124   2.222   4.907   4.169
 3034SOL    HW2 9125   2.233   4.744   4.165
 3035SOL     OW 9126   2.428   4.261   4.589
 3035SOL    HW1 9127   2.440   4.327   4.515
 3035SOL    HW2 9128   2.474   4.295   4.672
 3036SOL     OW 9129   3.444   4.363   4.196
 3036SOL    HW1 9130   3.413   4.424   4.269
 3036SOL    HW2 9131   3.494   4.415   4.127
 3037SOL     OW 9132   2.435   4.594   4.753
 3037SOL    HW1 9133   2.479   4.683   4.744
 3037SOL    HW2 9134   2.372   4.594   4.830
 3038SOL     OW 9135   3.222   4.586   4.769
 3038SOL    HW1 9136   3.147   4.586   4.703
 3038SOL    HW2 9137   3.259   4.494   4.778
 3039SOL     OW 9138   3.071   4.249   3.999
 3039SOL    HW1 9139   3.084   4.165   4.053
 3039SOL    HW2 9140   3.042   4.323   4.059
 3040SOL     OW 9141   2.169   3.937   4.955
 3040SOL    HW1 9142   2.146   3.974   5.045
 3040SOL    HW2 9143   2.139   3.842   4.949
 3041SOL     OW 9144   2.594   4.358   4.788
 3041SOL    HW1 9145   2.653   4.332   4.712
 3041SOL    HW2 9146   2.566   4.454   4.777
 3042SOL     OW 9147   2.169   3.787   4.342
 3042SOL    HW1 9148   2.158   3.881   4.375
 3042SOL    HW2 9149   2.164   3.724   4.419
 3043SOL     OW 9150   3.484   4.091   4.098
 3043SOL    HW1 9151   3.486   4.015   4.162
 3043SOL    HW2 9152   3.436   4.168   4.138
 3044SOL     OW 9153   2.885   4.490   4.690
 3044SOL    HW1 9154   2.900   4.511   4.786
 3044SOL    HW2 9155   2.855   4.395   4.681
 3045SOL     OW 9156   3.402   3.998   3.849
 3045SOL    HW1 9157   3.341   3.923   3.872
 3045SOL    HW2 9158   3.424   4.050   3.932
 3046SOL     OW 9159   3.165   4.562   3.766
 3046SOL    HW1 9160   3.199   4.469   3.781
 3046SOL    HW2 9161   3.183   4.589   3.671
 3047SOL     OW 9162   2.181   4.534   4.673
 3047SOL    HW1 9163   2.274   4.570   4.678
 3047SOL    HW2 9164   2.175   4.449   4.725
 3048SOL     OW 9165   2.201   4.233   4.730
 3048SOL    HW1 9166   2.149   4.150   4.713
 3048SOL    HW2 9167   2.278   4.238   4.666
 3049SOL     OW 9168   3.022   3.931   5.201
 3049SOL    HW1 9169   3.022   3.995   5.278
 3049SOL    HW2 9170   3.050   3.979   5.118
 3050SOL     OW 9171   1.870   5.050   3.924
 3050SOL    HW1 9172   1.777   5.071   3.893
 3050SOL    HW2 9173   1.880   4.951   3.937
 3051SOL     OW 9174   2.864   4.520   4.962
 3051SOL    HW1 9175   2.905   4.488   5.048
 3051SOL    HW2 9176   2.768   4.493   4.959
 3052SOL     OW 9177   1.902   4.268   4.838
 3052SOL    HW1 9178   1.987   4.235   4.797
 3052SOL    HW2 9179   1.915   4.283   4.936
 3053SOL     OW 9180   2.677   4.296   4.049
 3053SOL    HW1 9181   2.684   4.207   4.003
 3053SOL    HW2 9182   2.583   4.330   4.041
 3054SOL     OW 9183   3.519   4.328   4.930
 3054SOL    HW1 9184   3.481   4.259   4.992
 3054SOL    HW2 9185   3.601   4.292   4.886
 3055SOL     OW 9186   2.533   4.188   4.993
 3055SOL    HW1 9187   2.499   4.099   4.963
 3055SOL    HW2 9188   2.559   4.242   4.913
 3056SOL     OW 9189   2.335   4.224   3.915
 3056SOL    HW1 9190   2.396   4.304   3.919
 3056SOL    HW2 9191   2.240   4.255   3.922
 3057SOL     OW 9192   3.209   4.783   4.958
 3057SOL    HW1 9193   3.233   4.720   4.884
 3057SOL    HW2 9194   3.119   4.823   4.940
 3058SOL     OW 9195   3.164   4.579   4.033
 3058SOL    HW1 9196   3.078   4.548   4.075
 3058SOL    HW2 9197   3.160   4.565   3.934
 3059SOL     OW 9198   1.945   4.982   4.746
 3059SOL    HW1 9199   1.940   4.981   4.846
 3059SOL    HW2 9200   1.862   4.941   4.708
 3060SOL     OW 9201   3.588   3.859   4.247
 3060SOL    HW1 9202   3.661   3.842   4.180
 3060SOL    HW2 9203   3.557   3.772   4.285
 3061SOL     OW 9204   3.142   4.651   4.396
 3061SOL    HW1 9205   3.202   4.570   4.398
 3061SOL    HW2 9206   3.182   4.720   4.336
 3062SOL     OW 9207   3.703   3.899   4.687
 3062SOL    HW1 9208   3.742   3.814   4.651
 3062SOL    HW2 9209   3.605   3.901   4.668
 3063SOL     OW 9210   2.125   4.050   4.444
 3063SOL    HW1 9211   2.046   4.101   4.410
 3063SOL    HW2 9212   2.116   4.035   4.542
 3064SOL     OW 9213   3.056   5.336   3.755
 3064SOL    HW1 9214   3.062   5.243   3.792
 3064SOL    HW2 9215   2.997   5.336   3.675
 3065SOL     OW 9216   2.684   4.726   5.096
 3065SOL    HW1 9217   2.724   4.725   5.004
 3065SOL    HW2 9218   2.694   4.818   5.136
 3066SOL     OW 9219   2.778   4.634   4.015
 3066SOL    HW1 9220   2.841   4.672   3.947
 3066SOL    HW2 9221   2.818   4.551   4.054
 3067SOL     OW 9222   3.476   5.016   5.013
 3067SOL    HW1 9223   3.536   5.019   5.093
 3067SOL    HW2 9224   3.401   5.080   5.026
 3068SOL     OW 9225   2.901   4.822   4.420
 3068SOL    HW1 9226   2.831   4.775   4.474
 3068SOL    HW2 9227   2.960   4.754   4.377
 3069SOL     OW 9228   2.876   3.960   4.695
 3069SOL    HW1 9229   2.868   3.924   4.602
 3069SOL    HW2 9230   2.874   3.884   4.760
 3070SOL     OW 9231   3.571   4.109   5.105
 3070SOL    HW1 9232   3.644   4.178   5.109
 3070SOL    HW2 9233   3.599   4.034   5.046
 3071SOL     OW 9234   1.937   4.069   3.757
 3071SOL    HW1 9235   1.845   4.041   3.728
 3071SOL    HW2 9236   1.968   4.146   3.701
 3072SOL     OW 9237   1.934   3.890   4.042
 3072SOL    HW1 9238   1.917   3.973   3.988
 3072SOL    HW2 9239   2.024   3.853   4.020
 3073SOL     OW 9240   3.536   4.607   4.978
 3073SOL    HW1 9241   3.509   4.518   4.941
 3073SOL    HW2 9242   3.537   4.675   4.905
 3074SOL     OW 9243   3.087   4.049   4.173
 3074SOL    HW1 9244   3.152   3.975   4.162
 3074SOL    HW2 9245   3.107   4.099   4.257
 3075SOL     OW 9246   2.456   4.469   4.376
 3075SOL    HW1 9247   2.506   4.554   4.357
 3075SOL    HW2 9248   2.368   4.471   4.328
 3076SOL     OW 9249   3.592   4.658   5.241
 3076SOL    HW1 9250   3.630   4.749   5.256
 3076SOL    HW2 9251   3.584   4.641   5.142
 3077SOL     OW 9252   2.721   4.680   4.585
 3077SOL    HW1 9253   2.775   4.611   4.633
 3077SOL    HW2 9254   2.689   4.749   4.651
 3078SOL     OW 9255   2.945   4.708   3.811
 3078SOL    HW1 9256   2.922   4.761   3.729
 3078SOL    HW2 9257   3.026   4.652   3.792
 3079SOL     OW 9258   1.941   4.964   4.377
 3079SOL    HW1 9259   1.940   4.917   4.465
 3079SOL    HW2 9260   2.023   4.936   4.326
 3080SOL     OW 9261   3.686   3.916   4.951
 3080SOL    HW1 9262   3.682   3.826   4.995
 3080SOL    HW2 9263   3.689   3.905   4.852
 3081SOL     OW 9264   2.290   4.148   4.244
 3081SOL    HW1 9265   2.320   4.076   4.182
 3081SOL    HW2 9266   2.251   4.108   4.327
 3082SOL     OW 9267   3.286   3.938   4.836
 3082SOL    HW1 9268   3.338   3.873   4.891
 3082SOL    HW2 9269   3.237   4.001   4.897
 3083SOL     OW 9270   2.863   3.758   4.878
 3083SOL    HW1 9271   2.800   3.686   4.847
 3083SOL    HW2 9272   2.956   3.722   4.878
 3084SOL     OW 9273   2.632   5.054   4.025
 3084SOL    HW1 9274   2.586   4.967   4.042
 3084SOL    HW2 9275   2.723   5.051   4.066
 3085SOL     OW 9276   3.214   3.776   3.892
 3085SOL    HW1 9277   3.249   3.735   3.808
 3085SOL    HW2 9278   3.124   3.738   3.912
 3086SOL     OW 9279   3.162   4.177   4.415
 3086SOL    HW1 9280   3.103   4.257   4.419
 3086SOL    HW2 9281   3.177   4.142   4.508
 3087SOL     OW 9282   3.455   3.945   4.606
 3087SOL    HW1 9283   3.371   3.944   4.660
 3087SOL    HW2 9284   3.457   4.028   4.550
 3088SOL     OW 9285   1.901   4.801   4.024
 3088SOL    HW1 9286   2.000   4.790   4.015
 3088SOL    HW2 9287   1.861   4.715   4.056
 3089SOL     OW 9288   3.954   0.628   0.113
 3089SOL    HW1 9289   3.861   0.626   0.150
 3089SOL    HW2 9290   3.955   0.589   0.021
 3090SOL     OW 9291   3.949   0.275   0.996
 3090SOL    HW1 9292   3.984   0.258   1.088
 3090SOL    HW2 9293   3.861   0.230   0.984
 3091SOL     OW 9294   3.743   0.368   0.647
 3091SOL    HW1 9295   3.661   0.411   0.686
 3091SOL    HW2 9296   3.715   0.295   0.584
 3092SOL     OW 9297   4.293   1.275   1.165
 3092SOL    HW1 9298   4.200   1.268   1.128
 3092SOL    HW2 9299   4.304   1.364   1.209
 3093SOL     OW 9300   4.859   0.703   0.717
 3093SOL    HW1 9301   4.916   0.781   0.692
 3093SOL    HW2 9302   4.799   0.729   0.793
 3094SOL     OW 9303   4.492   1.144   1.023
 3094SOL    HW1 9304   4.414   1.161   1.083
 3094SOL    HW2 9305   4.526   1.231   0.987
 3095SOL     OW 9306   4.574   0.798   1.823
 3095SOL    HW1 9307   4.570   0.874   1.888
 3095SOL    HW2 9308   4.596   0.834   1.732
 3096SOL     OW 9309   4.409   1.012   0.665
 3096SOL    HW1 9310   4.478   0.996   0.735
 3096SOL    HW2 9311   4.336   1.069   0.703
 3097SOL     OW 9312   4.410   1.161   1.803
 3097SOL    HW1 9313   4.470   1.240   1.817
 3097SOL    HW2 9314   4.324   1.192   1.762
 3098SOL     OW 9315   4.059   1.435   1.061
 3098SOL    HW1 9316   3.981   1.404   1.008
 3098SOL    HW2 9317   4.117   1.493   1.004
 3099SOL     OW 9318   4.162   0.392   1.499
 3099SOL    HW1 9319   4.244   0.336   1.508
 3099SOL    HW2 9320   4.081   0.334   1.503
 3100SOL     OW 9321   3.955   1.713   0.483
 3100SOL    HW1 9322   3.989   1.790   0.537
 3100SOL    HW2 9323   3.999   1.713   0.393
 3101SOL     OW 9324   4.851   1.341   1.690
 3101SOL    HW1 9325   4.898   1.341   1.778
 3101SOL    HW2 9326   4.803   1.254   1.679
 3102SOL     OW 9327   3.954   1.434   0.538
 3102SOL    HW1 9328   3.928   1.530   0.538
 3102SOL    HW2 9329   3.883   1.380   0.583
 3103SOL     OW 9330   3.964   1.091   0.886
 3103SOL    HW1 9331   3.978   1.007   0.938
 3103SOL    HW2 9332   3.909   1.155   0.941
 3104SOL     OW 9333   4.344   1.786   1.439
 3104SOL    HW1 9334   4.252   1.769   1.474
 3104SOL    HW2 9335   4.372   1.878   1.465
 3105SOL     OW 9336   4.330   0.964   0.123
 3105SOL    HW1 9337   4.337   1.048   0.069
 3105SOL    HW2 9338   4.376   0.977   0.211
 3106SOL     OW 9339   3.846   0.643   0.563
 3106SOL    HW1 9340   3.801   0.555   0.580
 3106SOL    HW2 9341   3.845   0.697   0.647
 3107SOL     OW 9342   3.751   1.596   0.117
 3107SOL    HW1 9343   3.732   1.500   0.138
 3107SOL    HW2 9344   3.718   1.654   0.192
 3108SOL     OW 9345   3.837   0.737   1.597
 3108SOL    HW1 9346   3.925   0.724   1.642
 3108SOL    HW2 9347   3.824   0.834   1.575
 3109SOL     OW 9348   4.337   1.365   0.726
 3109SOL    HW1 9349   4.288   1.278   0.735
 3109SOL    HW2 9350   4.314   1.408   0.639
 3110SOL     OW 9351   4.533   0.004   0.502
 3110SOL    HW1 9352   4.573   0.095   0.493
 3110SOL    HW2 9353   4.433   0.012   0.508
 3111SOL     OW 9354   3.921   0.976   1.264
 3111SOL    HW1 9355   4.010   0.931   1.250
 3111SOL    HW2 9356   3.848   0.911   1.245
 3112SOL     OW 9357   4.911   1.792   1.616
 3112SOL    HW1 9358   4.935   1.852   1.540
 3112SOL    HW2 9359   4.918   1.697   1.586
 3113SOL     OW 9360   4.041   0.251   1.801
 3113SOL    HW1 9361   4.112   0.322   1.807
 3113SOL    HW2 9362   3.953   0.290   1.829
 3114SOL     OW 9363   4.322   0.729   0.270
 3114SOL    HW1 9364   4.346   0.798   0.202
 3114SOL    HW2 9365   4.244   0.762   0.324
 3115SOL     OW 9366   4.531   0.605   1.465
 3115SOL    HW1 9367   4.484   0.602   1.554
 3115SOL    HW2 9368   4.480   0.550   1.399
 3116SOL     OW 9369   4.697   0.890   1.572
 3116SOL    HW1 9370   4.743   0.806   1.543
 3116SOL    HW2 9371   4.641   0.924   1.497
 3117SOL     OW 9372   4.715   0.410   1.242
 3117SOL    HW1 9373   4.638   0.444   1.296
 3117SOL    HW2 9374   4.681   0.359   1.163
 3118SOL     OW 9375   4.765   0.701   0.429
 3118SOL    HW1 9376   4.791   0.697   0.525
 3118SOL    HW2 9377   4.680   0.650   0.415
 3119SOL     OW 9378   3.800   0.811   0.789
 3119SOL    HW1 9379   3.899   0.799   0.798
 3119SOL    HW2 9380   3.776   0.906   0.810
 3120SOL     OW 9381   3.854   1.821   1.571
 3120SOL    HW1 9382   3.844   1.806   1.670
 3120SOL    HW2 9383   3.768   1.857   1.535
 3121SOL     OW 9384   4.589   0.348   0.195
 3121SOL    HW1 9385   4.648   0.411   0.146
 3121SOL    HW2 9386   4.608   0.254   0.166
 3122SOL     OW 9387   4.274   0.196   0.885
 3122SOL    HW1 9388   4.269   0.191   0.985
 3122SOL    HW2 9389   4.276   0.292   0.856
 3123SOL     OW 9390   4.732   1.456   0.477
 3123SOL    HW1 9391   4.686   1.528   0.425
 3123SOL    HW2 9392   4.728   1.476   0.575
 3124SOL     OW 9393   4.075   1.801   0.853
 3124SOL    HW1 9394   4.125   1.715   0.859
 3124SOL    HW2 9395   4.140   1.878   0.850
 3125SOL     OW 9396   4.951   1.550   1.506
 3125SOL    HW1 9397   4.957   1.473   1.570
 3125SOL    HW2 9398   4.899   1.524   1.426
 3126SOL     OW 9399   4.045   0.943   0.242
 3126SOL    HW1 9400   4.127   0.982   0.200
 3126SOL    HW2 9401   4.018   0.861   0.193
 3127SOL     OW 9402   4.185   1.266   1.727
 3127SOL    HW1 9403   4.135   1.267   1.641
 3127SOL    HW2 9404   4.122   1.248   1.803
 3128SOL     OW 9405   4.835   1.776   0.237
 3128SOL    HW1 9406   4.775   1.714   0.287
 3128SOL    HW2 9407   4.866   1.732   0.152
 3129SOL     OW 9408   4.188   1.743   0.323
 3129SOL    HW1 9409   4.221   1.782   0.409
 3129SOL    HW2 9410   4.264   1.736   0.258
 3130SOL     OW 9411   3.973   1.785   1.241
 3130SOL    HW1 9412   4.030   1.720   1.291
 3130SOL    HW2 9413   3.957   1.752   1.148
 3131SOL     OW 9414   4.664   1.698   0.904
 3131SOL    HW1 9415   4.744   1.641   0.925
 3131SOL    HW2 9416   4.615   1.658   0.827
 3132SOL     OW 9417   4.106   0.700   0.480
 3132SOL    HW1 9418   4.151   0.610   0.477
 3132SOL    HW2 9419   4.012   0.689   0.513
 3133SOL     OW 9420   4.338   0.122   0.117
 3133SOL    HW1 9421   4.436   0.100   0.124
 3133SOL    HW2 9422   4.307   0.105   0.024
 3134SOL     OW 9423   4.505   0.264   1.749
 3134SOL    HW1 9424   4.572   0.203   1.792
 3134SOL    HW2 9425   4.432   0.283   1.814
 3135SOL     OW 9426   4.612   1.514   1.195
 3135SOL    HW1 9427   4.589   1.489   1.101
 3135SOL    HW2 9428   4.673   1.445   1.234
 3136SOL     OW 9429   4.527   1.402   0.924
 3136SOL    HW1 9430   4.617   1.416   0.882
 3136SOL    HW2 9431   4.456   1.404   0.853
 3137SOL     OW 9432   4.646   0.503   0.899
 3137SOL    HW1 9433   4.621   0.494   0.803
 3137SOL    HW2 9434   4.694   0.421   0.930
 3138SOL     OW 9435   4.263   0.064   0.512
 3138SOL    HW1 9436   4.182   0.065   0.570
 3138SOL    HW2 9437   4.266   0.147   0.457
 3139SOL     OW 9438   4.021   0.035   0.171
 3139SOL    HW1 9439   4.070   0.119   0.150
 3139SOL    HW2 9440   4.083  -0.030   0.216
 3140SOL     OW 9441   4.659   0.236   0.480
 3140SOL    HW1 9442   4.611   0.277   0.402
 3140SOL    HW2 9443   4.758   0.234   0.461
 3141SOL     OW 9444   4.800   0.683   1.464
 3141SOL    HW1 9445   4.720   0.622   1.467
 3141SOL    HW2 9446   4.881   0.630   1.440
 3142SOL     OW 9447   4.951   1.570   0.793
 3142SOL    HW1 9448   4.972   1.644   0.728
 3142SOL    HW2 9449   5.019   1.570   0.866
 3143SOL     OW 9450   4.183   1.152   0.741
 3143SOL    HW1 9451   4.112   1.125   0.806
 3143SOL    HW2 9452   4.157   1.124   0.648
 3144SOL     OW 9453   4.995   1.797   0.591
 3144SOL    HW1 9454   5.039   1.861   0.527
 3144SOL    HW2 9455   4.945   1.849   0.661
 3145SOL     OW 9456   4.756   0.549   0.016
 3145SOL    HW1 9457   4.715   0.631  -0.023
 3145SOL    HW2 9458   4.820   0.575   0.089
 3146SOL     OW 9459   3.802   0.556   1.386
 3146SOL    HW1 9460   3.894   0.555   1.345
 3146SOL    HW2 9461   3.796   0.630   1.453
 3147SOL     OW 9462   4.285   0.222   1.147
 3147SOL    HW1 9463   4.323   0.138   1.184
 3147SOL    HW2 9464   4.197   0.241   1.191
 3148SOL     OW 9465   4.590   0.454   0.642
 3148SOL    HW1 9466   4.558   0.526   0.580
 3148SOL    HW2 9467   4.614   0.373   0.589
 3149SOL     OW 9468   4.741   0.039   0.753
 3149SOL    HW1 9469   4.669   0.044   0.684
 3149SOL    HW2 9470   4.717  -0.030   0.822
 3150SOL     OW 9471   4.212   1.385   0.174
 3150SOL    HW1 9472   4.125   1.370   0.221
 3150SOL    HW2 9473   4.195   1.411   0.079
 3151SOL     OW 9474   4.251   0.256   0.328
 3151SOL    HW1 9475   4.278   0.197   0.253
 3151SOL    HW2 9476   4.251   0.351   0.297
 3152SOL     OW 9477   4.788   1.347   1.340
 3152SOL    HW1 9478   4.708   1.324   1.395
 3152SOL    HW2 9479   4.871   1.321   1.389
 3153SOL     OW 9480   4.835   1.195   1.100
 3153SOL    HW1 9481   4.795   1.239   1.181
 3153SOL    HW2 9482   4.794   1.232   1.017
 3154SOL     OW 9483   4.639   0.089   1.402
 3154SOL    HW1 9484   4.664   0.069   1.307
 3154SOL    HW2 9485   4.711   0.145   1.444
 3155SOL     OW 9486   4.704   1.116   1.719
 3155SOL    HW1 9487   4.605   1.122   1.729
 3155SOL    HW2 9488   4.727   1.036   1.663
 3156SOL     OW 9489   4.429   1.050   0.368
 3156SOL    HW1 9490   4.415   1.057   0.467
 3156SOL    HW2 9491   4.513   0.999   0.350
 3157SOL     OW 9492   4.134   0.813   1.251
 3157SOL    HW1 9493   4.220   0.825   1.301
 3157SOL    HW2 9494   4.092   0.726   1.278
 3158SOL     OW 9495   4.998   0.386   1.262
 3158SOL    HW1 9496   5.019   0.460   1.326
 3158SOL    HW2 9497   4.909   0.403   1.219
 3159SOL     OW 9498   3.788   1.564   1.331
 3159SOL    HW1 9499   3.742   1.646   1.297
 3159SOL    HW2 9500   3.886   1.583   1.340
 3160SOL     OW 9501   4.091   1.100   0.501
 3160SOL    HW1 9502   4.084   1.183   0.445
 3160SOL    HW2 9503   4.095   1.020   0.441
 3161SOL     OW 9504   4.290   0.537   0.865
 3161SOL    HW1 9505   4.302   0.603   0.791
 3161SOL    HW2 9506   4.336   0.571   0.948
 3162SOL     OW 9507   4.976   1.348   0.388
 3162SOL    HW1 9508   5.026   1.425   0.428
 3162SOL    HW2 9509   4.881   1.350   0.420
 3163SOL     OW 9510   4.078   1.510   1.329
 3163SOL    HW1 9511   4.057   1.466   1.242
 3163SOL    HW2 9512   4.175   1.536   1.332
 3164SOL     OW 9513   4.126   0.751   1.598
 3164SOL    HW1 9514   4.194   0.806   1.551
 3164SOL    HW2 9515   4.166   0.663   1.625
 3165SOL     OW 9516   4.737   0.105   1.770
 3165SOL    HW1 9517   4.743   0.190   1.718
 3165SOL    HW2 9518   4.769   0.029   1.713
 3166SOL     OW 9519   4.228   0.050   1.740
 3166SOL    HW1 9520   4.186  -0.007   1.670
 3166SOL    HW2 9521   4.162   0.119   1.772
 3167SOL     OW 9522   4.297   0.870   1.029
 3167SOL    HW1 9523   4.341   0.959   1.020
 3167SOL    HW2 9524   4.234   0.870   1.106
 3168SOL     OW 9525   5.084   0.862   1.045
 3168SOL    HW1 9526   5.009   0.862   0.979
 3168SOL    HW2 9527   5.121   0.770   1.054
 3169SOL     OW 9528   4.933   0.525   0.275
 3169SOL    HW1 9529   4.946   0.441   0.329
 3169SOL    HW2 9530   4.904   0.599   0.335
 3170SOL     OW 9531   4.031   0.213   1.231
 3170SOL    HW1 9532   4.008   0.250   1.321
 3170SOL    HW2 9533   4.001   0.118   1.225
 3171SOL     OW 9534   3.761   1.310   1.282
 3171SOL    HW1 9535   3.814   1.261   1.350
 3171SOL    HW2 9536   3.783   1.408   1.287
 3172SOL     OW 9537   4.456   0.634   1.064
 3172SOL    HW1 9538   4.515   0.608   0.988
 3172SOL    HW2 9539   4.428   0.730   1.053
 3173SOL     OW 9540   4.031   0.063   0.618
 3173SOL    HW1 9541   4.020   0.157   0.651
 3173SOL    HW2 9542   4.026   0.000   0.695
 3174SOL     OW 9543   5.346   0.367   0.374
 3174SOL    HW1 9544   5.348   0.291   0.438
 3174SOL    HW2 9545   5.298   0.444   0.414
 3175SOL     OW 9546   4.747   0.766   0.966
 3175SOL    HW1 9547   4.762   0.787   1.062
 3175SOL    HW2 9548   4.717   0.671   0.957
 3176SOL     OW 9549   4.704   1.573   1.700
 3176SOL    HW1 9550   4.684   1.617   1.612
 3176SOL    HW2 9551   4.743   1.482   1.684
 3177SOL     OW 9552   4.074   0.898   1.804
 3177SOL    HW1 9553   4.150   0.942   1.852
 3177SOL    HW2 9554   4.109   0.851   1.722
 3178SOL     OW 9555   5.027   0.838   0.042
 3178SOL    HW1 9556   5.061   0.745   0.057
 3178SOL    HW2 9557   5.045   0.865  -0.053
 3179SOL     OW 9558   4.792   1.333   0.849
 3179SOL    HW1 9559   4.799   1.249   0.794
 3179SOL    HW2 9560   4.854   1.402   0.813
 3180SOL     OW 9561   4.043   0.810   0.949
 3180SOL    HW1 9562   4.136   0.846   0.954
 3180SOL    HW2 9563   4.037   0.725   1.001
 3181SOL     OW 9564   4.063   0.509   1.006
 3181SOL    HW1 9565   4.011   0.426   0.989
 3181SOL    HW2 9566   4.140   0.514   0.942
 3182SOL     OW 9567   4.862   0.380   1.678
 3182SOL    HW1 9568   4.817   0.443   1.742
 3182SOL    HW2 9569   4.955   0.411   1.661
 3183SOL     OW 9570   4.884   0.207   1.477
 3183SOL    HW1 9571   4.884   0.271   1.554
 3183SOL    HW2 9572   4.912   0.255   1.394
 3184SOL     OW 9573   3.812   1.801   0.927
 3184SOL    HW1 9574   3.770   1.715   0.900
 3184SOL    HW2 9575   3.906   1.804   0.893
 3185SOL     OW 9576   4.228   1.568   0.910
 3185SOL    HW1 9577   4.294   1.642   0.919
 3185SOL    HW2 9578   4.272   1.489   0.868
 3186SOL     OW 9579   4.726   0.796   1.238
 3186SOL    HW1 9580   4.767   0.764   1.324
 3186SOL    HW2 9581   4.630   0.769   1.235
 3187SOL     OW 9582   3.764   0.544   1.114
 3187SOL    HW1 9583   3.849   0.511   1.073
 3187SOL    HW2 9584   3.777   0.559   1.212
 3188SOL     OW 9585   3.913   0.520   1.722
 3188SOL    HW1 9586   3.972   0.480   1.652
 3188SOL    HW2 9587   3.855   0.591   1.681
 3189SOL     OW 9588   4.539   0.572   0.325
 3189SOL    HW1 9589   4.546   0.483   0.279
 3189SOL    HW2 9590   4.445   0.606   0.317
 3190SOL     OW 9591   3.976   1.564   1.744
 3190SOL    HW1 9592   3.946   1.621   1.820
 3190SOL    HW2 9593   3.969   1.467   1.770
 3191SOL     OW 9594   4.395   0.464   1.269
 3191SOL    HW1 9595   4.361   0.375   1.239
 3191SOL    HW2 9596   4.421   0.518   1.189
 3192SOL     OW 9597   4.654   1.678   1.465
 3192SOL    HW1 9598   4.630   1.660   1.370
 3192SOL    HW2 9599   4.684   1.772   1.475
 3193SOL     OW 9600   4.197   0.500   0.191
 3193SOL    HW1 9601   4.258   0.580   0.195
 3193SOL    HW2 9602   4.102   0.531   0.198
 3194SOL     OW 9603   3.883   1.137   1.466
 3194SOL    HW1 9604   3.905   1.076   1.542
 3194SOL    HW2 9605   3.893   1.088   1.380
 3195SOL     OW 9606   5.071   1.059   1.234
 3195SOL    HW1 9607   5.095   0.996   1.160
 3195SOL    HW2 9608   4.981   1.099   1.216
 3196SOL     OW 9609   4.976   1.731   1.128
 3196SOL    HW1 9610   5.060   1.736   1.074
 3196SOL    HW2 9611   4.953   1.635   1.146
 3197SOL     OW 9612   3.807   1.258   1.022
 3197SOL    HW1 9613   3.802   1.257   1.122
 3197SOL    HW2 9614   3.724   1.217   0.984
 3198SOL     OW 9615   4.412   1.662   1.716
 3198SOL    HW1 9616   4.356   1.743   1.725
 3198SOL    HW2 9617   4.464   1.666   1.630
 3199SOL     OW 9618   4.627   0.086   0.133
 3199SOL    HW1 9619   4.678   0.087   0.047
 3199SOL    HW2 9620   4.683   0.044   0.204
 3200SOL     OW 9621   5.112   1.573   0.477
 3200SOL    HW1 9622   5.179   1.585   0.403
 3200SOL    HW2 9623   5.072   1.662   0.500
 3201SOL     OW 9624   3.854   1.794   1.851
 3201SOL    HW1 9625   3.813   1.720   1.904
 3201SOL    HW2 9626   3.918   1.845   1.909
 3202SOL     OW 9627   4.554   1.273   1.422
 3202SOL    HW1 9628   4.549   1.306   1.517
 3202SOL    HW2 9629   4.468   1.292   1.376
 3203SOL     OW 9630   4.396   1.616   0.154
 3203SOL    HW1 9631   4.405   1.626   0.055
 3203SOL    HW2 9632   4.356   1.527   0.175
 3204SOL     OW 9633   3.987   0.326   0.720
 3204SOL    HW1 9634   3.908   0.377   0.686
 3204SOL    HW2 9635   3.978   0.311   0.818
 3205SOL     OW 9636   4.918   1.612   0.031
 3205SOL    HW1 9637   4.924   1.519   0.068
 3205SOL    HW2 9638   4.859   1.612  -0.049
 3206SOL     OW 9639   4.546   1.002   1.372
 3206SOL    HW1 9640   4.586   1.001   1.280
 3206SOL    HW2 9641   4.556   1.094   1.412
 3207SOL     OW 9642   4.640   0.910   0.291
 3207SOL    HW1 9643   4.703   0.948   0.223
 3207SOL    HW2 9644   4.680   0.827   0.330
 3208SOL     OW 9645   4.096   1.288   1.490
 3208SOL    HW1 9646   4.083   1.381   1.456
 3208SOL    HW2 9647   4.012   1.236   1.477
 3209SOL     OW 9648   4.763   1.098   0.696
 3209SOL    HW1 9649   4.693   1.051   0.750
 3209SOL    HW2 9650   4.822   1.030   0.653
 3210SOL     OW 9651   4.738   0.236   0.971
 3210SOL    HW1 9652   4.730   0.200   0.878
 3210SOL    HW2 9653   4.736   0.160   1.036
 3211SOL     OW 9654   4.314   1.487   0.491
 3211SOL    HW1 9655   4.356   1.429   0.421
 3211SOL    HW2 9656   4.270   1.566   0.447
 3212SOL     OW 9657   3.979   1.348   0.290
 3212SOL    HW1 9658   3.883   1.349   0.263
 3212SOL    HW2 9659   3.991   1.401   0.374
 3213SOL     OW 9660   3.829   1.013   1.726
 3213SOL    HW1 9661   3.752   0.980   1.780
 3213SOL    HW2 9662   3.914   0.983   1.768
 3214SOL     OW 9663   4.396   0.203   1.489
 3214SOL    HW1 9664   4.486   0.187   1.449
 3214SOL    HW2 9665   4.404   0.208   1.588
 3215SOL     OW 9666   3.796   0.166   0.318
 3215SOL    HW1 9667   3.779   0.249   0.264
 3215SOL    HW2 9668   3.886   0.129   0.296
 3216SOL     OW 9669   4.337   0.842   1.431
 3216SOL    HW1 9670   4.393   0.923   1.414
 3216SOL    HW2 9671   4.396   0.762   1.434
 3217SOL     OW 9672   4.440   0.565   1.708
 3217SOL    HW1 9673   4.459   0.630   1.782
 3217SOL    HW2 9674   4.500   0.485   1.717
 3218SOL     OW 9675   4.114   1.741   1.560
 3218SOL    HW1 9676   4.023   1.782   1.558
 3218SOL    HW2 9677   4.107   1.647   1.592
 3219SOL     OW 9678   4.318   0.745   0.652
 3219SOL    HW1 9679   4.368   0.830   0.633
 3219SOL    HW2 9680   4.230   0.747   0.604
 3220SOL     OW 9681   4.583   1.374   0.016
 3220SOL    HW1 9682   4.537   1.389   0.104
 3220SOL    HW2 9683   4.627   1.459  -0.014
 3221SOL     OW 9684   4.385   1.790   0.953
 3221SOL    HW1 9685   4.339   1.878   0.940
 3221SOL    HW2 9686   4.484   1.802   0.946
 3222SOL     OW 9687   4.583   0.956   0.861
 3222SOL    HW1 9688   4.637   0.887   0.909
 3222SOL    HW2 9689   4.551   1.025   0.927
 3223SOL     OW 9690   4.807   0.984   0.087
 3223SOL    HW1 9691   4.784   1.037   0.005
 3223SOL    HW2 9692   4.888   0.928   0.068
 3224SOL     OW 9693   3.945   1.314   1.844
 3224SOL    HW1 9694   3.880   1.241   1.823
 3224SOL    HW2 9695   3.949   1.328   1.942
 3225SOL     OW 9696   3.803   1.240   0.653
 3225SOL    HW1 9697   3.802   1.193   0.741
 3225SOL    HW2 9698   3.885   1.212   0.602
 3226SOL     OW 9699   4.396   1.391   1.624
 3226SOL    HW1 9700   4.318   1.341   1.662
 3226SOL    HW2 9701   4.393   1.486   1.655
 3227SOL     OW 9702   4.152   0.424   0.520
 3227SOL    HW1 9703   4.182   0.352   0.458
 3227SOL    HW2 9704   4.113   0.384   0.603
 3228SOL     OW 9705   4.041   0.547   1.280
 3228SOL    HW1 9706   4.079   0.488   1.352
 3228SOL    HW2 9707   4.081   0.521   1.192
 3229SOL     OW 9708   4.536   1.586   0.687
 3229SOL    HW1 9709   4.568   1.596   0.593
 3229SOL    HW2 9710   4.457   1.524   0.689
 3230SOL     OW 9711   4.725   0.034   1.154
 3230SOL    HW1 9712   4.662  -0.038   1.123
 3230SOL    HW2 9713   4.818  -0.002   1.154
 3231SOL     OW 9714   4.494   1.330   0.301
 3231SOL    HW1 9715   4.448   1.243   0.318
 3231SOL    HW2 9716   4.585   1.327   0.342
 3232SOL     OW 9717   4.342   1.567   1.284
 3232SOL    HW1 9718   4.337   1.649   1.341
 3232SOL    HW2 9719   4.431   1.564   1.239
 3233SOL     OW 9720   3.763   1.077   0.300
 3233SOL    HW1 9721   3.862   1.066   0.291
 3233SOL    HW2 9722   3.723   0.991   0.332
 3234SOL     OW 9723   4.599   1.646   0.337
 3234SOL    HW1 9724   4.522   1.611   0.283
 3234SOL    HW2 9725   4.567   1.717   0.399
 3235SOL     OW 9726   3.954   0.628   1.975
 3235SOL    HW1 9727   3.861   0.626   2.012
 3235SOL    HW2 9728   3.955   0.589   1.883
 3236SOL     OW 9729   3.949   0.275   2.858
 3236SOL    HW1 9730   3.984   0.258   2.950
 3236SOL    HW2 9731   3.861   0.230   2.846
 3237SOL     OW 9732   3.743   0.368   2.509
 3237SOL    HW1 9733   3.661   0.411   2.548
 3237SOL    HW2 9734   3.715   0.295   2.446
 3238SOL     OW 9735   4.293   1.275   3.027
 3238SOL    HW1 9736   4.200   1.268   2.990
 3238SOL    HW2 9737   4.304   1.364   3.071
 3239SOL     OW 9738   4.859   0.703   2.579
 3239SOL    HW1 9739   4.916   0.781   2.554
 3239SOL    HW2 9740   4.799   0.729   2.655
 3240SOL     OW 9741   4.492   1.144   2.885
 3240SOL    HW1 9742   4.414   1.161   2.945
 3240SOL    HW2 9743   4.526   1.231   2.849
 3241SOL     OW 9744   4.574   0.798   3.685
 3241SOL    HW1 9745   4.570   0.874   3.750
 3241SOL    HW2 9746   4.596   0.834   3.594
 3242SOL     OW 9747   4.409   1.012   2.527
 3242SOL    HW1 9748   4.478   0.996   2.597
 3242SOL    HW2 9749   4.336   1.069   2.565
 3243SOL     OW 9750   4.410   1.161   3.665
 3243SOL    HW1 9751   4.470   1.240   3.679
 3243SOL    HW2 9752   4.324   1.192   3.624
 3244SOL     OW 9753   4.059   1.435   2.923
 3244SOL    HW1 9754   3.981   1.404   2.870
 3244SOL    HW2 9755   4.117   1.493   2.866
 3245SOL     OW 9756   4.162   0.392   3.361
 3245SOL    HW1 9757   4.244   0.336   3.370
 3245SOL    HW2 9758   4.081   0.334   3.365
 3246SOL     OW 9759   3.955   1.713   2.345
 3246SOL    HW1 9760   3.989   1.790   2.399
 3246SOL    HW2 9761   3.999   1.713   2.255
 3247SOL     OW 9762   4.851   1.341   3.552
 3247SOL    HW1 9763   4.898   1.341   3.640
 3247SOL    HW2 9764   4.803   1.254   3.541
 3248SOL     OW 9765   3.954   1.434   2.400
 3248SOL    HW1 9766   3.928   1.530   2.400
 3248SOL    HW2 9767   3.883   1.380   2.445
 3249SOL     OW 9768   3.964   1.091   2.748
 3249SOL    HW1 9769   3.978   1.007   2.800
 3249SOL    HW2 9770   3.909   1.155   2.803
 3250SOL     OW 9771   4.344   1.786   3.301
 3250SOL    HW1 9772   4.252   1.769   3.336
 3250SOL    HW2 9773   4.372   1.878   3.327
 3251SOL     OW 9774   4.330   0.964   1.985
 3251SOL    HW1 9775   4.337   1.048   1.931
 3251SOL    HW2 9776   4.376   0.977   2.073
 3252SOL     OW 9777   3.846   0.643   2.425
 3252SOL    HW1 9778   3.801   0.555   2.442
 3252SOL    HW2 9779   3.845   0.697   2.509
 3253SOL     OW 9780   3.751   1.596   1.979
 3253SOL    HW1 9781   3.732   1.500   2.000
 3253SOL    HW2 9782   3.718   1.654   2.054
 3254SOL     OW 9783   3.837   0.737   3.459
 3254SOL    HW1 9784   3.925   0.724   3.504
 3254SOL    HW2 9785   3.824   0.834   3.437
 3255SOL     OW 9786   4.337   1.365   2.588
 3255SOL    HW1 9787   4.288   1.278   2.597
 3255SOL    HW2 9788   4.314   1.408   2.501
 3256SOL     OW 9789   4.533   0.004   2.364
 3256SOL    HW1 9790   4.573   0.095   2.355
 3256SOL    HW2 9791   4.433   0.012   2.370
 3257SOL     OW 9792   3.921   0.976   3.126
 3257SOL    HW1 9793   4.010   0.931   3.112
 3257SOL    HW2 9794   3.848   0.911   3.107
 3258SOL     OW 9795   4.911   1.792   3.478
 3258SOL    HW1 9796   4.935   1.852   3.402
 3258SOL    HW2 9797   4.918   1.697   3.448
 3259SOL     OW 9798   4.041   0.251   3.663
 3259SOL    HW1 9799   4.112   0.322   3.669
 3259SOL    HW2 9800   3.953   0.290   3.691
 3260SOL     OW 9801   4.322   0.729   2.132
 3260SOL    HW1 9802   4.346   0.798   2.064
 3260SOL    HW2 9803   4.244   0.762   2.186
 3261SOL     OW 9804   4.531   0.605   3.327
 3261SOL    HW1 9805   4.484   0.602   3.416
 3261SOL    HW2 9806   4.480   0.550   3.261
 3262SOL     OW 9807   4.697   0.890   3.434
 3262SOL    HW1 9808   4.743   0.806   3.405
 3262SOL    HW2 9809   4.641   0.924   3.359
 3263SOL     OW 9810   4.715   0.410   3.104
 3263SOL    HW1 9811   4.638   0.444   3.158
 3263SOL    HW2 9812   4.681   0.359   3.025
 3264SOL     OW 9813   4.765   0.701   2.291
 3264SOL    HW1 9814   4.791   0.697   2.387
 3264SOL    HW2 9815   4.680   0.650   2.277
 3265SOL     OW 9816   3.800   0.811   2.651
 3265SOL    HW1 9817   3.899   0.799   2.660
 3265SOL    HW2 9818   3.776   0.906   2.672
 3266SOL     OW 9819   3.854   1.821   3.433
 3266SOL    HW1 9820   3.844   1.806   3.532
 3266SOL    HW2 9821   3.768   1.857   3.397
 3267SOL     OW 9822   4.589   0.348   2.057
 3267SOL    HW1 9823   4.648   0.411   2.008
 3267SOL    HW2 9824   4.608   0.254   2.028
 3268SOL     OW 9825   4.274   0.196   2.747
 3268SOL    HW1 9826   4.269   0.191   2.847
 3268SOL    HW2 9827   4.276   0.292   2.718
 3269SOL     OW 9828   4.732   1.456   2.339
 3269SOL    HW1 9829   4.686   1.528   2.287
 3269SOL    HW2 9830   4.728   1.476   2.437
 3270SOL     OW 9831   4.075   1.801   2.715
 3270SOL    HW1 9832   4.125   1.715   2.721
 3270SOL    HW2 9833   4.140   1.878   2.712
 3271SOL     OW 9834   4.951   1.550   3.368
 3271SOL    HW1 9835   4.957   1.473   3.432
 3271SOL    HW2 9836   4.899   1.524   3.288
 3272SOL     OW 9837   4.045   0.943   2.104
 3272SOL    HW1 9838   4.127   0.982   2.062
 3272SOL    HW2 9839   4.018   0.861   2.055
 3273SOL     OW 9840   4.185   1.266   3.589
 3273SOL    HW1 9841   4.135   1.267   3.503
 3273SOL    HW2 9842   4.122   1.248   3.665
 3274SOL     OW 9843   4.835   1.776   2.099
 3274SOL    HW1 9844   4.775   1.714   2.149
 3274SOL    HW2 9845   4.866   1.732   2.014
 3275SOL     OW 9846   4.188   1.743   2.185
 3275SOL    HW1 9847   4.221   1.782   2.271
 3275SOL    HW2 9848   4.264   1.736   2.120
 3276SOL     OW 9849   3.973   1.785   3.103
 3276SOL    HW1 9850   4.030   1.720   3.153
 3276SOL    HW2 9851   3.957   1.752   3.010
 3277SOL     OW 9852   4.664   1.698   2.766
 3277SOL    HW1 9853   4.744   1.641   2.787
 3277SOL    HW2 9854   4.615   1.658   2.689
 3278SOL     OW 9855   4.106   0.700   2.342
 3278SOL    HW1 9856   4.151   0.610   2.339
 3278SOL    HW2 9857   4.012   0.689   2.375
 3279SOL     OW 9858   4.338   0.122   1.979
 3279SOL    HW1 9859   4.436   0.100   1.986
 3279SOL    HW2 9860   4.307   0.105   1.886
 3280SOL     OW 9861   4.505   0.264   3.611
 3280SOL    HW1 9862   4.572   0.203   3.654
 3280SOL    HW2 9863   4.432   0.283   3.676
 3281SOL     OW 9864   4.612   1.514   3.057
 3281SOL    HW1 9865   4.589   1.489   2.963
 3281SOL    HW2 9866   4.673   1.445   3.096
 3282SOL     OW 9867   4.527   1.402   2.786
 3282SOL    HW1 9868   4.617   1.416   2.744
 3282SOL    HW2 9869   4.456   1.404   2.715
 3283SOL     OW 9870   4.646   0.503   2.761
 3283SOL    HW1 9871   4.621   0.494   2.665
 3283SOL    HW2 9872   4.694   0.421   2.792
 3284SOL     OW 9873   4.263   0.064   2.374
 3284SOL    HW1 9874   4.182   0.065   2.432
 3284SOL    HW2 9875   4.266   0.147   2.319
 3285SOL     OW 9876   4.021   0.035   2.033
 3285SOL    HW1 9877   4.070   0.119   2.012
 3285SOL    HW2 9878   4.083  -0.030   2.078
 3286SOL     OW 9879   4.659   0.236   2.342
 3286SOL    HW1 9880   4.611   0.277   2.264
 3286SOL    HW2 9881   4.758   0.234   2.323
 3287SOL     OW 9882   4.800   0.683   3.326
 3287SOL    HW1 9883   4.720   0.622   3.329
 3287SOL    HW2 9884   4.881   0.630   3.302
 3288SOL     OW 9885   4.951   1.570   2.655
 3288SOL    HW1 9886   4.972   1.644   2.590
 3288SOL    HW2 9887   5.019   1.570   2.728
 3289SOL     OW 9888   4.183   1.152   2.603
 3289SOL    HW1 9889   4.112   1.125   2.668
 3289SOL    HW2 9890   4.157   1.124   2.510
 3290SOL     OW 9891   4.995   1.797   2.453
 3290SOL    HW1 9892   5.039   1.861   2.389
 3290SOL    HW2 9893   4.945   1.849   2.523
 3291SOL     OW 9894   4.756   0.549   1.878
 3291SOL    HW1 9895   4.715   0.631   1.839
 3291SOL    HW2 9896   4.820   0.575   1.951
 3292SOL     OW 9897   3.802   0.556   3.248
 3292SOL    HW1 9898   3.894   0.555   3.207
 3292SOL    HW2 9899   3.796   0.630   3.315
 3293SOL     OW 9900   4.285   0.222   3.009
 3293SOL    HW1 9901   4.323   0.138   3.046
 3293SOL    HW2 9902   4.197   0.241   3.053
 3294SOL     OW 9903   4.590   0.454   2.504
 3294SOL    HW1 9904   4.558   0.526   2.442
 3294SOL    HW2 9905   4.614   0.373   2.451
 3295SOL     OW 9906   4.741   0.039   2.615
 3295SOL    HW1 9907   4.669   0.044   2.546
 3295SOL    HW2 9908   4.717  -0.030   2.684
 3296SOL     OW 9909   4.212   1.385   2.036
 3296SOL    HW1 9910   4.125   1.370   2.083
 3296SOL    HW2 9911   4.195   1.411   1.941
 3297SOL     OW 9912   4.251   0.256   2.190
 3297SOL    HW1 9913   4.278   0.197   2.115
 3297SOL    HW2 9914   4.251   0.351   2.159
 3298SOL     OW 9915   4.788   1.347   3.202
 3298SOL    HW1 9916   4.708   1.324   3.257
 3298SOL    HW2 9917   4.871   1.321   3.251
 3299SOL     OW 9918   4.835   1.195   2.962
 3299SOL    HW1 9919   4.795   1.239   3.043
 3299SOL    HW2 9920   4.794   1.232   2.879
 3300SOL     OW 9921   4.639   0.089   3.264
 3300SOL    HW1 9922   4.664   0.069   3.169
 3300SOL    HW2 9923   4.711   0.145   3.306
 3301SOL     OW 9924   4.704   1.116   3.581
 3301SOL    HW1 9925   4.605   1.122   3.591
 3301SOL    HW2 9926   4.727   1.036   3.525
 3302SOL     OW 9927   4.429   1.050   2.230
 3302SOL    HW1 9928   4.415   1.057   2.329
 3302SOL    HW2 9929   4.513   0.999   2.212
 3303SOL     OW 9930   4.134   0.813   3.113
 3303SOL    HW1 9931   4.220   0.825   3.163
 3303SOL    HW2 9932   4.092   0.726   3.140
 3304SOL     OW 9933   4.998   0.386   3.124
 3304SOL    HW1 9934   5.019   0.460   3.188
 3304SOL    HW2 9935   4.909   0.403   3.081
 3305SOL     OW 9936   3.788   1.564   3.193
 3305SOL    HW1 9937   3.742   1.646   3.159
 3305SOL    HW2 9938   3.886   1.583   3.202
 3306SOL     OW 9939   4.091   1.100   2.363
 3306SOL    HW1 9940   4.084   1.183   2.307
 3306SOL    HW2 9941   4.095   1.020   2.303
 3307SOL     OW 9942   4.290   0.537   2.727
 3307SOL    HW1 9943   4.302   0.603   2.653
 3307SOL    HW2 9944   4.336   0.571   2.810
 3308SOL     OW 9945   4.976   1.348   2.250
 3308SOL    HW1 9946   5.026   1.425   2.290
 3308SOL    HW2 9947   4.881   1.350   2.282
 3309SOL     OW 9948   4.078   1.510   3.191
 3309SOL    HW1 9949   4.057   1.466   3.104
 3309SOL    HW2 9950   4.175   1.536   3.194
 3310SOL     OW 9951   4.126   0.751   3.460
 3310SOL    HW1 9952   4.194   0.806   3.413
 3310SOL    HW2 9953   4.166   0.663   3.487
 3311SOL     OW 9954   4.737   0.105   3.632
 3311SOL    HW1 9955   4.743   0.190   3.580
 3311SOL    HW2 9956   4.769   0.029   3.575
 3312SOL     OW 9957   4.228   0.050   3.602
 3312SOL    HW1 9958   4.186  -0.007   3.532
 3312SOL    HW2 9959   4.162   0.119   3.634
 3313SOL     OW 9960   4.297   0.870   2.891
 3313SOL    HW1 9961   4.341   0.959   2.882
 3313SOL    HW2 9962   4.234   0.870   2.968
 3314SOL     OW 9963   5.084   0.862   2.907
 3314SOL    HW1 9964   5.009   0.862   2.841
 3314SOL    HW2 9965   5.121   0.770   2.916
 3315SOL     OW 9966   4.933   0.525   2.137
 3315SOL    HW1 9967   4.946   0.441   2.191
 3315SOL    HW2 9968   4.904   0.599   2.197
 3316SOL     OW 9969   4.031   0.213   3.093
 3316SOL    HW1 9970   4.008   0.250   3.183
 3316SOL    HW2 9971   4.001   0.118   3.087
 3317SOL     OW 9972   3.761   1.310   3.144
 3317SOL    HW1 9973   3.814   1.261   3.212
 3317SOL    HW2 9974   3.783   1.408   3.149
 3318SOL     OW 9975   4.456   0.634   2.926
 3318SOL    HW1 9976   4.515   0.608   2.850
 3318SOL    HW2 9977   4.428   0.730   2.915
 3319SOL     OW 9978   4.031   0.063   2.480
 3319SOL    HW1 9979   4.020   0.157   2.513
 3319SOL    HW2 9980   4.026   0.000   2.557
 3320SOL     OW 9981   5.346   0.367   2.236
 3320SOL    HW1 9982   5.348   0.291   2.300
 3320SOL    HW2 9983   5.298   0.444   2.276
 3321SOL     OW 9984   4.747   0.766   2.828
 3321SOL    HW1 9985   4.762   0.787   2.924
 3321SOL    HW2 9986   4.717   0.671   2.819
 3322SOL     OW 9987   4.704   1.573   3.562
 3322SOL    HW1 9988   4.684   1.617   3.474
 3322SOL    HW2 9989   4.743   1.482   3.546
 3323SOL     OW 9990   4.074   0.898   3.666
 3323SOL    HW1 9991   4.150   0.942   3.714
 3323SOL    HW2 9992   4.109   0.851   3.584
 3324SOL     OW 9993   5.264   0.274   1.987
 3324SOL    HW1 9994   5.203   0.199   2.010
 3324SOL    HW2 9995   5.286   0.326   2.070
 3325SOL     OW 9996   4.792   1.333   2.711
 3325SOL    HW1 9997   4.799   1.249   2.656
 3325SOL    HW2 9998   4.854   1.402   2.675
 3326SOL     OW 9999   4.043   0.810   2.811
 3326SOL    HW110000   4.136   0.846   2.816
 3326SOL    HW210001   4.037   0.725   2.863
 3327SOL     OW10002   4.063   0.509   2.868
 3327SOL    HW110003   4.011   0.426   2.851
 3327SOL    HW210004   4.140   0.514   2.804
 3328SOL     OW10005   4.862   0.380   3.540
 3328SOL    HW110006   4.817   0.443   3.604
 3328SOL    HW210007   4.955   0.411   3.523
 3329SOL     OW10008   4.884   0.207   3.339
 3329SOL    HW110009   4.884   0.271   3.416
 3329SOL    HW210010   4.912   0.255   3.256
 3330SOL     OW10011   3.732   1.326   2.062
 3330SOL    HW110012   3.639   1.347   2.031
 3330SOL    HW210013   3.742   1.227   2.075
 3331SOL     OW10014   3.812   1.801   2.789
 3331SOL    HW110015   3.770   1.715   2.762
 3331SOL    HW210016   3.906   1.804   2.755
 3332SOL     OW10017   4.228   1.568   2.772
 3332SOL    HW110018   4.294   1.642   2.781
 3332SOL    HW210019   4.272   1.489   2.730
 3333SOL     OW10020   4.726   0.796   3.100
 3333SOL    HW110021   4.767   0.764   3.186
 3333SOL    HW210022   4.630   0.769   3.097
 3334SOL     OW10023   3.764   0.544   2.976
 3334SOL    HW110024   3.849   0.511   2.935
 3334SOL    HW210025   3.777   0.559   3.074
 3335SOL     OW10026   3.913   0.520   3.584
 3335SOL    HW110027   3.972   0.480   3.514
 3335SOL    HW210028   3.855   0.591   3.543
 3336SOL     OW10029   4.539   0.572   2.187
 3336SOL    HW110030   4.546   0.483   2.141
 3336SOL    HW210031   4.445   0.606   2.179
 3337SOL     OW10032   3.976   1.564   3.606
 3337SOL    HW110033   3.946   1.621   3.682
 3337SOL    HW210034   3.969   1.467   3.632
 3338SOL     OW10035   4.395   0.464   3.131
 3338SOL    HW110036   4.361   0.375   3.101
 3338SOL    HW210037   4.421   0.518   3.051
 3339SOL     OW10038   4.654   1.678   3.327
 3339SOL    HW110039   4.630   1.660   3.232
 3339SOL    HW210040   4.684   1.772   3.337
 3340SOL     OW10041   4.197   0.500   2.053
 3340SOL    HW110042   4.258   0.580   2.057
 3340SOL    HW210043   4.102   0.531   2.060
 3341SOL     OW10044   3.883   1.137   3.328
 3341SOL    HW110045   3.905   1.076   3.404
 3341SOL    HW210046   3.893   1.088   3.242
 3342SOL     OW10047   5.071   1.059   3.096
 3342SOL    HW110048   5.095   0.996   3.022
 3342SOL    HW210049   4.981   1.099   3.078
 3343SOL     OW10050   4.976   1.731   2.990
 3343SOL    HW110051   5.060   1.736   2.936
 3343SOL    HW210052   4.953   1.635   3.008
 3344SOL     OW10053   3.807   1.258   2.884
 3344SOL    HW110054   3.802   1.257   2.984
 3344SOL    HW210055   3.724   1.217   2.846
 3345SOL     OW10056   4.412   1.662   3.578
 3345SOL    HW110057   4.356   1.743   3.587
 3345SOL    HW210058   4.464   1.666   3.492
 3346SOL     OW10059   5.112   1.573   2.339
 3346SOL    HW110060   5.179   1.585   2.265
 3346SOL    HW210061   5.072   1.662   2.362
 3347SOL     OW10062   3.854   1.794   3.713
 3347SOL    HW110063   3.813   1.720   3.766
 3347SOL    HW210064   3.918   1.845   3.771
 3348SOL     OW10065   4.554   1.273   3.284
 3348SOL    HW110066   4.549   1.306   3.379
 3348SOL    HW210067   4.468   1.292   3.238
 3349SOL     OW10068   4.396   1.616   2.016
 3349SOL    HW110069   4.405   1.626   1.917
 3349SOL    HW210070   4.356   1.527   2.037
 3350SOL     OW10071   3.987   0.326   2.582
 3350SOL    HW110072   3.908   0.377   2.548
 3350SOL    HW210073   3.978   0.311   2.680
 3351SOL     OW10074   4.918   1.612   1.893
 3351SOL    HW110075   4.924   1.519   1.930
 3351SOL    HW210076   4.859   1.612   1.813
 3352SOL     OW10077   4.546   1.002   3.234
 3352SOL    HW110078   4.586   1.001   3.142
 3352SOL    HW210079   4.556   1.094   3.274
 3353SOL     OW10080   4.640   0.910   2.153
 3353SOL    HW110081   4.703   0.948   2.085
 3353SOL    HW210082   4.680   0.827   2.192
 3354SOL     OW10083   4.096   1.288   3.352
 3354SOL    HW110084   4.083   1.381   3.318
 3354SOL    HW210085   4.012   1.236   3.339
 3355SOL     OW10086   4.763   1.098   2.558
 3355SOL    HW110087   4.693   1.051   2.612
 3355SOL    HW210088   4.822   1.030   2.515
 3356SOL     OW10089   4.738   0.236   2.833
 3356SOL    HW110090   4.730   0.200   2.740
 3356SOL    HW210091   4.736   0.160   2.898
 3357SOL     OW10092   4.314   1.487   2.353
 3357SOL    HW110093   4.356   1.429   2.283
 3357SOL    HW210094   4.270   1.566   2.309
 3358SOL     OW10095   3.979   1.348   2.152
 3358SOL    HW110096   3.883   1.349   2.125
 3358SOL    HW210097   3.991   1.401   2.236
 3359SOL     OW10098   3.829   1.013   3.588
 3359SOL    HW110099   3.752   0.980   3.642
 3359SOL    HW210100   3.914   0.983   3.630
 3360SOL     OW10101   4.396   0.203   3.351
 3360SOL    HW110102   4.486   0.187   3.311
 3360SOL    HW210103   4.404   0.208   3.450
 3361SOL     OW10104   3.799   0.345   1.895
 3361SOL    HW110105   3.707   0.317   1.866
 3361SOL    HW210106   3.830   0.422   1.839
 3362SOL     OW10107   3.796   0.166   2.180
 3362SOL    HW110108   3.779   0.249   2.126
 3362SOL    HW210109   3.886   0.129   2.158
 3363SOL     OW10110   4.337   0.842   3.293
 3363SOL    HW110111   4.393   0.923   3.276
 3363SOL    HW210112   4.396   0.762   3.296
 3364SOL     OW10113   4.440   0.565   3.570
 3364SOL    HW110114   4.459   0.630   3.644
 3364SOL    HW210115   4.500   0.485   3.579
 3365SOL     OW10116   4.114   1.741   3.422
 3365SOL    HW110117   4.023   1.782   3.420
 3365SOL    HW210118   4.107   1.647   3.454
 3366SOL     OW10119   4.318   0.745   2.514
 3366SOL    HW110120   4.368   0.830   2.495
 3366SOL    HW210121   4.230   0.747   2.466
 3367SOL     OW10122   4.583   1.374   1.878
 3367SOL    HW110123   4.537   1.389   1.966
 3367SOL    HW210124   4.627   1.459   1.848
 3368SOL     OW10125   4.385   1.790   2.815
 3368SOL    HW110126   4.339   1.878   2.802
 3368SOL    HW210127   4.484   1.802   2.808
 3369SOL     OW10128   4.583   0.956   2.723
 3369SOL    HW110129   4.637   0.887   2.771
 3369SOL    HW210130   4.551   1.025   2.789
 3370SOL     OW10131   4.807   0.984   1.949
 3370SOL    HW110132   4.784   1.037   1.867
 3370SOL    HW210133   4.888   0.928   1.930
 3371SOL     OW10134   3.945   1.314   3.706
 3371SOL    HW110135   3.880   1.241   3.685
 3371SOL    HW210136   3.949   1.328   3.804
 3372SOL     OW10137   3.803   1.240   2.515
 3372SOL    HW110138   3.802   1.193   2.603
 3372SOL    HW210139   3.885   1.212   2.464
 3373SOL     OW10140   4.396   1.391   3.486
 3373SOL    HW110141   4.318   1.341   3.524
 3373SOL    HW210142   4.393   1.486   3.517
 3374SOL     OW10143   4.152   0.424   2.382
 3374SOL    HW110144   4.182   0.352   2.320
 3374SOL    HW210145   4.113   0.384   2.465
 3375SOL     OW10146   4.041   0.547   3.142
 3375SOL    HW110147   4.079   0.488   3.214
 3375SOL    HW210148   4.081   0.521   3.054
 3376SOL     OW10149   4.536   1.586   2.549
 3376SOL    HW110150   4.568   1.596   2.455
 3376SOL    HW210151   4.457   1.524   2.551
 3377SOL     OW10152   4.725   0.034   3.016
 3377SOL    HW110153   4.662  -0.038   2.985
 3377SOL    HW210154   4.818  -0.002   3.016
 3378SOL     OW10155   4.494   1.330   2.163
 3378SOL    HW110156   4.448   1.243   2.180
 3378SOL    HW210157   4.585   1.327   2.204
 3379SOL     OW10158   4.342   1.567   3.146
 3379SOL    HW110159   4.337   1.649   3.203
 3379SOL    HW210160   4.431   1.564   3.101
 3380SOL     OW10161   3.763   1.077   2.162
 3380SOL    HW110162   3.862   1.066   2.153
 3380SOL    HW210163   3.723   0.991   2.194
 3381SOL     OW10164   4.599   1.646   2.199
 3381SOL    HW110165   4.522   1.611   2.145
 3381SOL    HW210166   4.567   1.717   2.261
 3382SOL     OW10167   3.954   0.628   3.837
 3382SOL    HW110168   3.861   0.626   3.874
 3382SOL    HW210169   3.955   0.589   3.745
 3383SOL     OW10170   3.949   0.275   4.720
 3383SOL    HW110171   3.984   0.258   4.812
 3383SOL    HW210172   3.861   0.230   4.708
 3384SOL     OW10173   3.743   0.368   4.371
 3384SOL    HW110174   3.661   0.411   4.410
 3384SOL    HW210175   3.715   0.295   4.308
 3385SOL     OW10176   4.293   1.275   4.889
 3385SOL    HW110177   4.200   1.268   4.852
 3385SOL    HW210178   4.304   1.364   4.933
 3386SOL     OW10179   4.859   0.703   4.441
 3386SOL    HW110180   4.916   0.781   4.416
 3386SOL    HW210181   4.799   0.729   4.517
 3387SOL     OW10182   4.492   1.144   4.747
 3387SOL    HW110183   4.414   1.161   4.807
 3387SOL    HW210184   4.526   1.231   4.711
 3388SOL     OW10185   4.409   1.012   4.389
 3388SOL    HW110186   4.478   0.996   4.459
 3388SOL    HW210187   4.336   1.069   4.427
 3389SOL     OW10188   4.059   1.435   4.785
 3389SOL    HW110189   3.981   1.404   4.732
 3389SOL    HW210190   4.117   1.493   4.728
 3390SOL     OW10191   3.955   1.713   4.207
 3390SOL    HW110192   3.989   1.790   4.261
 3390SOL    HW210193   3.999   1.713   4.117
 3391SOL     OW10194   3.954   1.434   4.262
 3391SOL    HW110195   3.928   1.530   4.262
 3391SOL    HW210196   3.883   1.380   4.307
 3392SOL     OW10197   3.964   1.091   4.610
 3392SOL    HW110198   3.978   1.007   4.662
 3392SOL    HW210199   3.909   1.155   4.665
 3393SOL     OW10200   4.330   0.964   3.847
 3393SOL    HW110201   4.337   1.048   3.793
 3393SOL    HW210202   4.376   0.977   3.935
 3394SOL     OW10203   3.846   0.643   4.287
 3394SOL    HW110204   3.801   0.555   4.304
 3394SOL    HW210205   3.845   0.697   4.371
 3395SOL     OW10206   3.751   1.596   3.841
 3395SOL    HW110207   3.732   1.500   3.862
 3395SOL    HW210208   3.718   1.654   3.916
 3396SOL     OW10209   3.837   0.737   5.321
 3396SOL    HW110210   3.925   0.724   5.366
 3396SOL    HW210211   3.824   0.834   5.299
 3397SOL     OW10212   4.337   1.365   4.450
 3397SOL    HW110213   4.288   1.278   4.459
 3397SOL    HW210214   4.314   1.408   4.363
 3398SOL     OW10215   4.533   0.004   4.226
 3398SOL    HW110216   4.573   0.095   4.217
 3398SOL    HW210217   4.433   0.012   4.232
 3399SOL     OW10218   3.921   0.976   4.988
 3399SOL    HW110219   4.010   0.931   4.974
 3399SOL    HW210220   3.848   0.911   4.969
 3400SOL     OW10221   4.322   0.729   3.994
 3400SOL    HW110222   4.346   0.798   3.926
 3400SOL    HW210223   4.244   0.762   4.048
 3401SOL     OW10224   4.715   0.410   4.966
 3401SOL    HW110225   4.638   0.444   5.020
 3401SOL    HW210226   4.681   0.359   4.887
 3402SOL     OW10227   4.765   0.701   4.153
 3402SOL    HW110228   4.791   0.697   4.249
 3402SOL    HW210229   4.680   0.650   4.139
 3403SOL     OW10230   3.800   0.811   4.513
 3403SOL    HW110231   3.899   0.799   4.522
 3403SOL    HW210232   3.776   0.906   4.534
 3404SOL     OW10233   4.589   0.348   3.919
 3404SOL    HW110234   4.648   0.411   3.870
 3404SOL    HW210235   4.608   0.254   3.890
 3405SOL     OW10236   4.274   0.196   4.609
 3405SOL    HW110237   4.269   0.191   4.709
 3405SOL    HW210238   4.276   0.292   4.580
 3406SOL     OW10239   4.732   1.456   4.201
 3406SOL    HW110240   4.686   1.528   4.149
 3406SOL    HW210241   4.728   1.476   4.299
 3407SOL     OW10242   4.075   1.801   4.577
 3407SOL    HW110243   4.125   1.715   4.583
 3407SOL    HW210244   4.140   1.878   4.574
 3408SOL     OW10245   4.045   0.943   3.966
 3408SOL    HW110246   4.127   0.982   3.924
 3408SOL    HW210247   4.018   0.861   3.917
 3409SOL     OW10248   4.835   1.776   3.961
 3409SOL    HW110249   4.775   1.714   4.011
 3409SOL    HW210250   4.866   1.732   3.876
 3410SOL     OW10251   4.188   1.743   4.047
 3410SOL    HW110252   4.221   1.782   4.133
 3410SOL    HW210253   4.264   1.736   3.982
 3411SOL     OW10254   3.973   1.785   4.965
 3411SOL    HW110255   4.030   1.720   5.015
 3411SOL    HW210256   3.957   1.752   4.872
 3412SOL     OW10257   4.664   1.698   4.628
 3412SOL    HW110258   4.744   1.641   4.649
 3412SOL    HW210259   4.615   1.658   4.551
 3413SOL     OW10260   4.106   0.700   4.204
 3413SOL    HW110261   4.151   0.610   4.201
 3413SOL    HW210262   4.012   0.689   4.237
 3414SOL     OW10263   4.338   0.122   3.841
 3414SOL    HW110264   4.436   0.100   3.848
 3414SOL    HW210265   4.307   0.105   3.748
 3415SOL     OW10266   4.527   1.402   4.648
 3415SOL    HW110267   4.617   1.416   4.606
 3415SOL    HW210268   4.456   1.404   4.577
 3416SOL     OW10269   4.646   0.503   4.623
 3416SOL    HW110270   4.621   0.494   4.527
 3416SOL    HW210271   4.694   0.421   4.654
 3417SOL     OW10272   4.263   0.064   4.236
 3417SOL    HW110273   4.182   0.065   4.294
 3417SOL    HW210274   4.266   0.147   4.181
 3418SOL     OW10275   4.021   0.035   3.895
 3418SOL    HW110276   4.070   0.119   3.874
 3418SOL    HW210277   4.083  -0.030   3.940
 3419SOL     OW10278   4.659   0.236   4.204
 3419SOL    HW110279   4.611   0.277   4.126
 3419SOL    HW210280   4.758   0.234   4.185
 3420SOL     OW10281   4.951   1.570   4.517
 3420SOL    HW110282   4.972   1.644   4.452
 3420SOL    HW210283   5.019   1.570   4.590
 3421SOL     OW10284   4.183   1.152   4.465
 3421SOL    HW110285   4.112   1.125   4.530
 3421SOL    HW210286   4.157   1.124   4.372
 3422SOL     OW10287   4.995   1.797   4.315
 3422SOL    HW110288   5.039   1.861   4.251
 3422SOL    HW210289   4.945   1.849   4.385
 3423SOL     OW10290   4.756   0.549   3.740
 3423SOL    HW110291   4.715   0.631   3.701
 3423SOL    HW210292   4.820   0.575   3.813
 3424SOL     OW10293   4.285   0.222   4.871
 3424SOL    HW110294   4.323   0.138   4.908
 3424SOL    HW210295   4.197   0.241   4.915
 3425SOL     OW10296   4.590   0.454   4.366
 3425SOL    HW110297   4.558   0.526   4.304
 3425SOL    HW210298   4.614   0.373   4.313
 3426SOL     OW10299   4.741   0.039   4.477
 3426SOL    HW110300   4.669   0.044   4.408
 3426SOL    HW210301   4.717  -0.030   4.546
 3427SOL     OW10302   4.212   1.385   3.898
 3427SOL    HW110303   4.125   1.370   3.945
 3427SOL    HW210304   4.195   1.411   3.803
 3428SOL     OW10305   4.251   0.256   4.052
 3428SOL    HW110306   4.278   0.197   3.977
 3428SOL    HW210307   4.251   0.351   4.021
 3429SOL     OW10308   4.835   1.195   4.824
 3429SOL    HW110309   4.795   1.239   4.905
 3429SOL    HW210310   4.794   1.232   4.741
 3430SOL     OW10311   4.429   1.050   4.092
 3430SOL    HW110312   4.415   1.057   4.191
 3430SOL    HW210313   4.513   0.999   4.074
 3431SOL     OW10314   4.134   0.813   4.975
 3431SOL    HW110315   4.220   0.825   5.025
 3431SOL    HW210316   4.092   0.726   5.002
 3432SOL     OW10317   4.091   1.100   4.225
 3432SOL    HW110318   4.084   1.183   4.169
 3432SOL    HW210319   4.095   1.020   4.165
 3433SOL     OW10320   4.290   0.537   4.589
 3433SOL    HW110321   4.302   0.603   4.515
 3433SOL    HW210322   4.336   0.571   4.672
 3434SOL     OW10323   4.976   1.348   4.112
 3434SOL    HW110324   5.026   1.425   4.152
 3434SOL    HW210325   4.881   1.350   4.144
 3435SOL     OW10326   4.078   1.510   5.053
 3435SOL    HW110327   4.057   1.466   4.966
 3435SOL    HW210328   4.175   1.536   5.056
 3436SOL     OW10329   4.297   0.870   4.753
 3436SOL    HW110330   4.341   0.959   4.744
 3436SOL    HW210331   4.234   0.870   4.830
 3437SOL     OW10332   5.084   0.862   4.769
 3437SOL    HW110333   5.009   0.862   4.703
 3437SOL    HW210334   5.121   0.770   4.778
 3438SOL     OW10335   4.933   0.525   3.999
 3438SOL    HW110336   4.946   0.441   4.053
 3438SOL    HW210337   4.904   0.599   4.059
 3439SOL     OW10338   4.031   0.213   4.955
 3439SOL    HW110339   4.008   0.250   5.045
 3439SOL    HW210340   4.001   0.118   4.949
 3440SOL     OW10341   3.761   1.310   5.006
 3440SOL    HW110342   3.814   1.261   5.074
 3440SOL    HW210343   3.783   1.408   5.011
 3441SOL     OW10344   4.456   0.634   4.788
 3441SOL    HW110345   4.515   0.608   4.712
 3441SOL    HW210346   4.428   0.730   4.777
 3442SOL     OW10347   4.031   0.063   4.342
 3442SOL    HW110348   4.020   0.157   4.375
 3442SOL    HW210349   4.026   0.000   4.419
 3443SOL     OW10350   5.346   0.367   4.098
 3443SOL    HW110351   5.348   0.291   4.162
 3443SOL    HW210352   5.298   0.444   4.138
 3444SOL     OW10353   4.747   0.766   4.690
 3444SOL    HW110354   4.762   0.787   4.786
 3444SOL    HW210355   4.717   0.671   4.681
 3445SOL     OW10356   5.264   0.274   3.849
 3445SOL    HW110357   5.203   0.199   3.872
 3445SOL    HW210358   5.286   0.326   3.932
 3446SOL     OW10359   4.792   1.333   4.573
 3446SOL    HW110360   4.799   1.249   4.518
 3446SOL    HW210361   4.854   1.402   4.537
 3447SOL     OW10362   4.043   0.810   4.673
 3447SOL    HW110363   4.136   0.846   4.678
 3447SOL    HW210364   4.037   0.725   4.725
 3448SOL     OW10365   4.063   0.509   4.730
 3448SOL    HW110366   4.011   0.426   4.713
 3448SOL    HW210367   4.140   0.514   4.666
 3449SOL     OW10368   4.884   0.207   5.201
 3449SOL    HW110369   4.884   0.271   5.278
 3449SOL    HW210370   4.912   0.255   5.118
 3450SOL     OW10371   3.732   1.326   3.924
 3450SOL    HW110372   3.639   1.347   3.893
 3450SOL    HW210373   3.742   1.227   3.937
 3451SOL     OW10374   3.812   1.801   4.651
 3451SOL    HW110375   3.770   1.715   4.624
 3451SOL    HW210376   3.906   1.804   4.617
 3452SOL     OW10377   4.228   1.568   4.634
 3452SOL    HW110378   4.294   1.642   4.643
 3452SOL    HW210379   4.272   1.489   4.592
 3453SOL     OW10380   4.726   0.796   4.962
 3453SOL    HW110381   4.767   0.764   5.048
 3453SOL    HW210382   4.630   0.769   4.959
 3454SOL     OW10383   3.764   0.544   4.838
 3454SOL    HW110384   3.849   0.511   4.797
 3454SOL    HW210385   3.777   0.559   4.936
 3455SOL     OW10386   4.539   0.572   4.049
 3455SOL    HW110387   4.546   0.483   4.003
 3455SOL    HW210388   4.445   0.606   4.041
 3456SOL     OW10389   4.395   0.464   4.993
 3456SOL    HW110390   4.361   0.375   4.963
 3456SOL    HW210391   4.421   0.518   4.913
 3457SOL     OW10392   4.654   1.678   5.189
 3457SOL    HW110393   4.630   1.660   5.094
 3457SOL    HW210394   4.684   1.772   5.199
 3458SOL     OW10395   4.197   0.500   3.915
 3458SOL    HW110396   4.258   0.580   3.919
 3458SOL    HW210397   4.102   0.531   3.922
 3459SOL     OW10398   5.071   1.059   4.958
 3459SOL    HW110399   5.095   0.996   4.884
 3459SOL    HW210400   4.981   1.099   4.940
 3460SOL     OW10401   4.976   1.731   4.852
 3460SOL    HW110402   5.060   1.736   4.798
 3460SOL    HW210403   4.953   1.635   4.870
 3461SOL     OW10404   3.807   1.258   4.746
 3461SOL    HW110405   3.802   1.257   4.846
 3461SOL    HW210406   3.724   1.217   4.708
 3462SOL     OW10407   5.112   1.573   4.201
 3462SOL    HW110408   5.179   1.585   4.127
 3462SOL    HW210409   5.072   1.662   4.224
 3463SOL     OW10410   4.396   1.616   3.878
 3463SOL    HW110411   4.405   1.626   3.779
 3463SOL    HW210412   4.356   1.527   3.899
 3464SOL     OW10413   3.987   0.326   4.444
 3464SOL    HW110414   3.908   0.377   4.410
 3464SOL    HW210415   3.978   0.311   4.542
 3465SOL     OW10416   4.918   1.612   3.755
 3465SOL    HW110417   4.924   1.519   3.792
 3465SOL    HW210418   4.859   1.612   3.675
 3466SOL     OW10419   4.546   1.002   5.096
 3466SOL    HW110420   4.586   1.001   5.004
 3466SOL    HW210421   4.556   1.094   5.136
 3467SOL     OW10422   4.640   0.910   4.015
 3467SOL    HW110423   4.703   0.948   3.947
 3467SOL    HW210424   4.680   0.827   4.054
 3468SOL     OW10425   5.338   1.292   5.013
 3468SOL    HW110426   5.398   1.295   5.093
 3468SOL    HW210427   5.263   1.356   5.026
 3469SOL     OW10428   4.763   1.098   4.420
 3469SOL    HW110429   4.693   1.051   4.474
 3469SOL    HW210430   4.822   1.030   4.377
 3470SOL     OW10431   4.738   0.236   4.695
 3470SOL    HW110432   4.730   0.200   4.602
 3470SOL    HW210433   4.736   0.160   4.760
 3471SOL     OW10434   4.314   1.487   4.215
 3471SOL    HW110435   4.356   1.429   4.145
 3471SOL    HW210436   4.270   1.566   4.171
 3472SOL     OW10437   3.979   1.348   4.014
 3472SOL    HW110438   3.883   1.349   3.987
 3472SOL    HW210439   3.991   1.401   4.098
 3473SOL     OW10440   3.799   0.345   3.757
 3473SOL    HW110441   3.707   0.317   3.728
 3473SOL    HW210442   3.830   0.422   3.701
 3474SOL     OW10443   3.796   0.166   4.042
 3474SOL    HW110444   3.779   0.249   3.988
 3474SOL    HW210445   3.886   0.129   4.020
 3475SOL     OW10446   4.318   0.745   4.376
 3475SOL    HW110447   4.368   0.830   4.357
 3475SOL    HW210448   4.230   0.747   4.328
 3476SOL     OW10449   4.583   1.374   3.740
 3476SOL    HW110450   4.537   1.389   3.828
 3476SOL    HW210451   4.627   1.459   3.710
 3477SOL     OW10452   4.385   1.790   4.677
 3477SOL    HW110453   4.339   1.878   4.664
 3477SOL    HW210454   4.484   1.802   4.670
 3478SOL     OW10455   4.583   0.956   4.585
 3478SOL    HW110456   4.637   0.887   4.633
 3478SOL    HW210457   4.551   1.025   4.651
 3479SOL     OW10458   4.807   0.984   3.811
 3479SOL    HW110459   4.784   1.037   3.729
 3479SOL    HW210460   4.888   0.928   3.792
 3480SOL     OW10461   3.803   1.240   4.377
 3480SOL    HW110462   3.802   1.193   4.465
 3480SOL    HW210463   3.885   1.212   4.326
 3481SOL     OW10464   4.152   0.424   4.244
 3481SOL    HW110465   4.182   0.352   4.182
 3481SOL    HW210466   4.113   0.384   4.327
 3482SOL     OW10467   4.536   1.586   4.411
 3482SOL    HW110468   4.568   1.596   4.317
 3482SOL    HW210469   4.457   1.524   4.413
 3483SOL     OW10470   4.725   0.034   4.878
 3483SOL    HW110471   4.662  -0.038   4.847
 3483SOL    HW210472   4.818  -0.002   4.878
 3484SOL     OW10473   4.494   1.330   4.025
 3484SOL    HW110474   4.448   1.243   4.042
 3484SOL    HW210475   4.585   1.327   4.066
 3485SOL     OW10476   3.763   1.077   4.024
 3485SOL    HW110477   3.862   1.066   4.015
 3485SOL    HW210478   3.723   0.991   4.056
 3486SOL     OW10479   4.599   1.646   4.061
 3486SOL    HW110480   4.522   1.611   4.007
 3486SOL    HW210481   4.567   1.717   4.123
 3487SOL     OW10482   3.954   2.490   0.113
 3487SOL    HW110483   3.861   2.488   0.150
 3487SOL    HW210484   3.955   2.451   0.021
 3488SOL     OW10485   3.949   2.137   0.996
 3488SOL    HW110486   3.984   2.120   1.088
 3488SOL    HW210487   3.861   2.092   0.984
 3489SOL     OW10488   3.743   2.230   0.647
 3489SOL    HW110489   3.661   2.273   0.686
 3489SOL    HW210490   3.715   2.157   0.584
 3490SOL     OW10491   4.293   3.137   1.165
 3490SOL    HW110492   4.200   3.130   1.128
 3490SOL    HW210493   4.304   3.226   1.209
 3491SOL     OW10494   4.859   2.565   0.717
 3491SOL    HW110495   4.916   2.643   0.692
 3491SOL    HW210496   4.799   2.591   0.793
 3492SOL     OW10497   4.492   3.006   1.023
 3492SOL    HW110498   4.414   3.023   1.083
 3492SOL    HW210499   4.526   3.093   0.987
 3493SOL     OW10500   4.574   2.660   1.823
 3493SOL    HW110501   4.570   2.736   1.888
 3493SOL    HW210502   4.596   2.696   1.732
 3494SOL     OW10503   4.409   2.874   0.665
 3494SOL    HW110504   4.478   2.858   0.735
 3494SOL    HW210505   4.336   2.931   0.703
 3495SOL     OW10506   4.410   3.023   1.803
 3495SOL    HW110507   4.470   3.102   1.817
 3495SOL    HW210508   4.324   3.054   1.762
 3496SOL     OW10509   4.059   3.297   1.061
 3496SOL    HW110510   3.981   3.266   1.008
 3496SOL    HW210511   4.117   3.355   1.004
 3497SOL     OW10512   4.162   2.254   1.499
 3497SOL    HW110513   4.244   2.198   1.508
 3497SOL    HW210514   4.081   2.196   1.503
 3498SOL     OW10515   3.955   3.575   0.483
 3498SOL    HW110516   3.989   3.652   0.537
 3498SOL    HW210517   3.999   3.575   0.393
 3499SOL     OW10518   4.851   3.203   1.690
 3499SOL    HW110519   4.898   3.203   1.778
 3499SOL    HW210520   4.803   3.116   1.679
 3500SOL     OW10521   3.954   3.296   0.538
 3500SOL    HW110522   3.928   3.392   0.538
 3500SOL    HW210523   3.883   3.242   0.583
 3501SOL     OW10524   3.964   2.953   0.886
 3501SOL    HW110525   3.978   2.869   0.938
 3501SOL    HW210526   3.909   3.017   0.941
 3502SOL     OW10527   4.344   3.648   1.439
 3502SOL    HW110528   4.252   3.631   1.474
 3502SOL    HW210529   4.372   3.740   1.465
 3503SOL     OW10530   4.330   2.826   0.123
 3503SOL    HW110531   4.337   2.910   0.069
 3503SOL    HW210532   4.376   2.839   0.211
 3504SOL     OW10533   3.846   2.505   0.563
 3504SOL    HW110534   3.801   2.417   0.580
 3504SOL    HW210535   3.845   2.559   0.647
 3505SOL     OW10536   3.751   3.458   0.117
 3505SOL    HW110537   3.732   3.362   0.138
 3505SOL    HW210538   3.718   3.516   0.192
 3506SOL     OW10539   3.837   2.599   1.597
 3506SOL    HW110540   3.925   2.586   1.642
 3506SOL    HW210541   3.824   2.696   1.575
 3507SOL     OW10542   4.337   3.227   0.726
 3507SOL    HW110543   4.288   3.140   0.735
 3507SOL    HW210544   4.314   3.270   0.639
 3508SOL     OW10545   4.533   1.866   0.502
 3508SOL    HW110546   4.573   1.957   0.493
 3508SOL    HW210547   4.433   1.874   0.508
 3509SOL     OW10548   3.921   2.838   1.264
 3509SOL    HW110549   4.010   2.793   1.250
 3509SOL    HW210550   3.848   2.773   1.245
 3510SOL     OW10551   4.911   3.654   1.616
 3510SOL    HW110552   4.935   3.714   1.540
 3510SOL    HW210553   4.918   3.559   1.586
 3511SOL     OW10554   4.041   2.113   1.801
 3511SOL    HW110555   4.112   2.184   1.807
 3511SOL    HW210556   3.953   2.152   1.829
 3512SOL     OW10557   4.322   2.591   0.270
 3512SOL    HW110558   4.346   2.660   0.202
 3512SOL    HW210559   4.244   2.624   0.324
 3513SOL     OW10560   4.531   2.467   1.465
 3513SOL    HW110561   4.484   2.464   1.554
 3513SOL    HW210562   4.480   2.412   1.399
 3514SOL     OW10563   4.697   2.752   1.572
 3514SOL    HW110564   4.743   2.668   1.543
 3514SOL    HW210565   4.641   2.786   1.497
 3515SOL     OW10566   4.715   2.272   1.242
 3515SOL    HW110567   4.638   2.306   1.296
 3515SOL    HW210568   4.681   2.221   1.163
 3516SOL     OW10569   4.765   2.563   0.429
 3516SOL    HW110570   4.791   2.559   0.525
 3516SOL    HW210571   4.680   2.512   0.415
 3517SOL     OW10572   3.800   2.673   0.789
 3517SOL    HW110573   3.899   2.661   0.798
 3517SOL    HW210574   3.776   2.768   0.810
 3518SOL     OW10575   3.854   3.683   1.571
 3518SOL    HW110576   3.844   3.668   1.670
 3518SOL    HW210577   3.768   3.719   1.535
 3519SOL     OW10578   4.589   2.210   0.195
 3519SOL    HW110579   4.648   2.273   0.146
 3519SOL    HW210580   4.608   2.116   0.166
 3520SOL     OW10581   4.274   2.058   0.885
 3520SOL    HW110582   4.269   2.053   0.985
 3520SOL    HW210583   4.276   2.154   0.856
 3521SOL     OW10584   4.732   3.318   0.477
 3521SOL    HW110585   4.686   3.390   0.425
 3521SOL    HW210586   4.728   3.338   0.575
 3522SOL     OW10587   4.075   3.663   0.853
 3522SOL    HW110588   4.125   3.577   0.859
 3522SOL    HW210589   4.140   3.740   0.850
 3523SOL     OW10590   4.951   3.412   1.506
 3523SOL    HW110591   4.957   3.335   1.570
 3523SOL    HW210592   4.899   3.386   1.426
 3524SOL     OW10593   4.045   2.805   0.242
 3524SOL    HW110594   4.127   2.844   0.200
 3524SOL    HW210595   4.018   2.723   0.193
 3525SOL     OW10596   4.185   3.128   1.727
 3525SOL    HW110597   4.135   3.129   1.641
 3525SOL    HW210598   4.122   3.110   1.803
 3526SOL     OW10599   4.835   3.638   0.237
 3526SOL    HW110600   4.775   3.576   0.287
 3526SOL    HW210601   4.866   3.594   0.152
 3527SOL     OW10602   3.926   2.147   1.498
 3527SOL    HW110603   3.846   2.207   1.485
 3527SOL    HW210604   3.916   2.098   1.584
 3528SOL     OW10605   4.188   3.605   0.323
 3528SOL    HW110606   4.221   3.644   0.409
 3528SOL    HW210607   4.264   3.598   0.258
 3529SOL     OW10608   3.973   3.647   1.241
 3529SOL    HW110609   4.030   3.582   1.291
 3529SOL    HW210610   3.957   3.614   1.148
 3530SOL     OW10611   4.664   3.560   0.904
 3530SOL    HW110612   4.744   3.503   0.925
 3530SOL    HW210613   4.615   3.520   0.827
 3531SOL     OW10614   4.106   2.562   0.480
 3531SOL    HW110615   4.151   2.472   0.477
 3531SOL    HW210616   4.012   2.551   0.513
 3532SOL     OW10617   4.338   1.984   0.117
 3532SOL    HW110618   4.436   1.962   0.124
 3532SOL    HW210619   4.307   1.967   0.024
 3533SOL     OW10620   4.505   2.126   1.749
 3533SOL    HW110621   4.572   2.065   1.792
 3533SOL    HW210622   4.432   2.145   1.814
 3534SOL     OW10623   4.612   3.376   1.195
 3534SOL    HW110624   4.589   3.351   1.101
 3534SOL    HW210625   4.673   3.307   1.234
 3535SOL     OW10626   4.527   3.264   0.924
 3535SOL    HW110627   4.617   3.278   0.882
 3535SOL    HW210628   4.456   3.266   0.853
 3536SOL     OW10629   4.646   2.365   0.899
 3536SOL    HW110630   4.621   2.356   0.803
 3536SOL    HW210631   4.694   2.283   0.930
 3537SOL     OW10632   4.263   1.926   0.512
 3537SOL    HW110633   4.182   1.927   0.570
 3537SOL    HW210634   4.266   2.009   0.457
 3538SOL     OW10635   4.021   1.897   0.171
 3538SOL    HW110636   4.070   1.981   0.150
 3538SOL    HW210637   4.083   1.832   0.216
 3539SOL     OW10638   4.659   2.098   0.480
 3539SOL    HW110639   4.611   2.139   0.402
 3539SOL    HW210640   4.758   2.096   0.461
 3540SOL     OW10641   4.800   2.545   1.464
 3540SOL    HW110642   4.720   2.484   1.467
 3540SOL    HW210643   4.881   2.492   1.440
 3541SOL     OW10644   4.951   3.432   0.793
 3541SOL    HW110645   4.972   3.506   0.728
 3541SOL    HW210646   5.019   3.432   0.866
 3542SOL     OW10647   4.183   3.014   0.741
 3542SOL    HW110648   4.112   2.987   0.806
 3542SOL    HW210649   4.157   2.986   0.648
 3543SOL     OW10650   4.995   3.659   0.591
 3543SOL    HW110651   5.039   3.723   0.527
 3543SOL    HW210652   4.945   3.711   0.661
 3544SOL     OW10653   4.756   2.411   0.016
 3544SOL    HW110654   4.715   2.493  -0.023
 3544SOL    HW210655   4.820   2.437   0.089
 3545SOL     OW10656   3.802   2.418   1.386
 3545SOL    HW110657   3.894   2.417   1.345
 3545SOL    HW210658   3.796   2.492   1.453
 3546SOL     OW10659   4.285   2.084   1.147
 3546SOL    HW110660   4.323   2.000   1.184
 3546SOL    HW210661   4.197   2.103   1.191
 3547SOL     OW10662   4.590   2.316   0.642
 3547SOL    HW110663   4.558   2.388   0.580
 3547SOL    HW210664   4.614   2.235   0.589
 3548SOL     OW10665   4.741   1.901   0.753
 3548SOL    HW110666   4.669   1.906   0.684
 3548SOL    HW210667   4.717   1.832   0.822
 3549SOL     OW10668   4.212   3.247   0.174
 3549SOL    HW110669   4.125   3.232   0.221
 3549SOL    HW210670   4.195   3.273   0.079
 3550SOL     OW10671   4.251   2.118   0.328
 3550SOL    HW110672   4.278   2.059   0.253
 3550SOL    HW210673   4.251   2.213   0.297
 3551SOL     OW10674   4.788   3.209   1.340
 3551SOL    HW110675   4.708   3.186   1.395
 3551SOL    HW210676   4.871   3.183   1.389
 3552SOL     OW10677   4.835   3.057   1.100
 3552SOL    HW110678   4.795   3.101   1.181
 3552SOL    HW210679   4.794   3.094   1.017
 3553SOL     OW10680   4.639   1.951   1.402
 3553SOL    HW110681   4.664   1.931   1.307
 3553SOL    HW210682   4.711   2.007   1.444
 3554SOL     OW10683   4.704   2.978   1.719
 3554SOL    HW110684   4.605   2.984   1.729
 3554SOL    HW210685   4.727   2.898   1.663
 3555SOL     OW10686   4.429   2.912   0.368
 3555SOL    HW110687   4.415   2.919   0.467
 3555SOL    HW210688   4.513   2.861   0.350
 3556SOL     OW10689   4.134   2.675   1.251
 3556SOL    HW110690   4.220   2.687   1.301
 3556SOL    HW210691   4.092   2.588   1.278
 3557SOL     OW10692   4.998   2.248   1.262
 3557SOL    HW110693   5.019   2.322   1.326
 3557SOL    HW210694   4.909   2.265   1.219
 3558SOL     OW10695   3.788   3.426   1.331
 3558SOL    HW110696   3.742   3.508   1.297
 3558SOL    HW210697   3.886   3.445   1.340
 3559SOL     OW10698   4.091   2.962   0.501
 3559SOL    HW110699   4.084   3.045   0.445
 3559SOL    HW210700   4.095   2.882   0.441
 3560SOL     OW10701   4.290   2.399   0.865
 3560SOL    HW110702   4.302   2.465   0.791
 3560SOL    HW210703   4.336   2.433   0.948
 3561SOL     OW10704   4.976   3.210   0.388
 3561SOL    HW110705   5.026   3.287   0.428
 3561SOL    HW210706   4.881   3.212   0.420
 3562SOL     OW10707   4.078   3.372   1.329
 3562SOL    HW110708   4.057   3.328   1.242
 3562SOL    HW210709   4.175   3.398   1.332
 3563SOL     OW10710   4.126   2.613   1.598
 3563SOL    HW110711   4.194   2.668   1.551
 3563SOL    HW210712   4.166   2.525   1.625
 3564SOL     OW10713   4.737   1.967   1.770
 3564SOL    HW110714   4.743   2.052   1.718
 3564SOL    HW210715   4.769   1.891   1.713
 3565SOL     OW10716   4.228   1.912   1.740
 3565SOL    HW110717   4.186   1.855   1.670
 3565SOL    HW210718   4.162   1.981   1.772
 3566SOL     OW10719   4.297   2.732   1.029
 3566SOL    HW110720   4.341   2.821   1.020
 3566SOL    HW210721   4.234   2.732   1.106
 3567SOL     OW10722   5.084   2.724   1.045
 3567SOL    HW110723   5.009   2.724   0.979
 3567SOL    HW210724   5.121   2.632   1.054
 3568SOL     OW10725   4.933   2.387   0.275
 3568SOL    HW110726   4.946   2.303   0.329
 3568SOL    HW210727   4.904   2.461   0.335
 3569SOL     OW10728   4.031   2.075   1.231
 3569SOL    HW110729   4.008   2.112   1.321
 3569SOL    HW210730   4.001   1.980   1.225
 3570SOL     OW10731   3.761   3.172   1.282
 3570SOL    HW110732   3.814   3.123   1.350
 3570SOL    HW210733   3.783   3.270   1.287
 3571SOL     OW10734   4.456   2.496   1.064
 3571SOL    HW110735   4.515   2.470   0.988
 3571SOL    HW210736   4.428   2.592   1.053
 3572SOL     OW10737   4.031   1.925   0.618
 3572SOL    HW110738   4.020   2.019   0.651
 3572SOL    HW210739   4.026   1.862   0.695
 3573SOL     OW10740   5.346   2.229   0.374
 3573SOL    HW110741   5.348   2.153   0.438
 3573SOL    HW210742   5.298   2.306   0.414
 3574SOL     OW10743   4.747   2.628   0.966
 3574SOL    HW110744   4.762   2.649   1.062
 3574SOL    HW210745   4.717   2.533   0.957
 3575SOL     OW10746   4.704   3.435   1.700
 3575SOL    HW110747   4.684   3.479   1.612
 3575SOL    HW210748   4.743   3.344   1.684
 3576SOL     OW10749   4.074   2.760   1.804
 3576SOL    HW110750   4.150   2.804   1.852
 3576SOL    HW210751   4.109   2.713   1.722
 3577SOL     OW10752   5.027   2.700   0.042
 3577SOL    HW110753   5.061   2.607   0.057
 3577SOL    HW210754   5.045   2.727  -0.053
 3578SOL     OW10755   4.792   3.195   0.849
 3578SOL    HW110756   4.799   3.111   0.794
 3578SOL    HW210757   4.854   3.264   0.813
 3579SOL     OW10758   4.043   2.672   0.949
 3579SOL    HW110759   4.136   2.708   0.954
 3579SOL    HW210760   4.037   2.587   1.001
 3580SOL     OW10761   4.063   2.371   1.006
 3580SOL    HW110762   4.011   2.288   0.989
 3580SOL    HW210763   4.140   2.376   0.942
 3581SOL     OW10764   4.862   2.242   1.678
 3581SOL    HW110765   4.817   2.305   1.742
 3581SOL    HW210766   4.955   2.273   1.661
 3582SOL     OW10767   4.884   2.069   1.477
 3582SOL    HW110768   4.884   2.133   1.554
 3582SOL    HW210769   4.912   2.117   1.394
 3583SOL     OW10770   3.812   3.663   0.927
 3583SOL    HW110771   3.770   3.577   0.900
 3583SOL    HW210772   3.906   3.666   0.893
 3584SOL     OW10773   4.228   3.430   0.910
 3584SOL    HW110774   4.294   3.504   0.919
 3584SOL    HW210775   4.272   3.351   0.868
 3585SOL     OW10776   4.726   2.658   1.238
 3585SOL    HW110777   4.767   2.626   1.324
 3585SOL    HW210778   4.630   2.631   1.235
 3586SOL     OW10779   3.764   2.406   1.114
 3586SOL    HW110780   3.849   2.373   1.073
 3586SOL    HW210781   3.777   2.421   1.212
 3587SOL     OW10782   3.913   2.382   1.722
 3587SOL    HW110783   3.972   2.342   1.652
 3587SOL    HW210784   3.855   2.453   1.681
 3588SOL     OW10785   4.539   2.434   0.325
 3588SOL    HW110786   4.546   2.345   0.279
 3588SOL    HW210787   4.445   2.468   0.317
 3589SOL     OW10788   3.976   3.426   1.744
 3589SOL    HW110789   3.946   3.483   1.820
 3589SOL    HW210790   3.969   3.329   1.770
 3590SOL     OW10791   4.395   2.326   1.269
 3590SOL    HW110792   4.361   2.237   1.239
 3590SOL    HW210793   4.421   2.380   1.189
 3591SOL     OW10794   4.654   3.540   1.465
 3591SOL    HW110795   4.630   3.522   1.370
 3591SOL    HW210796   4.684   3.634   1.475
 3592SOL     OW10797   4.197   2.362   0.191
 3592SOL    HW110798   4.258   2.442   0.195
 3592SOL    HW210799   4.102   2.393   0.198
 3593SOL     OW10800   3.883   2.999   1.466
 3593SOL    HW110801   3.905   2.938   1.542
 3593SOL    HW210802   3.893   2.950   1.380
 3594SOL     OW10803   5.071   2.921   1.234
 3594SOL    HW110804   5.095   2.858   1.160
 3594SOL    HW210805   4.981   2.961   1.216
 3595SOL     OW10806   4.976   3.593   1.128
 3595SOL    HW110807   5.060   3.598   1.074
 3595SOL    HW210808   4.953   3.497   1.146
 3596SOL     OW10809   3.807   3.120   1.022
 3596SOL    HW110810   3.802   3.119   1.122
 3596SOL    HW210811   3.724   3.079   0.984
 3597SOL     OW10812   4.412   3.524   1.716
 3597SOL    HW110813   4.356   3.605   1.725
 3597SOL    HW210814   4.464   3.528   1.630
 3598SOL     OW10815   4.627   1.948   0.133
 3598SOL    HW110816   4.678   1.949   0.047
 3598SOL    HW210817   4.683   1.906   0.204
 3599SOL     OW10818   5.112   3.435   0.477
 3599SOL    HW110819   5.179   3.447   0.403
 3599SOL    HW210820   5.072   3.524   0.500
 3600SOL     OW10821   3.854   3.656   1.851
 3600SOL    HW110822   3.813   3.582   1.904
 3600SOL    HW210823   3.918   3.707   1.909
 3601SOL     OW10824   4.554   3.135   1.422
 3601SOL    HW110825   4.549   3.168   1.517
 3601SOL    HW210826   4.468   3.154   1.376
 3602SOL     OW10827   4.396   3.478   0.154
 3602SOL    HW110828   4.405   3.488   0.055
 3602SOL    HW210829   4.356   3.389   0.175
 3603SOL     OW10830   3.987   2.188   0.720
 3603SOL    HW110831   3.908   2.239   0.686
 3603SOL    HW210832   3.978   2.173   0.818
 3604SOL     OW10833   4.918   3.474   0.031
 3604SOL    HW110834   4.924   3.381   0.068
 3604SOL    HW210835   4.859   3.474  -0.049
 3605SOL     OW10836   4.546   2.864   1.372
 3605SOL    HW110837   4.586   2.863   1.280
 3605SOL    HW210838   4.556   2.956   1.412
 3606SOL     OW10839   4.640   2.772   0.291
 3606SOL    HW110840   4.703   2.810   0.223
 3606SOL    HW210841   4.680   2.689   0.330
 3607SOL     OW10842   4.096   3.150   1.490
 3607SOL    HW110843   4.083   3.243   1.456
 3607SOL    HW210844   4.012   3.098   1.477
 3608SOL     OW10845   4.763   2.960   0.696
 3608SOL    HW110846   4.693   2.913   0.750
 3608SOL    HW210847   4.822   2.892   0.653
 3609SOL     OW10848   4.738   2.098   0.971
 3609SOL    HW110849   4.730   2.062   0.878
 3609SOL    HW210850   4.736   2.022   1.036
 3610SOL     OW10851   4.314   3.349   0.491
 3610SOL    HW110852   4.356   3.291   0.421
 3610SOL    HW210853   4.270   3.428   0.447
 3611SOL     OW10854   3.979   3.210   0.290
 3611SOL    HW110855   3.883   3.211   0.263
 3611SOL    HW210856   3.991   3.263   0.374
 3612SOL     OW10857   3.829   2.875   1.726
 3612SOL    HW110858   3.752   2.842   1.780
 3612SOL    HW210859   3.914   2.845   1.768
 3613SOL     OW10860   4.396   2.065   1.489
 3613SOL    HW110861   4.486   2.049   1.449
 3613SOL    HW210862   4.404   2.070   1.588
 3614SOL     OW10863   3.796   2.028   0.318
 3614SOL    HW110864   3.779   2.111   0.264
 3614SOL    HW210865   3.886   1.991   0.296
 3615SOL     OW10866   4.337   2.704   1.431
 3615SOL    HW110867   4.393   2.785   1.414
 3615SOL    HW210868   4.396   2.624   1.434
 3616SOL     OW10869   4.440   2.427   1.708
 3616SOL    HW110870   4.459   2.492   1.782
 3616SOL    HW210871   4.500   2.347   1.717
 3617SOL     OW10872   4.114   3.603   1.560
 3617SOL    HW110873   4.023   3.644   1.558
 3617SOL    HW210874   4.107   3.509   1.592
 3618SOL     OW10875   4.318   2.607   0.652
 3618SOL    HW110876   4.368   2.692   0.633
 3618SOL    HW210877   4.230   2.609   0.604
 3619SOL     OW10878   4.583   3.236   0.016
 3619SOL    HW110879   4.537   3.251   0.104
 3619SOL    HW210880   4.627   3.321  -0.014
 3620SOL     OW10881   4.385   3.652   0.953
 3620SOL    HW110882   4.339   3.740   0.940
 3620SOL    HW210883   4.484   3.664   0.946
 3621SOL     OW10884   4.583   2.818   0.861
 3621SOL    HW110885   4.637   2.749   0.909
 3621SOL    HW210886   4.551   2.887   0.927
 3622SOL     OW10887   4.807   2.846   0.087
 3622SOL    HW110888   4.784   2.899   0.005
 3622SOL    HW210889   4.888   2.790   0.068
 3623SOL     OW10890   3.945   3.176   1.844
 3623SOL    HW110891   3.880   3.103   1.823
 3623SOL    HW210892   3.949   3.190   1.942
 3624SOL     OW10893   3.803   3.102   0.653
 3624SOL    HW110894   3.802   3.055   0.741
 3624SOL    HW210895   3.885   3.074   0.602
 3625SOL     OW10896   4.396   3.253   1.624
 3625SOL    HW110897   4.318   3.203   1.662
 3625SOL    HW210898   4.393   3.348   1.655
 3626SOL     OW10899   4.152   2.286   0.520
 3626SOL    HW110900   4.182   2.214   0.458
 3626SOL    HW210901   4.113   2.246   0.603
 3627SOL     OW10902   4.041   2.409   1.280
 3627SOL    HW110903   4.079   2.350   1.352
 3627SOL    HW210904   4.081   2.383   1.192
 3628SOL     OW10905   4.536   3.448   0.687
 3628SOL    HW110906   4.568   3.458   0.593
 3628SOL    HW210907   4.457   3.386   0.689
 3629SOL     OW10908   4.725   1.896   1.154
 3629SOL    HW110909   4.662   1.824   1.123
 3629SOL    HW210910   4.818   1.860   1.154
 3630SOL     OW10911   4.494   3.192   0.301
 3630SOL    HW110912   4.448   3.105   0.318
 3630SOL    HW210913   4.585   3.189   0.342
 3631SOL     OW10914   4.342   3.429   1.284
 3631SOL    HW110915   4.337   3.511   1.341
 3631SOL    HW210916   4.431   3.426   1.239
 3632SOL     OW10917   3.763   2.939   0.300
 3632SOL    HW110918   3.862   2.928   0.291
 3632SOL    HW210919   3.723   2.853   0.332
 3633SOL     OW10920   4.599   3.508   0.337
 3633SOL    HW110921   4.522   3.473   0.283
 3633SOL    HW210922   4.567   3.579   0.399
 3634SOL     OW10923   3.954   2.490   1.975
 3634SOL    HW110924   3.861   2.488   2.012
 3634SOL    HW210925   3.955   2.451   1.883
 3635SOL     OW10926   3.949   2.137   2.858
 3635SOL    HW110927   3.984   2.120   2.950
 3635SOL    HW210928   3.861   2.092   2.846
 3636SOL     OW10929   3.743   2.230   2.509
 3636SOL    HW110930   3.661   2.273   2.548
 3636SOL    HW210931   3.715   2.157   2.446
 3637SOL     OW10932   4.293   3.137   3.027
 3637SOL    HW110933   4.200   3.130   2.990
 3637SOL    HW210934   4.304   3.226   3.071
 3638SOL     OW10935   4.859   2.565   2.579
 3638SOL    HW110936   4.916   2.643   2.554
 3638SOL    HW210937   4.799   2.591   2.655
 3639SOL     OW10938   4.492   3.006   2.885
 3639SOL    HW110939   4.414   3.023   2.945
 3639SOL    HW210940   4.526   3.093   2.849
 3640SOL     OW10941   4.574   2.660   3.685
 3640SOL    HW110942   4.570   2.736   3.750
 3640SOL    HW210943   4.596   2.696   3.594
 3641SOL     OW10944   4.409   2.874   2.527
 3641SOL    HW110945   4.478   2.858   2.597
 3641SOL    HW210946   4.336   2.931   2.565
 3642SOL     OW10947   4.410   3.023   3.665
 3642SOL    HW110948   4.470   3.102   3.679
 3642SOL    HW210949   4.324   3.054   3.624
 3643SOL     OW10950   4.059   3.297   2.923
 3643SOL    HW110951   3.981   3.266   2.870
 3643SOL    HW210952   4.117   3.355   2.866
 3644SOL     OW10953   4.162   2.254   3.361
 3644SOL    HW110954   4.244   2.198   3.370
 3644SOL    HW210955   4.081   2.196   3.365
 3645SOL     OW10956   3.955   3.575   2.345
 3645SOL    HW110957   3.989   3.652   2.399
 3645SOL    HW210958   3.999   3.575   2.255
 3646SOL     OW10959   4.851   3.203   3.552
 3646SOL    HW110960   4.898   3.203   3.640
 3646SOL    HW210961   4.803   3.116   3.541
 3647SOL     OW10962   3.954   3.296   2.400
 3647SOL    HW110963   3.928   3.392   2.400
 3647SOL    HW210964   3.883   3.242   2.445
 3648SOL     OW10965   3.964   2.953   2.748
 3648SOL    HW110966   3.978   2.869   2.800
 3648SOL    HW210967   3.909   3.017   2.803
 3649SOL     OW10968   4.344   3.648   3.301
 3649SOL    HW110969   4.252   3.631   3.336
 3649SOL    HW210970   4.372   3.740   3.327
 3650SOL     OW10971   4.330   2.826   1.985
 3650SOL    HW110972   4.337   2.910   1.931
 3650SOL    HW210973   4.376   2.839   2.073
 3651SOL     OW10974   3.846   2.505   2.425
 3651SOL    HW110975   3.801   2.417   2.442
 3651SOL    HW210976   3.845   2.559   2.509
 3652SOL     OW10977   3.751   3.458   1.979
 3652SOL    HW110978   3.732   3.362   2.000
 3652SOL    HW210979   3.718   3.516   2.054
 3653SOL     OW10980   3.837   2.599   3.459
 3653SOL    HW110981   3.925   2.586   3.504
 3653SOL    HW210982   3.824   2.696   3.437
 3654SOL     OW10983   4.337   3.227   2.588
 3654SOL    HW110984   4.288   3.140   2.597
 3654SOL    HW210985   4.314   3.270   2.501
 3655SOL     OW10986   4.533   1.866   2.364
 3655SOL    HW110987   4.573   1.957   2.355
 3655SOL    HW210988   4.433   1.874   2.370
 3656SOL     OW10989   3.921   2.838   3.126
 3656SOL    HW110990   4.010   2.793   3.112
 3656SOL    HW210991   3.848   2.773   3.107
 3657SOL     OW10992   4.911   3.654   3.478
 3657SOL    HW110993   4.935   3.714   3.402
 3657SOL    HW210994   4.918   3.559   3.448
 3658SOL     OW10995   4.041   2.113   3.663
 3658SOL    HW110996   4.112   2.184   3.669
 3658SOL    HW210997   3.953   2.152   3.691
 3659SOL     OW10998   4.322   2.591   2.132
 3659SOL    HW110999   4.346   2.660   2.064
 3659SOL    HW211000   4.244   2.624   2.186
 3660SOL     OW11001   4.531   2.467   3.327
 3660SOL    HW111002   4.484   2.464   3.416
 3660SOL    HW211003   4.480   2.412   3.261
 3661SOL     OW11004   4.697   2.752   3.434
 3661SOL    HW111005   4.743   2.668   3.405
 3661SOL    HW211006   4.641   2.786   3.359
 3662SOL     OW11007   4.715   2.272   3.104
 3662SOL    HW111008   4.638   2.306   3.158
 3662SOL    HW211009   4.681   2.221   3.025
 3663SOL     OW11010   4.765   2.563   2.291
 3663SOL    HW111011   4.791   2.559   2.387
 3663SOL    HW211012   4.680   2.512   2.277
 3664SOL     OW11013   3.800   2.673   2.651
 3664SOL    HW111014   3.899   2.661   2.660
 3664SOL    HW211015   3.776   2.768   2.672
 3665SOL     OW11016   3.854   3.683   3.433
 3665SOL    HW111017   3.844   3.668   3.532
 3665SOL    HW211018   3.768   3.719   3.397
 3666SOL     OW11019   4.589   2.210   2.057
 3666SOL    HW111020   4.648   2.273   2.008
 3666SOL    HW211021   4.608   2.116   2.028
 3667SOL     OW11022   4.274   2.058   2.747
 3667SOL    HW111023   4.269   2.053   2.847
 3667SOL    HW211024   4.276   2.154   2.718
 3668SOL     OW11025   4.732   3.318   2.339
 3668SOL    HW111026   4.686   3.390   2.287
 3668SOL    HW211027   4.728   3.338   2.437
 3669SOL     OW11028   4.075   3.663   2.715
 3669SOL    HW111029   4.125   3.577   2.721
 3669SOL    HW211030   4.140   3.740   2.712
 3670SOL     OW11031   4.951   3.412   3.368
 3670SOL    HW111032   4.957   3.335   3.432
 3670SOL    HW211033   4.899   3.386   3.288
 3671SOL     OW11034   4.045   2.805   2.104
 3671SOL    HW111035   4.127   2.844   2.062
 3671SOL    HW211036   4.018   2.723   2.055
 3672SOL     OW11037   4.185   3.128   3.589
 3672SOL    HW111038   4.135   3.129   3.503
 3672SOL    HW211039   4.122   3.110   3.665
 3673SOL     OW11040   4.835   3.638   2.099
 3673SOL    HW111041   4.775   3.576   2.149
 3673SOL    HW211042   4.866   3.594   2.014
 3674SOL     OW11043   3.926   2.147   3.360
 3674SOL    HW111044   3.846   2.207   3.347
 3674SOL    HW211045   3.916   2.098   3.446
 3675SOL     OW11046   4.188   3.605   2.185
 3675SOL    HW111047   4.221   3.644   2.271
 3675SOL    HW211048   4.264   3.598   2.120
 3676SOL     OW11049   3.973   3.647   3.103
 3676SOL    HW111050   4.030   3.582   3.153
 3676SOL    HW211051   3.957   3.614   3.010
 3677SOL     OW11052   4.664   3.560   2.766
 3677SOL    HW111053   4.744   3.503   2.787
 3677SOL    HW211054   4.615   3.520   2.689
 3678SOL     OW11055   4.106   2.562   2.342
 3678SOL    HW111056   4.151   2.472   2.339
 3678SOL    HW211057   4.012   2.551   2.375
 3679SOL     OW11058   4.338   1.984   1.979
 3679SOL    HW111059   4.436   1.962   1.986
 3679SOL    HW211060   4.307   1.967   1.886
 3680SOL     OW11061   4.505   2.126   3.611
 3680SOL    HW111062   4.572   2.065   3.654
 3680SOL    HW211063   4.432   2.145   3.676
 3681SOL     OW11064   4.612   3.376   3.057
 3681SOL    HW111065   4.589   3.351   2.963
 3681SOL    HW211066   4.673   3.307   3.096
 3682SOL     OW11067   4.527   3.264   2.786
 3682SOL    HW111068   4.617   3.278   2.744
 3682SOL    HW211069   4.456   3.266   2.715
 3683SOL     OW11070   4.646   2.365   2.761
 3683SOL    HW111071   4.621   2.356   2.665
 3683SOL    HW211072   4.694   2.283   2.792
 3684SOL     OW11073   4.263   1.926   2.374
 3684SOL    HW111074   4.182   1.927   2.432
 3684SOL    HW211075   4.266   2.009   2.319
 3685SOL     OW11076   4.021   1.897   2.033
 3685SOL    HW111077   4.070   1.981   2.012
 3685SOL    HW211078   4.083   1.832   2.078
 3686SOL     OW11079   4.659   2.098   2.342
 3686SOL    HW111080   4.611   2.139   2.264
 3686SOL    HW211081   4.758   2.096   2.323
 3687SOL     OW11082   4.800   2.545   3.326
 3687SOL    HW111083   4.720   2.484   3.329
 3687SOL    HW211084   4.881   2.492   3.302
 3688SOL     OW11085   4.951   3.432   2.655
 3688SOL    HW111086   4.972   3.506   2.590
 3688SOL    HW211087   5.019   3.432   2.728
 3689SOL     OW11088   4.183   3.014   2.603
 3689SOL    HW111089   4.112   2.987   2.668
 3689SOL    HW211090   4.157   2.986   2.510
 3690SOL     OW11091   4.995   3.659   2.453
 3690SOL    HW111092   5.039   3.723   2.389
 3690SOL    HW211093   4.945   3.711   2.523
 3691SOL     OW11094   4.756   2.411   1.878
 3691SOL    HW111095   4.715   2.493   1.839
 3691SOL    HW211096   4.820   2.437   1.951
 3692SOL     OW11097   3.802   2.418   3.248
 3692SOL    HW111098   3.894   2.417   3.207
 3692SOL    HW211099   3.796   2.492   3.315
 3693SOL     OW11100   4.285   2.084   3.009
 3693SOL    HW111101   4.323   2.000   3.046
 3693SOL    HW211102   4.197   2.103   3.053
 3694SOL     OW11103   4.590   2.316   2.504
 3694SOL    HW111104   4.558   2.388   2.442
 3694SOL    HW211105   4.614   2.235   2.451
 3695SOL     OW11106   4.741   1.901   2.615
 3695SOL    HW111107   4.669   1.906   2.546
 3695SOL    HW211108   4.717   1.832   2.684
 3696SOL     OW11109   4.212   3.247   2.036
 3696SOL    HW111110   4.125   3.232   2.083
 3696SOL    HW211111   4.195   3.273   1.941
 3697SOL     OW11112   4.251   2.118   2.190
 3697SOL    HW111113   4.278   2.059   2.115
 3697SOL    HW211114   4.251   2.213   2.159
 3698SOL     OW11115   4.788   3.209   3.202
 3698SOL    HW111116   4.708   3.186   3.257
 3698SOL    HW211117   4.871   3.183   3.251
 3699SOL     OW11118   4.835   3.057   2.962
 3699SOL    HW111119   4.795   3.101   3.043
 3699SOL    HW211120   4.794   3.094   2.879
 3700SOL     OW11121   4.639   1.951   3.264
 3700SOL    HW111122   4.664   1.931   3.169
 3700SOL    HW211123   4.711   2.007   3.306
 3701SOL     OW11124   4.704   2.978   3.581
 3701SOL    HW111125   4.605   2.984   3.591
 3701SOL    HW211126   4.727   2.898   3.525
 3702SOL     OW11127   4.429   2.912   2.230
 3702SOL    HW111128   4.415   2.919   2.329
 3702SOL    HW211129   4.513   2.861   2.212
 3703SOL     OW11130   4.134   2.675   3.113
 3703SOL    HW111131   4.220   2.687   3.163
 3703SOL    HW211132   4.092   2.588   3.140
 3704SOL     OW11133   4.998   2.248   3.124
 3704SOL    HW111134   5.019   2.322   3.188
 3704SOL    HW211135   4.909   2.265   3.081
 3705SOL     OW11136   3.788   3.426   3.193
 3705SOL    HW111137   3.742   3.508   3.159
 3705SOL    HW211138   3.886   3.445   3.202
 3706SOL     OW11139   4.091   2.962   2.363
 3706SOL    HW111140   4.084   3.045   2.307
 3706SOL    HW211141   4.095   2.882   2.303
 3707SOL     OW11142   4.290   2.399   2.727
 3707SOL    HW111143   4.302   2.465   2.653
 3707SOL    HW211144   4.336   2.433   2.810
 3708SOL     OW11145   4.976   3.210   2.250
 3708SOL    HW111146   5.026   3.287   2.290
 3708SOL    HW211147   4.881   3.212   2.282
 3709SOL     OW11148   4.078   3.372   3.191
 3709SOL    HW111149   4.057   3.328   3.104
 3709SOL    HW211150   4.175   3.398   3.194
 3710SOL     OW11151   4.126   2.613   3.460
 3710SOL    HW111152   4.194   2.668   3.413
 3710SOL    HW211153   4.166   2.525   3.487
 3711SOL     OW11154   4.737   1.967   3.632
 3711SOL    HW111155   4.743   2.052   3.580
 3711SOL    HW211156   4.769   1.891   3.575
 3712SOL     OW11157   4.228   1.912   3.602
 3712SOL    HW111158   4.186   1.855   3.532
 3712SOL    HW211159   4.162   1.981   3.634
 3713SOL     OW11160   4.297   2.732   2.891
 3713SOL    HW111161   4.341   2.821   2.882
 3713SOL    HW211162   4.234   2.732   2.968
 3714SOL     OW11163   5.084   2.724   2.907
 3714SOL    HW111164   5.009   2.724   2.841
 3714SOL    HW211165   5.121   2.632   2.916
 3715SOL     OW11166   4.933   2.387   2.137
 3715SOL    HW111167   4.946   2.303   2.191
 3715SOL    HW211168   4.904   2.461   2.197
 3716SOL     OW11169   4.031   2.075   3.093
 3716SOL    HW111170   4.008   2.112   3.183
 3716SOL    HW211171   4.001   1.980   3.087
 3717SOL     OW11172   3.761   3.172   3.144
 3717SOL    HW111173   3.814   3.123   3.212
 3717SOL    HW211174   3.783   3.270   3.149
 3718SOL     OW11175   4.456   2.496   2.926
 3718SOL    HW111176   4.515   2.470   2.850
 3718SOL    HW211177   4.428   2.592   2.915
 3719SOL     OW11178   4.031   1.925   2.480
 3719SOL    HW111179   4.020   2.019   2.513
 3719SOL    HW211180   4.026   1.862   2.557
 3720SOL     OW11181   5.346   2.229   2.236
 3720SOL    HW111182   5.348   2.153   2.300
 3720SOL    HW211183   5.298   2.306   2.276
 3721SOL     OW11184   4.747   2.628   2.828
 3721SOL    HW111185   4.762   2.649   2.924
 3721SOL    HW211186   4.717   2.533   2.819
 3722SOL     OW11187   4.704   3.435   3.562
 3722SOL    HW111188   4.684   3.479   3.474
 3722SOL    HW211189   4.743   3.344   3.546
 3723SOL     OW11190   4.074   2.760   3.666
 3723SOL    HW111191   4.150   2.804   3.714
 3723SOL    HW211192   4.109   2.713   3.584
 3724SOL     OW11193   5.264   2.136   1.987
 3724SOL    HW111194   5.203   2.061   2.010
 3724SOL    HW211195   5.286   2.188   2.070
 3725SOL     OW11196   4.792   3.195   2.711
 3725SOL    HW111197   4.799   3.111   2.656
 3725SOL    HW211198   4.854   3.264   2.675
 3726SOL     OW11199   4.043   2.672   2.811
 3726SOL    HW111200   4.136   2.708   2.816
 3726SOL    HW211201   4.037   2.587   2.863
 3727SOL     OW11202   4.063   2.371   2.868
 3727SOL    HW111203   4.011   2.288   2.851
 3727SOL    HW211204   4.140   2.376   2.804
 3728SOL     OW11205   4.862   2.242   3.540
 3728SOL    HW111206   4.817   2.305   3.604
 3728SOL    HW211207   4.955   2.273   3.523
 3729SOL     OW11208   4.884   2.069   3.339
 3729SOL    HW111209   4.884   2.133   3.416
 3729SOL    HW211210   4.912   2.117   3.256
 3730SOL     OW11211   3.732   3.188   2.062
 3730SOL    HW111212   3.639   3.209   2.031
 3730SOL    HW211213   3.742   3.089   2.075
 3731SOL     OW11214   3.812   3.663   2.789
 3731SOL    HW111215   3.770   3.577   2.762
 3731SOL    HW211216   3.906   3.666   2.755
 3732SOL     OW11217   4.228   3.430   2.772
 3732SOL    HW111218   4.294   3.504   2.781
 3732SOL    HW211219   4.272   3.351   2.730
 3733SOL     OW11220   4.726   2.658   3.100
 3733SOL    HW111221   4.767   2.626   3.186
 3733SOL    HW211222   4.630   2.631   3.097
 3734SOL     OW11223   3.764   2.406   2.976
 3734SOL    HW111224   3.849   2.373   2.935
 3734SOL    HW211225   3.777   2.421   3.074
 3735SOL     OW11226   3.913   2.382   3.584
 3735SOL    HW111227   3.972   2.342   3.514
 3735SOL    HW211228   3.855   2.453   3.543
 3736SOL     OW11229   4.539   2.434   2.187
 3736SOL    HW111230   4.546   2.345   2.141
 3736SOL    HW211231   4.445   2.468   2.179
 3737SOL     OW11232   3.976   3.426   3.606
 3737SOL    HW111233   3.946   3.483   3.682
 3737SOL    HW211234   3.969   3.329   3.632
 3738SOL     OW11235   4.395   2.326   3.131
 3738SOL    HW111236   4.361   2.237   3.101
 3738SOL    HW211237   4.421   2.380   3.051
 3739SOL     OW11238   4.654   3.540   3.327
 3739SOL    HW111239   4.630   3.522   3.232
 3739SOL    HW211240   4.684   3.634   3.337
 3740SOL     OW11241   4.197   2.362   2.053
 3740SOL    HW111242   4.258   2.442   2.057
 3740SOL    HW211243   4.102   2.393   2.060
 3741SOL     OW11244   3.883   2.999   3.328
 3741SOL    HW111245   3.905   2.938   3.404
 3741SOL    HW211246   3.893   2.950   3.242
 3742SOL     OW11247   5.071   2.921   3.096
 3742SOL    HW111248   5.095   2.858   3.022
 3742SOL    HW211249   4.981   2.961   3.078
 3743SOL     OW11250   4.976   3.593   2.990
 3743SOL    HW111251   5.060   3.598   2.936
 3743SOL    HW211252   4.953   3.497   3.008
 3744SOL     OW11253   3.807   3.120   2.884
 3744SOL    HW111254   3.802   3.119   2.984
 3744SOL    HW211255   3.724   3.079   2.846
 3745SOL     OW11256   4.412   3.524   3.578
 3745SOL    HW111257   4.356   3.605   3.587
 3745SOL    HW211258   4.464   3.528   3.492
 3746SOL     OW11259   5.112   3.435   2.339
 3746SOL    HW111260   5.179   3.447   2.265
 3746SOL    HW211261   5.072   3.524   2.362
 3747SOL     OW11262   3.854   3.656   3.713
 3747SOL    HW111263   3.813   3.582   3.766
 3747SOL    HW211264   3.918   3.707   3.771
 3748SOL     OW11265   4.554   3.135   3.284
 3748SOL    HW111266   4.549   3.168   3.379
 3748SOL    HW211267   4.468   3.154   3.238
 3749SOL     OW11268   4.396   3.478   2.016
 3749SOL    HW111269   4.405   3.488   1.917
 3749SOL    HW211270   4.356   3.389   2.037
 3750SOL     OW11271   3.987   2.188   2.582
 3750SOL    HW111272   3.908   2.239   2.548
 3750SOL    HW211273   3.978   2.173   2.680
 3751SOL     OW11274   4.918   3.474   1.893
 3751SOL    HW111275   4.924   3.381   1.930
 3751SOL    HW211276   4.859   3.474   1.813
 3752SOL     OW11277   4.546   2.864   3.234
 3752SOL    HW111278   4.586   2.863   3.142
 3752SOL    HW211279   4.556   2.956   3.274
 3753SOL     OW11280   4.640   2.772   2.153
 3753SOL    HW111281   4.703   2.810   2.085
 3753SOL    HW211282   4.680   2.689   2.192
 3754SOL     OW11283   4.096   3.150   3.352
 3754SOL    HW111284   4.083   3.243   3.318
 3754SOL    HW211285   4.012   3.098   3.339
 3755SOL     OW11286   4.763   2.960   2.558
 3755SOL    HW111287   4.693   2.913   2.612
 3755SOL    HW211288   4.822   2.892   2.515
 3756SOL     OW11289   4.738   2.098   2.833
 3756SOL    HW111290   4.730   2.062   2.740
 3756SOL    HW211291   4.736   2.022   2.898
 3757SOL     OW11292   4.314   3.349   2.353
 3757SOL    HW111293   4.356   3.291   2.283
 3757SOL    HW211294   4.270   3.428   2.309
 3758SOL     OW11295   3.979   3.210   2.152
 3758SOL    HW111296   3.883   3.211   2.125
 3758SOL    HW211297   3.991   3.263   2.236
 3759SOL     OW11298   3.829   2.875   3.588
 3759SOL    HW111299   3.752   2.842   3.642
 3759SOL    HW211300   3.914   2.845   3.630
 3760SOL     OW11301   4.396   2.065   3.351
 3760SOL    HW111302   4.486   2.049   3.311
 3760SOL    HW211303   4.404   2.070   3.450
 3761SOL     OW11304   3.799   2.207   1.895
 3761SOL    HW111305   3.707   2.179   1.866
 3761SOL    HW211306   3.830   2.284   1.839
 3762SOL     OW11307   3.796   2.028   2.180
 3762SOL    HW111308   3.779   2.111   2.126
 3762SOL    HW211309   3.886   1.991   2.158
 3763SOL     OW11310   4.337   2.704   3.293
 3763SOL    HW111311   4.393   2.785   3.276
 3763SOL    HW211312   4.396   2.624   3.296
 3764SOL     OW11313   4.440   2.427   3.570
 3764SOL    HW111314   4.459   2.492   3.644
 3764SOL    HW211315   4.500   2.347   3.579
 3765SOL     OW11316   4.114   3.603   3.422
 3765SOL    HW111317   4.023   3.644   3.420
 3765SOL    HW211318   4.107   3.509   3.454
 3766SOL     OW11319   4.318   2.607   2.514
 3766SOL    HW111320   4.368   2.692   2.495
 3766SOL    HW211321   4.230   2.609   2.466
 3767SOL     OW11322   4.583   3.236   1.878
 3767SOL    HW111323   4.537   3.251   1.966
 3767SOL    HW211324   4.627   3.321   1.848
 3768SOL     OW11325   4.385   3.652   2.815
 3768SOL    HW111326   4.339   3.740   2.802
 3768SOL    HW211327   4.484   3.664   2.808
 3769SOL     OW11328   4.583   2.818   2.723
 3769SOL    HW111329   4.637   2.749   2.771
 3769SOL    HW211330   4.551   2.887   2.789
 3770SOL     OW11331   4.807   2.846   1.949
 3770SOL    HW111332   4.784   2.899   1.867
 3770SOL    HW211333   4.888   2.790   1.930
 3771SOL     OW11334   3.945   3.176   3.706
 3771SOL    HW111335   3.880   3.103   3.685
 3771SOL    HW211336   3.949   3.190   3.804
 3772SOL     OW11337   3.803   3.102   2.515
 3772SOL    HW111338   3.802   3.055   2.603
 3772SOL    HW211339   3.885   3.074   2.464
 3773SOL     OW11340   4.396   3.253   3.486
 3773SOL    HW111341   4.318   3.203   3.524
 3773SOL    HW211342   4.393   3.348   3.517
 3774SOL     OW11343   4.152   2.286   2.382
 3774SOL    HW111344   4.182   2.214   2.320
 3774SOL    HW211345   4.113   2.246   2.465
 3775SOL     OW11346   4.041   2.409   3.142
 3775SOL    HW111347   4.079   2.350   3.214
 3775SOL    HW211348   4.081   2.383   3.054
 3776SOL     OW11349   4.536   3.448   2.549
 3776SOL    HW111350   4.568   3.458   2.455
 3776SOL    HW211351   4.457   3.386   2.551
 3777SOL     OW11352   4.725   1.896   3.016
 3777SOL    HW111353   4.662   1.824   2.985
 3777SOL    HW211354   4.818   1.860   3.016
 3778SOL     OW11355   4.494   3.192   2.163
 3778SOL    HW111356   4.448   3.105   2.180
 3778SOL    HW211357   4.585   3.189   2.204
 3779SOL     OW11358   4.342   3.429   3.146
 3779SOL    HW111359   4.337   3.511   3.203
 3779SOL    HW211360   4.431   3.426   3.101
 3780SOL     OW11361   3.763   2.939   2.162
 3780SOL    HW111362   3.862   2.928   2.153
 3780SOL    HW211363   3.723   2.853   2.194
 3781SOL     OW11364   4.599   3.508   2.199
 3781SOL    HW111365   4.522   3.473   2.145
 3781SOL    HW211366   4.567   3.579   2.261
 3782SOL     OW11367   3.954   2.490   3.837
 3782SOL    HW111368   3.861   2.488   3.874
 3782SOL    HW211369   3.955   2.451   3.745
 3783SOL     OW11370   3.949   2.137   4.720
 3783SOL    HW111371   3.984   2.120   4.812
 3783SOL    HW211372   3.861   2.092   4.708
 3784SOL     OW11373   3.743   2.230   4.371
 3784SOL    HW111374   3.661   2.273   4.410
 3784SOL    HW211375   3.715   2.157   4.308
 3785SOL     OW11376   4.293   3.137   4.889
 3785SOL    HW111377   4.200   3.130   4.852
 3785SOL    HW211378   4.304   3.226   4.933
 3786SOL     OW11379   4.859   2.565   4.441
 3786SOL    HW111380   4.916   2.643   4.416
 3786SOL    HW211381   4.799   2.591   4.517
 3787SOL     OW11382   4.492   3.006   4.747
 3787SOL    HW111383   4.414   3.023   4.807
 3787SOL    HW211384   4.526   3.093   4.711
 3788SOL     OW11385   4.409   2.874   4.389
 3788SOL    HW111386   4.478   2.858   4.459
 3788SOL    HW211387   4.336   2.931   4.427
 3789SOL     OW11388   4.059   3.297   4.785
 3789SOL    HW111389   3.981   3.266   4.732
 3789SOL    HW211390   4.117   3.355   4.728
 3790SOL     OW11391   3.955   3.575   4.207
 3790SOL    HW111392   3.989   3.652   4.261
 3790SOL    HW211393   3.999   3.575   4.117
 3791SOL     OW11394   3.954   3.296   4.262
 3791SOL    HW111395   3.928   3.392   4.262
 3791SOL    HW211396   3.883   3.242   4.307
 3792SOL     OW11397   3.964   2.953   4.610
 3792SOL    HW111398   3.978   2.869   4.662
 3792SOL    HW211399   3.909   3.017   4.665
 3793SOL     OW11400   4.330   2.826   3.847
 3793SOL    HW111401   4.337   2.910   3.793
 3793SOL    HW211402   4.376   2.839   3.935
 3794SOL     OW11403   3.846   2.505   4.287
 3794SOL    HW111404   3.801   2.417   4.304
 3794SOL    HW211405   3.845   2.559   4.371
 3795SOL     OW11406   3.751   3.458   3.841
 3795SOL    HW111407   3.732   3.362   3.862
 3795SOL    HW211408   3.718   3.516   3.916
 3796SOL     OW11409   3.837   2.599   5.321
 3796SOL    HW111410   3.925   2.586   5.366
 3796SOL    HW211411   3.824   2.696   5.299
 3797SOL     OW11412   4.337   3.227   4.450
 3797SOL    HW111413   4.288   3.140   4.459
 3797SOL    HW211414   4.314   3.270   4.363
 3798SOL     OW11415   4.533   1.866   4.226
 3798SOL    HW111416   4.573   1.957   4.217
 3798SOL    HW211417   4.433   1.874   4.232
 3799SOL     OW11418   3.921   2.838   4.988
 3799SOL    HW111419   4.010   2.793   4.974
 3799SOL    HW211420   3.848   2.773   4.969
 3800SOL     OW11421   4.322   2.591   3.994
 3800SOL    HW111422   4.346   2.660   3.926
 3800SOL    HW211423   4.244   2.624   4.048
 3801SOL     OW11424   4.715   2.272   4.966
 3801SOL    HW111425   4.638   2.306   5.020
 3801SOL    HW211426   4.681   2.221   4.887
 3802SOL     OW11427   4.765   2.563   4.153
 3802SOL    HW111428   4.791   2.559   4.249
 3802SOL    HW211429   4.680   2.512   4.139
 3803SOL     OW11430   3.800   2.673   4.513
 3803SOL    HW111431   3.899   2.661   4.522
 3803SOL    HW211432   3.776   2.768   4.534
 3804SOL     OW11433   4.589   2.210   3.919
 3804SOL    HW111434   4.648   2.273   3.870
 3804SOL    HW211435   4.608   2.116   3.890
 3805SOL     OW11436   4.274   2.058   4.609
 3805SOL    HW111437   4.269   2.053   4.709
 3805SOL    HW211438   4.276   2.154   4.580
 3806SOL     OW11439   4.732   3.318   4.201
 3806SOL    HW111440   4.686   3.390   4.149
 3806SOL    HW211441   4.728   3.338   4.299
 3807SOL     OW11442   4.075   3.663   4.577
 3807SOL    HW111443   4.125   3.577   4.583
 3807SOL    HW211444   4.140   3.740   4.574
 3808SOL     OW11445   4.045   2.805   3.966
 3808SOL    HW111446   4.127   2.844   3.924
 3808SOL    HW211447   4.018   2.723   3.917
 3809SOL     OW11448   4.835   3.638   3.961
 3809SOL    HW111449   4.775   3.576   4.011
 3809SOL    HW211450   4.866   3.594   3.876
 3810SOL     OW11451   4.188   3.605   4.047
 3810SOL    HW111452   4.221   3.644   4.133
 3810SOL    HW211453   4.264   3.598   3.982
 3811SOL     OW11454   3.973   3.647   4.965
 3811SOL    HW111455   4.030   3.582   5.015
 3811SOL    HW211456   3.957   3.614   4.872
 3812SOL     OW11457   4.664   3.560   4.628
 3812SOL    HW111458   4.744   3.503   4.649
 3812SOL    HW211459   4.615   3.520   4.551
 3813SOL     OW11460   4.106   2.562   4.204
 3813SOL    HW111461   4.151   2.472   4.201
 3813SOL    HW211462   4.012   2.551   4.237
 3814SOL     OW11463   4.338   1.984   3.841
 3814SOL    HW111464   4.436   1.962   3.848
 3814SOL    HW211465   4.307   1.967   3.748
 3815SOL     OW11466   4.527   3.264   4.648
 3815SOL    HW111467   4.617   3.278   4.606
 3815SOL    HW211468   4.456   3.266   4.577
 3816SOL     OW11469   4.646   2.365   4.623
 3816SOL    HW111470   4.621   2.356   4.527
 3816SOL    HW211471   4.694   2.283   4.654
 3817SOL     OW11472   4.263   1.926   4.236
 3817SOL    HW111473   4.182   1.927   4.294
 3817SOL    HW211474   4.266   2.009   4.181
 3818SOL     OW11475   4.021   1.897   3.895
 3818SOL    HW111476   4.070   1.981   3.874
 3818SOL    HW211477   4.083   1.832   3.940
 3819SOL     OW11478   4.659   2.098   4.204
 3819SOL    HW111479   4.611   2.139   4.126
 3819SOL    HW211480   4.758   2.096   4.185
 3820SOL     OW11481   4.951   3.432   4.517
 3820SOL    HW111482   4.972   3.506   4.452
 3820SOL    HW211483   5.019   3.432   4.590
 3821SOL     OW11484   4.183   3.014   4.465
 3821SOL    HW111485   4.112   2.987   4.530
 3821SOL    HW211486   4.157   2.986   4.372
 3822SOL     OW11487   4.995   3.659   4.315
 3822SOL    HW111488   5.039   3.723   4.251
 3822SOL    HW211489   4.945   3.711   4.385
 3823SOL     OW11490   4.756   2.411   3.740
 3823SOL    HW111491   4.715   2.493   3.701
 3823SOL    HW211492   4.820   2.437   3.813
 3824SOL     OW11493   4.285   2.084   4.871
 3824SOL    HW111494   4.323   2.000   4.908
 3824SOL    HW211495   4.197   2.103   4.915
 3825SOL     OW11496   4.590   2.316   4.366
 3825SOL    HW111497   4.558   2.388   4.304
 3825SOL    HW211498   4.614   2.235   4.313
 3826SOL     OW11499   4.741   1.901   4.477
 3826SOL    HW111500   4.669   1.906   4.408
 3826SOL    HW211501   4.717   1.832   4.546
 3827SOL     OW11502   4.212   3.247   3.898
 3827SOL    HW111503   4.125   3.232   3.945
 3827SOL    HW211504   4.195   3.273   3.803
 3828SOL     OW11505   4.251   2.118   4.052
 3828SOL    HW111506   4.278   2.059   3.977
 3828SOL    HW211507   4.251   2.213   4.021
 3829SOL     OW11508   4.835   3.057   4.824
 3829SOL    HW111509   4.795   3.101   4.905
 3829SOL    HW211510   4.794   3.094   4.741
 3830SOL     OW11511   4.429   2.912   4.092
 3830SOL    HW111512   4.415   2.919   4.191
 3830SOL    HW211513   4.513   2.861   4.074
 3831SOL     OW11514   4.134   2.675   4.975
 3831SOL    HW111515   4.220   2.687   5.025
 3831SOL    HW211516   4.092   2.588   5.002
 3832SOL     OW11517   4.091   2.962   4.225
 3832SOL    HW111518   4.084   3.045   4.169
 3832SOL    HW211519   4.095   2.882   4.165
 3833SOL     OW11520   4.290   2.399   4.589
 3833SOL    HW111521   4.302   2.465   4.515
 3833SOL    HW211522   4.336   2.433   4.672
 3834SOL     OW11523   4.976   3.210   4.112
 3834SOL    HW111524   5.026   3.287   4.152
 3834SOL    HW211525   4.881   3.212   4.144
 3835SOL     OW11526   4.078   3.372   5.053
 3835SOL    HW111527   4.057   3.328   4.966
 3835SOL    HW211528   4.175   3.398   5.056
 3836SOL     OW11529   4.297   2.732   4.753
 3836SOL    HW111530   4.341   2.821   4.744
 3836SOL    HW211531   4.234   2.732   4.830
 3837SOL     OW11532   5.084   2.724   4.769
 3837SOL    HW111533   5.009   2.724   4.703
 3837SOL    HW211534   5.121   2.632   4.778
 3838SOL     OW11535   4.933   2.387   3.999
 3838SOL    HW111536   4.946   2.303   4.053
 3838SOL    HW211537   4.904   2.461   4.059
 3839SOL     OW11538   4.031   2.075   4.955
 3839SOL    HW111539   4.008   2.112   5.045
 3839SOL    HW211540   4.001   1.980   4.949
 3840SOL     OW11541   3.761   3.172   5.006
 3840SOL    HW111542   3.814   3.123   5.074
 3840SOL    HW211543   3.783   3.270   5.011
 3841SOL     OW11544   4.456   2.496   4.788
 3841SOL    HW111545   4.515   2.470   4.712
 3841SOL    HW211546   4.428   2.592   4.777
 3842SOL     OW11547   4.031   1.925   4.342
 3842SOL    HW111548   4.020   2.019   4.375
 3842SOL    HW211549   4.026   1.862   4.419
 3843SOL     OW11550   5.346   2.229   4.098
 3843SOL    HW111551   5.348   2.153   4.162
 3843SOL    HW211552   5.298   2.306   4.138
 3844SOL     OW11553   4.747   2.628   4.690
 3844SOL    HW111554   4.762   2.649   4.786
 3844SOL    HW211555   4.717   2.533   4.681
 3845SOL     OW11556   5.264   2.136   3.849
 3845SOL    HW111557   5.203   2.061   3.872
 3845SOL    HW211558   5.286   2.188   3.932
 3846SOL     OW11559   4.792   3.195   4.573
 3846SOL    HW111560   4.799   3.111   4.518
 3846SOL    HW211561   4.854   3.264   4.537
 3847SOL     OW11562   4.043   2.672   4.673
 3847SOL    HW111563   4.136   2.708   4.678
 3847SOL    HW211564   4.037   2.587   4.725
 3848SOL     OW11565   4.063   2.371   4.730
 3848SOL    HW111566   4.011   2.288   4.713
 3848SOL    HW211567   4.140   2.376   4.666
 3849SOL     OW11568   4.884   2.069   5.201
 3849SOL    HW111569   4.884   2.133   5.278
 3849SOL    HW211570   4.912   2.117   5.118
 3850SOL     OW11571   3.732   3.188   3.924
 3850SOL    HW111572   3.639   3.209   3.893
 3850SOL    HW211573   3.742   3.089   3.937
 3851SOL     OW11574   3.812   3.663   4.651
 3851SOL    HW111575   3.770   3.577   4.624
 3851SOL    HW211576   3.906   3.666   4.617
 3852SOL     OW11577   4.228   3.430   4.634
 3852SOL    HW111578   4.294   3.504   4.643
 3852SOL    HW211579   4.272   3.351   4.592
 3853SOL     OW11580   4.726   2.658   4.962
 3853SOL    HW111581   4.767   2.626   5.048
 3853SOL    HW211582   4.630   2.631   4.959
 3854SOL     OW11583   3.764   2.406   4.838
 3854SOL    HW111584   3.849   2.373   4.797
 3854SOL    HW211585   3.777   2.421   4.936
 3855SOL     OW11586   4.539   2.434   4.049
 3855SOL    HW111587   4.546   2.345   4.003
 3855SOL    HW211588   4.445   2.468   4.041
 3856SOL     OW11589   4.395   2.326   4.993
 3856SOL    HW111590   4.361   2.237   4.963
 3856SOL    HW211591   4.421   2.380   4.913
 3857SOL     OW11592   4.654   3.540   5.189
 3857SOL    HW111593   4.630   3.522   5.094
 3857SOL    HW211594   4.684   3.634   5.199
 3858SOL     OW11595   4.197   2.362   3.915
 3858SOL    HW111596   4.258   2.442   3.919
 3858SOL    HW211597   4.102   2.393   3.922
 3859SOL     OW11598   5.071   2.921   4.958
 3859SOL    HW111599   5.095   2.858   4.884
 3859SOL    HW211600   4.981   2.961   4.940
 3860SOL     OW11601   4.976   3.593   4.852
 3860SOL    HW111602   5.060   3.598   4.798
 3860SOL    HW211603   4.953   3.497   4.870
 3861SOL     OW11604   3.807   3.120   4.746
 3861SOL    HW111605   3.802   3.119   4.846
 3861SOL    HW211606   3.724   3.079   4.708
 3862SOL     OW11607   5.112   3.435   4.201
 3862SOL    HW111608   5.179   3.447   4.127
 3862SOL    HW211609   5.072   3.524   4.224
 3863SOL     OW11610   4.396   3.478   3.878
 3863SOL    HW111611   4.405   3.488   3.779
 3863SOL    HW211612   4.356   3.389   3.899
 3864SOL     OW11613   3.987   2.188   4.444
 3864SOL    HW111614   3.908   2.239   4.410
 3864SOL    HW211615   3.978   2.173   4.542
 3865SOL     OW11616   4.918   3.474   3.755
 3865SOL    HW111617   4.924   3.381   3.792
 3865SOL    HW211618   4.859   3.474   3.675
 3866SOL     OW11619   4.546   2.864   5.096
 3866SOL    HW111620   4.586   2.863   5.004
 3866SOL    HW211621   4.556   2.956   5.136
 3867SOL     OW11622   4.640   2.772   4.015
 3867SOL    HW111623   4.703   2.810   3.947
 3867SOL    HW211624   4.680   2.689   4.054
 3868SOL     OW11625   5.338   3.154   5.013
 3868SOL    HW111626   5.398   3.157   5.093
 3868SOL    HW211627   5.263   3.218   5.026
 3869SOL     OW11628   4.763   2.960   4.420
 3869SOL    HW111629   4.693   2.913   4.474
 3869SOL    HW211630   4.822   2.892   4.377
 3870SOL     OW11631   4.738   2.098   4.695
 3870SOL    HW111632   4.730   2.062   4.602
 3870SOL    HW211633   4.736   2.022   4.760
 3871SOL     OW11634   4.314   3.349   4.215
 3871SOL    HW111635   4.356   3.291   4.145
 3871SOL    HW211636   4.270   3.428   4.171
 3872SOL     OW11637   3.979   3.210   4.014
 3872SOL    HW111638   3.883   3.211   3.987
 3872SOL    HW211639   3.991   3.263   4.098
 3873SOL     OW11640   3.799   2.207   3.757
 3873SOL    HW111641   3.707   2.179   3.728
 3873SOL    HW211642   3.830   2.284   3.701
 3874SOL     OW11643   3.796   2.028   4.042
 3874SOL    HW111644   3.779   2.111   3.988
 3874SOL    HW211645   3.886   1.991   4.020
 3875SOL     OW11646   4.318   2.607   4.376
 3875SOL    HW111647   4.368   2.692   4.357
 3875SOL    HW211648   4.230   2.609   4.328
 3876SOL     OW11649   4.583   3.236   3.740
 3876SOL    HW111650   4.537   3.251   3.828
 3876SOL    HW211651   4.627   3.321   3.710
 3877SOL     OW11652   4.385   3.652   4.677
 3877SOL    HW111653   4.339   3.740   4.664
 3877SOL    HW211654   4.484   3.664   4.670
 3878SOL     OW11655   4.583   2.818   4.585
 3878SOL    HW111656   4.637   2.749   4.633
 3878SOL    HW211657   4.551   2.887   4.651
 3879SOL     OW11658   4.807   2.846   3.811
 3879SOL    HW111659   4.784   2.899   3.729
 3879SOL    HW211660   4.888   2.790   3.792
 3880SOL     OW11661   3.803   3.102   4.377
 3880SOL    HW111662   3.802   3.055   4.465
 3880SOL    HW211663   3.885   3.074   4.326
 3881SOL     OW11664   4.152   2.286   4.244
 3881SOL    HW111665   4.182   2.214   4.182
 3881SOL    HW211666   4.113   2.246   4.327
 3882SOL     OW11667   4.536   3.448   4.411
 3882SOL    HW111668   4.568   3.458   4.317
 3882SOL    HW211669   4.457   3.386   4.413
 3883SOL     OW11670   4.725   1.896   4.878
 3883SOL    HW111671   4.662   1.824   4.847
 3883SOL    HW211672   4.818   1.860   4.878
 3884SOL     OW11673   4.494   3.192   4.025
 3884SOL    HW111674   4.448   3.105   4.042
 3884SOL    HW211675   4.585   3.189   4.066
 3885SOL     OW11676   3.763   2.939   4.024
 3885SOL    HW111677   3.862   2.928   4.015
 3885SOL    HW211678   3.723   2.853   4.056
 3886SOL     OW11679   4.599   3.508   4.061
 3886SOL    HW111680   4.522   3.473   4.007
 3886SOL    HW211681   4.567   3.579   4.123
 3887SOL     OW11682   3.954   4.352   0.113
 3887SOL    HW111683   3.861   4.350   0.150
 3887SOL    HW211684   3.955   4.313   0.021
 3888SOL     OW11685   3.949   3.999   0.996
 3888SOL    HW111686   3.984   3.982   1.088
 3888SOL    HW211687   3.861   3.954   0.984
 3889SOL     OW11688   3.743   4.092   0.647
 3889SOL    HW111689   3.661   4.135   0.686
 3889SOL    HW211690   3.715   4.019   0.584
 3890SOL     OW11691   4.859   4.427   0.717
 3890SOL    HW111692   4.916   4.505   0.692
 3890SOL    HW211693   4.799   4.453   0.793
 3891SOL     OW11694   4.492   4.868   1.023
 3891SOL    HW111695   4.414   4.885   1.083
 3891SOL    HW211696   4.526   4.955   0.987
 3892SOL     OW11697   4.574   4.522   1.823
 3892SOL    HW111698   4.570   4.598   1.888
 3892SOL    HW211699   4.596   4.558   1.732
 3893SOL     OW11700   4.409   4.736   0.665
 3893SOL    HW111701   4.478   4.720   0.735
 3893SOL    HW211702   4.336   4.793   0.703
 3894SOL     OW11703   4.410   4.885   1.803
 3894SOL    HW111704   4.470   4.964   1.817
 3894SOL    HW211705   4.324   4.916   1.762
 3895SOL     OW11706   4.059   5.159   1.061
 3895SOL    HW111707   3.981   5.128   1.008
 3895SOL    HW211708   4.117   5.217   1.004
 3896SOL     OW11709   4.162   4.116   1.499
 3896SOL    HW111710   4.244   4.060   1.508
 3896SOL    HW211711   4.081   4.058   1.503
 3897SOL     OW11712   3.964   4.815   0.886
 3897SOL    HW111713   3.978   4.731   0.938
 3897SOL    HW211714   3.909   4.879   0.941
 3898SOL     OW11715   4.330   4.688   0.123
 3898SOL    HW111716   4.337   4.772   0.069
 3898SOL    HW211717   4.376   4.701   0.211
 3899SOL     OW11718   3.846   4.367   0.563
 3899SOL    HW111719   3.801   4.279   0.580
 3899SOL    HW211720   3.845   4.421   0.647
 3900SOL     OW11721   3.837   4.461   1.597
 3900SOL    HW111722   3.925   4.448   1.642
 3900SOL    HW211723   3.824   4.558   1.575
 3901SOL     OW11724   4.533   3.728   0.502
 3901SOL    HW111725   4.573   3.819   0.493
 3901SOL    HW211726   4.433   3.736   0.508
 3902SOL     OW11727   3.921   4.700   1.264
 3902SOL    HW111728   4.010   4.655   1.250
 3902SOL    HW211729   3.848   4.635   1.245
 3903SOL     OW11730   4.041   3.975   1.801
 3903SOL    HW111731   4.112   4.046   1.807
 3903SOL    HW211732   3.953   4.014   1.829
 3904SOL     OW11733   4.322   4.453   0.270
 3904SOL    HW111734   4.346   4.522   0.202
 3904SOL    HW211735   4.244   4.486   0.324
 3905SOL     OW11736   4.531   4.329   1.465
 3905SOL    HW111737   4.484   4.326   1.554
 3905SOL    HW211738   4.480   4.274   1.399
 3906SOL     OW11739   4.697   4.614   1.572
 3906SOL    HW111740   4.743   4.530   1.543
 3906SOL    HW211741   4.641   4.648   1.497
 3907SOL     OW11742   4.715   4.134   1.242
 3907SOL    HW111743   4.638   4.168   1.296
 3907SOL    HW211744   4.681   4.083   1.163
 3908SOL     OW11745   4.765   4.425   0.429
 3908SOL    HW111746   4.791   4.421   0.525
 3908SOL    HW211747   4.680   4.374   0.415
 3909SOL     OW11748   3.800   4.535   0.789
 3909SOL    HW111749   3.899   4.523   0.798
 3909SOL    HW211750   3.776   4.630   0.810
 3910SOL     OW11751   4.589   4.072   0.195
 3910SOL    HW111752   4.648   4.135   0.146
 3910SOL    HW211753   4.608   3.978   0.166
 3911SOL     OW11754   4.274   3.920   0.885
 3911SOL    HW111755   4.269   3.915   0.985
 3911SOL    HW211756   4.276   4.016   0.856
 3912SOL     OW11757   4.045   4.667   0.242
 3912SOL    HW111758   4.127   4.706   0.200
 3912SOL    HW211759   4.018   4.585   0.193
 3913SOL     OW11760   3.926   4.009   1.498
 3913SOL    HW111761   3.846   4.069   1.485
 3913SOL    HW211762   3.916   3.960   1.584
 3914SOL     OW11763   4.106   4.424   0.480
 3914SOL    HW111764   4.151   4.334   0.477
 3914SOL    HW211765   4.012   4.413   0.513
 3915SOL     OW11766   4.338   3.846   0.117
 3915SOL    HW111767   4.436   3.824   0.124
 3915SOL    HW211768   4.307   3.829   0.024
 3916SOL     OW11769   4.505   3.988   1.749
 3916SOL    HW111770   4.572   3.927   1.792
 3916SOL    HW211771   4.432   4.007   1.814
 3917SOL     OW11772   4.527   5.126   0.924
 3917SOL    HW111773   4.617   5.140   0.882
 3917SOL    HW211774   4.456   5.128   0.853
 3918SOL     OW11775   4.646   4.227   0.899
 3918SOL    HW111776   4.621   4.218   0.803
 3918SOL    HW211777   4.694   4.145   0.930
 3919SOL     OW11778   4.263   3.788   0.512
 3919SOL    HW111779   4.182   3.789   0.570
 3919SOL    HW211780   4.266   3.871   0.457
 3920SOL     OW11781   4.021   3.759   0.171
 3920SOL    HW111782   4.070   3.843   0.150
 3920SOL    HW211783   4.083   3.694   0.216
 3921SOL     OW11784   4.659   3.960   0.480
 3921SOL    HW111785   4.611   4.001   0.402
 3921SOL    HW211786   4.758   3.958   0.461
 3922SOL     OW11787   4.800   4.407   1.464
 3922SOL    HW111788   4.720   4.346   1.467
 3922SOL    HW211789   4.881   4.354   1.440
 3923SOL     OW11790   4.183   4.876   0.741
 3923SOL    HW111791   4.112   4.849   0.806
 3923SOL    HW211792   4.157   4.848   0.648
 3924SOL     OW11793   4.756   4.273   0.016
 3924SOL    HW111794   4.715   4.355  -0.023
 3924SOL    HW211795   4.820   4.299   0.089
 3925SOL     OW11796   3.802   4.280   1.386
 3925SOL    HW111797   3.894   4.279   1.345
 3925SOL    HW211798   3.796   4.354   1.453
 3926SOL     OW11799   4.285   3.946   1.147
 3926SOL    HW111800   4.323   3.862   1.184
 3926SOL    HW211801   4.197   3.965   1.191
 3927SOL     OW11802   4.590   4.178   0.642
 3927SOL    HW111803   4.558   4.250   0.580
 3927SOL    HW211804   4.614   4.097   0.589
 3928SOL     OW11805   4.741   3.763   0.753
 3928SOL    HW111806   4.669   3.768   0.684
 3928SOL    HW211807   4.717   3.694   0.822
 3929SOL     OW11808   4.251   3.980   0.328
 3929SOL    HW111809   4.278   3.921   0.253
 3929SOL    HW211810   4.251   4.075   0.297
 3930SOL     OW11811   4.639   3.813   1.402
 3930SOL    HW111812   4.664   3.793   1.307
 3930SOL    HW211813   4.711   3.869   1.444
 3931SOL     OW11814   4.704   4.840   1.719
 3931SOL    HW111815   4.605   4.846   1.729
 3931SOL    HW211816   4.727   4.760   1.663
 3932SOL     OW11817   4.429   4.774   0.368
 3932SOL    HW111818   4.415   4.781   0.467
 3932SOL    HW211819   4.513   4.723   0.350
 3933SOL     OW11820   4.134   4.537   1.251
 3933SOL    HW111821   4.220   4.549   1.301
 3933SOL    HW211822   4.092   4.450   1.278
 3934SOL     OW11823   4.998   4.110   1.262
 3934SOL    HW111824   5.019   4.184   1.326
 3934SOL    HW211825   4.909   4.127   1.219
 3935SOL     OW11826   4.091   4.824   0.501
 3935SOL    HW111827   4.084   4.907   0.445
 3935SOL    HW211828   4.095   4.744   0.441
 3936SOL     OW11829   4.290   4.261   0.865
 3936SOL    HW111830   4.302   4.327   0.791
 3936SOL    HW211831   4.336   4.295   0.948
 3937SOL     OW11832   4.976   5.072   0.388
 3937SOL    HW111833   5.026   5.149   0.428
 3937SOL    HW211834   4.881   5.074   0.420
 3938SOL     OW11835   4.126   4.475   1.598
 3938SOL    HW111836   4.194   4.530   1.551
 3938SOL    HW211837   4.166   4.387   1.625
 3939SOL     OW11838   4.737   3.829   1.770
 3939SOL    HW111839   4.743   3.914   1.718
 3939SOL    HW211840   4.769   3.753   1.713
 3940SOL     OW11841   4.228   3.774   1.740
 3940SOL    HW111842   4.186   3.717   1.670
 3940SOL    HW211843   4.162   3.843   1.772
 3941SOL     OW11844   4.297   4.594   1.029
 3941SOL    HW111845   4.341   4.683   1.020
 3941SOL    HW211846   4.234   4.594   1.106
 3942SOL     OW11847   5.084   4.586   1.045
 3942SOL    HW111848   5.009   4.586   0.979
 3942SOL    HW211849   5.121   4.494   1.054
 3943SOL     OW11850   4.933   4.249   0.275
 3943SOL    HW111851   4.946   4.165   0.329
 3943SOL    HW211852   4.904   4.323   0.335
 3944SOL     OW11853   4.031   3.937   1.231
 3944SOL    HW111854   4.008   3.974   1.321
 3944SOL    HW211855   4.001   3.842   1.225
 3945SOL     OW11856   4.456   4.358   1.064
 3945SOL    HW111857   4.515   4.332   0.988
 3945SOL    HW211858   4.428   4.454   1.053
 3946SOL     OW11859   4.031   3.787   0.618
 3946SOL    HW111860   4.020   3.881   0.651
 3946SOL    HW211861   4.026   3.724   0.695
 3947SOL     OW11862   5.346   4.091   0.374
 3947SOL    HW111863   5.348   4.015   0.438
 3947SOL    HW211864   5.298   4.168   0.414
 3948SOL     OW11865   4.747   4.490   0.966
 3948SOL    HW111866   4.762   4.511   1.062
 3948SOL    HW211867   4.717   4.395   0.957
 3949SOL     OW11868   4.074   4.622   1.804
 3949SOL    HW111869   4.150   4.666   1.852
 3949SOL    HW211870   4.109   4.575   1.722
 3950SOL     OW11871   5.027   4.562   0.042
 3950SOL    HW111872   5.061   4.469   0.057
 3950SOL    HW211873   5.045   4.589  -0.053
 3951SOL     OW11874   4.043   4.534   0.949
 3951SOL    HW111875   4.136   4.570   0.954
 3951SOL    HW211876   4.037   4.449   1.001
 3952SOL     OW11877   4.063   4.233   1.006
 3952SOL    HW111878   4.011   4.150   0.989
 3952SOL    HW211879   4.140   4.238   0.942
 3953SOL     OW11880   4.862   4.104   1.678
 3953SOL    HW111881   4.817   4.167   1.742
 3953SOL    HW211882   4.955   4.135   1.661
 3954SOL     OW11883   4.884   3.931   1.477
 3954SOL    HW111884   4.884   3.995   1.554
 3954SOL    HW211885   4.912   3.979   1.394
 3955SOL     OW11886   4.726   4.520   1.238
 3955SOL    HW111887   4.767   4.488   1.324
 3955SOL    HW211888   4.630   4.493   1.235
 3956SOL     OW11889   3.764   4.268   1.114
 3956SOL    HW111890   3.849   4.235   1.073
 3956SOL    HW211891   3.777   4.283   1.212
 3957SOL     OW11892   3.913   4.244   1.722
 3957SOL    HW111893   3.972   4.204   1.652
 3957SOL    HW211894   3.855   4.315   1.681
 3958SOL     OW11895   4.539   4.296   0.325
 3958SOL    HW111896   4.546   4.207   0.279
 3958SOL    HW211897   4.445   4.330   0.317
 3959SOL     OW11898   4.395   4.188   1.269
 3959SOL    HW111899   4.361   4.099   1.239
 3959SOL    HW211900   4.421   4.242   1.189
 3960SOL     OW11901   4.197   4.224   0.191
 3960SOL    HW111902   4.258   4.304   0.195
 3960SOL    HW211903   4.102   4.255   0.198
 3961SOL     OW11904   3.883   4.861   1.466
 3961SOL    HW111905   3.905   4.800   1.542
 3961SOL    HW211906   3.893   4.812   1.380
 3962SOL     OW11907   5.071   4.783   1.234
 3962SOL    HW111908   5.095   4.720   1.160
 3962SOL    HW211909   4.981   4.823   1.216
 3963SOL     OW11910   3.807   4.982   1.022
 3963SOL    HW111911   3.802   4.981   1.122
 3963SOL    HW211912   3.724   4.941   0.984
 3964SOL     OW11913   4.627   3.810   0.133
 3964SOL    HW111914   4.678   3.811   0.047
 3964SOL    HW211915   4.683   3.768   0.204
 3965SOL     OW11916   3.987   4.050   0.720
 3965SOL    HW111917   3.908   4.101   0.686
 3965SOL    HW211918   3.978   4.035   0.818
 3966SOL     OW11919   4.546   4.726   1.372
 3966SOL    HW111920   4.586   4.725   1.280
 3966SOL    HW211921   4.556   4.818   1.412
 3967SOL     OW11922   4.640   4.634   0.291
 3967SOL    HW111923   4.703   4.672   0.223
 3967SOL    HW211924   4.680   4.551   0.330
 3968SOL     OW11925   4.096   5.012   1.490
 3968SOL    HW111926   4.083   5.105   1.456
 3968SOL    HW211927   4.012   4.960   1.477
 3969SOL     OW11928   4.763   4.822   0.696
 3969SOL    HW111929   4.693   4.775   0.750
 3969SOL    HW211930   4.822   4.754   0.653
 3970SOL     OW11931   4.738   3.960   0.971
 3970SOL    HW111932   4.730   3.924   0.878
 3970SOL    HW211933   4.736   3.884   1.036
 3971SOL     OW11934   3.829   4.737   1.726
 3971SOL    HW111935   3.752   4.704   1.780
 3971SOL    HW211936   3.914   4.707   1.768
 3972SOL     OW11937   4.396   3.927   1.489
 3972SOL    HW111938   4.486   3.911   1.449
 3972SOL    HW211939   4.404   3.932   1.588
 3973SOL     OW11940   3.796   3.890   0.318
 3973SOL    HW111941   3.779   3.973   0.264
 3973SOL    HW211942   3.886   3.853   0.296
 3974SOL     OW11943   4.337   4.566   1.431
 3974SOL    HW111944   4.393   4.647   1.414
 3974SOL    HW211945   4.396   4.486   1.434
 3975SOL     OW11946   4.440   4.289   1.708
 3975SOL    HW111947   4.459   4.354   1.782
 3975SOL    HW211948   4.500   4.209   1.717
 3976SOL     OW11949   5.174   4.944   1.633
 3976SOL    HW111950   5.165   4.934   1.732
 3976SOL    HW211951   5.270   4.937   1.607
 3977SOL     OW11952   4.318   4.469   0.652
 3977SOL    HW111953   4.368   4.554   0.633
 3977SOL    HW211954   4.230   4.471   0.604
 3978SOL     OW11955   4.583   4.680   0.861
 3978SOL    HW111956   4.637   4.611   0.909
 3978SOL    HW211957   4.551   4.749   0.927
 3979SOL     OW11958   4.807   4.708   0.087
 3979SOL    HW111959   4.784   4.761   0.005
 3979SOL    HW211960   4.888   4.652   0.068
 3980SOL     OW11961   3.803   4.964   0.653
 3980SOL    HW111962   3.802   4.917   0.741
 3980SOL    HW211963   3.885   4.936   0.602
 3981SOL     OW11964   4.152   4.148   0.520
 3981SOL    HW111965   4.182   4.076   0.458
 3981SOL    HW211966   4.113   4.108   0.603
 3982SOL     OW11967   4.041   4.271   1.280
 3982SOL    HW111968   4.079   4.212   1.352
 3982SOL    HW211969   4.081   4.245   1.192
 3983SOL     OW11970   4.725   3.758   1.154
 3983SOL    HW111971   4.662   3.686   1.123
 3983SOL    HW211972   4.818   3.722   1.154
 3984SOL     OW11973   4.494   5.054   0.301
 3984SOL    HW111974   4.448   4.967   0.318
 3984SOL    HW211975   4.585   5.051   0.342
 3985SOL     OW11976   3.763   4.801   0.300
 3985SOL    HW111977   3.862   4.790   0.291
 3985SOL    HW211978   3.723   4.715   0.332
 3986SOL     OW11979   3.954   4.352   1.975
 3986SOL    HW111980   3.861   4.350   2.012
 3986SOL    HW211981   3.955   4.313   1.883
 3987SOL     OW11982   3.949   3.999   2.858
 3987SOL    HW111983   3.984   3.982   2.950
 3987SOL    HW211984   3.861   3.954   2.846
 3988SOL     OW11985   3.743   4.092   2.509
 3988SOL    HW111986   3.661   4.135   2.548
 3988SOL    HW211987   3.715   4.019   2.446
 3989SOL     OW11988   4.859   4.427   2.579
 3989SOL    HW111989   4.916   4.505   2.554
 3989SOL    HW211990   4.799   4.453   2.655
 3990SOL     OW11991   4.492   4.868   2.885
 3990SOL    HW111992   4.414   4.885   2.945
 3990SOL    HW211993   4.526   4.955   2.849
 3991SOL     OW11994   4.574   4.522   3.685
 3991SOL    HW111995   4.570   4.598   3.750
 3991SOL    HW211996   4.596   4.558   3.594
 3992SOL     OW11997   4.409   4.736   2.527
 3992SOL    HW111998   4.478   4.720   2.597
 3992SOL    HW211999   4.336   4.793   2.565
 3993SOL     OW12000   4.410   4.885   3.665
 3993SOL    HW112001   4.470   4.964   3.679
 3993SOL    HW212002   4.324   4.916   3.624
 3994SOL     OW12003   4.059   5.159   2.923
 3994SOL    HW112004   3.981   5.128   2.870
 3994SOL    HW212005   4.117   5.217   2.866
 3995SOL     OW12006   4.162   4.116   3.361
 3995SOL    HW112007   4.244   4.060   3.370
 3995SOL    HW212008   4.081   4.058   3.365
 3996SOL     OW12009   3.964   4.815   2.748
 3996SOL    HW112010   3.978   4.731   2.800
 3996SOL    HW212011   3.909   4.879   2.803
 3997SOL     OW12012   4.330   4.688   1.985
 3997SOL    HW112013   4.337   4.772   1.931
 3997SOL    HW212014   4.376   4.701   2.073
 3998SOL     OW12015   3.846   4.367   2.425
 3998SOL    HW112016   3.801   4.279   2.442
 3998SOL    HW212017   3.845   4.421   2.509
 3999SOL     OW12018   3.837   4.461   3.459
 3999SOL    HW112019   3.925   4.448   3.504
 3999SOL    HW212020   3.824   4.558   3.437
 4000SOL     OW12021   4.533   3.728   2.364
 4000SOL    HW112022   4.573   3.819   2.355
 4000SOL    HW212023   4.433   3.736   2.370
 4001SOL     OW12024   3.921   4.700   3.126
 4001SOL    HW112025   4.010   4.655   3.112
 4001SOL    HW212026   3.848   4.635   3.107
 4002SOL     OW12027   4.041   3.975   3.663
 4002SOL    HW112028   4.112   4.046   3.669
 4002SOL    HW212029   3.953   4.014   3.691
 4003SOL     OW12030   4.322   4.453   2.132
 4003SOL    HW112031   4.346   4.522   2.064
 4003SOL    HW212032   4.244   4.486   2.186
 4004SOL     OW12033   4.531   4.329   3.327
 4004SOL    HW112034   4.484   4.326   3.416
 4004SOL    HW212035   4.480   4.274   3.261
 4005SOL     OW12036   4.697   4.614   3.434
 4005SOL    HW112037   4.743   4.530   3.405
 4005SOL    HW212038   4.641   4.648   3.359
 4006SOL     OW12039   4.715   4.134   3.104
 4006SOL    HW112040   4.638   4.168   3.158
 4006SOL    HW212041   4.681   4.083   3.025
 4007SOL     OW12042   4.765   4.425   2.291
 4007SOL    HW112043   4.791   4.421   2.387
 4007SOL    HW212044   4.680   4.374   2.277
 4008SOL     OW12045   3.800   4.535   2.651
 4008SOL    HW112046   3.899   4.523   2.660
 4008SOL    HW212047   3.776   4.630   2.672
 4009SOL     OW12048   4.589   4.072   2.057
 4009SOL    HW112049   4.648   4.135   2.008
 4009SOL    HW212050   4.608   3.978   2.028
 4010SOL     OW12051   4.274   3.920   2.747
 4010SOL    HW112052   4.269   3.915   2.847
 4010SOL    HW212053   4.276   4.016   2.718
 4011SOL     OW12054   4.045   4.667   2.104
 4011SOL    HW112055   4.127   4.706   2.062
 4011SOL    HW212056   4.018   4.585   2.055
 4012SOL     OW12057   3.926   4.009   3.360
 4012SOL    HW112058   3.846   4.069   3.347
 4012SOL    HW212059   3.916   3.960   3.446
 4013SOL     OW12060   4.106   4.424   2.342
 4013SOL    HW112061   4.151   4.334   2.339
 4013SOL    HW212062   4.012   4.413   2.375
 4014SOL     OW12063   4.338   3.846   1.979
 4014SOL    HW112064   4.436   3.824   1.986
 4014SOL    HW212065   4.307   3.829   1.886
 4015SOL     OW12066   4.505   3.988   3.611
 4015SOL    HW112067   4.572   3.927   3.654
 4015SOL    HW212068   4.432   4.007   3.676
 4016SOL     OW12069   4.527   5.126   2.786
 4016SOL    HW112070   4.617   5.140   2.744
 4016SOL    HW212071   4.456   5.128   2.715
 4017SOL     OW12072   4.646   4.227   2.761
 4017SOL    HW112073   4.621   4.218   2.665
 4017SOL    HW212074   4.694   4.145   2.792
 4018SOL     OW12075   4.263   3.788   2.374
 4018SOL    HW112076   4.182   3.789   2.432
 4018SOL    HW212077   4.266   3.871   2.319
 4019SOL     OW12078   5.158   4.912   1.903
 4019SOL    HW112079   5.190   4.836   1.960
 4019SOL    HW212080   5.066   4.939   1.933
 4020SOL     OW12081   4.021   3.759   2.033
 4020SOL    HW112082   4.070   3.843   2.012
 4020SOL    HW212083   4.083   3.694   2.078
 4021SOL     OW12084   4.659   3.960   2.342
 4021SOL    HW112085   4.611   4.001   2.264
 4021SOL    HW212086   4.758   3.958   2.323
 4022SOL     OW12087   4.800   4.407   3.326
 4022SOL    HW112088   4.720   4.346   3.329
 4022SOL    HW212089   4.881   4.354   3.302
 4023SOL     OW12090   4.183   4.876   2.603
 4023SOL    HW112091   4.112   4.849   2.668
 4023SOL    HW212092   4.157   4.848   2.510
 4024SOL     OW12093   4.756   4.273   1.878
 4024SOL    HW112094   4.715   4.355   1.839
 4024SOL    HW212095   4.820   4.299   1.951
 4025SOL     OW12096   3.802   4.280   3.248
 4025SOL    HW112097   3.894   4.279   3.207
 4025SOL    HW212098   3.796   4.354   3.315
 4026SOL     OW12099   4.285   3.946   3.009
 4026SOL    HW112100   4.323   3.862   3.046
 4026SOL    HW212101   4.197   3.965   3.053
 4027SOL     OW12102   4.590   4.178   2.504
 4027SOL    HW112103   4.558   4.250   2.442
 4027SOL    HW212104   4.614   4.097   2.451
 4028SOL     OW12105   4.741   3.763   2.615
 4028SOL    HW112106   4.669   3.768   2.546
 4028SOL    HW212107   4.717   3.694   2.684
 4029SOL     OW12108   4.251   3.980   2.190
 4029SOL    HW112109   4.278   3.921   2.115
 4029SOL    HW212110   4.251   4.075   2.159
 4030SOL     OW12111   4.639   3.813   3.264
 4030SOL    HW112112   4.664   3.793   3.169
 4030SOL    HW212113   4.711   3.869   3.306
 4031SOL     OW12114   4.704   4.840   3.581
 4031SOL    HW112115   4.605   4.846   3.591
 4031SOL    HW212116   4.727   4.760   3.525
 4032SOL     OW12117   4.429   4.774   2.230
 4032SOL    HW112118   4.415   4.781   2.329
 4032SOL    HW212119   4.513   4.723   2.212
 4033SOL     OW12120   4.134   4.537   3.113
 4033SOL    HW112121   4.220   4.549   3.163
 4033SOL    HW212122   4.092   4.450   3.140
 4034SOL     OW12123   4.998   4.110   3.124
 4034SOL    HW112124   5.019   4.184   3.188
 4034SOL    HW212125   4.909   4.127   3.081
 4035SOL     OW12126   4.091   4.824   2.363
 4035SOL    HW112127   4.084   4.907   2.307
 4035SOL    HW212128   4.095   4.744   2.303
 4036SOL     OW12129   4.290   4.261   2.727
 4036SOL    HW112130   4.302   4.327   2.653
 4036SOL    HW212131   4.336   4.295   2.810
 4037SOL     OW12132   4.976   5.072   2.250
 4037SOL    HW112133   5.026   5.149   2.290
 4037SOL    HW212134   4.881   5.074   2.282
 4038SOL     OW12135   4.126   4.475   3.460
 4038SOL    HW112136   4.194   4.530   3.413
 4038SOL    HW212137   4.166   4.387   3.487
 4039SOL     OW12138   4.737   3.829   3.632
 4039SOL    HW112139   4.743   3.914   3.580
 4039SOL    HW212140   4.769   3.753   3.575
 4040SOL     OW12141   4.228   3.774   3.602
 4040SOL    HW112142   4.186   3.717   3.532
 4040SOL    HW212143   4.162   3.843   3.634
 4041SOL     OW12144   4.297   4.594   2.891
 4041SOL    HW112145   4.341   4.683   2.882
 4041SOL    HW212146   4.234   4.594   2.968
 4042SOL     OW12147   5.084   4.586   2.907
 4042SOL    HW112148   5.009   4.586   2.841
 4042SOL    HW212149   5.121   4.494   2.916
 4043SOL     OW12150   4.933   4.249   2.137
 4043SOL    HW112151   4.946   4.165   2.191
 4043SOL    HW212152   4.904   4.323   2.197
 4044SOL     OW12153   4.031   3.937   3.093
 4044SOL    HW112154   4.008   3.974   3.183
 4044SOL    HW212155   4.001   3.842   3.087
 4045SOL     OW12156   4.456   4.358   2.926
 4045SOL    HW112157   4.515   4.332   2.850
 4045SOL    HW212158   4.428   4.454   2.915
 4046SOL     OW12159   4.031   3.787   2.480
 4046SOL    HW112160   4.020   3.881   2.513
 4046SOL    HW212161   4.026   3.724   2.557
 4047SOL     OW12162   5.346   4.091   2.236
 4047SOL    HW112163   5.348   4.015   2.300
 4047SOL    HW212164   5.298   4.168   2.276
 4048SOL     OW12165   4.747   4.490   2.828
 4048SOL    HW112166   4.762   4.511   2.924
 4048SOL    HW212167   4.717   4.395   2.819
 4049SOL     OW12168   4.074   4.622   3.666
 4049SOL    HW112169   4.150   4.666   3.714
 4049SOL    HW212170   4.109   4.575   3.584
 4050SOL     OW12171   5.264   3.998   1.987
 4050SOL    HW112172   5.203   3.923   2.010
 4050SOL    HW212173   5.286   4.050   2.070
 4051SOL     OW12174   4.043   4.534   2.811
 4051SOL    HW112175   4.136   4.570   2.816
 4051SOL    HW212176   4.037   4.449   2.863
 4052SOL     OW12177   4.063   4.233   2.868
 4052SOL    HW112178   4.011   4.150   2.851
 4052SOL    HW212179   4.140   4.238   2.804
 4053SOL     OW12180   4.862   4.104   3.540
 4053SOL    HW112181   4.817   4.167   3.604
 4053SOL    HW212182   4.955   4.135   3.523
 4054SOL     OW12183   4.884   3.931   3.339
 4054SOL    HW112184   4.884   3.995   3.416
 4054SOL    HW212185   4.912   3.979   3.256
 4055SOL     OW12186   3.732   5.050   2.062
 4055SOL    HW112187   3.639   5.071   2.031
 4055SOL    HW212188   3.742   4.951   2.075
 4056SOL     OW12189   4.726   4.520   3.100
 4056SOL    HW112190   4.767   4.488   3.186
 4056SOL    HW212191   4.630   4.493   3.097
 4057SOL     OW12192   3.764   4.268   2.976
 4057SOL    HW112193   3.849   4.235   2.935
 4057SOL    HW212194   3.777   4.283   3.074
 4058SOL     OW12195   3.913   4.244   3.584
 4058SOL    HW112196   3.972   4.204   3.514
 4058SOL    HW212197   3.855   4.315   3.543
 4059SOL     OW12198   4.539   4.296   2.187
 4059SOL    HW112199   4.546   4.207   2.141
 4059SOL    HW212200   4.445   4.330   2.179
 4060SOL     OW12201   4.395   4.188   3.131
 4060SOL    HW112202   4.361   4.099   3.101
 4060SOL    HW212203   4.421   4.242   3.051
 4061SOL     OW12204   4.197   4.224   2.053
 4061SOL    HW112205   4.258   4.304   2.057
 4061SOL    HW212206   4.102   4.255   2.060
 4062SOL     OW12207   3.883   4.861   3.328
 4062SOL    HW112208   3.905   4.800   3.404
 4062SOL    HW212209   3.893   4.812   3.242
 4063SOL     OW12210   5.071   4.783   3.096
 4063SOL    HW112211   5.095   4.720   3.022
 4063SOL    HW212212   4.981   4.823   3.078
 4064SOL     OW12213   3.807   4.982   2.884
 4064SOL    HW112214   3.802   4.981   2.984
 4064SOL    HW212215   3.724   4.941   2.846
 4065SOL     OW12216   3.987   4.050   2.582
 4065SOL    HW112217   3.908   4.101   2.548
 4065SOL    HW212218   3.978   4.035   2.680
 4066SOL     OW12219   4.546   4.726   3.234
 4066SOL    HW112220   4.586   4.725   3.142
 4066SOL    HW212221   4.556   4.818   3.274
 4067SOL     OW12222   4.640   4.634   2.153
 4067SOL    HW112223   4.703   4.672   2.085
 4067SOL    HW212224   4.680   4.551   2.192
 4068SOL     OW12225   4.096   5.012   3.352
 4068SOL    HW112226   4.083   5.105   3.318
 4068SOL    HW212227   4.012   4.960   3.339
 4069SOL     OW12228   4.763   4.822   2.558
 4069SOL    HW112229   4.693   4.775   2.612
 4069SOL    HW212230   4.822   4.754   2.515
 4070SOL     OW12231   4.738   3.960   2.833
 4070SOL    HW112232   4.730   3.924   2.740
 4070SOL    HW212233   4.736   3.884   2.898
 4071SOL     OW12234   3.829   4.737   3.588
 4071SOL    HW112235   3.752   4.704   3.642
 4071SOL    HW212236   3.914   4.707   3.630
 4072SOL     OW12237   4.396   3.927   3.351
 4072SOL    HW112238   4.486   3.911   3.311
 4072SOL    HW212239   4.404   3.932   3.450
 4073SOL     OW12240   3.799   4.069   1.895
 4073SOL    HW112241   3.707   4.041   1.866
 4073SOL    HW212242   3.830   4.146   1.839
 4074SOL     OW12243   3.796   3.890   2.180
 4074SOL    HW112244   3.779   3.973   2.126
 4074SOL    HW212245   3.886   3.853   2.158
 4075SOL     OW12246   4.337   4.566   3.293
 4075SOL    HW112247   4.393   4.647   3.276
 4075SOL    HW212248   4.396   4.486   3.296
 4076SOL     OW12249   4.440   4.289   3.570
 4076SOL    HW112250   4.459   4.354   3.644
 4076SOL    HW212251   4.500   4.209   3.579
 4077SOL     OW12252   5.174   4.944   3.495
 4077SOL    HW112253   5.165   4.934   3.594
 4077SOL    HW212254   5.270   4.937   3.469
 4078SOL     OW12255   4.318   4.469   2.514
 4078SOL    HW112256   4.368   4.554   2.495
 4078SOL    HW212257   4.230   4.471   2.466
 4079SOL     OW12258   4.583   4.680   2.723
 4079SOL    HW112259   4.637   4.611   2.771
 4079SOL    HW212260   4.551   4.749   2.789
 4080SOL     OW12261   4.807   4.708   1.949
 4080SOL    HW112262   4.784   4.761   1.867
 4080SOL    HW212263   4.888   4.652   1.930
 4081SOL     OW12264   3.803   4.964   2.515
 4081SOL    HW112265   3.802   4.917   2.603
 4081SOL    HW212266   3.885   4.936   2.464
 4082SOL     OW12267   4.152   4.148   2.382
 4082SOL    HW112268   4.182   4.076   2.320
 4082SOL    HW212269   4.113   4.108   2.465
 4083SOL     OW12270   4.041   4.271   3.142
 4083SOL    HW112271   4.079   4.212   3.214
 4083SOL    HW212272   4.081   4.245   3.054
 4084SOL     OW12273   4.725   3.758   3.016
 4084SOL    HW112274   4.662   3.686   2.985
 4084SOL    HW212275   4.818   3.722   3.016
 4085SOL     OW12276   4.494   5.054   2.163
 4085SOL    HW112277   4.448   4.967   2.180
 4085SOL    HW212278   4.585   5.051   2.204
 4086SOL     OW12279   3.763   4.801   2.162
 4086SOL    HW112280   3.862   4.790   2.153
 4086SOL    HW212281   3.723   4.715   2.194
 4087SOL     OW12282   3.954   4.352   3.837
 4087SOL    HW112283   3.861   4.350   3.874
 4087SOL    HW212284   3.955   4.313   3.745
 4088SOL     OW12285   3.949   3.999   4.720
 4088SOL    HW112286   3.984   3.982   4.812
 4088SOL    HW212287   3.861   3.954   4.708
 4089SOL     OW12288   3.743   4.092   4.371
 4089SOL    HW112289   3.661   4.135   4.410
 4089SOL    HW212290   3.715   4.019   4.308
 4090SOL     OW12291   4.859   4.427   4.441
 4090SOL    HW112292   4.916   4.505   4.416
 4090SOL    HW212293   4.799   4.453   4.517
 4091SOL     OW12294   4.492   4.868   4.747
 4091SOL    HW112295   4.414   4.885   4.807
 4091SOL    HW212296   4.526   4.955   4.711
 4092SOL     OW12297   4.409   4.736   4.389
 4092SOL    HW112298   4.478   4.720   4.459
 4092SOL    HW212299   4.336   4.793   4.427
 4093SOL     OW12300   4.059   5.159   4.785
 4093SOL    HW112301   3.981   5.128   4.732
 4093SOL    HW212302   4.117   5.217   4.728
 4094SOL     OW12303   3.964   4.815   4.610
 4094SOL    HW112304   3.978   4.731   4.662
 4094SOL    HW212305   3.909   4.879   4.665
 4095SOL     OW12306   4.330   4.688   3.847
 4095SOL    HW112307   4.337   4.772   3.793
 4095SOL    HW212308   4.376   4.701   3.935
 4096SOL     OW12309   3.846   4.367   4.287
 4096SOL    HW112310   3.801   4.279   4.304
 4096SOL    HW212311   3.845   4.421   4.371
 4097SOL     OW12312   3.837   4.461   5.321
 4097SOL    HW112313   3.925   4.448   5.366
 4097SOL    HW212314   3.824   4.558   5.299
 4098SOL     OW12315   4.533   3.728   4.226
 4098SOL    HW112316   4.573   3.819   4.217
 4098SOL    HW212317   4.433   3.736   4.232
 4099SOL     OW12318   3.921   4.700   4.988
 4099SOL    HW112319   4.010   4.655   4.974
 4099SOL    HW212320   3.848   4.635   4.969
 4100SOL     OW12321   4.322   4.453   3.994
 4100SOL    HW112322   4.346   4.522   3.926
 4100SOL    HW212323   4.244   4.486   4.048
 4101SOL     OW12324   4.715   4.134   4.966
 4101SOL    HW112325   4.638   4.168   5.020
 4101SOL    HW212326   4.681   4.083   4.887
 4102SOL     OW12327   4.765   4.425   4.153
 4102SOL    HW112328   4.791   4.421   4.249
 4102SOL    HW212329   4.680   4.374   4.139
 4103SOL     OW12330   3.800   4.535   4.513
 4103SOL    HW112331   3.899   4.523   4.522
 4103SOL    HW212332   3.776   4.630   4.534
 4104SOL     OW12333   4.589   4.072   3.919
 4104SOL    HW112334   4.648   4.135   3.870
 4104SOL    HW212335   4.608   3.978   3.890
 4105SOL     OW12336   4.274   3.920   4.609
 4105SOL    HW112337   4.269   3.915   4.709
 4105SOL    HW212338   4.276   4.016   4.580
 4106SOL     OW12339   4.045   4.667   3.966
 4106SOL    HW112340   4.127   4.706   3.924
 4106SOL    HW212341   4.018   4.585   3.917
 4107SOL     OW12342   4.106   4.424   4.204
 4107SOL    HW112343   4.151   4.334   4.201
 4107SOL    HW212344   4.012   4.413   4.237
 4108SOL     OW12345   4.338   3.846   3.841
 4108SOL    HW112346   4.436   3.824   3.848
 4108SOL    HW212347   4.307   3.829   3.748
 4109SOL     OW12348   4.527   5.126   4.648
 4109SOL    HW112349   4.617   5.140   4.606
 4109SOL    HW212350   4.456   5.128   4.577
 4110SOL     OW12351   4.646   4.227   4.623
 4110SOL    HW112352   4.621   4.218   4.527
 4110SOL    HW212353   4.694   4.145   4.654
 4111SOL     OW12354   4.263   3.788   4.236
 4111SOL    HW112355   4.182   3.789   4.294
 4111SOL    HW212356   4.266   3.871   4.181
 4112SOL     OW12357   5.158   4.912   3.765
 4112SOL    HW112358   5.190   4.836   3.822
 4112SOL    HW212359   5.066   4.939   3.795
 4113SOL     OW12360   4.021   3.759   3.895
 4113SOL    HW112361   4.070   3.843   3.874
 4113SOL    HW212362   4.083   3.694   3.940
 4114SOL     OW12363   4.659   3.960   4.204
 4114SOL    HW112364   4.611   4.001   4.126
 4114SOL    HW212365   4.758   3.958   4.185
 4115SOL     OW12366   4.183   4.876   4.465
 4115SOL    HW112367   4.112   4.849   4.530
 4115SOL    HW212368   4.157   4.848   4.372
 4116SOL     OW12369   4.756   4.273   3.740
 4116SOL    HW112370   4.715   4.355   3.701
 4116SOL    HW212371   4.820   4.299   3.813
 4117SOL     OW12372   4.285   3.946   4.871
 4117SOL    HW112373   4.323   3.862   4.908
 4117SOL    HW212374   4.197   3.965   4.915
 4118SOL     OW12375   4.590   4.178   4.366
 4118SOL    HW112376   4.558   4.250   4.304
 4118SOL    HW212377   4.614   4.097   4.313
 4119SOL     OW12378   4.741   3.763   4.477
 4119SOL    HW112379   4.669   3.768   4.408
 4119SOL    HW212380   4.717   3.694   4.546
 4120SOL     OW12381   4.251   3.980   4.052
 4120SOL    HW112382   4.278   3.921   3.977
 4120SOL    HW212383   4.251   4.075   4.021
 4121SOL     OW12384   4.429   4.774   4.092
 4121SOL    HW112385   4.415   4.781   4.191
 4121SOL    HW212386   4.513   4.723   4.074
 4122SOL     OW12387   4.134   4.537   4.975
 4122SOL    HW112388   4.220   4.549   5.025
 4122SOL    HW212389   4.092   4.450   5.002
 4123SOL     OW12390   4.091   4.824   4.225
 4123SOL    HW112391   4.084   4.907   4.169
 4123SOL    HW212392   4.095   4.744   4.165
 4124SOL     OW12393   4.290   4.261   4.589
 4124SOL    HW112394   4.302   4.327   4.515
 4124SOL    HW212395   4.336   4.295   4.672
 4125SOL     OW12396   4.976   5.072   4.112
 4125SOL    HW112397   5.026   5.149   4.152
 4125SOL    HW212398   4.881   5.074   4.144
 4126SOL     OW12399   4.297   4.594   4.753
 4126SOL    HW112400   4.341   4.683   4.744
 4126SOL    HW212401   4.234   4.594   4.830
 4127SOL     OW12402   5.084   4.586   4.769
 4127SOL    HW112403   5.009   4.586   4.703
 4127SOL    HW212404   5.121   4.494   4.778
 4128SOL     OW12405   4.933   4.249   3.999
 4128SOL    HW112406   4.946   4.165   4.053
 4128SOL    HW212407   4.904   4.323   4.059
 4129SOL     OW12408   4.031   3.937   4.955
 4129SOL    HW112409   4.008   3.974   5.045
 4129SOL    HW212410   4.001   3.842   4.949
 4130SOL     OW12411   4.456   4.358   4.788
 4130SOL    HW112412   4.515   4.332   4.712
 4130SOL    HW212413   4.428   4.454   4.777
 4131SOL     OW12414   4.031   3.787   4.342
 4131SOL    HW112415   4.020   3.881   4.375
 4131SOL    HW212416   4.026   3.724   4.419
 4132SOL     OW12417   5.346   4.091   4.098
 4132SOL    HW112418   5.348   4.015   4.162
 4132SOL    HW212419   5.298   4.168   4.138
 4133SOL     OW12420   4.747   4.490   4.690
 4133SOL    HW112421   4.762   4.511   4.786
 4133SOL    HW212422   4.717   4.395   4.681
 4134SOL     OW12423   5.264   3.998   3.849
 4134SOL    HW112424   5.203   3.923   3.872
 4134SOL    HW212425   5.286   4.050   3.932
 4135SOL     OW12426   4.043   4.534   4.673
 4135SOL    HW112427   4.136   4.570   4.678
 4135SOL    HW212428   4.037   4.449   4.725
 4136SOL     OW12429   4.063   4.233   4.730
 4136SOL    HW112430   4.011   4.150   4.713
 4136SOL    HW212431   4.140   4.238   4.666
 4137SOL     OW12432   4.884   3.931   5.201
 4137SOL    HW112433   4.884   3.995   5.278
 4137SOL    HW212434   4.912   3.979   5.118
 4138SOL     OW12435   3.732   5.050   3.924
 4138SOL    HW112436   3.639   5.071   3.893
 4138SOL    HW212437   3.742   4.951   3.937
 4139SOL     OW12438   4.726   4.520   4.962
 4139SOL    HW112439   4.767   4.488   5.048
 4139SOL    HW212440   4.630   4.493   4.959
 4140SOL     OW12441   3.764   4.268   4.838
 4140SOL    HW112442   3.849   4.235   4.797
 4140SOL    HW212443   3.777   4.283   4.936
 4141SOL     OW12444   4.539   4.296   4.049
 4141SOL    HW112445   4.546   4.207   4.003
 4141SOL    HW212446   4.445   4.330   4.041
 4142SOL     OW12447   4.395   4.188   4.993
 4142SOL    HW112448   4.361   4.099   4.963
 4142SOL    HW212449   4.421   4.242   4.913
 4143SOL     OW12450   4.197   4.224   3.915
 4143SOL    HW112451   4.258   4.304   3.919
 4143SOL    HW212452   4.102   4.255   3.922
 4144SOL     OW12453   5.071   4.783   4.958
 4144SOL    HW112454   5.095   4.720   4.884
 4144SOL    HW212455   4.981   4.823   4.940
 4145SOL     OW12456   3.807   4.982   4.746
 4145SOL    HW112457   3.802   4.981   4.846
 4145SOL    HW212458   3.724   4.941   4.708
 4146SOL     OW12459   3.987   4.050   4.444
 4146SOL    HW112460   3.908   4.101   4.410
 4146SOL    HW212461   3.978   4.035   4.542
 4147SOL     OW12462   4.546   4.726   5.096
 4147SOL    HW112463   4.586   4.725   5.004
 4147SOL    HW212464   4.556   4.818   5.136
 4148SOL     OW12465   4.640   4.634   4.015
 4148SOL    HW112466   4.703   4.672   3.947
 4148SOL    HW212467   4.680   4.551   4.054
 4149SOL     OW12468   4.763   4.822   4.420
 4149SOL    HW112469   4.693   4.775   4.474
 4149SOL    HW212470   4.822   4.754   4.377
 4150SOL     OW12471   4.738   3.960   4.695
 4150SOL    HW112472   4.730   3.924   4.602
 4150SOL    HW212473   4.736   3.884   4.760
 4151SOL     OW12474   3.799   4.069   3.757
 4151SOL    HW112475   3.707   4.041   3.728
 4151SOL    HW212476   3.830   4.146   3.701
 4152SOL     OW12477   3.796   3.890   4.042
 4152SOL    HW112478   3.779   3.973   3.988
 4152SOL    HW212479   3.886   3.853   4.020
 4153SOL     OW12480   4.318   4.469   4.376
 4153SOL    HW112481   4.368   4.554   4.357
 4153SOL    HW212482   4.230   4.471   4.328
 4154SOL     OW12483   4.583   4.680   4.585
 4154SOL    HW112484   4.637   4.611   4.633
 4154SOL    HW212485   4.551   4.749   4.651
 4155SOL     OW12486   4.807   4.708   3.811
 4155SOL    HW112487   4.784   4.761   3.729
 4155SOL    HW212488   4.888   4.652   3.792
 4156SOL     OW12489   3.803   4.964   4.377
 4156SOL    HW112490   3.802   4.917   4.465
 4156SOL    HW212491   3.885   4.936   4.326
 4157SOL     OW12492   4.152   4.148   4.244
 4157SOL    HW112493   4.182   4.076   4.182
 4157SOL    HW212494   4.113   4.108   4.327
 4158SOL     OW12495   4.725   3.758   4.878
 4158SOL    HW112496   4.662   3.686   4.847
 4158SOL    HW212497   4.818   3.722   4.878
 4159SOL     OW12498   4.494   5.054   4.025
 4159SOL    HW112499   4.448   4.967   4.042
 4159SOL    HW212500   4.585   5.051   4.066
 4160SOL     OW12501   3.763   4.801   4.024
 4160SOL    HW112502   3.862   4.790   4.015
 4160SOL    HW212503   3.723   4.715   4.056
   5.05145   5.05145   5.05145
