mobley_5200358_GMX.gro created by acpype (v: 2023.10.27) on Wed May 20 23:42:30 2026
   26
    1MOL     C1    1   2.681   2.434   2.567
    1MOL     C2    2   2.431   2.328   2.354
    1MOL     C3    3   2.502   2.555   2.698
    1MOL     C4    4   2.637   2.677   2.519
    1MOL     C5    5   2.229   2.323   2.214
    1MOL     C6    6   2.726   2.778   2.803
    1MOL     C7    7   2.638   2.569   2.627
    1MOL     N1    8   2.618   2.359   2.481
    1MOL     N2    9   2.311   2.384   2.315
    1MOL     O1   10   2.472   2.220   2.314
    1MOL     O2   11   2.494   2.412   2.441
    1MOL     S1   12   2.768   2.608   2.757
    1MOL     H1   13   2.779   2.395   2.598
    1MOL     H2   14   2.474   2.646   2.752
    1MOL     H3   15   2.421   2.536   2.627
    1MOL     H4   16   2.502   2.472   2.769
    1MOL     H5   17   2.604   2.774   2.558
    1MOL     H6   18   2.568   2.653   2.438
    1MOL     H7   19   2.735   2.690   2.474
    1MOL     H8   20   2.271   2.348   2.116
    1MOL     H9   21   2.128   2.364   2.222
    1MOL    H10   22   2.227   2.215   2.226
    1MOL    H11   23   2.790   2.808   2.887
    1MOL    H12   24   2.622   2.787   2.835
    1MOL    H13   25   2.746   2.847   2.721
    1MOL    H14   26   2.295   2.479   2.344
   5.05145   5.05145   5.05145
