4_isopropyltoluene@0
    24
   1.3670000   0.0950000   0.5560000   2.3700000  -2.0950000   0.6090000
   1.4200000   0.1530000   1.9520000   2.4220000  -2.0380000   2.0050000
   1.8300000  -1.0350000  -0.1260000   1.9460000  -0.9140000   2.6950000
   1.8050000  -1.0820000  -1.6230000   3.4320000  -0.8630000   4.7300000
   1.1490000  -1.9250000   4.8620000   1.9930000  -0.8270000   4.2090000
   0.9610000   0.9410000   0.0070000   2.7530000  -2.9770000   0.1010000
   1.0480000   1.0430000   2.4530000   2.8430000  -2.8810000   2.5460000
   1.6930000  -2.1120000  -1.9800000   0.9600000  -0.5090000  -2.0180000
   2.7340000  -0.6670000  -2.0270000   3.9220000  -1.8190000   4.5150000
   3.4520000  -0.7160000   5.8150000   4.0340000  -0.0690000   4.2730000
   0.1160000  -1.8930000   4.4990000   1.1260000  -1.7960000   5.9500000
   1.5460000  -2.9250000   4.6550000   1.5630000   0.1350000   4.5180000
