%VERSION  VERSION_STAMP = V0001.000  DATE = 05/20/26  23:43:47                  
%FLAG TITLE                                                                     
%FORMAT(20a4)                                                                   
4_isopropyltoluene@0                                                            
%FLAG POINTERS                                                                  
%FORMAT(10I8)                                                                   
      24       4      14      10      29      13      44      16       0       0
     121       1      10      13      16       5       8       7       4       0
       0       0       0       0       0       0       0       0      24       0
       0
%FLAG ATOM_NAME                                                                 
%FORMAT(20a4)                                                                   
C1  C2  C3  C4  C5  C6  C7  C8  C9  C10 H1  H2  H3  H4  H5  H6  H7  H8  H9  H10 
H11 H12 H13 H14 
%FLAG CHARGE                                                                    
%FORMAT(5E16.8)                                                                 
 -2.35978785E+00 -2.35978785E+00 -2.24134290E+00 -2.24134290E+00 -1.46325069E+00
 -1.42680609E+00 -9.62137440E-01 -1.60538463E+00 -1.60538463E+00 -4.26401820E-01
  2.36889900E+00  2.36889900E+00  2.37801015E+00  2.37801015E+00  7.84160236E-01
  7.84160236E-01  7.84160236E-01  6.50536110E-01  6.50536110E-01  6.50536110E-01
  6.50536110E-01  6.50536110E-01  6.50536110E-01  9.05648310E-01
%FLAG ATOMIC_NUMBER                                                             
%FORMAT(10I8)                                                                   
       6       6       6       6       6       6       6       6       6       6
       1       1       1       1       1       1       1       1       1       1
       1       1       1       1
%FLAG MASS                                                                      
%FORMAT(5E16.8)                                                                 
  1.20100000E+01  1.20100000E+01  1.20100000E+01  1.20100000E+01  1.20100000E+01
  1.20100000E+01  1.20100000E+01  1.20100000E+01  1.20100000E+01  1.20100000E+01
  1.00800000E+00  1.00800000E+00  1.00800000E+00  1.00800000E+00  1.00800000E+00
  1.00800000E+00  1.00800000E+00  1.00800000E+00  1.00800000E+00  1.00800000E+00
  1.00800000E+00  1.00800000E+00  1.00800000E+00  1.00800000E+00
%FLAG ATOM_TYPE_INDEX                                                           
%FORMAT(10I8)                                                                   
       1       1       1       1       1       1       2       2       2       2
       3       3       3       3       4       4       4       4       4       4
       4       4       4       4
%FLAG NUMBER_EXCLUDED_ATOMS                                                     
%FORMAT(10I8)                                                                   
      13      12      11      10       9      14       5       9       8       9
       1       1       1       1       2       1       1       3       2       1
       3       2       1       1
%FLAG NONBONDED_PARM_INDEX                                                      
%FORMAT(10I8)                                                                   
       1       2       4       7       2       3       5       8       4       5
       6       9       7       8       9      10
%FLAG RESIDUE_LABEL                                                             
%FORMAT(20a4)                                                                   
MOL 
%FLAG RESIDUE_POINTER                                                           
%FORMAT(10I8)                                                                   
       1
%FLAG BOND_FORCE_CONSTANT                                                       
%FORMAT(5E16.8)                                                                 
  3.54250000E+02  3.60690000E+02  2.43910000E+02  3.45250000E+02  2.28890000E+02
%FLAG BOND_EQUIL_VALUE                                                          
%FORMAT(5E16.8)                                                                 
  1.39860000E+00  1.08600000E+00  1.51470000E+00  1.09620000E+00  1.53540000E+00
%FLAG ANGLE_FORCE_CONSTANT                                                      
%FORMAT(5E16.8)                                                                 
  6.36700000E+01  4.49000000E+01  6.07400000E+01  4.36100000E+01  6.03300000E+01
  5.98700000E+01  4.32700000E+01  3.58000000E+01
%FLAG ANGLE_EQUIL_VALUE                                                         
%FORMAT(5E16.8)                                                                 
  2.09474507E+00  2.09230160E+00  2.10888224E+00  1.93085858E+00  1.96209999E+00
  1.96576518E+00  1.91427794E+00  1.88024401E+00
%FLAG DIHEDRAL_FORCE_CONSTANT                                                   
%FORMAT(5E16.8)                                                                 
  3.62500000E+00  0.00000000E+00  2.40000000E-01  1.55555556E-01  1.30000000E-01
  1.20000000E-01  1.10000000E+00
%FLAG DIHEDRAL_PERIODICITY                                                      
%FORMAT(5E16.8)                                                                 
  2.00000000E+00  1.00000000E+00  2.00000000E+00  3.00000000E+00  3.00000000E+00
  3.00000000E+00  2.00000000E+00
%FLAG DIHEDRAL_PHASE                                                            
%FORMAT(5E16.8)                                                                 
  3.14159400E+00  0.00000000E+00  3.14159400E+00  0.00000000E+00  0.00000000E+00
  0.00000000E+00  3.14159400E+00
%FLAG SCEE_SCALE_FACTOR                                                         
%FORMAT(5E16.8)                                                                 
  1.20000000E+00  1.20000000E+00  1.20000000E+00  1.20000000E+00  1.20000000E+00
  1.20000000E+00  0.00000000E+00
%FLAG SCNB_SCALE_FACTOR                                                         
%FORMAT(5E16.8)                                                                 
  2.00000000E+00  2.00000000E+00  2.00000000E+00  2.00000000E+00  2.00000000E+00
  2.00000000E+00  0.00000000E+00
%FLAG SOLTY                                                                     
%FORMAT(5E16.8)                                                                 
  0.00000000E+00  0.00000000E+00  0.00000000E+00  0.00000000E+00
%FLAG LENNARD_JONES_ACOEF                                                       
%FORMAT(5E16.8)                                                                 
  6.96551276E+05  8.43969952E+05  1.02073671E+06  7.52549148E+04  9.27554496E+04
  6.90855956E+03  8.12662403E+04  1.00235148E+05  7.41026906E+03  7.94617769E+03
%FLAG LENNARD_JONES_BCOEF                                                       
%FORMAT(5E16.8)                                                                 
  5.24668528E+02  5.90251928E+02  6.63431737E+02  1.09570372E+02  1.24325688E+02
  2.10929191E+01  1.21392023E+02  1.37787728E+02  2.32899892E+01  2.57122925E+01
%FLAG BONDS_INC_HYDROGEN                                                        
%FORMAT(10I8)                                                                   
       0      30       2       3      33       2       6      36       2       9
      39       2      18      42       4      18      45       4      18      48
       4      21      51       4      21      54       4      21      57       4
      24      60       4      24      63       4      24      66       4      27
      69       4
%FLAG BONDS_WITHOUT_HYDROGEN                                                    
%FORMAT(10I8)                                                                   
       0       6       1       0      12       1       3       9       1       3
      12       1       6      15       1       9      15       1      12      18
       3      15      27       3      21      27       5      24      27       5
%FLAG ANGLES_INC_HYDROGEN                                                       
%FORMAT(10I8)                                                                   
       0       6      36       2       3       9      39       2       6       0
      30       2       9       3      33       2      12       0      30       2
      12       3      33       2      12      18      42       4      12      18
      45       4      12      18      48       4      15       6      36       2
      15       9      39       2      15      27      69       4      21      27
      69       7      24      27      69       7      27      21      51       7
      27      21      54       7      27      21      57       7      27      24
      60       7      27      24      63       7      27      24      66       7
      42      18      45       8      42      18      48       8      45      18
      48       8      51      21      54       8      51      21      57       8
      54      21      57       8      60      24      63       8      60      24
      66       8      63      24      66       8
%FLAG ANGLES_WITHOUT_HYDROGEN                                                   
%FORMAT(10I8)                                                                   
       0       6      15       1       0      12       3       1       0      12
      18       3       3       9      15       1       3      12      18       3
       6       0      12       1       6      15       9       1       6      15
      27       3       9       3      12       1       9      15      27       3
      15      27      21       5      15      27      24       5      21      27
      24       6
%FLAG DIHEDRALS_INC_HYDROGEN                                                    
%FORMAT(10I8)                                                                   
       0      12       3      33       1       0      12      18      42       2
       0      12      18      45       2       0      12      18      48       2
      30       0      12       3       1       3      12      18      42       2
       3      12      18      45       2       3      12      18      48       2
       6      15       9      39       1       6      15      27      69       2
       9      15       6      36       1       9      15      27      69       2
      12       0       6      36       1      12       3       9      39       1
      30       0       6      15       1      15       9       3      33       1
      15      27      21      51       4      15      27      21      54       4
      15      27      21      57       4      15      27      24      60       4
      15      27      24      63       4      15      27      24      66       4
      30       0      12      18       1      18      12       3      33       1
      21      27      24      60       5      21      27      24      63       5
      21      27      24      66       5      24      27      21      51       5
      24      27      21      54       5      24      27      21      57       5
      27      15       6      36       1      27      15       9      39       1
      30       0       6      36       1      33       3       9      39       1
      51      21      27      69       6      54      21      27      69       6
      57      21      27      69       6      60      24      27      69       6
      63      24      27      69       6      66      24      27      69       6
      30       0     -12      -6       7       9      12      -3     -33       7
       0      15      -6     -36       7       3      15      -9     -39       7
%FLAG DIHEDRALS_WITHOUT_HYDROGEN                                                
%FORMAT(10I8)                                                                   
       0       6      15       9       1       0       6      15      27       1
       0      12      -3       9       1       3       9      15       6       1
       3       9      15      27       1       6       0     -12       3       1
       6       0      12      18       1       6      15      27      21       3
       6      15      27      24       3       9       3      12      18       1
       9      15      27      21       3       9      15      27      24       3
      12       0       6      15       1      12       3      -9      15       1
       0       3     -12     -18       7      27       6     -15      -9       7
%FLAG EXCLUDED_ATOMS_LIST                                                       
%FORMAT(10I8)                                                                   
       2       3       4       5       6       7      10      11      12      13
      15      16      17       3       4       5       6       7      10      11
      12      14      15      16      17       4       5       6       7       8
       9      10      11      13      14      24       5       6       7       8
       9      10      12      13      14      24       6       7      11      12
      13      14      15      16      17       8       9      10      11      12
      13      14      18      19      20      21      22      23      24      11
      12      15      16      17       9      10      18      19      20      21
      22      23      24      10      18      19      20      21      22      23
      24      13      14      18      19      20      21      22      23      24
      13      14       0       0      16      17      17       0      19      20
      24      20      24      24      22      23      24      23      24      24
       0
%FLAG HBOND_ACOEF                                                               
%FORMAT(5E16.8)                                                                 

%FLAG HBOND_BCOEF                                                               
%FORMAT(5E16.8)                                                                 

%FLAG HBCUT                                                                     
%FORMAT(5E16.8)                                                                 

%FLAG AMBER_ATOM_TYPE                                                           
%FORMAT(20a4)                                                                   
ca  ca  ca  ca  ca  ca  c3  c3  c3  c3  ha  ha  ha  ha  hc  hc  hc  hc  hc  hc  
hc  hc  hc  hc  
%FLAG TREE_CHAIN_CLASSIFICATION                                                 
%FORMAT(20a4)                                                                   
BLA BLA BLA BLA BLA BLA BLA BLA BLA BLA BLA BLA BLA BLA BLA BLA BLA BLA BLA BLA 
BLA BLA BLA BLA 
%FLAG JOIN_ARRAY                                                                
%FORMAT(10I8)                                                                   
       0       0       0       0       0       0       0       0       0       0
       0       0       0       0       0       0       0       0       0       0
       0       0       0       0
%FLAG IROTAT                                                                    
%FORMAT(10I8)                                                                   
       0       0       0       0       0       0       0       0       0       0
       0       0       0       0       0       0       0       0       0       0
       0       0       0       0
%FLAG RADIUS_SET                                                                
%FORMAT(1a80)                                                                   
modified Bondi radii (mbondi)                                                   
%FLAG RADII                                                                     
%FORMAT(5E16.8)                                                                 
  1.70000000E+00  1.70000000E+00  1.70000000E+00  1.70000000E+00  1.70000000E+00
  1.70000000E+00  1.70000000E+00  1.70000000E+00  1.70000000E+00  1.70000000E+00
  1.30000000E+00  1.30000000E+00  1.30000000E+00  1.30000000E+00  1.30000000E+00
  1.30000000E+00  1.30000000E+00  1.30000000E+00  1.30000000E+00  1.30000000E+00
  1.30000000E+00  1.30000000E+00  1.30000000E+00  1.30000000E+00
%FLAG SCREEN                                                                    
%FORMAT(5E16.8)                                                                 
  7.20000000E-01  7.20000000E-01  7.20000000E-01  7.20000000E-01  7.20000000E-01
  7.20000000E-01  7.20000000E-01  7.20000000E-01  7.20000000E-01  7.20000000E-01
  8.50000000E-01  8.50000000E-01  8.50000000E-01  8.50000000E-01  8.50000000E-01
  8.50000000E-01  8.50000000E-01  8.50000000E-01  8.50000000E-01  8.50000000E-01
  8.50000000E-01  8.50000000E-01  8.50000000E-01  8.50000000E-01
%FLAG IPOL                                                                      
%FORMAT(1I8)                                                                    
       0
