; mobley_1449384_GMX.top created by acpype (v: 2023.10.27) on Wed May 20 23:43:45 2026

[ defaults ]
; nbfunc        comb-rule       gen-pairs       fudgeLJ fudgeQQ
1               2               yes             0.5     0.8333333333

; Include mobley_1449384_GMX.itp topology
#include "mobley_1449384_GMX.itp"

; Ligand position restraints
#ifdef POSRES_LIG
#include "posre_mobley_1449384.itp"
#endif

[ system ]
mobley_1449384 in water

[ molecules ]
; Compound        nmols
 mobley_1449384   1     
SOL              3710
