; mobley_1449384_GMX_OPLS.top created by acpype (v: 2023.10.27) on Wed May 20 23:43:45 2026

; Include forcefield parameters
#include "ffoplsaa.itp"

; Include mobley_1449384_GMX.itp topology
#include "mobley_1449384_GMX.itp"

; Ligand position restraints
#ifdef POSRES_LIG
#include "posre_mobley_1449384.itp"
#endif

[ system ]
 mobley_1449384

[ molecules ]
; Compound        nmols
 mobley_1449384   1     
