mobley_9185328_GMX.gro created by acpype (v: 2023.10.27) on Wed May 20 23:46:17 2026
   13
    1MOL     C1    1   2.278   2.254   2.084
    1MOL     C2    2   2.296   2.291   2.231
    1MOL     C3    3   2.194   2.221   2.319
    1MOL     N1    4   2.212   2.259   2.459
    1MOL     H1    5   2.290   2.146   2.069
    1MOL     H2    6   2.178   2.283   2.049
    1MOL     H3    7   2.352   2.306   2.023
    1MOL     H4    8   2.286   2.400   2.242
    1MOL     H5    9   2.398   2.265   2.262
    1MOL     H6   10   2.204   2.112   2.310
    1MOL     H7   11   2.092   2.247   2.288
    1MOL     H8   12   2.275   2.339   2.463
    1MOL     H9   13   2.259   2.183   2.508
   4.50892   4.50892   4.50892
