mobley_2146331_GMX.gro created by acpype (v: 2023.10.27) on Wed May 20 23:53:28 2026
    4
    1MOL     C1    1   2.102   2.102   2.102
    1MOL     O1    2   2.044   2.003   2.142
    1MOL     H1    3   2.109   2.195   2.162
    1MOL     H2    4   2.151   2.106   2.003
   4.20369   4.20369   4.20369
