mobley_5445548_GMX.gro created by acpype (v: 2023.10.27) on Wed May 20 23:58:59 2026
   21
    1MOL     C1    1   2.339   2.354   2.066
    1MOL     C2    2   2.232   2.414   2.133
    1MOL     C3    3   2.444   2.298   2.138
    1MOL     C4    4   2.230   2.417   2.273
    1MOL     C5    5   2.442   2.301   2.278
    1MOL     C6    6   2.335   2.360   2.345
    1MOL     C7    7   2.401   2.490   2.551
    1MOL     C8    8   2.396   2.238   2.557
    1MOL     C9    9   2.333   2.364   2.494
    1MOL     H1   10   2.340   2.352   1.957
    1MOL     H2   11   2.150   2.458   2.077
    1MOL     H3   12   2.527   2.251   2.086
    1MOL     H4   13   2.146   2.464   2.324
    1MOL     H5   14   2.524   2.256   2.333
    1MOL     H6   15   2.508   2.492   2.527
    1MOL     H7   16   2.392   2.494   2.660
    1MOL     H8   17   2.355   2.580   2.509
    1MOL     H9   18   2.347   2.148   2.519
    1MOL    H10   19   2.386   2.238   2.666
    1MOL    H11   20   2.503   2.230   2.533
    1MOL    H12   21   2.229   2.366   2.530
   4.71958   4.71958   4.71958
