detet.xyz
    22
   0.0000000   0.0000000   0.0000000   4.2930000   0.8370000   3.4120000
   3.5800000   2.9880000  -0.3630000   1.5150000   0.0000000   0.0000000
   3.6960000   1.6850000   2.3070000   3.3320000   1.5210000  -0.0660000
   1.9580000   1.3350000   0.0000000   3.9790000   1.0580000   1.0780000
  -0.3760000  -1.0190000  -0.0040000  -0.3820000   0.5030000   0.8820000
  -0.3830000   0.5120000  -0.8760000   3.8540000  -0.1540000   3.4150000
   4.1110000   1.2980000   4.3790000   5.3640000   0.7330000   3.2760000
   3.0850000   3.6250000   0.3600000   3.1850000   3.2270000  -1.3440000
   4.6450000   3.1960000  -0.3530000   1.8970000  -0.5090000  -0.8850000
   1.9000000  -0.5210000   0.8710000   2.6230000   1.7840000   2.4370000
   4.1300000   2.6810000   2.3260000   3.7450000   0.9070000  -0.8610000
