; mobley_3686115_GMX_OPLS.itp created by acpype (v: 2023.10.27) on Wed May 20 23:41:28 2026

; For OPLS atomtypes manual fine tuning
; AC_at:OPLS_at:OPLScode: Possible_Alternatives (see ffoplsaa.atp and ffoplsaanb.itp)
; c3:CT:opls_135: ['136', '137', '149', '157', '158', '206', '209', '210', '223B', '224B', '245', '246', '274', '283', '284', '285', '292', '292B', '293B', '296', '307', '308', '505']
; os:x:opls_x: []
; hc:HC:opls_140: []
; h1:HC:opls_140: []
; h2:x:opls_x: []

[ moleculetype ]
;name            nrexcl
 mobley_3686115   3

[ atoms ]
;   nr  type  resi  res  atom  cgnr     charge      mass       ; qtot   bond_type
     1 opls_135     1   MOL    C1    1    -0.096100     12.01100 ; qtot -0.096  CT  
     2 opls_135     1   MOL    C2    2    -0.096100     12.01100 ; qtot -0.192  CT  
     3 opls_135     1   MOL    C3    3    -0.117100     12.01100 ; qtot -0.309  CT  
     4 opls_135     1   MOL    C4    4     0.131900     12.01100 ; qtot -0.177  CT  
     5 opls_135     1   MOL    C5    5     0.131900     12.01100 ; qtot -0.046  CT  
     6 opls_135     1   MOL    C6    6     0.330900     12.01100 ; qtot  0.285  CT  
     7 opls_x     1   MOL    O1    7    -0.453600      0.00000 ; qtot -0.168  x   
     8 opls_x     1   MOL    O2    8    -0.453600      0.00000 ; qtot -0.622  x   
     9 opls_140     1   MOL    H1    9     0.043200      1.00800 ; qtot -0.579  HC  
    10 opls_140     1   MOL    H2   10     0.043200      1.00800 ; qtot -0.535  HC  
    11 opls_140     1   MOL    H3   11     0.043200      1.00800 ; qtot -0.492  HC  
    12 opls_140     1   MOL    H4   12     0.043200      1.00800 ; qtot -0.449  HC  
    13 opls_140     1   MOL    H5   13     0.043200      1.00800 ; qtot -0.406  HC  
    14 opls_140     1   MOL    H6   14     0.043200      1.00800 ; qtot -0.363  HC  
    15 opls_140     1   MOL    H7   15     0.053367      1.00800 ; qtot -0.309  HC  
    16 opls_140     1   MOL    H8   16     0.053367      1.00800 ; qtot -0.256  HC  
    17 opls_140     1   MOL    H9   17     0.053367      1.00800 ; qtot -0.202  HC  
    18 opls_140     1   MOL   H10   18     0.033450      1.00800 ; qtot -0.169  HC  
    19 opls_140     1   MOL   H11   19     0.033450      1.00800 ; qtot -0.136  HC  
    20 opls_140     1   MOL   H12   20     0.033450      1.00800 ; qtot -0.102  HC  
    21 opls_140     1   MOL   H13   21     0.033450      1.00800 ; qtot -0.069  HC  
    22 opls_x     1   MOL   H14   22     0.068700      0.00000 ; qtot  0.000  x   

[ bonds ]
;   ai     aj funct   r             k
     1      4   1 ;    1.5354e-01    1.9154e+05 ;     C1 - C4         CT - CT    
     1      9   1 ;    1.0962e-01    2.8891e+05 ;     C1 - H1         CT - HC    
     1     10   1 ;    1.0962e-01    2.8891e+05 ;     C1 - H2         CT - HC    
     1     11   1 ;    1.0962e-01    2.8891e+05 ;     C1 - H3         CT - HC    
     2      5   1 ;    1.5354e-01    1.9154e+05 ;     C2 - C5         CT - CT    
     2     12   1 ;    1.0962e-01    2.8891e+05 ;     C2 - H4         CT - HC    
     2     13   1 ;    1.0962e-01    2.8891e+05 ;     C2 - H5         CT - HC    
     2     14   1 ;    1.0962e-01    2.8891e+05 ;     C2 - H6         CT - HC    
     3      6   1 ;    1.5354e-01    1.9154e+05 ;     C3 - C6         CT - CT    
     3     15   1 ;    1.0962e-01    2.8891e+05 ;     C3 - H7         CT - HC    
     3     16   1 ;    1.0962e-01    2.8891e+05 ;     C3 - H8         CT - HC    
     3     17   1 ;    1.0962e-01    2.8891e+05 ;     C3 - H9         CT - HC    
     4      7   1 ;    1.4273e-01    2.3620e+05 ;     C4 - O1         CT - x     
     4     18   1 ;    1.0969e-01    2.8804e+05 ;     C4 - H10        CT - HC    
     4     19   1 ;    1.0969e-01    2.8804e+05 ;     C4 - H11        CT - HC    
     5      8   1 ;    1.4273e-01    2.3620e+05 ;     C5 - O2         CT - x     
     5     20   1 ;    1.0969e-01    2.8804e+05 ;     C5 - H12        CT - HC    
     5     21   1 ;    1.0969e-01    2.8804e+05 ;     C5 - H13        CT - HC    
     6      7   1 ;    1.4273e-01    2.3620e+05 ;     C6 - O1         CT - x     
     6      8   1 ;    1.4273e-01    2.3620e+05 ;     C6 - O2         CT - x     
     6     22   1 ;    1.0950e-01    2.9039e+05 ;     C6 - H14        CT - x     

[ pairs ]
;   ai     aj    funct
     1      6      1 ;     C1 - C6    
     2      6      1 ;     C2 - C6    
     3      4      1 ;     C3 - C4    
     3      5      1 ;     C3 - C5    
     4      8      1 ;     C4 - O2    
     4     22      1 ;     C4 - H14   
     5      7      1 ;     C5 - O1    
     5     22      1 ;     C5 - H14   
     6     18      1 ;     C6 - H10   
     6     19      1 ;     C6 - H11   
     6     20      1 ;     C6 - H12   
     6     21      1 ;     C6 - H13   
     7     15      1 ;     O1 - H7    
     7     16      1 ;     O1 - H8    
     7     17      1 ;     O1 - H9    
     8     12      1 ;     O2 - H4    
     8     13      1 ;     O2 - H5    
     8     14      1 ;     O2 - H6    
     8     15      1 ;     O2 - H7    
     8     16      1 ;     O2 - H8    
     8     17      1 ;     O2 - H9    
     9      7      1 ;     H1 - O1    
     9     18      1 ;     H1 - H10   
     9     19      1 ;     H1 - H11   
    10      7      1 ;     H2 - O1    
    10     18      1 ;     H2 - H10   
    10     19      1 ;     H2 - H11   
    11      7      1 ;     H3 - O1    
    11     18      1 ;     H3 - H10   
    11     19      1 ;     H3 - H11   
    12     20      1 ;     H4 - H12   
    12     21      1 ;     H4 - H13   
    13     20      1 ;     H5 - H12   
    13     21      1 ;     H5 - H13   
    14     20      1 ;     H6 - H12   
    14     21      1 ;     H6 - H13   
    15     22      1 ;     H7 - H14   
    16     22      1 ;     H8 - H14   
    17     22      1 ;     H9 - H14   

[ angles ]
;   ai     aj     ak    funct   theta         cth
     1      4      7      1 ;    1.0762e+02    6.4802e+02 ;     C1 - C4   - O1       CT -   CT - x   
     1      4     18      1 ;    1.0959e+02    3.6217e+02 ;     C1 - C4   - H10      CT -   CT - HC  
     1      4     19      1 ;    1.0959e+02    3.6217e+02 ;     C1 - C4   - H11      CT -   CT - HC  
     2      5      8      1 ;    1.0762e+02    6.4802e+02 ;     C2 - C5   - O2       CT -   CT - x   
     2      5     20      1 ;    1.0959e+02    3.6217e+02 ;     C2 - C5   - H12      CT -   CT - HC  
     2      5     21      1 ;    1.0959e+02    3.6217e+02 ;     C2 - C5   - H13      CT -   CT - HC  
     3      6      7      1 ;    1.0762e+02    6.4802e+02 ;     C3 - C6   - O1       CT -   CT - x   
     3      6      8      1 ;    1.0762e+02    6.4802e+02 ;     C3 - C6   - O2       CT -   CT - x   
     3      6     22      1 ;    1.1042e+02    3.6091e+02 ;     C3 - C6   - H14      CT -   CT - x   
     4      1      9      1 ;    1.0968e+02    3.6208e+02 ;     C4 - C1   - H1       CT -   CT - HC  
     4      1     10      1 ;    1.0968e+02    3.6208e+02 ;     C4 - C1   - H2       CT -   CT - HC  
     4      1     11      1 ;    1.0968e+02    3.6208e+02 ;     C4 - C1   - H3       CT -   CT - HC  
     4      7      6      1 ;    1.1360e+02    7.3915e+02 ;     C4 - O1   - C6       CT -    x - CT  
     5      2     12      1 ;    1.0968e+02    3.6208e+02 ;     C5 - C2   - H4       CT -   CT - HC  
     5      2     13      1 ;    1.0968e+02    3.6208e+02 ;     C5 - C2   - H5       CT -   CT - HC  
     5      2     14      1 ;    1.0968e+02    3.6208e+02 ;     C5 - C2   - H6       CT -   CT - HC  
     5      8      6      1 ;    1.1360e+02    7.3915e+02 ;     C5 - O2   - C6       CT -    x - CT  
     6      3     15      1 ;    1.0968e+02    3.6208e+02 ;     C6 - C3   - H7       CT -   CT - HC  
     6      3     16      1 ;    1.0968e+02    3.6208e+02 ;     C6 - C3   - H8       CT -   CT - HC  
     6      3     17      1 ;    1.0968e+02    3.6208e+02 ;     C6 - C3   - H9       CT -   CT - HC  
     7      4     18      1 ;    1.1034e+02    4.7028e+02 ;     O1 - C4   - H10       x -   CT - HC  
     7      4     19      1 ;    1.1034e+02    4.7028e+02 ;     O1 - C4   - H11       x -   CT - HC  
     7      6      8      1 ;    1.0789e+02    8.2375e+02 ;     O1 - C6   - O2        x -   CT - x   
     7      6     22      1 ;    1.1103e+02    4.6894e+02 ;     O1 - C6   - H14       x -   CT - x   
     8      5     20      1 ;    1.1034e+02    4.7028e+02 ;     O2 - C5   - H12       x -   CT - HC  
     8      5     21      1 ;    1.1034e+02    4.7028e+02 ;     O2 - C5   - H13       x -   CT - HC  
     8      6     22      1 ;    1.1103e+02    4.6894e+02 ;     O2 - C6   - H14       x -   CT - x   
     9      1     10      1 ;    1.0773e+02    2.9957e+02 ;     H1 - C1   - H2       HC -   CT - HC  
     9      1     11      1 ;    1.0773e+02    2.9957e+02 ;     H1 - C1   - H3       HC -   CT - HC  
    10      1     11      1 ;    1.0773e+02    2.9957e+02 ;     H2 - C1   - H3       HC -   CT - HC  
    12      2     13      1 ;    1.0773e+02    2.9957e+02 ;     H4 - C2   - H5       HC -   CT - HC  
    12      2     14      1 ;    1.0773e+02    2.9957e+02 ;     H4 - C2   - H6       HC -   CT - HC  
    13      2     14      1 ;    1.0773e+02    2.9957e+02 ;     H5 - C2   - H6       HC -   CT - HC  
    15      3     16      1 ;    1.0773e+02    2.9957e+02 ;     H7 - C3   - H8       HC -   CT - HC  
    15      3     17      1 ;    1.0773e+02    2.9957e+02 ;     H7 - C3   - H9       HC -   CT - HC  
    16      3     17      1 ;    1.0773e+02    2.9957e+02 ;     H8 - C3   - H9       HC -   CT - HC  
    18      4     19      1 ;    1.0855e+02    2.9824e+02 ;    H10 - C4   - H11      HC -   CT - HC  
    20      5     21      1 ;    1.0855e+02    2.9824e+02 ;    H12 - C5   - H13      HC -   CT - HC  

[ dihedrals ] ; propers
; for gromacs 4.5 or higher, using funct 9
;    i      j      k      l   func   phase     kd      pn
     1      4      7      6      9 ;     0.00   0.33472   2 ;     C1-    C4-    O1-    C6
     1      4      7      6      9 ;     0.00   3.13800   3 ;     C1-    C4-    O1-    C6
     1      4      7      6      9 ;   180.00   3.68192   1 ;     C1-    C4-    O1-    C6
     2      5      8      6      9 ;     0.00   0.33472   2 ;     C2-    C5-    O2-    C6
     2      5      8      6      9 ;     0.00   3.13800   3 ;     C2-    C5-    O2-    C6
     2      5      8      6      9 ;   180.00   3.68192   1 ;     C2-    C5-    O2-    C6
     3      6      7      4      9 ;     0.00   0.33472   2 ;     C3-    C6-    O1-    C4
     3      6      7      4      9 ;     0.00   3.13800   3 ;     C3-    C6-    O1-    C4
     3      6      7      4      9 ;   180.00   3.68192   1 ;     C3-    C6-    O1-    C4
     3      6      8      5      9 ;     0.00   0.33472   2 ;     C3-    C6-    O2-    C5
     3      6      8      5      9 ;     0.00   3.13800   3 ;     C3-    C6-    O2-    C5
     3      6      8      5      9 ;   180.00   3.68192   1 ;     C3-    C6-    O2-    C5
     4      7      6      8      9 ;     0.00   3.55640   2 ;     C4-    O1-    C6-    O2
     4      7      6      8      9 ;     0.00   3.55640   3 ;     C4-    O1-    C6-    O2
     4      7      6      8      9 ;   180.00   1.92464   1 ;     C4-    O1-    C6-    O2
     4      7      6     22      9 ;     0.00   1.60387   3 ;     C4-    O1-    C6-   H14
     5      8      6      7      9 ;     0.00   3.55640   2 ;     C5-    O2-    C6-    O1
     5      8      6      7      9 ;     0.00   3.55640   3 ;     C5-    O2-    C6-    O1
     5      8      6      7      9 ;   180.00   1.92464   1 ;     C5-    O2-    C6-    O1
     5      8      6     22      9 ;     0.00   1.60387   3 ;     C5-    O2-    C6-   H14
     6      7      4     18      9 ;     0.00   1.41001   3 ;     C6-    O1-    C4-   H10
     6      7      4     19      9 ;     0.00   1.41001   3 ;     C6-    O1-    C4-   H11
     6      8      5     20      9 ;     0.00   1.41001   3 ;     C6-    O2-    C5-   H12
     6      8      5     21      9 ;     0.00   1.41001   3 ;     C6-    O2-    C5-   H13
     7      6      3     15      9 ;     0.00   0.00000   0 ;     O1-    C6-    C3-    H7
     7      6      3     15      9 ;     0.00   1.04600   1 ;     O1-    C6-    C3-    H7
     7      6      3     16      9 ;     0.00   0.00000   0 ;     O1-    C6-    C3-    H8
     7      6      3     16      9 ;     0.00   1.04600   1 ;     O1-    C6-    C3-    H8
     7      6      3     17      9 ;     0.00   0.00000   0 ;     O1-    C6-    C3-    H9
     7      6      3     17      9 ;     0.00   1.04600   1 ;     O1-    C6-    C3-    H9
     8      5      2     12      9 ;     0.00   0.00000   0 ;     O2-    C5-    C2-    H4
     8      5      2     12      9 ;     0.00   1.04600   1 ;     O2-    C5-    C2-    H4
     8      5      2     13      9 ;     0.00   0.00000   0 ;     O2-    C5-    C2-    H5
     8      5      2     13      9 ;     0.00   1.04600   1 ;     O2-    C5-    C2-    H5
     8      5      2     14      9 ;     0.00   0.00000   0 ;     O2-    C5-    C2-    H6
     8      5      2     14      9 ;     0.00   1.04600   1 ;     O2-    C5-    C2-    H6
     8      6      3     15      9 ;     0.00   0.00000   0 ;     O2-    C6-    C3-    H7
     8      6      3     15      9 ;     0.00   1.04600   1 ;     O2-    C6-    C3-    H7
     8      6      3     16      9 ;     0.00   0.00000   0 ;     O2-    C6-    C3-    H8
     8      6      3     16      9 ;     0.00   1.04600   1 ;     O2-    C6-    C3-    H8
     8      6      3     17      9 ;     0.00   0.00000   0 ;     O2-    C6-    C3-    H9
     8      6      3     17      9 ;     0.00   1.04600   1 ;     O2-    C6-    C3-    H9
     9      1      4      7      9 ;     0.00   0.00000   0 ;     H1-    C1-    C4-    O1
     9      1      4      7      9 ;     0.00   1.04600   1 ;     H1-    C1-    C4-    O1
     9      1      4     18      9 ;     0.00   0.65084   3 ;     H1-    C1-    C4-   H10
     9      1      4     19      9 ;     0.00   0.65084   3 ;     H1-    C1-    C4-   H11
    10      1      4      7      9 ;     0.00   0.00000   0 ;     H2-    C1-    C4-    O1
    10      1      4      7      9 ;     0.00   1.04600   1 ;     H2-    C1-    C4-    O1
    10      1      4     18      9 ;     0.00   0.65084   3 ;     H2-    C1-    C4-   H10
    10      1      4     19      9 ;     0.00   0.65084   3 ;     H2-    C1-    C4-   H11
    11      1      4      7      9 ;     0.00   0.00000   0 ;     H3-    C1-    C4-    O1
    11      1      4      7      9 ;     0.00   1.04600   1 ;     H3-    C1-    C4-    O1
    11      1      4     18      9 ;     0.00   0.65084   3 ;     H3-    C1-    C4-   H10
    11      1      4     19      9 ;     0.00   0.65084   3 ;     H3-    C1-    C4-   H11
    12      2      5     20      9 ;     0.00   0.65084   3 ;     H4-    C2-    C5-   H12
    12      2      5     21      9 ;     0.00   0.65084   3 ;     H4-    C2-    C5-   H13
    13      2      5     20      9 ;     0.00   0.65084   3 ;     H5-    C2-    C5-   H12
    13      2      5     21      9 ;     0.00   0.65084   3 ;     H5-    C2-    C5-   H13
    14      2      5     20      9 ;     0.00   0.65084   3 ;     H6-    C2-    C5-   H12
    14      2      5     21      9 ;     0.00   0.65084   3 ;     H6-    C2-    C5-   H13
    15      3      6     22      9 ;     0.00   0.65084   3 ;     H7-    C3-    C6-   H14
    16      3      6     22      9 ;     0.00   0.65084   3 ;     H8-    C3-    C6-   H14
    17      3      6     22      9 ;     0.00   0.65084   3 ;     H9-    C3-    C6-   H14
