; mobley_3686115_GMX_OPLS.top created by acpype (v: 2023.10.27) on Wed May 20 23:41:28 2026

; Include forcefield parameters
#include "ffoplsaa.itp"

; Include mobley_3686115_GMX.itp topology
#include "mobley_3686115_GMX.itp"

; Ligand position restraints
#ifdef POSRES_LIG
#include "posre_mobley_3686115.itp"
#endif

[ system ]
 mobley_3686115

[ molecules ]
; Compound        nmols
 mobley_3686115   1     
