%VERSION  VERSION_STAMP = V0001.000  DATE = 05/20/26  23:41:31                  
%FLAG TITLE                                                                     
%FORMAT(20a4)                                                                   
detet.xyz                                                                       
%FLAG POINTERS                                                                  
%FORMAT(10I8)                                                                   
      22       5      14       7      31       7      45      18       0       0
     101       1       7       7      18       5      10      11       5       0
       0       0       0       0       0       0       0       0      22       0
       0
%FLAG ATOM_NAME                                                                 
%FORMAT(20a4)                                                                   
C1  C2  C3  C4  C5  C6  O1  O2  H1  H2  H3  H4  H5  H6  H7  H8  H9  H10 H11 H12 
H13 H14 
%FLAG CHARGE                                                                    
%FORMAT(5E16.8)                                                                 
 -1.75116303E+00 -1.75116303E+00 -2.13383133E+00  2.40352137E+00  2.40352137E+00
  6.02975907E+00 -8.25652413E+00 -8.25652413E+00  7.87203360E-01  7.87203360E-01
  7.87203360E-01  7.87203360E-01  7.87203360E-01  7.87203360E-01  9.72469484E-01
  9.72469484E-01  9.72469484E-01  6.09535935E-01  6.09535935E-01  6.09535935E-01
  6.09535935E-01  1.25187201E+00
%FLAG ATOMIC_NUMBER                                                             
%FORMAT(10I8)                                                                   
       6       6       6       6       6       6       8       8       1       1
       1       1       1       1       1       1       1       1       1       1
       1       1
%FLAG MASS                                                                      
%FORMAT(5E16.8)                                                                 
  1.20100000E+01  1.20100000E+01  1.20100000E+01  1.20100000E+01  1.20100000E+01
  1.20100000E+01  1.60000000E+01  1.60000000E+01  1.00800000E+00  1.00800000E+00
  1.00800000E+00  1.00800000E+00  1.00800000E+00  1.00800000E+00  1.00800000E+00
  1.00800000E+00  1.00800000E+00  1.00800000E+00  1.00800000E+00  1.00800000E+00
  1.00800000E+00  1.00800000E+00
%FLAG ATOM_TYPE_INDEX                                                           
%FORMAT(10I8)                                                                   
       1       1       1       1       1       1       2       2       3       3
       3       3       3       3       3       3       3       4       4       4
       4       5
%FLAG NUMBER_EXCLUDED_ATOMS                                                     
%FORMAT(10I8)                                                                   
       8       8       9       9       9      10      10       9       4       3
       2       4       3       2       3       2       1       1       1       1
       1       1
%FLAG NONBONDED_PARM_INDEX                                                      
%FORMAT(10I8)                                                                   
       1       2       4       7      11       2       3       5       8      12
       4       5       6       9      13       7       8       9      10      14
      11      12      13      14      15
%FLAG RESIDUE_LABEL                                                             
%FORMAT(20a4)                                                                   
MOL 
%FLAG RESIDUE_POINTER                                                           
%FORMAT(10I8)                                                                   
       1
%FLAG BOND_FORCE_CONSTANT                                                       
%FORMAT(5E16.8)                                                                 
  2.28890000E+02  3.45250000E+02  2.82270000E+02  3.44220000E+02  3.47020000E+02
%FLAG BOND_EQUIL_VALUE                                                          
%FORMAT(5E16.8)                                                                 
  1.53540000E+00  1.09620000E+00  1.42730000E+00  1.09690000E+00  1.09500000E+00
%FLAG ANGLE_FORCE_CONSTANT                                                      
%FORMAT(5E16.8)                                                                 
  7.74400000E+01  4.32800000E+01  4.31300000E+01  4.32700000E+01  8.83300000E+01
  5.62000000E+01  9.84400000E+01  5.60400000E+01  3.58000000E+01  3.56400000E+01
%FLAG ANGLE_EQUIL_VALUE                                                         
%FORMAT(5E16.8)                                                                 
  1.87832415E+00  1.91270715E+00  1.92719339E+00  1.91427794E+00  1.98269488E+00
  1.92579712E+00  1.88303654E+00  1.93783990E+00  1.88024401E+00  1.89455572E+00
%FLAG DIHEDRAL_FORCE_CONSTANT                                                   
%FORMAT(5E16.8)                                                                 
  8.80000000E-01  8.00000000E-02  7.50000000E-01  4.60000000E-01  8.50000000E-01
  8.50000000E-01  3.83333333E-01  3.37000000E-01  2.50000000E-01  0.00000000E+00
  1.55555556E-01
%FLAG DIHEDRAL_PERIODICITY                                                      
%FORMAT(5E16.8)                                                                 
  1.00000000E+00  2.00000000E+00  3.00000000E+00  1.00000000E+00  2.00000000E+00
  3.00000000E+00  3.00000000E+00  3.00000000E+00  1.00000000E+00  3.00000000E+00
  3.00000000E+00
%FLAG DIHEDRAL_PHASE                                                            
%FORMAT(5E16.8)                                                                 
  3.14159400E+00  0.00000000E+00  0.00000000E+00  3.14159400E+00  0.00000000E+00
  0.00000000E+00  0.00000000E+00  0.00000000E+00  0.00000000E+00  0.00000000E+00
  0.00000000E+00
%FLAG SCEE_SCALE_FACTOR                                                         
%FORMAT(5E16.8)                                                                 
  1.20000000E+00  1.20000000E+00  1.20000000E+00  1.20000000E+00  1.20000000E+00
  1.20000000E+00  1.20000000E+00  1.20000000E+00  1.20000000E+00  1.20000000E+00
  1.20000000E+00
%FLAG SCNB_SCALE_FACTOR                                                         
%FORMAT(5E16.8)                                                                 
  2.00000000E+00  2.00000000E+00  2.00000000E+00  2.00000000E+00  2.00000000E+00
  2.00000000E+00  2.00000000E+00  2.00000000E+00  2.00000000E+00  2.00000000E+00
  2.00000000E+00
%FLAG SOLTY                                                                     
%FORMAT(5E16.8)                                                                 
  0.00000000E+00  0.00000000E+00  0.00000000E+00  0.00000000E+00  0.00000000E+00
%FLAG LENNARD_JONES_ACOEF                                                       
%FORMAT(5E16.8)                                                                 
  1.02073671E+06  5.42502534E+05  2.83662575E+05  1.00235148E+05  5.02224902E+04
  7.94617769E+03  6.97998263E+04  3.44374471E+04  5.22955465E+03  3.39005767E+03
  4.80619274E+04  2.33261683E+04  3.39005767E+03  2.16218723E+03  1.35510742E+03
%FLAG LENNARD_JONES_BCOEF                                                       
%FORMAT(5E16.8)                                                                 
  6.63431737E+02  4.38146883E+02  2.87011518E+02  1.37787728E+02  8.83545880E+01
  2.57122925E+01  1.14981426E+02  7.31636661E+01  2.08590256E+01  1.67944276E+01
  9.54115851E+01  6.02145835E+01  1.67944276E+01  1.34124560E+01  1.06181419E+01
%FLAG BONDS_INC_HYDROGEN                                                        
%FORMAT(10I8)                                                                   
       0      24       2       0      27       2       0      30       2       3
      33       2       3      36       2       3      39       2       6      42
       2       6      45       2       6      48       2       9      51       4
       9      54       4      12      57       4      12      60       4      15
      63       5
%FLAG BONDS_WITHOUT_HYDROGEN                                                    
%FORMAT(10I8)                                                                   
       0       9       1       3      12       1       6      15       1       9
      18       3      12      21       3      15      18       3      15      21
       3
%FLAG ANGLES_INC_HYDROGEN                                                       
%FORMAT(10I8)                                                                   
       0       9      51       2       0       9      54       2       3      12
      57       2       3      12      60       2       6      15      63       3
       9       0      24       4       9       0      27       4       9       0
      30       4      12       3      33       4      12       3      36       4
      12       3      39       4      15       6      42       4      15       6
      45       4      15       6      48       4      18       9      51       6
      18       9      54       6      18      15      63       8      21      12
      57       6      21      12      60       6      21      15      63       8
      24       0      27       9      24       0      30       9      27       0
      30       9      33       3      36       9      33       3      39       9
      36       3      39       9      42       6      45       9      42       6
      48       9      45       6      48       9      51       9      54      10
      57      12      60      10
%FLAG ANGLES_WITHOUT_HYDROGEN                                                   
%FORMAT(10I8)                                                                   
       0       9      18       1       3      12      21       1       6      15
      18       1       6      15      21       1       9      18      15       5
      12      21      15       5      18      15      21       7
%FLAG DIHEDRALS_INC_HYDROGEN                                                    
%FORMAT(10I8)                                                                   
       9      18      15      63       7      12      21      15      63       7
      15      18       9      51       8      15      18       9      54       8
      15      21      12      57       8      15      21      12      60       8
      24       0       9      18       9      24       0      -9      18      10
      27       0       9      18       9      27       0      -9      18      10
      30       0       9      18       9      30       0      -9      18      10
      18      15       6      42       9      18      15      -6      42      10
      18      15       6      45       9      18      15      -6      45      10
      18      15       6      48       9      18      15      -6      48      10
      21      12       3      33       9      21      12      -3      33      10
      21      12       3      36       9      21      12      -3      36      10
      21      12       3      39       9      21      12      -3      39      10
      21      15       6      42       9      21      15      -6      42      10
      21      15       6      45       9      21      15      -6      45      10
      21      15       6      48       9      21      15      -6      48      10
      24       0       9      51      11      24       0       9      54      11
      27       0       9      51      11      27       0       9      54      11
      30       0       9      51      11      30       0       9      54      11
      33       3      12      57      11      33       3      12      60      11
      36       3      12      57      11      36       3      12      60      11
      39       3      12      57      11      39       3      12      60      11
      42       6      15      63      11      45       6      15      63      11
      48       6      15      63      11
%FLAG DIHEDRALS_WITHOUT_HYDROGEN                                                
%FORMAT(10I8)                                                                   
       0       9      18      15       1       0       9     -18      15       2
       0       9     -18      15       3       3      12      21      15       1
       3      12     -21      15       2       3      12     -21      15       3
       6      15      18       9       1       6      15     -18       9       2
       6      15     -18       9       3       6      15      21      12       1
       6      15     -21      12       2       6      15     -21      12       3
       9      18      15      21       4       9      18     -15      21       5
       9      18     -15      21       6      12      21      15      18       4
      12      21     -15      18       5      12      21     -15      18       6
%FLAG EXCLUDED_ATOMS_LIST                                                       
%FORMAT(10I8)                                                                   
       4       6       7       9      10      11      18      19       5       6
       8      12      13      14      20      21       4       5       6       7
       8      15      16      17      22       6       7       8       9      10
      11      18      19      22       6       7       8      12      13      14
      20      21      22       7       8      15      16      17      18      19
      20      21      22       8       9      10      11      15      16      17
      18      19      22      12      13      14      15      16      17      20
      21      22      10      11      18      19      11      18      19      18
      19      13      14      20      21      14      20      21      20      21
      16      17      22      17      22      22      19       0      21       0
       0
%FLAG HBOND_ACOEF                                                               
%FORMAT(5E16.8)                                                                 

%FLAG HBOND_BCOEF                                                               
%FORMAT(5E16.8)                                                                 

%FLAG HBCUT                                                                     
%FORMAT(5E16.8)                                                                 

%FLAG AMBER_ATOM_TYPE                                                           
%FORMAT(20a4)                                                                   
c3  c3  c3  c3  c3  c3  os  os  hc  hc  hc  hc  hc  hc  hc  hc  hc  h1  h1  h1  
h1  h2  
%FLAG TREE_CHAIN_CLASSIFICATION                                                 
%FORMAT(20a4)                                                                   
BLA BLA BLA BLA BLA BLA BLA BLA BLA BLA BLA BLA BLA BLA BLA BLA BLA BLA BLA BLA 
BLA BLA 
%FLAG JOIN_ARRAY                                                                
%FORMAT(10I8)                                                                   
       0       0       0       0       0       0       0       0       0       0
       0       0       0       0       0       0       0       0       0       0
       0       0
%FLAG IROTAT                                                                    
%FORMAT(10I8)                                                                   
       0       0       0       0       0       0       0       0       0       0
       0       0       0       0       0       0       0       0       0       0
       0       0
%FLAG RADIUS_SET                                                                
%FORMAT(1a80)                                                                   
modified Bondi radii (mbondi)                                                   
%FLAG RADII                                                                     
%FORMAT(5E16.8)                                                                 
  1.70000000E+00  1.70000000E+00  1.70000000E+00  1.70000000E+00  1.70000000E+00
  1.70000000E+00  1.50000000E+00  1.50000000E+00  1.30000000E+00  1.30000000E+00
  1.30000000E+00  1.30000000E+00  1.30000000E+00  1.30000000E+00  1.30000000E+00
  1.30000000E+00  1.30000000E+00  1.30000000E+00  1.30000000E+00  1.30000000E+00
  1.30000000E+00  1.30000000E+00
%FLAG SCREEN                                                                    
%FORMAT(5E16.8)                                                                 
  7.20000000E-01  7.20000000E-01  7.20000000E-01  7.20000000E-01  7.20000000E-01
  7.20000000E-01  8.50000000E-01  8.50000000E-01  8.50000000E-01  8.50000000E-01
  8.50000000E-01  8.50000000E-01  8.50000000E-01  8.50000000E-01  8.50000000E-01
  8.50000000E-01  8.50000000E-01  8.50000000E-01  8.50000000E-01  8.50000000E-01
  8.50000000E-01  8.50000000E-01
%FLAG IPOL                                                                      
%FORMAT(1I8)                                                                    
       0
