mobley_2517158_GMX.gro created by acpype (v: 2023.10.27) on Wed May 20 23:50:20 2026
12173
    1MOL     C1    1   2.134   2.552   2.594
    1MOL     C2    2   2.282   2.568   2.626
    1MOL     C3    3   2.370   2.511   2.515
    1MOL     C4    4   2.518   2.524   2.549
    1MOL     C5    5   2.606   2.470   2.436
    1MOL     C6    6   2.756   2.480   2.465
    1MOL     C7    7   2.842   2.423   2.354
    1MOL    BR1    8   3.030   2.434   2.405
    1MOL     H1    9   2.073   2.594   2.675
    1MOL     H2   10   2.108   2.605   2.501
    1MOL     H3   11   2.108   2.447   2.582
    1MOL     H4   12   2.304   2.518   2.721
    1MOL     H5   13   2.304   2.675   2.640
    1MOL     H6   14   2.349   2.563   2.421
    1MOL     H7   15   2.345   2.405   2.499
    1MOL     H8   16   2.539   2.470   2.642
    1MOL     H9   17   2.542   2.630   2.567
    1MOL    H10   18   2.585   2.527   2.344
    1MOL    H11   19   2.580   2.366   2.415
    1MOL    H12   20   2.781   2.586   2.481
    1MOL    H13   21   2.778   2.429   2.560
    1MOL    H14   22   2.822   2.317   2.335
    1MOL    H15   23   2.832   2.479   2.261
    2SOL     OW   24   0.230   0.628   0.113
    2SOL    HW1   25   0.137   0.626   0.150
    2SOL    HW2   26   0.231   0.589   0.021
    3SOL     OW   27   0.225   0.275   0.996
    3SOL    HW1   28   0.260   0.258   1.088
    3SOL    HW2   29   0.137   0.230   0.984
    4SOL     OW   30   0.019   0.368   0.647
    4SOL    HW1   31  -0.063   0.411   0.686
    4SOL    HW2   32  -0.009   0.295   0.584
    5SOL     OW   33   0.569   1.275   1.165
    5SOL    HW1   34   0.476   1.268   1.128
    5SOL    HW2   35   0.580   1.364   1.209
    6SOL     OW   36   1.555   1.511   0.703
    6SOL    HW1   37   1.498   1.495   0.784
    6SOL    HW2   38   1.496   1.521   0.623
    7SOL     OW   39   1.135   0.703   0.717
    7SOL    HW1   40   1.192   0.781   0.692
    7SOL    HW2   41   1.075   0.729   0.793
    8SOL     OW   42   1.755   0.607   0.231
    8SOL    HW1   43   1.743   0.594   0.132
    8SOL    HW2   44   1.725   0.526   0.280
    9SOL     OW   45   0.768   1.144   1.023
    9SOL    HW1   46   0.690   1.161   1.083
    9SOL    HW2   47   0.802   1.231   0.987
   10SOL     OW   48   0.850   0.798   1.823
   10SOL    HW1   49   0.846   0.874   1.888
   10SOL    HW2   50   0.872   0.834   1.732
   11SOL     OW   51   0.685   1.012   0.665
   11SOL    HW1   52   0.754   0.996   0.735
   11SOL    HW2   53   0.612   1.069   0.703
   12SOL     OW   54   0.686   1.161   1.803
   12SOL    HW1   55   0.746   1.240   1.817
   12SOL    HW2   56   0.600   1.192   1.762
   13SOL     OW   57   0.335   1.435   1.061
   13SOL    HW1   58   0.257   1.404   1.008
   13SOL    HW2   59   0.393   1.493   1.004
   14SOL     OW   60   1.460   1.505   1.339
   14SOL    HW1   61   1.484   1.599   1.365
   14SOL    HW2   62   1.444   1.451   1.421
   15SOL     OW   63   0.438   0.392   1.499
   15SOL    HW1   64   0.520   0.336   1.508
   15SOL    HW2   65   0.357   0.334   1.503
   16SOL     OW   66   1.603   0.447   0.737
   16SOL    HW1   67   1.529   0.493   0.687
   16SOL    HW2   68   1.654   0.515   0.790
   17SOL     OW   69   0.231   1.713   0.483
   17SOL    HW1   70   0.265   1.790   0.537
   17SOL    HW2   71   0.275   1.713   0.393
   18SOL     OW   72   1.127   1.341   1.690
   18SOL    HW1   73   1.174   1.341   1.778
   18SOL    HW2   74   1.079   1.254   1.679
   19SOL     OW   75   0.230   1.434   0.538
   19SOL    HW1   76   0.204   1.530   0.538
   19SOL    HW2   77   0.159   1.380   0.583
   20SOL     OW   78   0.240   1.091   0.886
   20SOL    HW1   79   0.254   1.007   0.938
   20SOL    HW2   80   0.185   1.155   0.941
   21SOL     OW   81   0.620   1.786   1.439
   21SOL    HW1   82   0.528   1.769   1.474
   21SOL    HW2   83   0.648   1.878   1.465
   22SOL     OW   84   0.606   0.964   0.123
   22SOL    HW1   85   0.613   1.048   0.069
   22SOL    HW2   86   0.652   0.977   0.211
   23SOL     OW   87   1.594   0.114   1.480
   23SOL    HW1   88   1.576   0.181   1.408
   23SOL    HW2   89   1.591   0.160   1.569
   24SOL     OW   90   0.122   0.643   0.563
   24SOL    HW1   91   0.077   0.555   0.580
   24SOL    HW2   92   0.121   0.697   0.647
   25SOL     OW   93   1.842   1.767   0.359
   25SOL    HW1   94   1.896   1.738   0.439
   25SOL    HW2   95   1.872   1.857   0.330
   26SOL     OW   96   0.027   1.596   0.117
   26SOL    HW1   97   0.008   1.500   0.138
   26SOL    HW2   98  -0.006   1.654   0.192
   27SOL     OW   99   1.689   0.922   0.612
   27SOL    HW1  100   1.784   0.893   0.620
   27SOL    HW2  101   1.681   0.987   0.537
   28SOL     OW  102   1.641   1.108   0.432
   28SOL    HW1  103   1.727   1.110   0.380
   28SOL    HW2  104   1.655   1.155   0.520
   29SOL     OW  105   0.113   0.737   1.597
   29SOL    HW1  106   0.201   0.724   1.642
   29SOL    HW2  107   0.100   0.834   1.575
   30SOL     OW  108   0.613   1.365   0.726
   30SOL    HW1  109   0.564   1.278   0.735
   30SOL    HW2  110   0.590   1.408   0.639
   31SOL     OW  111   1.293   1.228   1.423
   31SOL    HW1  112   1.330   1.155   1.365
   31SOL    HW2  113   1.345   1.233   1.508
   32SOL     OW  114   0.809   0.004   0.502
   32SOL    HW1  115   0.849   0.095   0.493
   32SOL    HW2  116   0.709   0.012   0.508
   33SOL     OW  117   0.197   0.976   1.264
   33SOL    HW1  118   0.286   0.931   1.250
   33SOL    HW2  119   0.124   0.911   1.245
   34SOL     OW  120   1.525   0.999   0.190
   34SOL    HW1  121   1.462   0.923   0.203
   34SOL    HW2  122   1.573   1.017   0.276
   35SOL     OW  123   1.187   1.792   1.616
   35SOL    HW1  124   1.211   1.852   1.540
   35SOL    HW2  125   1.194   1.697   1.586
   36SOL     OW  126   0.317   0.251   1.801
   36SOL    HW1  127   0.388   0.322   1.807
   36SOL    HW2  128   0.229   0.290   1.829
   37SOL     OW  129   1.466   1.417   0.953
   37SOL    HW1  130   1.407   1.423   1.033
   37SOL    HW2  131   1.451   1.329   0.907
   38SOL     OW  132   1.667   1.714   0.572
   38SOL    HW1  133   1.626   1.691   0.484
   38SOL    HW2  134   1.649   1.640   0.637
   39SOL     OW  135   0.598   0.729   0.270
   39SOL    HW1  136   0.622   0.798   0.202
   39SOL    HW2  137   0.520   0.762   0.324
   40SOL     OW  138   1.281   0.345   0.944
   40SOL    HW1  139   1.195   0.295   0.931
   40SOL    HW2  140   1.343   0.291   1.000
   41SOL     OW  141   1.576   1.662   0.307
   41SOL    HW1  142   1.665   1.708   0.310
   41SOL    HW2  143   1.555   1.638   0.212
   42SOL     OW  144   0.807   0.605   1.465
   42SOL    HW1  145   0.760   0.602   1.554
   42SOL    HW2  146   0.756   0.550   1.399
   43SOL     OW  147   1.394   0.469   1.674
   43SOL    HW1  148   1.374   0.512   1.762
   43SOL    HW2  149   1.472   0.407   1.683
   44SOL     OW  150   0.973   0.890   1.572
   44SOL    HW1  151   1.019   0.806   1.543
   44SOL    HW2  152   0.917   0.924   1.497
   45SOL     OW  153   0.991   0.410   1.242
   45SOL    HW1  154   0.914   0.444   1.296
   45SOL    HW2  155   0.957   0.359   1.163
   46SOL     OW  156   1.041   0.701   0.429
   46SOL    HW1  157   1.067   0.697   0.525
   46SOL    HW2  158   0.956   0.650   0.415
   47SOL     OW  159   0.076   0.811   0.789
   47SOL    HW1  160   0.175   0.799   0.798
   47SOL    HW2  161   0.052   0.906   0.810
   48SOL     OW  162   0.130   1.821   1.571
   48SOL    HW1  163   0.120   1.806   1.670
   48SOL    HW2  164   0.044   1.857   1.535
   49SOL     OW  165   0.865   0.348   0.195
   49SOL    HW1  166   0.924   0.411   0.146
   49SOL    HW2  167   0.884   0.254   0.166
   50SOL     OW  168   1.719   0.585   1.831
   50SOL    HW1  169   1.693   0.674   1.795
   50SOL    HW2  170   1.717   0.517   1.758
   51SOL     OW  171   1.362   1.144   0.545
   51SOL    HW1  172   1.445   1.115   0.497
   51SOL    HW2  173   1.313   1.211   0.489
   52SOL     OW  174   0.550   0.196   0.885
   52SOL    HW1  175   0.545   0.191   0.985
   52SOL    HW2  176   0.552   0.292   0.856
   53SOL     OW  177   1.008   1.456   0.477
   53SOL    HW1  178   0.962   1.528   0.425
   53SOL    HW2  179   1.004   1.476   0.575
   54SOL     OW  180   0.351   1.801   0.853
   54SOL    HW1  181   0.401   1.715   0.859
   54SOL    HW2  182   0.416   1.878   0.850
   55SOL     OW  183   1.795   1.066   0.873
   55SOL    HW1  184   1.733   1.051   0.797
   55SOL    HW2  185   1.743   1.077   0.958
   56SOL     OW  186   1.227   1.550   1.506
   56SOL    HW1  187   1.233   1.473   1.570
   56SOL    HW2  188   1.175   1.524   1.426
   57SOL     OW  189   0.321   0.943   0.242
   57SOL    HW1  190   0.403   0.982   0.200
   57SOL    HW2  191   0.294   0.861   0.193
   58SOL     OW  192   1.458   0.735   0.728
   58SOL    HW1  193   1.453   0.670   0.803
   58SOL    HW2  194   1.538   0.794   0.741
   59SOL     OW  195   0.461   1.266   1.727
   59SOL    HW1  196   0.411   1.267   1.641
   59SOL    HW2  197   0.398   1.248   1.803
   60SOL     OW  198   1.111   1.776   0.237
   60SOL    HW1  199   1.051   1.714   0.287
   60SOL    HW2  200   1.142   1.732   0.152
   61SOL     OW  201   0.202   0.285   1.498
   61SOL    HW1  202   0.122   0.345   1.485
   61SOL    HW2  203   0.192   0.236   1.584
   62SOL     OW  204   1.632   1.377   0.081
   62SOL    HW1  205   1.600   1.471   0.071
   62SOL    HW2  206   1.556   1.314   0.069
   63SOL     OW  207   0.464   1.743   0.323
   63SOL    HW1  208   0.497   1.782   0.409
   63SOL    HW2  209   0.540   1.736   0.258
   64SOL     OW  210   1.400   0.107   0.426
   64SOL    HW1  211   1.376   0.070   0.336
   64SOL    HW2  212   1.499   0.123   0.430
   65SOL     OW  213   0.249   1.785   1.241
   65SOL    HW1  214   0.306   1.720   1.291
   65SOL    HW2  215   0.233   1.752   1.148
   66SOL     OW  216   0.940   1.698   0.904
   66SOL    HW1  217   1.020   1.641   0.925
   66SOL    HW2  218   0.891   1.658   0.827
   67SOL     OW  219   0.382   0.700   0.480
   67SOL    HW1  220   0.427   0.610   0.477
   67SOL    HW2  221   0.288   0.689   0.513
   68SOL     OW  222   1.547   0.222   1.729
   68SOL    HW1  223   1.542   0.259   1.821
   68SOL    HW2  224   1.475   0.153   1.717
   69SOL     OW  225   0.614   0.122   0.117
   69SOL    HW1  226   0.712   0.100   0.124
   69SOL    HW2  227   0.583   0.105   0.024
   70SOL     OW  228   0.781   0.264   1.749
   70SOL    HW1  229   0.848   0.203   1.792
   70SOL    HW2  230   0.708   0.283   1.814
   71SOL     OW  231   0.888   1.514   1.195
   71SOL    HW1  232   0.865   1.489   1.101
   71SOL    HW2  233   0.949   1.445   1.234
   72SOL     OW  234   1.351   0.590   1.433
   72SOL    HW1  235   1.379   0.547   1.518
   72SOL    HW2  236   1.376   0.686   1.434
   73SOL     OW  237   0.803   1.402   0.924
   73SOL    HW1  238   0.893   1.416   0.882
   73SOL    HW2  239   0.732   1.404   0.853
   74SOL     OW  240   0.922   0.503   0.899
   74SOL    HW1  241   0.897   0.494   0.803
   74SOL    HW2  242   0.970   0.421   0.930
   75SOL     OW  243   0.539   0.064   0.512
   75SOL    HW1  244   0.458   0.065   0.570
   75SOL    HW2  245   0.542   0.147   0.457
   76SOL     OW  246   1.434   1.188   0.041
   76SOL    HW1  247   1.466   1.112   0.098
   76SOL    HW2  248   1.342   1.215   0.071
   77SOL     OW  249   0.297   0.035   0.171
   77SOL    HW1  250   0.346   0.119   0.150
   77SOL    HW2  251   0.359  -0.030   0.216
   78SOL     OW  252   0.935   0.236   0.480
   78SOL    HW1  253   0.887   0.277   0.402
   78SOL    HW2  254   1.034   0.234   0.461
   79SOL     OW  255   1.076   0.683   1.464
   79SOL    HW1  256   0.996   0.622   1.467
   79SOL    HW2  257   1.157   0.630   1.440
   80SOL     OW  258   1.227   1.570   0.793
   80SOL    HW1  259   1.248   1.644   0.728
   80SOL    HW2  260   1.295   1.570   0.866
   81SOL     OW  261   0.459   1.152   0.741
   81SOL    HW1  262   0.388   1.125   0.806
   81SOL    HW2  263   0.433   1.124   0.648
   82SOL     OW  264   1.271   1.797   0.591
   82SOL    HW1  265   1.315   1.861   0.527
   82SOL    HW2  266   1.221   1.849   0.661
   83SOL     OW  267   1.032   0.549   0.016
   83SOL    HW1  268   0.991   0.631  -0.023
   83SOL    HW2  269   1.096   0.575   0.089
   84SOL     OW  270   0.078   0.556   1.386
   84SOL    HW1  271   0.170   0.555   1.345
   84SOL    HW2  272   0.072   0.630   1.453
   85SOL     OW  273   0.561   0.222   1.147
   85SOL    HW1  274   0.599   0.138   1.184
   85SOL    HW2  275   0.473   0.241   1.191
   86SOL     OW  276   0.866   0.454   0.642
   86SOL    HW1  277   0.834   0.526   0.580
   86SOL    HW2  278   0.890   0.373   0.589
   87SOL     OW  279   1.017   0.039   0.753
   87SOL    HW1  280   0.945   0.044   0.684
   87SOL    HW2  281   0.993  -0.030   0.822
   88SOL     OW  282   1.429   1.173   0.867
   88SOL    HW1  283   1.374   1.089   0.860
   88SOL    HW2  284   1.455   1.202   0.775
   89SOL     OW  285   1.466   0.590   0.992
   89SOL    HW1  286   1.436   0.495   0.999
   89SOL    HW2  287   1.539   0.606   1.058
   90SOL     OW  288   1.857   0.833   0.377
   90SOL    HW1  289   1.899   0.769   0.441
   90SOL    HW2  290   1.819   0.782   0.299
   91SOL     OW  291   0.488   1.385   0.174
   91SOL    HW1  292   0.401   1.370   0.221
   91SOL    HW2  293   0.471   1.411   0.079
   92SOL     OW  294   1.664   1.280   0.657
   92SOL    HW1  295   1.763   1.288   0.671
   92SOL    HW2  296   1.619   1.364   0.688
   93SOL     OW  297   1.390   0.575   0.078
   93SOL    HW1  298   1.336   0.554   0.159
   93SOL    HW2  299   1.481   0.534   0.087
   94SOL     OW  300   0.527   0.256   0.328
   94SOL    HW1  301   0.554   0.197   0.253
   94SOL    HW2  302   0.527   0.351   0.297
   95SOL     OW  303   1.754   1.223   1.588
   95SOL    HW1  304   1.845   1.184   1.575
   95SOL    HW2  305   1.762   1.319   1.612
   96SOL     OW  306   1.064   1.347   1.340
   96SOL    HW1  307   0.984   1.324   1.395
   96SOL    HW2  308   1.147   1.321   1.389
   97SOL     OW  309   1.592   1.629   1.625
   97SOL    HW1  310   1.619   1.663   1.535
   97SOL    HW2  311   1.671   1.591   1.671
   98SOL     OW  312   1.111   1.195   1.100
   98SOL    HW1  313   1.071   1.239   1.181
   98SOL    HW2  314   1.070   1.232   1.017
   99SOL     OW  315   1.638   1.099   1.079
   99SOL    HW1  316   1.643   1.180   1.138
   99SOL    HW2  317   1.552   1.101   1.028
  100SOL     OW  318   0.915   0.089   1.402
  100SOL    HW1  319   0.940   0.069   1.307
  100SOL    HW2  320   0.987   0.145   1.444
  101SOL     OW  321   0.980   1.116   1.719
  101SOL    HW1  322   0.881   1.122   1.729
  101SOL    HW2  323   1.003   1.036   1.663
  102SOL     OW  324   0.705   1.050   0.368
  102SOL    HW1  325   0.691   1.057   0.467
  102SOL    HW2  326   0.789   0.999   0.350
  103SOL     OW  327   0.410   0.813   1.251
  103SOL    HW1  328   0.496   0.825   1.301
  103SOL    HW2  329   0.368   0.726   1.278
  104SOL     OW  330   1.274   0.386   1.262
  104SOL    HW1  331   1.295   0.460   1.326
  104SOL    HW2  332   1.185   0.403   1.219
  105SOL     OW  333   0.064   1.564   1.331
  105SOL    HW1  334   0.018   1.646   1.297
  105SOL    HW2  335   0.162   1.583   1.340
  106SOL     OW  336   0.367   1.100   0.501
  106SOL    HW1  337   0.360   1.183   0.445
  106SOL    HW2  338   0.371   1.020   0.441
  107SOL     OW  339   0.566   0.537   0.865
  107SOL    HW1  340   0.578   0.603   0.791
  107SOL    HW2  341   0.612   0.571   0.948
  108SOL     OW  342   1.252   1.348   0.388
  108SOL    HW1  343   1.302   1.425   0.428
  108SOL    HW2  344   1.157   1.350   0.420
  109SOL     OW  345   1.272   1.445   1.142
  109SOL    HW1  346   1.319   1.458   1.229
  109SOL    HW2  347   1.206   1.371   1.151
  110SOL     OW  348   1.582   0.639   0.472
  110SOL    HW1  349   1.551   0.700   0.545
  110SOL    HW2  350   1.632   0.691   0.403
  111SOL     OW  351   0.354   1.510   1.329
  111SOL    HW1  352   0.333   1.466   1.242
  111SOL    HW2  353   0.451   1.536   1.332
  112SOL     OW  354   0.402   0.751   1.598
  112SOL    HW1  355   0.470   0.806   1.551
  112SOL    HW2  356   0.442   0.663   1.625
  113SOL     OW  357   1.587   0.779   1.670
  113SOL    HW1  358   1.495   0.817   1.665
  113SOL    HW2  359   1.647   0.826   1.605
  114SOL     OW  360   1.013   0.105   1.770
  114SOL    HW1  361   1.019   0.190   1.718
  114SOL    HW2  362   1.045   0.029   1.713
  115SOL     OW  363   0.504   0.050   1.740
  115SOL    HW1  364   0.462  -0.007   1.670
  115SOL    HW2  365   0.438   0.119   1.772
  116SOL     OW  366   0.573   0.870   1.029
  116SOL    HW1  367   0.617   0.959   1.020
  116SOL    HW2  368   0.510   0.870   1.106
  117SOL     OW  369   1.360   0.862   1.045
  117SOL    HW1  370   1.285   0.862   0.979
  117SOL    HW2  371   1.397   0.770   1.054
  118SOL     OW  372   1.209   0.525   0.275
  118SOL    HW1  373   1.222   0.441   0.329
  118SOL    HW2  374   1.180   0.599   0.335
  119SOL     OW  375   0.307   0.213   1.231
  119SOL    HW1  376   0.284   0.250   1.321
  119SOL    HW2  377   0.277   0.118   1.225
  120SOL     OW  378   0.037   1.310   1.282
  120SOL    HW1  379   0.090   1.261   1.350
  120SOL    HW2  380   0.059   1.408   1.287
  121SOL     OW  381   0.732   0.634   1.064
  121SOL    HW1  382   0.791   0.608   0.988
  121SOL    HW2  383   0.704   0.730   1.053
  122SOL     OW  384   1.728   0.935   1.854
  122SOL    HW1  385   1.682   0.928   1.765
  122SOL    HW2  386   1.666   0.979   1.920
  123SOL     OW  387   0.307   0.063   0.618
  123SOL    HW1  388   0.296   0.157   0.651
  123SOL    HW2  389   0.302   0.000   0.695
  124SOL     OW  390   1.622   0.367   0.374
  124SOL    HW1  391   1.624   0.291   0.438
  124SOL    HW2  392   1.574   0.444   0.414
  125SOL     OW  393   1.023   0.766   0.966
  125SOL    HW1  394   1.038   0.787   1.062
  125SOL    HW2  395   0.993   0.671   0.957
  126SOL     OW  396   0.980   1.573   1.700
  126SOL    HW1  397   0.960   1.617   1.612
  126SOL    HW2  398   1.019   1.482   1.684
  127SOL     OW  399   1.859   1.518   1.605
  127SOL    HW1  400   1.873   1.545   1.510
  127SOL    HW2  401   1.942   1.540   1.658
  128SOL     OW  402   0.350   0.898   1.804
  128SOL    HW1  403   0.426   0.942   1.852
  128SOL    HW2  404   0.385   0.851   1.722
  129SOL     OW  405   1.540   0.274   0.125
  129SOL    HW1  406   1.479   0.199   0.148
  129SOL    HW2  407   1.562   0.326   0.208
  130SOL     OW  408   1.303   0.838   0.042
  130SOL    HW1  409   1.337   0.745   0.057
  130SOL    HW2  410   1.321   0.865  -0.053
  131SOL     OW  411   1.068   1.333   0.849
  131SOL    HW1  412   1.075   1.249   0.794
  131SOL    HW2  413   1.130   1.402   0.813
  132SOL     OW  414   0.319   0.810   0.949
  132SOL    HW1  415   0.412   0.846   0.954
  132SOL    HW2  416   0.313   0.725   1.001
  133SOL     OW  417   0.339   0.509   1.006
  133SOL    HW1  418   0.287   0.426   0.989
  133SOL    HW2  419   0.416   0.514   0.942
  134SOL     OW  420   1.138   0.380   1.678
  134SOL    HW1  421   1.093   0.443   1.742
  134SOL    HW2  422   1.231   0.411   1.661
  135SOL     OW  423   1.160   0.207   1.477
  135SOL    HW1  424   1.160   0.271   1.554
  135SOL    HW2  425   1.188   0.255   1.394
  136SOL     OW  426   0.008   1.326   0.200
  136SOL    HW1  427  -0.085   1.347   0.169
  136SOL    HW2  428   0.018   1.227   0.213
  137SOL     OW  429   0.088   1.801   0.927
  137SOL    HW1  430   0.046   1.715   0.900
  137SOL    HW2  431   0.182   1.804   0.893
  138SOL     OW  432   0.504   1.568   0.910
  138SOL    HW1  433   0.570   1.642   0.919
  138SOL    HW2  434   0.548   1.489   0.868
  139SOL     OW  435   1.002   0.796   1.238
  139SOL    HW1  436   1.043   0.764   1.324
  139SOL    HW2  437   0.906   0.769   1.235
  140SOL     OW  438   0.040   0.544   1.114
  140SOL    HW1  439   0.125   0.511   1.073
  140SOL    HW2  440   0.053   0.559   1.212
  141SOL     OW  441   0.189   0.520   1.722
  141SOL    HW1  442   0.248   0.480   1.652
  141SOL    HW2  443   0.131   0.591   1.681
  142SOL     OW  444   1.369   0.950   1.660
  142SOL    HW1  445   1.408   1.039   1.680
  142SOL    HW2  446   1.379   0.930   1.563
  143SOL     OW  447   0.815   0.572   0.325
  143SOL    HW1  448   0.822   0.483   0.279
  143SOL    HW2  449   0.721   0.606   0.317
  144SOL     OW  450   1.657   0.604   1.206
  144SOL    HW1  451   1.619   0.535   1.268
  144SOL    HW2  452   1.739   0.568   1.162
  145SOL     OW  453   0.252   1.564   1.744
  145SOL    HW1  454   0.222   1.621   1.820
  145SOL    HW2  455   0.245   1.467   1.770
  146SOL     OW  456   0.671   0.464   1.269
  146SOL    HW1  457   0.637   0.375   1.239
  146SOL    HW2  458   0.697   0.518   1.189
  147SOL     OW  459   0.930   1.678   1.465
  147SOL    HW1  460   0.906   1.660   1.370
  147SOL    HW2  461   0.960   1.772   1.475
  148SOL     OW  462   0.473   0.500   0.191
  148SOL    HW1  463   0.534   0.580   0.195
  148SOL    HW2  464   0.378   0.531   0.198
  149SOL     OW  465   0.159   1.137   1.466
  149SOL    HW1  466   0.181   1.076   1.542
  149SOL    HW2  467   0.169   1.088   1.380
  150SOL     OW  468   1.347   1.059   1.234
  150SOL    HW1  469   1.371   0.996   1.160
  150SOL    HW2  470   1.257   1.099   1.216
  151SOL     OW  471   1.302   0.855   0.309
  151SOL    HW1  472   1.216   0.824   0.351
  151SOL    HW2  473   1.298   0.841   0.210
  152SOL     OW  474   1.759   1.747   1.154
  152SOL    HW1  475   1.820   1.777   1.081
  152SOL    HW2  476   1.721   1.658   1.132
  153SOL     OW  477   1.252   1.731   1.128
  153SOL    HW1  478   1.336   1.736   1.074
  153SOL    HW2  479   1.229   1.635   1.146
  154SOL     OW  480   0.083   1.258   1.022
  154SOL    HW1  481   0.078   1.257   1.122
  154SOL    HW2  482   0.000   1.217   0.984
  155SOL     OW  483   0.688   1.662   1.716
  155SOL    HW1  484   0.632   1.743   1.725
  155SOL    HW2  485   0.740   1.666   1.630
  156SOL     OW  486   0.903   0.086   0.133
  156SOL    HW1  487   0.954   0.087   0.047
  156SOL    HW2  488   0.959   0.044   0.204
  157SOL     OW  489   1.726   0.135   0.523
  157SOL    HW1  490   1.799   0.118   0.456
  157SOL    HW2  491   1.695   0.048   0.561
  158SOL     OW  492   1.388   1.573   0.477
  158SOL    HW1  493   1.455   1.585   0.403
  158SOL    HW2  494   1.348   1.662   0.500
  159SOL     OW  495   0.130   1.794   1.851
  159SOL    HW1  496   0.089   1.720   1.904
  159SOL    HW2  497   0.194   1.845   1.909
  160SOL     OW  498   1.280   0.927   0.672
  160SOL    HW1  499   1.340   0.846   0.674
  160SOL    HW2  500   1.320   0.996   0.612
  161SOL     OW  501   0.830   1.273   1.422
  161SOL    HW1  502   0.825   1.306   1.517
  161SOL    HW2  503   0.744   1.292   1.376
  162SOL     OW  504   0.672   1.616   0.154
  162SOL    HW1  505   0.681   1.626   0.055
  162SOL    HW2  506   0.632   1.527   0.175
  163SOL     OW  507   1.650   1.720   1.394
  163SOL    HW1  508   1.703   1.730   1.310
  163SOL    HW2  509   1.623   1.810   1.428
  164SOL     OW  510   1.841   0.175   0.963
  164SOL    HW1  511   1.880   0.090   0.927
  164SOL    HW2  512   1.743   0.177   0.944
  165SOL     OW  513   0.263   0.326   0.720
  165SOL    HW1  514   0.184   0.377   0.686
  165SOL    HW2  515   0.254   0.311   0.818
  166SOL     OW  516   1.194   1.612   0.031
  166SOL    HW1  517   1.200   1.519   0.068
  166SOL    HW2  518   1.135   1.612  -0.049
  167SOL     OW  519   0.822   1.002   1.372
  167SOL    HW1  520   0.862   1.001   1.280
  167SOL    HW2  521   0.832   1.094   1.412
  168SOL     OW  522   0.916   0.910   0.291
  168SOL    HW1  523   0.979   0.948   0.223
  168SOL    HW2  524   0.956   0.827   0.330
  169SOL     OW  525   1.504   1.607   0.044
  169SOL    HW1  526   1.412   1.644   0.051
  169SOL    HW2  527   1.542   1.627  -0.046
  170SOL     OW  528   0.372   1.288   1.490
  170SOL    HW1  529   0.359   1.381   1.456
  170SOL    HW2  530   0.288   1.236   1.477
  171SOL     OW  531   1.614   1.292   1.289
  171SOL    HW1  532   1.674   1.295   1.369
  171SOL    HW2  533   1.539   1.356   1.302
  172SOL     OW  534   1.039   1.098   0.696
  172SOL    HW1  535   0.969   1.051   0.750
  172SOL    HW2  536   1.098   1.030   0.653
  173SOL     OW  537   1.014   0.236   0.971
  173SOL    HW1  538   1.006   0.200   0.878
  173SOL    HW2  539   1.012   0.160   1.036
  174SOL     OW  540   0.590   1.487   0.491
  174SOL    HW1  541   0.632   1.429   0.421
  174SOL    HW2  542   0.546   1.566   0.447
  175SOL     OW  543   1.709   0.385   1.381
  175SOL    HW1  544   1.782   0.454   1.385
  175SOL    HW2  545   1.737   0.310   1.322
  176SOL     OW  546   0.255   1.348   0.290
  176SOL    HW1  547   0.159   1.349   0.263
  176SOL    HW2  548   0.267   1.401   0.374
  177SOL     OW  549   0.105   1.013   1.726
  177SOL    HW1  550   0.028   0.980   1.780
  177SOL    HW2  551   0.190   0.983   1.768
  178SOL     OW  552   0.672   0.203   1.489
  178SOL    HW1  553   0.762   0.187   1.449
  178SOL    HW2  554   0.680   0.208   1.588
  179SOL     OW  555   0.075   0.345   0.033
  179SOL    HW1  556  -0.017   0.317   0.004
  179SOL    HW2  557   0.106   0.422  -0.023
  180SOL     OW  558   1.440   0.856   1.398
  180SOL    HW1  559   1.383   0.908   1.335
  180SOL    HW2  560   1.536   0.868   1.374
  181SOL     OW  561   0.072   0.166   0.318
  181SOL    HW1  562   0.055   0.249   0.264
  181SOL    HW2  563   0.162   0.129   0.296
  182SOL     OW  564   1.183   1.335   0.119
  182SOL    HW1  565   1.084   1.324   0.121
  182SOL    HW2  566   1.217   1.350   0.212
  183SOL     OW  567   0.613   0.842   1.431
  183SOL    HW1  568   0.669   0.923   1.414
  183SOL    HW2  569   0.672   0.762   1.434
  184SOL     OW  570   1.493   1.767   0.959
  184SOL    HW1  571   1.526   1.831   0.890
  184SOL    HW2  572   1.559   1.761   1.034
  185SOL     OW  573   0.716   0.565   1.708
  185SOL    HW1  574   0.735   0.630   1.782
  185SOL    HW2  575   0.776   0.485   1.717
  186SOL     OW  576   1.450   1.220   1.633
  186SOL    HW1  577   1.441   1.210   1.732
  186SOL    HW2  578   1.546   1.213   1.607
  187SOL     OW  579   0.390   1.741   1.560
  187SOL    HW1  580   0.299   1.782   1.558
  187SOL    HW2  581   0.383   1.647   1.592
  188SOL     OW  582   1.674   0.883   1.254
  188SOL    HW1  583   1.647   0.794   1.217
  188SOL    HW2  584   1.675   0.951   1.181
  189SOL     OW  585   1.225   0.325   0.449
  189SOL    HW1  586   1.290   0.251   0.438
  189SOL    HW2  587   1.245   0.375   0.533
  190SOL     OW  588   0.594   0.745   0.652
  190SOL    HW1  589   0.644   0.830   0.633
  190SOL    HW2  590   0.506   0.747   0.604
  191SOL     OW  591   1.777   0.342   1.642
  191SOL    HW1  592   1.760   0.373   1.548
  191SOL    HW2  593   1.693   0.305   1.680
  192SOL     OW  594   1.730   0.934   1.517
  192SOL    HW1  595   1.768   1.025   1.532
  192SOL    HW2  596   1.722   0.917   1.418
  193SOL     OW  597   0.859   1.374   0.016
  193SOL    HW1  598   0.813   1.389   0.104
  193SOL    HW2  599   0.903   1.459  -0.014
  194SOL     OW  600   0.661   1.790   0.953
  194SOL    HW1  601   0.615   1.878   0.940
  194SOL    HW2  602   0.760   1.802   0.946
  195SOL     OW  603   0.859   0.956   0.861
  195SOL    HW1  604   0.913   0.887   0.909
  195SOL    HW2  605   0.827   1.025   0.927
  196SOL     OW  606   1.083   0.984   0.087
  196SOL    HW1  607   1.060   1.037   0.005
  196SOL    HW2  608   1.164   0.928   0.068
  197SOL     OW  609   1.861   1.569   0.851
  197SOL    HW1  610   1.790   1.557   0.781
  197SOL    HW2  611   1.862   1.490   0.911
  198SOL     OW  612   0.221   1.314   1.844
  198SOL    HW1  613   0.156   1.241   1.823
  198SOL    HW2  614   0.225   1.328   1.942
  199SOL     OW  615   0.079   1.240   0.653
  199SOL    HW1  616   0.078   1.193   0.741
  199SOL    HW2  617   0.161   1.212   0.602
  200SOL     OW  618   0.672   1.391   1.624
  200SOL    HW1  619   0.594   1.341   1.662
  200SOL    HW2  620   0.669   1.486   1.655
  201SOL     OW  621   1.824   0.192   1.227
  201SOL    HW1  622   1.820   0.102   1.271
  201SOL    HW2  623   1.827   0.181   1.128
  202SOL     OW  624   0.428   0.424   0.520
  202SOL    HW1  625   0.458   0.352   0.458
  202SOL    HW2  626   0.389   0.384   0.603
  203SOL     OW  627   1.705   1.487   1.104
  203SOL    HW1  628   1.612   1.462   1.077
  203SOL    HW2  629   1.731   1.437   1.186
  204SOL     OW  630   0.317   0.547   1.280
  204SOL    HW1  631   0.355   0.488   1.352
  204SOL    HW2  632   0.357   0.521   1.192
  205SOL     OW  633   0.812   1.586   0.687
  205SOL    HW1  634   0.844   1.596   0.593
  205SOL    HW2  635   0.733   1.524   0.689
  206SOL     OW  636   1.424   0.214   1.112
  206SOL    HW1  637   1.476   0.149   1.167
  206SOL    HW2  638   1.375   0.277   1.173
  207SOL     OW  639   1.001   0.034   1.154
  207SOL    HW1  640   0.938  -0.038   1.123
  207SOL    HW2  641   1.094  -0.002   1.154
  208SOL     OW  642   0.770   1.330   0.301
  208SOL    HW1  643   0.724   1.243   0.318
  208SOL    HW2  644   0.861   1.327   0.342
  209SOL     OW  645   0.618   1.567   1.284
  209SOL    HW1  646   0.613   1.649   1.341
  209SOL    HW2  647   0.707   1.564   1.239
  210SOL     OW  648   1.352   0.052   0.168
  210SOL    HW1  649   1.387   0.011   0.084
  210SOL    HW2  650   1.262   0.014   0.188
  211SOL     OW  651   1.300   0.453   0.691
  211SOL    HW1  652   1.241   0.533   0.695
  211SOL    HW2  653   1.315   0.418   0.784
  212SOL     OW  654   1.593   0.221   0.882
  212SOL    HW1  655   1.509   0.220   0.936
  212SOL    HW2  656   1.595   0.304   0.826
  213SOL     OW  657   0.039   1.077   0.300
  213SOL    HW1  658   0.138   1.066   0.291
  213SOL    HW2  659  -0.001   0.991   0.332
  214SOL     OW  660   0.875   1.646   0.337
  214SOL    HW1  661   0.798   1.611   0.283
  214SOL    HW2  662   0.843   1.717   0.399
  215SOL     OW  663   0.230   0.628   1.975
  215SOL    HW1  664   0.137   0.626   2.012
  215SOL    HW2  665   0.231   0.589   1.883
  216SOL     OW  666   0.225   0.275   2.858
  216SOL    HW1  667   0.260   0.258   2.950
  216SOL    HW2  668   0.137   0.230   2.846
  217SOL     OW  669   0.019   0.368   2.509
  217SOL    HW1  670  -0.063   0.411   2.548
  217SOL    HW2  671  -0.009   0.295   2.446
  218SOL     OW  672   0.569   1.275   3.027
  218SOL    HW1  673   0.476   1.268   2.990
  218SOL    HW2  674   0.580   1.364   3.071
  219SOL     OW  675   1.555   1.511   2.565
  219SOL    HW1  676   1.498   1.495   2.646
  219SOL    HW2  677   1.496   1.521   2.485
  220SOL     OW  678   1.135   0.703   2.579
  220SOL    HW1  679   1.192   0.781   2.554
  220SOL    HW2  680   1.075   0.729   2.655
  221SOL     OW  681   1.755   0.607   2.093
  221SOL    HW1  682   1.743   0.594   1.994
  221SOL    HW2  683   1.725   0.526   2.142
  222SOL     OW  684   0.768   1.144   2.885
  222SOL    HW1  685   0.690   1.161   2.945
  222SOL    HW2  686   0.802   1.231   2.849
  223SOL     OW  687   0.850   0.798   3.685
  223SOL    HW1  688   0.846   0.874   3.750
  223SOL    HW2  689   0.872   0.834   3.594
  224SOL     OW  690   0.685   1.012   2.527
  224SOL    HW1  691   0.754   0.996   2.597
  224SOL    HW2  692   0.612   1.069   2.565
  225SOL     OW  693   0.686   1.161   3.665
  225SOL    HW1  694   0.746   1.240   3.679
  225SOL    HW2  695   0.600   1.192   3.624
  226SOL     OW  696   0.335   1.435   2.923
  226SOL    HW1  697   0.257   1.404   2.870
  226SOL    HW2  698   0.393   1.493   2.866
  227SOL     OW  699   1.460   1.505   3.201
  227SOL    HW1  700   1.484   1.599   3.227
  227SOL    HW2  701   1.444   1.451   3.283
  228SOL     OW  702   0.438   0.392   3.361
  228SOL    HW1  703   0.520   0.336   3.370
  228SOL    HW2  704   0.357   0.334   3.365
  229SOL     OW  705   1.603   0.447   2.599
  229SOL    HW1  706   1.529   0.493   2.549
  229SOL    HW2  707   1.654   0.515   2.652
  230SOL     OW  708   0.231   1.713   2.345
  230SOL    HW1  709   0.265   1.790   2.399
  230SOL    HW2  710   0.275   1.713   2.255
  231SOL     OW  711   1.127   1.341   3.552
  231SOL    HW1  712   1.174   1.341   3.640
  231SOL    HW2  713   1.079   1.254   3.541
  232SOL     OW  714   0.230   1.434   2.400
  232SOL    HW1  715   0.204   1.530   2.400
  232SOL    HW2  716   0.159   1.380   2.445
  233SOL     OW  717   0.240   1.091   2.748
  233SOL    HW1  718   0.254   1.007   2.800
  233SOL    HW2  719   0.185   1.155   2.803
  234SOL     OW  720   0.620   1.786   3.301
  234SOL    HW1  721   0.528   1.769   3.336
  234SOL    HW2  722   0.648   1.878   3.327
  235SOL     OW  723   0.606   0.964   1.985
  235SOL    HW1  724   0.613   1.048   1.931
  235SOL    HW2  725   0.652   0.977   2.073
  236SOL     OW  726   1.594   0.114   3.342
  236SOL    HW1  727   1.576   0.181   3.270
  236SOL    HW2  728   1.591   0.160   3.431
  237SOL     OW  729   0.122   0.643   2.425
  237SOL    HW1  730   0.077   0.555   2.442
  237SOL    HW2  731   0.121   0.697   2.509
  238SOL     OW  732   1.842   1.767   2.221
  238SOL    HW1  733   1.896   1.738   2.301
  238SOL    HW2  734   1.872   1.857   2.192
  239SOL     OW  735   0.027   1.596   1.979
  239SOL    HW1  736   0.008   1.500   2.000
  239SOL    HW2  737  -0.006   1.654   2.054
  240SOL     OW  738   1.689   0.922   2.474
  240SOL    HW1  739   1.784   0.893   2.482
  240SOL    HW2  740   1.681   0.987   2.399
  241SOL     OW  741   1.641   1.108   2.294
  241SOL    HW1  742   1.727   1.110   2.242
  241SOL    HW2  743   1.655   1.155   2.382
  242SOL     OW  744   0.113   0.737   3.459
  242SOL    HW1  745   0.201   0.724   3.504
  242SOL    HW2  746   0.100   0.834   3.437
  243SOL     OW  747   0.613   1.365   2.588
  243SOL    HW1  748   0.564   1.278   2.597
  243SOL    HW2  749   0.590   1.408   2.501
  244SOL     OW  750   1.293   1.228   3.285
  244SOL    HW1  751   1.330   1.155   3.227
  244SOL    HW2  752   1.345   1.233   3.370
  245SOL     OW  753   0.809   0.004   2.364
  245SOL    HW1  754   0.849   0.095   2.355
  245SOL    HW2  755   0.709   0.012   2.370
  246SOL     OW  756   0.197   0.976   3.126
  246SOL    HW1  757   0.286   0.931   3.112
  246SOL    HW2  758   0.124   0.911   3.107
  247SOL     OW  759   1.525   0.999   2.052
  247SOL    HW1  760   1.462   0.923   2.065
  247SOL    HW2  761   1.573   1.017   2.138
  248SOL     OW  762   1.187   1.792   3.478
  248SOL    HW1  763   1.211   1.852   3.402
  248SOL    HW2  764   1.194   1.697   3.448
  249SOL     OW  765   0.317   0.251   3.663
  249SOL    HW1  766   0.388   0.322   3.669
  249SOL    HW2  767   0.229   0.290   3.691
  250SOL     OW  768   1.466   1.417   2.815
  250SOL    HW1  769   1.407   1.423   2.895
  250SOL    HW2  770   1.451   1.329   2.769
  251SOL     OW  771   1.667   1.714   2.434
  251SOL    HW1  772   1.626   1.691   2.346
  251SOL    HW2  773   1.649   1.640   2.499
  252SOL     OW  774   0.598   0.729   2.132
  252SOL    HW1  775   0.622   0.798   2.064
  252SOL    HW2  776   0.520   0.762   2.186
  253SOL     OW  777   1.281   0.345   2.806
  253SOL    HW1  778   1.195   0.295   2.793
  253SOL    HW2  779   1.343   0.291   2.862
  254SOL     OW  780   1.576   1.662   2.169
  254SOL    HW1  781   1.665   1.708   2.172
  254SOL    HW2  782   1.555   1.638   2.074
  255SOL     OW  783   0.807   0.605   3.327
  255SOL    HW1  784   0.760   0.602   3.416
  255SOL    HW2  785   0.756   0.550   3.261
  256SOL     OW  786   1.394   0.469   3.536
  256SOL    HW1  787   1.374   0.512   3.624
  256SOL    HW2  788   1.472   0.407   3.545
  257SOL     OW  789   0.973   0.890   3.434
  257SOL    HW1  790   1.019   0.806   3.405
  257SOL    HW2  791   0.917   0.924   3.359
  258SOL     OW  792   0.991   0.410   3.104
  258SOL    HW1  793   0.914   0.444   3.158
  258SOL    HW2  794   0.957   0.359   3.025
  259SOL     OW  795   1.041   0.701   2.291
  259SOL    HW1  796   1.067   0.697   2.387
  259SOL    HW2  797   0.956   0.650   2.277
  260SOL     OW  798   0.076   0.811   2.651
  260SOL    HW1  799   0.175   0.799   2.660
  260SOL    HW2  800   0.052   0.906   2.672
  261SOL     OW  801   0.130   1.821   3.433
  261SOL    HW1  802   0.120   1.806   3.532
  261SOL    HW2  803   0.044   1.857   3.397
  262SOL     OW  804   0.865   0.348   2.057
  262SOL    HW1  805   0.924   0.411   2.008
  262SOL    HW2  806   0.884   0.254   2.028
  263SOL     OW  807   1.719   0.585   3.693
  263SOL    HW1  808   1.693   0.674   3.657
  263SOL    HW2  809   1.717   0.517   3.620
  264SOL     OW  810   1.362   1.144   2.407
  264SOL    HW1  811   1.445   1.115   2.359
  264SOL    HW2  812   1.313   1.211   2.351
  265SOL     OW  813   0.550   0.196   2.747
  265SOL    HW1  814   0.545   0.191   2.847
  265SOL    HW2  815   0.552   0.292   2.718
  266SOL     OW  816   1.008   1.456   2.339
  266SOL    HW1  817   0.962   1.528   2.287
  266SOL    HW2  818   1.004   1.476   2.437
  267SOL     OW  819   0.351   1.801   2.715
  267SOL    HW1  820   0.401   1.715   2.721
  267SOL    HW2  821   0.416   1.878   2.712
  268SOL     OW  822   1.795   1.066   2.735
  268SOL    HW1  823   1.733   1.051   2.659
  268SOL    HW2  824   1.743   1.077   2.820
  269SOL     OW  825   1.227   1.550   3.368
  269SOL    HW1  826   1.233   1.473   3.432
  269SOL    HW2  827   1.175   1.524   3.288
  270SOL     OW  828   0.321   0.943   2.104
  270SOL    HW1  829   0.403   0.982   2.062
  270SOL    HW2  830   0.294   0.861   2.055
  271SOL     OW  831   1.458   0.735   2.590
  271SOL    HW1  832   1.453   0.670   2.665
  271SOL    HW2  833   1.538   0.794   2.603
  272SOL     OW  834   0.461   1.266   3.589
  272SOL    HW1  835   0.411   1.267   3.503
  272SOL    HW2  836   0.398   1.248   3.665
  273SOL     OW  837   1.111   1.776   2.099
  273SOL    HW1  838   1.051   1.714   2.149
  273SOL    HW2  839   1.142   1.732   2.014
  274SOL     OW  840   0.202   0.285   3.360
  274SOL    HW1  841   0.122   0.345   3.347
  274SOL    HW2  842   0.192   0.236   3.446
  275SOL     OW  843   1.632   1.377   1.943
  275SOL    HW1  844   1.600   1.471   1.933
  275SOL    HW2  845   1.556   1.314   1.931
  276SOL     OW  846   0.464   1.743   2.185
  276SOL    HW1  847   0.497   1.782   2.271
  276SOL    HW2  848   0.540   1.736   2.120
  277SOL     OW  849   1.400   0.107   2.288
  277SOL    HW1  850   1.376   0.070   2.198
  277SOL    HW2  851   1.499   0.123   2.292
  278SOL     OW  852   0.249   1.785   3.103
  278SOL    HW1  853   0.306   1.720   3.153
  278SOL    HW2  854   0.233   1.752   3.010
  279SOL     OW  855   0.940   1.698   2.766
  279SOL    HW1  856   1.020   1.641   2.787
  279SOL    HW2  857   0.891   1.658   2.689
  280SOL     OW  858   0.382   0.700   2.342
  280SOL    HW1  859   0.427   0.610   2.339
  280SOL    HW2  860   0.288   0.689   2.375
  281SOL     OW  861   1.547   0.222   3.591
  281SOL    HW1  862   1.542   0.259   3.683
  281SOL    HW2  863   1.475   0.153   3.579
  282SOL     OW  864   0.614   0.122   1.979
  282SOL    HW1  865   0.712   0.100   1.986
  282SOL    HW2  866   0.583   0.105   1.886
  283SOL     OW  867   0.781   0.264   3.611
  283SOL    HW1  868   0.848   0.203   3.654
  283SOL    HW2  869   0.708   0.283   3.676
  284SOL     OW  870   0.888   1.514   3.057
  284SOL    HW1  871   0.865   1.489   2.963
  284SOL    HW2  872   0.949   1.445   3.096
  285SOL     OW  873   1.351   0.590   3.295
  285SOL    HW1  874   1.379   0.547   3.380
  285SOL    HW2  875   1.376   0.686   3.296
  286SOL     OW  876   0.803   1.402   2.786
  286SOL    HW1  877   0.893   1.416   2.744
  286SOL    HW2  878   0.732   1.404   2.715
  287SOL     OW  879   0.922   0.503   2.761
  287SOL    HW1  880   0.897   0.494   2.665
  287SOL    HW2  881   0.970   0.421   2.792
  288SOL     OW  882   0.539   0.064   2.374
  288SOL    HW1  883   0.458   0.065   2.432
  288SOL    HW2  884   0.542   0.147   2.319
  289SOL     OW  885   1.434   1.188   1.903
  289SOL    HW1  886   1.466   1.112   1.960
  289SOL    HW2  887   1.342   1.215   1.933
  290SOL     OW  888   0.297   0.035   2.033
  290SOL    HW1  889   0.346   0.119   2.012
  290SOL    HW2  890   0.359  -0.030   2.078
  291SOL     OW  891   0.935   0.236   2.342
  291SOL    HW1  892   0.887   0.277   2.264
  291SOL    HW2  893   1.034   0.234   2.323
  292SOL     OW  894   1.076   0.683   3.326
  292SOL    HW1  895   0.996   0.622   3.329
  292SOL    HW2  896   1.157   0.630   3.302
  293SOL     OW  897   1.227   1.570   2.655
  293SOL    HW1  898   1.248   1.644   2.590
  293SOL    HW2  899   1.295   1.570   2.728
  294SOL     OW  900   0.459   1.152   2.603
  294SOL    HW1  901   0.388   1.125   2.668
  294SOL    HW2  902   0.433   1.124   2.510
  295SOL     OW  903   1.271   1.797   2.453
  295SOL    HW1  904   1.315   1.861   2.389
  295SOL    HW2  905   1.221   1.849   2.523
  296SOL     OW  906   1.032   0.549   1.878
  296SOL    HW1  907   0.991   0.631   1.839
  296SOL    HW2  908   1.096   0.575   1.951
  297SOL     OW  909   0.078   0.556   3.248
  297SOL    HW1  910   0.170   0.555   3.207
  297SOL    HW2  911   0.072   0.630   3.315
  298SOL     OW  912   0.561   0.222   3.009
  298SOL    HW1  913   0.599   0.138   3.046
  298SOL    HW2  914   0.473   0.241   3.053
  299SOL     OW  915   0.866   0.454   2.504
  299SOL    HW1  916   0.834   0.526   2.442
  299SOL    HW2  917   0.890   0.373   2.451
  300SOL     OW  918   1.017   0.039   2.615
  300SOL    HW1  919   0.945   0.044   2.546
  300SOL    HW2  920   0.993  -0.030   2.684
  301SOL     OW  921   1.429   1.173   2.729
  301SOL    HW1  922   1.374   1.089   2.722
  301SOL    HW2  923   1.455   1.202   2.637
  302SOL     OW  924   1.466   0.590   2.854
  302SOL    HW1  925   1.436   0.495   2.861
  302SOL    HW2  926   1.539   0.606   2.920
  303SOL     OW  927   1.857   0.833   2.239
  303SOL    HW1  928   1.899   0.769   2.303
  303SOL    HW2  929   1.819   0.782   2.161
  304SOL     OW  930   0.488   1.385   2.036
  304SOL    HW1  931   0.401   1.370   2.083
  304SOL    HW2  932   0.471   1.411   1.941
  305SOL     OW  933   1.664   1.280   2.519
  305SOL    HW1  934   1.763   1.288   2.533
  305SOL    HW2  935   1.619   1.364   2.550
  306SOL     OW  936   1.390   0.575   1.940
  306SOL    HW1  937   1.336   0.554   2.021
  306SOL    HW2  938   1.481   0.534   1.949
  307SOL     OW  939   0.527   0.256   2.190
  307SOL    HW1  940   0.554   0.197   2.115
  307SOL    HW2  941   0.527   0.351   2.159
  308SOL     OW  942   1.754   1.223   3.450
  308SOL    HW1  943   1.845   1.184   3.437
  308SOL    HW2  944   1.762   1.319   3.474
  309SOL     OW  945   1.064   1.347   3.202
  309SOL    HW1  946   0.984   1.324   3.257
  309SOL    HW2  947   1.147   1.321   3.251
  310SOL     OW  948   1.592   1.629   3.487
  310SOL    HW1  949   1.619   1.663   3.397
  310SOL    HW2  950   1.671   1.591   3.533
  311SOL     OW  951   1.111   1.195   2.962
  311SOL    HW1  952   1.071   1.239   3.043
  311SOL    HW2  953   1.070   1.232   2.879
  312SOL     OW  954   1.638   1.099   2.941
  312SOL    HW1  955   1.643   1.180   3.000
  312SOL    HW2  956   1.552   1.101   2.890
  313SOL     OW  957   0.915   0.089   3.264
  313SOL    HW1  958   0.940   0.069   3.169
  313SOL    HW2  959   0.987   0.145   3.306
  314SOL     OW  960   0.980   1.116   3.581
  314SOL    HW1  961   0.881   1.122   3.591
  314SOL    HW2  962   1.003   1.036   3.525
  315SOL     OW  963   0.705   1.050   2.230
  315SOL    HW1  964   0.691   1.057   2.329
  315SOL    HW2  965   0.789   0.999   2.212
  316SOL     OW  966   0.410   0.813   3.113
  316SOL    HW1  967   0.496   0.825   3.163
  316SOL    HW2  968   0.368   0.726   3.140
  317SOL     OW  969   1.274   0.386   3.124
  317SOL    HW1  970   1.295   0.460   3.188
  317SOL    HW2  971   1.185   0.403   3.081
  318SOL     OW  972   0.064   1.564   3.193
  318SOL    HW1  973   0.018   1.646   3.159
  318SOL    HW2  974   0.162   1.583   3.202
  319SOL     OW  975   0.367   1.100   2.363
  319SOL    HW1  976   0.360   1.183   2.307
  319SOL    HW2  977   0.371   1.020   2.303
  320SOL     OW  978   0.566   0.537   2.727
  320SOL    HW1  979   0.578   0.603   2.653
  320SOL    HW2  980   0.612   0.571   2.810
  321SOL     OW  981   1.252   1.348   2.250
  321SOL    HW1  982   1.302   1.425   2.290
  321SOL    HW2  983   1.157   1.350   2.282
  322SOL     OW  984   1.272   1.445   3.004
  322SOL    HW1  985   1.319   1.458   3.091
  322SOL    HW2  986   1.206   1.371   3.013
  323SOL     OW  987   1.582   0.639   2.334
  323SOL    HW1  988   1.551   0.700   2.407
  323SOL    HW2  989   1.632   0.691   2.265
  324SOL     OW  990   0.354   1.510   3.191
  324SOL    HW1  991   0.333   1.466   3.104
  324SOL    HW2  992   0.451   1.536   3.194
  325SOL     OW  993   0.402   0.751   3.460
  325SOL    HW1  994   0.470   0.806   3.413
  325SOL    HW2  995   0.442   0.663   3.487
  326SOL     OW  996   1.587   0.779   3.532
  326SOL    HW1  997   1.495   0.817   3.527
  326SOL    HW2  998   1.647   0.826   3.467
  327SOL     OW  999   1.013   0.105   3.632
  327SOL    HW1 1000   1.019   0.190   3.580
  327SOL    HW2 1001   1.045   0.029   3.575
  328SOL     OW 1002   0.504   0.050   3.602
  328SOL    HW1 1003   0.462  -0.007   3.532
  328SOL    HW2 1004   0.438   0.119   3.634
  329SOL     OW 1005   0.573   0.870   2.891
  329SOL    HW1 1006   0.617   0.959   2.882
  329SOL    HW2 1007   0.510   0.870   2.968
  330SOL     OW 1008   1.360   0.862   2.907
  330SOL    HW1 1009   1.285   0.862   2.841
  330SOL    HW2 1010   1.397   0.770   2.916
  331SOL     OW 1011   1.209   0.525   2.137
  331SOL    HW1 1012   1.222   0.441   2.191
  331SOL    HW2 1013   1.180   0.599   2.197
  332SOL     OW 1014   0.307   0.213   3.093
  332SOL    HW1 1015   0.284   0.250   3.183
  332SOL    HW2 1016   0.277   0.118   3.087
  333SOL     OW 1017   0.037   1.310   3.144
  333SOL    HW1 1018   0.090   1.261   3.212
  333SOL    HW2 1019   0.059   1.408   3.149
  334SOL     OW 1020   0.732   0.634   2.926
  334SOL    HW1 1021   0.791   0.608   2.850
  334SOL    HW2 1022   0.704   0.730   2.915
  335SOL     OW 1023   1.728   0.935   3.716
  335SOL    HW1 1024   1.682   0.928   3.627
  335SOL    HW2 1025   1.666   0.979   3.782
  336SOL     OW 1026   0.307   0.063   2.480
  336SOL    HW1 1027   0.296   0.157   2.513
  336SOL    HW2 1028   0.302   0.000   2.557
  337SOL     OW 1029   1.622   0.367   2.236
  337SOL    HW1 1030   1.624   0.291   2.300
  337SOL    HW2 1031   1.574   0.444   2.276
  338SOL     OW 1032   1.023   0.766   2.828
  338SOL    HW1 1033   1.038   0.787   2.924
  338SOL    HW2 1034   0.993   0.671   2.819
  339SOL     OW 1035   0.980   1.573   3.562
  339SOL    HW1 1036   0.960   1.617   3.474
  339SOL    HW2 1037   1.019   1.482   3.546
  340SOL     OW 1038   1.859   1.518   3.467
  340SOL    HW1 1039   1.873   1.545   3.372
  340SOL    HW2 1040   1.942   1.540   3.520
  341SOL     OW 1041   0.350   0.898   3.666
  341SOL    HW1 1042   0.426   0.942   3.714
  341SOL    HW2 1043   0.385   0.851   3.584
  342SOL     OW 1044   1.540   0.274   1.987
  342SOL    HW1 1045   1.479   0.199   2.010
  342SOL    HW2 1046   1.562   0.326   2.070
  343SOL     OW 1047   1.303   0.838   1.904
  343SOL    HW1 1048   1.337   0.745   1.919
  343SOL    HW2 1049   1.321   0.865   1.809
  344SOL     OW 1050   1.068   1.333   2.711
  344SOL    HW1 1051   1.075   1.249   2.656
  344SOL    HW2 1052   1.130   1.402   2.675
  345SOL     OW 1053   0.319   0.810   2.811
  345SOL    HW1 1054   0.412   0.846   2.816
  345SOL    HW2 1055   0.313   0.725   2.863
  346SOL     OW 1056   0.339   0.509   2.868
  346SOL    HW1 1057   0.287   0.426   2.851
  346SOL    HW2 1058   0.416   0.514   2.804
  347SOL     OW 1059   1.138   0.380   3.540
  347SOL    HW1 1060   1.093   0.443   3.604
  347SOL    HW2 1061   1.231   0.411   3.523
  348SOL     OW 1062   1.160   0.207   3.339
  348SOL    HW1 1063   1.160   0.271   3.416
  348SOL    HW2 1064   1.188   0.255   3.256
  349SOL     OW 1065   0.008   1.326   2.062
  349SOL    HW1 1066  -0.085   1.347   2.031
  349SOL    HW2 1067   0.018   1.227   2.075
  350SOL     OW 1068   0.088   1.801   2.789
  350SOL    HW1 1069   0.046   1.715   2.762
  350SOL    HW2 1070   0.182   1.804   2.755
  351SOL     OW 1071   0.504   1.568   2.772
  351SOL    HW1 1072   0.570   1.642   2.781
  351SOL    HW2 1073   0.548   1.489   2.730
  352SOL     OW 1074   1.002   0.796   3.100
  352SOL    HW1 1075   1.043   0.764   3.186
  352SOL    HW2 1076   0.906   0.769   3.097
  353SOL     OW 1077   0.040   0.544   2.976
  353SOL    HW1 1078   0.125   0.511   2.935
  353SOL    HW2 1079   0.053   0.559   3.074
  354SOL     OW 1080   0.189   0.520   3.584
  354SOL    HW1 1081   0.248   0.480   3.514
  354SOL    HW2 1082   0.131   0.591   3.543
  355SOL     OW 1083   1.369   0.950   3.522
  355SOL    HW1 1084   1.408   1.039   3.542
  355SOL    HW2 1085   1.379   0.930   3.425
  356SOL     OW 1086   0.815   0.572   2.187
  356SOL    HW1 1087   0.822   0.483   2.141
  356SOL    HW2 1088   0.721   0.606   2.179
  357SOL     OW 1089   1.657   0.604   3.068
  357SOL    HW1 1090   1.619   0.535   3.130
  357SOL    HW2 1091   1.739   0.568   3.024
  358SOL     OW 1092   0.252   1.564   3.606
  358SOL    HW1 1093   0.222   1.621   3.682
  358SOL    HW2 1094   0.245   1.467   3.632
  359SOL     OW 1095   0.671   0.464   3.131
  359SOL    HW1 1096   0.637   0.375   3.101
  359SOL    HW2 1097   0.697   0.518   3.051
  360SOL     OW 1098   0.930   1.678   3.327
  360SOL    HW1 1099   0.906   1.660   3.232
  360SOL    HW2 1100   0.960   1.772   3.337
  361SOL     OW 1101   0.473   0.500   2.053
  361SOL    HW1 1102   0.534   0.580   2.057
  361SOL    HW2 1103   0.378   0.531   2.060
  362SOL     OW 1104   0.159   1.137   3.328
  362SOL    HW1 1105   0.181   1.076   3.404
  362SOL    HW2 1106   0.169   1.088   3.242
  363SOL     OW 1107   1.347   1.059   3.096
  363SOL    HW1 1108   1.371   0.996   3.022
  363SOL    HW2 1109   1.257   1.099   3.078
  364SOL     OW 1110   1.302   0.855   2.171
  364SOL    HW1 1111   1.216   0.824   2.213
  364SOL    HW2 1112   1.298   0.841   2.072
  365SOL     OW 1113   1.759   1.747   3.016
  365SOL    HW1 1114   1.820   1.777   2.943
  365SOL    HW2 1115   1.721   1.658   2.994
  366SOL     OW 1116   1.252   1.731   2.990
  366SOL    HW1 1117   1.336   1.736   2.936
  366SOL    HW2 1118   1.229   1.635   3.008
  367SOL     OW 1119   0.083   1.258   2.884
  367SOL    HW1 1120   0.078   1.257   2.984
  367SOL    HW2 1121   0.000   1.217   2.846
  368SOL     OW 1122   0.688   1.662   3.578
  368SOL    HW1 1123   0.632   1.743   3.587
  368SOL    HW2 1124   0.740   1.666   3.492
  369SOL     OW 1125   1.726   0.135   2.385
  369SOL    HW1 1126   1.799   0.118   2.318
  369SOL    HW2 1127   1.695   0.048   2.423
  370SOL     OW 1128   1.388   1.573   2.339
  370SOL    HW1 1129   1.455   1.585   2.265
  370SOL    HW2 1130   1.348   1.662   2.362
  371SOL     OW 1131   0.130   1.794   3.713
  371SOL    HW1 1132   0.089   1.720   3.766
  371SOL    HW2 1133   0.194   1.845   3.771
  372SOL     OW 1134   1.280   0.927   2.534
  372SOL    HW1 1135   1.340   0.846   2.536
  372SOL    HW2 1136   1.320   0.996   2.474
  373SOL     OW 1137   0.830   1.273   3.284
  373SOL    HW1 1138   0.825   1.306   3.379
  373SOL    HW2 1139   0.744   1.292   3.238
  374SOL     OW 1140   0.672   1.616   2.016
  374SOL    HW1 1141   0.681   1.626   1.917
  374SOL    HW2 1142   0.632   1.527   2.037
  375SOL     OW 1143   1.650   1.720   3.256
  375SOL    HW1 1144   1.703   1.730   3.172
  375SOL    HW2 1145   1.623   1.810   3.290
  376SOL     OW 1146   1.841   0.175   2.825
  376SOL    HW1 1147   1.880   0.090   2.789
  376SOL    HW2 1148   1.743   0.177   2.806
  377SOL     OW 1149   0.263   0.326   2.582
  377SOL    HW1 1150   0.184   0.377   2.548
  377SOL    HW2 1151   0.254   0.311   2.680
  378SOL     OW 1152   1.194   1.612   1.893
  378SOL    HW1 1153   1.200   1.519   1.930
  378SOL    HW2 1154   1.135   1.612   1.813
  379SOL     OW 1155   0.822   1.002   3.234
  379SOL    HW1 1156   0.862   1.001   3.142
  379SOL    HW2 1157   0.832   1.094   3.274
  380SOL     OW 1158   0.916   0.910   2.153
  380SOL    HW1 1159   0.979   0.948   2.085
  380SOL    HW2 1160   0.956   0.827   2.192
  381SOL     OW 1161   1.504   1.607   1.906
  381SOL    HW1 1162   1.412   1.644   1.913
  381SOL    HW2 1163   1.542   1.627   1.816
  382SOL     OW 1164   0.372   1.288   3.352
  382SOL    HW1 1165   0.359   1.381   3.318
  382SOL    HW2 1166   0.288   1.236   3.339
  383SOL     OW 1167   1.614   1.292   3.151
  383SOL    HW1 1168   1.674   1.295   3.231
  383SOL    HW2 1169   1.539   1.356   3.164
  384SOL     OW 1170   1.039   1.098   2.558
  384SOL    HW1 1171   0.969   1.051   2.612
  384SOL    HW2 1172   1.098   1.030   2.515
  385SOL     OW 1173   1.014   0.236   2.833
  385SOL    HW1 1174   1.006   0.200   2.740
  385SOL    HW2 1175   1.012   0.160   2.898
  386SOL     OW 1176   0.590   1.487   2.353
  386SOL    HW1 1177   0.632   1.429   2.283
  386SOL    HW2 1178   0.546   1.566   2.309
  387SOL     OW 1179   1.709   0.385   3.243
  387SOL    HW1 1180   1.782   0.454   3.247
  387SOL    HW2 1181   1.737   0.310   3.184
  388SOL     OW 1182   0.255   1.348   2.152
  388SOL    HW1 1183   0.159   1.349   2.125
  388SOL    HW2 1184   0.267   1.401   2.236
  389SOL     OW 1185   0.105   1.013   3.588
  389SOL    HW1 1186   0.028   0.980   3.642
  389SOL    HW2 1187   0.190   0.983   3.630
  390SOL     OW 1188   0.672   0.203   3.351
  390SOL    HW1 1189   0.762   0.187   3.311
  390SOL    HW2 1190   0.680   0.208   3.450
  391SOL     OW 1191   0.075   0.345   1.895
  391SOL    HW1 1192  -0.017   0.317   1.866
  391SOL    HW2 1193   0.106   0.422   1.839
  392SOL     OW 1194   1.440   0.856   3.260
  392SOL    HW1 1195   1.383   0.908   3.197
  392SOL    HW2 1196   1.536   0.868   3.236
  393SOL     OW 1197   0.072   0.166   2.180
  393SOL    HW1 1198   0.055   0.249   2.126
  393SOL    HW2 1199   0.162   0.129   2.158
  394SOL     OW 1200   1.183   1.335   1.981
  394SOL    HW1 1201   1.084   1.324   1.983
  394SOL    HW2 1202   1.217   1.350   2.074
  395SOL     OW 1203   0.613   0.842   3.293
  395SOL    HW1 1204   0.669   0.923   3.276
  395SOL    HW2 1205   0.672   0.762   3.296
  396SOL     OW 1206   1.493   1.767   2.821
  396SOL    HW1 1207   1.526   1.831   2.752
  396SOL    HW2 1208   1.559   1.761   2.896
  397SOL     OW 1209   0.716   0.565   3.570
  397SOL    HW1 1210   0.735   0.630   3.644
  397SOL    HW2 1211   0.776   0.485   3.579
  398SOL     OW 1212   1.450   1.220   3.495
  398SOL    HW1 1213   1.441   1.210   3.594
  398SOL    HW2 1214   1.546   1.213   3.469
  399SOL     OW 1215   0.390   1.741   3.422
  399SOL    HW1 1216   0.299   1.782   3.420
  399SOL    HW2 1217   0.383   1.647   3.454
  400SOL     OW 1218   1.674   0.883   3.116
  400SOL    HW1 1219   1.647   0.794   3.079
  400SOL    HW2 1220   1.675   0.951   3.043
  401SOL     OW 1221   1.225   0.325   2.311
  401SOL    HW1 1222   1.290   0.251   2.300
  401SOL    HW2 1223   1.245   0.375   2.395
  402SOL     OW 1224   0.594   0.745   2.514
  402SOL    HW1 1225   0.644   0.830   2.495
  402SOL    HW2 1226   0.506   0.747   2.466
  403SOL     OW 1227   1.777   0.342   3.504
  403SOL    HW1 1228   1.760   0.373   3.410
  403SOL    HW2 1229   1.693   0.305   3.542
  404SOL     OW 1230   1.730   0.934   3.379
  404SOL    HW1 1231   1.768   1.025   3.394
  404SOL    HW2 1232   1.722   0.917   3.280
  405SOL     OW 1233   0.859   1.374   1.878
  405SOL    HW1 1234   0.813   1.389   1.966
  405SOL    HW2 1235   0.903   1.459   1.848
  406SOL     OW 1236   0.661   1.790   2.815
  406SOL    HW1 1237   0.615   1.878   2.802
  406SOL    HW2 1238   0.760   1.802   2.808
  407SOL     OW 1239   0.859   0.956   2.723
  407SOL    HW1 1240   0.913   0.887   2.771
  407SOL    HW2 1241   0.827   1.025   2.789
  408SOL     OW 1242   1.083   0.984   1.949
  408SOL    HW1 1243   1.060   1.037   1.867
  408SOL    HW2 1244   1.164   0.928   1.930
  409SOL     OW 1245   1.861   1.569   2.713
  409SOL    HW1 1246   1.790   1.557   2.643
  409SOL    HW2 1247   1.862   1.490   2.773
  410SOL     OW 1248   0.221   1.314   3.706
  410SOL    HW1 1249   0.156   1.241   3.685
  410SOL    HW2 1250   0.225   1.328   3.804
  411SOL     OW 1251   0.079   1.240   2.515
  411SOL    HW1 1252   0.078   1.193   2.603
  411SOL    HW2 1253   0.161   1.212   2.464
  412SOL     OW 1254   0.672   1.391   3.486
  412SOL    HW1 1255   0.594   1.341   3.524
  412SOL    HW2 1256   0.669   1.486   3.517
  413SOL     OW 1257   1.824   0.192   3.089
  413SOL    HW1 1258   1.820   0.102   3.133
  413SOL    HW2 1259   1.827   0.181   2.990
  414SOL     OW 1260   0.428   0.424   2.382
  414SOL    HW1 1261   0.458   0.352   2.320
  414SOL    HW2 1262   0.389   0.384   2.465
  415SOL     OW 1263   1.705   1.487   2.966
  415SOL    HW1 1264   1.612   1.462   2.939
  415SOL    HW2 1265   1.731   1.437   3.048
  416SOL     OW 1266   0.317   0.547   3.142
  416SOL    HW1 1267   0.355   0.488   3.214
  416SOL    HW2 1268   0.357   0.521   3.054
  417SOL     OW 1269   0.812   1.586   2.549
  417SOL    HW1 1270   0.844   1.596   2.455
  417SOL    HW2 1271   0.733   1.524   2.551
  418SOL     OW 1272   1.424   0.214   2.974
  418SOL    HW1 1273   1.476   0.149   3.029
  418SOL    HW2 1274   1.375   0.277   3.035
  419SOL     OW 1275   1.001   0.034   3.016
  419SOL    HW1 1276   0.938  -0.038   2.985
  419SOL    HW2 1277   1.094  -0.002   3.016
  420SOL     OW 1278   0.770   1.330   2.163
  420SOL    HW1 1279   0.724   1.243   2.180
  420SOL    HW2 1280   0.861   1.327   2.204
  421SOL     OW 1281   0.618   1.567   3.146
  421SOL    HW1 1282   0.613   1.649   3.203
  421SOL    HW2 1283   0.707   1.564   3.101
  422SOL     OW 1284   1.352   0.052   2.030
  422SOL    HW1 1285   1.387   0.011   1.946
  422SOL    HW2 1286   1.262   0.014   2.050
  423SOL     OW 1287   1.300   0.453   2.553
  423SOL    HW1 1288   1.241   0.533   2.557
  423SOL    HW2 1289   1.315   0.418   2.646
  424SOL     OW 1290   1.593   0.221   2.744
  424SOL    HW1 1291   1.509   0.220   2.798
  424SOL    HW2 1292   1.595   0.304   2.688
  425SOL     OW 1293   0.039   1.077   2.162
  425SOL    HW1 1294   0.138   1.066   2.153
  425SOL    HW2 1295  -0.001   0.991   2.194
  426SOL     OW 1296   0.875   1.646   2.199
  426SOL    HW1 1297   0.798   1.611   2.145
  426SOL    HW2 1298   0.843   1.717   2.261
  427SOL     OW 1299   0.230   0.628   3.837
  427SOL    HW1 1300   0.137   0.626   3.874
  427SOL    HW2 1301   0.231   0.589   3.745
  428SOL     OW 1302   0.225   0.275   4.720
  428SOL    HW1 1303   0.260   0.258   4.812
  428SOL    HW2 1304   0.137   0.230   4.708
  429SOL     OW 1305   0.019   0.368   4.371
  429SOL    HW1 1306  -0.063   0.411   4.410
  429SOL    HW2 1307  -0.009   0.295   4.308
  430SOL     OW 1308   0.569   1.275   4.889
  430SOL    HW1 1309   0.476   1.268   4.852
  430SOL    HW2 1310   0.580   1.364   4.933
  431SOL     OW 1311   1.555   1.511   4.427
  431SOL    HW1 1312   1.498   1.495   4.508
  431SOL    HW2 1313   1.496   1.521   4.347
  432SOL     OW 1314   1.135   0.703   4.441
  432SOL    HW1 1315   1.192   0.781   4.416
  432SOL    HW2 1316   1.075   0.729   4.517
  433SOL     OW 1317   1.755   0.607   3.955
  433SOL    HW1 1318   1.743   0.594   3.856
  433SOL    HW2 1319   1.725   0.526   4.004
  434SOL     OW 1320   0.768   1.144   4.747
  434SOL    HW1 1321   0.690   1.161   4.807
  434SOL    HW2 1322   0.802   1.231   4.711
  435SOL     OW 1323   0.685   1.012   4.389
  435SOL    HW1 1324   0.754   0.996   4.459
  435SOL    HW2 1325   0.612   1.069   4.427
  436SOL     OW 1326   0.335   1.435   4.785
  436SOL    HW1 1327   0.257   1.404   4.732
  436SOL    HW2 1328   0.393   1.493   4.728
  437SOL     OW 1329   1.603   0.447   4.461
  437SOL    HW1 1330   1.529   0.493   4.411
  437SOL    HW2 1331   1.654   0.515   4.514
  438SOL     OW 1332   0.231   1.713   4.207
  438SOL    HW1 1333   0.265   1.790   4.261
  438SOL    HW2 1334   0.275   1.713   4.117
  439SOL     OW 1335   0.230   1.434   4.262
  439SOL    HW1 1336   0.204   1.530   4.262
  439SOL    HW2 1337   0.159   1.380   4.307
  440SOL     OW 1338   0.240   1.091   4.610
  440SOL    HW1 1339   0.254   1.007   4.662
  440SOL    HW2 1340   0.185   1.155   4.665
  441SOL     OW 1341   0.606   0.964   3.847
  441SOL    HW1 1342   0.613   1.048   3.793
  441SOL    HW2 1343   0.652   0.977   3.935
  442SOL     OW 1344   0.122   0.643   4.287
  442SOL    HW1 1345   0.077   0.555   4.304
  442SOL    HW2 1346   0.121   0.697   4.371
  443SOL     OW 1347   1.842   1.767   4.083
  443SOL    HW1 1348   1.896   1.738   4.163
  443SOL    HW2 1349   1.872   1.857   4.054
  444SOL     OW 1350   0.027   1.596   3.841
  444SOL    HW1 1351   0.008   1.500   3.862
  444SOL    HW2 1352  -0.006   1.654   3.916
  445SOL     OW 1353   1.689   0.922   4.336
  445SOL    HW1 1354   1.784   0.893   4.344
  445SOL    HW2 1355   1.681   0.987   4.261
  446SOL     OW 1356   1.641   1.108   4.156
  446SOL    HW1 1357   1.727   1.110   4.104
  446SOL    HW2 1358   1.655   1.155   4.244
  447SOL     OW 1359   0.613   1.365   4.450
  447SOL    HW1 1360   0.564   1.278   4.459
  447SOL    HW2 1361   0.590   1.408   4.363
  448SOL     OW 1362   0.809   0.004   4.226
  448SOL    HW1 1363   0.849   0.095   4.217
  448SOL    HW2 1364   0.709   0.012   4.232
  449SOL     OW 1365   0.197   0.976   4.988
  449SOL    HW1 1366   0.286   0.931   4.974
  449SOL    HW2 1367   0.124   0.911   4.969
  450SOL     OW 1368   1.525   0.999   3.914
  450SOL    HW1 1369   1.462   0.923   3.927
  450SOL    HW2 1370   1.573   1.017   4.000
  451SOL     OW 1371   1.466   1.417   4.677
  451SOL    HW1 1372   1.407   1.423   4.757
  451SOL    HW2 1373   1.451   1.329   4.631
  452SOL     OW 1374   1.667   1.714   4.296
  452SOL    HW1 1375   1.626   1.691   4.208
  452SOL    HW2 1376   1.649   1.640   4.361
  453SOL     OW 1377   0.598   0.729   3.994
  453SOL    HW1 1378   0.622   0.798   3.926
  453SOL    HW2 1379   0.520   0.762   4.048
  454SOL     OW 1380   1.281   0.345   4.668
  454SOL    HW1 1381   1.195   0.295   4.655
  454SOL    HW2 1382   1.343   0.291   4.724
  455SOL     OW 1383   1.576   1.662   4.031
  455SOL    HW1 1384   1.665   1.708   4.034
  455SOL    HW2 1385   1.555   1.638   3.936
  456SOL     OW 1386   1.041   0.701   4.153
  456SOL    HW1 1387   1.067   0.697   4.249
  456SOL    HW2 1388   0.956   0.650   4.139
  457SOL     OW 1389   0.076   0.811   4.513
  457SOL    HW1 1390   0.175   0.799   4.522
  457SOL    HW2 1391   0.052   0.906   4.534
  458SOL     OW 1392   0.130   1.821   5.295
  458SOL    HW1 1393   0.120   1.806   5.394
  458SOL    HW2 1394   0.044   1.857   5.259
  459SOL     OW 1395   0.865   0.348   3.919
  459SOL    HW1 1396   0.924   0.411   3.870
  459SOL    HW2 1397   0.884   0.254   3.890
  460SOL     OW 1398   1.362   1.144   4.269
  460SOL    HW1 1399   1.445   1.115   4.221
  460SOL    HW2 1400   1.313   1.211   4.213
  461SOL     OW 1401   0.550   0.196   4.609
  461SOL    HW1 1402   0.545   0.191   4.709
  461SOL    HW2 1403   0.552   0.292   4.580
  462SOL     OW 1404   1.008   1.456   4.201
  462SOL    HW1 1405   0.962   1.528   4.149
  462SOL    HW2 1406   1.004   1.476   4.299
  463SOL     OW 1407   0.351   1.801   4.577
  463SOL    HW1 1408   0.401   1.715   4.583
  463SOL    HW2 1409   0.416   1.878   4.574
  464SOL     OW 1410   1.795   1.066   4.597
  464SOL    HW1 1411   1.733   1.051   4.521
  464SOL    HW2 1412   1.743   1.077   4.682
  465SOL     OW 1413   0.321   0.943   3.966
  465SOL    HW1 1414   0.403   0.982   3.924
  465SOL    HW2 1415   0.294   0.861   3.917
  466SOL     OW 1416   1.458   0.735   4.452
  466SOL    HW1 1417   1.453   0.670   4.527
  466SOL    HW2 1418   1.538   0.794   4.465
  467SOL     OW 1419   1.111   1.776   3.961
  467SOL    HW1 1420   1.051   1.714   4.011
  467SOL    HW2 1421   1.142   1.732   3.876
  468SOL     OW 1422   1.632   1.377   3.805
  468SOL    HW1 1423   1.600   1.471   3.795
  468SOL    HW2 1424   1.556   1.314   3.793
  469SOL     OW 1425   0.464   1.743   4.047
  469SOL    HW1 1426   0.497   1.782   4.133
  469SOL    HW2 1427   0.540   1.736   3.982
  470SOL     OW 1428   1.400   0.107   4.150
  470SOL    HW1 1429   1.376   0.070   4.060
  470SOL    HW2 1430   1.499   0.123   4.154
  471SOL     OW 1431   0.249   1.785   4.965
  471SOL    HW1 1432   0.306   1.720   5.015
  471SOL    HW2 1433   0.233   1.752   4.872
  472SOL     OW 1434   0.940   1.698   4.628
  472SOL    HW1 1435   1.020   1.641   4.649
  472SOL    HW2 1436   0.891   1.658   4.551
  473SOL     OW 1437   0.382   0.700   4.204
  473SOL    HW1 1438   0.427   0.610   4.201
  473SOL    HW2 1439   0.288   0.689   4.237
  474SOL     OW 1440   0.614   0.122   3.841
  474SOL    HW1 1441   0.712   0.100   3.848
  474SOL    HW2 1442   0.583   0.105   3.748
  475SOL     OW 1443   0.803   1.402   4.648
  475SOL    HW1 1444   0.893   1.416   4.606
  475SOL    HW2 1445   0.732   1.404   4.577
  476SOL     OW 1446   0.922   0.503   4.623
  476SOL    HW1 1447   0.897   0.494   4.527
  476SOL    HW2 1448   0.970   0.421   4.654
  477SOL     OW 1449   0.539   0.064   4.236
  477SOL    HW1 1450   0.458   0.065   4.294
  477SOL    HW2 1451   0.542   0.147   4.181
  478SOL     OW 1452   1.434   1.188   3.765
  478SOL    HW1 1453   1.466   1.112   3.822
  478SOL    HW2 1454   1.342   1.215   3.795
  479SOL     OW 1455   0.297   0.035   3.895
  479SOL    HW1 1456   0.346   0.119   3.874
  479SOL    HW2 1457   0.359  -0.030   3.940
  480SOL     OW 1458   0.935   0.236   4.204
  480SOL    HW1 1459   0.887   0.277   4.126
  480SOL    HW2 1460   1.034   0.234   4.185
  481SOL     OW 1461   1.227   1.570   4.517
  481SOL    HW1 1462   1.248   1.644   4.452
  481SOL    HW2 1463   1.295   1.570   4.590
  482SOL     OW 1464   0.459   1.152   4.465
  482SOL    HW1 1465   0.388   1.125   4.530
  482SOL    HW2 1466   0.433   1.124   4.372
  483SOL     OW 1467   1.271   1.797   4.315
  483SOL    HW1 1468   1.315   1.861   4.251
  483SOL    HW2 1469   1.221   1.849   4.385
  484SOL     OW 1470   1.032   0.549   3.740
  484SOL    HW1 1471   0.991   0.631   3.701
  484SOL    HW2 1472   1.096   0.575   3.813
  485SOL     OW 1473   0.866   0.454   4.366
  485SOL    HW1 1474   0.834   0.526   4.304
  485SOL    HW2 1475   0.890   0.373   4.313
  486SOL     OW 1476   1.017   0.039   4.477
  486SOL    HW1 1477   0.945   0.044   4.408
  486SOL    HW2 1478   0.993  -0.030   4.546
  487SOL     OW 1479   1.429   1.173   4.591
  487SOL    HW1 1480   1.374   1.089   4.584
  487SOL    HW2 1481   1.455   1.202   4.499
  488SOL     OW 1482   1.466   0.590   4.716
  488SOL    HW1 1483   1.436   0.495   4.723
  488SOL    HW2 1484   1.539   0.606   4.782
  489SOL     OW 1485   1.857   0.833   4.101
  489SOL    HW1 1486   1.899   0.769   4.165
  489SOL    HW2 1487   1.819   0.782   4.023
  490SOL     OW 1488   0.488   1.385   3.898
  490SOL    HW1 1489   0.401   1.370   3.945
  490SOL    HW2 1490   0.471   1.411   3.803
  491SOL     OW 1491   1.664   1.280   4.381
  491SOL    HW1 1492   1.763   1.288   4.395
  491SOL    HW2 1493   1.619   1.364   4.412
  492SOL     OW 1494   1.390   0.575   3.802
  492SOL    HW1 1495   1.336   0.554   3.883
  492SOL    HW2 1496   1.481   0.534   3.811
  493SOL     OW 1497   0.527   0.256   4.052
  493SOL    HW1 1498   0.554   0.197   3.977
  493SOL    HW2 1499   0.527   0.351   4.021
  494SOL     OW 1500   1.111   1.195   4.824
  494SOL    HW1 1501   1.071   1.239   4.905
  494SOL    HW2 1502   1.070   1.232   4.741
  495SOL     OW 1503   1.638   1.099   4.803
  495SOL    HW1 1504   1.643   1.180   4.862
  495SOL    HW2 1505   1.552   1.101   4.752
  496SOL     OW 1506   0.705   1.050   4.092
  496SOL    HW1 1507   0.691   1.057   4.191
  496SOL    HW2 1508   0.789   0.999   4.074
  497SOL     OW 1509   0.410   0.813   4.975
  497SOL    HW1 1510   0.496   0.825   5.025
  497SOL    HW2 1511   0.368   0.726   5.002
  498SOL     OW 1512   0.367   1.100   4.225
  498SOL    HW1 1513   0.360   1.183   4.169
  498SOL    HW2 1514   0.371   1.020   4.165
  499SOL     OW 1515   0.566   0.537   4.589
  499SOL    HW1 1516   0.578   0.603   4.515
  499SOL    HW2 1517   0.612   0.571   4.672
  500SOL     OW 1518   1.252   1.348   4.112
  500SOL    HW1 1519   1.302   1.425   4.152
  500SOL    HW2 1520   1.157   1.350   4.144
  501SOL     OW 1521   1.272   1.445   4.866
  501SOL    HW1 1522   1.319   1.458   4.953
  501SOL    HW2 1523   1.206   1.371   4.875
  502SOL     OW 1524   1.582   0.639   4.196
  502SOL    HW1 1525   1.551   0.700   4.269
  502SOL    HW2 1526   1.632   0.691   4.127
  503SOL     OW 1527   0.573   0.870   4.753
  503SOL    HW1 1528   0.617   0.959   4.744
  503SOL    HW2 1529   0.510   0.870   4.830
  504SOL     OW 1530   1.360   0.862   4.769
  504SOL    HW1 1531   1.285   0.862   4.703
  504SOL    HW2 1532   1.397   0.770   4.778
  505SOL     OW 1533   1.209   0.525   3.999
  505SOL    HW1 1534   1.222   0.441   4.053
  505SOL    HW2 1535   1.180   0.599   4.059
  506SOL     OW 1536   0.307   0.213   4.955
  506SOL    HW1 1537   0.284   0.250   5.045
  506SOL    HW2 1538   0.277   0.118   4.949
  507SOL     OW 1539   0.037   1.310   5.006
  507SOL    HW1 1540   0.090   1.261   5.074
  507SOL    HW2 1541   0.059   1.408   5.011
  508SOL     OW 1542   0.732   0.634   4.788
  508SOL    HW1 1543   0.791   0.608   4.712
  508SOL    HW2 1544   0.704   0.730   4.777
  509SOL     OW 1545   0.307   0.063   4.342
  509SOL    HW1 1546   0.296   0.157   4.375
  509SOL    HW2 1547   0.302   0.000   4.419
  510SOL     OW 1548   1.622   0.367   4.098
  510SOL    HW1 1549   1.624   0.291   4.162
  510SOL    HW2 1550   1.574   0.444   4.138
  511SOL     OW 1551   1.023   0.766   4.690
  511SOL    HW1 1552   1.038   0.787   4.786
  511SOL    HW2 1553   0.993   0.671   4.681
  512SOL     OW 1554   1.540   0.274   3.849
  512SOL    HW1 1555   1.479   0.199   3.872
  512SOL    HW2 1556   1.562   0.326   3.932
  513SOL     OW 1557   1.303   0.838   3.766
  513SOL    HW1 1558   1.337   0.745   3.781
  513SOL    HW2 1559   1.321   0.865   3.671
  514SOL     OW 1560   1.068   1.333   4.573
  514SOL    HW1 1561   1.075   1.249   4.518
  514SOL    HW2 1562   1.130   1.402   4.537
  515SOL     OW 1563   0.319   0.810   4.673
  515SOL    HW1 1564   0.412   0.846   4.678
  515SOL    HW2 1565   0.313   0.725   4.725
  516SOL     OW 1566   0.339   0.509   4.730
  516SOL    HW1 1567   0.287   0.426   4.713
  516SOL    HW2 1568   0.416   0.514   4.666
  517SOL     OW 1569   1.160   0.207   5.201
  517SOL    HW1 1570   1.160   0.271   5.278
  517SOL    HW2 1571   1.188   0.255   5.118
  518SOL     OW 1572   0.008   1.326   3.924
  518SOL    HW1 1573  -0.085   1.347   3.893
  518SOL    HW2 1574   0.018   1.227   3.937
  519SOL     OW 1575   0.088   1.801   4.651
  519SOL    HW1 1576   0.046   1.715   4.624
  519SOL    HW2 1577   0.182   1.804   4.617
  520SOL     OW 1578   0.504   1.568   4.634
  520SOL    HW1 1579   0.570   1.642   4.643
  520SOL    HW2 1580   0.548   1.489   4.592
  521SOL     OW 1581   1.002   0.796   4.962
  521SOL    HW1 1582   1.043   0.764   5.048
  521SOL    HW2 1583   0.906   0.769   4.959
  522SOL     OW 1584   0.040   0.544   4.838
  522SOL    HW1 1585   0.125   0.511   4.797
  522SOL    HW2 1586   0.053   0.559   4.936
  523SOL     OW 1587   0.815   0.572   4.049
  523SOL    HW1 1588   0.822   0.483   4.003
  523SOL    HW2 1589   0.721   0.606   4.041
  524SOL     OW 1590   1.657   0.604   4.930
  524SOL    HW1 1591   1.619   0.535   4.992
  524SOL    HW2 1592   1.739   0.568   4.886
  525SOL     OW 1593   0.671   0.464   4.993
  525SOL    HW1 1594   0.637   0.375   4.963
  525SOL    HW2 1595   0.697   0.518   4.913
  526SOL     OW 1596   0.473   0.500   3.915
  526SOL    HW1 1597   0.534   0.580   3.919
  526SOL    HW2 1598   0.378   0.531   3.922
  527SOL     OW 1599   1.347   1.059   4.958
  527SOL    HW1 1600   1.371   0.996   4.884
  527SOL    HW2 1601   1.257   1.099   4.940
  528SOL     OW 1602   1.302   0.855   4.033
  528SOL    HW1 1603   1.216   0.824   4.075
  528SOL    HW2 1604   1.298   0.841   3.934
  529SOL     OW 1605   1.759   1.747   4.878
  529SOL    HW1 1606   1.820   1.777   4.805
  529SOL    HW2 1607   1.721   1.658   4.856
  530SOL     OW 1608   0.083   1.258   4.746
  530SOL    HW1 1609   0.078   1.257   4.846
  530SOL    HW2 1610   0.000   1.217   4.708
  531SOL     OW 1611   1.726   0.135   4.247
  531SOL    HW1 1612   1.799   0.118   4.180
  531SOL    HW2 1613   1.695   0.048   4.285
  532SOL     OW 1614   1.388   1.573   4.201
  532SOL    HW1 1615   1.455   1.585   4.127
  532SOL    HW2 1616   1.348   1.662   4.224
  533SOL     OW 1617   1.280   0.927   4.396
  533SOL    HW1 1618   1.340   0.846   4.398
  533SOL    HW2 1619   1.320   0.996   4.336
  534SOL     OW 1620   0.672   1.616   3.878
  534SOL    HW1 1621   0.681   1.626   3.779
  534SOL    HW2 1622   0.632   1.527   3.899
  535SOL     OW 1623   1.650   1.720   5.118
  535SOL    HW1 1624   1.703   1.730   5.034
  535SOL    HW2 1625   1.623   1.810   5.152
  536SOL     OW 1626   1.841   0.175   4.687
  536SOL    HW1 1627   1.880   0.090   4.651
  536SOL    HW2 1628   1.743   0.177   4.668
  537SOL     OW 1629   0.263   0.326   4.444
  537SOL    HW1 1630   0.184   0.377   4.410
  537SOL    HW2 1631   0.254   0.311   4.542
  538SOL     OW 1632   1.194   1.612   3.755
  538SOL    HW1 1633   1.200   1.519   3.792
  538SOL    HW2 1634   1.135   1.612   3.675
  539SOL     OW 1635   0.822   1.002   5.096
  539SOL    HW1 1636   0.862   1.001   5.004
  539SOL    HW2 1637   0.832   1.094   5.136
  540SOL     OW 1638   0.916   0.910   4.015
  540SOL    HW1 1639   0.979   0.948   3.947
  540SOL    HW2 1640   0.956   0.827   4.054
  541SOL     OW 1641   1.504   1.607   3.768
  541SOL    HW1 1642   1.412   1.644   3.775
  541SOL    HW2 1643   1.542   1.627   3.678
  542SOL     OW 1644   1.039   1.098   4.420
  542SOL    HW1 1645   0.969   1.051   4.474
  542SOL    HW2 1646   1.098   1.030   4.377
  543SOL     OW 1647   1.014   0.236   4.695
  543SOL    HW1 1648   1.006   0.200   4.602
  543SOL    HW2 1649   1.012   0.160   4.760
  544SOL     OW 1650   0.590   1.487   4.215
  544SOL    HW1 1651   0.632   1.429   4.145
  544SOL    HW2 1652   0.546   1.566   4.171
  545SOL     OW 1653   1.709   0.385   5.105
  545SOL    HW1 1654   1.782   0.454   5.109
  545SOL    HW2 1655   1.737   0.310   5.046
  546SOL     OW 1656   0.255   1.348   4.014
  546SOL    HW1 1657   0.159   1.349   3.987
  546SOL    HW2 1658   0.267   1.401   4.098
  547SOL     OW 1659   0.075   0.345   3.757
  547SOL    HW1 1660  -0.017   0.317   3.728
  547SOL    HW2 1661   0.106   0.422   3.701
  548SOL     OW 1662   0.072   0.166   4.042
  548SOL    HW1 1663   0.055   0.249   3.988
  548SOL    HW2 1664   0.162   0.129   4.020
  549SOL     OW 1665   1.183   1.335   3.843
  549SOL    HW1 1666   1.084   1.324   3.845
  549SOL    HW2 1667   1.217   1.350   3.936
  550SOL     OW 1668   1.493   1.767   4.683
  550SOL    HW1 1669   1.526   1.831   4.614
  550SOL    HW2 1670   1.559   1.761   4.758
  551SOL     OW 1671   1.674   0.883   4.978
  551SOL    HW1 1672   1.647   0.794   4.941
  551SOL    HW2 1673   1.675   0.951   4.905
  552SOL     OW 1674   1.225   0.325   4.173
  552SOL    HW1 1675   1.290   0.251   4.162
  552SOL    HW2 1676   1.245   0.375   4.257
  553SOL     OW 1677   0.594   0.745   4.376
  553SOL    HW1 1678   0.644   0.830   4.357
  553SOL    HW2 1679   0.506   0.747   4.328
  554SOL     OW 1680   1.730   0.934   5.241
  554SOL    HW1 1681   1.768   1.025   5.256
  554SOL    HW2 1682   1.722   0.917   5.142
  555SOL     OW 1683   0.859   1.374   3.740
  555SOL    HW1 1684   0.813   1.389   3.828
  555SOL    HW2 1685   0.903   1.459   3.710
  556SOL     OW 1686   0.661   1.790   4.677
  556SOL    HW1 1687   0.615   1.878   4.664
  556SOL    HW2 1688   0.760   1.802   4.670
  557SOL     OW 1689   0.859   0.956   4.585
  557SOL    HW1 1690   0.913   0.887   4.633
  557SOL    HW2 1691   0.827   1.025   4.651
  558SOL     OW 1692   1.083   0.984   3.811
  558SOL    HW1 1693   1.060   1.037   3.729
  558SOL    HW2 1694   1.164   0.928   3.792
  559SOL     OW 1695   1.861   1.569   4.575
  559SOL    HW1 1696   1.790   1.557   4.505
  559SOL    HW2 1697   1.862   1.490   4.635
  560SOL     OW 1698   0.079   1.240   4.377
  560SOL    HW1 1699   0.078   1.193   4.465
  560SOL    HW2 1700   0.161   1.212   4.326
  561SOL     OW 1701   1.824   0.192   4.951
  561SOL    HW1 1702   1.820   0.102   4.995
  561SOL    HW2 1703   1.827   0.181   4.852
  562SOL     OW 1704   0.428   0.424   4.244
  562SOL    HW1 1705   0.458   0.352   4.182
  562SOL    HW2 1706   0.389   0.384   4.327
  563SOL     OW 1707   1.705   1.487   4.828
  563SOL    HW1 1708   1.612   1.462   4.801
  563SOL    HW2 1709   1.731   1.437   4.910
  564SOL     OW 1710   0.812   1.586   4.411
  564SOL    HW1 1711   0.844   1.596   4.317
  564SOL    HW2 1712   0.733   1.524   4.413
  565SOL     OW 1713   1.424   0.214   4.836
  565SOL    HW1 1714   1.476   0.149   4.891
  565SOL    HW2 1715   1.375   0.277   4.897
  566SOL     OW 1716   1.001   0.034   4.878
  566SOL    HW1 1717   0.938  -0.038   4.847
  566SOL    HW2 1718   1.094  -0.002   4.878
  567SOL     OW 1719   0.770   1.330   4.025
  567SOL    HW1 1720   0.724   1.243   4.042
  567SOL    HW2 1721   0.861   1.327   4.066
  568SOL     OW 1722   1.352   0.052   3.892
  568SOL    HW1 1723   1.387   0.011   3.808
  568SOL    HW2 1724   1.262   0.014   3.912
  569SOL     OW 1725   1.300   0.453   4.415
  569SOL    HW1 1726   1.241   0.533   4.419
  569SOL    HW2 1727   1.315   0.418   4.508
  570SOL     OW 1728   1.593   0.221   4.606
  570SOL    HW1 1729   1.509   0.220   4.660
  570SOL    HW2 1730   1.595   0.304   4.550
  571SOL     OW 1731   0.039   1.077   4.024
  571SOL    HW1 1732   0.138   1.066   4.015
  571SOL    HW2 1733  -0.001   0.991   4.056
  572SOL     OW 1734   0.875   1.646   4.061
  572SOL    HW1 1735   0.798   1.611   4.007
  572SOL    HW2 1736   0.843   1.717   4.123
  573SOL     OW 1737   0.230   2.490   0.113
  573SOL    HW1 1738   0.137   2.488   0.150
  573SOL    HW2 1739   0.231   2.451   0.021
  574SOL     OW 1740   0.225   2.137   0.996
  574SOL    HW1 1741   0.260   2.120   1.088
  574SOL    HW2 1742   0.137   2.092   0.984
  575SOL     OW 1743   0.019   2.230   0.647
  575SOL    HW1 1744  -0.063   2.273   0.686
  575SOL    HW2 1745  -0.009   2.157   0.584
  576SOL     OW 1746   0.569   3.137   1.165
  576SOL    HW1 1747   0.476   3.130   1.128
  576SOL    HW2 1748   0.580   3.226   1.209
  577SOL     OW 1749   1.555   3.373   0.703
  577SOL    HW1 1750   1.498   3.357   0.784
  577SOL    HW2 1751   1.496   3.383   0.623
  578SOL     OW 1752   1.135   2.565   0.717
  578SOL    HW1 1753   1.192   2.643   0.692
  578SOL    HW2 1754   1.075   2.591   0.793
  579SOL     OW 1755   1.755   2.469   0.231
  579SOL    HW1 1756   1.743   2.456   0.132
  579SOL    HW2 1757   1.725   2.388   0.280
  580SOL     OW 1758   0.768   3.006   1.023
  580SOL    HW1 1759   0.690   3.023   1.083
  580SOL    HW2 1760   0.802   3.093   0.987
  581SOL     OW 1761   0.850   2.660   1.823
  581SOL    HW1 1762   0.846   2.736   1.888
  581SOL    HW2 1763   0.872   2.696   1.732
  582SOL     OW 1764   0.685   2.874   0.665
  582SOL    HW1 1765   0.754   2.858   0.735
  582SOL    HW2 1766   0.612   2.931   0.703
  583SOL     OW 1767   0.686   3.023   1.803
  583SOL    HW1 1768   0.746   3.102   1.817
  583SOL    HW2 1769   0.600   3.054   1.762
  584SOL     OW 1770   0.335   3.297   1.061
  584SOL    HW1 1771   0.257   3.266   1.008
  584SOL    HW2 1772   0.393   3.355   1.004
  585SOL     OW 1773   1.460   3.367   1.339
  585SOL    HW1 1774   1.484   3.461   1.365
  585SOL    HW2 1775   1.444   3.313   1.421
  586SOL     OW 1776   0.438   2.254   1.499
  586SOL    HW1 1777   0.520   2.198   1.508
  586SOL    HW2 1778   0.357   2.196   1.503
  587SOL     OW 1779   1.603   2.309   0.737
  587SOL    HW1 1780   1.529   2.355   0.687
  587SOL    HW2 1781   1.654   2.377   0.790
  588SOL     OW 1782   0.231   3.575   0.483
  588SOL    HW1 1783   0.265   3.652   0.537
  588SOL    HW2 1784   0.275   3.575   0.393
  589SOL     OW 1785   1.127   3.203   1.690
  589SOL    HW1 1786   1.174   3.203   1.778
  589SOL    HW2 1787   1.079   3.116   1.679
  590SOL     OW 1788   0.230   3.296   0.538
  590SOL    HW1 1789   0.204   3.392   0.538
  590SOL    HW2 1790   0.159   3.242   0.583
  591SOL     OW 1791   0.240   2.953   0.886
  591SOL    HW1 1792   0.254   2.869   0.938
  591SOL    HW2 1793   0.185   3.017   0.941
  592SOL     OW 1794   0.620   3.648   1.439
  592SOL    HW1 1795   0.528   3.631   1.474
  592SOL    HW2 1796   0.648   3.740   1.465
  593SOL     OW 1797   0.606   2.826   0.123
  593SOL    HW1 1798   0.613   2.910   0.069
  593SOL    HW2 1799   0.652   2.839   0.211
  594SOL     OW 1800   1.594   1.976   1.480
  594SOL    HW1 1801   1.576   2.043   1.408
  594SOL    HW2 1802   1.591   2.022   1.569
  595SOL     OW 1803   0.122   2.505   0.563
  595SOL    HW1 1804   0.077   2.417   0.580
  595SOL    HW2 1805   0.121   2.559   0.647
  596SOL     OW 1806   1.842   3.629   0.359
  596SOL    HW1 1807   1.896   3.600   0.439
  596SOL    HW2 1808   1.872   3.719   0.330
  597SOL     OW 1809   0.027   3.458   0.117
  597SOL    HW1 1810   0.008   3.362   0.138
  597SOL    HW2 1811  -0.006   3.516   0.192
  598SOL     OW 1812   1.689   2.784   0.612
  598SOL    HW1 1813   1.784   2.755   0.620
  598SOL    HW2 1814   1.681   2.849   0.537
  599SOL     OW 1815   1.641   2.970   0.432
  599SOL    HW1 1816   1.727   2.972   0.380
  599SOL    HW2 1817   1.655   3.017   0.520
  600SOL     OW 1818   0.113   2.599   1.597
  600SOL    HW1 1819   0.201   2.586   1.642
  600SOL    HW2 1820   0.100   2.696   1.575
  601SOL     OW 1821   0.613   3.227   0.726
  601SOL    HW1 1822   0.564   3.140   0.735
  601SOL    HW2 1823   0.590   3.270   0.639
  602SOL     OW 1824   1.293   3.090   1.423
  602SOL    HW1 1825   1.330   3.017   1.365
  602SOL    HW2 1826   1.345   3.095   1.508
  603SOL     OW 1827   0.809   1.866   0.502
  603SOL    HW1 1828   0.849   1.957   0.493
  603SOL    HW2 1829   0.709   1.874   0.508
  604SOL     OW 1830   0.197   2.838   1.264
  604SOL    HW1 1831   0.286   2.793   1.250
  604SOL    HW2 1832   0.124   2.773   1.245
  605SOL     OW 1833   1.525   2.861   0.190
  605SOL    HW1 1834   1.462   2.785   0.203
  605SOL    HW2 1835   1.573   2.879   0.276
  606SOL     OW 1836   1.187   3.654   1.616
  606SOL    HW1 1837   1.211   3.714   1.540
  606SOL    HW2 1838   1.194   3.559   1.586
  607SOL     OW 1839   0.317   2.113   1.801
  607SOL    HW1 1840   0.388   2.184   1.807
  607SOL    HW2 1841   0.229   2.152   1.829
  608SOL     OW 1842   1.466   3.279   0.953
  608SOL    HW1 1843   1.407   3.285   1.033
  608SOL    HW2 1844   1.451   3.191   0.907
  609SOL     OW 1845   1.667   3.576   0.572
  609SOL    HW1 1846   1.626   3.553   0.484
  609SOL    HW2 1847   1.649   3.502   0.637
  610SOL     OW 1848   0.598   2.591   0.270
  610SOL    HW1 1849   0.622   2.660   0.202
  610SOL    HW2 1850   0.520   2.624   0.324
  611SOL     OW 1851   1.281   2.207   0.944
  611SOL    HW1 1852   1.195   2.157   0.931
  611SOL    HW2 1853   1.343   2.153   1.000
  612SOL     OW 1854   1.576   3.524   0.307
  612SOL    HW1 1855   1.665   3.570   0.310
  612SOL    HW2 1856   1.555   3.500   0.212
  613SOL     OW 1857   0.807   2.467   1.465
  613SOL    HW1 1858   0.760   2.464   1.554
  613SOL    HW2 1859   0.756   2.412   1.399
  614SOL     OW 1860   1.394   2.331   1.674
  614SOL    HW1 1861   1.374   2.374   1.762
  614SOL    HW2 1862   1.472   2.269   1.683
  615SOL     OW 1863   0.973   2.752   1.572
  615SOL    HW1 1864   1.019   2.668   1.543
  615SOL    HW2 1865   0.917   2.786   1.497
  616SOL     OW 1866   0.991   2.272   1.242
  616SOL    HW1 1867   0.914   2.306   1.296
  616SOL    HW2 1868   0.957   2.221   1.163
  617SOL     OW 1869   1.041   2.563   0.429
  617SOL    HW1 1870   1.067   2.559   0.525
  617SOL    HW2 1871   0.956   2.512   0.415
  618SOL     OW 1872   0.076   2.673   0.789
  618SOL    HW1 1873   0.175   2.661   0.798
  618SOL    HW2 1874   0.052   2.768   0.810
  619SOL     OW 1875   0.130   3.683   1.571
  619SOL    HW1 1876   0.120   3.668   1.670
  619SOL    HW2 1877   0.044   3.719   1.535
  620SOL     OW 1878   0.865   2.210   0.195
  620SOL    HW1 1879   0.924   2.273   0.146
  620SOL    HW2 1880   0.884   2.116   0.166
  621SOL     OW 1881   1.719   2.447   1.831
  621SOL    HW1 1882   1.693   2.536   1.795
  621SOL    HW2 1883   1.717   2.379   1.758
  622SOL     OW 1884   1.362   3.006   0.545
  622SOL    HW1 1885   1.445   2.977   0.497
  622SOL    HW2 1886   1.313   3.073   0.489
  623SOL     OW 1887   0.550   2.058   0.885
  623SOL    HW1 1888   0.545   2.053   0.985
  623SOL    HW2 1889   0.552   2.154   0.856
  624SOL     OW 1890   1.008   3.318   0.477
  624SOL    HW1 1891   0.962   3.390   0.425
  624SOL    HW2 1892   1.004   3.338   0.575
  625SOL     OW 1893   0.351   3.663   0.853
  625SOL    HW1 1894   0.401   3.577   0.859
  625SOL    HW2 1895   0.416   3.740   0.850
  626SOL     OW 1896   1.795   2.928   0.873
  626SOL    HW1 1897   1.733   2.913   0.797
  626SOL    HW2 1898   1.743   2.939   0.958
  627SOL     OW 1899   1.227   3.412   1.506
  627SOL    HW1 1900   1.233   3.335   1.570
  627SOL    HW2 1901   1.175   3.386   1.426
  628SOL     OW 1902   0.321   2.805   0.242
  628SOL    HW1 1903   0.403   2.844   0.200
  628SOL    HW2 1904   0.294   2.723   0.193
  629SOL     OW 1905   1.458   2.597   0.728
  629SOL    HW1 1906   1.453   2.532   0.803
  629SOL    HW2 1907   1.538   2.656   0.741
  630SOL     OW 1908   0.461   3.128   1.727
  630SOL    HW1 1909   0.411   3.129   1.641
  630SOL    HW2 1910   0.398   3.110   1.803
  631SOL     OW 1911   1.111   3.638   0.237
  631SOL    HW1 1912   1.051   3.576   0.287
  631SOL    HW2 1913   1.142   3.594   0.152
  632SOL     OW 1914   0.202   2.147   1.498
  632SOL    HW1 1915   0.122   2.207   1.485
  632SOL    HW2 1916   0.192   2.098   1.584
  633SOL     OW 1917   1.632   3.239   0.081
  633SOL    HW1 1918   1.600   3.333   0.071
  633SOL    HW2 1919   1.556   3.176   0.069
  634SOL     OW 1920   0.464   3.605   0.323
  634SOL    HW1 1921   0.497   3.644   0.409
  634SOL    HW2 1922   0.540   3.598   0.258
  635SOL     OW 1923   1.400   1.969   0.426
  635SOL    HW1 1924   1.376   1.932   0.336
  635SOL    HW2 1925   1.499   1.985   0.430
  636SOL     OW 1926   0.249   3.647   1.241
  636SOL    HW1 1927   0.306   3.582   1.291
  636SOL    HW2 1928   0.233   3.614   1.148
  637SOL     OW 1929   0.940   3.560   0.904
  637SOL    HW1 1930   1.020   3.503   0.925
  637SOL    HW2 1931   0.891   3.520   0.827
  638SOL     OW 1932   0.382   2.562   0.480
  638SOL    HW1 1933   0.427   2.472   0.477
  638SOL    HW2 1934   0.288   2.551   0.513
  639SOL     OW 1935   1.547   2.084   1.729
  639SOL    HW1 1936   1.542   2.121   1.821
  639SOL    HW2 1937   1.475   2.015   1.717
  640SOL     OW 1938   0.614   1.984   0.117
  640SOL    HW1 1939   0.712   1.962   0.124
  640SOL    HW2 1940   0.583   1.967   0.024
  641SOL     OW 1941   0.781   2.126   1.749
  641SOL    HW1 1942   0.848   2.065   1.792
  641SOL    HW2 1943   0.708   2.145   1.814
  642SOL     OW 1944   0.888   3.376   1.195
  642SOL    HW1 1945   0.865   3.351   1.101
  642SOL    HW2 1946   0.949   3.307   1.234
  643SOL     OW 1947   1.351   2.452   1.433
  643SOL    HW1 1948   1.379   2.409   1.518
  643SOL    HW2 1949   1.376   2.548   1.434
  644SOL     OW 1950   0.803   3.264   0.924
  644SOL    HW1 1951   0.893   3.278   0.882
  644SOL    HW2 1952   0.732   3.266   0.853
  645SOL     OW 1953   0.922   2.365   0.899
  645SOL    HW1 1954   0.897   2.356   0.803
  645SOL    HW2 1955   0.970   2.283   0.930
  646SOL     OW 1956   0.539   1.926   0.512
  646SOL    HW1 1957   0.458   1.927   0.570
  646SOL    HW2 1958   0.542   2.009   0.457
  647SOL     OW 1959   1.434   3.050   0.041
  647SOL    HW1 1960   1.466   2.974   0.098
  647SOL    HW2 1961   1.342   3.077   0.071
  648SOL     OW 1962   0.297   1.897   0.171
  648SOL    HW1 1963   0.346   1.981   0.150
  648SOL    HW2 1964   0.359   1.832   0.216
  649SOL     OW 1965   0.935   2.098   0.480
  649SOL    HW1 1966   0.887   2.139   0.402
  649SOL    HW2 1967   1.034   2.096   0.461
  650SOL     OW 1968   1.076   2.545   1.464
  650SOL    HW1 1969   0.996   2.484   1.467
  650SOL    HW2 1970   1.157   2.492   1.440
  651SOL     OW 1971   1.227   3.432   0.793
  651SOL    HW1 1972   1.248   3.506   0.728
  651SOL    HW2 1973   1.295   3.432   0.866
  652SOL     OW 1974   0.459   3.014   0.741
  652SOL    HW1 1975   0.388   2.987   0.806
  652SOL    HW2 1976   0.433   2.986   0.648
  653SOL     OW 1977   1.271   3.659   0.591
  653SOL    HW1 1978   1.315   3.723   0.527
  653SOL    HW2 1979   1.221   3.711   0.661
  654SOL     OW 1980   1.032   2.411   0.016
  654SOL    HW1 1981   0.991   2.493  -0.023
  654SOL    HW2 1982   1.096   2.437   0.089
  655SOL     OW 1983   0.078   2.418   1.386
  655SOL    HW1 1984   0.170   2.417   1.345
  655SOL    HW2 1985   0.072   2.492   1.453
  656SOL     OW 1986   0.561   2.084   1.147
  656SOL    HW1 1987   0.599   2.000   1.184
  656SOL    HW2 1988   0.473   2.103   1.191
  657SOL     OW 1989   0.866   2.316   0.642
  657SOL    HW1 1990   0.834   2.388   0.580
  657SOL    HW2 1991   0.890   2.235   0.589
  658SOL     OW 1992   1.017   1.901   0.753
  658SOL    HW1 1993   0.945   1.906   0.684
  658SOL    HW2 1994   0.993   1.832   0.822
  659SOL     OW 1995   1.429   3.035   0.867
  659SOL    HW1 1996   1.374   2.951   0.860
  659SOL    HW2 1997   1.455   3.064   0.775
  660SOL     OW 1998   1.466   2.452   0.992
  660SOL    HW1 1999   1.436   2.357   0.999
  660SOL    HW2 2000   1.539   2.468   1.058
  661SOL     OW 2001   1.857   2.695   0.377
  661SOL    HW1 2002   1.899   2.631   0.441
  661SOL    HW2 2003   1.819   2.644   0.299
  662SOL     OW 2004   0.488   3.247   0.174
  662SOL    HW1 2005   0.401   3.232   0.221
  662SOL    HW2 2006   0.471   3.273   0.079
  663SOL     OW 2007   1.664   3.142   0.657
  663SOL    HW1 2008   1.763   3.150   0.671
  663SOL    HW2 2009   1.619   3.226   0.688
  664SOL     OW 2010   1.390   2.437   0.078
  664SOL    HW1 2011   1.336   2.416   0.159
  664SOL    HW2 2012   1.481   2.396   0.087
  665SOL     OW 2013   0.527   2.118   0.328
  665SOL    HW1 2014   0.554   2.059   0.253
  665SOL    HW2 2015   0.527   2.213   0.297
  666SOL     OW 2016   1.754   3.085   1.588
  666SOL    HW1 2017   1.845   3.046   1.575
  666SOL    HW2 2018   1.762   3.181   1.612
  667SOL     OW 2019   1.064   3.209   1.340
  667SOL    HW1 2020   0.984   3.186   1.395
  667SOL    HW2 2021   1.147   3.183   1.389
  668SOL     OW 2022   1.592   3.491   1.625
  668SOL    HW1 2023   1.619   3.525   1.535
  668SOL    HW2 2024   1.671   3.453   1.671
  669SOL     OW 2025   1.111   3.057   1.100
  669SOL    HW1 2026   1.071   3.101   1.181
  669SOL    HW2 2027   1.070   3.094   1.017
  670SOL     OW 2028   1.638   2.961   1.079
  670SOL    HW1 2029   1.643   3.042   1.138
  670SOL    HW2 2030   1.552   2.963   1.028
  671SOL     OW 2031   0.915   1.951   1.402
  671SOL    HW1 2032   0.940   1.931   1.307
  671SOL    HW2 2033   0.987   2.007   1.444
  672SOL     OW 2034   0.980   2.978   1.719
  672SOL    HW1 2035   0.881   2.984   1.729
  672SOL    HW2 2036   1.003   2.898   1.663
  673SOL     OW 2037   0.705   2.912   0.368
  673SOL    HW1 2038   0.691   2.919   0.467
  673SOL    HW2 2039   0.789   2.861   0.350
  674SOL     OW 2040   0.410   2.675   1.251
  674SOL    HW1 2041   0.496   2.687   1.301
  674SOL    HW2 2042   0.368   2.588   1.278
  675SOL     OW 2043   1.274   2.248   1.262
  675SOL    HW1 2044   1.295   2.322   1.326
  675SOL    HW2 2045   1.185   2.265   1.219
  676SOL     OW 2046   0.064   3.426   1.331
  676SOL    HW1 2047   0.018   3.508   1.297
  676SOL    HW2 2048   0.162   3.445   1.340
  677SOL     OW 2049   0.367   2.962   0.501
  677SOL    HW1 2050   0.360   3.045   0.445
  677SOL    HW2 2051   0.371   2.882   0.441
  678SOL     OW 2052   0.566   2.399   0.865
  678SOL    HW1 2053   0.578   2.465   0.791
  678SOL    HW2 2054   0.612   2.433   0.948
  679SOL     OW 2055   1.252   3.210   0.388
  679SOL    HW1 2056   1.302   3.287   0.428
  679SOL    HW2 2057   1.157   3.212   0.420
  680SOL     OW 2058   1.272   3.307   1.142
  680SOL    HW1 2059   1.319   3.320   1.229
  680SOL    HW2 2060   1.206   3.233   1.151
  681SOL     OW 2061   1.582   2.501   0.472
  681SOL    HW1 2062   1.551   2.562   0.545
  681SOL    HW2 2063   1.632   2.553   0.403
  682SOL     OW 2064   0.354   3.372   1.329
  682SOL    HW1 2065   0.333   3.328   1.242
  682SOL    HW2 2066   0.451   3.398   1.332
  683SOL     OW 2067   0.402   2.613   1.598
  683SOL    HW1 2068   0.470   2.668   1.551
  683SOL    HW2 2069   0.442   2.525   1.625
  684SOL     OW 2070   1.587   2.641   1.670
  684SOL    HW1 2071   1.495   2.679   1.665
  684SOL    HW2 2072   1.647   2.688   1.605
  685SOL     OW 2073   1.013   1.967   1.770
  685SOL    HW1 2074   1.019   2.052   1.718
  685SOL    HW2 2075   1.045   1.891   1.713
  686SOL     OW 2076   0.504   1.912   1.740
  686SOL    HW1 2077   0.462   1.855   1.670
  686SOL    HW2 2078   0.438   1.981   1.772
  687SOL     OW 2079   0.573   2.732   1.029
  687SOL    HW1 2080   0.617   2.821   1.020
  687SOL    HW2 2081   0.510   2.732   1.106
  688SOL     OW 2082   1.360   2.724   1.045
  688SOL    HW1 2083   1.285   2.724   0.979
  688SOL    HW2 2084   1.397   2.632   1.054
  689SOL     OW 2085   1.209   2.387   0.275
  689SOL    HW1 2086   1.222   2.303   0.329
  689SOL    HW2 2087   1.180   2.461   0.335
  690SOL     OW 2088   0.307   2.075   1.231
  690SOL    HW1 2089   0.284   2.112   1.321
  690SOL    HW2 2090   0.277   1.980   1.225
  691SOL     OW 2091   0.037   3.172   1.282
  691SOL    HW1 2092   0.090   3.123   1.350
  691SOL    HW2 2093   0.059   3.270   1.287
  692SOL     OW 2094   0.732   2.496   1.064
  692SOL    HW1 2095   0.791   2.470   0.988
  692SOL    HW2 2096   0.704   2.592   1.053
  693SOL     OW 2097   1.728   2.797   1.854
  693SOL    HW1 2098   1.682   2.790   1.765
  693SOL    HW2 2099   1.666   2.841   1.920
  694SOL     OW 2100   0.307   1.925   0.618
  694SOL    HW1 2101   0.296   2.019   0.651
  694SOL    HW2 2102   0.302   1.862   0.695
  695SOL     OW 2103   1.622   2.229   0.374
  695SOL    HW1 2104   1.624   2.153   0.438
  695SOL    HW2 2105   1.574   2.306   0.414
  696SOL     OW 2106   1.023   2.628   0.966
  696SOL    HW1 2107   1.038   2.649   1.062
  696SOL    HW2 2108   0.993   2.533   0.957
  697SOL     OW 2109   0.980   3.435   1.700
  697SOL    HW1 2110   0.960   3.479   1.612
  697SOL    HW2 2111   1.019   3.344   1.684
  698SOL     OW 2112   1.859   3.380   1.605
  698SOL    HW1 2113   1.873   3.407   1.510
  698SOL    HW2 2114   1.942   3.402   1.658
  699SOL     OW 2115   0.350   2.760   1.804
  699SOL    HW1 2116   0.426   2.804   1.852
  699SOL    HW2 2117   0.385   2.713   1.722
  700SOL     OW 2118   1.540   2.136   0.125
  700SOL    HW1 2119   1.479   2.061   0.148
  700SOL    HW2 2120   1.562   2.188   0.208
  701SOL     OW 2121   1.303   2.700   0.042
  701SOL    HW1 2122   1.337   2.607   0.057
  701SOL    HW2 2123   1.321   2.727  -0.053
  702SOL     OW 2124   1.068   3.195   0.849
  702SOL    HW1 2125   1.075   3.111   0.794
  702SOL    HW2 2126   1.130   3.264   0.813
  703SOL     OW 2127   0.319   2.672   0.949
  703SOL    HW1 2128   0.412   2.708   0.954
  703SOL    HW2 2129   0.313   2.587   1.001
  704SOL     OW 2130   0.339   2.371   1.006
  704SOL    HW1 2131   0.287   2.288   0.989
  704SOL    HW2 2132   0.416   2.376   0.942
  705SOL     OW 2133   1.138   2.242   1.678
  705SOL    HW1 2134   1.093   2.305   1.742
  705SOL    HW2 2135   1.231   2.273   1.661
  706SOL     OW 2136   1.160   2.069   1.477
  706SOL    HW1 2137   1.160   2.133   1.554
  706SOL    HW2 2138   1.188   2.117   1.394
  707SOL     OW 2139   0.008   3.188   0.200
  707SOL    HW1 2140  -0.085   3.209   0.169
  707SOL    HW2 2141   0.018   3.089   0.213
  708SOL     OW 2142   0.088   3.663   0.927
  708SOL    HW1 2143   0.046   3.577   0.900
  708SOL    HW2 2144   0.182   3.666   0.893
  709SOL     OW 2145   0.504   3.430   0.910
  709SOL    HW1 2146   0.570   3.504   0.919
  709SOL    HW2 2147   0.548   3.351   0.868
  710SOL     OW 2148   1.002   2.658   1.238
  710SOL    HW1 2149   1.043   2.626   1.324
  710SOL    HW2 2150   0.906   2.631   1.235
  711SOL     OW 2151   0.040   2.406   1.114
  711SOL    HW1 2152   0.125   2.373   1.073
  711SOL    HW2 2153   0.053   2.421   1.212
  712SOL     OW 2154   0.189   2.382   1.722
  712SOL    HW1 2155   0.248   2.342   1.652
  712SOL    HW2 2156   0.131   2.453   1.681
  713SOL     OW 2157   1.369   2.812   1.660
  713SOL    HW1 2158   1.408   2.901   1.680
  713SOL    HW2 2159   1.379   2.792   1.563
  714SOL     OW 2160   0.815   2.434   0.325
  714SOL    HW1 2161   0.822   2.345   0.279
  714SOL    HW2 2162   0.721   2.468   0.317
  715SOL     OW 2163   1.657   2.466   1.206
  715SOL    HW1 2164   1.619   2.397   1.268
  715SOL    HW2 2165   1.739   2.430   1.162
  716SOL     OW 2166   0.252   3.426   1.744
  716SOL    HW1 2167   0.222   3.483   1.820
  716SOL    HW2 2168   0.245   3.329   1.770
  717SOL     OW 2169   0.671   2.326   1.269
  717SOL    HW1 2170   0.637   2.237   1.239
  717SOL    HW2 2171   0.697   2.380   1.189
  718SOL     OW 2172   0.930   3.540   1.465
  718SOL    HW1 2173   0.906   3.522   1.370
  718SOL    HW2 2174   0.960   3.634   1.475
  719SOL     OW 2175   0.473   2.362   0.191
  719SOL    HW1 2176   0.534   2.442   0.195
  719SOL    HW2 2177   0.378   2.393   0.198
  720SOL     OW 2178   0.159   2.999   1.466
  720SOL    HW1 2179   0.181   2.938   1.542
  720SOL    HW2 2180   0.169   2.950   1.380
  721SOL     OW 2181   1.347   2.921   1.234
  721SOL    HW1 2182   1.371   2.858   1.160
  721SOL    HW2 2183   1.257   2.961   1.216
  722SOL     OW 2184   1.302   2.717   0.309
  722SOL    HW1 2185   1.216   2.686   0.351
  722SOL    HW2 2186   1.298   2.703   0.210
  723SOL     OW 2187   1.759   3.609   1.154
  723SOL    HW1 2188   1.820   3.639   1.081
  723SOL    HW2 2189   1.721   3.520   1.132
  724SOL     OW 2190   1.252   3.593   1.128
  724SOL    HW1 2191   1.336   3.598   1.074
  724SOL    HW2 2192   1.229   3.497   1.146
  725SOL     OW 2193   0.083   3.120   1.022
  725SOL    HW1 2194   0.078   3.119   1.122
  725SOL    HW2 2195   0.000   3.079   0.984
  726SOL     OW 2196   0.688   3.524   1.716
  726SOL    HW1 2197   0.632   3.605   1.725
  726SOL    HW2 2198   0.740   3.528   1.630
  727SOL     OW 2199   0.903   1.948   0.133
  727SOL    HW1 2200   0.954   1.949   0.047
  727SOL    HW2 2201   0.959   1.906   0.204
  728SOL     OW 2202   1.726   1.997   0.523
  728SOL    HW1 2203   1.799   1.980   0.456
  728SOL    HW2 2204   1.695   1.910   0.561
  729SOL     OW 2205   1.388   3.435   0.477
  729SOL    HW1 2206   1.455   3.447   0.403
  729SOL    HW2 2207   1.348   3.524   0.500
  730SOL     OW 2208   0.130   3.656   1.851
  730SOL    HW1 2209   0.089   3.582   1.904
  730SOL    HW2 2210   0.194   3.707   1.909
  731SOL     OW 2211   1.280   2.789   0.672
  731SOL    HW1 2212   1.340   2.708   0.674
  731SOL    HW2 2213   1.320   2.858   0.612
  732SOL     OW 2214   0.830   3.135   1.422
  732SOL    HW1 2215   0.825   3.168   1.517
  732SOL    HW2 2216   0.744   3.154   1.376
  733SOL     OW 2217   0.672   3.478   0.154
  733SOL    HW1 2218   0.681   3.488   0.055
  733SOL    HW2 2219   0.632   3.389   0.175
  734SOL     OW 2220   1.650   3.582   1.394
  734SOL    HW1 2221   1.703   3.592   1.310
  734SOL    HW2 2222   1.623   3.672   1.428
  735SOL     OW 2223   1.841   2.037   0.963
  735SOL    HW1 2224   1.880   1.952   0.927
  735SOL    HW2 2225   1.743   2.039   0.944
  736SOL     OW 2226   0.263   2.188   0.720
  736SOL    HW1 2227   0.184   2.239   0.686
  736SOL    HW2 2228   0.254   2.173   0.818
  737SOL     OW 2229   1.194   3.474   0.031
  737SOL    HW1 2230   1.200   3.381   0.068
  737SOL    HW2 2231   1.135   3.474  -0.049
  738SOL     OW 2232   0.822   2.864   1.372
  738SOL    HW1 2233   0.862   2.863   1.280
  738SOL    HW2 2234   0.832   2.956   1.412
  739SOL     OW 2235   0.916   2.772   0.291
  739SOL    HW1 2236   0.979   2.810   0.223
  739SOL    HW2 2237   0.956   2.689   0.330
  740SOL     OW 2238   1.504   3.469   0.044
  740SOL    HW1 2239   1.412   3.506   0.051
  740SOL    HW2 2240   1.542   3.489  -0.046
  741SOL     OW 2241   0.372   3.150   1.490
  741SOL    HW1 2242   0.359   3.243   1.456
  741SOL    HW2 2243   0.288   3.098   1.477
  742SOL     OW 2244   1.614   3.154   1.289
  742SOL    HW1 2245   1.674   3.157   1.369
  742SOL    HW2 2246   1.539   3.218   1.302
  743SOL     OW 2247   1.039   2.960   0.696
  743SOL    HW1 2248   0.969   2.913   0.750
  743SOL    HW2 2249   1.098   2.892   0.653
  744SOL     OW 2250   1.014   2.098   0.971
  744SOL    HW1 2251   1.006   2.062   0.878
  744SOL    HW2 2252   1.012   2.022   1.036
  745SOL     OW 2253   0.590   3.349   0.491
  745SOL    HW1 2254   0.632   3.291   0.421
  745SOL    HW2 2255   0.546   3.428   0.447
  746SOL     OW 2256   1.709   2.247   1.381
  746SOL    HW1 2257   1.782   2.316   1.385
  746SOL    HW2 2258   1.737   2.172   1.322
  747SOL     OW 2259   0.255   3.210   0.290
  747SOL    HW1 2260   0.159   3.211   0.263
  747SOL    HW2 2261   0.267   3.263   0.374
  748SOL     OW 2262   0.105   2.875   1.726
  748SOL    HW1 2263   0.028   2.842   1.780
  748SOL    HW2 2264   0.190   2.845   1.768
  749SOL     OW 2265   0.672   2.065   1.489
  749SOL    HW1 2266   0.762   2.049   1.449
  749SOL    HW2 2267   0.680   2.070   1.588
  750SOL     OW 2268   0.075   2.207   0.033
  750SOL    HW1 2269  -0.017   2.179   0.004
  750SOL    HW2 2270   0.106   2.284  -0.023
  751SOL     OW 2271   1.440   2.718   1.398
  751SOL    HW1 2272   1.383   2.770   1.335
  751SOL    HW2 2273   1.536   2.730   1.374
  752SOL     OW 2274   0.072   2.028   0.318
  752SOL    HW1 2275   0.055   2.111   0.264
  752SOL    HW2 2276   0.162   1.991   0.296
  753SOL     OW 2277   1.183   3.197   0.119
  753SOL    HW1 2278   1.084   3.186   0.121
  753SOL    HW2 2279   1.217   3.212   0.212
  754SOL     OW 2280   0.613   2.704   1.431
  754SOL    HW1 2281   0.669   2.785   1.414
  754SOL    HW2 2282   0.672   2.624   1.434
  755SOL     OW 2283   1.493   3.629   0.959
  755SOL    HW1 2284   1.526   3.693   0.890
  755SOL    HW2 2285   1.559   3.623   1.034
  756SOL     OW 2286   0.716   2.427   1.708
  756SOL    HW1 2287   0.735   2.492   1.782
  756SOL    HW2 2288   0.776   2.347   1.717
  757SOL     OW 2289   1.450   3.082   1.633
  757SOL    HW1 2290   1.441   3.072   1.732
  757SOL    HW2 2291   1.546   3.075   1.607
  758SOL     OW 2292   0.390   3.603   1.560
  758SOL    HW1 2293   0.299   3.644   1.558
  758SOL    HW2 2294   0.383   3.509   1.592
  759SOL     OW 2295   1.674   2.745   1.254
  759SOL    HW1 2296   1.647   2.656   1.217
  759SOL    HW2 2297   1.675   2.813   1.181
  760SOL     OW 2298   1.225   2.187   0.449
  760SOL    HW1 2299   1.290   2.113   0.438
  760SOL    HW2 2300   1.245   2.237   0.533
  761SOL     OW 2301   0.594   2.607   0.652
  761SOL    HW1 2302   0.644   2.692   0.633
  761SOL    HW2 2303   0.506   2.609   0.604
  762SOL     OW 2304   1.777   2.204   1.642
  762SOL    HW1 2305   1.760   2.235   1.548
  762SOL    HW2 2306   1.693   2.167   1.680
  763SOL     OW 2307   1.730   2.796   1.517
  763SOL    HW1 2308   1.768   2.887   1.532
  763SOL    HW2 2309   1.722   2.779   1.418
  764SOL     OW 2310   0.859   3.236   0.016
  764SOL    HW1 2311   0.813   3.251   0.104
  764SOL    HW2 2312   0.903   3.321  -0.014
  765SOL     OW 2313   0.661   3.652   0.953
  765SOL    HW1 2314   0.615   3.740   0.940
  765SOL    HW2 2315   0.760   3.664   0.946
  766SOL     OW 2316   0.859   2.818   0.861
  766SOL    HW1 2317   0.913   2.749   0.909
  766SOL    HW2 2318   0.827   2.887   0.927
  767SOL     OW 2319   1.083   2.846   0.087
  767SOL    HW1 2320   1.060   2.899   0.005
  767SOL    HW2 2321   1.164   2.790   0.068
  768SOL     OW 2322   1.861   3.431   0.851
  768SOL    HW1 2323   1.790   3.419   0.781
  768SOL    HW2 2324   1.862   3.352   0.911
  769SOL     OW 2325   0.221   3.176   1.844
  769SOL    HW1 2326   0.156   3.103   1.823
  769SOL    HW2 2327   0.225   3.190   1.942
  770SOL     OW 2328   0.079   3.102   0.653
  770SOL    HW1 2329   0.078   3.055   0.741
  770SOL    HW2 2330   0.161   3.074   0.602
  771SOL     OW 2331   0.672   3.253   1.624
  771SOL    HW1 2332   0.594   3.203   1.662
  771SOL    HW2 2333   0.669   3.348   1.655
  772SOL     OW 2334   1.824   2.054   1.227
  772SOL    HW1 2335   1.820   1.964   1.271
  772SOL    HW2 2336   1.827   2.043   1.128
  773SOL     OW 2337   0.428   2.286   0.520
  773SOL    HW1 2338   0.458   2.214   0.458
  773SOL    HW2 2339   0.389   2.246   0.603
  774SOL     OW 2340   1.705   3.349   1.104
  774SOL    HW1 2341   1.612   3.324   1.077
  774SOL    HW2 2342   1.731   3.299   1.186
  775SOL     OW 2343   0.317   2.409   1.280
  775SOL    HW1 2344   0.355   2.350   1.352
  775SOL    HW2 2345   0.357   2.383   1.192
  776SOL     OW 2346   0.812   3.448   0.687
  776SOL    HW1 2347   0.844   3.458   0.593
  776SOL    HW2 2348   0.733   3.386   0.689
  777SOL     OW 2349   1.424   2.076   1.112
  777SOL    HW1 2350   1.476   2.011   1.167
  777SOL    HW2 2351   1.375   2.139   1.173
  778SOL     OW 2352   1.001   1.896   1.154
  778SOL    HW1 2353   0.938   1.824   1.123
  778SOL    HW2 2354   1.094   1.860   1.154
  779SOL     OW 2355   0.770   3.192   0.301
  779SOL    HW1 2356   0.724   3.105   0.318
  779SOL    HW2 2357   0.861   3.189   0.342
  780SOL     OW 2358   0.618   3.429   1.284
  780SOL    HW1 2359   0.613   3.511   1.341
  780SOL    HW2 2360   0.707   3.426   1.239
  781SOL     OW 2361   1.352   1.914   0.168
  781SOL    HW1 2362   1.387   1.873   0.084
  781SOL    HW2 2363   1.262   1.876   0.188
  782SOL     OW 2364   1.300   2.315   0.691
  782SOL    HW1 2365   1.241   2.395   0.695
  782SOL    HW2 2366   1.315   2.280   0.784
  783SOL     OW 2367   1.593   2.083   0.882
  783SOL    HW1 2368   1.509   2.082   0.936
  783SOL    HW2 2369   1.595   2.166   0.826
  784SOL     OW 2370   0.039   2.939   0.300
  784SOL    HW1 2371   0.138   2.928   0.291
  784SOL    HW2 2372  -0.001   2.853   0.332
  785SOL     OW 2373   0.875   3.508   0.337
  785SOL    HW1 2374   0.798   3.473   0.283
  785SOL    HW2 2375   0.843   3.579   0.399
  786SOL     OW 2376   0.230   2.490   1.975
  786SOL    HW1 2377   0.137   2.488   2.012
  786SOL    HW2 2378   0.231   2.451   1.883
  787SOL     OW 2379   0.225   2.137   2.858
  787SOL    HW1 2380   0.260   2.120   2.950
  787SOL    HW2 2381   0.137   2.092   2.846
  788SOL     OW 2382   0.019   2.230   2.509
  788SOL    HW1 2383  -0.063   2.273   2.548
  788SOL    HW2 2384  -0.009   2.157   2.446
  789SOL     OW 2385   0.569   3.137   3.027
  789SOL    HW1 2386   0.476   3.130   2.990
  789SOL    HW2 2387   0.580   3.226   3.071
  790SOL     OW 2388   1.555   3.373   2.565
  790SOL    HW1 2389   1.498   3.357   2.646
  790SOL    HW2 2390   1.496   3.383   2.485
  791SOL     OW 2391   1.135   2.565   2.579
  791SOL    HW1 2392   1.192   2.643   2.554
  791SOL    HW2 2393   1.075   2.591   2.655
  792SOL     OW 2394   1.755   2.469   2.093
  792SOL    HW1 2395   1.743   2.456   1.994
  792SOL    HW2 2396   1.725   2.388   2.142
  793SOL     OW 2397   0.768   3.006   2.885
  793SOL    HW1 2398   0.690   3.023   2.945
  793SOL    HW2 2399   0.802   3.093   2.849
  794SOL     OW 2400   0.850   2.660   3.685
  794SOL    HW1 2401   0.846   2.736   3.750
  794SOL    HW2 2402   0.872   2.696   3.594
  795SOL     OW 2403   0.685   2.874   2.527
  795SOL    HW1 2404   0.754   2.858   2.597
  795SOL    HW2 2405   0.612   2.931   2.565
  796SOL     OW 2406   0.686   3.023   3.665
  796SOL    HW1 2407   0.746   3.102   3.679
  796SOL    HW2 2408   0.600   3.054   3.624
  797SOL     OW 2409   0.335   3.297   2.923
  797SOL    HW1 2410   0.257   3.266   2.870
  797SOL    HW2 2411   0.393   3.355   2.866
  798SOL     OW 2412   1.460   3.367   3.201
  798SOL    HW1 2413   1.484   3.461   3.227
  798SOL    HW2 2414   1.444   3.313   3.283
  799SOL     OW 2415   0.438   2.254   3.361
  799SOL    HW1 2416   0.520   2.198   3.370
  799SOL    HW2 2417   0.357   2.196   3.365
  800SOL     OW 2418   1.603   2.309   2.599
  800SOL    HW1 2419   1.529   2.355   2.549
  800SOL    HW2 2420   1.654   2.377   2.652
  801SOL     OW 2421   0.231   3.575   2.345
  801SOL    HW1 2422   0.265   3.652   2.399
  801SOL    HW2 2423   0.275   3.575   2.255
  802SOL     OW 2424   1.127   3.203   3.552
  802SOL    HW1 2425   1.174   3.203   3.640
  802SOL    HW2 2426   1.079   3.116   3.541
  803SOL     OW 2427   0.230   3.296   2.400
  803SOL    HW1 2428   0.204   3.392   2.400
  803SOL    HW2 2429   0.159   3.242   2.445
  804SOL     OW 2430   0.240   2.953   2.748
  804SOL    HW1 2431   0.254   2.869   2.800
  804SOL    HW2 2432   0.185   3.017   2.803
  805SOL     OW 2433   0.620   3.648   3.301
  805SOL    HW1 2434   0.528   3.631   3.336
  805SOL    HW2 2435   0.648   3.740   3.327
  806SOL     OW 2436   0.606   2.826   1.985
  806SOL    HW1 2437   0.613   2.910   1.931
  806SOL    HW2 2438   0.652   2.839   2.073
  807SOL     OW 2439   1.594   1.976   3.342
  807SOL    HW1 2440   1.576   2.043   3.270
  807SOL    HW2 2441   1.591   2.022   3.431
  808SOL     OW 2442   0.122   2.505   2.425
  808SOL    HW1 2443   0.077   2.417   2.442
  808SOL    HW2 2444   0.121   2.559   2.509
  809SOL     OW 2445   1.842   3.629   2.221
  809SOL    HW1 2446   1.896   3.600   2.301
  809SOL    HW2 2447   1.872   3.719   2.192
  810SOL     OW 2448   0.027   3.458   1.979
  810SOL    HW1 2449   0.008   3.362   2.000
  810SOL    HW2 2450  -0.006   3.516   2.054
  811SOL     OW 2451   1.689   2.784   2.474
  811SOL    HW1 2452   1.784   2.755   2.482
  811SOL    HW2 2453   1.681   2.849   2.399
  812SOL     OW 2454   1.641   2.970   2.294
  812SOL    HW1 2455   1.727   2.972   2.242
  812SOL    HW2 2456   1.655   3.017   2.382
  813SOL     OW 2457   0.113   2.599   3.459
  813SOL    HW1 2458   0.201   2.586   3.504
  813SOL    HW2 2459   0.100   2.696   3.437
  814SOL     OW 2460   0.613   3.227   2.588
  814SOL    HW1 2461   0.564   3.140   2.597
  814SOL    HW2 2462   0.590   3.270   2.501
  815SOL     OW 2463   1.293   3.090   3.285
  815SOL    HW1 2464   1.330   3.017   3.227
  815SOL    HW2 2465   1.345   3.095   3.370
  816SOL     OW 2466   0.809   1.866   2.364
  816SOL    HW1 2467   0.849   1.957   2.355
  816SOL    HW2 2468   0.709   1.874   2.370
  817SOL     OW 2469   0.197   2.838   3.126
  817SOL    HW1 2470   0.286   2.793   3.112
  817SOL    HW2 2471   0.124   2.773   3.107
  818SOL     OW 2472   1.525   2.861   2.052
  818SOL    HW1 2473   1.462   2.785   2.065
  818SOL    HW2 2474   1.573   2.879   2.138
  819SOL     OW 2475   1.187   3.654   3.478
  819SOL    HW1 2476   1.211   3.714   3.402
  819SOL    HW2 2477   1.194   3.559   3.448
  820SOL     OW 2478   0.317   2.113   3.663
  820SOL    HW1 2479   0.388   2.184   3.669
  820SOL    HW2 2480   0.229   2.152   3.691
  821SOL     OW 2481   1.466   3.279   2.815
  821SOL    HW1 2482   1.407   3.285   2.895
  821SOL    HW2 2483   1.451   3.191   2.769
  822SOL     OW 2484   1.667   3.576   2.434
  822SOL    HW1 2485   1.626   3.553   2.346
  822SOL    HW2 2486   1.649   3.502   2.499
  823SOL     OW 2487   0.598   2.591   2.132
  823SOL    HW1 2488   0.622   2.660   2.064
  823SOL    HW2 2489   0.520   2.624   2.186
  824SOL     OW 2490   1.281   2.207   2.806
  824SOL    HW1 2491   1.195   2.157   2.793
  824SOL    HW2 2492   1.343   2.153   2.862
  825SOL     OW 2493   1.576   3.524   2.169
  825SOL    HW1 2494   1.665   3.570   2.172
  825SOL    HW2 2495   1.555   3.500   2.074
  826SOL     OW 2496   0.807   2.467   3.327
  826SOL    HW1 2497   0.760   2.464   3.416
  826SOL    HW2 2498   0.756   2.412   3.261
  827SOL     OW 2499   1.394   2.331   3.536
  827SOL    HW1 2500   1.374   2.374   3.624
  827SOL    HW2 2501   1.472   2.269   3.545
  828SOL     OW 2502   0.973   2.752   3.434
  828SOL    HW1 2503   1.019   2.668   3.405
  828SOL    HW2 2504   0.917   2.786   3.359
  829SOL     OW 2505   0.991   2.272   3.104
  829SOL    HW1 2506   0.914   2.306   3.158
  829SOL    HW2 2507   0.957   2.221   3.025
  830SOL     OW 2508   1.041   2.563   2.291
  830SOL    HW1 2509   1.067   2.559   2.387
  830SOL    HW2 2510   0.956   2.512   2.277
  831SOL     OW 2511   0.076   2.673   2.651
  831SOL    HW1 2512   0.175   2.661   2.660
  831SOL    HW2 2513   0.052   2.768   2.672
  832SOL     OW 2514   0.130   3.683   3.433
  832SOL    HW1 2515   0.120   3.668   3.532
  832SOL    HW2 2516   0.044   3.719   3.397
  833SOL     OW 2517   0.865   2.210   2.057
  833SOL    HW1 2518   0.924   2.273   2.008
  833SOL    HW2 2519   0.884   2.116   2.028
  834SOL     OW 2520   1.719   2.447   3.693
  834SOL    HW1 2521   1.693   2.536   3.657
  834SOL    HW2 2522   1.717   2.379   3.620
  835SOL     OW 2523   1.362   3.006   2.407
  835SOL    HW1 2524   1.445   2.977   2.359
  835SOL    HW2 2525   1.313   3.073   2.351
  836SOL     OW 2526   0.550   2.058   2.747
  836SOL    HW1 2527   0.545   2.053   2.847
  836SOL    HW2 2528   0.552   2.154   2.718
  837SOL     OW 2529   1.008   3.318   2.339
  837SOL    HW1 2530   0.962   3.390   2.287
  837SOL    HW2 2531   1.004   3.338   2.437
  838SOL     OW 2532   0.351   3.663   2.715
  838SOL    HW1 2533   0.401   3.577   2.721
  838SOL    HW2 2534   0.416   3.740   2.712
  839SOL     OW 2535   1.795   2.928   2.735
  839SOL    HW1 2536   1.733   2.913   2.659
  839SOL    HW2 2537   1.743   2.939   2.820
  840SOL     OW 2538   1.227   3.412   3.368
  840SOL    HW1 2539   1.233   3.335   3.432
  840SOL    HW2 2540   1.175   3.386   3.288
  841SOL     OW 2541   0.321   2.805   2.104
  841SOL    HW1 2542   0.403   2.844   2.062
  841SOL    HW2 2543   0.294   2.723   2.055
  842SOL     OW 2544   1.458   2.597   2.590
  842SOL    HW1 2545   1.453   2.532   2.665
  842SOL    HW2 2546   1.538   2.656   2.603
  843SOL     OW 2547   0.461   3.128   3.589
  843SOL    HW1 2548   0.411   3.129   3.503
  843SOL    HW2 2549   0.398   3.110   3.665
  844SOL     OW 2550   1.111   3.638   2.099
  844SOL    HW1 2551   1.051   3.576   2.149
  844SOL    HW2 2552   1.142   3.594   2.014
  845SOL     OW 2553   0.202   2.147   3.360
  845SOL    HW1 2554   0.122   2.207   3.347
  845SOL    HW2 2555   0.192   2.098   3.446
  846SOL     OW 2556   1.632   3.239   1.943
  846SOL    HW1 2557   1.600   3.333   1.933
  846SOL    HW2 2558   1.556   3.176   1.931
  847SOL     OW 2559   0.464   3.605   2.185
  847SOL    HW1 2560   0.497   3.644   2.271
  847SOL    HW2 2561   0.540   3.598   2.120
  848SOL     OW 2562   1.400   1.969   2.288
  848SOL    HW1 2563   1.376   1.932   2.198
  848SOL    HW2 2564   1.499   1.985   2.292
  849SOL     OW 2565   0.249   3.647   3.103
  849SOL    HW1 2566   0.306   3.582   3.153
  849SOL    HW2 2567   0.233   3.614   3.010
  850SOL     OW 2568   0.940   3.560   2.766
  850SOL    HW1 2569   1.020   3.503   2.787
  850SOL    HW2 2570   0.891   3.520   2.689
  851SOL     OW 2571   0.382   2.562   2.342
  851SOL    HW1 2572   0.427   2.472   2.339
  851SOL    HW2 2573   0.288   2.551   2.375
  852SOL     OW 2574   1.547   2.084   3.591
  852SOL    HW1 2575   1.542   2.121   3.683
  852SOL    HW2 2576   1.475   2.015   3.579
  853SOL     OW 2577   0.614   1.984   1.979
  853SOL    HW1 2578   0.712   1.962   1.986
  853SOL    HW2 2579   0.583   1.967   1.886
  854SOL     OW 2580   0.781   2.126   3.611
  854SOL    HW1 2581   0.848   2.065   3.654
  854SOL    HW2 2582   0.708   2.145   3.676
  855SOL     OW 2583   0.888   3.376   3.057
  855SOL    HW1 2584   0.865   3.351   2.963
  855SOL    HW2 2585   0.949   3.307   3.096
  856SOL     OW 2586   1.351   2.452   3.295
  856SOL    HW1 2587   1.379   2.409   3.380
  856SOL    HW2 2588   1.376   2.548   3.296
  857SOL     OW 2589   0.803   3.264   2.786
  857SOL    HW1 2590   0.893   3.278   2.744
  857SOL    HW2 2591   0.732   3.266   2.715
  858SOL     OW 2592   0.922   2.365   2.761
  858SOL    HW1 2593   0.897   2.356   2.665
  858SOL    HW2 2594   0.970   2.283   2.792
  859SOL     OW 2595   0.539   1.926   2.374
  859SOL    HW1 2596   0.458   1.927   2.432
  859SOL    HW2 2597   0.542   2.009   2.319
  860SOL     OW 2598   1.434   3.050   1.903
  860SOL    HW1 2599   1.466   2.974   1.960
  860SOL    HW2 2600   1.342   3.077   1.933
  861SOL     OW 2601   0.297   1.897   2.033
  861SOL    HW1 2602   0.346   1.981   2.012
  861SOL    HW2 2603   0.359   1.832   2.078
  862SOL     OW 2604   0.935   2.098   2.342
  862SOL    HW1 2605   0.887   2.139   2.264
  862SOL    HW2 2606   1.034   2.096   2.323
  863SOL     OW 2607   1.076   2.545   3.326
  863SOL    HW1 2608   0.996   2.484   3.329
  863SOL    HW2 2609   1.157   2.492   3.302
  864SOL     OW 2610   1.227   3.432   2.655
  864SOL    HW1 2611   1.248   3.506   2.590
  864SOL    HW2 2612   1.295   3.432   2.728
  865SOL     OW 2613   0.459   3.014   2.603
  865SOL    HW1 2614   0.388   2.987   2.668
  865SOL    HW2 2615   0.433   2.986   2.510
  866SOL     OW 2616   1.271   3.659   2.453
  866SOL    HW1 2617   1.315   3.723   2.389
  866SOL    HW2 2618   1.221   3.711   2.523
  867SOL     OW 2619   1.032   2.411   1.878
  867SOL    HW1 2620   0.991   2.493   1.839
  867SOL    HW2 2621   1.096   2.437   1.951
  868SOL     OW 2622   0.078   2.418   3.248
  868SOL    HW1 2623   0.170   2.417   3.207
  868SOL    HW2 2624   0.072   2.492   3.315
  869SOL     OW 2625   0.561   2.084   3.009
  869SOL    HW1 2626   0.599   2.000   3.046
  869SOL    HW2 2627   0.473   2.103   3.053
  870SOL     OW 2628   0.866   2.316   2.504
  870SOL    HW1 2629   0.834   2.388   2.442
  870SOL    HW2 2630   0.890   2.235   2.451
  871SOL     OW 2631   1.017   1.901   2.615
  871SOL    HW1 2632   0.945   1.906   2.546
  871SOL    HW2 2633   0.993   1.832   2.684
  872SOL     OW 2634   1.429   3.035   2.729
  872SOL    HW1 2635   1.374   2.951   2.722
  872SOL    HW2 2636   1.455   3.064   2.637
  873SOL     OW 2637   1.466   2.452   2.854
  873SOL    HW1 2638   1.436   2.357   2.861
  873SOL    HW2 2639   1.539   2.468   2.920
  874SOL     OW 2640   1.857   2.695   2.239
  874SOL    HW1 2641   1.899   2.631   2.303
  874SOL    HW2 2642   1.819   2.644   2.161
  875SOL     OW 2643   0.488   3.247   2.036
  875SOL    HW1 2644   0.401   3.232   2.083
  875SOL    HW2 2645   0.471   3.273   1.941
  876SOL     OW 2646   1.664   3.142   2.519
  876SOL    HW1 2647   1.763   3.150   2.533
  876SOL    HW2 2648   1.619   3.226   2.550
  877SOL     OW 2649   1.390   2.437   1.940
  877SOL    HW1 2650   1.336   2.416   2.021
  877SOL    HW2 2651   1.481   2.396   1.949
  878SOL     OW 2652   0.527   2.118   2.190
  878SOL    HW1 2653   0.554   2.059   2.115
  878SOL    HW2 2654   0.527   2.213   2.159
  879SOL     OW 2655   1.754   3.085   3.450
  879SOL    HW1 2656   1.845   3.046   3.437
  879SOL    HW2 2657   1.762   3.181   3.474
  880SOL     OW 2658   1.064   3.209   3.202
  880SOL    HW1 2659   0.984   3.186   3.257
  880SOL    HW2 2660   1.147   3.183   3.251
  881SOL     OW 2661   1.592   3.491   3.487
  881SOL    HW1 2662   1.619   3.525   3.397
  881SOL    HW2 2663   1.671   3.453   3.533
  882SOL     OW 2664   1.111   3.057   2.962
  882SOL    HW1 2665   1.071   3.101   3.043
  882SOL    HW2 2666   1.070   3.094   2.879
  883SOL     OW 2667   1.638   2.961   2.941
  883SOL    HW1 2668   1.643   3.042   3.000
  883SOL    HW2 2669   1.552   2.963   2.890
  884SOL     OW 2670   0.915   1.951   3.264
  884SOL    HW1 2671   0.940   1.931   3.169
  884SOL    HW2 2672   0.987   2.007   3.306
  885SOL     OW 2673   0.980   2.978   3.581
  885SOL    HW1 2674   0.881   2.984   3.591
  885SOL    HW2 2675   1.003   2.898   3.525
  886SOL     OW 2676   0.705   2.912   2.230
  886SOL    HW1 2677   0.691   2.919   2.329
  886SOL    HW2 2678   0.789   2.861   2.212
  887SOL     OW 2679   0.410   2.675   3.113
  887SOL    HW1 2680   0.496   2.687   3.163
  887SOL    HW2 2681   0.368   2.588   3.140
  888SOL     OW 2682   1.274   2.248   3.124
  888SOL    HW1 2683   1.295   2.322   3.188
  888SOL    HW2 2684   1.185   2.265   3.081
  889SOL     OW 2685   0.064   3.426   3.193
  889SOL    HW1 2686   0.018   3.508   3.159
  889SOL    HW2 2687   0.162   3.445   3.202
  890SOL     OW 2688   0.367   2.962   2.363
  890SOL    HW1 2689   0.360   3.045   2.307
  890SOL    HW2 2690   0.371   2.882   2.303
  891SOL     OW 2691   0.566   2.399   2.727
  891SOL    HW1 2692   0.578   2.465   2.653
  891SOL    HW2 2693   0.612   2.433   2.810
  892SOL     OW 2694   1.252   3.210   2.250
  892SOL    HW1 2695   1.302   3.287   2.290
  892SOL    HW2 2696   1.157   3.212   2.282
  893SOL     OW 2697   1.272   3.307   3.004
  893SOL    HW1 2698   1.319   3.320   3.091
  893SOL    HW2 2699   1.206   3.233   3.013
  894SOL     OW 2700   1.582   2.501   2.334
  894SOL    HW1 2701   1.551   2.562   2.407
  894SOL    HW2 2702   1.632   2.553   2.265
  895SOL     OW 2703   0.354   3.372   3.191
  895SOL    HW1 2704   0.333   3.328   3.104
  895SOL    HW2 2705   0.451   3.398   3.194
  896SOL     OW 2706   0.402   2.613   3.460
  896SOL    HW1 2707   0.470   2.668   3.413
  896SOL    HW2 2708   0.442   2.525   3.487
  897SOL     OW 2709   1.587   2.641   3.532
  897SOL    HW1 2710   1.495   2.679   3.527
  897SOL    HW2 2711   1.647   2.688   3.467
  898SOL     OW 2712   1.013   1.967   3.632
  898SOL    HW1 2713   1.019   2.052   3.580
  898SOL    HW2 2714   1.045   1.891   3.575
  899SOL     OW 2715   0.504   1.912   3.602
  899SOL    HW1 2716   0.462   1.855   3.532
  899SOL    HW2 2717   0.438   1.981   3.634
  900SOL     OW 2718   0.573   2.732   2.891
  900SOL    HW1 2719   0.617   2.821   2.882
  900SOL    HW2 2720   0.510   2.732   2.968
  901SOL     OW 2721   1.360   2.724   2.907
  901SOL    HW1 2722   1.285   2.724   2.841
  901SOL    HW2 2723   1.397   2.632   2.916
  902SOL     OW 2724   1.209   2.387   2.137
  902SOL    HW1 2725   1.222   2.303   2.191
  902SOL    HW2 2726   1.180   2.461   2.197
  903SOL     OW 2727   0.307   2.075   3.093
  903SOL    HW1 2728   0.284   2.112   3.183
  903SOL    HW2 2729   0.277   1.980   3.087
  904SOL     OW 2730   0.037   3.172   3.144
  904SOL    HW1 2731   0.090   3.123   3.212
  904SOL    HW2 2732   0.059   3.270   3.149
  905SOL     OW 2733   0.732   2.496   2.926
  905SOL    HW1 2734   0.791   2.470   2.850
  905SOL    HW2 2735   0.704   2.592   2.915
  906SOL     OW 2736   1.728   2.797   3.716
  906SOL    HW1 2737   1.682   2.790   3.627
  906SOL    HW2 2738   1.666   2.841   3.782
  907SOL     OW 2739   0.307   1.925   2.480
  907SOL    HW1 2740   0.296   2.019   2.513
  907SOL    HW2 2741   0.302   1.862   2.557
  908SOL     OW 2742   1.622   2.229   2.236
  908SOL    HW1 2743   1.624   2.153   2.300
  908SOL    HW2 2744   1.574   2.306   2.276
  909SOL     OW 2745   1.023   2.628   2.828
  909SOL    HW1 2746   1.038   2.649   2.924
  909SOL    HW2 2747   0.993   2.533   2.819
  910SOL     OW 2748   0.980   3.435   3.562
  910SOL    HW1 2749   0.960   3.479   3.474
  910SOL    HW2 2750   1.019   3.344   3.546
  911SOL     OW 2751   1.859   3.380   3.467
  911SOL    HW1 2752   1.873   3.407   3.372
  911SOL    HW2 2753   1.942   3.402   3.520
  912SOL     OW 2754   0.350   2.760   3.666
  912SOL    HW1 2755   0.426   2.804   3.714
  912SOL    HW2 2756   0.385   2.713   3.584
  913SOL     OW 2757   1.540   2.136   1.987
  913SOL    HW1 2758   1.479   2.061   2.010
  913SOL    HW2 2759   1.562   2.188   2.070
  914SOL     OW 2760   1.303   2.700   1.904
  914SOL    HW1 2761   1.337   2.607   1.919
  914SOL    HW2 2762   1.321   2.727   1.809
  915SOL     OW 2763   1.068   3.195   2.711
  915SOL    HW1 2764   1.075   3.111   2.656
  915SOL    HW2 2765   1.130   3.264   2.675
  916SOL     OW 2766   0.319   2.672   2.811
  916SOL    HW1 2767   0.412   2.708   2.816
  916SOL    HW2 2768   0.313   2.587   2.863
  917SOL     OW 2769   0.339   2.371   2.868
  917SOL    HW1 2770   0.287   2.288   2.851
  917SOL    HW2 2771   0.416   2.376   2.804
  918SOL     OW 2772   1.138   2.242   3.540
  918SOL    HW1 2773   1.093   2.305   3.604
  918SOL    HW2 2774   1.231   2.273   3.523
  919SOL     OW 2775   1.160   2.069   3.339
  919SOL    HW1 2776   1.160   2.133   3.416
  919SOL    HW2 2777   1.188   2.117   3.256
  920SOL     OW 2778   0.008   3.188   2.062
  920SOL    HW1 2779  -0.085   3.209   2.031
  920SOL    HW2 2780   0.018   3.089   2.075
  921SOL     OW 2781   0.088   3.663   2.789
  921SOL    HW1 2782   0.046   3.577   2.762
  921SOL    HW2 2783   0.182   3.666   2.755
  922SOL     OW 2784   0.504   3.430   2.772
  922SOL    HW1 2785   0.570   3.504   2.781
  922SOL    HW2 2786   0.548   3.351   2.730
  923SOL     OW 2787   1.002   2.658   3.100
  923SOL    HW1 2788   1.043   2.626   3.186
  923SOL    HW2 2789   0.906   2.631   3.097
  924SOL     OW 2790   0.040   2.406   2.976
  924SOL    HW1 2791   0.125   2.373   2.935
  924SOL    HW2 2792   0.053   2.421   3.074
  925SOL     OW 2793   0.189   2.382   3.584
  925SOL    HW1 2794   0.248   2.342   3.514
  925SOL    HW2 2795   0.131   2.453   3.543
  926SOL     OW 2796   1.369   2.812   3.522
  926SOL    HW1 2797   1.408   2.901   3.542
  926SOL    HW2 2798   1.379   2.792   3.425
  927SOL     OW 2799   0.815   2.434   2.187
  927SOL    HW1 2800   0.822   2.345   2.141
  927SOL    HW2 2801   0.721   2.468   2.179
  928SOL     OW 2802   1.657   2.466   3.068
  928SOL    HW1 2803   1.619   2.397   3.130
  928SOL    HW2 2804   1.739   2.430   3.024
  929SOL     OW 2805   0.252   3.426   3.606
  929SOL    HW1 2806   0.222   3.483   3.682
  929SOL    HW2 2807   0.245   3.329   3.632
  930SOL     OW 2808   0.671   2.326   3.131
  930SOL    HW1 2809   0.637   2.237   3.101
  930SOL    HW2 2810   0.697   2.380   3.051
  931SOL     OW 2811   0.930   3.540   3.327
  931SOL    HW1 2812   0.906   3.522   3.232
  931SOL    HW2 2813   0.960   3.634   3.337
  932SOL     OW 2814   0.473   2.362   2.053
  932SOL    HW1 2815   0.534   2.442   2.057
  932SOL    HW2 2816   0.378   2.393   2.060
  933SOL     OW 2817   0.159   2.999   3.328
  933SOL    HW1 2818   0.181   2.938   3.404
  933SOL    HW2 2819   0.169   2.950   3.242
  934SOL     OW 2820   1.347   2.921   3.096
  934SOL    HW1 2821   1.371   2.858   3.022
  934SOL    HW2 2822   1.257   2.961   3.078
  935SOL     OW 2823   1.302   2.717   2.171
  935SOL    HW1 2824   1.216   2.686   2.213
  935SOL    HW2 2825   1.298   2.703   2.072
  936SOL     OW 2826   1.759   3.609   3.016
  936SOL    HW1 2827   1.820   3.639   2.943
  936SOL    HW2 2828   1.721   3.520   2.994
  937SOL     OW 2829   1.252   3.593   2.990
  937SOL    HW1 2830   1.336   3.598   2.936
  937SOL    HW2 2831   1.229   3.497   3.008
  938SOL     OW 2832   0.083   3.120   2.884
  938SOL    HW1 2833   0.078   3.119   2.984
  938SOL    HW2 2834   0.000   3.079   2.846
  939SOL     OW 2835   0.688   3.524   3.578
  939SOL    HW1 2836   0.632   3.605   3.587
  939SOL    HW2 2837   0.740   3.528   3.492
  940SOL     OW 2838   1.726   1.997   2.385
  940SOL    HW1 2839   1.799   1.980   2.318
  940SOL    HW2 2840   1.695   1.910   2.423
  941SOL     OW 2841   1.388   3.435   2.339
  941SOL    HW1 2842   1.455   3.447   2.265
  941SOL    HW2 2843   1.348   3.524   2.362
  942SOL     OW 2844   0.130   3.656   3.713
  942SOL    HW1 2845   0.089   3.582   3.766
  942SOL    HW2 2846   0.194   3.707   3.771
  943SOL     OW 2847   1.280   2.789   2.534
  943SOL    HW1 2848   1.340   2.708   2.536
  943SOL    HW2 2849   1.320   2.858   2.474
  944SOL     OW 2850   0.830   3.135   3.284
  944SOL    HW1 2851   0.825   3.168   3.379
  944SOL    HW2 2852   0.744   3.154   3.238
  945SOL     OW 2853   0.672   3.478   2.016
  945SOL    HW1 2854   0.681   3.488   1.917
  945SOL    HW2 2855   0.632   3.389   2.037
  946SOL     OW 2856   1.650   3.582   3.256
  946SOL    HW1 2857   1.703   3.592   3.172
  946SOL    HW2 2858   1.623   3.672   3.290
  947SOL     OW 2859   1.841   2.037   2.825
  947SOL    HW1 2860   1.880   1.952   2.789
  947SOL    HW2 2861   1.743   2.039   2.806
  948SOL     OW 2862   0.263   2.188   2.582
  948SOL    HW1 2863   0.184   2.239   2.548
  948SOL    HW2 2864   0.254   2.173   2.680
  949SOL     OW 2865   1.194   3.474   1.893
  949SOL    HW1 2866   1.200   3.381   1.930
  949SOL    HW2 2867   1.135   3.474   1.813
  950SOL     OW 2868   0.822   2.864   3.234
  950SOL    HW1 2869   0.862   2.863   3.142
  950SOL    HW2 2870   0.832   2.956   3.274
  951SOL     OW 2871   0.916   2.772   2.153
  951SOL    HW1 2872   0.979   2.810   2.085
  951SOL    HW2 2873   0.956   2.689   2.192
  952SOL     OW 2874   1.504   3.469   1.906
  952SOL    HW1 2875   1.412   3.506   1.913
  952SOL    HW2 2876   1.542   3.489   1.816
  953SOL     OW 2877   0.372   3.150   3.352
  953SOL    HW1 2878   0.359   3.243   3.318
  953SOL    HW2 2879   0.288   3.098   3.339
  954SOL     OW 2880   1.614   3.154   3.151
  954SOL    HW1 2881   1.674   3.157   3.231
  954SOL    HW2 2882   1.539   3.218   3.164
  955SOL     OW 2883   1.039   2.960   2.558
  955SOL    HW1 2884   0.969   2.913   2.612
  955SOL    HW2 2885   1.098   2.892   2.515
  956SOL     OW 2886   1.014   2.098   2.833
  956SOL    HW1 2887   1.006   2.062   2.740
  956SOL    HW2 2888   1.012   2.022   2.898
  957SOL     OW 2889   0.590   3.349   2.353
  957SOL    HW1 2890   0.632   3.291   2.283
  957SOL    HW2 2891   0.546   3.428   2.309
  958SOL     OW 2892   1.709   2.247   3.243
  958SOL    HW1 2893   1.782   2.316   3.247
  958SOL    HW2 2894   1.737   2.172   3.184
  959SOL     OW 2895   0.255   3.210   2.152
  959SOL    HW1 2896   0.159   3.211   2.125
  959SOL    HW2 2897   0.267   3.263   2.236
  960SOL     OW 2898   0.105   2.875   3.588
  960SOL    HW1 2899   0.028   2.842   3.642
  960SOL    HW2 2900   0.190   2.845   3.630
  961SOL     OW 2901   0.672   2.065   3.351
  961SOL    HW1 2902   0.762   2.049   3.311
  961SOL    HW2 2903   0.680   2.070   3.450
  962SOL     OW 2904   0.075   2.207   1.895
  962SOL    HW1 2905  -0.017   2.179   1.866
  962SOL    HW2 2906   0.106   2.284   1.839
  963SOL     OW 2907   1.440   2.718   3.260
  963SOL    HW1 2908   1.383   2.770   3.197
  963SOL    HW2 2909   1.536   2.730   3.236
  964SOL     OW 2910   0.072   2.028   2.180
  964SOL    HW1 2911   0.055   2.111   2.126
  964SOL    HW2 2912   0.162   1.991   2.158
  965SOL     OW 2913   1.183   3.197   1.981
  965SOL    HW1 2914   1.084   3.186   1.983
  965SOL    HW2 2915   1.217   3.212   2.074
  966SOL     OW 2916   0.613   2.704   3.293
  966SOL    HW1 2917   0.669   2.785   3.276
  966SOL    HW2 2918   0.672   2.624   3.296
  967SOL     OW 2919   1.493   3.629   2.821
  967SOL    HW1 2920   1.526   3.693   2.752
  967SOL    HW2 2921   1.559   3.623   2.896
  968SOL     OW 2922   0.716   2.427   3.570
  968SOL    HW1 2923   0.735   2.492   3.644
  968SOL    HW2 2924   0.776   2.347   3.579
  969SOL     OW 2925   1.450   3.082   3.495
  969SOL    HW1 2926   1.441   3.072   3.594
  969SOL    HW2 2927   1.546   3.075   3.469
  970SOL     OW 2928   0.390   3.603   3.422
  970SOL    HW1 2929   0.299   3.644   3.420
  970SOL    HW2 2930   0.383   3.509   3.454
  971SOL     OW 2931   1.674   2.745   3.116
  971SOL    HW1 2932   1.647   2.656   3.079
  971SOL    HW2 2933   1.675   2.813   3.043
  972SOL     OW 2934   1.225   2.187   2.311
  972SOL    HW1 2935   1.290   2.113   2.300
  972SOL    HW2 2936   1.245   2.237   2.395
  973SOL     OW 2937   0.594   2.607   2.514
  973SOL    HW1 2938   0.644   2.692   2.495
  973SOL    HW2 2939   0.506   2.609   2.466
  974SOL     OW 2940   1.777   2.204   3.504
  974SOL    HW1 2941   1.760   2.235   3.410
  974SOL    HW2 2942   1.693   2.167   3.542
  975SOL     OW 2943   1.730   2.796   3.379
  975SOL    HW1 2944   1.768   2.887   3.394
  975SOL    HW2 2945   1.722   2.779   3.280
  976SOL     OW 2946   0.859   3.236   1.878
  976SOL    HW1 2947   0.813   3.251   1.966
  976SOL    HW2 2948   0.903   3.321   1.848
  977SOL     OW 2949   0.661   3.652   2.815
  977SOL    HW1 2950   0.615   3.740   2.802
  977SOL    HW2 2951   0.760   3.664   2.808
  978SOL     OW 2952   0.859   2.818   2.723
  978SOL    HW1 2953   0.913   2.749   2.771
  978SOL    HW2 2954   0.827   2.887   2.789
  979SOL     OW 2955   1.083   2.846   1.949
  979SOL    HW1 2956   1.060   2.899   1.867
  979SOL    HW2 2957   1.164   2.790   1.930
  980SOL     OW 2958   1.861   3.431   2.713
  980SOL    HW1 2959   1.790   3.419   2.643
  980SOL    HW2 2960   1.862   3.352   2.773
  981SOL     OW 2961   0.221   3.176   3.706
  981SOL    HW1 2962   0.156   3.103   3.685
  981SOL    HW2 2963   0.225   3.190   3.804
  982SOL     OW 2964   0.079   3.102   2.515
  982SOL    HW1 2965   0.078   3.055   2.603
  982SOL    HW2 2966   0.161   3.074   2.464
  983SOL     OW 2967   0.672   3.253   3.486
  983SOL    HW1 2968   0.594   3.203   3.524
  983SOL    HW2 2969   0.669   3.348   3.517
  984SOL     OW 2970   1.824   2.054   3.089
  984SOL    HW1 2971   1.820   1.964   3.133
  984SOL    HW2 2972   1.827   2.043   2.990
  985SOL     OW 2973   0.428   2.286   2.382
  985SOL    HW1 2974   0.458   2.214   2.320
  985SOL    HW2 2975   0.389   2.246   2.465
  986SOL     OW 2976   1.705   3.349   2.966
  986SOL    HW1 2977   1.612   3.324   2.939
  986SOL    HW2 2978   1.731   3.299   3.048
  987SOL     OW 2979   0.317   2.409   3.142
  987SOL    HW1 2980   0.355   2.350   3.214
  987SOL    HW2 2981   0.357   2.383   3.054
  988SOL     OW 2982   0.812   3.448   2.549
  988SOL    HW1 2983   0.844   3.458   2.455
  988SOL    HW2 2984   0.733   3.386   2.551
  989SOL     OW 2985   1.424   2.076   2.974
  989SOL    HW1 2986   1.476   2.011   3.029
  989SOL    HW2 2987   1.375   2.139   3.035
  990SOL     OW 2988   1.001   1.896   3.016
  990SOL    HW1 2989   0.938   1.824   2.985
  990SOL    HW2 2990   1.094   1.860   3.016
  991SOL     OW 2991   0.770   3.192   2.163
  991SOL    HW1 2992   0.724   3.105   2.180
  991SOL    HW2 2993   0.861   3.189   2.204
  992SOL     OW 2994   0.618   3.429   3.146
  992SOL    HW1 2995   0.613   3.511   3.203
  992SOL    HW2 2996   0.707   3.426   3.101
  993SOL     OW 2997   1.352   1.914   2.030
  993SOL    HW1 2998   1.387   1.873   1.946
  993SOL    HW2 2999   1.262   1.876   2.050
  994SOL     OW 3000   1.300   2.315   2.553
  994SOL    HW1 3001   1.241   2.395   2.557
  994SOL    HW2 3002   1.315   2.280   2.646
  995SOL     OW 3003   1.593   2.083   2.744
  995SOL    HW1 3004   1.509   2.082   2.798
  995SOL    HW2 3005   1.595   2.166   2.688
  996SOL     OW 3006   0.039   2.939   2.162
  996SOL    HW1 3007   0.138   2.928   2.153
  996SOL    HW2 3008  -0.001   2.853   2.194
  997SOL     OW 3009   0.875   3.508   2.199
  997SOL    HW1 3010   0.798   3.473   2.145
  997SOL    HW2 3011   0.843   3.579   2.261
  998SOL     OW 3012   0.230   2.490   3.837
  998SOL    HW1 3013   0.137   2.488   3.874
  998SOL    HW2 3014   0.231   2.451   3.745
  999SOL     OW 3015   0.225   2.137   4.720
  999SOL    HW1 3016   0.260   2.120   4.812
  999SOL    HW2 3017   0.137   2.092   4.708
 1000SOL     OW 3018   0.019   2.230   4.371
 1000SOL    HW1 3019  -0.063   2.273   4.410
 1000SOL    HW2 3020  -0.009   2.157   4.308
 1001SOL     OW 3021   0.569   3.137   4.889
 1001SOL    HW1 3022   0.476   3.130   4.852
 1001SOL    HW2 3023   0.580   3.226   4.933
 1002SOL     OW 3024   1.555   3.373   4.427
 1002SOL    HW1 3025   1.498   3.357   4.508
 1002SOL    HW2 3026   1.496   3.383   4.347
 1003SOL     OW 3027   1.135   2.565   4.441
 1003SOL    HW1 3028   1.192   2.643   4.416
 1003SOL    HW2 3029   1.075   2.591   4.517
 1004SOL     OW 3030   1.755   2.469   3.955
 1004SOL    HW1 3031   1.743   2.456   3.856
 1004SOL    HW2 3032   1.725   2.388   4.004
 1005SOL     OW 3033   0.768   3.006   4.747
 1005SOL    HW1 3034   0.690   3.023   4.807
 1005SOL    HW2 3035   0.802   3.093   4.711
 1006SOL     OW 3036   0.685   2.874   4.389
 1006SOL    HW1 3037   0.754   2.858   4.459
 1006SOL    HW2 3038   0.612   2.931   4.427
 1007SOL     OW 3039   0.335   3.297   4.785
 1007SOL    HW1 3040   0.257   3.266   4.732
 1007SOL    HW2 3041   0.393   3.355   4.728
 1008SOL     OW 3042   1.603   2.309   4.461
 1008SOL    HW1 3043   1.529   2.355   4.411
 1008SOL    HW2 3044   1.654   2.377   4.514
 1009SOL     OW 3045   0.231   3.575   4.207
 1009SOL    HW1 3046   0.265   3.652   4.261
 1009SOL    HW2 3047   0.275   3.575   4.117
 1010SOL     OW 3048   0.230   3.296   4.262
 1010SOL    HW1 3049   0.204   3.392   4.262
 1010SOL    HW2 3050   0.159   3.242   4.307
 1011SOL     OW 3051   0.240   2.953   4.610
 1011SOL    HW1 3052   0.254   2.869   4.662
 1011SOL    HW2 3053   0.185   3.017   4.665
 1012SOL     OW 3054   0.606   2.826   3.847
 1012SOL    HW1 3055   0.613   2.910   3.793
 1012SOL    HW2 3056   0.652   2.839   3.935
 1013SOL     OW 3057   0.122   2.505   4.287
 1013SOL    HW1 3058   0.077   2.417   4.304
 1013SOL    HW2 3059   0.121   2.559   4.371
 1014SOL     OW 3060   1.842   3.629   4.083
 1014SOL    HW1 3061   1.896   3.600   4.163
 1014SOL    HW2 3062   1.872   3.719   4.054
 1015SOL     OW 3063   0.027   3.458   3.841
 1015SOL    HW1 3064   0.008   3.362   3.862
 1015SOL    HW2 3065  -0.006   3.516   3.916
 1016SOL     OW 3066   1.689   2.784   4.336
 1016SOL    HW1 3067   1.784   2.755   4.344
 1016SOL    HW2 3068   1.681   2.849   4.261
 1017SOL     OW 3069   1.641   2.970   4.156
 1017SOL    HW1 3070   1.727   2.972   4.104
 1017SOL    HW2 3071   1.655   3.017   4.244
 1018SOL     OW 3072   0.613   3.227   4.450
 1018SOL    HW1 3073   0.564   3.140   4.459
 1018SOL    HW2 3074   0.590   3.270   4.363
 1019SOL     OW 3075   0.809   1.866   4.226
 1019SOL    HW1 3076   0.849   1.957   4.217
 1019SOL    HW2 3077   0.709   1.874   4.232
 1020SOL     OW 3078   0.197   2.838   4.988
 1020SOL    HW1 3079   0.286   2.793   4.974
 1020SOL    HW2 3080   0.124   2.773   4.969
 1021SOL     OW 3081   1.525   2.861   3.914
 1021SOL    HW1 3082   1.462   2.785   3.927
 1021SOL    HW2 3083   1.573   2.879   4.000
 1022SOL     OW 3084   1.466   3.279   4.677
 1022SOL    HW1 3085   1.407   3.285   4.757
 1022SOL    HW2 3086   1.451   3.191   4.631
 1023SOL     OW 3087   1.667   3.576   4.296
 1023SOL    HW1 3088   1.626   3.553   4.208
 1023SOL    HW2 3089   1.649   3.502   4.361
 1024SOL     OW 3090   0.598   2.591   3.994
 1024SOL    HW1 3091   0.622   2.660   3.926
 1024SOL    HW2 3092   0.520   2.624   4.048
 1025SOL     OW 3093   1.281   2.207   4.668
 1025SOL    HW1 3094   1.195   2.157   4.655
 1025SOL    HW2 3095   1.343   2.153   4.724
 1026SOL     OW 3096   1.576   3.524   4.031
 1026SOL    HW1 3097   1.665   3.570   4.034
 1026SOL    HW2 3098   1.555   3.500   3.936
 1027SOL     OW 3099   1.041   2.563   4.153
 1027SOL    HW1 3100   1.067   2.559   4.249
 1027SOL    HW2 3101   0.956   2.512   4.139
 1028SOL     OW 3102   0.076   2.673   4.513
 1028SOL    HW1 3103   0.175   2.661   4.522
 1028SOL    HW2 3104   0.052   2.768   4.534
 1029SOL     OW 3105   0.130   3.683   5.295
 1029SOL    HW1 3106   0.120   3.668   5.394
 1029SOL    HW2 3107   0.044   3.719   5.259
 1030SOL     OW 3108   0.865   2.210   3.919
 1030SOL    HW1 3109   0.924   2.273   3.870
 1030SOL    HW2 3110   0.884   2.116   3.890
 1031SOL     OW 3111   1.362   3.006   4.269
 1031SOL    HW1 3112   1.445   2.977   4.221
 1031SOL    HW2 3113   1.313   3.073   4.213
 1032SOL     OW 3114   0.550   2.058   4.609
 1032SOL    HW1 3115   0.545   2.053   4.709
 1032SOL    HW2 3116   0.552   2.154   4.580
 1033SOL     OW 3117   1.008   3.318   4.201
 1033SOL    HW1 3118   0.962   3.390   4.149
 1033SOL    HW2 3119   1.004   3.338   4.299
 1034SOL     OW 3120   0.351   3.663   4.577
 1034SOL    HW1 3121   0.401   3.577   4.583
 1034SOL    HW2 3122   0.416   3.740   4.574
 1035SOL     OW 3123   1.795   2.928   4.597
 1035SOL    HW1 3124   1.733   2.913   4.521
 1035SOL    HW2 3125   1.743   2.939   4.682
 1036SOL     OW 3126   0.321   2.805   3.966
 1036SOL    HW1 3127   0.403   2.844   3.924
 1036SOL    HW2 3128   0.294   2.723   3.917
 1037SOL     OW 3129   1.458   2.597   4.452
 1037SOL    HW1 3130   1.453   2.532   4.527
 1037SOL    HW2 3131   1.538   2.656   4.465
 1038SOL     OW 3132   1.111   3.638   3.961
 1038SOL    HW1 3133   1.051   3.576   4.011
 1038SOL    HW2 3134   1.142   3.594   3.876
 1039SOL     OW 3135   1.632   3.239   3.805
 1039SOL    HW1 3136   1.600   3.333   3.795
 1039SOL    HW2 3137   1.556   3.176   3.793
 1040SOL     OW 3138   0.464   3.605   4.047
 1040SOL    HW1 3139   0.497   3.644   4.133
 1040SOL    HW2 3140   0.540   3.598   3.982
 1041SOL     OW 3141   1.400   1.969   4.150
 1041SOL    HW1 3142   1.376   1.932   4.060
 1041SOL    HW2 3143   1.499   1.985   4.154
 1042SOL     OW 3144   0.249   3.647   4.965
 1042SOL    HW1 3145   0.306   3.582   5.015
 1042SOL    HW2 3146   0.233   3.614   4.872
 1043SOL     OW 3147   0.940   3.560   4.628
 1043SOL    HW1 3148   1.020   3.503   4.649
 1043SOL    HW2 3149   0.891   3.520   4.551
 1044SOL     OW 3150   0.382   2.562   4.204
 1044SOL    HW1 3151   0.427   2.472   4.201
 1044SOL    HW2 3152   0.288   2.551   4.237
 1045SOL     OW 3153   0.614   1.984   3.841
 1045SOL    HW1 3154   0.712   1.962   3.848
 1045SOL    HW2 3155   0.583   1.967   3.748
 1046SOL     OW 3156   0.803   3.264   4.648
 1046SOL    HW1 3157   0.893   3.278   4.606
 1046SOL    HW2 3158   0.732   3.266   4.577
 1047SOL     OW 3159   0.922   2.365   4.623
 1047SOL    HW1 3160   0.897   2.356   4.527
 1047SOL    HW2 3161   0.970   2.283   4.654
 1048SOL     OW 3162   0.539   1.926   4.236
 1048SOL    HW1 3163   0.458   1.927   4.294
 1048SOL    HW2 3164   0.542   2.009   4.181
 1049SOL     OW 3165   1.434   3.050   3.765
 1049SOL    HW1 3166   1.466   2.974   3.822
 1049SOL    HW2 3167   1.342   3.077   3.795
 1050SOL     OW 3168   0.297   1.897   3.895
 1050SOL    HW1 3169   0.346   1.981   3.874
 1050SOL    HW2 3170   0.359   1.832   3.940
 1051SOL     OW 3171   0.935   2.098   4.204
 1051SOL    HW1 3172   0.887   2.139   4.126
 1051SOL    HW2 3173   1.034   2.096   4.185
 1052SOL     OW 3174   1.227   3.432   4.517
 1052SOL    HW1 3175   1.248   3.506   4.452
 1052SOL    HW2 3176   1.295   3.432   4.590
 1053SOL     OW 3177   0.459   3.014   4.465
 1053SOL    HW1 3178   0.388   2.987   4.530
 1053SOL    HW2 3179   0.433   2.986   4.372
 1054SOL     OW 3180   1.271   3.659   4.315
 1054SOL    HW1 3181   1.315   3.723   4.251
 1054SOL    HW2 3182   1.221   3.711   4.385
 1055SOL     OW 3183   1.032   2.411   3.740
 1055SOL    HW1 3184   0.991   2.493   3.701
 1055SOL    HW2 3185   1.096   2.437   3.813
 1056SOL     OW 3186   0.866   2.316   4.366
 1056SOL    HW1 3187   0.834   2.388   4.304
 1056SOL    HW2 3188   0.890   2.235   4.313
 1057SOL     OW 3189   1.017   1.901   4.477
 1057SOL    HW1 3190   0.945   1.906   4.408
 1057SOL    HW2 3191   0.993   1.832   4.546
 1058SOL     OW 3192   1.429   3.035   4.591
 1058SOL    HW1 3193   1.374   2.951   4.584
 1058SOL    HW2 3194   1.455   3.064   4.499
 1059SOL     OW 3195   1.466   2.452   4.716
 1059SOL    HW1 3196   1.436   2.357   4.723
 1059SOL    HW2 3197   1.539   2.468   4.782
 1060SOL     OW 3198   1.857   2.695   4.101
 1060SOL    HW1 3199   1.899   2.631   4.165
 1060SOL    HW2 3200   1.819   2.644   4.023
 1061SOL     OW 3201   0.488   3.247   3.898
 1061SOL    HW1 3202   0.401   3.232   3.945
 1061SOL    HW2 3203   0.471   3.273   3.803
 1062SOL     OW 3204   1.664   3.142   4.381
 1062SOL    HW1 3205   1.763   3.150   4.395
 1062SOL    HW2 3206   1.619   3.226   4.412
 1063SOL     OW 3207   1.390   2.437   3.802
 1063SOL    HW1 3208   1.336   2.416   3.883
 1063SOL    HW2 3209   1.481   2.396   3.811
 1064SOL     OW 3210   0.527   2.118   4.052
 1064SOL    HW1 3211   0.554   2.059   3.977
 1064SOL    HW2 3212   0.527   2.213   4.021
 1065SOL     OW 3213   1.111   3.057   4.824
 1065SOL    HW1 3214   1.071   3.101   4.905
 1065SOL    HW2 3215   1.070   3.094   4.741
 1066SOL     OW 3216   1.638   2.961   4.803
 1066SOL    HW1 3217   1.643   3.042   4.862
 1066SOL    HW2 3218   1.552   2.963   4.752
 1067SOL     OW 3219   0.705   2.912   4.092
 1067SOL    HW1 3220   0.691   2.919   4.191
 1067SOL    HW2 3221   0.789   2.861   4.074
 1068SOL     OW 3222   0.410   2.675   4.975
 1068SOL    HW1 3223   0.496   2.687   5.025
 1068SOL    HW2 3224   0.368   2.588   5.002
 1069SOL     OW 3225   0.367   2.962   4.225
 1069SOL    HW1 3226   0.360   3.045   4.169
 1069SOL    HW2 3227   0.371   2.882   4.165
 1070SOL     OW 3228   0.566   2.399   4.589
 1070SOL    HW1 3229   0.578   2.465   4.515
 1070SOL    HW2 3230   0.612   2.433   4.672
 1071SOL     OW 3231   1.252   3.210   4.112
 1071SOL    HW1 3232   1.302   3.287   4.152
 1071SOL    HW2 3233   1.157   3.212   4.144
 1072SOL     OW 3234   1.272   3.307   4.866
 1072SOL    HW1 3235   1.319   3.320   4.953
 1072SOL    HW2 3236   1.206   3.233   4.875
 1073SOL     OW 3237   1.582   2.501   4.196
 1073SOL    HW1 3238   1.551   2.562   4.269
 1073SOL    HW2 3239   1.632   2.553   4.127
 1074SOL     OW 3240   0.573   2.732   4.753
 1074SOL    HW1 3241   0.617   2.821   4.744
 1074SOL    HW2 3242   0.510   2.732   4.830
 1075SOL     OW 3243   1.360   2.724   4.769
 1075SOL    HW1 3244   1.285   2.724   4.703
 1075SOL    HW2 3245   1.397   2.632   4.778
 1076SOL     OW 3246   1.209   2.387   3.999
 1076SOL    HW1 3247   1.222   2.303   4.053
 1076SOL    HW2 3248   1.180   2.461   4.059
 1077SOL     OW 3249   0.307   2.075   4.955
 1077SOL    HW1 3250   0.284   2.112   5.045
 1077SOL    HW2 3251   0.277   1.980   4.949
 1078SOL     OW 3252   0.037   3.172   5.006
 1078SOL    HW1 3253   0.090   3.123   5.074
 1078SOL    HW2 3254   0.059   3.270   5.011
 1079SOL     OW 3255   0.732   2.496   4.788
 1079SOL    HW1 3256   0.791   2.470   4.712
 1079SOL    HW2 3257   0.704   2.592   4.777
 1080SOL     OW 3258   0.307   1.925   4.342
 1080SOL    HW1 3259   0.296   2.019   4.375
 1080SOL    HW2 3260   0.302   1.862   4.419
 1081SOL     OW 3261   1.622   2.229   4.098
 1081SOL    HW1 3262   1.624   2.153   4.162
 1081SOL    HW2 3263   1.574   2.306   4.138
 1082SOL     OW 3264   1.023   2.628   4.690
 1082SOL    HW1 3265   1.038   2.649   4.786
 1082SOL    HW2 3266   0.993   2.533   4.681
 1083SOL     OW 3267   1.540   2.136   3.849
 1083SOL    HW1 3268   1.479   2.061   3.872
 1083SOL    HW2 3269   1.562   2.188   3.932
 1084SOL     OW 3270   1.303   2.700   3.766
 1084SOL    HW1 3271   1.337   2.607   3.781
 1084SOL    HW2 3272   1.321   2.727   3.671
 1085SOL     OW 3273   1.068   3.195   4.573
 1085SOL    HW1 3274   1.075   3.111   4.518
 1085SOL    HW2 3275   1.130   3.264   4.537
 1086SOL     OW 3276   0.319   2.672   4.673
 1086SOL    HW1 3277   0.412   2.708   4.678
 1086SOL    HW2 3278   0.313   2.587   4.725
 1087SOL     OW 3279   0.339   2.371   4.730
 1087SOL    HW1 3280   0.287   2.288   4.713
 1087SOL    HW2 3281   0.416   2.376   4.666
 1088SOL     OW 3282   1.160   2.069   5.201
 1088SOL    HW1 3283   1.160   2.133   5.278
 1088SOL    HW2 3284   1.188   2.117   5.118
 1089SOL     OW 3285   0.008   3.188   3.924
 1089SOL    HW1 3286  -0.085   3.209   3.893
 1089SOL    HW2 3287   0.018   3.089   3.937
 1090SOL     OW 3288   0.088   3.663   4.651
 1090SOL    HW1 3289   0.046   3.577   4.624
 1090SOL    HW2 3290   0.182   3.666   4.617
 1091SOL     OW 3291   0.504   3.430   4.634
 1091SOL    HW1 3292   0.570   3.504   4.643
 1091SOL    HW2 3293   0.548   3.351   4.592
 1092SOL     OW 3294   1.002   2.658   4.962
 1092SOL    HW1 3295   1.043   2.626   5.048
 1092SOL    HW2 3296   0.906   2.631   4.959
 1093SOL     OW 3297   0.040   2.406   4.838
 1093SOL    HW1 3298   0.125   2.373   4.797
 1093SOL    HW2 3299   0.053   2.421   4.936
 1094SOL     OW 3300   0.815   2.434   4.049
 1094SOL    HW1 3301   0.822   2.345   4.003
 1094SOL    HW2 3302   0.721   2.468   4.041
 1095SOL     OW 3303   1.657   2.466   4.930
 1095SOL    HW1 3304   1.619   2.397   4.992
 1095SOL    HW2 3305   1.739   2.430   4.886
 1096SOL     OW 3306   0.671   2.326   4.993
 1096SOL    HW1 3307   0.637   2.237   4.963
 1096SOL    HW2 3308   0.697   2.380   4.913
 1097SOL     OW 3309   0.473   2.362   3.915
 1097SOL    HW1 3310   0.534   2.442   3.919
 1097SOL    HW2 3311   0.378   2.393   3.922
 1098SOL     OW 3312   1.347   2.921   4.958
 1098SOL    HW1 3313   1.371   2.858   4.884
 1098SOL    HW2 3314   1.257   2.961   4.940
 1099SOL     OW 3315   1.302   2.717   4.033
 1099SOL    HW1 3316   1.216   2.686   4.075
 1099SOL    HW2 3317   1.298   2.703   3.934
 1100SOL     OW 3318   1.759   3.609   4.878
 1100SOL    HW1 3319   1.820   3.639   4.805
 1100SOL    HW2 3320   1.721   3.520   4.856
 1101SOL     OW 3321   0.083   3.120   4.746
 1101SOL    HW1 3322   0.078   3.119   4.846
 1101SOL    HW2 3323   0.000   3.079   4.708
 1102SOL     OW 3324   1.726   1.997   4.247
 1102SOL    HW1 3325   1.799   1.980   4.180
 1102SOL    HW2 3326   1.695   1.910   4.285
 1103SOL     OW 3327   1.388   3.435   4.201
 1103SOL    HW1 3328   1.455   3.447   4.127
 1103SOL    HW2 3329   1.348   3.524   4.224
 1104SOL     OW 3330   1.280   2.789   4.396
 1104SOL    HW1 3331   1.340   2.708   4.398
 1104SOL    HW2 3332   1.320   2.858   4.336
 1105SOL     OW 3333   0.672   3.478   3.878
 1105SOL    HW1 3334   0.681   3.488   3.779
 1105SOL    HW2 3335   0.632   3.389   3.899
 1106SOL     OW 3336   1.650   3.582   5.118
 1106SOL    HW1 3337   1.703   3.592   5.034
 1106SOL    HW2 3338   1.623   3.672   5.152
 1107SOL     OW 3339   1.841   2.037   4.687
 1107SOL    HW1 3340   1.880   1.952   4.651
 1107SOL    HW2 3341   1.743   2.039   4.668
 1108SOL     OW 3342   0.263   2.188   4.444
 1108SOL    HW1 3343   0.184   2.239   4.410
 1108SOL    HW2 3344   0.254   2.173   4.542
 1109SOL     OW 3345   1.194   3.474   3.755
 1109SOL    HW1 3346   1.200   3.381   3.792
 1109SOL    HW2 3347   1.135   3.474   3.675
 1110SOL     OW 3348   0.822   2.864   5.096
 1110SOL    HW1 3349   0.862   2.863   5.004
 1110SOL    HW2 3350   0.832   2.956   5.136
 1111SOL     OW 3351   0.916   2.772   4.015
 1111SOL    HW1 3352   0.979   2.810   3.947
 1111SOL    HW2 3353   0.956   2.689   4.054
 1112SOL     OW 3354   1.504   3.469   3.768
 1112SOL    HW1 3355   1.412   3.506   3.775
 1112SOL    HW2 3356   1.542   3.489   3.678
 1113SOL     OW 3357   1.039   2.960   4.420
 1113SOL    HW1 3358   0.969   2.913   4.474
 1113SOL    HW2 3359   1.098   2.892   4.377
 1114SOL     OW 3360   1.014   2.098   4.695
 1114SOL    HW1 3361   1.006   2.062   4.602
 1114SOL    HW2 3362   1.012   2.022   4.760
 1115SOL     OW 3363   0.590   3.349   4.215
 1115SOL    HW1 3364   0.632   3.291   4.145
 1115SOL    HW2 3365   0.546   3.428   4.171
 1116SOL     OW 3366   1.709   2.247   5.105
 1116SOL    HW1 3367   1.782   2.316   5.109
 1116SOL    HW2 3368   1.737   2.172   5.046
 1117SOL     OW 3369   0.255   3.210   4.014
 1117SOL    HW1 3370   0.159   3.211   3.987
 1117SOL    HW2 3371   0.267   3.263   4.098
 1118SOL     OW 3372   0.075   2.207   3.757
 1118SOL    HW1 3373  -0.017   2.179   3.728
 1118SOL    HW2 3374   0.106   2.284   3.701
 1119SOL     OW 3375   0.072   2.028   4.042
 1119SOL    HW1 3376   0.055   2.111   3.988
 1119SOL    HW2 3377   0.162   1.991   4.020
 1120SOL     OW 3378   1.183   3.197   3.843
 1120SOL    HW1 3379   1.084   3.186   3.845
 1120SOL    HW2 3380   1.217   3.212   3.936
 1121SOL     OW 3381   1.493   3.629   4.683
 1121SOL    HW1 3382   1.526   3.693   4.614
 1121SOL    HW2 3383   1.559   3.623   4.758
 1122SOL     OW 3384   1.674   2.745   4.978
 1122SOL    HW1 3385   1.647   2.656   4.941
 1122SOL    HW2 3386   1.675   2.813   4.905
 1123SOL     OW 3387   1.225   2.187   4.173
 1123SOL    HW1 3388   1.290   2.113   4.162
 1123SOL    HW2 3389   1.245   2.237   4.257
 1124SOL     OW 3390   0.594   2.607   4.376
 1124SOL    HW1 3391   0.644   2.692   4.357
 1124SOL    HW2 3392   0.506   2.609   4.328
 1125SOL     OW 3393   1.730   2.796   5.241
 1125SOL    HW1 3394   1.768   2.887   5.256
 1125SOL    HW2 3395   1.722   2.779   5.142
 1126SOL     OW 3396   0.859   3.236   3.740
 1126SOL    HW1 3397   0.813   3.251   3.828
 1126SOL    HW2 3398   0.903   3.321   3.710
 1127SOL     OW 3399   0.661   3.652   4.677
 1127SOL    HW1 3400   0.615   3.740   4.664
 1127SOL    HW2 3401   0.760   3.664   4.670
 1128SOL     OW 3402   0.859   2.818   4.585
 1128SOL    HW1 3403   0.913   2.749   4.633
 1128SOL    HW2 3404   0.827   2.887   4.651
 1129SOL     OW 3405   1.083   2.846   3.811
 1129SOL    HW1 3406   1.060   2.899   3.729
 1129SOL    HW2 3407   1.164   2.790   3.792
 1130SOL     OW 3408   1.861   3.431   4.575
 1130SOL    HW1 3409   1.790   3.419   4.505
 1130SOL    HW2 3410   1.862   3.352   4.635
 1131SOL     OW 3411   0.079   3.102   4.377
 1131SOL    HW1 3412   0.078   3.055   4.465
 1131SOL    HW2 3413   0.161   3.074   4.326
 1132SOL     OW 3414   1.824   2.054   4.951
 1132SOL    HW1 3415   1.820   1.964   4.995
 1132SOL    HW2 3416   1.827   2.043   4.852
 1133SOL     OW 3417   0.428   2.286   4.244
 1133SOL    HW1 3418   0.458   2.214   4.182
 1133SOL    HW2 3419   0.389   2.246   4.327
 1134SOL     OW 3420   1.705   3.349   4.828
 1134SOL    HW1 3421   1.612   3.324   4.801
 1134SOL    HW2 3422   1.731   3.299   4.910
 1135SOL     OW 3423   0.812   3.448   4.411
 1135SOL    HW1 3424   0.844   3.458   4.317
 1135SOL    HW2 3425   0.733   3.386   4.413
 1136SOL     OW 3426   1.424   2.076   4.836
 1136SOL    HW1 3427   1.476   2.011   4.891
 1136SOL    HW2 3428   1.375   2.139   4.897
 1137SOL     OW 3429   1.001   1.896   4.878
 1137SOL    HW1 3430   0.938   1.824   4.847
 1137SOL    HW2 3431   1.094   1.860   4.878
 1138SOL     OW 3432   0.770   3.192   4.025
 1138SOL    HW1 3433   0.724   3.105   4.042
 1138SOL    HW2 3434   0.861   3.189   4.066
 1139SOL     OW 3435   1.352   1.914   3.892
 1139SOL    HW1 3436   1.387   1.873   3.808
 1139SOL    HW2 3437   1.262   1.876   3.912
 1140SOL     OW 3438   1.300   2.315   4.415
 1140SOL    HW1 3439   1.241   2.395   4.419
 1140SOL    HW2 3440   1.315   2.280   4.508
 1141SOL     OW 3441   1.593   2.083   4.606
 1141SOL    HW1 3442   1.509   2.082   4.660
 1141SOL    HW2 3443   1.595   2.166   4.550
 1142SOL     OW 3444   0.039   2.939   4.024
 1142SOL    HW1 3445   0.138   2.928   4.015
 1142SOL    HW2 3446  -0.001   2.853   4.056
 1143SOL     OW 3447   0.875   3.508   4.061
 1143SOL    HW1 3448   0.798   3.473   4.007
 1143SOL    HW2 3449   0.843   3.579   4.123
 1144SOL     OW 3450   0.230   4.352   0.113
 1144SOL    HW1 3451   0.137   4.350   0.150
 1144SOL    HW2 3452   0.231   4.313   0.021
 1145SOL     OW 3453   0.225   3.999   0.996
 1145SOL    HW1 3454   0.260   3.982   1.088
 1145SOL    HW2 3455   0.137   3.954   0.984
 1146SOL     OW 3456   0.019   4.092   0.647
 1146SOL    HW1 3457  -0.063   4.135   0.686
 1146SOL    HW2 3458  -0.009   4.019   0.584
 1147SOL     OW 3459   1.135   4.427   0.717
 1147SOL    HW1 3460   1.192   4.505   0.692
 1147SOL    HW2 3461   1.075   4.453   0.793
 1148SOL     OW 3462   1.755   4.331   0.231
 1148SOL    HW1 3463   1.743   4.318   0.132
 1148SOL    HW2 3464   1.725   4.250   0.280
 1149SOL     OW 3465   0.768   4.868   1.023
 1149SOL    HW1 3466   0.690   4.885   1.083
 1149SOL    HW2 3467   0.802   4.955   0.987
 1150SOL     OW 3468   0.850   4.522   1.823
 1150SOL    HW1 3469   0.846   4.598   1.888
 1150SOL    HW2 3470   0.872   4.558   1.732
 1151SOL     OW 3471   0.685   4.736   0.665
 1151SOL    HW1 3472   0.754   4.720   0.735
 1151SOL    HW2 3473   0.612   4.793   0.703
 1152SOL     OW 3474   0.686   4.885   1.803
 1152SOL    HW1 3475   0.746   4.964   1.817
 1152SOL    HW2 3476   0.600   4.916   1.762
 1153SOL     OW 3477   0.438   4.116   1.499
 1153SOL    HW1 3478   0.520   4.060   1.508
 1153SOL    HW2 3479   0.357   4.058   1.503
 1154SOL     OW 3480   1.603   4.171   0.737
 1154SOL    HW1 3481   1.529   4.217   0.687
 1154SOL    HW2 3482   1.654   4.239   0.790
 1155SOL     OW 3483   0.240   4.815   0.886
 1155SOL    HW1 3484   0.254   4.731   0.938
 1155SOL    HW2 3485   0.185   4.879   0.941
 1156SOL     OW 3486   0.606   4.688   0.123
 1156SOL    HW1 3487   0.613   4.772   0.069
 1156SOL    HW2 3488   0.652   4.701   0.211
 1157SOL     OW 3489   1.594   3.838   1.480
 1157SOL    HW1 3490   1.576   3.905   1.408
 1157SOL    HW2 3491   1.591   3.884   1.569
 1158SOL     OW 3492   0.122   4.367   0.563
 1158SOL    HW1 3493   0.077   4.279   0.580
 1158SOL    HW2 3494   0.121   4.421   0.647
 1159SOL     OW 3495   1.689   4.646   0.612
 1159SOL    HW1 3496   1.784   4.617   0.620
 1159SOL    HW2 3497   1.681   4.711   0.537
 1160SOL     OW 3498   1.641   4.832   0.432
 1160SOL    HW1 3499   1.727   4.834   0.380
 1160SOL    HW2 3500   1.655   4.879   0.520
 1161SOL     OW 3501   0.113   4.461   1.597
 1161SOL    HW1 3502   0.201   4.448   1.642
 1161SOL    HW2 3503   0.100   4.558   1.575
 1162SOL     OW 3504   1.293   4.952   1.423
 1162SOL    HW1 3505   1.330   4.879   1.365
 1162SOL    HW2 3506   1.345   4.957   1.508
 1163SOL     OW 3507   0.809   3.728   0.502
 1163SOL    HW1 3508   0.849   3.819   0.493
 1163SOL    HW2 3509   0.709   3.736   0.508
 1164SOL     OW 3510   0.197   4.700   1.264
 1164SOL    HW1 3511   0.286   4.655   1.250
 1164SOL    HW2 3512   0.124   4.635   1.245
 1165SOL     OW 3513   1.525   4.723   0.190
 1165SOL    HW1 3514   1.462   4.647   0.203
 1165SOL    HW2 3515   1.573   4.741   0.276
 1166SOL     OW 3516   0.317   3.975   1.801
 1166SOL    HW1 3517   0.388   4.046   1.807
 1166SOL    HW2 3518   0.229   4.014   1.829
 1167SOL     OW 3519   0.598   4.453   0.270
 1167SOL    HW1 3520   0.622   4.522   0.202
 1167SOL    HW2 3521   0.520   4.486   0.324
 1168SOL     OW 3522   1.281   4.069   0.944
 1168SOL    HW1 3523   1.195   4.019   0.931
 1168SOL    HW2 3524   1.343   4.015   1.000
 1169SOL     OW 3525   0.807   4.329   1.465
 1169SOL    HW1 3526   0.760   4.326   1.554
 1169SOL    HW2 3527   0.756   4.274   1.399
 1170SOL     OW 3528   1.394   4.193   1.674
 1170SOL    HW1 3529   1.374   4.236   1.762
 1170SOL    HW2 3530   1.472   4.131   1.683
 1171SOL     OW 3531   0.973   4.614   1.572
 1171SOL    HW1 3532   1.019   4.530   1.543
 1171SOL    HW2 3533   0.917   4.648   1.497
 1172SOL     OW 3534   0.991   4.134   1.242
 1172SOL    HW1 3535   0.914   4.168   1.296
 1172SOL    HW2 3536   0.957   4.083   1.163
 1173SOL     OW 3537   1.041   4.425   0.429
 1173SOL    HW1 3538   1.067   4.421   0.525
 1173SOL    HW2 3539   0.956   4.374   0.415
 1174SOL     OW 3540   0.076   4.535   0.789
 1174SOL    HW1 3541   0.175   4.523   0.798
 1174SOL    HW2 3542   0.052   4.630   0.810
 1175SOL     OW 3543   0.865   4.072   0.195
 1175SOL    HW1 3544   0.924   4.135   0.146
 1175SOL    HW2 3545   0.884   3.978   0.166
 1176SOL     OW 3546   1.719   4.309   1.831
 1176SOL    HW1 3547   1.693   4.398   1.795
 1176SOL    HW2 3548   1.717   4.241   1.758
 1177SOL     OW 3549   1.362   4.868   0.545
 1177SOL    HW1 3550   1.445   4.839   0.497
 1177SOL    HW2 3551   1.313   4.935   0.489
 1178SOL     OW 3552   0.550   3.920   0.885
 1178SOL    HW1 3553   0.545   3.915   0.985
 1178SOL    HW2 3554   0.552   4.016   0.856
 1179SOL     OW 3555   1.795   4.790   0.873
 1179SOL    HW1 3556   1.733   4.775   0.797
 1179SOL    HW2 3557   1.743   4.801   0.958
 1180SOL     OW 3558   0.321   4.667   0.242
 1180SOL    HW1 3559   0.403   4.706   0.200
 1180SOL    HW2 3560   0.294   4.585   0.193
 1181SOL     OW 3561   1.458   4.459   0.728
 1181SOL    HW1 3562   1.453   4.394   0.803
 1181SOL    HW2 3563   1.538   4.518   0.741
 1182SOL     OW 3564   0.202   4.009   1.498
 1182SOL    HW1 3565   0.122   4.069   1.485
 1182SOL    HW2 3566   0.192   3.960   1.584
 1183SOL     OW 3567   1.400   3.831   0.426
 1183SOL    HW1 3568   1.376   3.794   0.336
 1183SOL    HW2 3569   1.499   3.847   0.430
 1184SOL     OW 3570   0.382   4.424   0.480
 1184SOL    HW1 3571   0.427   4.334   0.477
 1184SOL    HW2 3572   0.288   4.413   0.513
 1185SOL     OW 3573   1.547   3.946   1.729
 1185SOL    HW1 3574   1.542   3.983   1.821
 1185SOL    HW2 3575   1.475   3.877   1.717
 1186SOL     OW 3576   0.614   3.846   0.117
 1186SOL    HW1 3577   0.712   3.824   0.124
 1186SOL    HW2 3578   0.583   3.829   0.024
 1187SOL     OW 3579   0.781   3.988   1.749
 1187SOL    HW1 3580   0.848   3.927   1.792
 1187SOL    HW2 3581   0.708   4.007   1.814
 1188SOL     OW 3582   1.351   4.314   1.433
 1188SOL    HW1 3583   1.379   4.271   1.518
 1188SOL    HW2 3584   1.376   4.410   1.434
 1189SOL     OW 3585   0.922   4.227   0.899
 1189SOL    HW1 3586   0.897   4.218   0.803
 1189SOL    HW2 3587   0.970   4.145   0.930
 1190SOL     OW 3588   0.539   3.788   0.512
 1190SOL    HW1 3589   0.458   3.789   0.570
 1190SOL    HW2 3590   0.542   3.871   0.457
 1191SOL     OW 3591   0.297   3.759   0.171
 1191SOL    HW1 3592   0.346   3.843   0.150
 1191SOL    HW2 3593   0.359   3.694   0.216
 1192SOL     OW 3594   0.935   3.960   0.480
 1192SOL    HW1 3595   0.887   4.001   0.402
 1192SOL    HW2 3596   1.034   3.958   0.461
 1193SOL     OW 3597   1.076   4.407   1.464
 1193SOL    HW1 3598   0.996   4.346   1.467
 1193SOL    HW2 3599   1.157   4.354   1.440
 1194SOL     OW 3600   0.459   4.876   0.741
 1194SOL    HW1 3601   0.388   4.849   0.806
 1194SOL    HW2 3602   0.433   4.848   0.648
 1195SOL     OW 3603   1.032   4.273   0.016
 1195SOL    HW1 3604   0.991   4.355  -0.023
 1195SOL    HW2 3605   1.096   4.299   0.089
 1196SOL     OW 3606   0.078   4.280   1.386
 1196SOL    HW1 3607   0.170   4.279   1.345
 1196SOL    HW2 3608   0.072   4.354   1.453
 1197SOL     OW 3609   0.561   3.946   1.147
 1197SOL    HW1 3610   0.599   3.862   1.184
 1197SOL    HW2 3611   0.473   3.965   1.191
 1198SOL     OW 3612   0.866   4.178   0.642
 1198SOL    HW1 3613   0.834   4.250   0.580
 1198SOL    HW2 3614   0.890   4.097   0.589
 1199SOL     OW 3615   1.017   3.763   0.753
 1199SOL    HW1 3616   0.945   3.768   0.684
 1199SOL    HW2 3617   0.993   3.694   0.822
 1200SOL     OW 3618   1.429   4.897   0.867
 1200SOL    HW1 3619   1.374   4.813   0.860
 1200SOL    HW2 3620   1.455   4.926   0.775
 1201SOL     OW 3621   1.466   4.314   0.992
 1201SOL    HW1 3622   1.436   4.219   0.999
 1201SOL    HW2 3623   1.539   4.330   1.058
 1202SOL     OW 3624   1.857   4.557   0.377
 1202SOL    HW1 3625   1.899   4.493   0.441
 1202SOL    HW2 3626   1.819   4.506   0.299
 1203SOL     OW 3627   1.390   4.299   0.078
 1203SOL    HW1 3628   1.336   4.278   0.159
 1203SOL    HW2 3629   1.481   4.258   0.087
 1204SOL     OW 3630   0.527   3.980   0.328
 1204SOL    HW1 3631   0.554   3.921   0.253
 1204SOL    HW2 3632   0.527   4.075   0.297
 1205SOL     OW 3633   1.754   4.947   1.588
 1205SOL    HW1 3634   1.845   4.908   1.575
 1205SOL    HW2 3635   1.762   5.043   1.612
 1206SOL     OW 3636   1.638   4.823   1.079
 1206SOL    HW1 3637   1.643   4.904   1.138
 1206SOL    HW2 3638   1.552   4.825   1.028
 1207SOL     OW 3639   0.915   3.813   1.402
 1207SOL    HW1 3640   0.940   3.793   1.307
 1207SOL    HW2 3641   0.987   3.869   1.444
 1208SOL     OW 3642   0.980   4.840   1.719
 1208SOL    HW1 3643   0.881   4.846   1.729
 1208SOL    HW2 3644   1.003   4.760   1.663
 1209SOL     OW 3645   0.705   4.774   0.368
 1209SOL    HW1 3646   0.691   4.781   0.467
 1209SOL    HW2 3647   0.789   4.723   0.350
 1210SOL     OW 3648   0.410   4.537   1.251
 1210SOL    HW1 3649   0.496   4.549   1.301
 1210SOL    HW2 3650   0.368   4.450   1.278
 1211SOL     OW 3651   1.274   4.110   1.262
 1211SOL    HW1 3652   1.295   4.184   1.326
 1211SOL    HW2 3653   1.185   4.127   1.219
 1212SOL     OW 3654   0.367   4.824   0.501
 1212SOL    HW1 3655   0.360   4.907   0.445
 1212SOL    HW2 3656   0.371   4.744   0.441
 1213SOL     OW 3657   0.566   4.261   0.865
 1213SOL    HW1 3658   0.578   4.327   0.791
 1213SOL    HW2 3659   0.612   4.295   0.948
 1214SOL     OW 3660   1.582   4.363   0.472
 1214SOL    HW1 3661   1.551   4.424   0.545
 1214SOL    HW2 3662   1.632   4.415   0.403
 1215SOL     OW 3663   0.402   4.475   1.598
 1215SOL    HW1 3664   0.470   4.530   1.551
 1215SOL    HW2 3665   0.442   4.387   1.625
 1216SOL     OW 3666   1.587   4.503   1.670
 1216SOL    HW1 3667   1.495   4.541   1.665
 1216SOL    HW2 3668   1.647   4.550   1.605
 1217SOL     OW 3669   1.013   3.829   1.770
 1217SOL    HW1 3670   1.019   3.914   1.718
 1217SOL    HW2 3671   1.045   3.753   1.713
 1218SOL     OW 3672   0.504   3.774   1.740
 1218SOL    HW1 3673   0.462   3.717   1.670
 1218SOL    HW2 3674   0.438   3.843   1.772
 1219SOL     OW 3675   0.573   4.594   1.029
 1219SOL    HW1 3676   0.617   4.683   1.020
 1219SOL    HW2 3677   0.510   4.594   1.106
 1220SOL     OW 3678   1.360   4.586   1.045
 1220SOL    HW1 3679   1.285   4.586   0.979
 1220SOL    HW2 3680   1.397   4.494   1.054
 1221SOL     OW 3681   1.209   4.249   0.275
 1221SOL    HW1 3682   1.222   4.165   0.329
 1221SOL    HW2 3683   1.180   4.323   0.335
 1222SOL     OW 3684   0.307   3.937   1.231
 1222SOL    HW1 3685   0.284   3.974   1.321
 1222SOL    HW2 3686   0.277   3.842   1.225
 1223SOL     OW 3687   0.037   5.034   1.282
 1223SOL    HW1 3688   0.090   4.985   1.350
 1223SOL    HW2 3689   0.059   5.132   1.287
 1224SOL     OW 3690   0.732   4.358   1.064
 1224SOL    HW1 3691   0.791   4.332   0.988
 1224SOL    HW2 3692   0.704   4.454   1.053
 1225SOL     OW 3693   1.728   4.659   1.854
 1225SOL    HW1 3694   1.682   4.652   1.765
 1225SOL    HW2 3695   1.666   4.703   1.920
 1226SOL     OW 3696   0.307   3.787   0.618
 1226SOL    HW1 3697   0.296   3.881   0.651
 1226SOL    HW2 3698   0.302   3.724   0.695
 1227SOL     OW 3699   1.622   4.091   0.374
 1227SOL    HW1 3700   1.624   4.015   0.438
 1227SOL    HW2 3701   1.574   4.168   0.414
 1228SOL     OW 3702   1.023   4.490   0.966
 1228SOL    HW1 3703   1.038   4.511   1.062
 1228SOL    HW2 3704   0.993   4.395   0.957
 1229SOL     OW 3705   0.350   4.622   1.804
 1229SOL    HW1 3706   0.426   4.666   1.852
 1229SOL    HW2 3707   0.385   4.575   1.722
 1230SOL     OW 3708   1.540   3.998   0.125
 1230SOL    HW1 3709   1.479   3.923   0.148
 1230SOL    HW2 3710   1.562   4.050   0.208
 1231SOL     OW 3711   1.303   4.562   0.042
 1231SOL    HW1 3712   1.337   4.469   0.057
 1231SOL    HW2 3713   1.321   4.589  -0.053
 1232SOL     OW 3714   0.319   4.534   0.949
 1232SOL    HW1 3715   0.412   4.570   0.954
 1232SOL    HW2 3716   0.313   4.449   1.001
 1233SOL     OW 3717   0.339   4.233   1.006
 1233SOL    HW1 3718   0.287   4.150   0.989
 1233SOL    HW2 3719   0.416   4.238   0.942
 1234SOL     OW 3720   1.138   4.104   1.678
 1234SOL    HW1 3721   1.093   4.167   1.742
 1234SOL    HW2 3722   1.231   4.135   1.661
 1235SOL     OW 3723   1.160   3.931   1.477
 1235SOL    HW1 3724   1.160   3.995   1.554
 1235SOL    HW2 3725   1.188   3.979   1.394
 1236SOL     OW 3726   0.008   5.050   0.200
 1236SOL    HW1 3727  -0.085   5.071   0.169
 1236SOL    HW2 3728   0.018   4.951   0.213
 1237SOL     OW 3729   1.002   4.520   1.238
 1237SOL    HW1 3730   1.043   4.488   1.324
 1237SOL    HW2 3731   0.906   4.493   1.235
 1238SOL     OW 3732   0.040   4.268   1.114
 1238SOL    HW1 3733   0.125   4.235   1.073
 1238SOL    HW2 3734   0.053   4.283   1.212
 1239SOL     OW 3735   0.189   4.244   1.722
 1239SOL    HW1 3736   0.248   4.204   1.652
 1239SOL    HW2 3737   0.131   4.315   1.681
 1240SOL     OW 3738   1.369   4.674   1.660
 1240SOL    HW1 3739   1.408   4.763   1.680
 1240SOL    HW2 3740   1.379   4.654   1.563
 1241SOL     OW 3741   0.815   4.296   0.325
 1241SOL    HW1 3742   0.822   4.207   0.279
 1241SOL    HW2 3743   0.721   4.330   0.317
 1242SOL     OW 3744   1.657   4.328   1.206
 1242SOL    HW1 3745   1.619   4.259   1.268
 1242SOL    HW2 3746   1.739   4.292   1.162
 1243SOL     OW 3747   0.671   4.188   1.269
 1243SOL    HW1 3748   0.637   4.099   1.239
 1243SOL    HW2 3749   0.697   4.242   1.189
 1244SOL     OW 3750   0.473   4.224   0.191
 1244SOL    HW1 3751   0.534   4.304   0.195
 1244SOL    HW2 3752   0.378   4.255   0.198
 1245SOL     OW 3753   0.159   4.861   1.466
 1245SOL    HW1 3754   0.181   4.800   1.542
 1245SOL    HW2 3755   0.169   4.812   1.380
 1246SOL     OW 3756   1.347   4.783   1.234
 1246SOL    HW1 3757   1.371   4.720   1.160
 1246SOL    HW2 3758   1.257   4.823   1.216
 1247SOL     OW 3759   1.302   4.579   0.309
 1247SOL    HW1 3760   1.216   4.548   0.351
 1247SOL    HW2 3761   1.298   4.565   0.210
 1248SOL     OW 3762   0.083   4.982   1.022
 1248SOL    HW1 3763   0.078   4.981   1.122
 1248SOL    HW2 3764   0.000   4.941   0.984
 1249SOL     OW 3765   0.903   3.810   0.133
 1249SOL    HW1 3766   0.954   3.811   0.047
 1249SOL    HW2 3767   0.959   3.768   0.204
 1250SOL     OW 3768   1.726   3.859   0.523
 1250SOL    HW1 3769   1.799   3.842   0.456
 1250SOL    HW2 3770   1.695   3.772   0.561
 1251SOL     OW 3771   1.280   4.651   0.672
 1251SOL    HW1 3772   1.340   4.570   0.674
 1251SOL    HW2 3773   1.320   4.720   0.612
 1252SOL     OW 3774   1.841   3.899   0.963
 1252SOL    HW1 3775   1.880   3.814   0.927
 1252SOL    HW2 3776   1.743   3.901   0.944
 1253SOL     OW 3777   0.263   4.050   0.720
 1253SOL    HW1 3778   0.184   4.101   0.686
 1253SOL    HW2 3779   0.254   4.035   0.818
 1254SOL     OW 3780   0.822   4.726   1.372
 1254SOL    HW1 3781   0.862   4.725   1.280
 1254SOL    HW2 3782   0.832   4.818   1.412
 1255SOL     OW 3783   0.916   4.634   0.291
 1255SOL    HW1 3784   0.979   4.672   0.223
 1255SOL    HW2 3785   0.956   4.551   0.330
 1256SOL     OW 3786   0.372   5.012   1.490
 1256SOL    HW1 3787   0.359   5.105   1.456
 1256SOL    HW2 3788   0.288   4.960   1.477
 1257SOL     OW 3789   1.614   5.016   1.289
 1257SOL    HW1 3790   1.674   5.019   1.369
 1257SOL    HW2 3791   1.539   5.080   1.302
 1258SOL     OW 3792   1.039   4.822   0.696
 1258SOL    HW1 3793   0.969   4.775   0.750
 1258SOL    HW2 3794   1.098   4.754   0.653
 1259SOL     OW 3795   1.014   3.960   0.971
 1259SOL    HW1 3796   1.006   3.924   0.878
 1259SOL    HW2 3797   1.012   3.884   1.036
 1260SOL     OW 3798   1.709   4.109   1.381
 1260SOL    HW1 3799   1.782   4.178   1.385
 1260SOL    HW2 3800   1.737   4.034   1.322
 1261SOL     OW 3801   0.105   4.737   1.726
 1261SOL    HW1 3802   0.028   4.704   1.780
 1261SOL    HW2 3803   0.190   4.707   1.768
 1262SOL     OW 3804   0.672   3.927   1.489
 1262SOL    HW1 3805   0.762   3.911   1.449
 1262SOL    HW2 3806   0.680   3.932   1.588
 1263SOL     OW 3807   0.075   4.069   0.033
 1263SOL    HW1 3808  -0.017   4.041   0.004
 1263SOL    HW2 3809   0.106   4.146  -0.023
 1264SOL     OW 3810   1.440   4.580   1.398
 1264SOL    HW1 3811   1.383   4.632   1.335
 1264SOL    HW2 3812   1.536   4.592   1.374
 1265SOL     OW 3813   0.072   3.890   0.318
 1265SOL    HW1 3814   0.055   3.973   0.264
 1265SOL    HW2 3815   0.162   3.853   0.296
 1266SOL     OW 3816   0.613   4.566   1.431
 1266SOL    HW1 3817   0.669   4.647   1.414
 1266SOL    HW2 3818   0.672   4.486   1.434
 1267SOL     OW 3819   0.716   4.289   1.708
 1267SOL    HW1 3820   0.735   4.354   1.782
 1267SOL    HW2 3821   0.776   4.209   1.717
 1268SOL     OW 3822   1.450   4.944   1.633
 1268SOL    HW1 3823   1.441   4.934   1.732
 1268SOL    HW2 3824   1.546   4.937   1.607
 1269SOL     OW 3825   1.674   4.607   1.254
 1269SOL    HW1 3826   1.647   4.518   1.217
 1269SOL    HW2 3827   1.675   4.675   1.181
 1270SOL     OW 3828   1.225   4.049   0.449
 1270SOL    HW1 3829   1.290   3.975   0.438
 1270SOL    HW2 3830   1.245   4.099   0.533
 1271SOL     OW 3831   0.594   4.469   0.652
 1271SOL    HW1 3832   0.644   4.554   0.633
 1271SOL    HW2 3833   0.506   4.471   0.604
 1272SOL     OW 3834   1.777   4.066   1.642
 1272SOL    HW1 3835   1.760   4.097   1.548
 1272SOL    HW2 3836   1.693   4.029   1.680
 1273SOL     OW 3837   1.730   4.658   1.517
 1273SOL    HW1 3838   1.768   4.749   1.532
 1273SOL    HW2 3839   1.722   4.641   1.418
 1274SOL     OW 3840   0.859   4.680   0.861
 1274SOL    HW1 3841   0.913   4.611   0.909
 1274SOL    HW2 3842   0.827   4.749   0.927
 1275SOL     OW 3843   1.083   4.708   0.087
 1275SOL    HW1 3844   1.060   4.761   0.005
 1275SOL    HW2 3845   1.164   4.652   0.068
 1276SOL     OW 3846   0.079   4.964   0.653
 1276SOL    HW1 3847   0.078   4.917   0.741
 1276SOL    HW2 3848   0.161   4.936   0.602
 1277SOL     OW 3849   1.824   3.916   1.227
 1277SOL    HW1 3850   1.820   3.826   1.271
 1277SOL    HW2 3851   1.827   3.905   1.128
 1278SOL     OW 3852   0.428   4.148   0.520
 1278SOL    HW1 3853   0.458   4.076   0.458
 1278SOL    HW2 3854   0.389   4.108   0.603
 1279SOL     OW 3855   0.317   4.271   1.280
 1279SOL    HW1 3856   0.355   4.212   1.352
 1279SOL    HW2 3857   0.357   4.245   1.192
 1280SOL     OW 3858   1.424   3.938   1.112
 1280SOL    HW1 3859   1.476   3.873   1.167
 1280SOL    HW2 3860   1.375   4.001   1.173
 1281SOL     OW 3861   1.001   3.758   1.154
 1281SOL    HW1 3862   0.938   3.686   1.123
 1281SOL    HW2 3863   1.094   3.722   1.154
 1282SOL     OW 3864   0.770   5.054   0.301
 1282SOL    HW1 3865   0.724   4.967   0.318
 1282SOL    HW2 3866   0.861   5.051   0.342
 1283SOL     OW 3867   1.352   3.776   0.168
 1283SOL    HW1 3868   1.387   3.735   0.084
 1283SOL    HW2 3869   1.262   3.738   0.188
 1284SOL     OW 3870   1.300   4.177   0.691
 1284SOL    HW1 3871   1.241   4.257   0.695
 1284SOL    HW2 3872   1.315   4.142   0.784
 1285SOL     OW 3873   1.593   3.945   0.882
 1285SOL    HW1 3874   1.509   3.944   0.936
 1285SOL    HW2 3875   1.595   4.028   0.826
 1286SOL     OW 3876   0.039   4.801   0.300
 1286SOL    HW1 3877   0.138   4.790   0.291
 1286SOL    HW2 3878  -0.001   4.715   0.332
 1287SOL     OW 3879   0.230   4.352   1.975
 1287SOL    HW1 3880   0.137   4.350   2.012
 1287SOL    HW2 3881   0.231   4.313   1.883
 1288SOL     OW 3882   0.225   3.999   2.858
 1288SOL    HW1 3883   0.260   3.982   2.950
 1288SOL    HW2 3884   0.137   3.954   2.846
 1289SOL     OW 3885   0.019   4.092   2.509
 1289SOL    HW1 3886  -0.063   4.135   2.548
 1289SOL    HW2 3887  -0.009   4.019   2.446
 1290SOL     OW 3888   1.135   4.427   2.579
 1290SOL    HW1 3889   1.192   4.505   2.554
 1290SOL    HW2 3890   1.075   4.453   2.655
 1291SOL     OW 3891   1.755   4.331   2.093
 1291SOL    HW1 3892   1.743   4.318   1.994
 1291SOL    HW2 3893   1.725   4.250   2.142
 1292SOL     OW 3894   0.768   4.868   2.885
 1292SOL    HW1 3895   0.690   4.885   2.945
 1292SOL    HW2 3896   0.802   4.955   2.849
 1293SOL     OW 3897   0.850   4.522   3.685
 1293SOL    HW1 3898   0.846   4.598   3.750
 1293SOL    HW2 3899   0.872   4.558   3.594
 1294SOL     OW 3900   0.685   4.736   2.527
 1294SOL    HW1 3901   0.754   4.720   2.597
 1294SOL    HW2 3902   0.612   4.793   2.565
 1295SOL     OW 3903   0.686   4.885   3.665
 1295SOL    HW1 3904   0.746   4.964   3.679
 1295SOL    HW2 3905   0.600   4.916   3.624
 1296SOL     OW 3906   0.438   4.116   3.361
 1296SOL    HW1 3907   0.520   4.060   3.370
 1296SOL    HW2 3908   0.357   4.058   3.365
 1297SOL     OW 3909   1.603   4.171   2.599
 1297SOL    HW1 3910   1.529   4.217   2.549
 1297SOL    HW2 3911   1.654   4.239   2.652
 1298SOL     OW 3912   0.240   4.815   2.748
 1298SOL    HW1 3913   0.254   4.731   2.800
 1298SOL    HW2 3914   0.185   4.879   2.803
 1299SOL     OW 3915   0.606   4.688   1.985
 1299SOL    HW1 3916   0.613   4.772   1.931
 1299SOL    HW2 3917   0.652   4.701   2.073
 1300SOL     OW 3918   1.594   3.838   3.342
 1300SOL    HW1 3919   1.576   3.905   3.270
 1300SOL    HW2 3920   1.591   3.884   3.431
 1301SOL     OW 3921   0.122   4.367   2.425
 1301SOL    HW1 3922   0.077   4.279   2.442
 1301SOL    HW2 3923   0.121   4.421   2.509
 1302SOL     OW 3924   1.689   4.646   2.474
 1302SOL    HW1 3925   1.784   4.617   2.482
 1302SOL    HW2 3926   1.681   4.711   2.399
 1303SOL     OW 3927   1.641   4.832   2.294
 1303SOL    HW1 3928   1.727   4.834   2.242
 1303SOL    HW2 3929   1.655   4.879   2.382
 1304SOL     OW 3930   0.113   4.461   3.459
 1304SOL    HW1 3931   0.201   4.448   3.504
 1304SOL    HW2 3932   0.100   4.558   3.437
 1305SOL     OW 3933   1.293   4.952   3.285
 1305SOL    HW1 3934   1.330   4.879   3.227
 1305SOL    HW2 3935   1.345   4.957   3.370
 1306SOL     OW 3936   0.809   3.728   2.364
 1306SOL    HW1 3937   0.849   3.819   2.355
 1306SOL    HW2 3938   0.709   3.736   2.370
 1307SOL     OW 3939   0.197   4.700   3.126
 1307SOL    HW1 3940   0.286   4.655   3.112
 1307SOL    HW2 3941   0.124   4.635   3.107
 1308SOL     OW 3942   1.525   4.723   2.052
 1308SOL    HW1 3943   1.462   4.647   2.065
 1308SOL    HW2 3944   1.573   4.741   2.138
 1309SOL     OW 3945   0.317   3.975   3.663
 1309SOL    HW1 3946   0.388   4.046   3.669
 1309SOL    HW2 3947   0.229   4.014   3.691
 1310SOL     OW 3948   0.598   4.453   2.132
 1310SOL    HW1 3949   0.622   4.522   2.064
 1310SOL    HW2 3950   0.520   4.486   2.186
 1311SOL     OW 3951   1.281   4.069   2.806
 1311SOL    HW1 3952   1.195   4.019   2.793
 1311SOL    HW2 3953   1.343   4.015   2.862
 1312SOL     OW 3954   0.807   4.329   3.327
 1312SOL    HW1 3955   0.760   4.326   3.416
 1312SOL    HW2 3956   0.756   4.274   3.261
 1313SOL     OW 3957   1.394   4.193   3.536
 1313SOL    HW1 3958   1.374   4.236   3.624
 1313SOL    HW2 3959   1.472   4.131   3.545
 1314SOL     OW 3960   0.973   4.614   3.434
 1314SOL    HW1 3961   1.019   4.530   3.405
 1314SOL    HW2 3962   0.917   4.648   3.359
 1315SOL     OW 3963   0.991   4.134   3.104
 1315SOL    HW1 3964   0.914   4.168   3.158
 1315SOL    HW2 3965   0.957   4.083   3.025
 1316SOL     OW 3966   1.041   4.425   2.291
 1316SOL    HW1 3967   1.067   4.421   2.387
 1316SOL    HW2 3968   0.956   4.374   2.277
 1317SOL     OW 3969   0.076   4.535   2.651
 1317SOL    HW1 3970   0.175   4.523   2.660
 1317SOL    HW2 3971   0.052   4.630   2.672
 1318SOL     OW 3972   0.865   4.072   2.057
 1318SOL    HW1 3973   0.924   4.135   2.008
 1318SOL    HW2 3974   0.884   3.978   2.028
 1319SOL     OW 3975   1.719   4.309   3.693
 1319SOL    HW1 3976   1.693   4.398   3.657
 1319SOL    HW2 3977   1.717   4.241   3.620
 1320SOL     OW 3978   1.362   4.868   2.407
 1320SOL    HW1 3979   1.445   4.839   2.359
 1320SOL    HW2 3980   1.313   4.935   2.351
 1321SOL     OW 3981   0.550   3.920   2.747
 1321SOL    HW1 3982   0.545   3.915   2.847
 1321SOL    HW2 3983   0.552   4.016   2.718
 1322SOL     OW 3984   1.795   4.790   2.735
 1322SOL    HW1 3985   1.733   4.775   2.659
 1322SOL    HW2 3986   1.743   4.801   2.820
 1323SOL     OW 3987   0.321   4.667   2.104
 1323SOL    HW1 3988   0.403   4.706   2.062
 1323SOL    HW2 3989   0.294   4.585   2.055
 1324SOL     OW 3990   1.458   4.459   2.590
 1324SOL    HW1 3991   1.453   4.394   2.665
 1324SOL    HW2 3992   1.538   4.518   2.603
 1325SOL     OW 3993   0.202   4.009   3.360
 1325SOL    HW1 3994   0.122   4.069   3.347
 1325SOL    HW2 3995   0.192   3.960   3.446
 1326SOL     OW 3996   1.400   3.831   2.288
 1326SOL    HW1 3997   1.376   3.794   2.198
 1326SOL    HW2 3998   1.499   3.847   2.292
 1327SOL     OW 3999   0.382   4.424   2.342
 1327SOL    HW1 4000   0.427   4.334   2.339
 1327SOL    HW2 4001   0.288   4.413   2.375
 1328SOL     OW 4002   1.547   3.946   3.591
 1328SOL    HW1 4003   1.542   3.983   3.683
 1328SOL    HW2 4004   1.475   3.877   3.579
 1329SOL     OW 4005   0.614   3.846   1.979
 1329SOL    HW1 4006   0.712   3.824   1.986
 1329SOL    HW2 4007   0.583   3.829   1.886
 1330SOL     OW 4008   0.781   3.988   3.611
 1330SOL    HW1 4009   0.848   3.927   3.654
 1330SOL    HW2 4010   0.708   4.007   3.676
 1331SOL     OW 4011   1.351   4.314   3.295
 1331SOL    HW1 4012   1.379   4.271   3.380
 1331SOL    HW2 4013   1.376   4.410   3.296
 1332SOL     OW 4014   0.922   4.227   2.761
 1332SOL    HW1 4015   0.897   4.218   2.665
 1332SOL    HW2 4016   0.970   4.145   2.792
 1333SOL     OW 4017   0.539   3.788   2.374
 1333SOL    HW1 4018   0.458   3.789   2.432
 1333SOL    HW2 4019   0.542   3.871   2.319
 1334SOL     OW 4020   0.297   3.759   2.033
 1334SOL    HW1 4021   0.346   3.843   2.012
 1334SOL    HW2 4022   0.359   3.694   2.078
 1335SOL     OW 4023   0.935   3.960   2.342
 1335SOL    HW1 4024   0.887   4.001   2.264
 1335SOL    HW2 4025   1.034   3.958   2.323
 1336SOL     OW 4026   1.076   4.407   3.326
 1336SOL    HW1 4027   0.996   4.346   3.329
 1336SOL    HW2 4028   1.157   4.354   3.302
 1337SOL     OW 4029   0.459   4.876   2.603
 1337SOL    HW1 4030   0.388   4.849   2.668
 1337SOL    HW2 4031   0.433   4.848   2.510
 1338SOL     OW 4032   1.032   4.273   1.878
 1338SOL    HW1 4033   0.991   4.355   1.839
 1338SOL    HW2 4034   1.096   4.299   1.951
 1339SOL     OW 4035   0.078   4.280   3.248
 1339SOL    HW1 4036   0.170   4.279   3.207
 1339SOL    HW2 4037   0.072   4.354   3.315
 1340SOL     OW 4038   0.561   3.946   3.009
 1340SOL    HW1 4039   0.599   3.862   3.046
 1340SOL    HW2 4040   0.473   3.965   3.053
 1341SOL     OW 4041   0.866   4.178   2.504
 1341SOL    HW1 4042   0.834   4.250   2.442
 1341SOL    HW2 4043   0.890   4.097   2.451
 1342SOL     OW 4044   1.017   3.763   2.615
 1342SOL    HW1 4045   0.945   3.768   2.546
 1342SOL    HW2 4046   0.993   3.694   2.684
 1343SOL     OW 4047   1.429   4.897   2.729
 1343SOL    HW1 4048   1.374   4.813   2.722
 1343SOL    HW2 4049   1.455   4.926   2.637
 1344SOL     OW 4050   1.466   4.314   2.854
 1344SOL    HW1 4051   1.436   4.219   2.861
 1344SOL    HW2 4052   1.539   4.330   2.920
 1345SOL     OW 4053   1.857   4.557   2.239
 1345SOL    HW1 4054   1.899   4.493   2.303
 1345SOL    HW2 4055   1.819   4.506   2.161
 1346SOL     OW 4056   1.390   4.299   1.940
 1346SOL    HW1 4057   1.336   4.278   2.021
 1346SOL    HW2 4058   1.481   4.258   1.949
 1347SOL     OW 4059   0.527   3.980   2.190
 1347SOL    HW1 4060   0.554   3.921   2.115
 1347SOL    HW2 4061   0.527   4.075   2.159
 1348SOL     OW 4062   1.754   4.947   3.450
 1348SOL    HW1 4063   1.845   4.908   3.437
 1348SOL    HW2 4064   1.762   5.043   3.474
 1349SOL     OW 4065   1.638   4.823   2.941
 1349SOL    HW1 4066   1.643   4.904   3.000
 1349SOL    HW2 4067   1.552   4.825   2.890
 1350SOL     OW 4068   0.915   3.813   3.264
 1350SOL    HW1 4069   0.940   3.793   3.169
 1350SOL    HW2 4070   0.987   3.869   3.306
 1351SOL     OW 4071   0.980   4.840   3.581
 1351SOL    HW1 4072   0.881   4.846   3.591
 1351SOL    HW2 4073   1.003   4.760   3.525
 1352SOL     OW 4074   0.705   4.774   2.230
 1352SOL    HW1 4075   0.691   4.781   2.329
 1352SOL    HW2 4076   0.789   4.723   2.212
 1353SOL     OW 4077   0.410   4.537   3.113
 1353SOL    HW1 4078   0.496   4.549   3.163
 1353SOL    HW2 4079   0.368   4.450   3.140
 1354SOL     OW 4080   1.274   4.110   3.124
 1354SOL    HW1 4081   1.295   4.184   3.188
 1354SOL    HW2 4082   1.185   4.127   3.081
 1355SOL     OW 4083   0.367   4.824   2.363
 1355SOL    HW1 4084   0.360   4.907   2.307
 1355SOL    HW2 4085   0.371   4.744   2.303
 1356SOL     OW 4086   0.566   4.261   2.727
 1356SOL    HW1 4087   0.578   4.327   2.653
 1356SOL    HW2 4088   0.612   4.295   2.810
 1357SOL     OW 4089   1.582   4.363   2.334
 1357SOL    HW1 4090   1.551   4.424   2.407
 1357SOL    HW2 4091   1.632   4.415   2.265
 1358SOL     OW 4092   0.402   4.475   3.460
 1358SOL    HW1 4093   0.470   4.530   3.413
 1358SOL    HW2 4094   0.442   4.387   3.487
 1359SOL     OW 4095   1.587   4.503   3.532
 1359SOL    HW1 4096   1.495   4.541   3.527
 1359SOL    HW2 4097   1.647   4.550   3.467
 1360SOL     OW 4098   1.013   3.829   3.632
 1360SOL    HW1 4099   1.019   3.914   3.580
 1360SOL    HW2 4100   1.045   3.753   3.575
 1361SOL     OW 4101   0.504   3.774   3.602
 1361SOL    HW1 4102   0.462   3.717   3.532
 1361SOL    HW2 4103   0.438   3.843   3.634
 1362SOL     OW 4104   0.573   4.594   2.891
 1362SOL    HW1 4105   0.617   4.683   2.882
 1362SOL    HW2 4106   0.510   4.594   2.968
 1363SOL     OW 4107   1.360   4.586   2.907
 1363SOL    HW1 4108   1.285   4.586   2.841
 1363SOL    HW2 4109   1.397   4.494   2.916
 1364SOL     OW 4110   1.209   4.249   2.137
 1364SOL    HW1 4111   1.222   4.165   2.191
 1364SOL    HW2 4112   1.180   4.323   2.197
 1365SOL     OW 4113   0.307   3.937   3.093
 1365SOL    HW1 4114   0.284   3.974   3.183
 1365SOL    HW2 4115   0.277   3.842   3.087
 1366SOL     OW 4116   0.037   5.034   3.144
 1366SOL    HW1 4117   0.090   4.985   3.212
 1366SOL    HW2 4118   0.059   5.132   3.149
 1367SOL     OW 4119   0.732   4.358   2.926
 1367SOL    HW1 4120   0.791   4.332   2.850
 1367SOL    HW2 4121   0.704   4.454   2.915
 1368SOL     OW 4122   1.728   4.659   3.716
 1368SOL    HW1 4123   1.682   4.652   3.627
 1368SOL    HW2 4124   1.666   4.703   3.782
 1369SOL     OW 4125   0.307   3.787   2.480
 1369SOL    HW1 4126   0.296   3.881   2.513
 1369SOL    HW2 4127   0.302   3.724   2.557
 1370SOL     OW 4128   1.622   4.091   2.236
 1370SOL    HW1 4129   1.624   4.015   2.300
 1370SOL    HW2 4130   1.574   4.168   2.276
 1371SOL     OW 4131   1.023   4.490   2.828
 1371SOL    HW1 4132   1.038   4.511   2.924
 1371SOL    HW2 4133   0.993   4.395   2.819
 1372SOL     OW 4134   0.350   4.622   3.666
 1372SOL    HW1 4135   0.426   4.666   3.714
 1372SOL    HW2 4136   0.385   4.575   3.584
 1373SOL     OW 4137   1.540   3.998   1.987
 1373SOL    HW1 4138   1.479   3.923   2.010
 1373SOL    HW2 4139   1.562   4.050   2.070
 1374SOL     OW 4140   1.303   4.562   1.904
 1374SOL    HW1 4141   1.337   4.469   1.919
 1374SOL    HW2 4142   1.321   4.589   1.809
 1375SOL     OW 4143   0.319   4.534   2.811
 1375SOL    HW1 4144   0.412   4.570   2.816
 1375SOL    HW2 4145   0.313   4.449   2.863
 1376SOL     OW 4146   0.339   4.233   2.868
 1376SOL    HW1 4147   0.287   4.150   2.851
 1376SOL    HW2 4148   0.416   4.238   2.804
 1377SOL     OW 4149   1.138   4.104   3.540
 1377SOL    HW1 4150   1.093   4.167   3.604
 1377SOL    HW2 4151   1.231   4.135   3.523
 1378SOL     OW 4152   1.160   3.931   3.339
 1378SOL    HW1 4153   1.160   3.995   3.416
 1378SOL    HW2 4154   1.188   3.979   3.256
 1379SOL     OW 4155   0.008   5.050   2.062
 1379SOL    HW1 4156  -0.085   5.071   2.031
 1379SOL    HW2 4157   0.018   4.951   2.075
 1380SOL     OW 4158   1.002   4.520   3.100
 1380SOL    HW1 4159   1.043   4.488   3.186
 1380SOL    HW2 4160   0.906   4.493   3.097
 1381SOL     OW 4161   0.040   4.268   2.976
 1381SOL    HW1 4162   0.125   4.235   2.935
 1381SOL    HW2 4163   0.053   4.283   3.074
 1382SOL     OW 4164   0.189   4.244   3.584
 1382SOL    HW1 4165   0.248   4.204   3.514
 1382SOL    HW2 4166   0.131   4.315   3.543
 1383SOL     OW 4167   1.369   4.674   3.522
 1383SOL    HW1 4168   1.408   4.763   3.542
 1383SOL    HW2 4169   1.379   4.654   3.425
 1384SOL     OW 4170   0.815   4.296   2.187
 1384SOL    HW1 4171   0.822   4.207   2.141
 1384SOL    HW2 4172   0.721   4.330   2.179
 1385SOL     OW 4173   1.657   4.328   3.068
 1385SOL    HW1 4174   1.619   4.259   3.130
 1385SOL    HW2 4175   1.739   4.292   3.024
 1386SOL     OW 4176   0.671   4.188   3.131
 1386SOL    HW1 4177   0.637   4.099   3.101
 1386SOL    HW2 4178   0.697   4.242   3.051
 1387SOL     OW 4179   0.473   4.224   2.053
 1387SOL    HW1 4180   0.534   4.304   2.057
 1387SOL    HW2 4181   0.378   4.255   2.060
 1388SOL     OW 4182   0.159   4.861   3.328
 1388SOL    HW1 4183   0.181   4.800   3.404
 1388SOL    HW2 4184   0.169   4.812   3.242
 1389SOL     OW 4185   1.347   4.783   3.096
 1389SOL    HW1 4186   1.371   4.720   3.022
 1389SOL    HW2 4187   1.257   4.823   3.078
 1390SOL     OW 4188   1.302   4.579   2.171
 1390SOL    HW1 4189   1.216   4.548   2.213
 1390SOL    HW2 4190   1.298   4.565   2.072
 1391SOL     OW 4191   0.083   4.982   2.884
 1391SOL    HW1 4192   0.078   4.981   2.984
 1391SOL    HW2 4193   0.000   4.941   2.846
 1392SOL     OW 4194   1.726   3.859   2.385
 1392SOL    HW1 4195   1.799   3.842   2.318
 1392SOL    HW2 4196   1.695   3.772   2.423
 1393SOL     OW 4197   1.280   4.651   2.534
 1393SOL    HW1 4198   1.340   4.570   2.536
 1393SOL    HW2 4199   1.320   4.720   2.474
 1394SOL     OW 4200   1.841   3.899   2.825
 1394SOL    HW1 4201   1.880   3.814   2.789
 1394SOL    HW2 4202   1.743   3.901   2.806
 1395SOL     OW 4203   0.263   4.050   2.582
 1395SOL    HW1 4204   0.184   4.101   2.548
 1395SOL    HW2 4205   0.254   4.035   2.680
 1396SOL     OW 4206   0.822   4.726   3.234
 1396SOL    HW1 4207   0.862   4.725   3.142
 1396SOL    HW2 4208   0.832   4.818   3.274
 1397SOL     OW 4209   0.916   4.634   2.153
 1397SOL    HW1 4210   0.979   4.672   2.085
 1397SOL    HW2 4211   0.956   4.551   2.192
 1398SOL     OW 4212   0.372   5.012   3.352
 1398SOL    HW1 4213   0.359   5.105   3.318
 1398SOL    HW2 4214   0.288   4.960   3.339
 1399SOL     OW 4215   1.614   5.016   3.151
 1399SOL    HW1 4216   1.674   5.019   3.231
 1399SOL    HW2 4217   1.539   5.080   3.164
 1400SOL     OW 4218   1.039   4.822   2.558
 1400SOL    HW1 4219   0.969   4.775   2.612
 1400SOL    HW2 4220   1.098   4.754   2.515
 1401SOL     OW 4221   1.014   3.960   2.833
 1401SOL    HW1 4222   1.006   3.924   2.740
 1401SOL    HW2 4223   1.012   3.884   2.898
 1402SOL     OW 4224   1.709   4.109   3.243
 1402SOL    HW1 4225   1.782   4.178   3.247
 1402SOL    HW2 4226   1.737   4.034   3.184
 1403SOL     OW 4227   0.105   4.737   3.588
 1403SOL    HW1 4228   0.028   4.704   3.642
 1403SOL    HW2 4229   0.190   4.707   3.630
 1404SOL     OW 4230   0.672   3.927   3.351
 1404SOL    HW1 4231   0.762   3.911   3.311
 1404SOL    HW2 4232   0.680   3.932   3.450
 1405SOL     OW 4233   0.075   4.069   1.895
 1405SOL    HW1 4234  -0.017   4.041   1.866
 1405SOL    HW2 4235   0.106   4.146   1.839
 1406SOL     OW 4236   1.440   4.580   3.260
 1406SOL    HW1 4237   1.383   4.632   3.197
 1406SOL    HW2 4238   1.536   4.592   3.236
 1407SOL     OW 4239   0.072   3.890   2.180
 1407SOL    HW1 4240   0.055   3.973   2.126
 1407SOL    HW2 4241   0.162   3.853   2.158
 1408SOL     OW 4242   0.613   4.566   3.293
 1408SOL    HW1 4243   0.669   4.647   3.276
 1408SOL    HW2 4244   0.672   4.486   3.296
 1409SOL     OW 4245   0.716   4.289   3.570
 1409SOL    HW1 4246   0.735   4.354   3.644
 1409SOL    HW2 4247   0.776   4.209   3.579
 1410SOL     OW 4248   1.450   4.944   3.495
 1410SOL    HW1 4249   1.441   4.934   3.594
 1410SOL    HW2 4250   1.546   4.937   3.469
 1411SOL     OW 4251   1.674   4.607   3.116
 1411SOL    HW1 4252   1.647   4.518   3.079
 1411SOL    HW2 4253   1.675   4.675   3.043
 1412SOL     OW 4254   1.225   4.049   2.311
 1412SOL    HW1 4255   1.290   3.975   2.300
 1412SOL    HW2 4256   1.245   4.099   2.395
 1413SOL     OW 4257   0.594   4.469   2.514
 1413SOL    HW1 4258   0.644   4.554   2.495
 1413SOL    HW2 4259   0.506   4.471   2.466
 1414SOL     OW 4260   1.777   4.066   3.504
 1414SOL    HW1 4261   1.760   4.097   3.410
 1414SOL    HW2 4262   1.693   4.029   3.542
 1415SOL     OW 4263   1.730   4.658   3.379
 1415SOL    HW1 4264   1.768   4.749   3.394
 1415SOL    HW2 4265   1.722   4.641   3.280
 1416SOL     OW 4266   0.859   4.680   2.723
 1416SOL    HW1 4267   0.913   4.611   2.771
 1416SOL    HW2 4268   0.827   4.749   2.789
 1417SOL     OW 4269   1.083   4.708   1.949
 1417SOL    HW1 4270   1.060   4.761   1.867
 1417SOL    HW2 4271   1.164   4.652   1.930
 1418SOL     OW 4272   0.079   4.964   2.515
 1418SOL    HW1 4273   0.078   4.917   2.603
 1418SOL    HW2 4274   0.161   4.936   2.464
 1419SOL     OW 4275   1.824   3.916   3.089
 1419SOL    HW1 4276   1.820   3.826   3.133
 1419SOL    HW2 4277   1.827   3.905   2.990
 1420SOL     OW 4278   0.428   4.148   2.382
 1420SOL    HW1 4279   0.458   4.076   2.320
 1420SOL    HW2 4280   0.389   4.108   2.465
 1421SOL     OW 4281   0.317   4.271   3.142
 1421SOL    HW1 4282   0.355   4.212   3.214
 1421SOL    HW2 4283   0.357   4.245   3.054
 1422SOL     OW 4284   1.424   3.938   2.974
 1422SOL    HW1 4285   1.476   3.873   3.029
 1422SOL    HW2 4286   1.375   4.001   3.035
 1423SOL     OW 4287   1.001   3.758   3.016
 1423SOL    HW1 4288   0.938   3.686   2.985
 1423SOL    HW2 4289   1.094   3.722   3.016
 1424SOL     OW 4290   0.770   5.054   2.163
 1424SOL    HW1 4291   0.724   4.967   2.180
 1424SOL    HW2 4292   0.861   5.051   2.204
 1425SOL     OW 4293   1.352   3.776   2.030
 1425SOL    HW1 4294   1.387   3.735   1.946
 1425SOL    HW2 4295   1.262   3.738   2.050
 1426SOL     OW 4296   1.300   4.177   2.553
 1426SOL    HW1 4297   1.241   4.257   2.557
 1426SOL    HW2 4298   1.315   4.142   2.646
 1427SOL     OW 4299   1.593   3.945   2.744
 1427SOL    HW1 4300   1.509   3.944   2.798
 1427SOL    HW2 4301   1.595   4.028   2.688
 1428SOL     OW 4302   0.039   4.801   2.162
 1428SOL    HW1 4303   0.138   4.790   2.153
 1428SOL    HW2 4304  -0.001   4.715   2.194
 1429SOL     OW 4305   0.230   4.352   3.837
 1429SOL    HW1 4306   0.137   4.350   3.874
 1429SOL    HW2 4307   0.231   4.313   3.745
 1430SOL     OW 4308   0.225   3.999   4.720
 1430SOL    HW1 4309   0.260   3.982   4.812
 1430SOL    HW2 4310   0.137   3.954   4.708
 1431SOL     OW 4311   0.019   4.092   4.371
 1431SOL    HW1 4312  -0.063   4.135   4.410
 1431SOL    HW2 4313  -0.009   4.019   4.308
 1432SOL     OW 4314   1.135   4.427   4.441
 1432SOL    HW1 4315   1.192   4.505   4.416
 1432SOL    HW2 4316   1.075   4.453   4.517
 1433SOL     OW 4317   1.755   4.331   3.955
 1433SOL    HW1 4318   1.743   4.318   3.856
 1433SOL    HW2 4319   1.725   4.250   4.004
 1434SOL     OW 4320   0.768   4.868   4.747
 1434SOL    HW1 4321   0.690   4.885   4.807
 1434SOL    HW2 4322   0.802   4.955   4.711
 1435SOL     OW 4323   0.685   4.736   4.389
 1435SOL    HW1 4324   0.754   4.720   4.459
 1435SOL    HW2 4325   0.612   4.793   4.427
 1436SOL     OW 4326   1.603   4.171   4.461
 1436SOL    HW1 4327   1.529   4.217   4.411
 1436SOL    HW2 4328   1.654   4.239   4.514
 1437SOL     OW 4329   0.240   4.815   4.610
 1437SOL    HW1 4330   0.254   4.731   4.662
 1437SOL    HW2 4331   0.185   4.879   4.665
 1438SOL     OW 4332   0.606   4.688   3.847
 1438SOL    HW1 4333   0.613   4.772   3.793
 1438SOL    HW2 4334   0.652   4.701   3.935
 1439SOL     OW 4335   0.122   4.367   4.287
 1439SOL    HW1 4336   0.077   4.279   4.304
 1439SOL    HW2 4337   0.121   4.421   4.371
 1440SOL     OW 4338   1.689   4.646   4.336
 1440SOL    HW1 4339   1.784   4.617   4.344
 1440SOL    HW2 4340   1.681   4.711   4.261
 1441SOL     OW 4341   1.641   4.832   4.156
 1441SOL    HW1 4342   1.727   4.834   4.104
 1441SOL    HW2 4343   1.655   4.879   4.244
 1442SOL     OW 4344   0.809   3.728   4.226
 1442SOL    HW1 4345   0.849   3.819   4.217
 1442SOL    HW2 4346   0.709   3.736   4.232
 1443SOL     OW 4347   0.197   4.700   4.988
 1443SOL    HW1 4348   0.286   4.655   4.974
 1443SOL    HW2 4349   0.124   4.635   4.969
 1444SOL     OW 4350   1.525   4.723   3.914
 1444SOL    HW1 4351   1.462   4.647   3.927
 1444SOL    HW2 4352   1.573   4.741   4.000
 1445SOL     OW 4353   0.598   4.453   3.994
 1445SOL    HW1 4354   0.622   4.522   3.926
 1445SOL    HW2 4355   0.520   4.486   4.048
 1446SOL     OW 4356   1.281   4.069   4.668
 1446SOL    HW1 4357   1.195   4.019   4.655
 1446SOL    HW2 4358   1.343   4.015   4.724
 1447SOL     OW 4359   1.041   4.425   4.153
 1447SOL    HW1 4360   1.067   4.421   4.249
 1447SOL    HW2 4361   0.956   4.374   4.139
 1448SOL     OW 4362   0.076   4.535   4.513
 1448SOL    HW1 4363   0.175   4.523   4.522
 1448SOL    HW2 4364   0.052   4.630   4.534
 1449SOL     OW 4365   0.865   4.072   3.919
 1449SOL    HW1 4366   0.924   4.135   3.870
 1449SOL    HW2 4367   0.884   3.978   3.890
 1450SOL     OW 4368   1.362   4.868   4.269
 1450SOL    HW1 4369   1.445   4.839   4.221
 1450SOL    HW2 4370   1.313   4.935   4.213
 1451SOL     OW 4371   0.550   3.920   4.609
 1451SOL    HW1 4372   0.545   3.915   4.709
 1451SOL    HW2 4373   0.552   4.016   4.580
 1452SOL     OW 4374   1.795   4.790   4.597
 1452SOL    HW1 4375   1.733   4.775   4.521
 1452SOL    HW2 4376   1.743   4.801   4.682
 1453SOL     OW 4377   0.321   4.667   3.966
 1453SOL    HW1 4378   0.403   4.706   3.924
 1453SOL    HW2 4379   0.294   4.585   3.917
 1454SOL     OW 4380   1.458   4.459   4.452
 1454SOL    HW1 4381   1.453   4.394   4.527
 1454SOL    HW2 4382   1.538   4.518   4.465
 1455SOL     OW 4383   1.400   3.831   4.150
 1455SOL    HW1 4384   1.376   3.794   4.060
 1455SOL    HW2 4385   1.499   3.847   4.154
 1456SOL     OW 4386   0.382   4.424   4.204
 1456SOL    HW1 4387   0.427   4.334   4.201
 1456SOL    HW2 4388   0.288   4.413   4.237
 1457SOL     OW 4389   0.614   3.846   3.841
 1457SOL    HW1 4390   0.712   3.824   3.848
 1457SOL    HW2 4391   0.583   3.829   3.748
 1458SOL     OW 4392   0.922   4.227   4.623
 1458SOL    HW1 4393   0.897   4.218   4.527
 1458SOL    HW2 4394   0.970   4.145   4.654
 1459SOL     OW 4395   0.539   3.788   4.236
 1459SOL    HW1 4396   0.458   3.789   4.294
 1459SOL    HW2 4397   0.542   3.871   4.181
 1460SOL     OW 4398   0.297   3.759   3.895
 1460SOL    HW1 4399   0.346   3.843   3.874
 1460SOL    HW2 4400   0.359   3.694   3.940
 1461SOL     OW 4401   0.935   3.960   4.204
 1461SOL    HW1 4402   0.887   4.001   4.126
 1461SOL    HW2 4403   1.034   3.958   4.185
 1462SOL     OW 4404   0.459   4.876   4.465
 1462SOL    HW1 4405   0.388   4.849   4.530
 1462SOL    HW2 4406   0.433   4.848   4.372
 1463SOL     OW 4407   1.032   4.273   3.740
 1463SOL    HW1 4408   0.991   4.355   3.701
 1463SOL    HW2 4409   1.096   4.299   3.813
 1464SOL     OW 4410   0.866   4.178   4.366
 1464SOL    HW1 4411   0.834   4.250   4.304
 1464SOL    HW2 4412   0.890   4.097   4.313
 1465SOL     OW 4413   1.017   3.763   4.477
 1465SOL    HW1 4414   0.945   3.768   4.408
 1465SOL    HW2 4415   0.993   3.694   4.546
 1466SOL     OW 4416   1.429   4.897   4.591
 1466SOL    HW1 4417   1.374   4.813   4.584
 1466SOL    HW2 4418   1.455   4.926   4.499
 1467SOL     OW 4419   1.466   4.314   4.716
 1467SOL    HW1 4420   1.436   4.219   4.723
 1467SOL    HW2 4421   1.539   4.330   4.782
 1468SOL     OW 4422   1.857   4.557   4.101
 1468SOL    HW1 4423   1.899   4.493   4.165
 1468SOL    HW2 4424   1.819   4.506   4.023
 1469SOL     OW 4425   1.390   4.299   3.802
 1469SOL    HW1 4426   1.336   4.278   3.883
 1469SOL    HW2 4427   1.481   4.258   3.811
 1470SOL     OW 4428   0.527   3.980   4.052
 1470SOL    HW1 4429   0.554   3.921   3.977
 1470SOL    HW2 4430   0.527   4.075   4.021
 1471SOL     OW 4431   1.638   4.823   4.803
 1471SOL    HW1 4432   1.643   4.904   4.862
 1471SOL    HW2 4433   1.552   4.825   4.752
 1472SOL     OW 4434   0.705   4.774   4.092
 1472SOL    HW1 4435   0.691   4.781   4.191
 1472SOL    HW2 4436   0.789   4.723   4.074
 1473SOL     OW 4437   0.410   4.537   4.975
 1473SOL    HW1 4438   0.496   4.549   5.025
 1473SOL    HW2 4439   0.368   4.450   5.002
 1474SOL     OW 4440   0.367   4.824   4.225
 1474SOL    HW1 4441   0.360   4.907   4.169
 1474SOL    HW2 4442   0.371   4.744   4.165
 1475SOL     OW 4443   0.566   4.261   4.589
 1475SOL    HW1 4444   0.578   4.327   4.515
 1475SOL    HW2 4445   0.612   4.295   4.672
 1476SOL     OW 4446   1.582   4.363   4.196
 1476SOL    HW1 4447   1.551   4.424   4.269
 1476SOL    HW2 4448   1.632   4.415   4.127
 1477SOL     OW 4449   0.573   4.594   4.753
 1477SOL    HW1 4450   0.617   4.683   4.744
 1477SOL    HW2 4451   0.510   4.594   4.830
 1478SOL     OW 4452   1.360   4.586   4.769
 1478SOL    HW1 4453   1.285   4.586   4.703
 1478SOL    HW2 4454   1.397   4.494   4.778
 1479SOL     OW 4455   1.209   4.249   3.999
 1479SOL    HW1 4456   1.222   4.165   4.053
 1479SOL    HW2 4457   1.180   4.323   4.059
 1480SOL     OW 4458   0.307   3.937   4.955
 1480SOL    HW1 4459   0.284   3.974   5.045
 1480SOL    HW2 4460   0.277   3.842   4.949
 1481SOL     OW 4461   0.037   5.034   5.006
 1481SOL    HW1 4462   0.090   4.985   5.074
 1481SOL    HW2 4463   0.059   5.132   5.011
 1482SOL     OW 4464   0.732   4.358   4.788
 1482SOL    HW1 4465   0.791   4.332   4.712
 1482SOL    HW2 4466   0.704   4.454   4.777
 1483SOL     OW 4467   0.307   3.787   4.342
 1483SOL    HW1 4468   0.296   3.881   4.375
 1483SOL    HW2 4469   0.302   3.724   4.419
 1484SOL     OW 4470   1.622   4.091   4.098
 1484SOL    HW1 4471   1.624   4.015   4.162
 1484SOL    HW2 4472   1.574   4.168   4.138
 1485SOL     OW 4473   1.023   4.490   4.690
 1485SOL    HW1 4474   1.038   4.511   4.786
 1485SOL    HW2 4475   0.993   4.395   4.681
 1486SOL     OW 4476   1.540   3.998   3.849
 1486SOL    HW1 4477   1.479   3.923   3.872
 1486SOL    HW2 4478   1.562   4.050   3.932
 1487SOL     OW 4479   1.303   4.562   3.766
 1487SOL    HW1 4480   1.337   4.469   3.781
 1487SOL    HW2 4481   1.321   4.589   3.671
 1488SOL     OW 4482   0.319   4.534   4.673
 1488SOL    HW1 4483   0.412   4.570   4.678
 1488SOL    HW2 4484   0.313   4.449   4.725
 1489SOL     OW 4485   0.339   4.233   4.730
 1489SOL    HW1 4486   0.287   4.150   4.713
 1489SOL    HW2 4487   0.416   4.238   4.666
 1490SOL     OW 4488   1.160   3.931   5.201
 1490SOL    HW1 4489   1.160   3.995   5.278
 1490SOL    HW2 4490   1.188   3.979   5.118
 1491SOL     OW 4491   0.008   5.050   3.924
 1491SOL    HW1 4492  -0.085   5.071   3.893
 1491SOL    HW2 4493   0.018   4.951   3.937
 1492SOL     OW 4494   1.002   4.520   4.962
 1492SOL    HW1 4495   1.043   4.488   5.048
 1492SOL    HW2 4496   0.906   4.493   4.959
 1493SOL     OW 4497   0.040   4.268   4.838
 1493SOL    HW1 4498   0.125   4.235   4.797
 1493SOL    HW2 4499   0.053   4.283   4.936
 1494SOL     OW 4500   0.815   4.296   4.049
 1494SOL    HW1 4501   0.822   4.207   4.003
 1494SOL    HW2 4502   0.721   4.330   4.041
 1495SOL     OW 4503   1.657   4.328   4.930
 1495SOL    HW1 4504   1.619   4.259   4.992
 1495SOL    HW2 4505   1.739   4.292   4.886
 1496SOL     OW 4506   0.671   4.188   4.993
 1496SOL    HW1 4507   0.637   4.099   4.963
 1496SOL    HW2 4508   0.697   4.242   4.913
 1497SOL     OW 4509   0.473   4.224   3.915
 1497SOL    HW1 4510   0.534   4.304   3.919
 1497SOL    HW2 4511   0.378   4.255   3.922
 1498SOL     OW 4512   1.347   4.783   4.958
 1498SOL    HW1 4513   1.371   4.720   4.884
 1498SOL    HW2 4514   1.257   4.823   4.940
 1499SOL     OW 4515   1.302   4.579   4.033
 1499SOL    HW1 4516   1.216   4.548   4.075
 1499SOL    HW2 4517   1.298   4.565   3.934
 1500SOL     OW 4518   0.083   4.982   4.746
 1500SOL    HW1 4519   0.078   4.981   4.846
 1500SOL    HW2 4520   0.000   4.941   4.708
 1501SOL     OW 4521   1.726   3.859   4.247
 1501SOL    HW1 4522   1.799   3.842   4.180
 1501SOL    HW2 4523   1.695   3.772   4.285
 1502SOL     OW 4524   1.280   4.651   4.396
 1502SOL    HW1 4525   1.340   4.570   4.398
 1502SOL    HW2 4526   1.320   4.720   4.336
 1503SOL     OW 4527   1.841   3.899   4.687
 1503SOL    HW1 4528   1.880   3.814   4.651
 1503SOL    HW2 4529   1.743   3.901   4.668
 1504SOL     OW 4530   0.263   4.050   4.444
 1504SOL    HW1 4531   0.184   4.101   4.410
 1504SOL    HW2 4532   0.254   4.035   4.542
 1505SOL     OW 4533   0.822   4.726   5.096
 1505SOL    HW1 4534   0.862   4.725   5.004
 1505SOL    HW2 4535   0.832   4.818   5.136
 1506SOL     OW 4536   0.916   4.634   4.015
 1506SOL    HW1 4537   0.979   4.672   3.947
 1506SOL    HW2 4538   0.956   4.551   4.054
 1507SOL     OW 4539   1.614   5.016   5.013
 1507SOL    HW1 4540   1.674   5.019   5.093
 1507SOL    HW2 4541   1.539   5.080   5.026
 1508SOL     OW 4542   1.039   4.822   4.420
 1508SOL    HW1 4543   0.969   4.775   4.474
 1508SOL    HW2 4544   1.098   4.754   4.377
 1509SOL     OW 4545   1.014   3.960   4.695
 1509SOL    HW1 4546   1.006   3.924   4.602
 1509SOL    HW2 4547   1.012   3.884   4.760
 1510SOL     OW 4548   1.709   4.109   5.105
 1510SOL    HW1 4549   1.782   4.178   5.109
 1510SOL    HW2 4550   1.737   4.034   5.046
 1511SOL     OW 4551   0.075   4.069   3.757
 1511SOL    HW1 4552  -0.017   4.041   3.728
 1511SOL    HW2 4553   0.106   4.146   3.701
 1512SOL     OW 4554   0.072   3.890   4.042
 1512SOL    HW1 4555   0.055   3.973   3.988
 1512SOL    HW2 4556   0.162   3.853   4.020
 1513SOL     OW 4557   1.674   4.607   4.978
 1513SOL    HW1 4558   1.647   4.518   4.941
 1513SOL    HW2 4559   1.675   4.675   4.905
 1514SOL     OW 4560   1.225   4.049   4.173
 1514SOL    HW1 4561   1.290   3.975   4.162
 1514SOL    HW2 4562   1.245   4.099   4.257
 1515SOL     OW 4563   0.594   4.469   4.376
 1515SOL    HW1 4564   0.644   4.554   4.357
 1515SOL    HW2 4565   0.506   4.471   4.328
 1516SOL     OW 4566   1.730   4.658   5.241
 1516SOL    HW1 4567   1.768   4.749   5.256
 1516SOL    HW2 4568   1.722   4.641   5.142
 1517SOL     OW 4569   0.859   4.680   4.585
 1517SOL    HW1 4570   0.913   4.611   4.633
 1517SOL    HW2 4571   0.827   4.749   4.651
 1518SOL     OW 4572   1.083   4.708   3.811
 1518SOL    HW1 4573   1.060   4.761   3.729
 1518SOL    HW2 4574   1.164   4.652   3.792
 1519SOL     OW 4575   0.079   4.964   4.377
 1519SOL    HW1 4576   0.078   4.917   4.465
 1519SOL    HW2 4577   0.161   4.936   4.326
 1520SOL     OW 4578   1.824   3.916   4.951
 1520SOL    HW1 4579   1.820   3.826   4.995
 1520SOL    HW2 4580   1.827   3.905   4.852
 1521SOL     OW 4581   0.428   4.148   4.244
 1521SOL    HW1 4582   0.458   4.076   4.182
 1521SOL    HW2 4583   0.389   4.108   4.327
 1522SOL     OW 4584   1.424   3.938   4.836
 1522SOL    HW1 4585   1.476   3.873   4.891
 1522SOL    HW2 4586   1.375   4.001   4.897
 1523SOL     OW 4587   1.001   3.758   4.878
 1523SOL    HW1 4588   0.938   3.686   4.847
 1523SOL    HW2 4589   1.094   3.722   4.878
 1524SOL     OW 4590   0.770   5.054   4.025
 1524SOL    HW1 4591   0.724   4.967   4.042
 1524SOL    HW2 4592   0.861   5.051   4.066
 1525SOL     OW 4593   1.352   3.776   3.892
 1525SOL    HW1 4594   1.387   3.735   3.808
 1525SOL    HW2 4595   1.262   3.738   3.912
 1526SOL     OW 4596   1.300   4.177   4.415
 1526SOL    HW1 4597   1.241   4.257   4.419
 1526SOL    HW2 4598   1.315   4.142   4.508
 1527SOL     OW 4599   1.593   3.945   4.606
 1527SOL    HW1 4600   1.509   3.944   4.660
 1527SOL    HW2 4601   1.595   4.028   4.550
 1528SOL     OW 4602   0.039   4.801   4.024
 1528SOL    HW1 4603   0.138   4.790   4.015
 1528SOL    HW2 4604  -0.001   4.715   4.056
 1529SOL     OW 4605   2.092   0.628   0.113
 1529SOL    HW1 4606   1.999   0.626   0.150
 1529SOL    HW2 4607   2.093   0.589   0.021
 1530SOL     OW 4608   2.087   0.275   0.996
 1530SOL    HW1 4609   2.122   0.258   1.088
 1530SOL    HW2 4610   1.999   0.230   0.984
 1531SOL     OW 4611   1.881   0.368   0.647
 1531SOL    HW1 4612   1.799   0.411   0.686
 1531SOL    HW2 4613   1.853   0.295   0.584
 1532SOL     OW 4614   2.431   1.275   1.165
 1532SOL    HW1 4615   2.338   1.268   1.128
 1532SOL    HW2 4616   2.442   1.364   1.209
 1533SOL     OW 4617   3.417   1.511   0.703
 1533SOL    HW1 4618   3.360   1.495   0.784
 1533SOL    HW2 4619   3.358   1.521   0.623
 1534SOL     OW 4620   2.997   0.703   0.717
 1534SOL    HW1 4621   3.054   0.781   0.692
 1534SOL    HW2 4622   2.937   0.729   0.793
 1535SOL     OW 4623   3.617   0.607   0.231
 1535SOL    HW1 4624   3.605   0.594   0.132
 1535SOL    HW2 4625   3.587   0.526   0.280
 1536SOL     OW 4626   2.630   1.144   1.023
 1536SOL    HW1 4627   2.552   1.161   1.083
 1536SOL    HW2 4628   2.664   1.231   0.987
 1537SOL     OW 4629   2.712   0.798   1.823
 1537SOL    HW1 4630   2.708   0.874   1.888
 1537SOL    HW2 4631   2.734   0.834   1.732
 1538SOL     OW 4632   2.547   1.012   0.665
 1538SOL    HW1 4633   2.616   0.996   0.735
 1538SOL    HW2 4634   2.474   1.069   0.703
 1539SOL     OW 4635   2.548   1.161   1.803
 1539SOL    HW1 4636   2.608   1.240   1.817
 1539SOL    HW2 4637   2.462   1.192   1.762
 1540SOL     OW 4638   2.197   1.435   1.061
 1540SOL    HW1 4639   2.119   1.404   1.008
 1540SOL    HW2 4640   2.255   1.493   1.004
 1541SOL     OW 4641   3.322   1.505   1.339
 1541SOL    HW1 4642   3.346   1.599   1.365
 1541SOL    HW2 4643   3.306   1.451   1.421
 1542SOL     OW 4644   2.300   0.392   1.499
 1542SOL    HW1 4645   2.382   0.336   1.508
 1542SOL    HW2 4646   2.219   0.334   1.503
 1543SOL     OW 4647   3.465   0.447   0.737
 1543SOL    HW1 4648   3.391   0.493   0.687
 1543SOL    HW2 4649   3.516   0.515   0.790
 1544SOL     OW 4650   2.093   1.713   0.483
 1544SOL    HW1 4651   2.127   1.790   0.537
 1544SOL    HW2 4652   2.137   1.713   0.393
 1545SOL     OW 4653   2.989   1.341   1.690
 1545SOL    HW1 4654   3.036   1.341   1.778
 1545SOL    HW2 4655   2.941   1.254   1.679
 1546SOL     OW 4656   2.092   1.434   0.538
 1546SOL    HW1 4657   2.066   1.530   0.538
 1546SOL    HW2 4658   2.021   1.380   0.583
 1547SOL     OW 4659   2.102   1.091   0.886
 1547SOL    HW1 4660   2.116   1.007   0.938
 1547SOL    HW2 4661   2.047   1.155   0.941
 1548SOL     OW 4662   2.482   1.786   1.439
 1548SOL    HW1 4663   2.390   1.769   1.474
 1548SOL    HW2 4664   2.510   1.878   1.465
 1549SOL     OW 4665   2.468   0.964   0.123
 1549SOL    HW1 4666   2.475   1.048   0.069
 1549SOL    HW2 4667   2.514   0.977   0.211
 1550SOL     OW 4668   3.456   0.114   1.480
 1550SOL    HW1 4669   3.438   0.181   1.408
 1550SOL    HW2 4670   3.453   0.160   1.569
 1551SOL     OW 4671   1.984   0.643   0.563
 1551SOL    HW1 4672   1.939   0.555   0.580
 1551SOL    HW2 4673   1.983   0.697   0.647
 1552SOL     OW 4674   3.704   1.767   0.359
 1552SOL    HW1 4675   3.758   1.738   0.439
 1552SOL    HW2 4676   3.734   1.857   0.330
 1553SOL     OW 4677   1.889   1.596   0.117
 1553SOL    HW1 4678   1.870   1.500   0.138
 1553SOL    HW2 4679   1.856   1.654   0.192
 1554SOL     OW 4680   3.551   0.922   0.612
 1554SOL    HW1 4681   3.646   0.893   0.620
 1554SOL    HW2 4682   3.543   0.987   0.537
 1555SOL     OW 4683   3.503   1.108   0.432
 1555SOL    HW1 4684   3.589   1.110   0.380
 1555SOL    HW2 4685   3.517   1.155   0.520
 1556SOL     OW 4686   1.975   0.737   1.597
 1556SOL    HW1 4687   2.063   0.724   1.642
 1556SOL    HW2 4688   1.962   0.834   1.575
 1557SOL     OW 4689   2.475   1.365   0.726
 1557SOL    HW1 4690   2.426   1.278   0.735
 1557SOL    HW2 4691   2.452   1.408   0.639
 1558SOL     OW 4692   3.155   1.228   1.423
 1558SOL    HW1 4693   3.192   1.155   1.365
 1558SOL    HW2 4694   3.207   1.233   1.508
 1559SOL     OW 4695   2.671   0.004   0.502
 1559SOL    HW1 4696   2.711   0.095   0.493
 1559SOL    HW2 4697   2.571   0.012   0.508
 1560SOL     OW 4698   2.059   0.976   1.264
 1560SOL    HW1 4699   2.148   0.931   1.250
 1560SOL    HW2 4700   1.986   0.911   1.245
 1561SOL     OW 4701   3.387   0.999   0.190
 1561SOL    HW1 4702   3.324   0.923   0.203
 1561SOL    HW2 4703   3.435   1.017   0.276
 1562SOL     OW 4704   3.049   1.792   1.616
 1562SOL    HW1 4705   3.073   1.852   1.540
 1562SOL    HW2 4706   3.056   1.697   1.586
 1563SOL     OW 4707   2.179   0.251   1.801
 1563SOL    HW1 4708   2.250   0.322   1.807
 1563SOL    HW2 4709   2.091   0.290   1.829
 1564SOL     OW 4710   3.328   1.417   0.953
 1564SOL    HW1 4711   3.269   1.423   1.033
 1564SOL    HW2 4712   3.313   1.329   0.907
 1565SOL     OW 4713   3.529   1.714   0.572
 1565SOL    HW1 4714   3.488   1.691   0.484
 1565SOL    HW2 4715   3.511   1.640   0.637
 1566SOL     OW 4716   2.460   0.729   0.270
 1566SOL    HW1 4717   2.484   0.798   0.202
 1566SOL    HW2 4718   2.382   0.762   0.324
 1567SOL     OW 4719   3.143   0.345   0.944
 1567SOL    HW1 4720   3.057   0.295   0.931
 1567SOL    HW2 4721   3.205   0.291   1.000
 1568SOL     OW 4722   3.438   1.662   0.307
 1568SOL    HW1 4723   3.527   1.708   0.310
 1568SOL    HW2 4724   3.417   1.638   0.212
 1569SOL     OW 4725   2.669   0.605   1.465
 1569SOL    HW1 4726   2.622   0.602   1.554
 1569SOL    HW2 4727   2.618   0.550   1.399
 1570SOL     OW 4728   3.256   0.469   1.674
 1570SOL    HW1 4729   3.236   0.512   1.762
 1570SOL    HW2 4730   3.334   0.407   1.683
 1571SOL     OW 4731   2.835   0.890   1.572
 1571SOL    HW1 4732   2.881   0.806   1.543
 1571SOL    HW2 4733   2.779   0.924   1.497
 1572SOL     OW 4734   2.853   0.410   1.242
 1572SOL    HW1 4735   2.776   0.444   1.296
 1572SOL    HW2 4736   2.819   0.359   1.163
 1573SOL     OW 4737   2.903   0.701   0.429
 1573SOL    HW1 4738   2.929   0.697   0.525
 1573SOL    HW2 4739   2.818   0.650   0.415
 1574SOL     OW 4740   1.938   0.811   0.789
 1574SOL    HW1 4741   2.037   0.799   0.798
 1574SOL    HW2 4742   1.914   0.906   0.810
 1575SOL     OW 4743   1.992   1.821   1.571
 1575SOL    HW1 4744   1.982   1.806   1.670
 1575SOL    HW2 4745   1.906   1.857   1.535
 1576SOL     OW 4746   2.727   0.348   0.195
 1576SOL    HW1 4747   2.786   0.411   0.146
 1576SOL    HW2 4748   2.746   0.254   0.166
 1577SOL     OW 4749   3.581   0.585   1.831
 1577SOL    HW1 4750   3.555   0.674   1.795
 1577SOL    HW2 4751   3.579   0.517   1.758
 1578SOL     OW 4752   3.224   1.144   0.545
 1578SOL    HW1 4753   3.307   1.115   0.497
 1578SOL    HW2 4754   3.175   1.211   0.489
 1579SOL     OW 4755   2.412   0.196   0.885
 1579SOL    HW1 4756   2.407   0.191   0.985
 1579SOL    HW2 4757   2.414   0.292   0.856
 1580SOL     OW 4758   2.870   1.456   0.477
 1580SOL    HW1 4759   2.824   1.528   0.425
 1580SOL    HW2 4760   2.866   1.476   0.575
 1581SOL     OW 4761   2.213   1.801   0.853
 1581SOL    HW1 4762   2.263   1.715   0.859
 1581SOL    HW2 4763   2.278   1.878   0.850
 1582SOL     OW 4764   3.657   1.066   0.873
 1582SOL    HW1 4765   3.595   1.051   0.797
 1582SOL    HW2 4766   3.605   1.077   0.958
 1583SOL     OW 4767   3.089   1.550   1.506
 1583SOL    HW1 4768   3.095   1.473   1.570
 1583SOL    HW2 4769   3.037   1.524   1.426
 1584SOL     OW 4770   2.183   0.943   0.242
 1584SOL    HW1 4771   2.265   0.982   0.200
 1584SOL    HW2 4772   2.156   0.861   0.193
 1585SOL     OW 4773   3.320   0.735   0.728
 1585SOL    HW1 4774   3.315   0.670   0.803
 1585SOL    HW2 4775   3.400   0.794   0.741
 1586SOL     OW 4776   2.323   1.266   1.727
 1586SOL    HW1 4777   2.273   1.267   1.641
 1586SOL    HW2 4778   2.260   1.248   1.803
 1587SOL     OW 4779   2.973   1.776   0.237
 1587SOL    HW1 4780   2.913   1.714   0.287
 1587SOL    HW2 4781   3.004   1.732   0.152
 1588SOL     OW 4782   2.064   0.285   1.498
 1588SOL    HW1 4783   1.984   0.345   1.485
 1588SOL    HW2 4784   2.054   0.236   1.584
 1589SOL     OW 4785   3.494   1.377   0.081
 1589SOL    HW1 4786   3.462   1.471   0.071
 1589SOL    HW2 4787   3.418   1.314   0.069
 1590SOL     OW 4788   2.326   1.743   0.323
 1590SOL    HW1 4789   2.359   1.782   0.409
 1590SOL    HW2 4790   2.402   1.736   0.258
 1591SOL     OW 4791   3.262   0.107   0.426
 1591SOL    HW1 4792   3.238   0.070   0.336
 1591SOL    HW2 4793   3.361   0.123   0.430
 1592SOL     OW 4794   2.111   1.785   1.241
 1592SOL    HW1 4795   2.168   1.720   1.291
 1592SOL    HW2 4796   2.095   1.752   1.148
 1593SOL     OW 4797   2.802   1.698   0.904
 1593SOL    HW1 4798   2.882   1.641   0.925
 1593SOL    HW2 4799   2.753   1.658   0.827
 1594SOL     OW 4800   2.244   0.700   0.480
 1594SOL    HW1 4801   2.289   0.610   0.477
 1594SOL    HW2 4802   2.150   0.689   0.513
 1595SOL     OW 4803   3.409   0.222   1.729
 1595SOL    HW1 4804   3.404   0.259   1.821
 1595SOL    HW2 4805   3.337   0.153   1.717
 1596SOL     OW 4806   2.476   0.122   0.117
 1596SOL    HW1 4807   2.574   0.100   0.124
 1596SOL    HW2 4808   2.445   0.105   0.024
 1597SOL     OW 4809   2.643   0.264   1.749
 1597SOL    HW1 4810   2.710   0.203   1.792
 1597SOL    HW2 4811   2.570   0.283   1.814
 1598SOL     OW 4812   2.750   1.514   1.195
 1598SOL    HW1 4813   2.727   1.489   1.101
 1598SOL    HW2 4814   2.811   1.445   1.234
 1599SOL     OW 4815   3.213   0.590   1.433
 1599SOL    HW1 4816   3.241   0.547   1.518
 1599SOL    HW2 4817   3.238   0.686   1.434
 1600SOL     OW 4818   2.665   1.402   0.924
 1600SOL    HW1 4819   2.755   1.416   0.882
 1600SOL    HW2 4820   2.594   1.404   0.853
 1601SOL     OW 4821   2.784   0.503   0.899
 1601SOL    HW1 4822   2.759   0.494   0.803
 1601SOL    HW2 4823   2.832   0.421   0.930
 1602SOL     OW 4824   2.401   0.064   0.512
 1602SOL    HW1 4825   2.320   0.065   0.570
 1602SOL    HW2 4826   2.404   0.147   0.457
 1603SOL     OW 4827   3.296   1.188   0.041
 1603SOL    HW1 4828   3.328   1.112   0.098
 1603SOL    HW2 4829   3.204   1.215   0.071
 1604SOL     OW 4830   2.159   0.035   0.171
 1604SOL    HW1 4831   2.208   0.119   0.150
 1604SOL    HW2 4832   2.221  -0.030   0.216
 1605SOL     OW 4833   2.797   0.236   0.480
 1605SOL    HW1 4834   2.749   0.277   0.402
 1605SOL    HW2 4835   2.896   0.234   0.461
 1606SOL     OW 4836   2.938   0.683   1.464
 1606SOL    HW1 4837   2.858   0.622   1.467
 1606SOL    HW2 4838   3.019   0.630   1.440
 1607SOL     OW 4839   3.089   1.570   0.793
 1607SOL    HW1 4840   3.110   1.644   0.728
 1607SOL    HW2 4841   3.157   1.570   0.866
 1608SOL     OW 4842   2.321   1.152   0.741
 1608SOL    HW1 4843   2.250   1.125   0.806
 1608SOL    HW2 4844   2.295   1.124   0.648
 1609SOL     OW 4845   3.133   1.797   0.591
 1609SOL    HW1 4846   3.177   1.861   0.527
 1609SOL    HW2 4847   3.083   1.849   0.661
 1610SOL     OW 4848   2.894   0.549   0.016
 1610SOL    HW1 4849   2.853   0.631  -0.023
 1610SOL    HW2 4850   2.958   0.575   0.089
 1611SOL     OW 4851   1.940   0.556   1.386
 1611SOL    HW1 4852   2.032   0.555   1.345
 1611SOL    HW2 4853   1.934   0.630   1.453
 1612SOL     OW 4854   2.423   0.222   1.147
 1612SOL    HW1 4855   2.461   0.138   1.184
 1612SOL    HW2 4856   2.335   0.241   1.191
 1613SOL     OW 4857   2.728   0.454   0.642
 1613SOL    HW1 4858   2.696   0.526   0.580
 1613SOL    HW2 4859   2.752   0.373   0.589
 1614SOL     OW 4860   2.879   0.039   0.753
 1614SOL    HW1 4861   2.807   0.044   0.684
 1614SOL    HW2 4862   2.855  -0.030   0.822
 1615SOL     OW 4863   3.291   1.173   0.867
 1615SOL    HW1 4864   3.236   1.089   0.860
 1615SOL    HW2 4865   3.317   1.202   0.775
 1616SOL     OW 4866   3.328   0.590   0.992
 1616SOL    HW1 4867   3.298   0.495   0.999
 1616SOL    HW2 4868   3.401   0.606   1.058
 1617SOL     OW 4869   3.719   0.833   0.377
 1617SOL    HW1 4870   3.761   0.769   0.441
 1617SOL    HW2 4871   3.681   0.782   0.299
 1618SOL     OW 4872   2.350   1.385   0.174
 1618SOL    HW1 4873   2.263   1.370   0.221
 1618SOL    HW2 4874   2.333   1.411   0.079
 1619SOL     OW 4875   3.526   1.280   0.657
 1619SOL    HW1 4876   3.625   1.288   0.671
 1619SOL    HW2 4877   3.481   1.364   0.688
 1620SOL     OW 4878   3.252   0.575   0.078
 1620SOL    HW1 4879   3.198   0.554   0.159
 1620SOL    HW2 4880   3.343   0.534   0.087
 1621SOL     OW 4881   2.389   0.256   0.328
 1621SOL    HW1 4882   2.416   0.197   0.253
 1621SOL    HW2 4883   2.389   0.351   0.297
 1622SOL     OW 4884   3.616   1.223   1.588
 1622SOL    HW1 4885   3.707   1.184   1.575
 1622SOL    HW2 4886   3.624   1.319   1.612
 1623SOL     OW 4887   2.926   1.347   1.340
 1623SOL    HW1 4888   2.846   1.324   1.395
 1623SOL    HW2 4889   3.009   1.321   1.389
 1624SOL     OW 4890   3.454   1.629   1.625
 1624SOL    HW1 4891   3.481   1.663   1.535
 1624SOL    HW2 4892   3.533   1.591   1.671
 1625SOL     OW 4893   2.973   1.195   1.100
 1625SOL    HW1 4894   2.933   1.239   1.181
 1625SOL    HW2 4895   2.932   1.232   1.017
 1626SOL     OW 4896   3.500   1.099   1.079
 1626SOL    HW1 4897   3.505   1.180   1.138
 1626SOL    HW2 4898   3.414   1.101   1.028
 1627SOL     OW 4899   2.777   0.089   1.402
 1627SOL    HW1 4900   2.802   0.069   1.307
 1627SOL    HW2 4901   2.849   0.145   1.444
 1628SOL     OW 4902   2.842   1.116   1.719
 1628SOL    HW1 4903   2.743   1.122   1.729
 1628SOL    HW2 4904   2.865   1.036   1.663
 1629SOL     OW 4905   2.567   1.050   0.368
 1629SOL    HW1 4906   2.553   1.057   0.467
 1629SOL    HW2 4907   2.651   0.999   0.350
 1630SOL     OW 4908   2.272   0.813   1.251
 1630SOL    HW1 4909   2.358   0.825   1.301
 1630SOL    HW2 4910   2.230   0.726   1.278
 1631SOL     OW 4911   3.136   0.386   1.262
 1631SOL    HW1 4912   3.157   0.460   1.326
 1631SOL    HW2 4913   3.047   0.403   1.219
 1632SOL     OW 4914   1.926   1.564   1.331
 1632SOL    HW1 4915   1.880   1.646   1.297
 1632SOL    HW2 4916   2.024   1.583   1.340
 1633SOL     OW 4917   2.229   1.100   0.501
 1633SOL    HW1 4918   2.222   1.183   0.445
 1633SOL    HW2 4919   2.233   1.020   0.441
 1634SOL     OW 4920   2.428   0.537   0.865
 1634SOL    HW1 4921   2.440   0.603   0.791
 1634SOL    HW2 4922   2.474   0.571   0.948
 1635SOL     OW 4923   3.114   1.348   0.388
 1635SOL    HW1 4924   3.164   1.425   0.428
 1635SOL    HW2 4925   3.019   1.350   0.420
 1636SOL     OW 4926   3.134   1.445   1.142
 1636SOL    HW1 4927   3.181   1.458   1.229
 1636SOL    HW2 4928   3.068   1.371   1.151
 1637SOL     OW 4929   3.444   0.639   0.472
 1637SOL    HW1 4930   3.413   0.700   0.545
 1637SOL    HW2 4931   3.494   0.691   0.403
 1638SOL     OW 4932   2.216   1.510   1.329
 1638SOL    HW1 4933   2.195   1.466   1.242
 1638SOL    HW2 4934   2.313   1.536   1.332
 1639SOL     OW 4935   2.264   0.751   1.598
 1639SOL    HW1 4936   2.332   0.806   1.551
 1639SOL    HW2 4937   2.304   0.663   1.625
 1640SOL     OW 4938   3.449   0.779   1.670
 1640SOL    HW1 4939   3.357   0.817   1.665
 1640SOL    HW2 4940   3.509   0.826   1.605
 1641SOL     OW 4941   2.875   0.105   1.770
 1641SOL    HW1 4942   2.881   0.190   1.718
 1641SOL    HW2 4943   2.907   0.029   1.713
 1642SOL     OW 4944   2.366   0.050   1.740
 1642SOL    HW1 4945   2.324  -0.007   1.670
 1642SOL    HW2 4946   2.300   0.119   1.772
 1643SOL     OW 4947   2.435   0.870   1.029
 1643SOL    HW1 4948   2.479   0.959   1.020
 1643SOL    HW2 4949   2.372   0.870   1.106
 1644SOL     OW 4950   3.222   0.862   1.045
 1644SOL    HW1 4951   3.147   0.862   0.979
 1644SOL    HW2 4952   3.259   0.770   1.054
 1645SOL     OW 4953   3.071   0.525   0.275
 1645SOL    HW1 4954   3.084   0.441   0.329
 1645SOL    HW2 4955   3.042   0.599   0.335
 1646SOL     OW 4956   2.169   0.213   1.231
 1646SOL    HW1 4957   2.146   0.250   1.321
 1646SOL    HW2 4958   2.139   0.118   1.225
 1647SOL     OW 4959   1.899   1.310   1.282
 1647SOL    HW1 4960   1.952   1.261   1.350
 1647SOL    HW2 4961   1.921   1.408   1.287
 1648SOL     OW 4962   2.594   0.634   1.064
 1648SOL    HW1 4963   2.653   0.608   0.988
 1648SOL    HW2 4964   2.566   0.730   1.053
 1649SOL     OW 4965   3.590   0.935   1.854
 1649SOL    HW1 4966   3.544   0.928   1.765
 1649SOL    HW2 4967   3.528   0.979   1.920
 1650SOL     OW 4968   2.169   0.063   0.618
 1650SOL    HW1 4969   2.158   0.157   0.651
 1650SOL    HW2 4970   2.164   0.000   0.695
 1651SOL     OW 4971   3.484   0.367   0.374
 1651SOL    HW1 4972   3.486   0.291   0.438
 1651SOL    HW2 4973   3.436   0.444   0.414
 1652SOL     OW 4974   2.885   0.766   0.966
 1652SOL    HW1 4975   2.900   0.787   1.062
 1652SOL    HW2 4976   2.855   0.671   0.957
 1653SOL     OW 4977   2.842   1.573   1.700
 1653SOL    HW1 4978   2.822   1.617   1.612
 1653SOL    HW2 4979   2.881   1.482   1.684
 1654SOL     OW 4980   3.721   1.518   1.605
 1654SOL    HW1 4981   3.735   1.545   1.510
 1654SOL    HW2 4982   3.804   1.540   1.658
 1655SOL     OW 4983   2.212   0.898   1.804
 1655SOL    HW1 4984   2.288   0.942   1.852
 1655SOL    HW2 4985   2.247   0.851   1.722
 1656SOL     OW 4986   3.402   0.274   0.125
 1656SOL    HW1 4987   3.341   0.199   0.148
 1656SOL    HW2 4988   3.424   0.326   0.208
 1657SOL     OW 4989   3.165   0.838   0.042
 1657SOL    HW1 4990   3.199   0.745   0.057
 1657SOL    HW2 4991   3.183   0.865  -0.053
 1658SOL     OW 4992   2.930   1.333   0.849
 1658SOL    HW1 4993   2.937   1.249   0.794
 1658SOL    HW2 4994   2.992   1.402   0.813
 1659SOL     OW 4995   2.181   0.810   0.949
 1659SOL    HW1 4996   2.274   0.846   0.954
 1659SOL    HW2 4997   2.175   0.725   1.001
 1660SOL     OW 4998   2.201   0.509   1.006
 1660SOL    HW1 4999   2.149   0.426   0.989
 1660SOL    HW2 5000   2.278   0.514   0.942
 1661SOL     OW 5001   3.000   0.380   1.678
 1661SOL    HW1 5002   2.955   0.443   1.742
 1661SOL    HW2 5003   3.093   0.411   1.661
 1662SOL     OW 5004   3.022   0.207   1.477
 1662SOL    HW1 5005   3.022   0.271   1.554
 1662SOL    HW2 5006   3.050   0.255   1.394
 1663SOL     OW 5007   1.870   1.326   0.200
 1663SOL    HW1 5008   1.777   1.347   0.169
 1663SOL    HW2 5009   1.880   1.227   0.213
 1664SOL     OW 5010   1.950   1.801   0.927
 1664SOL    HW1 5011   1.908   1.715   0.900
 1664SOL    HW2 5012   2.044   1.804   0.893
 1665SOL     OW 5013   2.366   1.568   0.910
 1665SOL    HW1 5014   2.432   1.642   0.919
 1665SOL    HW2 5015   2.410   1.489   0.868
 1666SOL     OW 5016   2.864   0.796   1.238
 1666SOL    HW1 5017   2.905   0.764   1.324
 1666SOL    HW2 5018   2.768   0.769   1.235
 1667SOL     OW 5019   1.902   0.544   1.114
 1667SOL    HW1 5020   1.987   0.511   1.073
 1667SOL    HW2 5021   1.915   0.559   1.212
 1668SOL     OW 5022   2.051   0.520   1.722
 1668SOL    HW1 5023   2.110   0.480   1.652
 1668SOL    HW2 5024   1.993   0.591   1.681
 1669SOL     OW 5025   3.231   0.950   1.660
 1669SOL    HW1 5026   3.270   1.039   1.680
 1669SOL    HW2 5027   3.241   0.930   1.563
 1670SOL     OW 5028   2.677   0.572   0.325
 1670SOL    HW1 5029   2.684   0.483   0.279
 1670SOL    HW2 5030   2.583   0.606   0.317
 1671SOL     OW 5031   3.519   0.604   1.206
 1671SOL    HW1 5032   3.481   0.535   1.268
 1671SOL    HW2 5033   3.601   0.568   1.162
 1672SOL     OW 5034   2.114   1.564   1.744
 1672SOL    HW1 5035   2.084   1.621   1.820
 1672SOL    HW2 5036   2.107   1.467   1.770
 1673SOL     OW 5037   2.533   0.464   1.269
 1673SOL    HW1 5038   2.499   0.375   1.239
 1673SOL    HW2 5039   2.559   0.518   1.189
 1674SOL     OW 5040   2.792   1.678   1.465
 1674SOL    HW1 5041   2.768   1.660   1.370
 1674SOL    HW2 5042   2.822   1.772   1.475
 1675SOL     OW 5043   2.335   0.500   0.191
 1675SOL    HW1 5044   2.396   0.580   0.195
 1675SOL    HW2 5045   2.240   0.531   0.198
 1676SOL     OW 5046   2.021   1.137   1.466
 1676SOL    HW1 5047   2.043   1.076   1.542
 1676SOL    HW2 5048   2.031   1.088   1.380
 1677SOL     OW 5049   3.209   1.059   1.234
 1677SOL    HW1 5050   3.233   0.996   1.160
 1677SOL    HW2 5051   3.119   1.099   1.216
 1678SOL     OW 5052   3.164   0.855   0.309
 1678SOL    HW1 5053   3.078   0.824   0.351
 1678SOL    HW2 5054   3.160   0.841   0.210
 1679SOL     OW 5055   3.621   1.747   1.154
 1679SOL    HW1 5056   3.682   1.777   1.081
 1679SOL    HW2 5057   3.583   1.658   1.132
 1680SOL     OW 5058   3.114   1.731   1.128
 1680SOL    HW1 5059   3.198   1.736   1.074
 1680SOL    HW2 5060   3.091   1.635   1.146
 1681SOL     OW 5061   1.945   1.258   1.022
 1681SOL    HW1 5062   1.940   1.257   1.122
 1681SOL    HW2 5063   1.862   1.217   0.984
 1682SOL     OW 5064   2.550   1.662   1.716
 1682SOL    HW1 5065   2.494   1.743   1.725
 1682SOL    HW2 5066   2.602   1.666   1.630
 1683SOL     OW 5067   2.765   0.086   0.133
 1683SOL    HW1 5068   2.816   0.087   0.047
 1683SOL    HW2 5069   2.821   0.044   0.204
 1684SOL     OW 5070   3.588   0.135   0.523
 1684SOL    HW1 5071   3.661   0.118   0.456
 1684SOL    HW2 5072   3.557   0.048   0.561
 1685SOL     OW 5073   3.250   1.573   0.477
 1685SOL    HW1 5074   3.317   1.585   0.403
 1685SOL    HW2 5075   3.210   1.662   0.500
 1686SOL     OW 5076   1.992   1.794   1.851
 1686SOL    HW1 5077   1.951   1.720   1.904
 1686SOL    HW2 5078   2.056   1.845   1.909
 1687SOL     OW 5079   3.142   0.927   0.672
 1687SOL    HW1 5080   3.202   0.846   0.674
 1687SOL    HW2 5081   3.182   0.996   0.612
 1688SOL     OW 5082   2.692   1.273   1.422
 1688SOL    HW1 5083   2.687   1.306   1.517
 1688SOL    HW2 5084   2.606   1.292   1.376
 1689SOL     OW 5085   2.534   1.616   0.154
 1689SOL    HW1 5086   2.543   1.626   0.055
 1689SOL    HW2 5087   2.494   1.527   0.175
 1690SOL     OW 5088   3.512   1.720   1.394
 1690SOL    HW1 5089   3.565   1.730   1.310
 1690SOL    HW2 5090   3.485   1.810   1.428
 1691SOL     OW 5091   3.703   0.175   0.963
 1691SOL    HW1 5092   3.742   0.090   0.927
 1691SOL    HW2 5093   3.605   0.177   0.944
 1692SOL     OW 5094   2.125   0.326   0.720
 1692SOL    HW1 5095   2.046   0.377   0.686
 1692SOL    HW2 5096   2.116   0.311   0.818
 1693SOL     OW 5097   3.056   1.612   0.031
 1693SOL    HW1 5098   3.062   1.519   0.068
 1693SOL    HW2 5099   2.997   1.612  -0.049
 1694SOL     OW 5100   2.684   1.002   1.372
 1694SOL    HW1 5101   2.724   1.001   1.280
 1694SOL    HW2 5102   2.694   1.094   1.412
 1695SOL     OW 5103   2.778   0.910   0.291
 1695SOL    HW1 5104   2.841   0.948   0.223
 1695SOL    HW2 5105   2.818   0.827   0.330
 1696SOL     OW 5106   3.366   1.607   0.044
 1696SOL    HW1 5107   3.274   1.644   0.051
 1696SOL    HW2 5108   3.404   1.627  -0.046
 1697SOL     OW 5109   2.234   1.288   1.490
 1697SOL    HW1 5110   2.221   1.381   1.456
 1697SOL    HW2 5111   2.150   1.236   1.477
 1698SOL     OW 5112   3.476   1.292   1.289
 1698SOL    HW1 5113   3.536   1.295   1.369
 1698SOL    HW2 5114   3.401   1.356   1.302
 1699SOL     OW 5115   2.901   1.098   0.696
 1699SOL    HW1 5116   2.831   1.051   0.750
 1699SOL    HW2 5117   2.960   1.030   0.653
 1700SOL     OW 5118   2.876   0.236   0.971
 1700SOL    HW1 5119   2.868   0.200   0.878
 1700SOL    HW2 5120   2.874   0.160   1.036
 1701SOL     OW 5121   2.452   1.487   0.491
 1701SOL    HW1 5122   2.494   1.429   0.421
 1701SOL    HW2 5123   2.408   1.566   0.447
 1702SOL     OW 5124   3.571   0.385   1.381
 1702SOL    HW1 5125   3.644   0.454   1.385
 1702SOL    HW2 5126   3.599   0.310   1.322
 1703SOL     OW 5127   2.117   1.348   0.290
 1703SOL    HW1 5128   2.021   1.349   0.263
 1703SOL    HW2 5129   2.129   1.401   0.374
 1704SOL     OW 5130   1.967   1.013   1.726
 1704SOL    HW1 5131   1.890   0.980   1.780
 1704SOL    HW2 5132   2.052   0.983   1.768
 1705SOL     OW 5133   2.534   0.203   1.489
 1705SOL    HW1 5134   2.624   0.187   1.449
 1705SOL    HW2 5135   2.542   0.208   1.588
 1706SOL     OW 5136   3.302   0.856   1.398
 1706SOL    HW1 5137   3.245   0.908   1.335
 1706SOL    HW2 5138   3.398   0.868   1.374
 1707SOL     OW 5139   1.934   0.166   0.318
 1707SOL    HW1 5140   1.917   0.249   0.264
 1707SOL    HW2 5141   2.024   0.129   0.296
 1708SOL     OW 5142   3.045   1.335   0.119
 1708SOL    HW1 5143   2.946   1.324   0.121
 1708SOL    HW2 5144   3.079   1.350   0.212
 1709SOL     OW 5145   2.475   0.842   1.431
 1709SOL    HW1 5146   2.531   0.923   1.414
 1709SOL    HW2 5147   2.534   0.762   1.434
 1710SOL     OW 5148   3.355   1.767   0.959
 1710SOL    HW1 5149   3.388   1.831   0.890
 1710SOL    HW2 5150   3.421   1.761   1.034
 1711SOL     OW 5151   2.578   0.565   1.708
 1711SOL    HW1 5152   2.597   0.630   1.782
 1711SOL    HW2 5153   2.638   0.485   1.717
 1712SOL     OW 5154   3.312   1.220   1.633
 1712SOL    HW1 5155   3.303   1.210   1.732
 1712SOL    HW2 5156   3.408   1.213   1.607
 1713SOL     OW 5157   2.252   1.741   1.560
 1713SOL    HW1 5158   2.161   1.782   1.558
 1713SOL    HW2 5159   2.245   1.647   1.592
 1714SOL     OW 5160   3.536   0.883   1.254
 1714SOL    HW1 5161   3.509   0.794   1.217
 1714SOL    HW2 5162   3.537   0.951   1.181
 1715SOL     OW 5163   3.087   0.325   0.449
 1715SOL    HW1 5164   3.152   0.251   0.438
 1715SOL    HW2 5165   3.107   0.375   0.533
 1716SOL     OW 5166   2.456   0.745   0.652
 1716SOL    HW1 5167   2.506   0.830   0.633
 1716SOL    HW2 5168   2.368   0.747   0.604
 1717SOL     OW 5169   3.639   0.342   1.642
 1717SOL    HW1 5170   3.622   0.373   1.548
 1717SOL    HW2 5171   3.555   0.305   1.680
 1718SOL     OW 5172   3.592   0.934   1.517
 1718SOL    HW1 5173   3.630   1.025   1.532
 1718SOL    HW2 5174   3.584   0.917   1.418
 1719SOL     OW 5175   2.721   1.374   0.016
 1719SOL    HW1 5176   2.675   1.389   0.104
 1719SOL    HW2 5177   2.765   1.459  -0.014
 1720SOL     OW 5178   2.523   1.790   0.953
 1720SOL    HW1 5179   2.477   1.878   0.940
 1720SOL    HW2 5180   2.622   1.802   0.946
 1721SOL     OW 5181   2.721   0.956   0.861
 1721SOL    HW1 5182   2.775   0.887   0.909
 1721SOL    HW2 5183   2.689   1.025   0.927
 1722SOL     OW 5184   2.945   0.984   0.087
 1722SOL    HW1 5185   2.922   1.037   0.005
 1722SOL    HW2 5186   3.026   0.928   0.068
 1723SOL     OW 5187   3.723   1.569   0.851
 1723SOL    HW1 5188   3.652   1.557   0.781
 1723SOL    HW2 5189   3.724   1.490   0.911
 1724SOL     OW 5190   2.083   1.314   1.844
 1724SOL    HW1 5191   2.018   1.241   1.823
 1724SOL    HW2 5192   2.087   1.328   1.942
 1725SOL     OW 5193   1.941   1.240   0.653
 1725SOL    HW1 5194   1.940   1.193   0.741
 1725SOL    HW2 5195   2.023   1.212   0.602
 1726SOL     OW 5196   2.534   1.391   1.624
 1726SOL    HW1 5197   2.456   1.341   1.662
 1726SOL    HW2 5198   2.531   1.486   1.655
 1727SOL     OW 5199   3.686   0.192   1.227
 1727SOL    HW1 5200   3.682   0.102   1.271
 1727SOL    HW2 5201   3.689   0.181   1.128
 1728SOL     OW 5202   2.290   0.424   0.520
 1728SOL    HW1 5203   2.320   0.352   0.458
 1728SOL    HW2 5204   2.251   0.384   0.603
 1729SOL     OW 5205   3.567   1.487   1.104
 1729SOL    HW1 5206   3.474   1.462   1.077
 1729SOL    HW2 5207   3.593   1.437   1.186
 1730SOL     OW 5208   2.179   0.547   1.280
 1730SOL    HW1 5209   2.217   0.488   1.352
 1730SOL    HW2 5210   2.219   0.521   1.192
 1731SOL     OW 5211   2.674   1.586   0.687
 1731SOL    HW1 5212   2.706   1.596   0.593
 1731SOL    HW2 5213   2.595   1.524   0.689
 1732SOL     OW 5214   3.286   0.214   1.112
 1732SOL    HW1 5215   3.338   0.149   1.167
 1732SOL    HW2 5216   3.237   0.277   1.173
 1733SOL     OW 5217   2.863   0.034   1.154
 1733SOL    HW1 5218   2.800  -0.038   1.123
 1733SOL    HW2 5219   2.956  -0.002   1.154
 1734SOL     OW 5220   2.632   1.330   0.301
 1734SOL    HW1 5221   2.586   1.243   0.318
 1734SOL    HW2 5222   2.723   1.327   0.342
 1735SOL     OW 5223   2.480   1.567   1.284
 1735SOL    HW1 5224   2.475   1.649   1.341
 1735SOL    HW2 5225   2.569   1.564   1.239
 1736SOL     OW 5226   3.214   0.052   0.168
 1736SOL    HW1 5227   3.249   0.011   0.084
 1736SOL    HW2 5228   3.124   0.014   0.188
 1737SOL     OW 5229   3.162   0.453   0.691
 1737SOL    HW1 5230   3.103   0.533   0.695
 1737SOL    HW2 5231   3.177   0.418   0.784
 1738SOL     OW 5232   3.455   0.221   0.882
 1738SOL    HW1 5233   3.371   0.220   0.936
 1738SOL    HW2 5234   3.457   0.304   0.826
 1739SOL     OW 5235   2.737   1.646   0.337
 1739SOL    HW1 5236   2.660   1.611   0.283
 1739SOL    HW2 5237   2.705   1.717   0.399
 1740SOL     OW 5238   2.092   0.628   1.975
 1740SOL    HW1 5239   1.999   0.626   2.012
 1740SOL    HW2 5240   2.093   0.589   1.883
 1741SOL     OW 5241   2.087   0.275   2.858
 1741SOL    HW1 5242   2.122   0.258   2.950
 1741SOL    HW2 5243   1.999   0.230   2.846
 1742SOL     OW 5244   1.881   0.368   2.509
 1742SOL    HW1 5245   1.799   0.411   2.548
 1742SOL    HW2 5246   1.853   0.295   2.446
 1743SOL     OW 5247   2.431   1.275   3.027
 1743SOL    HW1 5248   2.338   1.268   2.990
 1743SOL    HW2 5249   2.442   1.364   3.071
 1744SOL     OW 5250   3.417   1.511   2.565
 1744SOL    HW1 5251   3.360   1.495   2.646
 1744SOL    HW2 5252   3.358   1.521   2.485
 1745SOL     OW 5253   2.997   0.703   2.579
 1745SOL    HW1 5254   3.054   0.781   2.554
 1745SOL    HW2 5255   2.937   0.729   2.655
 1746SOL     OW 5256   3.617   0.607   2.093
 1746SOL    HW1 5257   3.605   0.594   1.994
 1746SOL    HW2 5258   3.587   0.526   2.142
 1747SOL     OW 5259   2.630   1.144   2.885
 1747SOL    HW1 5260   2.552   1.161   2.945
 1747SOL    HW2 5261   2.664   1.231   2.849
 1748SOL     OW 5262   2.712   0.798   3.685
 1748SOL    HW1 5263   2.708   0.874   3.750
 1748SOL    HW2 5264   2.734   0.834   3.594
 1749SOL     OW 5265   2.547   1.012   2.527
 1749SOL    HW1 5266   2.616   0.996   2.597
 1749SOL    HW2 5267   2.474   1.069   2.565
 1750SOL     OW 5268   2.548   1.161   3.665
 1750SOL    HW1 5269   2.608   1.240   3.679
 1750SOL    HW2 5270   2.462   1.192   3.624
 1751SOL     OW 5271   2.197   1.435   2.923
 1751SOL    HW1 5272   2.119   1.404   2.870
 1751SOL    HW2 5273   2.255   1.493   2.866
 1752SOL     OW 5274   3.322   1.505   3.201
 1752SOL    HW1 5275   3.346   1.599   3.227
 1752SOL    HW2 5276   3.306   1.451   3.283
 1753SOL     OW 5277   2.300   0.392   3.361
 1753SOL    HW1 5278   2.382   0.336   3.370
 1753SOL    HW2 5279   2.219   0.334   3.365
 1754SOL     OW 5280   3.465   0.447   2.599
 1754SOL    HW1 5281   3.391   0.493   2.549
 1754SOL    HW2 5282   3.516   0.515   2.652
 1755SOL     OW 5283   2.093   1.713   2.345
 1755SOL    HW1 5284   2.127   1.790   2.399
 1755SOL    HW2 5285   2.137   1.713   2.255
 1756SOL     OW 5286   2.989   1.341   3.552
 1756SOL    HW1 5287   3.036   1.341   3.640
 1756SOL    HW2 5288   2.941   1.254   3.541
 1757SOL     OW 5289   2.092   1.434   2.400
 1757SOL    HW1 5290   2.066   1.530   2.400
 1757SOL    HW2 5291   2.021   1.380   2.445
 1758SOL     OW 5292   2.102   1.091   2.748
 1758SOL    HW1 5293   2.116   1.007   2.800
 1758SOL    HW2 5294   2.047   1.155   2.803
 1759SOL     OW 5295   2.482   1.786   3.301
 1759SOL    HW1 5296   2.390   1.769   3.336
 1759SOL    HW2 5297   2.510   1.878   3.327
 1760SOL     OW 5298   2.468   0.964   1.985
 1760SOL    HW1 5299   2.475   1.048   1.931
 1760SOL    HW2 5300   2.514   0.977   2.073
 1761SOL     OW 5301   3.456   0.114   3.342
 1761SOL    HW1 5302   3.438   0.181   3.270
 1761SOL    HW2 5303   3.453   0.160   3.431
 1762SOL     OW 5304   1.984   0.643   2.425
 1762SOL    HW1 5305   1.939   0.555   2.442
 1762SOL    HW2 5306   1.983   0.697   2.509
 1763SOL     OW 5307   3.704   1.767   2.221
 1763SOL    HW1 5308   3.758   1.738   2.301
 1763SOL    HW2 5309   3.734   1.857   2.192
 1764SOL     OW 5310   1.889   1.596   1.979
 1764SOL    HW1 5311   1.870   1.500   2.000
 1764SOL    HW2 5312   1.856   1.654   2.054
 1765SOL     OW 5313   3.551   0.922   2.474
 1765SOL    HW1 5314   3.646   0.893   2.482
 1765SOL    HW2 5315   3.543   0.987   2.399
 1766SOL     OW 5316   3.503   1.108   2.294
 1766SOL    HW1 5317   3.589   1.110   2.242
 1766SOL    HW2 5318   3.517   1.155   2.382
 1767SOL     OW 5319   1.975   0.737   3.459
 1767SOL    HW1 5320   2.063   0.724   3.504
 1767SOL    HW2 5321   1.962   0.834   3.437
 1768SOL     OW 5322   2.475   1.365   2.588
 1768SOL    HW1 5323   2.426   1.278   2.597
 1768SOL    HW2 5324   2.452   1.408   2.501
 1769SOL     OW 5325   3.155   1.228   3.285
 1769SOL    HW1 5326   3.192   1.155   3.227
 1769SOL    HW2 5327   3.207   1.233   3.370
 1770SOL     OW 5328   2.671   0.004   2.364
 1770SOL    HW1 5329   2.711   0.095   2.355
 1770SOL    HW2 5330   2.571   0.012   2.370
 1771SOL     OW 5331   2.059   0.976   3.126
 1771SOL    HW1 5332   2.148   0.931   3.112
 1771SOL    HW2 5333   1.986   0.911   3.107
 1772SOL     OW 5334   3.387   0.999   2.052
 1772SOL    HW1 5335   3.324   0.923   2.065
 1772SOL    HW2 5336   3.435   1.017   2.138
 1773SOL     OW 5337   3.049   1.792   3.478
 1773SOL    HW1 5338   3.073   1.852   3.402
 1773SOL    HW2 5339   3.056   1.697   3.448
 1774SOL     OW 5340   2.179   0.251   3.663
 1774SOL    HW1 5341   2.250   0.322   3.669
 1774SOL    HW2 5342   2.091   0.290   3.691
 1775SOL     OW 5343   3.328   1.417   2.815
 1775SOL    HW1 5344   3.269   1.423   2.895
 1775SOL    HW2 5345   3.313   1.329   2.769
 1776SOL     OW 5346   3.529   1.714   2.434
 1776SOL    HW1 5347   3.488   1.691   2.346
 1776SOL    HW2 5348   3.511   1.640   2.499
 1777SOL     OW 5349   2.460   0.729   2.132
 1777SOL    HW1 5350   2.484   0.798   2.064
 1777SOL    HW2 5351   2.382   0.762   2.186
 1778SOL     OW 5352   3.143   0.345   2.806
 1778SOL    HW1 5353   3.057   0.295   2.793
 1778SOL    HW2 5354   3.205   0.291   2.862
 1779SOL     OW 5355   3.438   1.662   2.169
 1779SOL    HW1 5356   3.527   1.708   2.172
 1779SOL    HW2 5357   3.417   1.638   2.074
 1780SOL     OW 5358   2.669   0.605   3.327
 1780SOL    HW1 5359   2.622   0.602   3.416
 1780SOL    HW2 5360   2.618   0.550   3.261
 1781SOL     OW 5361   3.256   0.469   3.536
 1781SOL    HW1 5362   3.236   0.512   3.624
 1781SOL    HW2 5363   3.334   0.407   3.545
 1782SOL     OW 5364   2.835   0.890   3.434
 1782SOL    HW1 5365   2.881   0.806   3.405
 1782SOL    HW2 5366   2.779   0.924   3.359
 1783SOL     OW 5367   2.853   0.410   3.104
 1783SOL    HW1 5368   2.776   0.444   3.158
 1783SOL    HW2 5369   2.819   0.359   3.025
 1784SOL     OW 5370   2.903   0.701   2.291
 1784SOL    HW1 5371   2.929   0.697   2.387
 1784SOL    HW2 5372   2.818   0.650   2.277
 1785SOL     OW 5373   1.938   0.811   2.651
 1785SOL    HW1 5374   2.037   0.799   2.660
 1785SOL    HW2 5375   1.914   0.906   2.672
 1786SOL     OW 5376   1.992   1.821   3.433
 1786SOL    HW1 5377   1.982   1.806   3.532
 1786SOL    HW2 5378   1.906   1.857   3.397
 1787SOL     OW 5379   2.727   0.348   2.057
 1787SOL    HW1 5380   2.786   0.411   2.008
 1787SOL    HW2 5381   2.746   0.254   2.028
 1788SOL     OW 5382   3.581   0.585   3.693
 1788SOL    HW1 5383   3.555   0.674   3.657
 1788SOL    HW2 5384   3.579   0.517   3.620
 1789SOL     OW 5385   3.224   1.144   2.407
 1789SOL    HW1 5386   3.307   1.115   2.359
 1789SOL    HW2 5387   3.175   1.211   2.351
 1790SOL     OW 5388   2.412   0.196   2.747
 1790SOL    HW1 5389   2.407   0.191   2.847
 1790SOL    HW2 5390   2.414   0.292   2.718
 1791SOL     OW 5391   2.870   1.456   2.339
 1791SOL    HW1 5392   2.824   1.528   2.287
 1791SOL    HW2 5393   2.866   1.476   2.437
 1792SOL     OW 5394   2.213   1.801   2.715
 1792SOL    HW1 5395   2.263   1.715   2.721
 1792SOL    HW2 5396   2.278   1.878   2.712
 1793SOL     OW 5397   3.657   1.066   2.735
 1793SOL    HW1 5398   3.595   1.051   2.659
 1793SOL    HW2 5399   3.605   1.077   2.820
 1794SOL     OW 5400   3.089   1.550   3.368
 1794SOL    HW1 5401   3.095   1.473   3.432
 1794SOL    HW2 5402   3.037   1.524   3.288
 1795SOL     OW 5403   2.183   0.943   2.104
 1795SOL    HW1 5404   2.265   0.982   2.062
 1795SOL    HW2 5405   2.156   0.861   2.055
 1796SOL     OW 5406   3.320   0.735   2.590
 1796SOL    HW1 5407   3.315   0.670   2.665
 1796SOL    HW2 5408   3.400   0.794   2.603
 1797SOL     OW 5409   2.323   1.266   3.589
 1797SOL    HW1 5410   2.273   1.267   3.503
 1797SOL    HW2 5411   2.260   1.248   3.665
 1798SOL     OW 5412   2.973   1.776   2.099
 1798SOL    HW1 5413   2.913   1.714   2.149
 1798SOL    HW2 5414   3.004   1.732   2.014
 1799SOL     OW 5415   2.064   0.285   3.360
 1799SOL    HW1 5416   1.984   0.345   3.347
 1799SOL    HW2 5417   2.054   0.236   3.446
 1800SOL     OW 5418   3.494   1.377   1.943
 1800SOL    HW1 5419   3.462   1.471   1.933
 1800SOL    HW2 5420   3.418   1.314   1.931
 1801SOL     OW 5421   2.326   1.743   2.185
 1801SOL    HW1 5422   2.359   1.782   2.271
 1801SOL    HW2 5423   2.402   1.736   2.120
 1802SOL     OW 5424   3.262   0.107   2.288
 1802SOL    HW1 5425   3.238   0.070   2.198
 1802SOL    HW2 5426   3.361   0.123   2.292
 1803SOL     OW 5427   2.111   1.785   3.103
 1803SOL    HW1 5428   2.168   1.720   3.153
 1803SOL    HW2 5429   2.095   1.752   3.010
 1804SOL     OW 5430   2.802   1.698   2.766
 1804SOL    HW1 5431   2.882   1.641   2.787
 1804SOL    HW2 5432   2.753   1.658   2.689
 1805SOL     OW 5433   2.244   0.700   2.342
 1805SOL    HW1 5434   2.289   0.610   2.339
 1805SOL    HW2 5435   2.150   0.689   2.375
 1806SOL     OW 5436   3.409   0.222   3.591
 1806SOL    HW1 5437   3.404   0.259   3.683
 1806SOL    HW2 5438   3.337   0.153   3.579
 1807SOL     OW 5439   2.476   0.122   1.979
 1807SOL    HW1 5440   2.574   0.100   1.986
 1807SOL    HW2 5441   2.445   0.105   1.886
 1808SOL     OW 5442   2.643   0.264   3.611
 1808SOL    HW1 5443   2.710   0.203   3.654
 1808SOL    HW2 5444   2.570   0.283   3.676
 1809SOL     OW 5445   2.750   1.514   3.057
 1809SOL    HW1 5446   2.727   1.489   2.963
 1809SOL    HW2 5447   2.811   1.445   3.096
 1810SOL     OW 5448   3.213   0.590   3.295
 1810SOL    HW1 5449   3.241   0.547   3.380
 1810SOL    HW2 5450   3.238   0.686   3.296
 1811SOL     OW 5451   2.665   1.402   2.786
 1811SOL    HW1 5452   2.755   1.416   2.744
 1811SOL    HW2 5453   2.594   1.404   2.715
 1812SOL     OW 5454   2.784   0.503   2.761
 1812SOL    HW1 5455   2.759   0.494   2.665
 1812SOL    HW2 5456   2.832   0.421   2.792
 1813SOL     OW 5457   2.401   0.064   2.374
 1813SOL    HW1 5458   2.320   0.065   2.432
 1813SOL    HW2 5459   2.404   0.147   2.319
 1814SOL     OW 5460   3.296   1.188   1.903
 1814SOL    HW1 5461   3.328   1.112   1.960
 1814SOL    HW2 5462   3.204   1.215   1.933
 1815SOL     OW 5463   2.159   0.035   2.033
 1815SOL    HW1 5464   2.208   0.119   2.012
 1815SOL    HW2 5465   2.221  -0.030   2.078
 1816SOL     OW 5466   2.797   0.236   2.342
 1816SOL    HW1 5467   2.749   0.277   2.264
 1816SOL    HW2 5468   2.896   0.234   2.323
 1817SOL     OW 5469   2.938   0.683   3.326
 1817SOL    HW1 5470   2.858   0.622   3.329
 1817SOL    HW2 5471   3.019   0.630   3.302
 1818SOL     OW 5472   3.089   1.570   2.655
 1818SOL    HW1 5473   3.110   1.644   2.590
 1818SOL    HW2 5474   3.157   1.570   2.728
 1819SOL     OW 5475   2.321   1.152   2.603
 1819SOL    HW1 5476   2.250   1.125   2.668
 1819SOL    HW2 5477   2.295   1.124   2.510
 1820SOL     OW 5478   3.133   1.797   2.453
 1820SOL    HW1 5479   3.177   1.861   2.389
 1820SOL    HW2 5480   3.083   1.849   2.523
 1821SOL     OW 5481   2.894   0.549   1.878
 1821SOL    HW1 5482   2.853   0.631   1.839
 1821SOL    HW2 5483   2.958   0.575   1.951
 1822SOL     OW 5484   1.940   0.556   3.248
 1822SOL    HW1 5485   2.032   0.555   3.207
 1822SOL    HW2 5486   1.934   0.630   3.315
 1823SOL     OW 5487   2.423   0.222   3.009
 1823SOL    HW1 5488   2.461   0.138   3.046
 1823SOL    HW2 5489   2.335   0.241   3.053
 1824SOL     OW 5490   2.728   0.454   2.504
 1824SOL    HW1 5491   2.696   0.526   2.442
 1824SOL    HW2 5492   2.752   0.373   2.451
 1825SOL     OW 5493   2.879   0.039   2.615
 1825SOL    HW1 5494   2.807   0.044   2.546
 1825SOL    HW2 5495   2.855  -0.030   2.684
 1826SOL     OW 5496   3.291   1.173   2.729
 1826SOL    HW1 5497   3.236   1.089   2.722
 1826SOL    HW2 5498   3.317   1.202   2.637
 1827SOL     OW 5499   3.328   0.590   2.854
 1827SOL    HW1 5500   3.298   0.495   2.861
 1827SOL    HW2 5501   3.401   0.606   2.920
 1828SOL     OW 5502   3.719   0.833   2.239
 1828SOL    HW1 5503   3.761   0.769   2.303
 1828SOL    HW2 5504   3.681   0.782   2.161
 1829SOL     OW 5505   2.350   1.385   2.036
 1829SOL    HW1 5506   2.263   1.370   2.083
 1829SOL    HW2 5507   2.333   1.411   1.941
 1830SOL     OW 5508   3.526   1.280   2.519
 1830SOL    HW1 5509   3.625   1.288   2.533
 1830SOL    HW2 5510   3.481   1.364   2.550
 1831SOL     OW 5511   3.252   0.575   1.940
 1831SOL    HW1 5512   3.198   0.554   2.021
 1831SOL    HW2 5513   3.343   0.534   1.949
 1832SOL     OW 5514   2.389   0.256   2.190
 1832SOL    HW1 5515   2.416   0.197   2.115
 1832SOL    HW2 5516   2.389   0.351   2.159
 1833SOL     OW 5517   3.616   1.223   3.450
 1833SOL    HW1 5518   3.707   1.184   3.437
 1833SOL    HW2 5519   3.624   1.319   3.474
 1834SOL     OW 5520   2.926   1.347   3.202
 1834SOL    HW1 5521   2.846   1.324   3.257
 1834SOL    HW2 5522   3.009   1.321   3.251
 1835SOL     OW 5523   3.454   1.629   3.487
 1835SOL    HW1 5524   3.481   1.663   3.397
 1835SOL    HW2 5525   3.533   1.591   3.533
 1836SOL     OW 5526   2.973   1.195   2.962
 1836SOL    HW1 5527   2.933   1.239   3.043
 1836SOL    HW2 5528   2.932   1.232   2.879
 1837SOL     OW 5529   3.500   1.099   2.941
 1837SOL    HW1 5530   3.505   1.180   3.000
 1837SOL    HW2 5531   3.414   1.101   2.890
 1838SOL     OW 5532   2.777   0.089   3.264
 1838SOL    HW1 5533   2.802   0.069   3.169
 1838SOL    HW2 5534   2.849   0.145   3.306
 1839SOL     OW 5535   2.842   1.116   3.581
 1839SOL    HW1 5536   2.743   1.122   3.591
 1839SOL    HW2 5537   2.865   1.036   3.525
 1840SOL     OW 5538   2.567   1.050   2.230
 1840SOL    HW1 5539   2.553   1.057   2.329
 1840SOL    HW2 5540   2.651   0.999   2.212
 1841SOL     OW 5541   2.272   0.813   3.113
 1841SOL    HW1 5542   2.358   0.825   3.163
 1841SOL    HW2 5543   2.230   0.726   3.140
 1842SOL     OW 5544   3.136   0.386   3.124
 1842SOL    HW1 5545   3.157   0.460   3.188
 1842SOL    HW2 5546   3.047   0.403   3.081
 1843SOL     OW 5547   1.926   1.564   3.193
 1843SOL    HW1 5548   1.880   1.646   3.159
 1843SOL    HW2 5549   2.024   1.583   3.202
 1844SOL     OW 5550   2.229   1.100   2.363
 1844SOL    HW1 5551   2.222   1.183   2.307
 1844SOL    HW2 5552   2.233   1.020   2.303
 1845SOL     OW 5553   2.428   0.537   2.727
 1845SOL    HW1 5554   2.440   0.603   2.653
 1845SOL    HW2 5555   2.474   0.571   2.810
 1846SOL     OW 5556   3.114   1.348   2.250
 1846SOL    HW1 5557   3.164   1.425   2.290
 1846SOL    HW2 5558   3.019   1.350   2.282
 1847SOL     OW 5559   3.134   1.445   3.004
 1847SOL    HW1 5560   3.181   1.458   3.091
 1847SOL    HW2 5561   3.068   1.371   3.013
 1848SOL     OW 5562   3.444   0.639   2.334
 1848SOL    HW1 5563   3.413   0.700   2.407
 1848SOL    HW2 5564   3.494   0.691   2.265
 1849SOL     OW 5565   2.216   1.510   3.191
 1849SOL    HW1 5566   2.195   1.466   3.104
 1849SOL    HW2 5567   2.313   1.536   3.194
 1850SOL     OW 5568   2.264   0.751   3.460
 1850SOL    HW1 5569   2.332   0.806   3.413
 1850SOL    HW2 5570   2.304   0.663   3.487
 1851SOL     OW 5571   3.449   0.779   3.532
 1851SOL    HW1 5572   3.357   0.817   3.527
 1851SOL    HW2 5573   3.509   0.826   3.467
 1852SOL     OW 5574   2.875   0.105   3.632
 1852SOL    HW1 5575   2.881   0.190   3.580
 1852SOL    HW2 5576   2.907   0.029   3.575
 1853SOL     OW 5577   2.366   0.050   3.602
 1853SOL    HW1 5578   2.324  -0.007   3.532
 1853SOL    HW2 5579   2.300   0.119   3.634
 1854SOL     OW 5580   2.435   0.870   2.891
 1854SOL    HW1 5581   2.479   0.959   2.882
 1854SOL    HW2 5582   2.372   0.870   2.968
 1855SOL     OW 5583   3.222   0.862   2.907
 1855SOL    HW1 5584   3.147   0.862   2.841
 1855SOL    HW2 5585   3.259   0.770   2.916
 1856SOL     OW 5586   3.071   0.525   2.137
 1856SOL    HW1 5587   3.084   0.441   2.191
 1856SOL    HW2 5588   3.042   0.599   2.197
 1857SOL     OW 5589   2.169   0.213   3.093
 1857SOL    HW1 5590   2.146   0.250   3.183
 1857SOL    HW2 5591   2.139   0.118   3.087
 1858SOL     OW 5592   1.899   1.310   3.144
 1858SOL    HW1 5593   1.952   1.261   3.212
 1858SOL    HW2 5594   1.921   1.408   3.149
 1859SOL     OW 5595   2.594   0.634   2.926
 1859SOL    HW1 5596   2.653   0.608   2.850
 1859SOL    HW2 5597   2.566   0.730   2.915
 1860SOL     OW 5598   3.590   0.935   3.716
 1860SOL    HW1 5599   3.544   0.928   3.627
 1860SOL    HW2 5600   3.528   0.979   3.782
 1861SOL     OW 5601   2.169   0.063   2.480
 1861SOL    HW1 5602   2.158   0.157   2.513
 1861SOL    HW2 5603   2.164   0.000   2.557
 1862SOL     OW 5604   3.484   0.367   2.236
 1862SOL    HW1 5605   3.486   0.291   2.300
 1862SOL    HW2 5606   3.436   0.444   2.276
 1863SOL     OW 5607   2.885   0.766   2.828
 1863SOL    HW1 5608   2.900   0.787   2.924
 1863SOL    HW2 5609   2.855   0.671   2.819
 1864SOL     OW 5610   2.842   1.573   3.562
 1864SOL    HW1 5611   2.822   1.617   3.474
 1864SOL    HW2 5612   2.881   1.482   3.546
 1865SOL     OW 5613   3.721   1.518   3.467
 1865SOL    HW1 5614   3.735   1.545   3.372
 1865SOL    HW2 5615   3.804   1.540   3.520
 1866SOL     OW 5616   2.212   0.898   3.666
 1866SOL    HW1 5617   2.288   0.942   3.714
 1866SOL    HW2 5618   2.247   0.851   3.584
 1867SOL     OW 5619   3.402   0.274   1.987
 1867SOL    HW1 5620   3.341   0.199   2.010
 1867SOL    HW2 5621   3.424   0.326   2.070
 1868SOL     OW 5622   3.165   0.838   1.904
 1868SOL    HW1 5623   3.199   0.745   1.919
 1868SOL    HW2 5624   3.183   0.865   1.809
 1869SOL     OW 5625   2.930   1.333   2.711
 1869SOL    HW1 5626   2.937   1.249   2.656
 1869SOL    HW2 5627   2.992   1.402   2.675
 1870SOL     OW 5628   2.181   0.810   2.811
 1870SOL    HW1 5629   2.274   0.846   2.816
 1870SOL    HW2 5630   2.175   0.725   2.863
 1871SOL     OW 5631   2.201   0.509   2.868
 1871SOL    HW1 5632   2.149   0.426   2.851
 1871SOL    HW2 5633   2.278   0.514   2.804
 1872SOL     OW 5634   3.000   0.380   3.540
 1872SOL    HW1 5635   2.955   0.443   3.604
 1872SOL    HW2 5636   3.093   0.411   3.523
 1873SOL     OW 5637   3.022   0.207   3.339
 1873SOL    HW1 5638   3.022   0.271   3.416
 1873SOL    HW2 5639   3.050   0.255   3.256
 1874SOL     OW 5640   1.870   1.326   2.062
 1874SOL    HW1 5641   1.777   1.347   2.031
 1874SOL    HW2 5642   1.880   1.227   2.075
 1875SOL     OW 5643   1.950   1.801   2.789
 1875SOL    HW1 5644   1.908   1.715   2.762
 1875SOL    HW2 5645   2.044   1.804   2.755
 1876SOL     OW 5646   2.366   1.568   2.772
 1876SOL    HW1 5647   2.432   1.642   2.781
 1876SOL    HW2 5648   2.410   1.489   2.730
 1877SOL     OW 5649   2.864   0.796   3.100
 1877SOL    HW1 5650   2.905   0.764   3.186
 1877SOL    HW2 5651   2.768   0.769   3.097
 1878SOL     OW 5652   1.902   0.544   2.976
 1878SOL    HW1 5653   1.987   0.511   2.935
 1878SOL    HW2 5654   1.915   0.559   3.074
 1879SOL     OW 5655   2.051   0.520   3.584
 1879SOL    HW1 5656   2.110   0.480   3.514
 1879SOL    HW2 5657   1.993   0.591   3.543
 1880SOL     OW 5658   3.231   0.950   3.522
 1880SOL    HW1 5659   3.270   1.039   3.542
 1880SOL    HW2 5660   3.241   0.930   3.425
 1881SOL     OW 5661   2.677   0.572   2.187
 1881SOL    HW1 5662   2.684   0.483   2.141
 1881SOL    HW2 5663   2.583   0.606   2.179
 1882SOL     OW 5664   3.519   0.604   3.068
 1882SOL    HW1 5665   3.481   0.535   3.130
 1882SOL    HW2 5666   3.601   0.568   3.024
 1883SOL     OW 5667   2.114   1.564   3.606
 1883SOL    HW1 5668   2.084   1.621   3.682
 1883SOL    HW2 5669   2.107   1.467   3.632
 1884SOL     OW 5670   2.533   0.464   3.131
 1884SOL    HW1 5671   2.499   0.375   3.101
 1884SOL    HW2 5672   2.559   0.518   3.051
 1885SOL     OW 5673   2.792   1.678   3.327
 1885SOL    HW1 5674   2.768   1.660   3.232
 1885SOL    HW2 5675   2.822   1.772   3.337
 1886SOL     OW 5676   2.335   0.500   2.053
 1886SOL    HW1 5677   2.396   0.580   2.057
 1886SOL    HW2 5678   2.240   0.531   2.060
 1887SOL     OW 5679   2.021   1.137   3.328
 1887SOL    HW1 5680   2.043   1.076   3.404
 1887SOL    HW2 5681   2.031   1.088   3.242
 1888SOL     OW 5682   3.209   1.059   3.096
 1888SOL    HW1 5683   3.233   0.996   3.022
 1888SOL    HW2 5684   3.119   1.099   3.078
 1889SOL     OW 5685   3.164   0.855   2.171
 1889SOL    HW1 5686   3.078   0.824   2.213
 1889SOL    HW2 5687   3.160   0.841   2.072
 1890SOL     OW 5688   3.621   1.747   3.016
 1890SOL    HW1 5689   3.682   1.777   2.943
 1890SOL    HW2 5690   3.583   1.658   2.994
 1891SOL     OW 5691   3.114   1.731   2.990
 1891SOL    HW1 5692   3.198   1.736   2.936
 1891SOL    HW2 5693   3.091   1.635   3.008
 1892SOL     OW 5694   1.945   1.258   2.884
 1892SOL    HW1 5695   1.940   1.257   2.984
 1892SOL    HW2 5696   1.862   1.217   2.846
 1893SOL     OW 5697   2.550   1.662   3.578
 1893SOL    HW1 5698   2.494   1.743   3.587
 1893SOL    HW2 5699   2.602   1.666   3.492
 1894SOL     OW 5700   3.588   0.135   2.385
 1894SOL    HW1 5701   3.661   0.118   2.318
 1894SOL    HW2 5702   3.557   0.048   2.423
 1895SOL     OW 5703   3.250   1.573   2.339
 1895SOL    HW1 5704   3.317   1.585   2.265
 1895SOL    HW2 5705   3.210   1.662   2.362
 1896SOL     OW 5706   1.992   1.794   3.713
 1896SOL    HW1 5707   1.951   1.720   3.766
 1896SOL    HW2 5708   2.056   1.845   3.771
 1897SOL     OW 5709   3.142   0.927   2.534
 1897SOL    HW1 5710   3.202   0.846   2.536
 1897SOL    HW2 5711   3.182   0.996   2.474
 1898SOL     OW 5712   2.692   1.273   3.284
 1898SOL    HW1 5713   2.687   1.306   3.379
 1898SOL    HW2 5714   2.606   1.292   3.238
 1899SOL     OW 5715   2.534   1.616   2.016
 1899SOL    HW1 5716   2.543   1.626   1.917
 1899SOL    HW2 5717   2.494   1.527   2.037
 1900SOL     OW 5718   3.512   1.720   3.256
 1900SOL    HW1 5719   3.565   1.730   3.172
 1900SOL    HW2 5720   3.485   1.810   3.290
 1901SOL     OW 5721   3.703   0.175   2.825
 1901SOL    HW1 5722   3.742   0.090   2.789
 1901SOL    HW2 5723   3.605   0.177   2.806
 1902SOL     OW 5724   2.125   0.326   2.582
 1902SOL    HW1 5725   2.046   0.377   2.548
 1902SOL    HW2 5726   2.116   0.311   2.680
 1903SOL     OW 5727   3.056   1.612   1.893
 1903SOL    HW1 5728   3.062   1.519   1.930
 1903SOL    HW2 5729   2.997   1.612   1.813
 1904SOL     OW 5730   2.684   1.002   3.234
 1904SOL    HW1 5731   2.724   1.001   3.142
 1904SOL    HW2 5732   2.694   1.094   3.274
 1905SOL     OW 5733   2.778   0.910   2.153
 1905SOL    HW1 5734   2.841   0.948   2.085
 1905SOL    HW2 5735   2.818   0.827   2.192
 1906SOL     OW 5736   3.366   1.607   1.906
 1906SOL    HW1 5737   3.274   1.644   1.913
 1906SOL    HW2 5738   3.404   1.627   1.816
 1907SOL     OW 5739   2.234   1.288   3.352
 1907SOL    HW1 5740   2.221   1.381   3.318
 1907SOL    HW2 5741   2.150   1.236   3.339
 1908SOL     OW 5742   3.476   1.292   3.151
 1908SOL    HW1 5743   3.536   1.295   3.231
 1908SOL    HW2 5744   3.401   1.356   3.164
 1909SOL     OW 5745   2.901   1.098   2.558
 1909SOL    HW1 5746   2.831   1.051   2.612
 1909SOL    HW2 5747   2.960   1.030   2.515
 1910SOL     OW 5748   2.876   0.236   2.833
 1910SOL    HW1 5749   2.868   0.200   2.740
 1910SOL    HW2 5750   2.874   0.160   2.898
 1911SOL     OW 5751   2.452   1.487   2.353
 1911SOL    HW1 5752   2.494   1.429   2.283
 1911SOL    HW2 5753   2.408   1.566   2.309
 1912SOL     OW 5754   3.571   0.385   3.243
 1912SOL    HW1 5755   3.644   0.454   3.247
 1912SOL    HW2 5756   3.599   0.310   3.184
 1913SOL     OW 5757   2.117   1.348   2.152
 1913SOL    HW1 5758   2.021   1.349   2.125
 1913SOL    HW2 5759   2.129   1.401   2.236
 1914SOL     OW 5760   1.967   1.013   3.588
 1914SOL    HW1 5761   1.890   0.980   3.642
 1914SOL    HW2 5762   2.052   0.983   3.630
 1915SOL     OW 5763   2.534   0.203   3.351
 1915SOL    HW1 5764   2.624   0.187   3.311
 1915SOL    HW2 5765   2.542   0.208   3.450
 1916SOL     OW 5766   1.937   0.345   1.895
 1916SOL    HW1 5767   1.845   0.317   1.866
 1916SOL    HW2 5768   1.968   0.422   1.839
 1917SOL     OW 5769   3.302   0.856   3.260
 1917SOL    HW1 5770   3.245   0.908   3.197
 1917SOL    HW2 5771   3.398   0.868   3.236
 1918SOL     OW 5772   1.934   0.166   2.180
 1918SOL    HW1 5773   1.917   0.249   2.126
 1918SOL    HW2 5774   2.024   0.129   2.158
 1919SOL     OW 5775   3.045   1.335   1.981
 1919SOL    HW1 5776   2.946   1.324   1.983
 1919SOL    HW2 5777   3.079   1.350   2.074
 1920SOL     OW 5778   2.475   0.842   3.293
 1920SOL    HW1 5779   2.531   0.923   3.276
 1920SOL    HW2 5780   2.534   0.762   3.296
 1921SOL     OW 5781   3.355   1.767   2.821
 1921SOL    HW1 5782   3.388   1.831   2.752
 1921SOL    HW2 5783   3.421   1.761   2.896
 1922SOL     OW 5784   2.578   0.565   3.570
 1922SOL    HW1 5785   2.597   0.630   3.644
 1922SOL    HW2 5786   2.638   0.485   3.579
 1923SOL     OW 5787   3.312   1.220   3.495
 1923SOL    HW1 5788   3.303   1.210   3.594
 1923SOL    HW2 5789   3.408   1.213   3.469
 1924SOL     OW 5790   2.252   1.741   3.422
 1924SOL    HW1 5791   2.161   1.782   3.420
 1924SOL    HW2 5792   2.245   1.647   3.454
 1925SOL     OW 5793   3.536   0.883   3.116
 1925SOL    HW1 5794   3.509   0.794   3.079
 1925SOL    HW2 5795   3.537   0.951   3.043
 1926SOL     OW 5796   3.087   0.325   2.311
 1926SOL    HW1 5797   3.152   0.251   2.300
 1926SOL    HW2 5798   3.107   0.375   2.395
 1927SOL     OW 5799   2.456   0.745   2.514
 1927SOL    HW1 5800   2.506   0.830   2.495
 1927SOL    HW2 5801   2.368   0.747   2.466
 1928SOL     OW 5802   3.639   0.342   3.504
 1928SOL    HW1 5803   3.622   0.373   3.410
 1928SOL    HW2 5804   3.555   0.305   3.542
 1929SOL     OW 5805   3.592   0.934   3.379
 1929SOL    HW1 5806   3.630   1.025   3.394
 1929SOL    HW2 5807   3.584   0.917   3.280
 1930SOL     OW 5808   2.721   1.374   1.878
 1930SOL    HW1 5809   2.675   1.389   1.966
 1930SOL    HW2 5810   2.765   1.459   1.848
 1931SOL     OW 5811   2.523   1.790   2.815
 1931SOL    HW1 5812   2.477   1.878   2.802
 1931SOL    HW2 5813   2.622   1.802   2.808
 1932SOL     OW 5814   2.721   0.956   2.723
 1932SOL    HW1 5815   2.775   0.887   2.771
 1932SOL    HW2 5816   2.689   1.025   2.789
 1933SOL     OW 5817   2.945   0.984   1.949
 1933SOL    HW1 5818   2.922   1.037   1.867
 1933SOL    HW2 5819   3.026   0.928   1.930
 1934SOL     OW 5820   3.723   1.569   2.713
 1934SOL    HW1 5821   3.652   1.557   2.643
 1934SOL    HW2 5822   3.724   1.490   2.773
 1935SOL     OW 5823   2.083   1.314   3.706
 1935SOL    HW1 5824   2.018   1.241   3.685
 1935SOL    HW2 5825   2.087   1.328   3.804
 1936SOL     OW 5826   1.941   1.240   2.515
 1936SOL    HW1 5827   1.940   1.193   2.603
 1936SOL    HW2 5828   2.023   1.212   2.464
 1937SOL     OW 5829   2.534   1.391   3.486
 1937SOL    HW1 5830   2.456   1.341   3.524
 1937SOL    HW2 5831   2.531   1.486   3.517
 1938SOL     OW 5832   3.686   0.192   3.089
 1938SOL    HW1 5833   3.682   0.102   3.133
 1938SOL    HW2 5834   3.689   0.181   2.990
 1939SOL     OW 5835   2.290   0.424   2.382
 1939SOL    HW1 5836   2.320   0.352   2.320
 1939SOL    HW2 5837   2.251   0.384   2.465
 1940SOL     OW 5838   3.567   1.487   2.966
 1940SOL    HW1 5839   3.474   1.462   2.939
 1940SOL    HW2 5840   3.593   1.437   3.048
 1941SOL     OW 5841   2.179   0.547   3.142
 1941SOL    HW1 5842   2.217   0.488   3.214
 1941SOL    HW2 5843   2.219   0.521   3.054
 1942SOL     OW 5844   2.674   1.586   2.549
 1942SOL    HW1 5845   2.706   1.596   2.455
 1942SOL    HW2 5846   2.595   1.524   2.551
 1943SOL     OW 5847   3.286   0.214   2.974
 1943SOL    HW1 5848   3.338   0.149   3.029
 1943SOL    HW2 5849   3.237   0.277   3.035
 1944SOL     OW 5850   2.863   0.034   3.016
 1944SOL    HW1 5851   2.800  -0.038   2.985
 1944SOL    HW2 5852   2.956  -0.002   3.016
 1945SOL     OW 5853   2.632   1.330   2.163
 1945SOL    HW1 5854   2.586   1.243   2.180
 1945SOL    HW2 5855   2.723   1.327   2.204
 1946SOL     OW 5856   2.480   1.567   3.146
 1946SOL    HW1 5857   2.475   1.649   3.203
 1946SOL    HW2 5858   2.569   1.564   3.101
 1947SOL     OW 5859   3.214   0.052   2.030
 1947SOL    HW1 5860   3.249   0.011   1.946
 1947SOL    HW2 5861   3.124   0.014   2.050
 1948SOL     OW 5862   3.162   0.453   2.553
 1948SOL    HW1 5863   3.103   0.533   2.557
 1948SOL    HW2 5864   3.177   0.418   2.646
 1949SOL     OW 5865   3.455   0.221   2.744
 1949SOL    HW1 5866   3.371   0.220   2.798
 1949SOL    HW2 5867   3.457   0.304   2.688
 1950SOL     OW 5868   1.901   1.077   2.162
 1950SOL    HW1 5869   2.000   1.066   2.153
 1950SOL    HW2 5870   1.861   0.991   2.194
 1951SOL     OW 5871   2.737   1.646   2.199
 1951SOL    HW1 5872   2.660   1.611   2.145
 1951SOL    HW2 5873   2.705   1.717   2.261
 1952SOL     OW 5874   2.092   0.628   3.837
 1952SOL    HW1 5875   1.999   0.626   3.874
 1952SOL    HW2 5876   2.093   0.589   3.745
 1953SOL     OW 5877   2.087   0.275   4.720
 1953SOL    HW1 5878   2.122   0.258   4.812
 1953SOL    HW2 5879   1.999   0.230   4.708
 1954SOL     OW 5880   1.881   0.368   4.371
 1954SOL    HW1 5881   1.799   0.411   4.410
 1954SOL    HW2 5882   1.853   0.295   4.308
 1955SOL     OW 5883   2.431   1.275   4.889
 1955SOL    HW1 5884   2.338   1.268   4.852
 1955SOL    HW2 5885   2.442   1.364   4.933
 1956SOL     OW 5886   3.417   1.511   4.427
 1956SOL    HW1 5887   3.360   1.495   4.508
 1956SOL    HW2 5888   3.358   1.521   4.347
 1957SOL     OW 5889   2.997   0.703   4.441
 1957SOL    HW1 5890   3.054   0.781   4.416
 1957SOL    HW2 5891   2.937   0.729   4.517
 1958SOL     OW 5892   3.617   0.607   3.955
 1958SOL    HW1 5893   3.605   0.594   3.856
 1958SOL    HW2 5894   3.587   0.526   4.004
 1959SOL     OW 5895   2.630   1.144   4.747
 1959SOL    HW1 5896   2.552   1.161   4.807
 1959SOL    HW2 5897   2.664   1.231   4.711
 1960SOL     OW 5898   2.547   1.012   4.389
 1960SOL    HW1 5899   2.616   0.996   4.459
 1960SOL    HW2 5900   2.474   1.069   4.427
 1961SOL     OW 5901   2.197   1.435   4.785
 1961SOL    HW1 5902   2.119   1.404   4.732
 1961SOL    HW2 5903   2.255   1.493   4.728
 1962SOL     OW 5904   3.465   0.447   4.461
 1962SOL    HW1 5905   3.391   0.493   4.411
 1962SOL    HW2 5906   3.516   0.515   4.514
 1963SOL     OW 5907   2.093   1.713   4.207
 1963SOL    HW1 5908   2.127   1.790   4.261
 1963SOL    HW2 5909   2.137   1.713   4.117
 1964SOL     OW 5910   2.092   1.434   4.262
 1964SOL    HW1 5911   2.066   1.530   4.262
 1964SOL    HW2 5912   2.021   1.380   4.307
 1965SOL     OW 5913   2.102   1.091   4.610
 1965SOL    HW1 5914   2.116   1.007   4.662
 1965SOL    HW2 5915   2.047   1.155   4.665
 1966SOL     OW 5916   2.468   0.964   3.847
 1966SOL    HW1 5917   2.475   1.048   3.793
 1966SOL    HW2 5918   2.514   0.977   3.935
 1967SOL     OW 5919   1.984   0.643   4.287
 1967SOL    HW1 5920   1.939   0.555   4.304
 1967SOL    HW2 5921   1.983   0.697   4.371
 1968SOL     OW 5922   3.704   1.767   4.083
 1968SOL    HW1 5923   3.758   1.738   4.163
 1968SOL    HW2 5924   3.734   1.857   4.054
 1969SOL     OW 5925   1.889   1.596   3.841
 1969SOL    HW1 5926   1.870   1.500   3.862
 1969SOL    HW2 5927   1.856   1.654   3.916
 1970SOL     OW 5928   3.551   0.922   4.336
 1970SOL    HW1 5929   3.646   0.893   4.344
 1970SOL    HW2 5930   3.543   0.987   4.261
 1971SOL     OW 5931   3.503   1.108   4.156
 1971SOL    HW1 5932   3.589   1.110   4.104
 1971SOL    HW2 5933   3.517   1.155   4.244
 1972SOL     OW 5934   2.475   1.365   4.450
 1972SOL    HW1 5935   2.426   1.278   4.459
 1972SOL    HW2 5936   2.452   1.408   4.363
 1973SOL     OW 5937   2.671   0.004   4.226
 1973SOL    HW1 5938   2.711   0.095   4.217
 1973SOL    HW2 5939   2.571   0.012   4.232
 1974SOL     OW 5940   2.059   0.976   4.988
 1974SOL    HW1 5941   2.148   0.931   4.974
 1974SOL    HW2 5942   1.986   0.911   4.969
 1975SOL     OW 5943   3.387   0.999   3.914
 1975SOL    HW1 5944   3.324   0.923   3.927
 1975SOL    HW2 5945   3.435   1.017   4.000
 1976SOL     OW 5946   3.328   1.417   4.677
 1976SOL    HW1 5947   3.269   1.423   4.757
 1976SOL    HW2 5948   3.313   1.329   4.631
 1977SOL     OW 5949   3.529   1.714   4.296
 1977SOL    HW1 5950   3.488   1.691   4.208
 1977SOL    HW2 5951   3.511   1.640   4.361
 1978SOL     OW 5952   2.460   0.729   3.994
 1978SOL    HW1 5953   2.484   0.798   3.926
 1978SOL    HW2 5954   2.382   0.762   4.048
 1979SOL     OW 5955   3.143   0.345   4.668
 1979SOL    HW1 5956   3.057   0.295   4.655
 1979SOL    HW2 5957   3.205   0.291   4.724
 1980SOL     OW 5958   3.438   1.662   4.031
 1980SOL    HW1 5959   3.527   1.708   4.034
 1980SOL    HW2 5960   3.417   1.638   3.936
 1981SOL     OW 5961   2.903   0.701   4.153
 1981SOL    HW1 5962   2.929   0.697   4.249
 1981SOL    HW2 5963   2.818   0.650   4.139
 1982SOL     OW 5964   1.938   0.811   4.513
 1982SOL    HW1 5965   2.037   0.799   4.522
 1982SOL    HW2 5966   1.914   0.906   4.534
 1983SOL     OW 5967   2.727   0.348   3.919
 1983SOL    HW1 5968   2.786   0.411   3.870
 1983SOL    HW2 5969   2.746   0.254   3.890
 1984SOL     OW 5970   3.224   1.144   4.269
 1984SOL    HW1 5971   3.307   1.115   4.221
 1984SOL    HW2 5972   3.175   1.211   4.213
 1985SOL     OW 5973   2.412   0.196   4.609
 1985SOL    HW1 5974   2.407   0.191   4.709
 1985SOL    HW2 5975   2.414   0.292   4.580
 1986SOL     OW 5976   2.870   1.456   4.201
 1986SOL    HW1 5977   2.824   1.528   4.149
 1986SOL    HW2 5978   2.866   1.476   4.299
 1987SOL     OW 5979   2.213   1.801   4.577
 1987SOL    HW1 5980   2.263   1.715   4.583
 1987SOL    HW2 5981   2.278   1.878   4.574
 1988SOL     OW 5982   3.657   1.066   4.597
 1988SOL    HW1 5983   3.595   1.051   4.521
 1988SOL    HW2 5984   3.605   1.077   4.682
 1989SOL     OW 5985   2.183   0.943   3.966
 1989SOL    HW1 5986   2.265   0.982   3.924
 1989SOL    HW2 5987   2.156   0.861   3.917
 1990SOL     OW 5988   3.320   0.735   4.452
 1990SOL    HW1 5989   3.315   0.670   4.527
 1990SOL    HW2 5990   3.400   0.794   4.465
 1991SOL     OW 5991   2.973   1.776   3.961
 1991SOL    HW1 5992   2.913   1.714   4.011
 1991SOL    HW2 5993   3.004   1.732   3.876
 1992SOL     OW 5994   3.494   1.377   3.805
 1992SOL    HW1 5995   3.462   1.471   3.795
 1992SOL    HW2 5996   3.418   1.314   3.793
 1993SOL     OW 5997   2.326   1.743   4.047
 1993SOL    HW1 5998   2.359   1.782   4.133
 1993SOL    HW2 5999   2.402   1.736   3.982
 1994SOL     OW 6000   3.262   0.107   4.150
 1994SOL    HW1 6001   3.238   0.070   4.060
 1994SOL    HW2 6002   3.361   0.123   4.154
 1995SOL     OW 6003   2.111   1.785   4.965
 1995SOL    HW1 6004   2.168   1.720   5.015
 1995SOL    HW2 6005   2.095   1.752   4.872
 1996SOL     OW 6006   2.802   1.698   4.628
 1996SOL    HW1 6007   2.882   1.641   4.649
 1996SOL    HW2 6008   2.753   1.658   4.551
 1997SOL     OW 6009   2.244   0.700   4.204
 1997SOL    HW1 6010   2.289   0.610   4.201
 1997SOL    HW2 6011   2.150   0.689   4.237
 1998SOL     OW 6012   2.476   0.122   3.841
 1998SOL    HW1 6013   2.574   0.100   3.848
 1998SOL    HW2 6014   2.445   0.105   3.748
 1999SOL     OW 6015   2.665   1.402   4.648
 1999SOL    HW1 6016   2.755   1.416   4.606
 1999SOL    HW2 6017   2.594   1.404   4.577
 2000SOL     OW 6018   2.784   0.503   4.623
 2000SOL    HW1 6019   2.759   0.494   4.527
 2000SOL    HW2 6020   2.832   0.421   4.654
 2001SOL     OW 6021   2.401   0.064   4.236
 2001SOL    HW1 6022   2.320   0.065   4.294
 2001SOL    HW2 6023   2.404   0.147   4.181
 2002SOL     OW 6024   3.296   1.188   3.765
 2002SOL    HW1 6025   3.328   1.112   3.822
 2002SOL    HW2 6026   3.204   1.215   3.795
 2003SOL     OW 6027   2.159   0.035   3.895
 2003SOL    HW1 6028   2.208   0.119   3.874
 2003SOL    HW2 6029   2.221  -0.030   3.940
 2004SOL     OW 6030   2.797   0.236   4.204
 2004SOL    HW1 6031   2.749   0.277   4.126
 2004SOL    HW2 6032   2.896   0.234   4.185
 2005SOL     OW 6033   3.089   1.570   4.517
 2005SOL    HW1 6034   3.110   1.644   4.452
 2005SOL    HW2 6035   3.157   1.570   4.590
 2006SOL     OW 6036   2.321   1.152   4.465
 2006SOL    HW1 6037   2.250   1.125   4.530
 2006SOL    HW2 6038   2.295   1.124   4.372
 2007SOL     OW 6039   3.133   1.797   4.315
 2007SOL    HW1 6040   3.177   1.861   4.251
 2007SOL    HW2 6041   3.083   1.849   4.385
 2008SOL     OW 6042   2.894   0.549   3.740
 2008SOL    HW1 6043   2.853   0.631   3.701
 2008SOL    HW2 6044   2.958   0.575   3.813
 2009SOL     OW 6045   2.728   0.454   4.366
 2009SOL    HW1 6046   2.696   0.526   4.304
 2009SOL    HW2 6047   2.752   0.373   4.313
 2010SOL     OW 6048   2.879   0.039   4.477
 2010SOL    HW1 6049   2.807   0.044   4.408
 2010SOL    HW2 6050   2.855  -0.030   4.546
 2011SOL     OW 6051   3.291   1.173   4.591
 2011SOL    HW1 6052   3.236   1.089   4.584
 2011SOL    HW2 6053   3.317   1.202   4.499
 2012SOL     OW 6054   3.328   0.590   4.716
 2012SOL    HW1 6055   3.298   0.495   4.723
 2012SOL    HW2 6056   3.401   0.606   4.782
 2013SOL     OW 6057   3.719   0.833   4.101
 2013SOL    HW1 6058   3.761   0.769   4.165
 2013SOL    HW2 6059   3.681   0.782   4.023
 2014SOL     OW 6060   2.350   1.385   3.898
 2014SOL    HW1 6061   2.263   1.370   3.945
 2014SOL    HW2 6062   2.333   1.411   3.803
 2015SOL     OW 6063   3.526   1.280   4.381
 2015SOL    HW1 6064   3.625   1.288   4.395
 2015SOL    HW2 6065   3.481   1.364   4.412
 2016SOL     OW 6066   3.252   0.575   3.802
 2016SOL    HW1 6067   3.198   0.554   3.883
 2016SOL    HW2 6068   3.343   0.534   3.811
 2017SOL     OW 6069   2.389   0.256   4.052
 2017SOL    HW1 6070   2.416   0.197   3.977
 2017SOL    HW2 6071   2.389   0.351   4.021
 2018SOL     OW 6072   2.973   1.195   4.824
 2018SOL    HW1 6073   2.933   1.239   4.905
 2018SOL    HW2 6074   2.932   1.232   4.741
 2019SOL     OW 6075   3.500   1.099   4.803
 2019SOL    HW1 6076   3.505   1.180   4.862
 2019SOL    HW2 6077   3.414   1.101   4.752
 2020SOL     OW 6078   2.567   1.050   4.092
 2020SOL    HW1 6079   2.553   1.057   4.191
 2020SOL    HW2 6080   2.651   0.999   4.074
 2021SOL     OW 6081   2.272   0.813   4.975
 2021SOL    HW1 6082   2.358   0.825   5.025
 2021SOL    HW2 6083   2.230   0.726   5.002
 2022SOL     OW 6084   2.229   1.100   4.225
 2022SOL    HW1 6085   2.222   1.183   4.169
 2022SOL    HW2 6086   2.233   1.020   4.165
 2023SOL     OW 6087   2.428   0.537   4.589
 2023SOL    HW1 6088   2.440   0.603   4.515
 2023SOL    HW2 6089   2.474   0.571   4.672
 2024SOL     OW 6090   3.114   1.348   4.112
 2024SOL    HW1 6091   3.164   1.425   4.152
 2024SOL    HW2 6092   3.019   1.350   4.144
 2025SOL     OW 6093   3.134   1.445   4.866
 2025SOL    HW1 6094   3.181   1.458   4.953
 2025SOL    HW2 6095   3.068   1.371   4.875
 2026SOL     OW 6096   3.444   0.639   4.196
 2026SOL    HW1 6097   3.413   0.700   4.269
 2026SOL    HW2 6098   3.494   0.691   4.127
 2027SOL     OW 6099   2.435   0.870   4.753
 2027SOL    HW1 6100   2.479   0.959   4.744
 2027SOL    HW2 6101   2.372   0.870   4.830
 2028SOL     OW 6102   3.222   0.862   4.769
 2028SOL    HW1 6103   3.147   0.862   4.703
 2028SOL    HW2 6104   3.259   0.770   4.778
 2029SOL     OW 6105   3.071   0.525   3.999
 2029SOL    HW1 6106   3.084   0.441   4.053
 2029SOL    HW2 6107   3.042   0.599   4.059
 2030SOL     OW 6108   2.169   0.213   4.955
 2030SOL    HW1 6109   2.146   0.250   5.045
 2030SOL    HW2 6110   2.139   0.118   4.949
 2031SOL     OW 6111   1.899   1.310   5.006
 2031SOL    HW1 6112   1.952   1.261   5.074
 2031SOL    HW2 6113   1.921   1.408   5.011
 2032SOL     OW 6114   2.594   0.634   4.788
 2032SOL    HW1 6115   2.653   0.608   4.712
 2032SOL    HW2 6116   2.566   0.730   4.777
 2033SOL     OW 6117   2.169   0.063   4.342
 2033SOL    HW1 6118   2.158   0.157   4.375
 2033SOL    HW2 6119   2.164   0.000   4.419
 2034SOL     OW 6120   3.484   0.367   4.098
 2034SOL    HW1 6121   3.486   0.291   4.162
 2034SOL    HW2 6122   3.436   0.444   4.138
 2035SOL     OW 6123   2.885   0.766   4.690
 2035SOL    HW1 6124   2.900   0.787   4.786
 2035SOL    HW2 6125   2.855   0.671   4.681
 2036SOL     OW 6126   3.402   0.274   3.849
 2036SOL    HW1 6127   3.341   0.199   3.872
 2036SOL    HW2 6128   3.424   0.326   3.932
 2037SOL     OW 6129   3.165   0.838   3.766
 2037SOL    HW1 6130   3.199   0.745   3.781
 2037SOL    HW2 6131   3.183   0.865   3.671
 2038SOL     OW 6132   2.930   1.333   4.573
 2038SOL    HW1 6133   2.937   1.249   4.518
 2038SOL    HW2 6134   2.992   1.402   4.537
 2039SOL     OW 6135   2.181   0.810   4.673
 2039SOL    HW1 6136   2.274   0.846   4.678
 2039SOL    HW2 6137   2.175   0.725   4.725
 2040SOL     OW 6138   2.201   0.509   4.730
 2040SOL    HW1 6139   2.149   0.426   4.713
 2040SOL    HW2 6140   2.278   0.514   4.666
 2041SOL     OW 6141   3.022   0.207   5.201
 2041SOL    HW1 6142   3.022   0.271   5.278
 2041SOL    HW2 6143   3.050   0.255   5.118
 2042SOL     OW 6144   1.870   1.326   3.924
 2042SOL    HW1 6145   1.777   1.347   3.893
 2042SOL    HW2 6146   1.880   1.227   3.937
 2043SOL     OW 6147   1.950   1.801   4.651
 2043SOL    HW1 6148   1.908   1.715   4.624
 2043SOL    HW2 6149   2.044   1.804   4.617
 2044SOL     OW 6150   2.366   1.568   4.634
 2044SOL    HW1 6151   2.432   1.642   4.643
 2044SOL    HW2 6152   2.410   1.489   4.592
 2045SOL     OW 6153   2.864   0.796   4.962
 2045SOL    HW1 6154   2.905   0.764   5.048
 2045SOL    HW2 6155   2.768   0.769   4.959
 2046SOL     OW 6156   1.902   0.544   4.838
 2046SOL    HW1 6157   1.987   0.511   4.797
 2046SOL    HW2 6158   1.915   0.559   4.936
 2047SOL     OW 6159   2.677   0.572   4.049
 2047SOL    HW1 6160   2.684   0.483   4.003
 2047SOL    HW2 6161   2.583   0.606   4.041
 2048SOL     OW 6162   3.519   0.604   4.930
 2048SOL    HW1 6163   3.481   0.535   4.992
 2048SOL    HW2 6164   3.601   0.568   4.886
 2049SOL     OW 6165   2.533   0.464   4.993
 2049SOL    HW1 6166   2.499   0.375   4.963
 2049SOL    HW2 6167   2.559   0.518   4.913
 2050SOL     OW 6168   2.335   0.500   3.915
 2050SOL    HW1 6169   2.396   0.580   3.919
 2050SOL    HW2 6170   2.240   0.531   3.922
 2051SOL     OW 6171   2.021   1.137   5.190
 2051SOL    HW1 6172   2.043   1.076   5.266
 2051SOL    HW2 6173   2.031   1.088   5.104
 2052SOL     OW 6174   3.209   1.059   4.958
 2052SOL    HW1 6175   3.233   0.996   4.884
 2052SOL    HW2 6176   3.119   1.099   4.940
 2053SOL     OW 6177   3.164   0.855   4.033
 2053SOL    HW1 6178   3.078   0.824   4.075
 2053SOL    HW2 6179   3.160   0.841   3.934
 2054SOL     OW 6180   3.621   1.747   4.878
 2054SOL    HW1 6181   3.682   1.777   4.805
 2054SOL    HW2 6182   3.583   1.658   4.856
 2055SOL     OW 6183   1.945   1.258   4.746
 2055SOL    HW1 6184   1.940   1.257   4.846
 2055SOL    HW2 6185   1.862   1.217   4.708
 2056SOL     OW 6186   3.588   0.135   4.247
 2056SOL    HW1 6187   3.661   0.118   4.180
 2056SOL    HW2 6188   3.557   0.048   4.285
 2057SOL     OW 6189   3.250   1.573   4.201
 2057SOL    HW1 6190   3.317   1.585   4.127
 2057SOL    HW2 6191   3.210   1.662   4.224
 2058SOL     OW 6192   3.142   0.927   4.396
 2058SOL    HW1 6193   3.202   0.846   4.398
 2058SOL    HW2 6194   3.182   0.996   4.336
 2059SOL     OW 6195   2.534   1.616   3.878
 2059SOL    HW1 6196   2.543   1.626   3.779
 2059SOL    HW2 6197   2.494   1.527   3.899
 2060SOL     OW 6198   3.512   1.720   5.118
 2060SOL    HW1 6199   3.565   1.730   5.034
 2060SOL    HW2 6200   3.485   1.810   5.152
 2061SOL     OW 6201   3.703   0.175   4.687
 2061SOL    HW1 6202   3.742   0.090   4.651
 2061SOL    HW2 6203   3.605   0.177   4.668
 2062SOL     OW 6204   2.125   0.326   4.444
 2062SOL    HW1 6205   2.046   0.377   4.410
 2062SOL    HW2 6206   2.116   0.311   4.542
 2063SOL     OW 6207   3.056   1.612   3.755
 2063SOL    HW1 6208   3.062   1.519   3.792
 2063SOL    HW2 6209   2.997   1.612   3.675
 2064SOL     OW 6210   2.684   1.002   5.096
 2064SOL    HW1 6211   2.724   1.001   5.004
 2064SOL    HW2 6212   2.694   1.094   5.136
 2065SOL     OW 6213   2.778   0.910   4.015
 2065SOL    HW1 6214   2.841   0.948   3.947
 2065SOL    HW2 6215   2.818   0.827   4.054
 2066SOL     OW 6216   3.366   1.607   3.768
 2066SOL    HW1 6217   3.274   1.644   3.775
 2066SOL    HW2 6218   3.404   1.627   3.678
 2067SOL     OW 6219   2.901   1.098   4.420
 2067SOL    HW1 6220   2.831   1.051   4.474
 2067SOL    HW2 6221   2.960   1.030   4.377
 2068SOL     OW 6222   2.876   0.236   4.695
 2068SOL    HW1 6223   2.868   0.200   4.602
 2068SOL    HW2 6224   2.874   0.160   4.760
 2069SOL     OW 6225   2.452   1.487   4.215
 2069SOL    HW1 6226   2.494   1.429   4.145
 2069SOL    HW2 6227   2.408   1.566   4.171
 2070SOL     OW 6228   3.571   0.385   5.105
 2070SOL    HW1 6229   3.644   0.454   5.109
 2070SOL    HW2 6230   3.599   0.310   5.046
 2071SOL     OW 6231   2.117   1.348   4.014
 2071SOL    HW1 6232   2.021   1.349   3.987
 2071SOL    HW2 6233   2.129   1.401   4.098
 2072SOL     OW 6234   1.937   0.345   3.757
 2072SOL    HW1 6235   1.845   0.317   3.728
 2072SOL    HW2 6236   1.968   0.422   3.701
 2073SOL     OW 6237   1.934   0.166   4.042
 2073SOL    HW1 6238   1.917   0.249   3.988
 2073SOL    HW2 6239   2.024   0.129   4.020
 2074SOL     OW 6240   3.045   1.335   3.843
 2074SOL    HW1 6241   2.946   1.324   3.845
 2074SOL    HW2 6242   3.079   1.350   3.936
 2075SOL     OW 6243   3.355   1.767   4.683
 2075SOL    HW1 6244   3.388   1.831   4.614
 2075SOL    HW2 6245   3.421   1.761   4.758
 2076SOL     OW 6246   3.536   0.883   4.978
 2076SOL    HW1 6247   3.509   0.794   4.941
 2076SOL    HW2 6248   3.537   0.951   4.905
 2077SOL     OW 6249   3.087   0.325   4.173
 2077SOL    HW1 6250   3.152   0.251   4.162
 2077SOL    HW2 6251   3.107   0.375   4.257
 2078SOL     OW 6252   2.456   0.745   4.376
 2078SOL    HW1 6253   2.506   0.830   4.357
 2078SOL    HW2 6254   2.368   0.747   4.328
 2079SOL     OW 6255   3.592   0.934   5.241
 2079SOL    HW1 6256   3.630   1.025   5.256
 2079SOL    HW2 6257   3.584   0.917   5.142
 2080SOL     OW 6258   2.721   1.374   3.740
 2080SOL    HW1 6259   2.675   1.389   3.828
 2080SOL    HW2 6260   2.765   1.459   3.710
 2081SOL     OW 6261   2.523   1.790   4.677
 2081SOL    HW1 6262   2.477   1.878   4.664
 2081SOL    HW2 6263   2.622   1.802   4.670
 2082SOL     OW 6264   2.721   0.956   4.585
 2082SOL    HW1 6265   2.775   0.887   4.633
 2082SOL    HW2 6266   2.689   1.025   4.651
 2083SOL     OW 6267   2.945   0.984   3.811
 2083SOL    HW1 6268   2.922   1.037   3.729
 2083SOL    HW2 6269   3.026   0.928   3.792
 2084SOL     OW 6270   3.723   1.569   4.575
 2084SOL    HW1 6271   3.652   1.557   4.505
 2084SOL    HW2 6272   3.724   1.490   4.635
 2085SOL     OW 6273   1.941   1.240   4.377
 2085SOL    HW1 6274   1.940   1.193   4.465
 2085SOL    HW2 6275   2.023   1.212   4.326
 2086SOL     OW 6276   3.686   0.192   4.951
 2086SOL    HW1 6277   3.682   0.102   4.995
 2086SOL    HW2 6278   3.689   0.181   4.852
 2087SOL     OW 6279   2.290   0.424   4.244
 2087SOL    HW1 6280   2.320   0.352   4.182
 2087SOL    HW2 6281   2.251   0.384   4.327
 2088SOL     OW 6282   3.567   1.487   4.828
 2088SOL    HW1 6283   3.474   1.462   4.801
 2088SOL    HW2 6284   3.593   1.437   4.910
 2089SOL     OW 6285   2.674   1.586   4.411
 2089SOL    HW1 6286   2.706   1.596   4.317
 2089SOL    HW2 6287   2.595   1.524   4.413
 2090SOL     OW 6288   3.286   0.214   4.836
 2090SOL    HW1 6289   3.338   0.149   4.891
 2090SOL    HW2 6290   3.237   0.277   4.897
 2091SOL     OW 6291   2.863   0.034   4.878
 2091SOL    HW1 6292   2.800  -0.038   4.847
 2091SOL    HW2 6293   2.956  -0.002   4.878
 2092SOL     OW 6294   2.632   1.330   4.025
 2092SOL    HW1 6295   2.586   1.243   4.042
 2092SOL    HW2 6296   2.723   1.327   4.066
 2093SOL     OW 6297   3.214   0.052   3.892
 2093SOL    HW1 6298   3.249   0.011   3.808
 2093SOL    HW2 6299   3.124   0.014   3.912
 2094SOL     OW 6300   3.162   0.453   4.415
 2094SOL    HW1 6301   3.103   0.533   4.419
 2094SOL    HW2 6302   3.177   0.418   4.508
 2095SOL     OW 6303   3.455   0.221   4.606
 2095SOL    HW1 6304   3.371   0.220   4.660
 2095SOL    HW2 6305   3.457   0.304   4.550
 2096SOL     OW 6306   1.901   1.077   4.024
 2096SOL    HW1 6307   2.000   1.066   4.015
 2096SOL    HW2 6308   1.861   0.991   4.056
 2097SOL     OW 6309   2.737   1.646   4.061
 2097SOL    HW1 6310   2.660   1.611   4.007
 2097SOL    HW2 6311   2.705   1.717   4.123
 2098SOL     OW 6312   2.092   2.490   0.113
 2098SOL    HW1 6313   1.999   2.488   0.150
 2098SOL    HW2 6314   2.093   2.451   0.021
 2099SOL     OW 6315   2.087   2.137   0.996
 2099SOL    HW1 6316   2.122   2.120   1.088
 2099SOL    HW2 6317   1.999   2.092   0.984
 2100SOL     OW 6318   1.881   2.230   0.647
 2100SOL    HW1 6319   1.799   2.273   0.686
 2100SOL    HW2 6320   1.853   2.157   0.584
 2101SOL     OW 6321   2.431   3.137   1.165
 2101SOL    HW1 6322   2.338   3.130   1.128
 2101SOL    HW2 6323   2.442   3.226   1.209
 2102SOL     OW 6324   3.417   3.373   0.703
 2102SOL    HW1 6325   3.360   3.357   0.784
 2102SOL    HW2 6326   3.358   3.383   0.623
 2103SOL     OW 6327   2.997   2.565   0.717
 2103SOL    HW1 6328   3.054   2.643   0.692
 2103SOL    HW2 6329   2.937   2.591   0.793
 2104SOL     OW 6330   3.617   2.469   0.231
 2104SOL    HW1 6331   3.605   2.456   0.132
 2104SOL    HW2 6332   3.587   2.388   0.280
 2105SOL     OW 6333   2.630   3.006   1.023
 2105SOL    HW1 6334   2.552   3.023   1.083
 2105SOL    HW2 6335   2.664   3.093   0.987
 2106SOL     OW 6336   2.712   2.660   1.823
 2106SOL    HW1 6337   2.708   2.736   1.888
 2106SOL    HW2 6338   2.734   2.696   1.732
 2107SOL     OW 6339   2.547   2.874   0.665
 2107SOL    HW1 6340   2.616   2.858   0.735
 2107SOL    HW2 6341   2.474   2.931   0.703
 2108SOL     OW 6342   2.548   3.023   1.803
 2108SOL    HW1 6343   2.608   3.102   1.817
 2108SOL    HW2 6344   2.462   3.054   1.762
 2109SOL     OW 6345   2.197   3.297   1.061
 2109SOL    HW1 6346   2.119   3.266   1.008
 2109SOL    HW2 6347   2.255   3.355   1.004
 2110SOL     OW 6348   3.322   3.367   1.339
 2110SOL    HW1 6349   3.346   3.461   1.365
 2110SOL    HW2 6350   3.306   3.313   1.421
 2111SOL     OW 6351   2.300   2.254   1.499
 2111SOL    HW1 6352   2.382   2.198   1.508
 2111SOL    HW2 6353   2.219   2.196   1.503
 2112SOL     OW 6354   3.465   2.309   0.737
 2112SOL    HW1 6355   3.391   2.355   0.687
 2112SOL    HW2 6356   3.516   2.377   0.790
 2113SOL     OW 6357   2.093   3.575   0.483
 2113SOL    HW1 6358   2.127   3.652   0.537
 2113SOL    HW2 6359   2.137   3.575   0.393
 2114SOL     OW 6360   2.989   3.203   1.690
 2114SOL    HW1 6361   3.036   3.203   1.778
 2114SOL    HW2 6362   2.941   3.116   1.679
 2115SOL     OW 6363   2.092   3.296   0.538
 2115SOL    HW1 6364   2.066   3.392   0.538
 2115SOL    HW2 6365   2.021   3.242   0.583
 2116SOL     OW 6366   2.102   2.953   0.886
 2116SOL    HW1 6367   2.116   2.869   0.938
 2116SOL    HW2 6368   2.047   3.017   0.941
 2117SOL     OW 6369   2.482   3.648   1.439
 2117SOL    HW1 6370   2.390   3.631   1.474
 2117SOL    HW2 6371   2.510   3.740   1.465
 2118SOL     OW 6372   2.468   2.826   0.123
 2118SOL    HW1 6373   2.475   2.910   0.069
 2118SOL    HW2 6374   2.514   2.839   0.211
 2119SOL     OW 6375   3.456   1.976   1.480
 2119SOL    HW1 6376   3.438   2.043   1.408
 2119SOL    HW2 6377   3.453   2.022   1.569
 2120SOL     OW 6378   1.984   2.505   0.563
 2120SOL    HW1 6379   1.939   2.417   0.580
 2120SOL    HW2 6380   1.983   2.559   0.647
 2121SOL     OW 6381   3.704   3.629   0.359
 2121SOL    HW1 6382   3.758   3.600   0.439
 2121SOL    HW2 6383   3.734   3.719   0.330
 2122SOL     OW 6384   1.889   3.458   0.117
 2122SOL    HW1 6385   1.870   3.362   0.138
 2122SOL    HW2 6386   1.856   3.516   0.192
 2123SOL     OW 6387   3.551   2.784   0.612
 2123SOL    HW1 6388   3.646   2.755   0.620
 2123SOL    HW2 6389   3.543   2.849   0.537
 2124SOL     OW 6390   3.503   2.970   0.432
 2124SOL    HW1 6391   3.589   2.972   0.380
 2124SOL    HW2 6392   3.517   3.017   0.520
 2125SOL     OW 6393   1.975   2.599   1.597
 2125SOL    HW1 6394   2.063   2.586   1.642
 2125SOL    HW2 6395   1.962   2.696   1.575
 2126SOL     OW 6396   2.475   3.227   0.726
 2126SOL    HW1 6397   2.426   3.140   0.735
 2126SOL    HW2 6398   2.452   3.270   0.639
 2127SOL     OW 6399   3.155   3.090   1.423
 2127SOL    HW1 6400   3.192   3.017   1.365
 2127SOL    HW2 6401   3.207   3.095   1.508
 2128SOL     OW 6402   2.671   1.866   0.502
 2128SOL    HW1 6403   2.711   1.957   0.493
 2128SOL    HW2 6404   2.571   1.874   0.508
 2129SOL     OW 6405   2.059   2.838   1.264
 2129SOL    HW1 6406   2.148   2.793   1.250
 2129SOL    HW2 6407   1.986   2.773   1.245
 2130SOL     OW 6408   3.387   2.861   0.190
 2130SOL    HW1 6409   3.324   2.785   0.203
 2130SOL    HW2 6410   3.435   2.879   0.276
 2131SOL     OW 6411   3.049   3.654   1.616
 2131SOL    HW1 6412   3.073   3.714   1.540
 2131SOL    HW2 6413   3.056   3.559   1.586
 2132SOL     OW 6414   2.179   2.113   1.801
 2132SOL    HW1 6415   2.250   2.184   1.807
 2132SOL    HW2 6416   2.091   2.152   1.829
 2133SOL     OW 6417   3.328   3.279   0.953
 2133SOL    HW1 6418   3.269   3.285   1.033
 2133SOL    HW2 6419   3.313   3.191   0.907
 2134SOL     OW 6420   3.529   3.576   0.572
 2134SOL    HW1 6421   3.488   3.553   0.484
 2134SOL    HW2 6422   3.511   3.502   0.637
 2135SOL     OW 6423   2.460   2.591   0.270
 2135SOL    HW1 6424   2.484   2.660   0.202
 2135SOL    HW2 6425   2.382   2.624   0.324
 2136SOL     OW 6426   3.143   2.207   0.944
 2136SOL    HW1 6427   3.057   2.157   0.931
 2136SOL    HW2 6428   3.205   2.153   1.000
 2137SOL     OW 6429   3.438   3.524   0.307
 2137SOL    HW1 6430   3.527   3.570   0.310
 2137SOL    HW2 6431   3.417   3.500   0.212
 2138SOL     OW 6432   2.669   2.467   1.465
 2138SOL    HW1 6433   2.622   2.464   1.554
 2138SOL    HW2 6434   2.618   2.412   1.399
 2139SOL     OW 6435   3.256   2.331   1.674
 2139SOL    HW1 6436   3.236   2.374   1.762
 2139SOL    HW2 6437   3.334   2.269   1.683
 2140SOL     OW 6438   2.835   2.752   1.572
 2140SOL    HW1 6439   2.881   2.668   1.543
 2140SOL    HW2 6440   2.779   2.786   1.497
 2141SOL     OW 6441   2.853   2.272   1.242
 2141SOL    HW1 6442   2.776   2.306   1.296
 2141SOL    HW2 6443   2.819   2.221   1.163
 2142SOL     OW 6444   2.903   2.563   0.429
 2142SOL    HW1 6445   2.929   2.559   0.525
 2142SOL    HW2 6446   2.818   2.512   0.415
 2143SOL     OW 6447   1.938   2.673   0.789
 2143SOL    HW1 6448   2.037   2.661   0.798
 2143SOL    HW2 6449   1.914   2.768   0.810
 2144SOL     OW 6450   1.992   3.683   1.571
 2144SOL    HW1 6451   1.982   3.668   1.670
 2144SOL    HW2 6452   1.906   3.719   1.535
 2145SOL     OW 6453   2.727   2.210   0.195
 2145SOL    HW1 6454   2.786   2.273   0.146
 2145SOL    HW2 6455   2.746   2.116   0.166
 2146SOL     OW 6456   3.581   2.447   1.831
 2146SOL    HW1 6457   3.555   2.536   1.795
 2146SOL    HW2 6458   3.579   2.379   1.758
 2147SOL     OW 6459   3.224   3.006   0.545
 2147SOL    HW1 6460   3.307   2.977   0.497
 2147SOL    HW2 6461   3.175   3.073   0.489
 2148SOL     OW 6462   2.412   2.058   0.885
 2148SOL    HW1 6463   2.407   2.053   0.985
 2148SOL    HW2 6464   2.414   2.154   0.856
 2149SOL     OW 6465   2.870   3.318   0.477
 2149SOL    HW1 6466   2.824   3.390   0.425
 2149SOL    HW2 6467   2.866   3.338   0.575
 2150SOL     OW 6468   2.213   3.663   0.853
 2150SOL    HW1 6469   2.263   3.577   0.859
 2150SOL    HW2 6470   2.278   3.740   0.850
 2151SOL     OW 6471   3.657   2.928   0.873
 2151SOL    HW1 6472   3.595   2.913   0.797
 2151SOL    HW2 6473   3.605   2.939   0.958
 2152SOL     OW 6474   3.089   3.412   1.506
 2152SOL    HW1 6475   3.095   3.335   1.570
 2152SOL    HW2 6476   3.037   3.386   1.426
 2153SOL     OW 6477   2.183   2.805   0.242
 2153SOL    HW1 6478   2.265   2.844   0.200
 2153SOL    HW2 6479   2.156   2.723   0.193
 2154SOL     OW 6480   3.320   2.597   0.728
 2154SOL    HW1 6481   3.315   2.532   0.803
 2154SOL    HW2 6482   3.400   2.656   0.741
 2155SOL     OW 6483   2.323   3.128   1.727
 2155SOL    HW1 6484   2.273   3.129   1.641
 2155SOL    HW2 6485   2.260   3.110   1.803
 2156SOL     OW 6486   2.973   3.638   0.237
 2156SOL    HW1 6487   2.913   3.576   0.287
 2156SOL    HW2 6488   3.004   3.594   0.152
 2157SOL     OW 6489   2.064   2.147   1.498
 2157SOL    HW1 6490   1.984   2.207   1.485
 2157SOL    HW2 6491   2.054   2.098   1.584
 2158SOL     OW 6492   3.494   3.239   0.081
 2158SOL    HW1 6493   3.462   3.333   0.071
 2158SOL    HW2 6494   3.418   3.176   0.069
 2159SOL     OW 6495   2.326   3.605   0.323
 2159SOL    HW1 6496   2.359   3.644   0.409
 2159SOL    HW2 6497   2.402   3.598   0.258
 2160SOL     OW 6498   3.262   1.969   0.426
 2160SOL    HW1 6499   3.238   1.932   0.336
 2160SOL    HW2 6500   3.361   1.985   0.430
 2161SOL     OW 6501   2.111   3.647   1.241
 2161SOL    HW1 6502   2.168   3.582   1.291
 2161SOL    HW2 6503   2.095   3.614   1.148
 2162SOL     OW 6504   2.802   3.560   0.904
 2162SOL    HW1 6505   2.882   3.503   0.925
 2162SOL    HW2 6506   2.753   3.520   0.827
 2163SOL     OW 6507   2.244   2.562   0.480
 2163SOL    HW1 6508   2.289   2.472   0.477
 2163SOL    HW2 6509   2.150   2.551   0.513
 2164SOL     OW 6510   3.409   2.084   1.729
 2164SOL    HW1 6511   3.404   2.121   1.821
 2164SOL    HW2 6512   3.337   2.015   1.717
 2165SOL     OW 6513   2.476   1.984   0.117
 2165SOL    HW1 6514   2.574   1.962   0.124
 2165SOL    HW2 6515   2.445   1.967   0.024
 2166SOL     OW 6516   2.643   2.126   1.749
 2166SOL    HW1 6517   2.710   2.065   1.792
 2166SOL    HW2 6518   2.570   2.145   1.814
 2167SOL     OW 6519   2.750   3.376   1.195
 2167SOL    HW1 6520   2.727   3.351   1.101
 2167SOL    HW2 6521   2.811   3.307   1.234
 2168SOL     OW 6522   3.213   2.452   1.433
 2168SOL    HW1 6523   3.241   2.409   1.518
 2168SOL    HW2 6524   3.238   2.548   1.434
 2169SOL     OW 6525   2.665   3.264   0.924
 2169SOL    HW1 6526   2.755   3.278   0.882
 2169SOL    HW2 6527   2.594   3.266   0.853
 2170SOL     OW 6528   2.784   2.365   0.899
 2170SOL    HW1 6529   2.759   2.356   0.803
 2170SOL    HW2 6530   2.832   2.283   0.930
 2171SOL     OW 6531   2.401   1.926   0.512
 2171SOL    HW1 6532   2.320   1.927   0.570
 2171SOL    HW2 6533   2.404   2.009   0.457
 2172SOL     OW 6534   3.296   3.050   0.041
 2172SOL    HW1 6535   3.328   2.974   0.098
 2172SOL    HW2 6536   3.204   3.077   0.071
 2173SOL     OW 6537   2.159   1.897   0.171
 2173SOL    HW1 6538   2.208   1.981   0.150
 2173SOL    HW2 6539   2.221   1.832   0.216
 2174SOL     OW 6540   2.797   2.098   0.480
 2174SOL    HW1 6541   2.749   2.139   0.402
 2174SOL    HW2 6542   2.896   2.096   0.461
 2175SOL     OW 6543   2.938   2.545   1.464
 2175SOL    HW1 6544   2.858   2.484   1.467
 2175SOL    HW2 6545   3.019   2.492   1.440
 2176SOL     OW 6546   3.089   3.432   0.793
 2176SOL    HW1 6547   3.110   3.506   0.728
 2176SOL    HW2 6548   3.157   3.432   0.866
 2177SOL     OW 6549   2.321   3.014   0.741
 2177SOL    HW1 6550   2.250   2.987   0.806
 2177SOL    HW2 6551   2.295   2.986   0.648
 2178SOL     OW 6552   3.133   3.659   0.591
 2178SOL    HW1 6553   3.177   3.723   0.527
 2178SOL    HW2 6554   3.083   3.711   0.661
 2179SOL     OW 6555   2.894   2.411   0.016
 2179SOL    HW1 6556   2.853   2.493  -0.023
 2179SOL    HW2 6557   2.958   2.437   0.089
 2180SOL     OW 6558   1.940   2.418   1.386
 2180SOL    HW1 6559   2.032   2.417   1.345
 2180SOL    HW2 6560   1.934   2.492   1.453
 2181SOL     OW 6561   2.423   2.084   1.147
 2181SOL    HW1 6562   2.461   2.000   1.184
 2181SOL    HW2 6563   2.335   2.103   1.191
 2182SOL     OW 6564   2.728   2.316   0.642
 2182SOL    HW1 6565   2.696   2.388   0.580
 2182SOL    HW2 6566   2.752   2.235   0.589
 2183SOL     OW 6567   2.879   1.901   0.753
 2183SOL    HW1 6568   2.807   1.906   0.684
 2183SOL    HW2 6569   2.855   1.832   0.822
 2184SOL     OW 6570   3.291   3.035   0.867
 2184SOL    HW1 6571   3.236   2.951   0.860
 2184SOL    HW2 6572   3.317   3.064   0.775
 2185SOL     OW 6573   3.328   2.452   0.992
 2185SOL    HW1 6574   3.298   2.357   0.999
 2185SOL    HW2 6575   3.401   2.468   1.058
 2186SOL     OW 6576   3.719   2.695   0.377
 2186SOL    HW1 6577   3.761   2.631   0.441
 2186SOL    HW2 6578   3.681   2.644   0.299
 2187SOL     OW 6579   2.350   3.247   0.174
 2187SOL    HW1 6580   2.263   3.232   0.221
 2187SOL    HW2 6581   2.333   3.273   0.079
 2188SOL     OW 6582   3.526   3.142   0.657
 2188SOL    HW1 6583   3.625   3.150   0.671
 2188SOL    HW2 6584   3.481   3.226   0.688
 2189SOL     OW 6585   3.252   2.437   0.078
 2189SOL    HW1 6586   3.198   2.416   0.159
 2189SOL    HW2 6587   3.343   2.396   0.087
 2190SOL     OW 6588   2.389   2.118   0.328
 2190SOL    HW1 6589   2.416   2.059   0.253
 2190SOL    HW2 6590   2.389   2.213   0.297
 2191SOL     OW 6591   3.616   3.085   1.588
 2191SOL    HW1 6592   3.707   3.046   1.575
 2191SOL    HW2 6593   3.624   3.181   1.612
 2192SOL     OW 6594   2.926   3.209   1.340
 2192SOL    HW1 6595   2.846   3.186   1.395
 2192SOL    HW2 6596   3.009   3.183   1.389
 2193SOL     OW 6597   3.454   3.491   1.625
 2193SOL    HW1 6598   3.481   3.525   1.535
 2193SOL    HW2 6599   3.533   3.453   1.671
 2194SOL     OW 6600   2.973   3.057   1.100
 2194SOL    HW1 6601   2.933   3.101   1.181
 2194SOL    HW2 6602   2.932   3.094   1.017
 2195SOL     OW 6603   3.500   2.961   1.079
 2195SOL    HW1 6604   3.505   3.042   1.138
 2195SOL    HW2 6605   3.414   2.963   1.028
 2196SOL     OW 6606   2.777   1.951   1.402
 2196SOL    HW1 6607   2.802   1.931   1.307
 2196SOL    HW2 6608   2.849   2.007   1.444
 2197SOL     OW 6609   2.842   2.978   1.719
 2197SOL    HW1 6610   2.743   2.984   1.729
 2197SOL    HW2 6611   2.865   2.898   1.663
 2198SOL     OW 6612   2.567   2.912   0.368
 2198SOL    HW1 6613   2.553   2.919   0.467
 2198SOL    HW2 6614   2.651   2.861   0.350
 2199SOL     OW 6615   2.272   2.675   1.251
 2199SOL    HW1 6616   2.358   2.687   1.301
 2199SOL    HW2 6617   2.230   2.588   1.278
 2200SOL     OW 6618   3.136   2.248   1.262
 2200SOL    HW1 6619   3.157   2.322   1.326
 2200SOL    HW2 6620   3.047   2.265   1.219
 2201SOL     OW 6621   1.926   3.426   1.331
 2201SOL    HW1 6622   1.880   3.508   1.297
 2201SOL    HW2 6623   2.024   3.445   1.340
 2202SOL     OW 6624   2.229   2.962   0.501
 2202SOL    HW1 6625   2.222   3.045   0.445
 2202SOL    HW2 6626   2.233   2.882   0.441
 2203SOL     OW 6627   2.428   2.399   0.865
 2203SOL    HW1 6628   2.440   2.465   0.791
 2203SOL    HW2 6629   2.474   2.433   0.948
 2204SOL     OW 6630   3.114   3.210   0.388
 2204SOL    HW1 6631   3.164   3.287   0.428
 2204SOL    HW2 6632   3.019   3.212   0.420
 2205SOL     OW 6633   3.134   3.307   1.142
 2205SOL    HW1 6634   3.181   3.320   1.229
 2205SOL    HW2 6635   3.068   3.233   1.151
 2206SOL     OW 6636   3.444   2.501   0.472
 2206SOL    HW1 6637   3.413   2.562   0.545
 2206SOL    HW2 6638   3.494   2.553   0.403
 2207SOL     OW 6639   2.216   3.372   1.329
 2207SOL    HW1 6640   2.195   3.328   1.242
 2207SOL    HW2 6641   2.313   3.398   1.332
 2208SOL     OW 6642   2.264   2.613   1.598
 2208SOL    HW1 6643   2.332   2.668   1.551
 2208SOL    HW2 6644   2.304   2.525   1.625
 2209SOL     OW 6645   3.449   2.641   1.670
 2209SOL    HW1 6646   3.357   2.679   1.665
 2209SOL    HW2 6647   3.509   2.688   1.605
 2210SOL     OW 6648   2.875   1.967   1.770
 2210SOL    HW1 6649   2.881   2.052   1.718
 2210SOL    HW2 6650   2.907   1.891   1.713
 2211SOL     OW 6651   2.366   1.912   1.740
 2211SOL    HW1 6652   2.324   1.855   1.670
 2211SOL    HW2 6653   2.300   1.981   1.772
 2212SOL     OW 6654   2.435   2.732   1.029
 2212SOL    HW1 6655   2.479   2.821   1.020
 2212SOL    HW2 6656   2.372   2.732   1.106
 2213SOL     OW 6657   3.222   2.724   1.045
 2213SOL    HW1 6658   3.147   2.724   0.979
 2213SOL    HW2 6659   3.259   2.632   1.054
 2214SOL     OW 6660   3.071   2.387   0.275
 2214SOL    HW1 6661   3.084   2.303   0.329
 2214SOL    HW2 6662   3.042   2.461   0.335
 2215SOL     OW 6663   2.169   2.075   1.231
 2215SOL    HW1 6664   2.146   2.112   1.321
 2215SOL    HW2 6665   2.139   1.980   1.225
 2216SOL     OW 6666   1.899   3.172   1.282
 2216SOL    HW1 6667   1.952   3.123   1.350
 2216SOL    HW2 6668   1.921   3.270   1.287
 2217SOL     OW 6669   2.594   2.496   1.064
 2217SOL    HW1 6670   2.653   2.470   0.988
 2217SOL    HW2 6671   2.566   2.592   1.053
 2218SOL     OW 6672   3.590   2.797   1.854
 2218SOL    HW1 6673   3.544   2.790   1.765
 2218SOL    HW2 6674   3.528   2.841   1.920
 2219SOL     OW 6675   2.169   1.925   0.618
 2219SOL    HW1 6676   2.158   2.019   0.651
 2219SOL    HW2 6677   2.164   1.862   0.695
 2220SOL     OW 6678   3.484   2.229   0.374
 2220SOL    HW1 6679   3.486   2.153   0.438
 2220SOL    HW2 6680   3.436   2.306   0.414
 2221SOL     OW 6681   2.885   2.628   0.966
 2221SOL    HW1 6682   2.900   2.649   1.062
 2221SOL    HW2 6683   2.855   2.533   0.957
 2222SOL     OW 6684   2.842   3.435   1.700
 2222SOL    HW1 6685   2.822   3.479   1.612
 2222SOL    HW2 6686   2.881   3.344   1.684
 2223SOL     OW 6687   3.721   3.380   1.605
 2223SOL    HW1 6688   3.735   3.407   1.510
 2223SOL    HW2 6689   3.804   3.402   1.658
 2224SOL     OW 6690   2.212   2.760   1.804
 2224SOL    HW1 6691   2.288   2.804   1.852
 2224SOL    HW2 6692   2.247   2.713   1.722
 2225SOL     OW 6693   3.402   2.136   0.125
 2225SOL    HW1 6694   3.341   2.061   0.148
 2225SOL    HW2 6695   3.424   2.188   0.208
 2226SOL     OW 6696   3.165   2.700   0.042
 2226SOL    HW1 6697   3.199   2.607   0.057
 2226SOL    HW2 6698   3.183   2.727  -0.053
 2227SOL     OW 6699   2.930   3.195   0.849
 2227SOL    HW1 6700   2.937   3.111   0.794
 2227SOL    HW2 6701   2.992   3.264   0.813
 2228SOL     OW 6702   2.181   2.672   0.949
 2228SOL    HW1 6703   2.274   2.708   0.954
 2228SOL    HW2 6704   2.175   2.587   1.001
 2229SOL     OW 6705   2.201   2.371   1.006
 2229SOL    HW1 6706   2.149   2.288   0.989
 2229SOL    HW2 6707   2.278   2.376   0.942
 2230SOL     OW 6708   3.000   2.242   1.678
 2230SOL    HW1 6709   2.955   2.305   1.742
 2230SOL    HW2 6710   3.093   2.273   1.661
 2231SOL     OW 6711   3.022   2.069   1.477
 2231SOL    HW1 6712   3.022   2.133   1.554
 2231SOL    HW2 6713   3.050   2.117   1.394
 2232SOL     OW 6714   1.870   3.188   0.200
 2232SOL    HW1 6715   1.777   3.209   0.169
 2232SOL    HW2 6716   1.880   3.089   0.213
 2233SOL     OW 6717   1.950   3.663   0.927
 2233SOL    HW1 6718   1.908   3.577   0.900
 2233SOL    HW2 6719   2.044   3.666   0.893
 2234SOL     OW 6720   2.366   3.430   0.910
 2234SOL    HW1 6721   2.432   3.504   0.919
 2234SOL    HW2 6722   2.410   3.351   0.868
 2235SOL     OW 6723   2.864   2.658   1.238
 2235SOL    HW1 6724   2.905   2.626   1.324
 2235SOL    HW2 6725   2.768   2.631   1.235
 2236SOL     OW 6726   1.902   2.406   1.114
 2236SOL    HW1 6727   1.987   2.373   1.073
 2236SOL    HW2 6728   1.915   2.421   1.212
 2237SOL     OW 6729   2.051   2.382   1.722
 2237SOL    HW1 6730   2.110   2.342   1.652
 2237SOL    HW2 6731   1.993   2.453   1.681
 2238SOL     OW 6732   3.231   2.812   1.660
 2238SOL    HW1 6733   3.270   2.901   1.680
 2238SOL    HW2 6734   3.241   2.792   1.563
 2239SOL     OW 6735   2.677   2.434   0.325
 2239SOL    HW1 6736   2.684   2.345   0.279
 2239SOL    HW2 6737   2.583   2.468   0.317
 2240SOL     OW 6738   3.519   2.466   1.206
 2240SOL    HW1 6739   3.481   2.397   1.268
 2240SOL    HW2 6740   3.601   2.430   1.162
 2241SOL     OW 6741   2.114   3.426   1.744
 2241SOL    HW1 6742   2.084   3.483   1.820
 2241SOL    HW2 6743   2.107   3.329   1.770
 2242SOL     OW 6744   2.533   2.326   1.269
 2242SOL    HW1 6745   2.499   2.237   1.239
 2242SOL    HW2 6746   2.559   2.380   1.189
 2243SOL     OW 6747   2.792   3.540   1.465
 2243SOL    HW1 6748   2.768   3.522   1.370
 2243SOL    HW2 6749   2.822   3.634   1.475
 2244SOL     OW 6750   2.335   2.362   0.191
 2244SOL    HW1 6751   2.396   2.442   0.195
 2244SOL    HW2 6752   2.240   2.393   0.198
 2245SOL     OW 6753   2.021   2.999   1.466
 2245SOL    HW1 6754   2.043   2.938   1.542
 2245SOL    HW2 6755   2.031   2.950   1.380
 2246SOL     OW 6756   3.209   2.921   1.234
 2246SOL    HW1 6757   3.233   2.858   1.160
 2246SOL    HW2 6758   3.119   2.961   1.216
 2247SOL     OW 6759   3.164   2.717   0.309
 2247SOL    HW1 6760   3.078   2.686   0.351
 2247SOL    HW2 6761   3.160   2.703   0.210
 2248SOL     OW 6762   3.621   3.609   1.154
 2248SOL    HW1 6763   3.682   3.639   1.081
 2248SOL    HW2 6764   3.583   3.520   1.132
 2249SOL     OW 6765   3.114   3.593   1.128
 2249SOL    HW1 6766   3.198   3.598   1.074
 2249SOL    HW2 6767   3.091   3.497   1.146
 2250SOL     OW 6768   1.945   3.120   1.022
 2250SOL    HW1 6769   1.940   3.119   1.122
 2250SOL    HW2 6770   1.862   3.079   0.984
 2251SOL     OW 6771   2.550   3.524   1.716
 2251SOL    HW1 6772   2.494   3.605   1.725
 2251SOL    HW2 6773   2.602   3.528   1.630
 2252SOL     OW 6774   2.765   1.948   0.133
 2252SOL    HW1 6775   2.816   1.949   0.047
 2252SOL    HW2 6776   2.821   1.906   0.204
 2253SOL     OW 6777   3.588   1.997   0.523
 2253SOL    HW1 6778   3.661   1.980   0.456
 2253SOL    HW2 6779   3.557   1.910   0.561
 2254SOL     OW 6780   3.250   3.435   0.477
 2254SOL    HW1 6781   3.317   3.447   0.403
 2254SOL    HW2 6782   3.210   3.524   0.500
 2255SOL     OW 6783   1.992   3.656   1.851
 2255SOL    HW1 6784   1.951   3.582   1.904
 2255SOL    HW2 6785   2.056   3.707   1.909
 2256SOL     OW 6786   3.142   2.789   0.672
 2256SOL    HW1 6787   3.202   2.708   0.674
 2256SOL    HW2 6788   3.182   2.858   0.612
 2257SOL     OW 6789   2.692   3.135   1.422
 2257SOL    HW1 6790   2.687   3.168   1.517
 2257SOL    HW2 6791   2.606   3.154   1.376
 2258SOL     OW 6792   2.534   3.478   0.154
 2258SOL    HW1 6793   2.543   3.488   0.055
 2258SOL    HW2 6794   2.494   3.389   0.175
 2259SOL     OW 6795   3.512   3.582   1.394
 2259SOL    HW1 6796   3.565   3.592   1.310
 2259SOL    HW2 6797   3.485   3.672   1.428
 2260SOL     OW 6798   3.703   2.037   0.963
 2260SOL    HW1 6799   3.742   1.952   0.927
 2260SOL    HW2 6800   3.605   2.039   0.944
 2261SOL     OW 6801   2.125   2.188   0.720
 2261SOL    HW1 6802   2.046   2.239   0.686
 2261SOL    HW2 6803   2.116   2.173   0.818
 2262SOL     OW 6804   3.056   3.474   0.031
 2262SOL    HW1 6805   3.062   3.381   0.068
 2262SOL    HW2 6806   2.997   3.474  -0.049
 2263SOL     OW 6807   2.684   2.864   1.372
 2263SOL    HW1 6808   2.724   2.863   1.280
 2263SOL    HW2 6809   2.694   2.956   1.412
 2264SOL     OW 6810   2.778   2.772   0.291
 2264SOL    HW1 6811   2.841   2.810   0.223
 2264SOL    HW2 6812   2.818   2.689   0.330
 2265SOL     OW 6813   3.366   3.469   0.044
 2265SOL    HW1 6814   3.274   3.506   0.051
 2265SOL    HW2 6815   3.404   3.489  -0.046
 2266SOL     OW 6816   2.234   3.150   1.490
 2266SOL    HW1 6817   2.221   3.243   1.456
 2266SOL    HW2 6818   2.150   3.098   1.477
 2267SOL     OW 6819   3.476   3.154   1.289
 2267SOL    HW1 6820   3.536   3.157   1.369
 2267SOL    HW2 6821   3.401   3.218   1.302
 2268SOL     OW 6822   2.901   2.960   0.696
 2268SOL    HW1 6823   2.831   2.913   0.750
 2268SOL    HW2 6824   2.960   2.892   0.653
 2269SOL     OW 6825   2.876   2.098   0.971
 2269SOL    HW1 6826   2.868   2.062   0.878
 2269SOL    HW2 6827   2.874   2.022   1.036
 2270SOL     OW 6828   2.452   3.349   0.491
 2270SOL    HW1 6829   2.494   3.291   0.421
 2270SOL    HW2 6830   2.408   3.428   0.447
 2271SOL     OW 6831   3.571   2.247   1.381
 2271SOL    HW1 6832   3.644   2.316   1.385
 2271SOL    HW2 6833   3.599   2.172   1.322
 2272SOL     OW 6834   2.117   3.210   0.290
 2272SOL    HW1 6835   2.021   3.211   0.263
 2272SOL    HW2 6836   2.129   3.263   0.374
 2273SOL     OW 6837   1.967   2.875   1.726
 2273SOL    HW1 6838   1.890   2.842   1.780
 2273SOL    HW2 6839   2.052   2.845   1.768
 2274SOL     OW 6840   2.534   2.065   1.489
 2274SOL    HW1 6841   2.624   2.049   1.449
 2274SOL    HW2 6842   2.542   2.070   1.588
 2275SOL     OW 6843   3.302   2.718   1.398
 2275SOL    HW1 6844   3.245   2.770   1.335
 2275SOL    HW2 6845   3.398   2.730   1.374
 2276SOL     OW 6846   1.934   2.028   0.318
 2276SOL    HW1 6847   1.917   2.111   0.264
 2276SOL    HW2 6848   2.024   1.991   0.296
 2277SOL     OW 6849   3.045   3.197   0.119
 2277SOL    HW1 6850   2.946   3.186   0.121
 2277SOL    HW2 6851   3.079   3.212   0.212
 2278SOL     OW 6852   2.475   2.704   1.431
 2278SOL    HW1 6853   2.531   2.785   1.414
 2278SOL    HW2 6854   2.534   2.624   1.434
 2279SOL     OW 6855   3.355   3.629   0.959
 2279SOL    HW1 6856   3.388   3.693   0.890
 2279SOL    HW2 6857   3.421   3.623   1.034
 2280SOL     OW 6858   2.578   2.427   1.708
 2280SOL    HW1 6859   2.597   2.492   1.782
 2280SOL    HW2 6860   2.638   2.347   1.717
 2281SOL     OW 6861   3.312   3.082   1.633
 2281SOL    HW1 6862   3.303   3.072   1.732
 2281SOL    HW2 6863   3.408   3.075   1.607
 2282SOL     OW 6864   2.252   3.603   1.560
 2282SOL    HW1 6865   2.161   3.644   1.558
 2282SOL    HW2 6866   2.245   3.509   1.592
 2283SOL     OW 6867   3.536   2.745   1.254
 2283SOL    HW1 6868   3.509   2.656   1.217
 2283SOL    HW2 6869   3.537   2.813   1.181
 2284SOL     OW 6870   3.087   2.187   0.449
 2284SOL    HW1 6871   3.152   2.113   0.438
 2284SOL    HW2 6872   3.107   2.237   0.533
 2285SOL     OW 6873   2.456   2.607   0.652
 2285SOL    HW1 6874   2.506   2.692   0.633
 2285SOL    HW2 6875   2.368   2.609   0.604
 2286SOL     OW 6876   3.639   2.204   1.642
 2286SOL    HW1 6877   3.622   2.235   1.548
 2286SOL    HW2 6878   3.555   2.167   1.680
 2287SOL     OW 6879   3.592   2.796   1.517
 2287SOL    HW1 6880   3.630   2.887   1.532
 2287SOL    HW2 6881   3.584   2.779   1.418
 2288SOL     OW 6882   2.721   3.236   0.016
 2288SOL    HW1 6883   2.675   3.251   0.104
 2288SOL    HW2 6884   2.765   3.321  -0.014
 2289SOL     OW 6885   2.523   3.652   0.953
 2289SOL    HW1 6886   2.477   3.740   0.940
 2289SOL    HW2 6887   2.622   3.664   0.946
 2290SOL     OW 6888   2.721   2.818   0.861
 2290SOL    HW1 6889   2.775   2.749   0.909
 2290SOL    HW2 6890   2.689   2.887   0.927
 2291SOL     OW 6891   2.945   2.846   0.087
 2291SOL    HW1 6892   2.922   2.899   0.005
 2291SOL    HW2 6893   3.026   2.790   0.068
 2292SOL     OW 6894   3.723   3.431   0.851
 2292SOL    HW1 6895   3.652   3.419   0.781
 2292SOL    HW2 6896   3.724   3.352   0.911
 2293SOL     OW 6897   2.083   3.176   1.844
 2293SOL    HW1 6898   2.018   3.103   1.823
 2293SOL    HW2 6899   2.087   3.190   1.942
 2294SOL     OW 6900   1.941   3.102   0.653
 2294SOL    HW1 6901   1.940   3.055   0.741
 2294SOL    HW2 6902   2.023   3.074   0.602
 2295SOL     OW 6903   2.534   3.253   1.624
 2295SOL    HW1 6904   2.456   3.203   1.662
 2295SOL    HW2 6905   2.531   3.348   1.655
 2296SOL     OW 6906   3.686   2.054   1.227
 2296SOL    HW1 6907   3.682   1.964   1.271
 2296SOL    HW2 6908   3.689   2.043   1.128
 2297SOL     OW 6909   2.290   2.286   0.520
 2297SOL    HW1 6910   2.320   2.214   0.458
 2297SOL    HW2 6911   2.251   2.246   0.603
 2298SOL     OW 6912   3.567   3.349   1.104
 2298SOL    HW1 6913   3.474   3.324   1.077
 2298SOL    HW2 6914   3.593   3.299   1.186
 2299SOL     OW 6915   2.179   2.409   1.280
 2299SOL    HW1 6916   2.217   2.350   1.352
 2299SOL    HW2 6917   2.219   2.383   1.192
 2300SOL     OW 6918   2.674   3.448   0.687
 2300SOL    HW1 6919   2.706   3.458   0.593
 2300SOL    HW2 6920   2.595   3.386   0.689
 2301SOL     OW 6921   3.286   2.076   1.112
 2301SOL    HW1 6922   3.338   2.011   1.167
 2301SOL    HW2 6923   3.237   2.139   1.173
 2302SOL     OW 6924   2.863   1.896   1.154
 2302SOL    HW1 6925   2.800   1.824   1.123
 2302SOL    HW2 6926   2.956   1.860   1.154
 2303SOL     OW 6927   2.632   3.192   0.301
 2303SOL    HW1 6928   2.586   3.105   0.318
 2303SOL    HW2 6929   2.723   3.189   0.342
 2304SOL     OW 6930   2.480   3.429   1.284
 2304SOL    HW1 6931   2.475   3.511   1.341
 2304SOL    HW2 6932   2.569   3.426   1.239
 2305SOL     OW 6933   3.214   1.914   0.168
 2305SOL    HW1 6934   3.249   1.873   0.084
 2305SOL    HW2 6935   3.124   1.876   0.188
 2306SOL     OW 6936   3.162   2.315   0.691
 2306SOL    HW1 6937   3.103   2.395   0.695
 2306SOL    HW2 6938   3.177   2.280   0.784
 2307SOL     OW 6939   3.455   2.083   0.882
 2307SOL    HW1 6940   3.371   2.082   0.936
 2307SOL    HW2 6941   3.457   2.166   0.826
 2308SOL     OW 6942   2.737   3.508   0.337
 2308SOL    HW1 6943   2.660   3.473   0.283
 2308SOL    HW2 6944   2.705   3.579   0.399
 2309SOL     OW 6945   2.092   2.490   1.975
 2309SOL    HW1 6946   1.999   2.488   2.012
 2309SOL    HW2 6947   2.093   2.451   1.883
 2310SOL     OW 6948   2.087   2.137   2.858
 2310SOL    HW1 6949   2.122   2.120   2.950
 2310SOL    HW2 6950   1.999   2.092   2.846
 2311SOL     OW 6951   1.881   2.230   2.509
 2311SOL    HW1 6952   1.799   2.273   2.548
 2311SOL    HW2 6953   1.853   2.157   2.446
 2312SOL     OW 6954   2.431   3.137   3.027
 2312SOL    HW1 6955   2.338   3.130   2.990
 2312SOL    HW2 6956   2.442   3.226   3.071
 2313SOL     OW 6957   3.417   3.373   2.565
 2313SOL    HW1 6958   3.360   3.357   2.646
 2313SOL    HW2 6959   3.358   3.383   2.485
 2314SOL     OW 6960   2.997   2.565   2.579
 2314SOL    HW1 6961   3.054   2.643   2.554
 2314SOL    HW2 6962   2.937   2.591   2.655
 2315SOL     OW 6963   3.617   2.469   2.093
 2315SOL    HW1 6964   3.605   2.456   1.994
 2315SOL    HW2 6965   3.587   2.388   2.142
 2316SOL     OW 6966   2.630   3.006   2.885
 2316SOL    HW1 6967   2.552   3.023   2.945
 2316SOL    HW2 6968   2.664   3.093   2.849
 2317SOL     OW 6969   2.712   2.660   3.685
 2317SOL    HW1 6970   2.708   2.736   3.750
 2317SOL    HW2 6971   2.734   2.696   3.594
 2318SOL     OW 6972   2.547   2.874   2.527
 2318SOL    HW1 6973   2.616   2.858   2.597
 2318SOL    HW2 6974   2.474   2.931   2.565
 2319SOL     OW 6975   2.548   3.023   3.665
 2319SOL    HW1 6976   2.608   3.102   3.679
 2319SOL    HW2 6977   2.462   3.054   3.624
 2320SOL     OW 6978   2.197   3.297   2.923
 2320SOL    HW1 6979   2.119   3.266   2.870
 2320SOL    HW2 6980   2.255   3.355   2.866
 2321SOL     OW 6981   3.322   3.367   3.201
 2321SOL    HW1 6982   3.346   3.461   3.227
 2321SOL    HW2 6983   3.306   3.313   3.283
 2322SOL     OW 6984   2.300   2.254   3.361
 2322SOL    HW1 6985   2.382   2.198   3.370
 2322SOL    HW2 6986   2.219   2.196   3.365
 2323SOL     OW 6987   3.465   2.309   2.599
 2323SOL    HW1 6988   3.391   2.355   2.549
 2323SOL    HW2 6989   3.516   2.377   2.652
 2324SOL     OW 6990   2.093   3.575   2.345
 2324SOL    HW1 6991   2.127   3.652   2.399
 2324SOL    HW2 6992   2.137   3.575   2.255
 2325SOL     OW 6993   2.989   3.203   3.552
 2325SOL    HW1 6994   3.036   3.203   3.640
 2325SOL    HW2 6995   2.941   3.116   3.541
 2326SOL     OW 6996   2.092   3.296   2.400
 2326SOL    HW1 6997   2.066   3.392   2.400
 2326SOL    HW2 6998   2.021   3.242   2.445
 2327SOL     OW 6999   2.102   2.953   2.748
 2327SOL    HW1 7000   2.116   2.869   2.800
 2327SOL    HW2 7001   2.047   3.017   2.803
 2328SOL     OW 7002   2.482   3.648   3.301
 2328SOL    HW1 7003   2.390   3.631   3.336
 2328SOL    HW2 7004   2.510   3.740   3.327
 2329SOL     OW 7005   2.468   2.826   1.985
 2329SOL    HW1 7006   2.475   2.910   1.931
 2329SOL    HW2 7007   2.514   2.839   2.073
 2330SOL     OW 7008   3.456   1.976   3.342
 2330SOL    HW1 7009   3.438   2.043   3.270
 2330SOL    HW2 7010   3.453   2.022   3.431
 2331SOL     OW 7011   3.704   3.629   2.221
 2331SOL    HW1 7012   3.758   3.600   2.301
 2331SOL    HW2 7013   3.734   3.719   2.192
 2332SOL     OW 7014   1.889   3.458   1.979
 2332SOL    HW1 7015   1.870   3.362   2.000
 2332SOL    HW2 7016   1.856   3.516   2.054
 2333SOL     OW 7017   3.551   2.784   2.474
 2333SOL    HW1 7018   3.646   2.755   2.482
 2333SOL    HW2 7019   3.543   2.849   2.399
 2334SOL     OW 7020   3.503   2.970   2.294
 2334SOL    HW1 7021   3.589   2.972   2.242
 2334SOL    HW2 7022   3.517   3.017   2.382
 2335SOL     OW 7023   1.975   2.599   3.459
 2335SOL    HW1 7024   2.063   2.586   3.504
 2335SOL    HW2 7025   1.962   2.696   3.437
 2336SOL     OW 7026   2.475   3.227   2.588
 2336SOL    HW1 7027   2.426   3.140   2.597
 2336SOL    HW2 7028   2.452   3.270   2.501
 2337SOL     OW 7029   3.155   3.090   3.285
 2337SOL    HW1 7030   3.192   3.017   3.227
 2337SOL    HW2 7031   3.207   3.095   3.370
 2338SOL     OW 7032   2.671   1.866   2.364
 2338SOL    HW1 7033   2.711   1.957   2.355
 2338SOL    HW2 7034   2.571   1.874   2.370
 2339SOL     OW 7035   2.059   2.838   3.126
 2339SOL    HW1 7036   2.148   2.793   3.112
 2339SOL    HW2 7037   1.986   2.773   3.107
 2340SOL     OW 7038   3.387   2.861   2.052
 2340SOL    HW1 7039   3.324   2.785   2.065
 2340SOL    HW2 7040   3.435   2.879   2.138
 2341SOL     OW 7041   3.049   3.654   3.478
 2341SOL    HW1 7042   3.073   3.714   3.402
 2341SOL    HW2 7043   3.056   3.559   3.448
 2342SOL     OW 7044   2.179   2.113   3.663
 2342SOL    HW1 7045   2.250   2.184   3.669
 2342SOL    HW2 7046   2.091   2.152   3.691
 2343SOL     OW 7047   3.328   3.279   2.815
 2343SOL    HW1 7048   3.269   3.285   2.895
 2343SOL    HW2 7049   3.313   3.191   2.769
 2344SOL     OW 7050   3.529   3.576   2.434
 2344SOL    HW1 7051   3.488   3.553   2.346
 2344SOL    HW2 7052   3.511   3.502   2.499
 2345SOL     OW 7053   2.460   2.591   2.132
 2345SOL    HW1 7054   2.484   2.660   2.064
 2345SOL    HW2 7055   2.382   2.624   2.186
 2346SOL     OW 7056   3.143   2.207   2.806
 2346SOL    HW1 7057   3.057   2.157   2.793
 2346SOL    HW2 7058   3.205   2.153   2.862
 2347SOL     OW 7059   3.438   3.524   2.169
 2347SOL    HW1 7060   3.527   3.570   2.172
 2347SOL    HW2 7061   3.417   3.500   2.074
 2348SOL     OW 7062   2.669   2.467   3.327
 2348SOL    HW1 7063   2.622   2.464   3.416
 2348SOL    HW2 7064   2.618   2.412   3.261
 2349SOL     OW 7065   3.256   2.331   3.536
 2349SOL    HW1 7066   3.236   2.374   3.624
 2349SOL    HW2 7067   3.334   2.269   3.545
 2350SOL     OW 7068   2.835   2.752   3.434
 2350SOL    HW1 7069   2.881   2.668   3.405
 2350SOL    HW2 7070   2.779   2.786   3.359
 2351SOL     OW 7071   2.853   2.272   3.104
 2351SOL    HW1 7072   2.776   2.306   3.158
 2351SOL    HW2 7073   2.819   2.221   3.025
 2352SOL     OW 7074   1.992   3.683   3.433
 2352SOL    HW1 7075   1.982   3.668   3.532
 2352SOL    HW2 7076   1.906   3.719   3.397
 2353SOL     OW 7077   2.727   2.210   2.057
 2353SOL    HW1 7078   2.786   2.273   2.008
 2353SOL    HW2 7079   2.746   2.116   2.028
 2354SOL     OW 7080   3.581   2.447   3.693
 2354SOL    HW1 7081   3.555   2.536   3.657
 2354SOL    HW2 7082   3.579   2.379   3.620
 2355SOL     OW 7083   3.224   3.006   2.407
 2355SOL    HW1 7084   3.307   2.977   2.359
 2355SOL    HW2 7085   3.175   3.073   2.351
 2356SOL     OW 7086   2.412   2.058   2.747
 2356SOL    HW1 7087   2.407   2.053   2.847
 2356SOL    HW2 7088   2.414   2.154   2.718
 2357SOL     OW 7089   2.870   3.318   2.339
 2357SOL    HW1 7090   2.824   3.390   2.287
 2357SOL    HW2 7091   2.866   3.338   2.437
 2358SOL     OW 7092   2.213   3.663   2.715
 2358SOL    HW1 7093   2.263   3.577   2.721
 2358SOL    HW2 7094   2.278   3.740   2.712
 2359SOL     OW 7095   3.657   2.928   2.735
 2359SOL    HW1 7096   3.595   2.913   2.659
 2359SOL    HW2 7097   3.605   2.939   2.820
 2360SOL     OW 7098   3.089   3.412   3.368
 2360SOL    HW1 7099   3.095   3.335   3.432
 2360SOL    HW2 7100   3.037   3.386   3.288
 2361SOL     OW 7101   2.183   2.805   2.104
 2361SOL    HW1 7102   2.265   2.844   2.062
 2361SOL    HW2 7103   2.156   2.723   2.055
 2362SOL     OW 7104   3.320   2.597   2.590
 2362SOL    HW1 7105   3.315   2.532   2.665
 2362SOL    HW2 7106   3.400   2.656   2.603
 2363SOL     OW 7107   2.323   3.128   3.589
 2363SOL    HW1 7108   2.273   3.129   3.503
 2363SOL    HW2 7109   2.260   3.110   3.665
 2364SOL     OW 7110   2.973   3.638   2.099
 2364SOL    HW1 7111   2.913   3.576   2.149
 2364SOL    HW2 7112   3.004   3.594   2.014
 2365SOL     OW 7113   2.064   2.147   3.360
 2365SOL    HW1 7114   1.984   2.207   3.347
 2365SOL    HW2 7115   2.054   2.098   3.446
 2366SOL     OW 7116   3.494   3.239   1.943
 2366SOL    HW1 7117   3.462   3.333   1.933
 2366SOL    HW2 7118   3.418   3.176   1.931
 2367SOL     OW 7119   2.326   3.605   2.185
 2367SOL    HW1 7120   2.359   3.644   2.271
 2367SOL    HW2 7121   2.402   3.598   2.120
 2368SOL     OW 7122   3.262   1.969   2.288
 2368SOL    HW1 7123   3.238   1.932   2.198
 2368SOL    HW2 7124   3.361   1.985   2.292
 2369SOL     OW 7125   2.111   3.647   3.103
 2369SOL    HW1 7126   2.168   3.582   3.153
 2369SOL    HW2 7127   2.095   3.614   3.010
 2370SOL     OW 7128   2.802   3.560   2.766
 2370SOL    HW1 7129   2.882   3.503   2.787
 2370SOL    HW2 7130   2.753   3.520   2.689
 2371SOL     OW 7131   3.409   2.084   3.591
 2371SOL    HW1 7132   3.404   2.121   3.683
 2371SOL    HW2 7133   3.337   2.015   3.579
 2372SOL     OW 7134   2.476   1.984   1.979
 2372SOL    HW1 7135   2.574   1.962   1.986
 2372SOL    HW2 7136   2.445   1.967   1.886
 2373SOL     OW 7137   2.643   2.126   3.611
 2373SOL    HW1 7138   2.710   2.065   3.654
 2373SOL    HW2 7139   2.570   2.145   3.676
 2374SOL     OW 7140   2.750   3.376   3.057
 2374SOL    HW1 7141   2.727   3.351   2.963
 2374SOL    HW2 7142   2.811   3.307   3.096
 2375SOL     OW 7143   3.213   2.452   3.295
 2375SOL    HW1 7144   3.241   2.409   3.380
 2375SOL    HW2 7145   3.238   2.548   3.296
 2376SOL     OW 7146   2.665   3.264   2.786
 2376SOL    HW1 7147   2.755   3.278   2.744
 2376SOL    HW2 7148   2.594   3.266   2.715
 2377SOL     OW 7149   2.401   1.926   2.374
 2377SOL    HW1 7150   2.320   1.927   2.432
 2377SOL    HW2 7151   2.404   2.009   2.319
 2378SOL     OW 7152   3.296   3.050   1.903
 2378SOL    HW1 7153   3.328   2.974   1.960
 2378SOL    HW2 7154   3.204   3.077   1.933
 2379SOL     OW 7155   2.159   1.897   2.033
 2379SOL    HW1 7156   2.208   1.981   2.012
 2379SOL    HW2 7157   2.221   1.832   2.078
 2380SOL     OW 7158   2.797   2.098   2.342
 2380SOL    HW1 7159   2.749   2.139   2.264
 2380SOL    HW2 7160   2.896   2.096   2.323
 2381SOL     OW 7161   2.938   2.545   3.326
 2381SOL    HW1 7162   2.858   2.484   3.329
 2381SOL    HW2 7163   3.019   2.492   3.302
 2382SOL     OW 7164   3.089   3.432   2.655
 2382SOL    HW1 7165   3.110   3.506   2.590
 2382SOL    HW2 7166   3.157   3.432   2.728
 2383SOL     OW 7167   2.321   3.014   2.603
 2383SOL    HW1 7168   2.250   2.987   2.668
 2383SOL    HW2 7169   2.295   2.986   2.510
 2384SOL     OW 7170   3.133   3.659   2.453
 2384SOL    HW1 7171   3.177   3.723   2.389
 2384SOL    HW2 7172   3.083   3.711   2.523
 2385SOL     OW 7173   2.894   2.411   1.878
 2385SOL    HW1 7174   2.853   2.493   1.839
 2385SOL    HW2 7175   2.958   2.437   1.951
 2386SOL     OW 7176   1.940   2.418   3.248
 2386SOL    HW1 7177   2.032   2.417   3.207
 2386SOL    HW2 7178   1.934   2.492   3.315
 2387SOL     OW 7179   2.423   2.084   3.009
 2387SOL    HW1 7180   2.461   2.000   3.046
 2387SOL    HW2 7181   2.335   2.103   3.053
 2388SOL     OW 7182   2.879   1.901   2.615
 2388SOL    HW1 7183   2.807   1.906   2.546
 2388SOL    HW2 7184   2.855   1.832   2.684
 2389SOL     OW 7185   3.291   3.035   2.729
 2389SOL    HW1 7186   3.236   2.951   2.722
 2389SOL    HW2 7187   3.317   3.064   2.637
 2390SOL     OW 7188   3.328   2.452   2.854
 2390SOL    HW1 7189   3.298   2.357   2.861
 2390SOL    HW2 7190   3.401   2.468   2.920
 2391SOL     OW 7191   3.719   2.695   2.239
 2391SOL    HW1 7192   3.761   2.631   2.303
 2391SOL    HW2 7193   3.681   2.644   2.161
 2392SOL     OW 7194   2.350   3.247   2.036
 2392SOL    HW1 7195   2.263   3.232   2.083
 2392SOL    HW2 7196   2.333   3.273   1.941
 2393SOL     OW 7197   3.526   3.142   2.519
 2393SOL    HW1 7198   3.625   3.150   2.533
 2393SOL    HW2 7199   3.481   3.226   2.550
 2394SOL     OW 7200   3.252   2.437   1.940
 2394SOL    HW1 7201   3.198   2.416   2.021
 2394SOL    HW2 7202   3.343   2.396   1.949
 2395SOL     OW 7203   2.389   2.118   2.190
 2395SOL    HW1 7204   2.416   2.059   2.115
 2395SOL    HW2 7205   2.389   2.213   2.159
 2396SOL     OW 7206   3.616   3.085   3.450
 2396SOL    HW1 7207   3.707   3.046   3.437
 2396SOL    HW2 7208   3.624   3.181   3.474
 2397SOL     OW 7209   2.926   3.209   3.202
 2397SOL    HW1 7210   2.846   3.186   3.257
 2397SOL    HW2 7211   3.009   3.183   3.251
 2398SOL     OW 7212   3.454   3.491   3.487
 2398SOL    HW1 7213   3.481   3.525   3.397
 2398SOL    HW2 7214   3.533   3.453   3.533
 2399SOL     OW 7215   2.973   3.057   2.962
 2399SOL    HW1 7216   2.933   3.101   3.043
 2399SOL    HW2 7217   2.932   3.094   2.879
 2400SOL     OW 7218   3.500   2.961   2.941
 2400SOL    HW1 7219   3.505   3.042   3.000
 2400SOL    HW2 7220   3.414   2.963   2.890
 2401SOL     OW 7221   2.777   1.951   3.264
 2401SOL    HW1 7222   2.802   1.931   3.169
 2401SOL    HW2 7223   2.849   2.007   3.306
 2402SOL     OW 7224   2.842   2.978   3.581
 2402SOL    HW1 7225   2.743   2.984   3.591
 2402SOL    HW2 7226   2.865   2.898   3.525
 2403SOL     OW 7227   2.567   2.912   2.230
 2403SOL    HW1 7228   2.553   2.919   2.329
 2403SOL    HW2 7229   2.651   2.861   2.212
 2404SOL     OW 7230   2.272   2.675   3.113
 2404SOL    HW1 7231   2.358   2.687   3.163
 2404SOL    HW2 7232   2.230   2.588   3.140
 2405SOL     OW 7233   3.136   2.248   3.124
 2405SOL    HW1 7234   3.157   2.322   3.188
 2405SOL    HW2 7235   3.047   2.265   3.081
 2406SOL     OW 7236   1.926   3.426   3.193
 2406SOL    HW1 7237   1.880   3.508   3.159
 2406SOL    HW2 7238   2.024   3.445   3.202
 2407SOL     OW 7239   2.229   2.962   2.363
 2407SOL    HW1 7240   2.222   3.045   2.307
 2407SOL    HW2 7241   2.233   2.882   2.303
 2408SOL     OW 7242   3.114   3.210   2.250
 2408SOL    HW1 7243   3.164   3.287   2.290
 2408SOL    HW2 7244   3.019   3.212   2.282
 2409SOL     OW 7245   3.134   3.307   3.004
 2409SOL    HW1 7246   3.181   3.320   3.091
 2409SOL    HW2 7247   3.068   3.233   3.013
 2410SOL     OW 7248   3.444   2.501   2.334
 2410SOL    HW1 7249   3.413   2.562   2.407
 2410SOL    HW2 7250   3.494   2.553   2.265
 2411SOL     OW 7251   2.216   3.372   3.191
 2411SOL    HW1 7252   2.195   3.328   3.104
 2411SOL    HW2 7253   2.313   3.398   3.194
 2412SOL     OW 7254   2.264   2.613   3.460
 2412SOL    HW1 7255   2.332   2.668   3.413
 2412SOL    HW2 7256   2.304   2.525   3.487
 2413SOL     OW 7257   3.449   2.641   3.532
 2413SOL    HW1 7258   3.357   2.679   3.527
 2413SOL    HW2 7259   3.509   2.688   3.467
 2414SOL     OW 7260   2.875   1.967   3.632
 2414SOL    HW1 7261   2.881   2.052   3.580
 2414SOL    HW2 7262   2.907   1.891   3.575
 2415SOL     OW 7263   2.366   1.912   3.602
 2415SOL    HW1 7264   2.324   1.855   3.532
 2415SOL    HW2 7265   2.300   1.981   3.634
 2416SOL     OW 7266   2.435   2.732   2.891
 2416SOL    HW1 7267   2.479   2.821   2.882
 2416SOL    HW2 7268   2.372   2.732   2.968
 2417SOL     OW 7269   3.222   2.724   2.907
 2417SOL    HW1 7270   3.147   2.724   2.841
 2417SOL    HW2 7271   3.259   2.632   2.916
 2418SOL     OW 7272   3.071   2.387   2.137
 2418SOL    HW1 7273   3.084   2.303   2.191
 2418SOL    HW2 7274   3.042   2.461   2.197
 2419SOL     OW 7275   2.169   2.075   3.093
 2419SOL    HW1 7276   2.146   2.112   3.183
 2419SOL    HW2 7277   2.139   1.980   3.087
 2420SOL     OW 7278   1.899   3.172   3.144
 2420SOL    HW1 7279   1.952   3.123   3.212
 2420SOL    HW2 7280   1.921   3.270   3.149
 2421SOL     OW 7281   2.594   2.496   2.926
 2421SOL    HW1 7282   2.653   2.470   2.850
 2421SOL    HW2 7283   2.566   2.592   2.915
 2422SOL     OW 7284   3.590   2.797   3.716
 2422SOL    HW1 7285   3.544   2.790   3.627
 2422SOL    HW2 7286   3.528   2.841   3.782
 2423SOL     OW 7287   2.169   1.925   2.480
 2423SOL    HW1 7288   2.158   2.019   2.513
 2423SOL    HW2 7289   2.164   1.862   2.557
 2424SOL     OW 7290   3.484   2.229   2.236
 2424SOL    HW1 7291   3.486   2.153   2.300
 2424SOL    HW2 7292   3.436   2.306   2.276
 2425SOL     OW 7293   2.885   2.628   2.828
 2425SOL    HW1 7294   2.900   2.649   2.924
 2425SOL    HW2 7295   2.855   2.533   2.819
 2426SOL     OW 7296   2.842   3.435   3.562
 2426SOL    HW1 7297   2.822   3.479   3.474
 2426SOL    HW2 7298   2.881   3.344   3.546
 2427SOL     OW 7299   3.721   3.380   3.467
 2427SOL    HW1 7300   3.735   3.407   3.372
 2427SOL    HW2 7301   3.804   3.402   3.520
 2428SOL     OW 7302   2.212   2.760   3.666
 2428SOL    HW1 7303   2.288   2.804   3.714
 2428SOL    HW2 7304   2.247   2.713   3.584
 2429SOL     OW 7305   3.402   2.136   1.987
 2429SOL    HW1 7306   3.341   2.061   2.010
 2429SOL    HW2 7307   3.424   2.188   2.070
 2430SOL     OW 7308   3.165   2.700   1.904
 2430SOL    HW1 7309   3.199   2.607   1.919
 2430SOL    HW2 7310   3.183   2.727   1.809
 2431SOL     OW 7311   2.930   3.195   2.711
 2431SOL    HW1 7312   2.937   3.111   2.656
 2431SOL    HW2 7313   2.992   3.264   2.675
 2432SOL     OW 7314   2.181   2.672   2.811
 2432SOL    HW1 7315   2.274   2.708   2.816
 2432SOL    HW2 7316   2.175   2.587   2.863
 2433SOL     OW 7317   2.201   2.371   2.868
 2433SOL    HW1 7318   2.149   2.288   2.851
 2433SOL    HW2 7319   2.278   2.376   2.804
 2434SOL     OW 7320   3.000   2.242   3.540
 2434SOL    HW1 7321   2.955   2.305   3.604
 2434SOL    HW2 7322   3.093   2.273   3.523
 2435SOL     OW 7323   3.022   2.069   3.339
 2435SOL    HW1 7324   3.022   2.133   3.416
 2435SOL    HW2 7325   3.050   2.117   3.256
 2436SOL     OW 7326   1.870   3.188   2.062
 2436SOL    HW1 7327   1.777   3.209   2.031
 2436SOL    HW2 7328   1.880   3.089   2.075
 2437SOL     OW 7329   1.950   3.663   2.789
 2437SOL    HW1 7330   1.908   3.577   2.762
 2437SOL    HW2 7331   2.044   3.666   2.755
 2438SOL     OW 7332   2.366   3.430   2.772
 2438SOL    HW1 7333   2.432   3.504   2.781
 2438SOL    HW2 7334   2.410   3.351   2.730
 2439SOL     OW 7335   2.864   2.658   3.100
 2439SOL    HW1 7336   2.905   2.626   3.186
 2439SOL    HW2 7337   2.768   2.631   3.097
 2440SOL     OW 7338   1.902   2.406   2.976
 2440SOL    HW1 7339   1.987   2.373   2.935
 2440SOL    HW2 7340   1.915   2.421   3.074
 2441SOL     OW 7341   2.051   2.382   3.584
 2441SOL    HW1 7342   2.110   2.342   3.514
 2441SOL    HW2 7343   1.993   2.453   3.543
 2442SOL     OW 7344   3.231   2.812   3.522
 2442SOL    HW1 7345   3.270   2.901   3.542
 2442SOL    HW2 7346   3.241   2.792   3.425
 2443SOL     OW 7347   2.677   2.434   2.187
 2443SOL    HW1 7348   2.684   2.345   2.141
 2443SOL    HW2 7349   2.583   2.468   2.179
 2444SOL     OW 7350   3.519   2.466   3.068
 2444SOL    HW1 7351   3.481   2.397   3.130
 2444SOL    HW2 7352   3.601   2.430   3.024
 2445SOL     OW 7353   2.114   3.426   3.606
 2445SOL    HW1 7354   2.084   3.483   3.682
 2445SOL    HW2 7355   2.107   3.329   3.632
 2446SOL     OW 7356   2.533   2.326   3.131
 2446SOL    HW1 7357   2.499   2.237   3.101
 2446SOL    HW2 7358   2.559   2.380   3.051
 2447SOL     OW 7359   2.792   3.540   3.327
 2447SOL    HW1 7360   2.768   3.522   3.232
 2447SOL    HW2 7361   2.822   3.634   3.337
 2448SOL     OW 7362   2.335   2.362   2.053
 2448SOL    HW1 7363   2.396   2.442   2.057
 2448SOL    HW2 7364   2.240   2.393   2.060
 2449SOL     OW 7365   2.021   2.999   3.328
 2449SOL    HW1 7366   2.043   2.938   3.404
 2449SOL    HW2 7367   2.031   2.950   3.242
 2450SOL     OW 7368   3.209   2.921   3.096
 2450SOL    HW1 7369   3.233   2.858   3.022
 2450SOL    HW2 7370   3.119   2.961   3.078
 2451SOL     OW 7371   3.164   2.717   2.171
 2451SOL    HW1 7372   3.078   2.686   2.213
 2451SOL    HW2 7373   3.160   2.703   2.072
 2452SOL     OW 7374   3.621   3.609   3.016
 2452SOL    HW1 7375   3.682   3.639   2.943
 2452SOL    HW2 7376   3.583   3.520   2.994
 2453SOL     OW 7377   3.114   3.593   2.990
 2453SOL    HW1 7378   3.198   3.598   2.936
 2453SOL    HW2 7379   3.091   3.497   3.008
 2454SOL     OW 7380   1.945   3.120   2.884
 2454SOL    HW1 7381   1.940   3.119   2.984
 2454SOL    HW2 7382   1.862   3.079   2.846
 2455SOL     OW 7383   2.550   3.524   3.578
 2455SOL    HW1 7384   2.494   3.605   3.587
 2455SOL    HW2 7385   2.602   3.528   3.492
 2456SOL     OW 7386   3.588   1.997   2.385
 2456SOL    HW1 7387   3.661   1.980   2.318
 2456SOL    HW2 7388   3.557   1.910   2.423
 2457SOL     OW 7389   3.250   3.435   2.339
 2457SOL    HW1 7390   3.317   3.447   2.265
 2457SOL    HW2 7391   3.210   3.524   2.362
 2458SOL     OW 7392   1.992   3.656   3.713
 2458SOL    HW1 7393   1.951   3.582   3.766
 2458SOL    HW2 7394   2.056   3.707   3.771
 2459SOL     OW 7395   3.142   2.789   2.534
 2459SOL    HW1 7396   3.202   2.708   2.536
 2459SOL    HW2 7397   3.182   2.858   2.474
 2460SOL     OW 7398   2.692   3.135   3.284
 2460SOL    HW1 7399   2.687   3.168   3.379
 2460SOL    HW2 7400   2.606   3.154   3.238
 2461SOL     OW 7401   2.534   3.478   2.016
 2461SOL    HW1 7402   2.543   3.488   1.917
 2461SOL    HW2 7403   2.494   3.389   2.037
 2462SOL     OW 7404   3.512   3.582   3.256
 2462SOL    HW1 7405   3.565   3.592   3.172
 2462SOL    HW2 7406   3.485   3.672   3.290
 2463SOL     OW 7407   3.703   2.037   2.825
 2463SOL    HW1 7408   3.742   1.952   2.789
 2463SOL    HW2 7409   3.605   2.039   2.806
 2464SOL     OW 7410   2.125   2.188   2.582
 2464SOL    HW1 7411   2.046   2.239   2.548
 2464SOL    HW2 7412   2.116   2.173   2.680
 2465SOL     OW 7413   3.056   3.474   1.893
 2465SOL    HW1 7414   3.062   3.381   1.930
 2465SOL    HW2 7415   2.997   3.474   1.813
 2466SOL     OW 7416   2.684   2.864   3.234
 2466SOL    HW1 7417   2.724   2.863   3.142
 2466SOL    HW2 7418   2.694   2.956   3.274
 2467SOL     OW 7419   2.778   2.772   2.153
 2467SOL    HW1 7420   2.841   2.810   2.085
 2467SOL    HW2 7421   2.818   2.689   2.192
 2468SOL     OW 7422   3.366   3.469   1.906
 2468SOL    HW1 7423   3.274   3.506   1.913
 2468SOL    HW2 7424   3.404   3.489   1.816
 2469SOL     OW 7425   2.234   3.150   3.352
 2469SOL    HW1 7426   2.221   3.243   3.318
 2469SOL    HW2 7427   2.150   3.098   3.339
 2470SOL     OW 7428   3.476   3.154   3.151
 2470SOL    HW1 7429   3.536   3.157   3.231
 2470SOL    HW2 7430   3.401   3.218   3.164
 2471SOL     OW 7431   2.901   2.960   2.558
 2471SOL    HW1 7432   2.831   2.913   2.612
 2471SOL    HW2 7433   2.960   2.892   2.515
 2472SOL     OW 7434   2.876   2.098   2.833
 2472SOL    HW1 7435   2.868   2.062   2.740
 2472SOL    HW2 7436   2.874   2.022   2.898
 2473SOL     OW 7437   2.452   3.349   2.353
 2473SOL    HW1 7438   2.494   3.291   2.283
 2473SOL    HW2 7439   2.408   3.428   2.309
 2474SOL     OW 7440   3.571   2.247   3.243
 2474SOL    HW1 7441   3.644   2.316   3.247
 2474SOL    HW2 7442   3.599   2.172   3.184
 2475SOL     OW 7443   2.117   3.210   2.152
 2475SOL    HW1 7444   2.021   3.211   2.125
 2475SOL    HW2 7445   2.129   3.263   2.236
 2476SOL     OW 7446   1.967   2.875   3.588
 2476SOL    HW1 7447   1.890   2.842   3.642
 2476SOL    HW2 7448   2.052   2.845   3.630
 2477SOL     OW 7449   2.534   2.065   3.351
 2477SOL    HW1 7450   2.624   2.049   3.311
 2477SOL    HW2 7451   2.542   2.070   3.450
 2478SOL     OW 7452   1.937   2.207   1.895
 2478SOL    HW1 7453   1.845   2.179   1.866
 2478SOL    HW2 7454   1.968   2.284   1.839
 2479SOL     OW 7455   3.302   2.718   3.260
 2479SOL    HW1 7456   3.245   2.770   3.197
 2479SOL    HW2 7457   3.398   2.730   3.236
 2480SOL     OW 7458   1.934   2.028   2.180
 2480SOL    HW1 7459   1.917   2.111   2.126
 2480SOL    HW2 7460   2.024   1.991   2.158
 2481SOL     OW 7461   3.045   3.197   1.981
 2481SOL    HW1 7462   2.946   3.186   1.983
 2481SOL    HW2 7463   3.079   3.212   2.074
 2482SOL     OW 7464   2.475   2.704   3.293
 2482SOL    HW1 7465   2.531   2.785   3.276
 2482SOL    HW2 7466   2.534   2.624   3.296
 2483SOL     OW 7467   3.355   3.629   2.821
 2483SOL    HW1 7468   3.388   3.693   2.752
 2483SOL    HW2 7469   3.421   3.623   2.896
 2484SOL     OW 7470   2.578   2.427   3.570
 2484SOL    HW1 7471   2.597   2.492   3.644
 2484SOL    HW2 7472   2.638   2.347   3.579
 2485SOL     OW 7473   3.312   3.082   3.495
 2485SOL    HW1 7474   3.303   3.072   3.594
 2485SOL    HW2 7475   3.408   3.075   3.469
 2486SOL     OW 7476   2.252   3.603   3.422
 2486SOL    HW1 7477   2.161   3.644   3.420
 2486SOL    HW2 7478   2.245   3.509   3.454
 2487SOL     OW 7479   3.536   2.745   3.116
 2487SOL    HW1 7480   3.509   2.656   3.079
 2487SOL    HW2 7481   3.537   2.813   3.043
 2488SOL     OW 7482   3.087   2.187   2.311
 2488SOL    HW1 7483   3.152   2.113   2.300
 2488SOL    HW2 7484   3.107   2.237   2.395
 2489SOL     OW 7485   3.639   2.204   3.504
 2489SOL    HW1 7486   3.622   2.235   3.410
 2489SOL    HW2 7487   3.555   2.167   3.542
 2490SOL     OW 7488   3.592   2.796   3.379
 2490SOL    HW1 7489   3.630   2.887   3.394
 2490SOL    HW2 7490   3.584   2.779   3.280
 2491SOL     OW 7491   2.721   3.236   1.878
 2491SOL    HW1 7492   2.675   3.251   1.966
 2491SOL    HW2 7493   2.765   3.321   1.848
 2492SOL     OW 7494   2.523   3.652   2.815
 2492SOL    HW1 7495   2.477   3.740   2.802
 2492SOL    HW2 7496   2.622   3.664   2.808
 2493SOL     OW 7497   2.721   2.818   2.723
 2493SOL    HW1 7498   2.775   2.749   2.771
 2493SOL    HW2 7499   2.689   2.887   2.789
 2494SOL     OW 7500   2.945   2.846   1.949
 2494SOL    HW1 7501   2.922   2.899   1.867
 2494SOL    HW2 7502   3.026   2.790   1.930
 2495SOL     OW 7503   3.723   3.431   2.713
 2495SOL    HW1 7504   3.652   3.419   2.643
 2495SOL    HW2 7505   3.724   3.352   2.773
 2496SOL     OW 7506   2.083   3.176   3.706
 2496SOL    HW1 7507   2.018   3.103   3.685
 2496SOL    HW2 7508   2.087   3.190   3.804
 2497SOL     OW 7509   1.941   3.102   2.515
 2497SOL    HW1 7510   1.940   3.055   2.603
 2497SOL    HW2 7511   2.023   3.074   2.464
 2498SOL     OW 7512   2.534   3.253   3.486
 2498SOL    HW1 7513   2.456   3.203   3.524
 2498SOL    HW2 7514   2.531   3.348   3.517
 2499SOL     OW 7515   3.686   2.054   3.089
 2499SOL    HW1 7516   3.682   1.964   3.133
 2499SOL    HW2 7517   3.689   2.043   2.990
 2500SOL     OW 7518   2.290   2.286   2.382
 2500SOL    HW1 7519   2.320   2.214   2.320
 2500SOL    HW2 7520   2.251   2.246   2.465
 2501SOL     OW 7521   3.567   3.349   2.966
 2501SOL    HW1 7522   3.474   3.324   2.939
 2501SOL    HW2 7523   3.593   3.299   3.048
 2502SOL     OW 7524   2.179   2.409   3.142
 2502SOL    HW1 7525   2.217   2.350   3.214
 2502SOL    HW2 7526   2.219   2.383   3.054
 2503SOL     OW 7527   2.674   3.448   2.549
 2503SOL    HW1 7528   2.706   3.458   2.455
 2503SOL    HW2 7529   2.595   3.386   2.551
 2504SOL     OW 7530   3.286   2.076   2.974
 2504SOL    HW1 7531   3.338   2.011   3.029
 2504SOL    HW2 7532   3.237   2.139   3.035
 2505SOL     OW 7533   2.863   1.896   3.016
 2505SOL    HW1 7534   2.800   1.824   2.985
 2505SOL    HW2 7535   2.956   1.860   3.016
 2506SOL     OW 7536   2.632   3.192   2.163
 2506SOL    HW1 7537   2.586   3.105   2.180
 2506SOL    HW2 7538   2.723   3.189   2.204
 2507SOL     OW 7539   2.480   3.429   3.146
 2507SOL    HW1 7540   2.475   3.511   3.203
 2507SOL    HW2 7541   2.569   3.426   3.101
 2508SOL     OW 7542   3.214   1.914   2.030
 2508SOL    HW1 7543   3.249   1.873   1.946
 2508SOL    HW2 7544   3.124   1.876   2.050
 2509SOL     OW 7545   3.455   2.083   2.744
 2509SOL    HW1 7546   3.371   2.082   2.798
 2509SOL    HW2 7547   3.457   2.166   2.688
 2510SOL     OW 7548   1.901   2.939   2.162
 2510SOL    HW1 7549   2.000   2.928   2.153
 2510SOL    HW2 7550   1.861   2.853   2.194
 2511SOL     OW 7551   2.737   3.508   2.199
 2511SOL    HW1 7552   2.660   3.473   2.145
 2511SOL    HW2 7553   2.705   3.579   2.261
 2512SOL     OW 7554   2.092   2.490   3.837
 2512SOL    HW1 7555   1.999   2.488   3.874
 2512SOL    HW2 7556   2.093   2.451   3.745
 2513SOL     OW 7557   2.087   2.137   4.720
 2513SOL    HW1 7558   2.122   2.120   4.812
 2513SOL    HW2 7559   1.999   2.092   4.708
 2514SOL     OW 7560   1.881   2.230   4.371
 2514SOL    HW1 7561   1.799   2.273   4.410
 2514SOL    HW2 7562   1.853   2.157   4.308
 2515SOL     OW 7563   2.431   3.137   4.889
 2515SOL    HW1 7564   2.338   3.130   4.852
 2515SOL    HW2 7565   2.442   3.226   4.933
 2516SOL     OW 7566   3.417   3.373   4.427
 2516SOL    HW1 7567   3.360   3.357   4.508
 2516SOL    HW2 7568   3.358   3.383   4.347
 2517SOL     OW 7569   2.997   2.565   4.441
 2517SOL    HW1 7570   3.054   2.643   4.416
 2517SOL    HW2 7571   2.937   2.591   4.517
 2518SOL     OW 7572   3.617   2.469   3.955
 2518SOL    HW1 7573   3.605   2.456   3.856
 2518SOL    HW2 7574   3.587   2.388   4.004
 2519SOL     OW 7575   2.630   3.006   4.747
 2519SOL    HW1 7576   2.552   3.023   4.807
 2519SOL    HW2 7577   2.664   3.093   4.711
 2520SOL     OW 7578   2.547   2.874   4.389
 2520SOL    HW1 7579   2.616   2.858   4.459
 2520SOL    HW2 7580   2.474   2.931   4.427
 2521SOL     OW 7581   2.197   3.297   4.785
 2521SOL    HW1 7582   2.119   3.266   4.732
 2521SOL    HW2 7583   2.255   3.355   4.728
 2522SOL     OW 7584   3.465   2.309   4.461
 2522SOL    HW1 7585   3.391   2.355   4.411
 2522SOL    HW2 7586   3.516   2.377   4.514
 2523SOL     OW 7587   2.093   3.575   4.207
 2523SOL    HW1 7588   2.127   3.652   4.261
 2523SOL    HW2 7589   2.137   3.575   4.117
 2524SOL     OW 7590   2.092   3.296   4.262
 2524SOL    HW1 7591   2.066   3.392   4.262
 2524SOL    HW2 7592   2.021   3.242   4.307
 2525SOL     OW 7593   2.102   2.953   4.610
 2525SOL    HW1 7594   2.116   2.869   4.662
 2525SOL    HW2 7595   2.047   3.017   4.665
 2526SOL     OW 7596   2.468   2.826   3.847
 2526SOL    HW1 7597   2.475   2.910   3.793
 2526SOL    HW2 7598   2.514   2.839   3.935
 2527SOL     OW 7599   1.984   2.505   4.287
 2527SOL    HW1 7600   1.939   2.417   4.304
 2527SOL    HW2 7601   1.983   2.559   4.371
 2528SOL     OW 7602   3.704   3.629   4.083
 2528SOL    HW1 7603   3.758   3.600   4.163
 2528SOL    HW2 7604   3.734   3.719   4.054
 2529SOL     OW 7605   1.889   3.458   3.841
 2529SOL    HW1 7606   1.870   3.362   3.862
 2529SOL    HW2 7607   1.856   3.516   3.916
 2530SOL     OW 7608   3.551   2.784   4.336
 2530SOL    HW1 7609   3.646   2.755   4.344
 2530SOL    HW2 7610   3.543   2.849   4.261
 2531SOL     OW 7611   3.503   2.970   4.156
 2531SOL    HW1 7612   3.589   2.972   4.104
 2531SOL    HW2 7613   3.517   3.017   4.244
 2532SOL     OW 7614   2.475   3.227   4.450
 2532SOL    HW1 7615   2.426   3.140   4.459
 2532SOL    HW2 7616   2.452   3.270   4.363
 2533SOL     OW 7617   2.671   1.866   4.226
 2533SOL    HW1 7618   2.711   1.957   4.217
 2533SOL    HW2 7619   2.571   1.874   4.232
 2534SOL     OW 7620   2.059   2.838   4.988
 2534SOL    HW1 7621   2.148   2.793   4.974
 2534SOL    HW2 7622   1.986   2.773   4.969
 2535SOL     OW 7623   3.387   2.861   3.914
 2535SOL    HW1 7624   3.324   2.785   3.927
 2535SOL    HW2 7625   3.435   2.879   4.000
 2536SOL     OW 7626   3.328   3.279   4.677
 2536SOL    HW1 7627   3.269   3.285   4.757
 2536SOL    HW2 7628   3.313   3.191   4.631
 2537SOL     OW 7629   3.529   3.576   4.296
 2537SOL    HW1 7630   3.488   3.553   4.208
 2537SOL    HW2 7631   3.511   3.502   4.361
 2538SOL     OW 7632   2.460   2.591   3.994
 2538SOL    HW1 7633   2.484   2.660   3.926
 2538SOL    HW2 7634   2.382   2.624   4.048
 2539SOL     OW 7635   3.143   2.207   4.668
 2539SOL    HW1 7636   3.057   2.157   4.655
 2539SOL    HW2 7637   3.205   2.153   4.724
 2540SOL     OW 7638   3.438   3.524   4.031
 2540SOL    HW1 7639   3.527   3.570   4.034
 2540SOL    HW2 7640   3.417   3.500   3.936
 2541SOL     OW 7641   2.903   2.563   4.153
 2541SOL    HW1 7642   2.929   2.559   4.249
 2541SOL    HW2 7643   2.818   2.512   4.139
 2542SOL     OW 7644   1.938   2.673   4.513
 2542SOL    HW1 7645   2.037   2.661   4.522
 2542SOL    HW2 7646   1.914   2.768   4.534
 2543SOL     OW 7647   2.727   2.210   3.919
 2543SOL    HW1 7648   2.786   2.273   3.870
 2543SOL    HW2 7649   2.746   2.116   3.890
 2544SOL     OW 7650   3.224   3.006   4.269
 2544SOL    HW1 7651   3.307   2.977   4.221
 2544SOL    HW2 7652   3.175   3.073   4.213
 2545SOL     OW 7653   2.412   2.058   4.609
 2545SOL    HW1 7654   2.407   2.053   4.709
 2545SOL    HW2 7655   2.414   2.154   4.580
 2546SOL     OW 7656   2.870   3.318   4.201
 2546SOL    HW1 7657   2.824   3.390   4.149
 2546SOL    HW2 7658   2.866   3.338   4.299
 2547SOL     OW 7659   2.213   3.663   4.577
 2547SOL    HW1 7660   2.263   3.577   4.583
 2547SOL    HW2 7661   2.278   3.740   4.574
 2548SOL     OW 7662   3.657   2.928   4.597
 2548SOL    HW1 7663   3.595   2.913   4.521
 2548SOL    HW2 7664   3.605   2.939   4.682
 2549SOL     OW 7665   2.183   2.805   3.966
 2549SOL    HW1 7666   2.265   2.844   3.924
 2549SOL    HW2 7667   2.156   2.723   3.917
 2550SOL     OW 7668   3.320   2.597   4.452
 2550SOL    HW1 7669   3.315   2.532   4.527
 2550SOL    HW2 7670   3.400   2.656   4.465
 2551SOL     OW 7671   2.973   3.638   3.961
 2551SOL    HW1 7672   2.913   3.576   4.011
 2551SOL    HW2 7673   3.004   3.594   3.876
 2552SOL     OW 7674   3.494   3.239   3.805
 2552SOL    HW1 7675   3.462   3.333   3.795
 2552SOL    HW2 7676   3.418   3.176   3.793
 2553SOL     OW 7677   2.326   3.605   4.047
 2553SOL    HW1 7678   2.359   3.644   4.133
 2553SOL    HW2 7679   2.402   3.598   3.982
 2554SOL     OW 7680   3.262   1.969   4.150
 2554SOL    HW1 7681   3.238   1.932   4.060
 2554SOL    HW2 7682   3.361   1.985   4.154
 2555SOL     OW 7683   2.111   3.647   4.965
 2555SOL    HW1 7684   2.168   3.582   5.015
 2555SOL    HW2 7685   2.095   3.614   4.872
 2556SOL     OW 7686   2.802   3.560   4.628
 2556SOL    HW1 7687   2.882   3.503   4.649
 2556SOL    HW2 7688   2.753   3.520   4.551
 2557SOL     OW 7689   2.244   2.562   4.204
 2557SOL    HW1 7690   2.289   2.472   4.201
 2557SOL    HW2 7691   2.150   2.551   4.237
 2558SOL     OW 7692   2.476   1.984   3.841
 2558SOL    HW1 7693   2.574   1.962   3.848
 2558SOL    HW2 7694   2.445   1.967   3.748
 2559SOL     OW 7695   2.665   3.264   4.648
 2559SOL    HW1 7696   2.755   3.278   4.606
 2559SOL    HW2 7697   2.594   3.266   4.577
 2560SOL     OW 7698   2.784   2.365   4.623
 2560SOL    HW1 7699   2.759   2.356   4.527
 2560SOL    HW2 7700   2.832   2.283   4.654
 2561SOL     OW 7701   2.401   1.926   4.236
 2561SOL    HW1 7702   2.320   1.927   4.294
 2561SOL    HW2 7703   2.404   2.009   4.181
 2562SOL     OW 7704   3.296   3.050   3.765
 2562SOL    HW1 7705   3.328   2.974   3.822
 2562SOL    HW2 7706   3.204   3.077   3.795
 2563SOL     OW 7707   2.159   1.897   3.895
 2563SOL    HW1 7708   2.208   1.981   3.874
 2563SOL    HW2 7709   2.221   1.832   3.940
 2564SOL     OW 7710   2.797   2.098   4.204
 2564SOL    HW1 7711   2.749   2.139   4.126
 2564SOL    HW2 7712   2.896   2.096   4.185
 2565SOL     OW 7713   3.089   3.432   4.517
 2565SOL    HW1 7714   3.110   3.506   4.452
 2565SOL    HW2 7715   3.157   3.432   4.590
 2566SOL     OW 7716   2.321   3.014   4.465
 2566SOL    HW1 7717   2.250   2.987   4.530
 2566SOL    HW2 7718   2.295   2.986   4.372
 2567SOL     OW 7719   3.133   3.659   4.315
 2567SOL    HW1 7720   3.177   3.723   4.251
 2567SOL    HW2 7721   3.083   3.711   4.385
 2568SOL     OW 7722   2.894   2.411   3.740
 2568SOL    HW1 7723   2.853   2.493   3.701
 2568SOL    HW2 7724   2.958   2.437   3.813
 2569SOL     OW 7725   2.728   2.316   4.366
 2569SOL    HW1 7726   2.696   2.388   4.304
 2569SOL    HW2 7727   2.752   2.235   4.313
 2570SOL     OW 7728   2.879   1.901   4.477
 2570SOL    HW1 7729   2.807   1.906   4.408
 2570SOL    HW2 7730   2.855   1.832   4.546
 2571SOL     OW 7731   3.291   3.035   4.591
 2571SOL    HW1 7732   3.236   2.951   4.584
 2571SOL    HW2 7733   3.317   3.064   4.499
 2572SOL     OW 7734   3.328   2.452   4.716
 2572SOL    HW1 7735   3.298   2.357   4.723
 2572SOL    HW2 7736   3.401   2.468   4.782
 2573SOL     OW 7737   3.719   2.695   4.101
 2573SOL    HW1 7738   3.761   2.631   4.165
 2573SOL    HW2 7739   3.681   2.644   4.023
 2574SOL     OW 7740   2.350   3.247   3.898
 2574SOL    HW1 7741   2.263   3.232   3.945
 2574SOL    HW2 7742   2.333   3.273   3.803
 2575SOL     OW 7743   3.526   3.142   4.381
 2575SOL    HW1 7744   3.625   3.150   4.395
 2575SOL    HW2 7745   3.481   3.226   4.412
 2576SOL     OW 7746   3.252   2.437   3.802
 2576SOL    HW1 7747   3.198   2.416   3.883
 2576SOL    HW2 7748   3.343   2.396   3.811
 2577SOL     OW 7749   2.389   2.118   4.052
 2577SOL    HW1 7750   2.416   2.059   3.977
 2577SOL    HW2 7751   2.389   2.213   4.021
 2578SOL     OW 7752   2.973   3.057   4.824
 2578SOL    HW1 7753   2.933   3.101   4.905
 2578SOL    HW2 7754   2.932   3.094   4.741
 2579SOL     OW 7755   3.500   2.961   4.803
 2579SOL    HW1 7756   3.505   3.042   4.862
 2579SOL    HW2 7757   3.414   2.963   4.752
 2580SOL     OW 7758   2.567   2.912   4.092
 2580SOL    HW1 7759   2.553   2.919   4.191
 2580SOL    HW2 7760   2.651   2.861   4.074
 2581SOL     OW 7761   2.272   2.675   4.975
 2581SOL    HW1 7762   2.358   2.687   5.025
 2581SOL    HW2 7763   2.230   2.588   5.002
 2582SOL     OW 7764   2.229   2.962   4.225
 2582SOL    HW1 7765   2.222   3.045   4.169
 2582SOL    HW2 7766   2.233   2.882   4.165
 2583SOL     OW 7767   2.428   2.399   4.589
 2583SOL    HW1 7768   2.440   2.465   4.515
 2583SOL    HW2 7769   2.474   2.433   4.672
 2584SOL     OW 7770   3.114   3.210   4.112
 2584SOL    HW1 7771   3.164   3.287   4.152
 2584SOL    HW2 7772   3.019   3.212   4.144
 2585SOL     OW 7773   3.134   3.307   4.866
 2585SOL    HW1 7774   3.181   3.320   4.953
 2585SOL    HW2 7775   3.068   3.233   4.875
 2586SOL     OW 7776   3.444   2.501   4.196
 2586SOL    HW1 7777   3.413   2.562   4.269
 2586SOL    HW2 7778   3.494   2.553   4.127
 2587SOL     OW 7779   2.435   2.732   4.753
 2587SOL    HW1 7780   2.479   2.821   4.744
 2587SOL    HW2 7781   2.372   2.732   4.830
 2588SOL     OW 7782   3.222   2.724   4.769
 2588SOL    HW1 7783   3.147   2.724   4.703
 2588SOL    HW2 7784   3.259   2.632   4.778
 2589SOL     OW 7785   3.071   2.387   3.999
 2589SOL    HW1 7786   3.084   2.303   4.053
 2589SOL    HW2 7787   3.042   2.461   4.059
 2590SOL     OW 7788   2.169   2.075   4.955
 2590SOL    HW1 7789   2.146   2.112   5.045
 2590SOL    HW2 7790   2.139   1.980   4.949
 2591SOL     OW 7791   1.899   3.172   5.006
 2591SOL    HW1 7792   1.952   3.123   5.074
 2591SOL    HW2 7793   1.921   3.270   5.011
 2592SOL     OW 7794   2.594   2.496   4.788
 2592SOL    HW1 7795   2.653   2.470   4.712
 2592SOL    HW2 7796   2.566   2.592   4.777
 2593SOL     OW 7797   2.169   1.925   4.342
 2593SOL    HW1 7798   2.158   2.019   4.375
 2593SOL    HW2 7799   2.164   1.862   4.419
 2594SOL     OW 7800   3.484   2.229   4.098
 2594SOL    HW1 7801   3.486   2.153   4.162
 2594SOL    HW2 7802   3.436   2.306   4.138
 2595SOL     OW 7803   2.885   2.628   4.690
 2595SOL    HW1 7804   2.900   2.649   4.786
 2595SOL    HW2 7805   2.855   2.533   4.681
 2596SOL     OW 7806   3.402   2.136   3.849
 2596SOL    HW1 7807   3.341   2.061   3.872
 2596SOL    HW2 7808   3.424   2.188   3.932
 2597SOL     OW 7809   3.165   2.700   3.766
 2597SOL    HW1 7810   3.199   2.607   3.781
 2597SOL    HW2 7811   3.183   2.727   3.671
 2598SOL     OW 7812   2.930   3.195   4.573
 2598SOL    HW1 7813   2.937   3.111   4.518
 2598SOL    HW2 7814   2.992   3.264   4.537
 2599SOL     OW 7815   2.181   2.672   4.673
 2599SOL    HW1 7816   2.274   2.708   4.678
 2599SOL    HW2 7817   2.175   2.587   4.725
 2600SOL     OW 7818   2.201   2.371   4.730
 2600SOL    HW1 7819   2.149   2.288   4.713
 2600SOL    HW2 7820   2.278   2.376   4.666
 2601SOL     OW 7821   3.022   2.069   5.201
 2601SOL    HW1 7822   3.022   2.133   5.278
 2601SOL    HW2 7823   3.050   2.117   5.118
 2602SOL     OW 7824   1.870   3.188   3.924
 2602SOL    HW1 7825   1.777   3.209   3.893
 2602SOL    HW2 7826   1.880   3.089   3.937
 2603SOL     OW 7827   1.950   3.663   4.651
 2603SOL    HW1 7828   1.908   3.577   4.624
 2603SOL    HW2 7829   2.044   3.666   4.617
 2604SOL     OW 7830   2.366   3.430   4.634
 2604SOL    HW1 7831   2.432   3.504   4.643
 2604SOL    HW2 7832   2.410   3.351   4.592
 2605SOL     OW 7833   2.864   2.658   4.962
 2605SOL    HW1 7834   2.905   2.626   5.048
 2605SOL    HW2 7835   2.768   2.631   4.959
 2606SOL     OW 7836   1.902   2.406   4.838
 2606SOL    HW1 7837   1.987   2.373   4.797
 2606SOL    HW2 7838   1.915   2.421   4.936
 2607SOL     OW 7839   2.677   2.434   4.049
 2607SOL    HW1 7840   2.684   2.345   4.003
 2607SOL    HW2 7841   2.583   2.468   4.041
 2608SOL     OW 7842   3.519   2.466   4.930
 2608SOL    HW1 7843   3.481   2.397   4.992
 2608SOL    HW2 7844   3.601   2.430   4.886
 2609SOL     OW 7845   2.533   2.326   4.993
 2609SOL    HW1 7846   2.499   2.237   4.963
 2609SOL    HW2 7847   2.559   2.380   4.913
 2610SOL     OW 7848   2.335   2.362   3.915
 2610SOL    HW1 7849   2.396   2.442   3.919
 2610SOL    HW2 7850   2.240   2.393   3.922
 2611SOL     OW 7851   2.021   2.999   5.190
 2611SOL    HW1 7852   2.043   2.938   5.266
 2611SOL    HW2 7853   2.031   2.950   5.104
 2612SOL     OW 7854   3.209   2.921   4.958
 2612SOL    HW1 7855   3.233   2.858   4.884
 2612SOL    HW2 7856   3.119   2.961   4.940
 2613SOL     OW 7857   3.164   2.717   4.033
 2613SOL    HW1 7858   3.078   2.686   4.075
 2613SOL    HW2 7859   3.160   2.703   3.934
 2614SOL     OW 7860   3.621   3.609   4.878
 2614SOL    HW1 7861   3.682   3.639   4.805
 2614SOL    HW2 7862   3.583   3.520   4.856
 2615SOL     OW 7863   1.945   3.120   4.746
 2615SOL    HW1 7864   1.940   3.119   4.846
 2615SOL    HW2 7865   1.862   3.079   4.708
 2616SOL     OW 7866   3.588   1.997   4.247
 2616SOL    HW1 7867   3.661   1.980   4.180
 2616SOL    HW2 7868   3.557   1.910   4.285
 2617SOL     OW 7869   3.250   3.435   4.201
 2617SOL    HW1 7870   3.317   3.447   4.127
 2617SOL    HW2 7871   3.210   3.524   4.224
 2618SOL     OW 7872   3.142   2.789   4.396
 2618SOL    HW1 7873   3.202   2.708   4.398
 2618SOL    HW2 7874   3.182   2.858   4.336
 2619SOL     OW 7875   2.534   3.478   3.878
 2619SOL    HW1 7876   2.543   3.488   3.779
 2619SOL    HW2 7877   2.494   3.389   3.899
 2620SOL     OW 7878   3.512   3.582   5.118
 2620SOL    HW1 7879   3.565   3.592   5.034
 2620SOL    HW2 7880   3.485   3.672   5.152
 2621SOL     OW 7881   3.703   2.037   4.687
 2621SOL    HW1 7882   3.742   1.952   4.651
 2621SOL    HW2 7883   3.605   2.039   4.668
 2622SOL     OW 7884   2.125   2.188   4.444
 2622SOL    HW1 7885   2.046   2.239   4.410
 2622SOL    HW2 7886   2.116   2.173   4.542
 2623SOL     OW 7887   3.056   3.474   3.755
 2623SOL    HW1 7888   3.062   3.381   3.792
 2623SOL    HW2 7889   2.997   3.474   3.675
 2624SOL     OW 7890   2.684   2.864   5.096
 2624SOL    HW1 7891   2.724   2.863   5.004
 2624SOL    HW2 7892   2.694   2.956   5.136
 2625SOL     OW 7893   2.778   2.772   4.015
 2625SOL    HW1 7894   2.841   2.810   3.947
 2625SOL    HW2 7895   2.818   2.689   4.054
 2626SOL     OW 7896   3.366   3.469   3.768
 2626SOL    HW1 7897   3.274   3.506   3.775
 2626SOL    HW2 7898   3.404   3.489   3.678
 2627SOL     OW 7899   2.901   2.960   4.420
 2627SOL    HW1 7900   2.831   2.913   4.474
 2627SOL    HW2 7901   2.960   2.892   4.377
 2628SOL     OW 7902   2.876   2.098   4.695
 2628SOL    HW1 7903   2.868   2.062   4.602
 2628SOL    HW2 7904   2.874   2.022   4.760
 2629SOL     OW 7905   2.452   3.349   4.215
 2629SOL    HW1 7906   2.494   3.291   4.145
 2629SOL    HW2 7907   2.408   3.428   4.171
 2630SOL     OW 7908   3.571   2.247   5.105
 2630SOL    HW1 7909   3.644   2.316   5.109
 2630SOL    HW2 7910   3.599   2.172   5.046
 2631SOL     OW 7911   2.117   3.210   4.014
 2631SOL    HW1 7912   2.021   3.211   3.987
 2631SOL    HW2 7913   2.129   3.263   4.098
 2632SOL     OW 7914   1.937   2.207   3.757
 2632SOL    HW1 7915   1.845   2.179   3.728
 2632SOL    HW2 7916   1.968   2.284   3.701
 2633SOL     OW 7917   1.934   2.028   4.042
 2633SOL    HW1 7918   1.917   2.111   3.988
 2633SOL    HW2 7919   2.024   1.991   4.020
 2634SOL     OW 7920   3.045   3.197   3.843
 2634SOL    HW1 7921   2.946   3.186   3.845
 2634SOL    HW2 7922   3.079   3.212   3.936
 2635SOL     OW 7923   3.355   3.629   4.683
 2635SOL    HW1 7924   3.388   3.693   4.614
 2635SOL    HW2 7925   3.421   3.623   4.758
 2636SOL     OW 7926   3.536   2.745   4.978
 2636SOL    HW1 7927   3.509   2.656   4.941
 2636SOL    HW2 7928   3.537   2.813   4.905
 2637SOL     OW 7929   3.087   2.187   4.173
 2637SOL    HW1 7930   3.152   2.113   4.162
 2637SOL    HW2 7931   3.107   2.237   4.257
 2638SOL     OW 7932   2.456   2.607   4.376
 2638SOL    HW1 7933   2.506   2.692   4.357
 2638SOL    HW2 7934   2.368   2.609   4.328
 2639SOL     OW 7935   3.592   2.796   5.241
 2639SOL    HW1 7936   3.630   2.887   5.256
 2639SOL    HW2 7937   3.584   2.779   5.142
 2640SOL     OW 7938   2.721   3.236   3.740
 2640SOL    HW1 7939   2.675   3.251   3.828
 2640SOL    HW2 7940   2.765   3.321   3.710
 2641SOL     OW 7941   2.523   3.652   4.677
 2641SOL    HW1 7942   2.477   3.740   4.664
 2641SOL    HW2 7943   2.622   3.664   4.670
 2642SOL     OW 7944   2.721   2.818   4.585
 2642SOL    HW1 7945   2.775   2.749   4.633
 2642SOL    HW2 7946   2.689   2.887   4.651
 2643SOL     OW 7947   2.945   2.846   3.811
 2643SOL    HW1 7948   2.922   2.899   3.729
 2643SOL    HW2 7949   3.026   2.790   3.792
 2644SOL     OW 7950   3.723   3.431   4.575
 2644SOL    HW1 7951   3.652   3.419   4.505
 2644SOL    HW2 7952   3.724   3.352   4.635
 2645SOL     OW 7953   1.941   3.102   4.377
 2645SOL    HW1 7954   1.940   3.055   4.465
 2645SOL    HW2 7955   2.023   3.074   4.326
 2646SOL     OW 7956   3.686   2.054   4.951
 2646SOL    HW1 7957   3.682   1.964   4.995
 2646SOL    HW2 7958   3.689   2.043   4.852
 2647SOL     OW 7959   2.290   2.286   4.244
 2647SOL    HW1 7960   2.320   2.214   4.182
 2647SOL    HW2 7961   2.251   2.246   4.327
 2648SOL     OW 7962   3.567   3.349   4.828
 2648SOL    HW1 7963   3.474   3.324   4.801
 2648SOL    HW2 7964   3.593   3.299   4.910
 2649SOL     OW 7965   2.674   3.448   4.411
 2649SOL    HW1 7966   2.706   3.458   4.317
 2649SOL    HW2 7967   2.595   3.386   4.413
 2650SOL     OW 7968   3.286   2.076   4.836
 2650SOL    HW1 7969   3.338   2.011   4.891
 2650SOL    HW2 7970   3.237   2.139   4.897
 2651SOL     OW 7971   2.863   1.896   4.878
 2651SOL    HW1 7972   2.800   1.824   4.847
 2651SOL    HW2 7973   2.956   1.860   4.878
 2652SOL     OW 7974   2.632   3.192   4.025
 2652SOL    HW1 7975   2.586   3.105   4.042
 2652SOL    HW2 7976   2.723   3.189   4.066
 2653SOL     OW 7977   3.214   1.914   3.892
 2653SOL    HW1 7978   3.249   1.873   3.808
 2653SOL    HW2 7979   3.124   1.876   3.912
 2654SOL     OW 7980   3.162   2.315   4.415
 2654SOL    HW1 7981   3.103   2.395   4.419
 2654SOL    HW2 7982   3.177   2.280   4.508
 2655SOL     OW 7983   3.455   2.083   4.606
 2655SOL    HW1 7984   3.371   2.082   4.660
 2655SOL    HW2 7985   3.457   2.166   4.550
 2656SOL     OW 7986   1.901   2.939   4.024
 2656SOL    HW1 7987   2.000   2.928   4.015
 2656SOL    HW2 7988   1.861   2.853   4.056
 2657SOL     OW 7989   2.737   3.508   4.061
 2657SOL    HW1 7990   2.660   3.473   4.007
 2657SOL    HW2 7991   2.705   3.579   4.123
 2658SOL     OW 7992   2.092   4.352   0.113
 2658SOL    HW1 7993   1.999   4.350   0.150
 2658SOL    HW2 7994   2.093   4.313   0.021
 2659SOL     OW 7995   2.087   3.999   0.996
 2659SOL    HW1 7996   2.122   3.982   1.088
 2659SOL    HW2 7997   1.999   3.954   0.984
 2660SOL     OW 7998   1.881   4.092   0.647
 2660SOL    HW1 7999   1.799   4.135   0.686
 2660SOL    HW2 8000   1.853   4.019   0.584
 2661SOL     OW 8001   2.997   4.427   0.717
 2661SOL    HW1 8002   3.054   4.505   0.692
 2661SOL    HW2 8003   2.937   4.453   0.793
 2662SOL     OW 8004   3.617   4.331   0.231
 2662SOL    HW1 8005   3.605   4.318   0.132
 2662SOL    HW2 8006   3.587   4.250   0.280
 2663SOL     OW 8007   2.630   4.868   1.023
 2663SOL    HW1 8008   2.552   4.885   1.083
 2663SOL    HW2 8009   2.664   4.955   0.987
 2664SOL     OW 8010   2.712   4.522   1.823
 2664SOL    HW1 8011   2.708   4.598   1.888
 2664SOL    HW2 8012   2.734   4.558   1.732
 2665SOL     OW 8013   2.547   4.736   0.665
 2665SOL    HW1 8014   2.616   4.720   0.735
 2665SOL    HW2 8015   2.474   4.793   0.703
 2666SOL     OW 8016   2.548   4.885   1.803
 2666SOL    HW1 8017   2.608   4.964   1.817
 2666SOL    HW2 8018   2.462   4.916   1.762
 2667SOL     OW 8019   2.300   4.116   1.499
 2667SOL    HW1 8020   2.382   4.060   1.508
 2667SOL    HW2 8021   2.219   4.058   1.503
 2668SOL     OW 8022   3.465   4.171   0.737
 2668SOL    HW1 8023   3.391   4.217   0.687
 2668SOL    HW2 8024   3.516   4.239   0.790
 2669SOL     OW 8025   2.102   4.815   0.886
 2669SOL    HW1 8026   2.116   4.731   0.938
 2669SOL    HW2 8027   2.047   4.879   0.941
 2670SOL     OW 8028   2.468   4.688   0.123
 2670SOL    HW1 8029   2.475   4.772   0.069
 2670SOL    HW2 8030   2.514   4.701   0.211
 2671SOL     OW 8031   3.456   3.838   1.480
 2671SOL    HW1 8032   3.438   3.905   1.408
 2671SOL    HW2 8033   3.453   3.884   1.569
 2672SOL     OW 8034   1.984   4.367   0.563
 2672SOL    HW1 8035   1.939   4.279   0.580
 2672SOL    HW2 8036   1.983   4.421   0.647
 2673SOL     OW 8037   1.889   5.320   0.117
 2673SOL    HW1 8038   1.870   5.224   0.138
 2673SOL    HW2 8039   1.856   5.378   0.192
 2674SOL     OW 8040   3.551   4.646   0.612
 2674SOL    HW1 8041   3.646   4.617   0.620
 2674SOL    HW2 8042   3.543   4.711   0.537
 2675SOL     OW 8043   3.503   4.832   0.432
 2675SOL    HW1 8044   3.589   4.834   0.380
 2675SOL    HW2 8045   3.517   4.879   0.520
 2676SOL     OW 8046   1.975   4.461   1.597
 2676SOL    HW1 8047   2.063   4.448   1.642
 2676SOL    HW2 8048   1.962   4.558   1.575
 2677SOL     OW 8049   3.155   4.952   1.423
 2677SOL    HW1 8050   3.192   4.879   1.365
 2677SOL    HW2 8051   3.207   4.957   1.508
 2678SOL     OW 8052   2.671   3.728   0.502
 2678SOL    HW1 8053   2.711   3.819   0.493
 2678SOL    HW2 8054   2.571   3.736   0.508
 2679SOL     OW 8055   2.059   4.700   1.264
 2679SOL    HW1 8056   2.148   4.655   1.250
 2679SOL    HW2 8057   1.986   4.635   1.245
 2680SOL     OW 8058   3.387   4.723   0.190
 2680SOL    HW1 8059   3.324   4.647   0.203
 2680SOL    HW2 8060   3.435   4.741   0.276
 2681SOL     OW 8061   2.179   3.975   1.801
 2681SOL    HW1 8062   2.250   4.046   1.807
 2681SOL    HW2 8063   2.091   4.014   1.829
 2682SOL     OW 8064   2.460   4.453   0.270
 2682SOL    HW1 8065   2.484   4.522   0.202
 2682SOL    HW2 8066   2.382   4.486   0.324
 2683SOL     OW 8067   3.143   4.069   0.944
 2683SOL    HW1 8068   3.057   4.019   0.931
 2683SOL    HW2 8069   3.205   4.015   1.000
 2684SOL     OW 8070   2.669   4.329   1.465
 2684SOL    HW1 8071   2.622   4.326   1.554
 2684SOL    HW2 8072   2.618   4.274   1.399
 2685SOL     OW 8073   3.256   4.193   1.674
 2685SOL    HW1 8074   3.236   4.236   1.762
 2685SOL    HW2 8075   3.334   4.131   1.683
 2686SOL     OW 8076   2.835   4.614   1.572
 2686SOL    HW1 8077   2.881   4.530   1.543
 2686SOL    HW2 8078   2.779   4.648   1.497
 2687SOL     OW 8079   2.853   4.134   1.242
 2687SOL    HW1 8080   2.776   4.168   1.296
 2687SOL    HW2 8081   2.819   4.083   1.163
 2688SOL     OW 8082   2.903   4.425   0.429
 2688SOL    HW1 8083   2.929   4.421   0.525
 2688SOL    HW2 8084   2.818   4.374   0.415
 2689SOL     OW 8085   1.938   4.535   0.789
 2689SOL    HW1 8086   2.037   4.523   0.798
 2689SOL    HW2 8087   1.914   4.630   0.810
 2690SOL     OW 8088   2.727   4.072   0.195
 2690SOL    HW1 8089   2.786   4.135   0.146
 2690SOL    HW2 8090   2.746   3.978   0.166
 2691SOL     OW 8091   3.581   4.309   1.831
 2691SOL    HW1 8092   3.555   4.398   1.795
 2691SOL    HW2 8093   3.579   4.241   1.758
 2692SOL     OW 8094   3.224   4.868   0.545
 2692SOL    HW1 8095   3.307   4.839   0.497
 2692SOL    HW2 8096   3.175   4.935   0.489
 2693SOL     OW 8097   2.412   3.920   0.885
 2693SOL    HW1 8098   2.407   3.915   0.985
 2693SOL    HW2 8099   2.414   4.016   0.856
 2694SOL     OW 8100   3.657   4.790   0.873
 2694SOL    HW1 8101   3.595   4.775   0.797
 2694SOL    HW2 8102   3.605   4.801   0.958
 2695SOL     OW 8103   2.183   4.667   0.242
 2695SOL    HW1 8104   2.265   4.706   0.200
 2695SOL    HW2 8105   2.156   4.585   0.193
 2696SOL     OW 8106   3.320   4.459   0.728
 2696SOL    HW1 8107   3.315   4.394   0.803
 2696SOL    HW2 8108   3.400   4.518   0.741
 2697SOL     OW 8109   2.064   4.009   1.498
 2697SOL    HW1 8110   1.984   4.069   1.485
 2697SOL    HW2 8111   2.054   3.960   1.584
 2698SOL     OW 8112   3.262   3.831   0.426
 2698SOL    HW1 8113   3.238   3.794   0.336
 2698SOL    HW2 8114   3.361   3.847   0.430
 2699SOL     OW 8115   2.244   4.424   0.480
 2699SOL    HW1 8116   2.289   4.334   0.477
 2699SOL    HW2 8117   2.150   4.413   0.513
 2700SOL     OW 8118   3.409   3.946   1.729
 2700SOL    HW1 8119   3.404   3.983   1.821
 2700SOL    HW2 8120   3.337   3.877   1.717
 2701SOL     OW 8121   2.476   3.846   0.117
 2701SOL    HW1 8122   2.574   3.824   0.124
 2701SOL    HW2 8123   2.445   3.829   0.024
 2702SOL     OW 8124   2.643   3.988   1.749
 2702SOL    HW1 8125   2.710   3.927   1.792
 2702SOL    HW2 8126   2.570   4.007   1.814
 2703SOL     OW 8127   3.213   4.314   1.433
 2703SOL    HW1 8128   3.241   4.271   1.518
 2703SOL    HW2 8129   3.238   4.410   1.434
 2704SOL     OW 8130   2.784   4.227   0.899
 2704SOL    HW1 8131   2.759   4.218   0.803
 2704SOL    HW2 8132   2.832   4.145   0.930
 2705SOL     OW 8133   2.401   3.788   0.512
 2705SOL    HW1 8134   2.320   3.789   0.570
 2705SOL    HW2 8135   2.404   3.871   0.457
 2706SOL     OW 8136   2.159   3.759   0.171
 2706SOL    HW1 8137   2.208   3.843   0.150
 2706SOL    HW2 8138   2.221   3.694   0.216
 2707SOL     OW 8139   2.797   3.960   0.480
 2707SOL    HW1 8140   2.749   4.001   0.402
 2707SOL    HW2 8141   2.896   3.958   0.461
 2708SOL     OW 8142   2.938   4.407   1.464
 2708SOL    HW1 8143   2.858   4.346   1.467
 2708SOL    HW2 8144   3.019   4.354   1.440
 2709SOL     OW 8145   2.321   4.876   0.741
 2709SOL    HW1 8146   2.250   4.849   0.806
 2709SOL    HW2 8147   2.295   4.848   0.648
 2710SOL     OW 8148   2.894   4.273   0.016
 2710SOL    HW1 8149   2.853   4.355  -0.023
 2710SOL    HW2 8150   2.958   4.299   0.089
 2711SOL     OW 8151   1.940   4.280   1.386
 2711SOL    HW1 8152   2.032   4.279   1.345
 2711SOL    HW2 8153   1.934   4.354   1.453
 2712SOL     OW 8154   2.423   3.946   1.147
 2712SOL    HW1 8155   2.461   3.862   1.184
 2712SOL    HW2 8156   2.335   3.965   1.191
 2713SOL     OW 8157   2.728   4.178   0.642
 2713SOL    HW1 8158   2.696   4.250   0.580
 2713SOL    HW2 8159   2.752   4.097   0.589
 2714SOL     OW 8160   2.879   3.763   0.753
 2714SOL    HW1 8161   2.807   3.768   0.684
 2714SOL    HW2 8162   2.855   3.694   0.822
 2715SOL     OW 8163   3.291   4.897   0.867
 2715SOL    HW1 8164   3.236   4.813   0.860
 2715SOL    HW2 8165   3.317   4.926   0.775
 2716SOL     OW 8166   3.328   4.314   0.992
 2716SOL    HW1 8167   3.298   4.219   0.999
 2716SOL    HW2 8168   3.401   4.330   1.058
 2717SOL     OW 8169   3.719   4.557   0.377
 2717SOL    HW1 8170   3.761   4.493   0.441
 2717SOL    HW2 8171   3.681   4.506   0.299
 2718SOL     OW 8172   3.252   4.299   0.078
 2718SOL    HW1 8173   3.198   4.278   0.159
 2718SOL    HW2 8174   3.343   4.258   0.087
 2719SOL     OW 8175   2.389   3.980   0.328
 2719SOL    HW1 8176   2.416   3.921   0.253
 2719SOL    HW2 8177   2.389   4.075   0.297
 2720SOL     OW 8178   3.616   4.947   1.588
 2720SOL    HW1 8179   3.707   4.908   1.575
 2720SOL    HW2 8180   3.624   5.043   1.612
 2721SOL     OW 8181   3.500   4.823   1.079
 2721SOL    HW1 8182   3.505   4.904   1.138
 2721SOL    HW2 8183   3.414   4.825   1.028
 2722SOL     OW 8184   2.777   3.813   1.402
 2722SOL    HW1 8185   2.802   3.793   1.307
 2722SOL    HW2 8186   2.849   3.869   1.444
 2723SOL     OW 8187   2.842   4.840   1.719
 2723SOL    HW1 8188   2.743   4.846   1.729
 2723SOL    HW2 8189   2.865   4.760   1.663
 2724SOL     OW 8190   2.567   4.774   0.368
 2724SOL    HW1 8191   2.553   4.781   0.467
 2724SOL    HW2 8192   2.651   4.723   0.350
 2725SOL     OW 8193   2.272   4.537   1.251
 2725SOL    HW1 8194   2.358   4.549   1.301
 2725SOL    HW2 8195   2.230   4.450   1.278
 2726SOL     OW 8196   3.136   4.110   1.262
 2726SOL    HW1 8197   3.157   4.184   1.326
 2726SOL    HW2 8198   3.047   4.127   1.219
 2727SOL     OW 8199   2.229   4.824   0.501
 2727SOL    HW1 8200   2.222   4.907   0.445
 2727SOL    HW2 8201   2.233   4.744   0.441
 2728SOL     OW 8202   2.428   4.261   0.865
 2728SOL    HW1 8203   2.440   4.327   0.791
 2728SOL    HW2 8204   2.474   4.295   0.948
 2729SOL     OW 8205   3.444   4.363   0.472
 2729SOL    HW1 8206   3.413   4.424   0.545
 2729SOL    HW2 8207   3.494   4.415   0.403
 2730SOL     OW 8208   2.264   4.475   1.598
 2730SOL    HW1 8209   2.332   4.530   1.551
 2730SOL    HW2 8210   2.304   4.387   1.625
 2731SOL     OW 8211   3.449   4.503   1.670
 2731SOL    HW1 8212   3.357   4.541   1.665
 2731SOL    HW2 8213   3.509   4.550   1.605
 2732SOL     OW 8214   2.875   3.829   1.770
 2732SOL    HW1 8215   2.881   3.914   1.718
 2732SOL    HW2 8216   2.907   3.753   1.713
 2733SOL     OW 8217   2.366   3.774   1.740
 2733SOL    HW1 8218   2.324   3.717   1.670
 2733SOL    HW2 8219   2.300   3.843   1.772
 2734SOL     OW 8220   2.435   4.594   1.029
 2734SOL    HW1 8221   2.479   4.683   1.020
 2734SOL    HW2 8222   2.372   4.594   1.106
 2735SOL     OW 8223   3.222   4.586   1.045
 2735SOL    HW1 8224   3.147   4.586   0.979
 2735SOL    HW2 8225   3.259   4.494   1.054
 2736SOL     OW 8226   3.071   4.249   0.275
 2736SOL    HW1 8227   3.084   4.165   0.329
 2736SOL    HW2 8228   3.042   4.323   0.335
 2737SOL     OW 8229   2.169   3.937   1.231
 2737SOL    HW1 8230   2.146   3.974   1.321
 2737SOL    HW2 8231   2.139   3.842   1.225
 2738SOL     OW 8232   2.594   4.358   1.064
 2738SOL    HW1 8233   2.653   4.332   0.988
 2738SOL    HW2 8234   2.566   4.454   1.053
 2739SOL     OW 8235   3.590   4.659   1.854
 2739SOL    HW1 8236   3.544   4.652   1.765
 2739SOL    HW2 8237   3.528   4.703   1.920
 2740SOL     OW 8238   2.169   3.787   0.618
 2740SOL    HW1 8239   2.158   3.881   0.651
 2740SOL    HW2 8240   2.164   3.724   0.695
 2741SOL     OW 8241   3.484   4.091   0.374
 2741SOL    HW1 8242   3.486   4.015   0.438
 2741SOL    HW2 8243   3.436   4.168   0.414
 2742SOL     OW 8244   2.885   4.490   0.966
 2742SOL    HW1 8245   2.900   4.511   1.062
 2742SOL    HW2 8246   2.855   4.395   0.957
 2743SOL     OW 8247   2.212   4.622   1.804
 2743SOL    HW1 8248   2.288   4.666   1.852
 2743SOL    HW2 8249   2.247   4.575   1.722
 2744SOL     OW 8250   3.402   3.998   0.125
 2744SOL    HW1 8251   3.341   3.923   0.148
 2744SOL    HW2 8252   3.424   4.050   0.208
 2745SOL     OW 8253   3.165   4.562   0.042
 2745SOL    HW1 8254   3.199   4.469   0.057
 2745SOL    HW2 8255   3.183   4.589  -0.053
 2746SOL     OW 8256   2.181   4.534   0.949
 2746SOL    HW1 8257   2.274   4.570   0.954
 2746SOL    HW2 8258   2.175   4.449   1.001
 2747SOL     OW 8259   2.201   4.233   1.006
 2747SOL    HW1 8260   2.149   4.150   0.989
 2747SOL    HW2 8261   2.278   4.238   0.942
 2748SOL     OW 8262   3.000   4.104   1.678
 2748SOL    HW1 8263   2.955   4.167   1.742
 2748SOL    HW2 8264   3.093   4.135   1.661
 2749SOL     OW 8265   3.022   3.931   1.477
 2749SOL    HW1 8266   3.022   3.995   1.554
 2749SOL    HW2 8267   3.050   3.979   1.394
 2750SOL     OW 8268   1.870   5.050   0.200
 2750SOL    HW1 8269   1.777   5.071   0.169
 2750SOL    HW2 8270   1.880   4.951   0.213
 2751SOL     OW 8271   2.864   4.520   1.238
 2751SOL    HW1 8272   2.905   4.488   1.324
 2751SOL    HW2 8273   2.768   4.493   1.235
 2752SOL     OW 8274   1.902   4.268   1.114
 2752SOL    HW1 8275   1.987   4.235   1.073
 2752SOL    HW2 8276   1.915   4.283   1.212
 2753SOL     OW 8277   2.051   4.244   1.722
 2753SOL    HW1 8278   2.110   4.204   1.652
 2753SOL    HW2 8279   1.993   4.315   1.681
 2754SOL     OW 8280   3.231   4.674   1.660
 2754SOL    HW1 8281   3.270   4.763   1.680
 2754SOL    HW2 8282   3.241   4.654   1.563
 2755SOL     OW 8283   2.677   4.296   0.325
 2755SOL    HW1 8284   2.684   4.207   0.279
 2755SOL    HW2 8285   2.583   4.330   0.317
 2756SOL     OW 8286   3.519   4.328   1.206
 2756SOL    HW1 8287   3.481   4.259   1.268
 2756SOL    HW2 8288   3.601   4.292   1.162
 2757SOL     OW 8289   2.533   4.188   1.269
 2757SOL    HW1 8290   2.499   4.099   1.239
 2757SOL    HW2 8291   2.559   4.242   1.189
 2758SOL     OW 8292   2.335   4.224   0.191
 2758SOL    HW1 8293   2.396   4.304   0.195
 2758SOL    HW2 8294   2.240   4.255   0.198
 2759SOL     OW 8295   2.021   4.861   1.466
 2759SOL    HW1 8296   2.043   4.800   1.542
 2759SOL    HW2 8297   2.031   4.812   1.380
 2760SOL     OW 8298   3.209   4.783   1.234
 2760SOL    HW1 8299   3.233   4.720   1.160
 2760SOL    HW2 8300   3.119   4.823   1.216
 2761SOL     OW 8301   3.164   4.579   0.309
 2761SOL    HW1 8302   3.078   4.548   0.351
 2761SOL    HW2 8303   3.160   4.565   0.210
 2762SOL     OW 8304   1.945   4.982   1.022
 2762SOL    HW1 8305   1.940   4.981   1.122
 2762SOL    HW2 8306   1.862   4.941   0.984
 2763SOL     OW 8307   2.765   3.810   0.133
 2763SOL    HW1 8308   2.816   3.811   0.047
 2763SOL    HW2 8309   2.821   3.768   0.204
 2764SOL     OW 8310   3.588   3.859   0.523
 2764SOL    HW1 8311   3.661   3.842   0.456
 2764SOL    HW2 8312   3.557   3.772   0.561
 2765SOL     OW 8313   3.142   4.651   0.672
 2765SOL    HW1 8314   3.202   4.570   0.674
 2765SOL    HW2 8315   3.182   4.720   0.612
 2766SOL     OW 8316   3.703   3.899   0.963
 2766SOL    HW1 8317   3.742   3.814   0.927
 2766SOL    HW2 8318   3.605   3.901   0.944
 2767SOL     OW 8319   2.125   4.050   0.720
 2767SOL    HW1 8320   2.046   4.101   0.686
 2767SOL    HW2 8321   2.116   4.035   0.818
 2768SOL     OW 8322   2.684   4.726   1.372
 2768SOL    HW1 8323   2.724   4.725   1.280
 2768SOL    HW2 8324   2.694   4.818   1.412
 2769SOL     OW 8325   2.778   4.634   0.291
 2769SOL    HW1 8326   2.841   4.672   0.223
 2769SOL    HW2 8327   2.818   4.551   0.330
 2770SOL     OW 8328   2.234   5.012   1.490
 2770SOL    HW1 8329   2.221   5.105   1.456
 2770SOL    HW2 8330   2.150   4.960   1.477
 2771SOL     OW 8331   3.476   5.016   1.289
 2771SOL    HW1 8332   3.536   5.019   1.369
 2771SOL    HW2 8333   3.401   5.080   1.302
 2772SOL     OW 8334   2.901   4.822   0.696
 2772SOL    HW1 8335   2.831   4.775   0.750
 2772SOL    HW2 8336   2.960   4.754   0.653
 2773SOL     OW 8337   2.876   3.960   0.971
 2773SOL    HW1 8338   2.868   3.924   0.878
 2773SOL    HW2 8339   2.874   3.884   1.036
 2774SOL     OW 8340   3.571   4.109   1.381
 2774SOL    HW1 8341   3.644   4.178   1.385
 2774SOL    HW2 8342   3.599   4.034   1.322
 2775SOL     OW 8343   1.967   4.737   1.726
 2775SOL    HW1 8344   1.890   4.704   1.780
 2775SOL    HW2 8345   2.052   4.707   1.768
 2776SOL     OW 8346   2.534   3.927   1.489
 2776SOL    HW1 8347   2.624   3.911   1.449
 2776SOL    HW2 8348   2.542   3.932   1.588
 2777SOL     OW 8349   3.302   4.580   1.398
 2777SOL    HW1 8350   3.245   4.632   1.335
 2777SOL    HW2 8351   3.398   4.592   1.374
 2778SOL     OW 8352   1.934   3.890   0.318
 2778SOL    HW1 8353   1.917   3.973   0.264
 2778SOL    HW2 8354   2.024   3.853   0.296
 2779SOL     OW 8355   2.475   4.566   1.431
 2779SOL    HW1 8356   2.531   4.647   1.414
 2779SOL    HW2 8357   2.534   4.486   1.434
 2780SOL     OW 8358   2.578   4.289   1.708
 2780SOL    HW1 8359   2.597   4.354   1.782
 2780SOL    HW2 8360   2.638   4.209   1.717
 2781SOL     OW 8361   3.312   4.944   1.633
 2781SOL    HW1 8362   3.303   4.934   1.732
 2781SOL    HW2 8363   3.408   4.937   1.607
 2782SOL     OW 8364   3.536   4.607   1.254
 2782SOL    HW1 8365   3.509   4.518   1.217
 2782SOL    HW2 8366   3.537   4.675   1.181
 2783SOL     OW 8367   3.087   4.049   0.449
 2783SOL    HW1 8368   3.152   3.975   0.438
 2783SOL    HW2 8369   3.107   4.099   0.533
 2784SOL     OW 8370   2.456   4.469   0.652
 2784SOL    HW1 8371   2.506   4.554   0.633
 2784SOL    HW2 8372   2.368   4.471   0.604
 2785SOL     OW 8373   3.639   4.066   1.642
 2785SOL    HW1 8374   3.622   4.097   1.548
 2785SOL    HW2 8375   3.555   4.029   1.680
 2786SOL     OW 8376   3.592   4.658   1.517
 2786SOL    HW1 8377   3.630   4.749   1.532
 2786SOL    HW2 8378   3.584   4.641   1.418
 2787SOL     OW 8379   2.721   4.680   0.861
 2787SOL    HW1 8380   2.775   4.611   0.909
 2787SOL    HW2 8381   2.689   4.749   0.927
 2788SOL     OW 8382   2.945   4.708   0.087
 2788SOL    HW1 8383   2.922   4.761   0.005
 2788SOL    HW2 8384   3.026   4.652   0.068
 2789SOL     OW 8385   1.941   4.964   0.653
 2789SOL    HW1 8386   1.940   4.917   0.741
 2789SOL    HW2 8387   2.023   4.936   0.602
 2790SOL     OW 8388   3.686   3.916   1.227
 2790SOL    HW1 8389   3.682   3.826   1.271
 2790SOL    HW2 8390   3.689   3.905   1.128
 2791SOL     OW 8391   2.290   4.148   0.520
 2791SOL    HW1 8392   2.320   4.076   0.458
 2791SOL    HW2 8393   2.251   4.108   0.603
 2792SOL     OW 8394   2.179   4.271   1.280
 2792SOL    HW1 8395   2.217   4.212   1.352
 2792SOL    HW2 8396   2.219   4.245   1.192
 2793SOL     OW 8397   3.286   3.938   1.112
 2793SOL    HW1 8398   3.338   3.873   1.167
 2793SOL    HW2 8399   3.237   4.001   1.173
 2794SOL     OW 8400   2.863   3.758   1.154
 2794SOL    HW1 8401   2.800   3.686   1.123
 2794SOL    HW2 8402   2.956   3.722   1.154
 2795SOL     OW 8403   2.632   5.054   0.301
 2795SOL    HW1 8404   2.586   4.967   0.318
 2795SOL    HW2 8405   2.723   5.051   0.342
 2796SOL     OW 8406   3.214   3.776   0.168
 2796SOL    HW1 8407   3.249   3.735   0.084
 2796SOL    HW2 8408   3.124   3.738   0.188
 2797SOL     OW 8409   3.162   4.177   0.691
 2797SOL    HW1 8410   3.103   4.257   0.695
 2797SOL    HW2 8411   3.177   4.142   0.784
 2798SOL     OW 8412   3.455   3.945   0.882
 2798SOL    HW1 8413   3.371   3.944   0.936
 2798SOL    HW2 8414   3.457   4.028   0.826
 2799SOL     OW 8415   2.092   4.352   1.975
 2799SOL    HW1 8416   1.999   4.350   2.012
 2799SOL    HW2 8417   2.093   4.313   1.883
 2800SOL     OW 8418   2.087   3.999   2.858
 2800SOL    HW1 8419   2.122   3.982   2.950
 2800SOL    HW2 8420   1.999   3.954   2.846
 2801SOL     OW 8421   1.881   4.092   2.509
 2801SOL    HW1 8422   1.799   4.135   2.548
 2801SOL    HW2 8423   1.853   4.019   2.446
 2802SOL     OW 8424   2.997   4.427   2.579
 2802SOL    HW1 8425   3.054   4.505   2.554
 2802SOL    HW2 8426   2.937   4.453   2.655
 2803SOL     OW 8427   3.617   4.331   2.093
 2803SOL    HW1 8428   3.605   4.318   1.994
 2803SOL    HW2 8429   3.587   4.250   2.142
 2804SOL     OW 8430   2.630   4.868   2.885
 2804SOL    HW1 8431   2.552   4.885   2.945
 2804SOL    HW2 8432   2.664   4.955   2.849
 2805SOL     OW 8433   2.712   4.522   3.685
 2805SOL    HW1 8434   2.708   4.598   3.750
 2805SOL    HW2 8435   2.734   4.558   3.594
 2806SOL     OW 8436   2.547   4.736   2.527
 2806SOL    HW1 8437   2.616   4.720   2.597
 2806SOL    HW2 8438   2.474   4.793   2.565
 2807SOL     OW 8439   2.548   4.885   3.665
 2807SOL    HW1 8440   2.608   4.964   3.679
 2807SOL    HW2 8441   2.462   4.916   3.624
 2808SOL     OW 8442   2.300   4.116   3.361
 2808SOL    HW1 8443   2.382   4.060   3.370
 2808SOL    HW2 8444   2.219   4.058   3.365
 2809SOL     OW 8445   3.465   4.171   2.599
 2809SOL    HW1 8446   3.391   4.217   2.549
 2809SOL    HW2 8447   3.516   4.239   2.652
 2810SOL     OW 8448   2.102   4.815   2.748
 2810SOL    HW1 8449   2.116   4.731   2.800
 2810SOL    HW2 8450   2.047   4.879   2.803
 2811SOL     OW 8451   2.468   4.688   1.985
 2811SOL    HW1 8452   2.475   4.772   1.931
 2811SOL    HW2 8453   2.514   4.701   2.073
 2812SOL     OW 8454   3.456   3.838   3.342
 2812SOL    HW1 8455   3.438   3.905   3.270
 2812SOL    HW2 8456   3.453   3.884   3.431
 2813SOL     OW 8457   1.984   4.367   2.425
 2813SOL    HW1 8458   1.939   4.279   2.442
 2813SOL    HW2 8459   1.983   4.421   2.509
 2814SOL     OW 8460   3.551   4.646   2.474
 2814SOL    HW1 8461   3.646   4.617   2.482
 2814SOL    HW2 8462   3.543   4.711   2.399
 2815SOL     OW 8463   3.503   4.832   2.294
 2815SOL    HW1 8464   3.589   4.834   2.242
 2815SOL    HW2 8465   3.517   4.879   2.382
 2816SOL     OW 8466   1.975   4.461   3.459
 2816SOL    HW1 8467   2.063   4.448   3.504
 2816SOL    HW2 8468   1.962   4.558   3.437
 2817SOL     OW 8469   3.155   4.952   3.285
 2817SOL    HW1 8470   3.192   4.879   3.227
 2817SOL    HW2 8471   3.207   4.957   3.370
 2818SOL     OW 8472   2.671   3.728   2.364
 2818SOL    HW1 8473   2.711   3.819   2.355
 2818SOL    HW2 8474   2.571   3.736   2.370
 2819SOL     OW 8475   2.059   4.700   3.126
 2819SOL    HW1 8476   2.148   4.655   3.112
 2819SOL    HW2 8477   1.986   4.635   3.107
 2820SOL     OW 8478   3.387   4.723   2.052
 2820SOL    HW1 8479   3.324   4.647   2.065
 2820SOL    HW2 8480   3.435   4.741   2.138
 2821SOL     OW 8481   2.179   3.975   3.663
 2821SOL    HW1 8482   2.250   4.046   3.669
 2821SOL    HW2 8483   2.091   4.014   3.691
 2822SOL     OW 8484   2.460   4.453   2.132
 2822SOL    HW1 8485   2.484   4.522   2.064
 2822SOL    HW2 8486   2.382   4.486   2.186
 2823SOL     OW 8487   3.143   4.069   2.806
 2823SOL    HW1 8488   3.057   4.019   2.793
 2823SOL    HW2 8489   3.205   4.015   2.862
 2824SOL     OW 8490   2.669   4.329   3.327
 2824SOL    HW1 8491   2.622   4.326   3.416
 2824SOL    HW2 8492   2.618   4.274   3.261
 2825SOL     OW 8493   3.256   4.193   3.536
 2825SOL    HW1 8494   3.236   4.236   3.624
 2825SOL    HW2 8495   3.334   4.131   3.545
 2826SOL     OW 8496   2.835   4.614   3.434
 2826SOL    HW1 8497   2.881   4.530   3.405
 2826SOL    HW2 8498   2.779   4.648   3.359
 2827SOL     OW 8499   2.853   4.134   3.104
 2827SOL    HW1 8500   2.776   4.168   3.158
 2827SOL    HW2 8501   2.819   4.083   3.025
 2828SOL     OW 8502   2.903   4.425   2.291
 2828SOL    HW1 8503   2.929   4.421   2.387
 2828SOL    HW2 8504   2.818   4.374   2.277
 2829SOL     OW 8505   1.938   4.535   2.651
 2829SOL    HW1 8506   2.037   4.523   2.660
 2829SOL    HW2 8507   1.914   4.630   2.672
 2830SOL     OW 8508   2.727   4.072   2.057
 2830SOL    HW1 8509   2.786   4.135   2.008
 2830SOL    HW2 8510   2.746   3.978   2.028
 2831SOL     OW 8511   3.581   4.309   3.693
 2831SOL    HW1 8512   3.555   4.398   3.657
 2831SOL    HW2 8513   3.579   4.241   3.620
 2832SOL     OW 8514   3.224   4.868   2.407
 2832SOL    HW1 8515   3.307   4.839   2.359
 2832SOL    HW2 8516   3.175   4.935   2.351
 2833SOL     OW 8517   2.412   3.920   2.747
 2833SOL    HW1 8518   2.407   3.915   2.847
 2833SOL    HW2 8519   2.414   4.016   2.718
 2834SOL     OW 8520   3.657   4.790   2.735
 2834SOL    HW1 8521   3.595   4.775   2.659
 2834SOL    HW2 8522   3.605   4.801   2.820
 2835SOL     OW 8523   2.183   4.667   2.104
 2835SOL    HW1 8524   2.265   4.706   2.062
 2835SOL    HW2 8525   2.156   4.585   2.055
 2836SOL     OW 8526   3.320   4.459   2.590
 2836SOL    HW1 8527   3.315   4.394   2.665
 2836SOL    HW2 8528   3.400   4.518   2.603
 2837SOL     OW 8529   2.064   4.009   3.360
 2837SOL    HW1 8530   1.984   4.069   3.347
 2837SOL    HW2 8531   2.054   3.960   3.446
 2838SOL     OW 8532   3.262   3.831   2.288
 2838SOL    HW1 8533   3.238   3.794   2.198
 2838SOL    HW2 8534   3.361   3.847   2.292
 2839SOL     OW 8535   2.244   4.424   2.342
 2839SOL    HW1 8536   2.289   4.334   2.339
 2839SOL    HW2 8537   2.150   4.413   2.375
 2840SOL     OW 8538   3.409   3.946   3.591
 2840SOL    HW1 8539   3.404   3.983   3.683
 2840SOL    HW2 8540   3.337   3.877   3.579
 2841SOL     OW 8541   2.476   3.846   1.979
 2841SOL    HW1 8542   2.574   3.824   1.986
 2841SOL    HW2 8543   2.445   3.829   1.886
 2842SOL     OW 8544   2.643   3.988   3.611
 2842SOL    HW1 8545   2.710   3.927   3.654
 2842SOL    HW2 8546   2.570   4.007   3.676
 2843SOL     OW 8547   3.213   4.314   3.295
 2843SOL    HW1 8548   3.241   4.271   3.380
 2843SOL    HW2 8549   3.238   4.410   3.296
 2844SOL     OW 8550   2.784   4.227   2.761
 2844SOL    HW1 8551   2.759   4.218   2.665
 2844SOL    HW2 8552   2.832   4.145   2.792
 2845SOL     OW 8553   2.401   3.788   2.374
 2845SOL    HW1 8554   2.320   3.789   2.432
 2845SOL    HW2 8555   2.404   3.871   2.319
 2846SOL     OW 8556   2.159   3.759   2.033
 2846SOL    HW1 8557   2.208   3.843   2.012
 2846SOL    HW2 8558   2.221   3.694   2.078
 2847SOL     OW 8559   2.797   3.960   2.342
 2847SOL    HW1 8560   2.749   4.001   2.264
 2847SOL    HW2 8561   2.896   3.958   2.323
 2848SOL     OW 8562   2.938   4.407   3.326
 2848SOL    HW1 8563   2.858   4.346   3.329
 2848SOL    HW2 8564   3.019   4.354   3.302
 2849SOL     OW 8565   2.321   4.876   2.603
 2849SOL    HW1 8566   2.250   4.849   2.668
 2849SOL    HW2 8567   2.295   4.848   2.510
 2850SOL     OW 8568   2.894   4.273   1.878
 2850SOL    HW1 8569   2.853   4.355   1.839
 2850SOL    HW2 8570   2.958   4.299   1.951
 2851SOL     OW 8571   1.940   4.280   3.248
 2851SOL    HW1 8572   2.032   4.279   3.207
 2851SOL    HW2 8573   1.934   4.354   3.315
 2852SOL     OW 8574   2.423   3.946   3.009
 2852SOL    HW1 8575   2.461   3.862   3.046
 2852SOL    HW2 8576   2.335   3.965   3.053
 2853SOL     OW 8577   2.728   4.178   2.504
 2853SOL    HW1 8578   2.696   4.250   2.442
 2853SOL    HW2 8579   2.752   4.097   2.451
 2854SOL     OW 8580   2.879   3.763   2.615
 2854SOL    HW1 8581   2.807   3.768   2.546
 2854SOL    HW2 8582   2.855   3.694   2.684
 2855SOL     OW 8583   3.291   4.897   2.729
 2855SOL    HW1 8584   3.236   4.813   2.722
 2855SOL    HW2 8585   3.317   4.926   2.637
 2856SOL     OW 8586   3.328   4.314   2.854
 2856SOL    HW1 8587   3.298   4.219   2.861
 2856SOL    HW2 8588   3.401   4.330   2.920
 2857SOL     OW 8589   3.719   4.557   2.239
 2857SOL    HW1 8590   3.761   4.493   2.303
 2857SOL    HW2 8591   3.681   4.506   2.161
 2858SOL     OW 8592   3.252   4.299   1.940
 2858SOL    HW1 8593   3.198   4.278   2.021
 2858SOL    HW2 8594   3.343   4.258   1.949
 2859SOL     OW 8595   2.389   3.980   2.190
 2859SOL    HW1 8596   2.416   3.921   2.115
 2859SOL    HW2 8597   2.389   4.075   2.159
 2860SOL     OW 8598   3.616   4.947   3.450
 2860SOL    HW1 8599   3.707   4.908   3.437
 2860SOL    HW2 8600   3.624   5.043   3.474
 2861SOL     OW 8601   3.500   4.823   2.941
 2861SOL    HW1 8602   3.505   4.904   3.000
 2861SOL    HW2 8603   3.414   4.825   2.890
 2862SOL     OW 8604   2.777   3.813   3.264
 2862SOL    HW1 8605   2.802   3.793   3.169
 2862SOL    HW2 8606   2.849   3.869   3.306
 2863SOL     OW 8607   2.842   4.840   3.581
 2863SOL    HW1 8608   2.743   4.846   3.591
 2863SOL    HW2 8609   2.865   4.760   3.525
 2864SOL     OW 8610   2.567   4.774   2.230
 2864SOL    HW1 8611   2.553   4.781   2.329
 2864SOL    HW2 8612   2.651   4.723   2.212
 2865SOL     OW 8613   2.272   4.537   3.113
 2865SOL    HW1 8614   2.358   4.549   3.163
 2865SOL    HW2 8615   2.230   4.450   3.140
 2866SOL     OW 8616   3.136   4.110   3.124
 2866SOL    HW1 8617   3.157   4.184   3.188
 2866SOL    HW2 8618   3.047   4.127   3.081
 2867SOL     OW 8619   2.229   4.824   2.363
 2867SOL    HW1 8620   2.222   4.907   2.307
 2867SOL    HW2 8621   2.233   4.744   2.303
 2868SOL     OW 8622   2.428   4.261   2.727
 2868SOL    HW1 8623   2.440   4.327   2.653
 2868SOL    HW2 8624   2.474   4.295   2.810
 2869SOL     OW 8625   3.444   4.363   2.334
 2869SOL    HW1 8626   3.413   4.424   2.407
 2869SOL    HW2 8627   3.494   4.415   2.265
 2870SOL     OW 8628   2.264   4.475   3.460
 2870SOL    HW1 8629   2.332   4.530   3.413
 2870SOL    HW2 8630   2.304   4.387   3.487
 2871SOL     OW 8631   3.449   4.503   3.532
 2871SOL    HW1 8632   3.357   4.541   3.527
 2871SOL    HW2 8633   3.509   4.550   3.467
 2872SOL     OW 8634   2.875   3.829   3.632
 2872SOL    HW1 8635   2.881   3.914   3.580
 2872SOL    HW2 8636   2.907   3.753   3.575
 2873SOL     OW 8637   2.366   3.774   3.602
 2873SOL    HW1 8638   2.324   3.717   3.532
 2873SOL    HW2 8639   2.300   3.843   3.634
 2874SOL     OW 8640   2.435   4.594   2.891
 2874SOL    HW1 8641   2.479   4.683   2.882
 2874SOL    HW2 8642   2.372   4.594   2.968
 2875SOL     OW 8643   3.222   4.586   2.907
 2875SOL    HW1 8644   3.147   4.586   2.841
 2875SOL    HW2 8645   3.259   4.494   2.916
 2876SOL     OW 8646   3.071   4.249   2.137
 2876SOL    HW1 8647   3.084   4.165   2.191
 2876SOL    HW2 8648   3.042   4.323   2.197
 2877SOL     OW 8649   2.169   3.937   3.093
 2877SOL    HW1 8650   2.146   3.974   3.183
 2877SOL    HW2 8651   2.139   3.842   3.087
 2878SOL     OW 8652   2.594   4.358   2.926
 2878SOL    HW1 8653   2.653   4.332   2.850
 2878SOL    HW2 8654   2.566   4.454   2.915
 2879SOL     OW 8655   3.590   4.659   3.716
 2879SOL    HW1 8656   3.544   4.652   3.627
 2879SOL    HW2 8657   3.528   4.703   3.782
 2880SOL     OW 8658   2.169   3.787   2.480
 2880SOL    HW1 8659   2.158   3.881   2.513
 2880SOL    HW2 8660   2.164   3.724   2.557
 2881SOL     OW 8661   3.484   4.091   2.236
 2881SOL    HW1 8662   3.486   4.015   2.300
 2881SOL    HW2 8663   3.436   4.168   2.276
 2882SOL     OW 8664   2.885   4.490   2.828
 2882SOL    HW1 8665   2.900   4.511   2.924
 2882SOL    HW2 8666   2.855   4.395   2.819
 2883SOL     OW 8667   2.212   4.622   3.666
 2883SOL    HW1 8668   2.288   4.666   3.714
 2883SOL    HW2 8669   2.247   4.575   3.584
 2884SOL     OW 8670   3.402   3.998   1.987
 2884SOL    HW1 8671   3.341   3.923   2.010
 2884SOL    HW2 8672   3.424   4.050   2.070
 2885SOL     OW 8673   3.165   4.562   1.904
 2885SOL    HW1 8674   3.199   4.469   1.919
 2885SOL    HW2 8675   3.183   4.589   1.809
 2886SOL     OW 8676   2.181   4.534   2.811
 2886SOL    HW1 8677   2.274   4.570   2.816
 2886SOL    HW2 8678   2.175   4.449   2.863
 2887SOL     OW 8679   2.201   4.233   2.868
 2887SOL    HW1 8680   2.149   4.150   2.851
 2887SOL    HW2 8681   2.278   4.238   2.804
 2888SOL     OW 8682   3.000   4.104   3.540
 2888SOL    HW1 8683   2.955   4.167   3.604
 2888SOL    HW2 8684   3.093   4.135   3.523
 2889SOL     OW 8685   3.022   3.931   3.339
 2889SOL    HW1 8686   3.022   3.995   3.416
 2889SOL    HW2 8687   3.050   3.979   3.256
 2890SOL     OW 8688   1.870   5.050   2.062
 2890SOL    HW1 8689   1.777   5.071   2.031
 2890SOL    HW2 8690   1.880   4.951   2.075
 2891SOL     OW 8691   2.864   4.520   3.100
 2891SOL    HW1 8692   2.905   4.488   3.186
 2891SOL    HW2 8693   2.768   4.493   3.097
 2892SOL     OW 8694   1.902   4.268   2.976
 2892SOL    HW1 8695   1.987   4.235   2.935
 2892SOL    HW2 8696   1.915   4.283   3.074
 2893SOL     OW 8697   2.051   4.244   3.584
 2893SOL    HW1 8698   2.110   4.204   3.514
 2893SOL    HW2 8699   1.993   4.315   3.543
 2894SOL     OW 8700   3.231   4.674   3.522
 2894SOL    HW1 8701   3.270   4.763   3.542
 2894SOL    HW2 8702   3.241   4.654   3.425
 2895SOL     OW 8703   2.677   4.296   2.187
 2895SOL    HW1 8704   2.684   4.207   2.141
 2895SOL    HW2 8705   2.583   4.330   2.179
 2896SOL     OW 8706   3.519   4.328   3.068
 2896SOL    HW1 8707   3.481   4.259   3.130
 2896SOL    HW2 8708   3.601   4.292   3.024
 2897SOL     OW 8709   2.533   4.188   3.131
 2897SOL    HW1 8710   2.499   4.099   3.101
 2897SOL    HW2 8711   2.559   4.242   3.051
 2898SOL     OW 8712   2.335   4.224   2.053
 2898SOL    HW1 8713   2.396   4.304   2.057
 2898SOL    HW2 8714   2.240   4.255   2.060
 2899SOL     OW 8715   2.021   4.861   3.328
 2899SOL    HW1 8716   2.043   4.800   3.404
 2899SOL    HW2 8717   2.031   4.812   3.242
 2900SOL     OW 8718   3.209   4.783   3.096
 2900SOL    HW1 8719   3.233   4.720   3.022
 2900SOL    HW2 8720   3.119   4.823   3.078
 2901SOL     OW 8721   3.164   4.579   2.171
 2901SOL    HW1 8722   3.078   4.548   2.213
 2901SOL    HW2 8723   3.160   4.565   2.072
 2902SOL     OW 8724   1.945   4.982   2.884
 2902SOL    HW1 8725   1.940   4.981   2.984
 2902SOL    HW2 8726   1.862   4.941   2.846
 2903SOL     OW 8727   3.588   3.859   2.385
 2903SOL    HW1 8728   3.661   3.842   2.318
 2903SOL    HW2 8729   3.557   3.772   2.423
 2904SOL     OW 8730   3.142   4.651   2.534
 2904SOL    HW1 8731   3.202   4.570   2.536
 2904SOL    HW2 8732   3.182   4.720   2.474
 2905SOL     OW 8733   3.703   3.899   2.825
 2905SOL    HW1 8734   3.742   3.814   2.789
 2905SOL    HW2 8735   3.605   3.901   2.806
 2906SOL     OW 8736   2.125   4.050   2.582
 2906SOL    HW1 8737   2.046   4.101   2.548
 2906SOL    HW2 8738   2.116   4.035   2.680
 2907SOL     OW 8739   2.684   4.726   3.234
 2907SOL    HW1 8740   2.724   4.725   3.142
 2907SOL    HW2 8741   2.694   4.818   3.274
 2908SOL     OW 8742   2.778   4.634   2.153
 2908SOL    HW1 8743   2.841   4.672   2.085
 2908SOL    HW2 8744   2.818   4.551   2.192
 2909SOL     OW 8745   2.234   5.012   3.352
 2909SOL    HW1 8746   2.221   5.105   3.318
 2909SOL    HW2 8747   2.150   4.960   3.339
 2910SOL     OW 8748   3.476   5.016   3.151
 2910SOL    HW1 8749   3.536   5.019   3.231
 2910SOL    HW2 8750   3.401   5.080   3.164
 2911SOL     OW 8751   2.901   4.822   2.558
 2911SOL    HW1 8752   2.831   4.775   2.612
 2911SOL    HW2 8753   2.960   4.754   2.515
 2912SOL     OW 8754   2.876   3.960   2.833
 2912SOL    HW1 8755   2.868   3.924   2.740
 2912SOL    HW2 8756   2.874   3.884   2.898
 2913SOL     OW 8757   3.571   4.109   3.243
 2913SOL    HW1 8758   3.644   4.178   3.247
 2913SOL    HW2 8759   3.599   4.034   3.184
 2914SOL     OW 8760   1.967   4.737   3.588
 2914SOL    HW1 8761   1.890   4.704   3.642
 2914SOL    HW2 8762   2.052   4.707   3.630
 2915SOL     OW 8763   2.534   3.927   3.351
 2915SOL    HW1 8764   2.624   3.911   3.311
 2915SOL    HW2 8765   2.542   3.932   3.450
 2916SOL     OW 8766   1.937   4.069   1.895
 2916SOL    HW1 8767   1.845   4.041   1.866
 2916SOL    HW2 8768   1.968   4.146   1.839
 2917SOL     OW 8769   3.302   4.580   3.260
 2917SOL    HW1 8770   3.245   4.632   3.197
 2917SOL    HW2 8771   3.398   4.592   3.236
 2918SOL     OW 8772   1.934   3.890   2.180
 2918SOL    HW1 8773   1.917   3.973   2.126
 2918SOL    HW2 8774   2.024   3.853   2.158
 2919SOL     OW 8775   2.475   4.566   3.293
 2919SOL    HW1 8776   2.531   4.647   3.276
 2919SOL    HW2 8777   2.534   4.486   3.296
 2920SOL     OW 8778   2.578   4.289   3.570
 2920SOL    HW1 8779   2.597   4.354   3.644
 2920SOL    HW2 8780   2.638   4.209   3.579
 2921SOL     OW 8781   3.312   4.944   3.495
 2921SOL    HW1 8782   3.303   4.934   3.594
 2921SOL    HW2 8783   3.408   4.937   3.469
 2922SOL     OW 8784   3.536   4.607   3.116
 2922SOL    HW1 8785   3.509   4.518   3.079
 2922SOL    HW2 8786   3.537   4.675   3.043
 2923SOL     OW 8787   3.087   4.049   2.311
 2923SOL    HW1 8788   3.152   3.975   2.300
 2923SOL    HW2 8789   3.107   4.099   2.395
 2924SOL     OW 8790   2.456   4.469   2.514
 2924SOL    HW1 8791   2.506   4.554   2.495
 2924SOL    HW2 8792   2.368   4.471   2.466
 2925SOL     OW 8793   3.639   4.066   3.504
 2925SOL    HW1 8794   3.622   4.097   3.410
 2925SOL    HW2 8795   3.555   4.029   3.542
 2926SOL     OW 8796   3.592   4.658   3.379
 2926SOL    HW1 8797   3.630   4.749   3.394
 2926SOL    HW2 8798   3.584   4.641   3.280
 2927SOL     OW 8799   2.721   4.680   2.723
 2927SOL    HW1 8800   2.775   4.611   2.771
 2927SOL    HW2 8801   2.689   4.749   2.789
 2928SOL     OW 8802   2.945   4.708   1.949
 2928SOL    HW1 8803   2.922   4.761   1.867
 2928SOL    HW2 8804   3.026   4.652   1.930
 2929SOL     OW 8805   1.941   4.964   2.515
 2929SOL    HW1 8806   1.940   4.917   2.603
 2929SOL    HW2 8807   2.023   4.936   2.464
 2930SOL     OW 8808   3.686   3.916   3.089
 2930SOL    HW1 8809   3.682   3.826   3.133
 2930SOL    HW2 8810   3.689   3.905   2.990
 2931SOL     OW 8811   2.290   4.148   2.382
 2931SOL    HW1 8812   2.320   4.076   2.320
 2931SOL    HW2 8813   2.251   4.108   2.465
 2932SOL     OW 8814   2.179   4.271   3.142
 2932SOL    HW1 8815   2.217   4.212   3.214
 2932SOL    HW2 8816   2.219   4.245   3.054
 2933SOL     OW 8817   3.286   3.938   2.974
 2933SOL    HW1 8818   3.338   3.873   3.029
 2933SOL    HW2 8819   3.237   4.001   3.035
 2934SOL     OW 8820   2.863   3.758   3.016
 2934SOL    HW1 8821   2.800   3.686   2.985
 2934SOL    HW2 8822   2.956   3.722   3.016
 2935SOL     OW 8823   2.632   5.054   2.163
 2935SOL    HW1 8824   2.586   4.967   2.180
 2935SOL    HW2 8825   2.723   5.051   2.204
 2936SOL     OW 8826   3.214   3.776   2.030
 2936SOL    HW1 8827   3.249   3.735   1.946
 2936SOL    HW2 8828   3.124   3.738   2.050
 2937SOL     OW 8829   3.162   4.177   2.553
 2937SOL    HW1 8830   3.103   4.257   2.557
 2937SOL    HW2 8831   3.177   4.142   2.646
 2938SOL     OW 8832   3.455   3.945   2.744
 2938SOL    HW1 8833   3.371   3.944   2.798
 2938SOL    HW2 8834   3.457   4.028   2.688
 2939SOL     OW 8835   1.901   4.801   2.162
 2939SOL    HW1 8836   2.000   4.790   2.153
 2939SOL    HW2 8837   1.861   4.715   2.194
 2940SOL     OW 8838   2.092   4.352   3.837
 2940SOL    HW1 8839   1.999   4.350   3.874
 2940SOL    HW2 8840   2.093   4.313   3.745
 2941SOL     OW 8841   2.087   3.999   4.720
 2941SOL    HW1 8842   2.122   3.982   4.812
 2941SOL    HW2 8843   1.999   3.954   4.708
 2942SOL     OW 8844   1.881   4.092   4.371
 2942SOL    HW1 8845   1.799   4.135   4.410
 2942SOL    HW2 8846   1.853   4.019   4.308
 2943SOL     OW 8847   2.997   4.427   4.441
 2943SOL    HW1 8848   3.054   4.505   4.416
 2943SOL    HW2 8849   2.937   4.453   4.517
 2944SOL     OW 8850   3.617   4.331   3.955
 2944SOL    HW1 8851   3.605   4.318   3.856
 2944SOL    HW2 8852   3.587   4.250   4.004
 2945SOL     OW 8853   2.630   4.868   4.747
 2945SOL    HW1 8854   2.552   4.885   4.807
 2945SOL    HW2 8855   2.664   4.955   4.711
 2946SOL     OW 8856   2.547   4.736   4.389
 2946SOL    HW1 8857   2.616   4.720   4.459
 2946SOL    HW2 8858   2.474   4.793   4.427
 2947SOL     OW 8859   3.465   4.171   4.461
 2947SOL    HW1 8860   3.391   4.217   4.411
 2947SOL    HW2 8861   3.516   4.239   4.514
 2948SOL     OW 8862   2.102   4.815   4.610
 2948SOL    HW1 8863   2.116   4.731   4.662
 2948SOL    HW2 8864   2.047   4.879   4.665
 2949SOL     OW 8865   2.468   4.688   3.847
 2949SOL    HW1 8866   2.475   4.772   3.793
 2949SOL    HW2 8867   2.514   4.701   3.935
 2950SOL     OW 8868   1.984   4.367   4.287
 2950SOL    HW1 8869   1.939   4.279   4.304
 2950SOL    HW2 8870   1.983   4.421   4.371
 2951SOL     OW 8871   3.551   4.646   4.336
 2951SOL    HW1 8872   3.646   4.617   4.344
 2951SOL    HW2 8873   3.543   4.711   4.261
 2952SOL     OW 8874   3.503   4.832   4.156
 2952SOL    HW1 8875   3.589   4.834   4.104
 2952SOL    HW2 8876   3.517   4.879   4.244
 2953SOL     OW 8877   2.671   3.728   4.226
 2953SOL    HW1 8878   2.711   3.819   4.217
 2953SOL    HW2 8879   2.571   3.736   4.232
 2954SOL     OW 8880   2.059   4.700   4.988
 2954SOL    HW1 8881   2.148   4.655   4.974
 2954SOL    HW2 8882   1.986   4.635   4.969
 2955SOL     OW 8883   3.387   4.723   3.914
 2955SOL    HW1 8884   3.324   4.647   3.927
 2955SOL    HW2 8885   3.435   4.741   4.000
 2956SOL     OW 8886   2.460   4.453   3.994
 2956SOL    HW1 8887   2.484   4.522   3.926
 2956SOL    HW2 8888   2.382   4.486   4.048
 2957SOL     OW 8889   3.143   4.069   4.668
 2957SOL    HW1 8890   3.057   4.019   4.655
 2957SOL    HW2 8891   3.205   4.015   4.724
 2958SOL     OW 8892   2.903   4.425   4.153
 2958SOL    HW1 8893   2.929   4.421   4.249
 2958SOL    HW2 8894   2.818   4.374   4.139
 2959SOL     OW 8895   1.938   4.535   4.513
 2959SOL    HW1 8896   2.037   4.523   4.522
 2959SOL    HW2 8897   1.914   4.630   4.534
 2960SOL     OW 8898   2.727   4.072   3.919
 2960SOL    HW1 8899   2.786   4.135   3.870
 2960SOL    HW2 8900   2.746   3.978   3.890
 2961SOL     OW 8901   3.224   4.868   4.269
 2961SOL    HW1 8902   3.307   4.839   4.221
 2961SOL    HW2 8903   3.175   4.935   4.213
 2962SOL     OW 8904   2.412   3.920   4.609
 2962SOL    HW1 8905   2.407   3.915   4.709
 2962SOL    HW2 8906   2.414   4.016   4.580
 2963SOL     OW 8907   3.657   4.790   4.597
 2963SOL    HW1 8908   3.595   4.775   4.521
 2963SOL    HW2 8909   3.605   4.801   4.682
 2964SOL     OW 8910   2.183   4.667   3.966
 2964SOL    HW1 8911   2.265   4.706   3.924
 2964SOL    HW2 8912   2.156   4.585   3.917
 2965SOL     OW 8913   3.320   4.459   4.452
 2965SOL    HW1 8914   3.315   4.394   4.527
 2965SOL    HW2 8915   3.400   4.518   4.465
 2966SOL     OW 8916   3.262   3.831   4.150
 2966SOL    HW1 8917   3.238   3.794   4.060
 2966SOL    HW2 8918   3.361   3.847   4.154
 2967SOL     OW 8919   2.244   4.424   4.204
 2967SOL    HW1 8920   2.289   4.334   4.201
 2967SOL    HW2 8921   2.150   4.413   4.237
 2968SOL     OW 8922   2.476   3.846   3.841
 2968SOL    HW1 8923   2.574   3.824   3.848
 2968SOL    HW2 8924   2.445   3.829   3.748
 2969SOL     OW 8925   2.784   4.227   4.623
 2969SOL    HW1 8926   2.759   4.218   4.527
 2969SOL    HW2 8927   2.832   4.145   4.654
 2970SOL     OW 8928   2.401   3.788   4.236
 2970SOL    HW1 8929   2.320   3.789   4.294
 2970SOL    HW2 8930   2.404   3.871   4.181
 2971SOL     OW 8931   2.159   3.759   3.895
 2971SOL    HW1 8932   2.208   3.843   3.874
 2971SOL    HW2 8933   2.221   3.694   3.940
 2972SOL     OW 8934   2.797   3.960   4.204
 2972SOL    HW1 8935   2.749   4.001   4.126
 2972SOL    HW2 8936   2.896   3.958   4.185
 2973SOL     OW 8937   2.321   4.876   4.465
 2973SOL    HW1 8938   2.250   4.849   4.530
 2973SOL    HW2 8939   2.295   4.848   4.372
 2974SOL     OW 8940   2.894   4.273   3.740
 2974SOL    HW1 8941   2.853   4.355   3.701
 2974SOL    HW2 8942   2.958   4.299   3.813
 2975SOL     OW 8943   2.728   4.178   4.366
 2975SOL    HW1 8944   2.696   4.250   4.304
 2975SOL    HW2 8945   2.752   4.097   4.313
 2976SOL     OW 8946   2.879   3.763   4.477
 2976SOL    HW1 8947   2.807   3.768   4.408
 2976SOL    HW2 8948   2.855   3.694   4.546
 2977SOL     OW 8949   3.291   4.897   4.591
 2977SOL    HW1 8950   3.236   4.813   4.584
 2977SOL    HW2 8951   3.317   4.926   4.499
 2978SOL     OW 8952   3.328   4.314   4.716
 2978SOL    HW1 8953   3.298   4.219   4.723
 2978SOL    HW2 8954   3.401   4.330   4.782
 2979SOL     OW 8955   3.719   4.557   4.101
 2979SOL    HW1 8956   3.761   4.493   4.165
 2979SOL    HW2 8957   3.681   4.506   4.023
 2980SOL     OW 8958   3.252   4.299   3.802
 2980SOL    HW1 8959   3.198   4.278   3.883
 2980SOL    HW2 8960   3.343   4.258   3.811
 2981SOL     OW 8961   2.389   3.980   4.052
 2981SOL    HW1 8962   2.416   3.921   3.977
 2981SOL    HW2 8963   2.389   4.075   4.021
 2982SOL     OW 8964   3.500   4.823   4.803
 2982SOL    HW1 8965   3.505   4.904   4.862
 2982SOL    HW2 8966   3.414   4.825   4.752
 2983SOL     OW 8967   2.567   4.774   4.092
 2983SOL    HW1 8968   2.553   4.781   4.191
 2983SOL    HW2 8969   2.651   4.723   4.074
 2984SOL     OW 8970   2.272   4.537   4.975
 2984SOL    HW1 8971   2.358   4.549   5.025
 2984SOL    HW2 8972   2.230   4.450   5.002
 2985SOL     OW 8973   2.229   4.824   4.225
 2985SOL    HW1 8974   2.222   4.907   4.169
 2985SOL    HW2 8975   2.233   4.744   4.165
 2986SOL     OW 8976   2.428   4.261   4.589
 2986SOL    HW1 8977   2.440   4.327   4.515
 2986SOL    HW2 8978   2.474   4.295   4.672
 2987SOL     OW 8979   3.444   4.363   4.196
 2987SOL    HW1 8980   3.413   4.424   4.269
 2987SOL    HW2 8981   3.494   4.415   4.127
 2988SOL     OW 8982   2.435   4.594   4.753
 2988SOL    HW1 8983   2.479   4.683   4.744
 2988SOL    HW2 8984   2.372   4.594   4.830
 2989SOL     OW 8985   3.222   4.586   4.769
 2989SOL    HW1 8986   3.147   4.586   4.703
 2989SOL    HW2 8987   3.259   4.494   4.778
 2990SOL     OW 8988   3.071   4.249   3.999
 2990SOL    HW1 8989   3.084   4.165   4.053
 2990SOL    HW2 8990   3.042   4.323   4.059
 2991SOL     OW 8991   2.169   3.937   4.955
 2991SOL    HW1 8992   2.146   3.974   5.045
 2991SOL    HW2 8993   2.139   3.842   4.949
 2992SOL     OW 8994   2.594   4.358   4.788
 2992SOL    HW1 8995   2.653   4.332   4.712
 2992SOL    HW2 8996   2.566   4.454   4.777
 2993SOL     OW 8997   2.169   3.787   4.342
 2993SOL    HW1 8998   2.158   3.881   4.375
 2993SOL    HW2 8999   2.164   3.724   4.419
 2994SOL     OW 9000   3.484   4.091   4.098
 2994SOL    HW1 9001   3.486   4.015   4.162
 2994SOL    HW2 9002   3.436   4.168   4.138
 2995SOL     OW 9003   2.885   4.490   4.690
 2995SOL    HW1 9004   2.900   4.511   4.786
 2995SOL    HW2 9005   2.855   4.395   4.681
 2996SOL     OW 9006   3.402   3.998   3.849
 2996SOL    HW1 9007   3.341   3.923   3.872
 2996SOL    HW2 9008   3.424   4.050   3.932
 2997SOL     OW 9009   3.165   4.562   3.766
 2997SOL    HW1 9010   3.199   4.469   3.781
 2997SOL    HW2 9011   3.183   4.589   3.671
 2998SOL     OW 9012   2.181   4.534   4.673
 2998SOL    HW1 9013   2.274   4.570   4.678
 2998SOL    HW2 9014   2.175   4.449   4.725
 2999SOL     OW 9015   2.201   4.233   4.730
 2999SOL    HW1 9016   2.149   4.150   4.713
 2999SOL    HW2 9017   2.278   4.238   4.666
 3000SOL     OW 9018   3.022   3.931   5.201
 3000SOL    HW1 9019   3.022   3.995   5.278
 3000SOL    HW2 9020   3.050   3.979   5.118
 3001SOL     OW 9021   1.870   5.050   3.924
 3001SOL    HW1 9022   1.777   5.071   3.893
 3001SOL    HW2 9023   1.880   4.951   3.937
 3002SOL     OW 9024   2.864   4.520   4.962
 3002SOL    HW1 9025   2.905   4.488   5.048
 3002SOL    HW2 9026   2.768   4.493   4.959
 3003SOL     OW 9027   1.902   4.268   4.838
 3003SOL    HW1 9028   1.987   4.235   4.797
 3003SOL    HW2 9029   1.915   4.283   4.936
 3004SOL     OW 9030   2.677   4.296   4.049
 3004SOL    HW1 9031   2.684   4.207   4.003
 3004SOL    HW2 9032   2.583   4.330   4.041
 3005SOL     OW 9033   3.519   4.328   4.930
 3005SOL    HW1 9034   3.481   4.259   4.992
 3005SOL    HW2 9035   3.601   4.292   4.886
 3006SOL     OW 9036   2.533   4.188   4.993
 3006SOL    HW1 9037   2.499   4.099   4.963
 3006SOL    HW2 9038   2.559   4.242   4.913
 3007SOL     OW 9039   2.335   4.224   3.915
 3007SOL    HW1 9040   2.396   4.304   3.919
 3007SOL    HW2 9041   2.240   4.255   3.922
 3008SOL     OW 9042   2.021   4.861   5.190
 3008SOL    HW1 9043   2.043   4.800   5.266
 3008SOL    HW2 9044   2.031   4.812   5.104
 3009SOL     OW 9045   3.209   4.783   4.958
 3009SOL    HW1 9046   3.233   4.720   4.884
 3009SOL    HW2 9047   3.119   4.823   4.940
 3010SOL     OW 9048   3.164   4.579   4.033
 3010SOL    HW1 9049   3.078   4.548   4.075
 3010SOL    HW2 9050   3.160   4.565   3.934
 3011SOL     OW 9051   1.945   4.982   4.746
 3011SOL    HW1 9052   1.940   4.981   4.846
 3011SOL    HW2 9053   1.862   4.941   4.708
 3012SOL     OW 9054   3.588   3.859   4.247
 3012SOL    HW1 9055   3.661   3.842   4.180
 3012SOL    HW2 9056   3.557   3.772   4.285
 3013SOL     OW 9057   3.142   4.651   4.396
 3013SOL    HW1 9058   3.202   4.570   4.398
 3013SOL    HW2 9059   3.182   4.720   4.336
 3014SOL     OW 9060   3.703   3.899   4.687
 3014SOL    HW1 9061   3.742   3.814   4.651
 3014SOL    HW2 9062   3.605   3.901   4.668
 3015SOL     OW 9063   2.125   4.050   4.444
 3015SOL    HW1 9064   2.046   4.101   4.410
 3015SOL    HW2 9065   2.116   4.035   4.542
 3016SOL     OW 9066   2.684   4.726   5.096
 3016SOL    HW1 9067   2.724   4.725   5.004
 3016SOL    HW2 9068   2.694   4.818   5.136
 3017SOL     OW 9069   2.778   4.634   4.015
 3017SOL    HW1 9070   2.841   4.672   3.947
 3017SOL    HW2 9071   2.818   4.551   4.054
 3018SOL     OW 9072   3.476   5.016   5.013
 3018SOL    HW1 9073   3.536   5.019   5.093
 3018SOL    HW2 9074   3.401   5.080   5.026
 3019SOL     OW 9075   2.901   4.822   4.420
 3019SOL    HW1 9076   2.831   4.775   4.474
 3019SOL    HW2 9077   2.960   4.754   4.377
 3020SOL     OW 9078   2.876   3.960   4.695
 3020SOL    HW1 9079   2.868   3.924   4.602
 3020SOL    HW2 9080   2.874   3.884   4.760
 3021SOL     OW 9081   3.571   4.109   5.105
 3021SOL    HW1 9082   3.644   4.178   5.109
 3021SOL    HW2 9083   3.599   4.034   5.046
 3022SOL     OW 9084   1.937   4.069   3.757
 3022SOL    HW1 9085   1.845   4.041   3.728
 3022SOL    HW2 9086   1.968   4.146   3.701
 3023SOL     OW 9087   1.934   3.890   4.042
 3023SOL    HW1 9088   1.917   3.973   3.988
 3023SOL    HW2 9089   2.024   3.853   4.020
 3024SOL     OW 9090   3.536   4.607   4.978
 3024SOL    HW1 9091   3.509   4.518   4.941
 3024SOL    HW2 9092   3.537   4.675   4.905
 3025SOL     OW 9093   3.087   4.049   4.173
 3025SOL    HW1 9094   3.152   3.975   4.162
 3025SOL    HW2 9095   3.107   4.099   4.257
 3026SOL     OW 9096   2.456   4.469   4.376
 3026SOL    HW1 9097   2.506   4.554   4.357
 3026SOL    HW2 9098   2.368   4.471   4.328
 3027SOL     OW 9099   3.592   4.658   5.241
 3027SOL    HW1 9100   3.630   4.749   5.256
 3027SOL    HW2 9101   3.584   4.641   5.142
 3028SOL     OW 9102   2.721   4.680   4.585
 3028SOL    HW1 9103   2.775   4.611   4.633
 3028SOL    HW2 9104   2.689   4.749   4.651
 3029SOL     OW 9105   2.945   4.708   3.811
 3029SOL    HW1 9106   2.922   4.761   3.729
 3029SOL    HW2 9107   3.026   4.652   3.792
 3030SOL     OW 9108   1.941   4.964   4.377
 3030SOL    HW1 9109   1.940   4.917   4.465
 3030SOL    HW2 9110   2.023   4.936   4.326
 3031SOL     OW 9111   3.686   3.916   4.951
 3031SOL    HW1 9112   3.682   3.826   4.995
 3031SOL    HW2 9113   3.689   3.905   4.852
 3032SOL     OW 9114   2.290   4.148   4.244
 3032SOL    HW1 9115   2.320   4.076   4.182
 3032SOL    HW2 9116   2.251   4.108   4.327
 3033SOL     OW 9117   3.286   3.938   4.836
 3033SOL    HW1 9118   3.338   3.873   4.891
 3033SOL    HW2 9119   3.237   4.001   4.897
 3034SOL     OW 9120   2.863   3.758   4.878
 3034SOL    HW1 9121   2.800   3.686   4.847
 3034SOL    HW2 9122   2.956   3.722   4.878
 3035SOL     OW 9123   2.632   5.054   4.025
 3035SOL    HW1 9124   2.586   4.967   4.042
 3035SOL    HW2 9125   2.723   5.051   4.066
 3036SOL     OW 9126   3.214   3.776   3.892
 3036SOL    HW1 9127   3.249   3.735   3.808
 3036SOL    HW2 9128   3.124   3.738   3.912
 3037SOL     OW 9129   3.162   4.177   4.415
 3037SOL    HW1 9130   3.103   4.257   4.419
 3037SOL    HW2 9131   3.177   4.142   4.508
 3038SOL     OW 9132   3.455   3.945   4.606
 3038SOL    HW1 9133   3.371   3.944   4.660
 3038SOL    HW2 9134   3.457   4.028   4.550
 3039SOL     OW 9135   1.901   4.801   4.024
 3039SOL    HW1 9136   2.000   4.790   4.015
 3039SOL    HW2 9137   1.861   4.715   4.056
 3040SOL     OW 9138   3.954   0.628   0.113
 3040SOL    HW1 9139   3.861   0.626   0.150
 3040SOL    HW2 9140   3.955   0.589   0.021
 3041SOL     OW 9141   3.949   0.275   0.996
 3041SOL    HW1 9142   3.984   0.258   1.088
 3041SOL    HW2 9143   3.861   0.230   0.984
 3042SOL     OW 9144   3.743   0.368   0.647
 3042SOL    HW1 9145   3.661   0.411   0.686
 3042SOL    HW2 9146   3.715   0.295   0.584
 3043SOL     OW 9147   4.293   1.275   1.165
 3043SOL    HW1 9148   4.200   1.268   1.128
 3043SOL    HW2 9149   4.304   1.364   1.209
 3044SOL     OW 9150   4.859   0.703   0.717
 3044SOL    HW1 9151   4.916   0.781   0.692
 3044SOL    HW2 9152   4.799   0.729   0.793
 3045SOL     OW 9153   4.492   1.144   1.023
 3045SOL    HW1 9154   4.414   1.161   1.083
 3045SOL    HW2 9155   4.526   1.231   0.987
 3046SOL     OW 9156   4.574   0.798   1.823
 3046SOL    HW1 9157   4.570   0.874   1.888
 3046SOL    HW2 9158   4.596   0.834   1.732
 3047SOL     OW 9159   4.409   1.012   0.665
 3047SOL    HW1 9160   4.478   0.996   0.735
 3047SOL    HW2 9161   4.336   1.069   0.703
 3048SOL     OW 9162   4.410   1.161   1.803
 3048SOL    HW1 9163   4.470   1.240   1.817
 3048SOL    HW2 9164   4.324   1.192   1.762
 3049SOL     OW 9165   4.059   1.435   1.061
 3049SOL    HW1 9166   3.981   1.404   1.008
 3049SOL    HW2 9167   4.117   1.493   1.004
 3050SOL     OW 9168   4.162   0.392   1.499
 3050SOL    HW1 9169   4.244   0.336   1.508
 3050SOL    HW2 9170   4.081   0.334   1.503
 3051SOL     OW 9171   3.955   1.713   0.483
 3051SOL    HW1 9172   3.989   1.790   0.537
 3051SOL    HW2 9173   3.999   1.713   0.393
 3052SOL     OW 9174   4.851   1.341   1.690
 3052SOL    HW1 9175   4.898   1.341   1.778
 3052SOL    HW2 9176   4.803   1.254   1.679
 3053SOL     OW 9177   3.954   1.434   0.538
 3053SOL    HW1 9178   3.928   1.530   0.538
 3053SOL    HW2 9179   3.883   1.380   0.583
 3054SOL     OW 9180   3.964   1.091   0.886
 3054SOL    HW1 9181   3.978   1.007   0.938
 3054SOL    HW2 9182   3.909   1.155   0.941
 3055SOL     OW 9183   4.344   1.786   1.439
 3055SOL    HW1 9184   4.252   1.769   1.474
 3055SOL    HW2 9185   4.372   1.878   1.465
 3056SOL     OW 9186   4.330   0.964   0.123
 3056SOL    HW1 9187   4.337   1.048   0.069
 3056SOL    HW2 9188   4.376   0.977   0.211
 3057SOL     OW 9189   3.846   0.643   0.563
 3057SOL    HW1 9190   3.801   0.555   0.580
 3057SOL    HW2 9191   3.845   0.697   0.647
 3058SOL     OW 9192   3.751   1.596   0.117
 3058SOL    HW1 9193   3.732   1.500   0.138
 3058SOL    HW2 9194   3.718   1.654   0.192
 3059SOL     OW 9195   3.837   0.737   1.597
 3059SOL    HW1 9196   3.925   0.724   1.642
 3059SOL    HW2 9197   3.824   0.834   1.575
 3060SOL     OW 9198   4.337   1.365   0.726
 3060SOL    HW1 9199   4.288   1.278   0.735
 3060SOL    HW2 9200   4.314   1.408   0.639
 3061SOL     OW 9201   4.533   0.004   0.502
 3061SOL    HW1 9202   4.573   0.095   0.493
 3061SOL    HW2 9203   4.433   0.012   0.508
 3062SOL     OW 9204   3.921   0.976   1.264
 3062SOL    HW1 9205   4.010   0.931   1.250
 3062SOL    HW2 9206   3.848   0.911   1.245
 3063SOL     OW 9207   4.041   0.251   1.801
 3063SOL    HW1 9208   4.112   0.322   1.807
 3063SOL    HW2 9209   3.953   0.290   1.829
 3064SOL     OW 9210   4.322   0.729   0.270
 3064SOL    HW1 9211   4.346   0.798   0.202
 3064SOL    HW2 9212   4.244   0.762   0.324
 3065SOL     OW 9213   4.531   0.605   1.465
 3065SOL    HW1 9214   4.484   0.602   1.554
 3065SOL    HW2 9215   4.480   0.550   1.399
 3066SOL     OW 9216   4.697   0.890   1.572
 3066SOL    HW1 9217   4.743   0.806   1.543
 3066SOL    HW2 9218   4.641   0.924   1.497
 3067SOL     OW 9219   4.715   0.410   1.242
 3067SOL    HW1 9220   4.638   0.444   1.296
 3067SOL    HW2 9221   4.681   0.359   1.163
 3068SOL     OW 9222   4.765   0.701   0.429
 3068SOL    HW1 9223   4.791   0.697   0.525
 3068SOL    HW2 9224   4.680   0.650   0.415
 3069SOL     OW 9225   3.800   0.811   0.789
 3069SOL    HW1 9226   3.899   0.799   0.798
 3069SOL    HW2 9227   3.776   0.906   0.810
 3070SOL     OW 9228   3.854   1.821   1.571
 3070SOL    HW1 9229   3.844   1.806   1.670
 3070SOL    HW2 9230   3.768   1.857   1.535
 3071SOL     OW 9231   4.589   0.348   0.195
 3071SOL    HW1 9232   4.648   0.411   0.146
 3071SOL    HW2 9233   4.608   0.254   0.166
 3072SOL     OW 9234   4.274   0.196   0.885
 3072SOL    HW1 9235   4.269   0.191   0.985
 3072SOL    HW2 9236   4.276   0.292   0.856
 3073SOL     OW 9237   4.732   1.456   0.477
 3073SOL    HW1 9238   4.686   1.528   0.425
 3073SOL    HW2 9239   4.728   1.476   0.575
 3074SOL     OW 9240   4.075   1.801   0.853
 3074SOL    HW1 9241   4.125   1.715   0.859
 3074SOL    HW2 9242   4.140   1.878   0.850
 3075SOL     OW 9243   4.951   1.550   1.506
 3075SOL    HW1 9244   4.957   1.473   1.570
 3075SOL    HW2 9245   4.899   1.524   1.426
 3076SOL     OW 9246   4.045   0.943   0.242
 3076SOL    HW1 9247   4.127   0.982   0.200
 3076SOL    HW2 9248   4.018   0.861   0.193
 3077SOL     OW 9249   4.185   1.266   1.727
 3077SOL    HW1 9250   4.135   1.267   1.641
 3077SOL    HW2 9251   4.122   1.248   1.803
 3078SOL     OW 9252   4.835   1.776   0.237
 3078SOL    HW1 9253   4.775   1.714   0.287
 3078SOL    HW2 9254   4.866   1.732   0.152
 3079SOL     OW 9255   3.926   0.285   1.498
 3079SOL    HW1 9256   3.846   0.345   1.485
 3079SOL    HW2 9257   3.916   0.236   1.584
 3080SOL     OW 9258   4.188   1.743   0.323
 3080SOL    HW1 9259   4.221   1.782   0.409
 3080SOL    HW2 9260   4.264   1.736   0.258
 3081SOL     OW 9261   3.973   1.785   1.241
 3081SOL    HW1 9262   4.030   1.720   1.291
 3081SOL    HW2 9263   3.957   1.752   1.148
 3082SOL     OW 9264   4.664   1.698   0.904
 3082SOL    HW1 9265   4.744   1.641   0.925
 3082SOL    HW2 9266   4.615   1.658   0.827
 3083SOL     OW 9267   4.106   0.700   0.480
 3083SOL    HW1 9268   4.151   0.610   0.477
 3083SOL    HW2 9269   4.012   0.689   0.513
 3084SOL     OW 9270   4.338   0.122   0.117
 3084SOL    HW1 9271   4.436   0.100   0.124
 3084SOL    HW2 9272   4.307   0.105   0.024
 3085SOL     OW 9273   4.505   0.264   1.749
 3085SOL    HW1 9274   4.572   0.203   1.792
 3085SOL    HW2 9275   4.432   0.283   1.814
 3086SOL     OW 9276   4.612   1.514   1.195
 3086SOL    HW1 9277   4.589   1.489   1.101
 3086SOL    HW2 9278   4.673   1.445   1.234
 3087SOL     OW 9279   4.527   1.402   0.924
 3087SOL    HW1 9280   4.617   1.416   0.882
 3087SOL    HW2 9281   4.456   1.404   0.853
 3088SOL     OW 9282   4.646   0.503   0.899
 3088SOL    HW1 9283   4.621   0.494   0.803
 3088SOL    HW2 9284   4.694   0.421   0.930
 3089SOL     OW 9285   4.263   0.064   0.512
 3089SOL    HW1 9286   4.182   0.065   0.570
 3089SOL    HW2 9287   4.266   0.147   0.457
 3090SOL     OW 9288   4.021   0.035   0.171
 3090SOL    HW1 9289   4.070   0.119   0.150
 3090SOL    HW2 9290   4.083  -0.030   0.216
 3091SOL     OW 9291   4.659   0.236   0.480
 3091SOL    HW1 9292   4.611   0.277   0.402
 3091SOL    HW2 9293   4.758   0.234   0.461
 3092SOL     OW 9294   4.800   0.683   1.464
 3092SOL    HW1 9295   4.720   0.622   1.467
 3092SOL    HW2 9296   4.881   0.630   1.440
 3093SOL     OW 9297   4.951   1.570   0.793
 3093SOL    HW1 9298   4.972   1.644   0.728
 3093SOL    HW2 9299   5.019   1.570   0.866
 3094SOL     OW 9300   4.183   1.152   0.741
 3094SOL    HW1 9301   4.112   1.125   0.806
 3094SOL    HW2 9302   4.157   1.124   0.648
 3095SOL     OW 9303   4.995   1.797   0.591
 3095SOL    HW1 9304   5.039   1.861   0.527
 3095SOL    HW2 9305   4.945   1.849   0.661
 3096SOL     OW 9306   4.756   0.549   0.016
 3096SOL    HW1 9307   4.715   0.631  -0.023
 3096SOL    HW2 9308   4.820   0.575   0.089
 3097SOL     OW 9309   3.802   0.556   1.386
 3097SOL    HW1 9310   3.894   0.555   1.345
 3097SOL    HW2 9311   3.796   0.630   1.453
 3098SOL     OW 9312   4.285   0.222   1.147
 3098SOL    HW1 9313   4.323   0.138   1.184
 3098SOL    HW2 9314   4.197   0.241   1.191
 3099SOL     OW 9315   4.590   0.454   0.642
 3099SOL    HW1 9316   4.558   0.526   0.580
 3099SOL    HW2 9317   4.614   0.373   0.589
 3100SOL     OW 9318   4.741   0.039   0.753
 3100SOL    HW1 9319   4.669   0.044   0.684
 3100SOL    HW2 9320   4.717  -0.030   0.822
 3101SOL     OW 9321   4.212   1.385   0.174
 3101SOL    HW1 9322   4.125   1.370   0.221
 3101SOL    HW2 9323   4.195   1.411   0.079
 3102SOL     OW 9324   4.251   0.256   0.328
 3102SOL    HW1 9325   4.278   0.197   0.253
 3102SOL    HW2 9326   4.251   0.351   0.297
 3103SOL     OW 9327   4.788   1.347   1.340
 3103SOL    HW1 9328   4.708   1.324   1.395
 3103SOL    HW2 9329   4.871   1.321   1.389
 3104SOL     OW 9330   4.835   1.195   1.100
 3104SOL    HW1 9331   4.795   1.239   1.181
 3104SOL    HW2 9332   4.794   1.232   1.017
 3105SOL     OW 9333   4.639   0.089   1.402
 3105SOL    HW1 9334   4.664   0.069   1.307
 3105SOL    HW2 9335   4.711   0.145   1.444
 3106SOL     OW 9336   4.704   1.116   1.719
 3106SOL    HW1 9337   4.605   1.122   1.729
 3106SOL    HW2 9338   4.727   1.036   1.663
 3107SOL     OW 9339   4.429   1.050   0.368
 3107SOL    HW1 9340   4.415   1.057   0.467
 3107SOL    HW2 9341   4.513   0.999   0.350
 3108SOL     OW 9342   4.134   0.813   1.251
 3108SOL    HW1 9343   4.220   0.825   1.301
 3108SOL    HW2 9344   4.092   0.726   1.278
 3109SOL     OW 9345   3.788   1.564   1.331
 3109SOL    HW1 9346   3.742   1.646   1.297
 3109SOL    HW2 9347   3.886   1.583   1.340
 3110SOL     OW 9348   4.091   1.100   0.501
 3110SOL    HW1 9349   4.084   1.183   0.445
 3110SOL    HW2 9350   4.095   1.020   0.441
 3111SOL     OW 9351   4.290   0.537   0.865
 3111SOL    HW1 9352   4.302   0.603   0.791
 3111SOL    HW2 9353   4.336   0.571   0.948
 3112SOL     OW 9354   4.976   1.348   0.388
 3112SOL    HW1 9355   5.026   1.425   0.428
 3112SOL    HW2 9356   4.881   1.350   0.420
 3113SOL     OW 9357   4.078   1.510   1.329
 3113SOL    HW1 9358   4.057   1.466   1.242
 3113SOL    HW2 9359   4.175   1.536   1.332
 3114SOL     OW 9360   4.126   0.751   1.598
 3114SOL    HW1 9361   4.194   0.806   1.551
 3114SOL    HW2 9362   4.166   0.663   1.625
 3115SOL     OW 9363   4.737   0.105   1.770
 3115SOL    HW1 9364   4.743   0.190   1.718
 3115SOL    HW2 9365   4.769   0.029   1.713
 3116SOL     OW 9366   4.228   0.050   1.740
 3116SOL    HW1 9367   4.186  -0.007   1.670
 3116SOL    HW2 9368   4.162   0.119   1.772
 3117SOL     OW 9369   4.297   0.870   1.029
 3117SOL    HW1 9370   4.341   0.959   1.020
 3117SOL    HW2 9371   4.234   0.870   1.106
 3118SOL     OW 9372   5.084   0.862   1.045
 3118SOL    HW1 9373   5.009   0.862   0.979
 3118SOL    HW2 9374   5.121   0.770   1.054
 3119SOL     OW 9375   4.933   0.525   0.275
 3119SOL    HW1 9376   4.946   0.441   0.329
 3119SOL    HW2 9377   4.904   0.599   0.335
 3120SOL     OW 9378   4.031   0.213   1.231
 3120SOL    HW1 9379   4.008   0.250   1.321
 3120SOL    HW2 9380   4.001   0.118   1.225
 3121SOL     OW 9381   3.761   1.310   1.282
 3121SOL    HW1 9382   3.814   1.261   1.350
 3121SOL    HW2 9383   3.783   1.408   1.287
 3122SOL     OW 9384   4.456   0.634   1.064
 3122SOL    HW1 9385   4.515   0.608   0.988
 3122SOL    HW2 9386   4.428   0.730   1.053
 3123SOL     OW 9387   4.031   0.063   0.618
 3123SOL    HW1 9388   4.020   0.157   0.651
 3123SOL    HW2 9389   4.026   0.000   0.695
 3124SOL     OW 9390   4.747   0.766   0.966
 3124SOL    HW1 9391   4.762   0.787   1.062
 3124SOL    HW2 9392   4.717   0.671   0.957
 3125SOL     OW 9393   4.704   1.573   1.700
 3125SOL    HW1 9394   4.684   1.617   1.612
 3125SOL    HW2 9395   4.743   1.482   1.684
 3126SOL     OW 9396   4.074   0.898   1.804
 3126SOL    HW1 9397   4.150   0.942   1.852
 3126SOL    HW2 9398   4.109   0.851   1.722
 3127SOL     OW 9399   4.792   1.333   0.849
 3127SOL    HW1 9400   4.799   1.249   0.794
 3127SOL    HW2 9401   4.854   1.402   0.813
 3128SOL     OW 9402   4.043   0.810   0.949
 3128SOL    HW1 9403   4.136   0.846   0.954
 3128SOL    HW2 9404   4.037   0.725   1.001
 3129SOL     OW 9405   4.063   0.509   1.006
 3129SOL    HW1 9406   4.011   0.426   0.989
 3129SOL    HW2 9407   4.140   0.514   0.942
 3130SOL     OW 9408   4.862   0.380   1.678
 3130SOL    HW1 9409   4.817   0.443   1.742
 3130SOL    HW2 9410   4.955   0.411   1.661
 3131SOL     OW 9411   4.884   0.207   1.477
 3131SOL    HW1 9412   4.884   0.271   1.554
 3131SOL    HW2 9413   4.912   0.255   1.394
 3132SOL     OW 9414   3.732   1.326   0.200
 3132SOL    HW1 9415   3.639   1.347   0.169
 3132SOL    HW2 9416   3.742   1.227   0.213
 3133SOL     OW 9417   3.812   1.801   0.927
 3133SOL    HW1 9418   3.770   1.715   0.900
 3133SOL    HW2 9419   3.906   1.804   0.893
 3134SOL     OW 9420   4.228   1.568   0.910
 3134SOL    HW1 9421   4.294   1.642   0.919
 3134SOL    HW2 9422   4.272   1.489   0.868
 3135SOL     OW 9423   4.726   0.796   1.238
 3135SOL    HW1 9424   4.767   0.764   1.324
 3135SOL    HW2 9425   4.630   0.769   1.235
 3136SOL     OW 9426   3.764   0.544   1.114
 3136SOL    HW1 9427   3.849   0.511   1.073
 3136SOL    HW2 9428   3.777   0.559   1.212
 3137SOL     OW 9429   3.913   0.520   1.722
 3137SOL    HW1 9430   3.972   0.480   1.652
 3137SOL    HW2 9431   3.855   0.591   1.681
 3138SOL     OW 9432   4.539   0.572   0.325
 3138SOL    HW1 9433   4.546   0.483   0.279
 3138SOL    HW2 9434   4.445   0.606   0.317
 3139SOL     OW 9435   3.976   1.564   1.744
 3139SOL    HW1 9436   3.946   1.621   1.820
 3139SOL    HW2 9437   3.969   1.467   1.770
 3140SOL     OW 9438   4.395   0.464   1.269
 3140SOL    HW1 9439   4.361   0.375   1.239
 3140SOL    HW2 9440   4.421   0.518   1.189
 3141SOL     OW 9441   4.654   1.678   1.465
 3141SOL    HW1 9442   4.630   1.660   1.370
 3141SOL    HW2 9443   4.684   1.772   1.475
 3142SOL     OW 9444   4.197   0.500   0.191
 3142SOL    HW1 9445   4.258   0.580   0.195
 3142SOL    HW2 9446   4.102   0.531   0.198
 3143SOL     OW 9447   3.883   1.137   1.466
 3143SOL    HW1 9448   3.905   1.076   1.542
 3143SOL    HW2 9449   3.893   1.088   1.380
 3144SOL     OW 9450   4.976   1.731   1.128
 3144SOL    HW1 9451   5.060   1.736   1.074
 3144SOL    HW2 9452   4.953   1.635   1.146
 3145SOL     OW 9453   3.807   1.258   1.022
 3145SOL    HW1 9454   3.802   1.257   1.122
 3145SOL    HW2 9455   3.724   1.217   0.984
 3146SOL     OW 9456   4.412   1.662   1.716
 3146SOL    HW1 9457   4.356   1.743   1.725
 3146SOL    HW2 9458   4.464   1.666   1.630
 3147SOL     OW 9459   4.627   0.086   0.133
 3147SOL    HW1 9460   4.678   0.087   0.047
 3147SOL    HW2 9461   4.683   0.044   0.204
 3148SOL     OW 9462   3.854   1.794   1.851
 3148SOL    HW1 9463   3.813   1.720   1.904
 3148SOL    HW2 9464   3.918   1.845   1.909
 3149SOL     OW 9465   4.554   1.273   1.422
 3149SOL    HW1 9466   4.549   1.306   1.517
 3149SOL    HW2 9467   4.468   1.292   1.376
 3150SOL     OW 9468   4.396   1.616   0.154
 3150SOL    HW1 9469   4.405   1.626   0.055
 3150SOL    HW2 9470   4.356   1.527   0.175
 3151SOL     OW 9471   3.987   0.326   0.720
 3151SOL    HW1 9472   3.908   0.377   0.686
 3151SOL    HW2 9473   3.978   0.311   0.818
 3152SOL     OW 9474   4.546   1.002   1.372
 3152SOL    HW1 9475   4.586   1.001   1.280
 3152SOL    HW2 9476   4.556   1.094   1.412
 3153SOL     OW 9477   4.640   0.910   0.291
 3153SOL    HW1 9478   4.703   0.948   0.223
 3153SOL    HW2 9479   4.680   0.827   0.330
 3154SOL     OW 9480   4.096   1.288   1.490
 3154SOL    HW1 9481   4.083   1.381   1.456
 3154SOL    HW2 9482   4.012   1.236   1.477
 3155SOL     OW 9483   4.763   1.098   0.696
 3155SOL    HW1 9484   4.693   1.051   0.750
 3155SOL    HW2 9485   4.822   1.030   0.653
 3156SOL     OW 9486   4.738   0.236   0.971
 3156SOL    HW1 9487   4.730   0.200   0.878
 3156SOL    HW2 9488   4.736   0.160   1.036
 3157SOL     OW 9489   4.314   1.487   0.491
 3157SOL    HW1 9490   4.356   1.429   0.421
 3157SOL    HW2 9491   4.270   1.566   0.447
 3158SOL     OW 9492   3.979   1.348   0.290
 3158SOL    HW1 9493   3.883   1.349   0.263
 3158SOL    HW2 9494   3.991   1.401   0.374
 3159SOL     OW 9495   3.829   1.013   1.726
 3159SOL    HW1 9496   3.752   0.980   1.780
 3159SOL    HW2 9497   3.914   0.983   1.768
 3160SOL     OW 9498   4.396   0.203   1.489
 3160SOL    HW1 9499   4.486   0.187   1.449
 3160SOL    HW2 9500   4.404   0.208   1.588
 3161SOL     OW 9501   3.796   0.166   0.318
 3161SOL    HW1 9502   3.779   0.249   0.264
 3161SOL    HW2 9503   3.886   0.129   0.296
 3162SOL     OW 9504   4.337   0.842   1.431
 3162SOL    HW1 9505   4.393   0.923   1.414
 3162SOL    HW2 9506   4.396   0.762   1.434
 3163SOL     OW 9507   4.440   0.565   1.708
 3163SOL    HW1 9508   4.459   0.630   1.782
 3163SOL    HW2 9509   4.500   0.485   1.717
 3164SOL     OW 9510   4.114   1.741   1.560
 3164SOL    HW1 9511   4.023   1.782   1.558
 3164SOL    HW2 9512   4.107   1.647   1.592
 3165SOL     OW 9513   4.318   0.745   0.652
 3165SOL    HW1 9514   4.368   0.830   0.633
 3165SOL    HW2 9515   4.230   0.747   0.604
 3166SOL     OW 9516   4.583   1.374   0.016
 3166SOL    HW1 9517   4.537   1.389   0.104
 3166SOL    HW2 9518   4.627   1.459  -0.014
 3167SOL     OW 9519   4.385   1.790   0.953
 3167SOL    HW1 9520   4.339   1.878   0.940
 3167SOL    HW2 9521   4.484   1.802   0.946
 3168SOL     OW 9522   4.583   0.956   0.861
 3168SOL    HW1 9523   4.637   0.887   0.909
 3168SOL    HW2 9524   4.551   1.025   0.927
 3169SOL     OW 9525   4.807   0.984   0.087
 3169SOL    HW1 9526   4.784   1.037   0.005
 3169SOL    HW2 9527   4.888   0.928   0.068
 3170SOL     OW 9528   3.945   1.314   1.844
 3170SOL    HW1 9529   3.880   1.241   1.823
 3170SOL    HW2 9530   3.949   1.328   1.942
 3171SOL     OW 9531   3.803   1.240   0.653
 3171SOL    HW1 9532   3.802   1.193   0.741
 3171SOL    HW2 9533   3.885   1.212   0.602
 3172SOL     OW 9534   4.396   1.391   1.624
 3172SOL    HW1 9535   4.318   1.341   1.662
 3172SOL    HW2 9536   4.393   1.486   1.655
 3173SOL     OW 9537   4.152   0.424   0.520
 3173SOL    HW1 9538   4.182   0.352   0.458
 3173SOL    HW2 9539   4.113   0.384   0.603
 3174SOL     OW 9540   4.041   0.547   1.280
 3174SOL    HW1 9541   4.079   0.488   1.352
 3174SOL    HW2 9542   4.081   0.521   1.192
 3175SOL     OW 9543   4.536   1.586   0.687
 3175SOL    HW1 9544   4.568   1.596   0.593
 3175SOL    HW2 9545   4.457   1.524   0.689
 3176SOL     OW 9546   4.725   0.034   1.154
 3176SOL    HW1 9547   4.662  -0.038   1.123
 3176SOL    HW2 9548   4.818  -0.002   1.154
 3177SOL     OW 9549   4.494   1.330   0.301
 3177SOL    HW1 9550   4.448   1.243   0.318
 3177SOL    HW2 9551   4.585   1.327   0.342
 3178SOL     OW 9552   4.342   1.567   1.284
 3178SOL    HW1 9553   4.337   1.649   1.341
 3178SOL    HW2 9554   4.431   1.564   1.239
 3179SOL     OW 9555   4.599   1.646   0.337
 3179SOL    HW1 9556   4.522   1.611   0.283
 3179SOL    HW2 9557   4.567   1.717   0.399
 3180SOL     OW 9558   3.954   0.628   1.975
 3180SOL    HW1 9559   3.861   0.626   2.012
 3180SOL    HW2 9560   3.955   0.589   1.883
 3181SOL     OW 9561   3.949   0.275   2.858
 3181SOL    HW1 9562   3.984   0.258   2.950
 3181SOL    HW2 9563   3.861   0.230   2.846
 3182SOL     OW 9564   3.743   0.368   2.509
 3182SOL    HW1 9565   3.661   0.411   2.548
 3182SOL    HW2 9566   3.715   0.295   2.446
 3183SOL     OW 9567   4.293   1.275   3.027
 3183SOL    HW1 9568   4.200   1.268   2.990
 3183SOL    HW2 9569   4.304   1.364   3.071
 3184SOL     OW 9570   4.859   0.703   2.579
 3184SOL    HW1 9571   4.916   0.781   2.554
 3184SOL    HW2 9572   4.799   0.729   2.655
 3185SOL     OW 9573   4.492   1.144   2.885
 3185SOL    HW1 9574   4.414   1.161   2.945
 3185SOL    HW2 9575   4.526   1.231   2.849
 3186SOL     OW 9576   4.574   0.798   3.685
 3186SOL    HW1 9577   4.570   0.874   3.750
 3186SOL    HW2 9578   4.596   0.834   3.594
 3187SOL     OW 9579   4.409   1.012   2.527
 3187SOL    HW1 9580   4.478   0.996   2.597
 3187SOL    HW2 9581   4.336   1.069   2.565
 3188SOL     OW 9582   4.410   1.161   3.665
 3188SOL    HW1 9583   4.470   1.240   3.679
 3188SOL    HW2 9584   4.324   1.192   3.624
 3189SOL     OW 9585   4.059   1.435   2.923
 3189SOL    HW1 9586   3.981   1.404   2.870
 3189SOL    HW2 9587   4.117   1.493   2.866
 3190SOL     OW 9588   4.162   0.392   3.361
 3190SOL    HW1 9589   4.244   0.336   3.370
 3190SOL    HW2 9590   4.081   0.334   3.365
 3191SOL     OW 9591   3.955   1.713   2.345
 3191SOL    HW1 9592   3.989   1.790   2.399
 3191SOL    HW2 9593   3.999   1.713   2.255
 3192SOL     OW 9594   4.851   1.341   3.552
 3192SOL    HW1 9595   4.898   1.341   3.640
 3192SOL    HW2 9596   4.803   1.254   3.541
 3193SOL     OW 9597   3.954   1.434   2.400
 3193SOL    HW1 9598   3.928   1.530   2.400
 3193SOL    HW2 9599   3.883   1.380   2.445
 3194SOL     OW 9600   3.964   1.091   2.748
 3194SOL    HW1 9601   3.978   1.007   2.800
 3194SOL    HW2 9602   3.909   1.155   2.803
 3195SOL     OW 9603   4.344   1.786   3.301
 3195SOL    HW1 9604   4.252   1.769   3.336
 3195SOL    HW2 9605   4.372   1.878   3.327
 3196SOL     OW 9606   4.330   0.964   1.985
 3196SOL    HW1 9607   4.337   1.048   1.931
 3196SOL    HW2 9608   4.376   0.977   2.073
 3197SOL     OW 9609   3.846   0.643   2.425
 3197SOL    HW1 9610   3.801   0.555   2.442
 3197SOL    HW2 9611   3.845   0.697   2.509
 3198SOL     OW 9612   3.751   1.596   1.979
 3198SOL    HW1 9613   3.732   1.500   2.000
 3198SOL    HW2 9614   3.718   1.654   2.054
 3199SOL     OW 9615   3.837   0.737   3.459
 3199SOL    HW1 9616   3.925   0.724   3.504
 3199SOL    HW2 9617   3.824   0.834   3.437
 3200SOL     OW 9618   4.337   1.365   2.588
 3200SOL    HW1 9619   4.288   1.278   2.597
 3200SOL    HW2 9620   4.314   1.408   2.501
 3201SOL     OW 9621   4.533   0.004   2.364
 3201SOL    HW1 9622   4.573   0.095   2.355
 3201SOL    HW2 9623   4.433   0.012   2.370
 3202SOL     OW 9624   3.921   0.976   3.126
 3202SOL    HW1 9625   4.010   0.931   3.112
 3202SOL    HW2 9626   3.848   0.911   3.107
 3203SOL     OW 9627   4.041   0.251   3.663
 3203SOL    HW1 9628   4.112   0.322   3.669
 3203SOL    HW2 9629   3.953   0.290   3.691
 3204SOL     OW 9630   4.322   0.729   2.132
 3204SOL    HW1 9631   4.346   0.798   2.064
 3204SOL    HW2 9632   4.244   0.762   2.186
 3205SOL     OW 9633   4.531   0.605   3.327
 3205SOL    HW1 9634   4.484   0.602   3.416
 3205SOL    HW2 9635   4.480   0.550   3.261
 3206SOL     OW 9636   4.697   0.890   3.434
 3206SOL    HW1 9637   4.743   0.806   3.405
 3206SOL    HW2 9638   4.641   0.924   3.359
 3207SOL     OW 9639   4.715   0.410   3.104
 3207SOL    HW1 9640   4.638   0.444   3.158
 3207SOL    HW2 9641   4.681   0.359   3.025
 3208SOL     OW 9642   4.765   0.701   2.291
 3208SOL    HW1 9643   4.791   0.697   2.387
 3208SOL    HW2 9644   4.680   0.650   2.277
 3209SOL     OW 9645   3.800   0.811   2.651
 3209SOL    HW1 9646   3.899   0.799   2.660
 3209SOL    HW2 9647   3.776   0.906   2.672
 3210SOL     OW 9648   3.854   1.821   3.433
 3210SOL    HW1 9649   3.844   1.806   3.532
 3210SOL    HW2 9650   3.768   1.857   3.397
 3211SOL     OW 9651   4.589   0.348   2.057
 3211SOL    HW1 9652   4.648   0.411   2.008
 3211SOL    HW2 9653   4.608   0.254   2.028
 3212SOL     OW 9654   4.274   0.196   2.747
 3212SOL    HW1 9655   4.269   0.191   2.847
 3212SOL    HW2 9656   4.276   0.292   2.718
 3213SOL     OW 9657   4.732   1.456   2.339
 3213SOL    HW1 9658   4.686   1.528   2.287
 3213SOL    HW2 9659   4.728   1.476   2.437
 3214SOL     OW 9660   4.075   1.801   2.715
 3214SOL    HW1 9661   4.125   1.715   2.721
 3214SOL    HW2 9662   4.140   1.878   2.712
 3215SOL     OW 9663   4.951   1.550   3.368
 3215SOL    HW1 9664   4.957   1.473   3.432
 3215SOL    HW2 9665   4.899   1.524   3.288
 3216SOL     OW 9666   4.045   0.943   2.104
 3216SOL    HW1 9667   4.127   0.982   2.062
 3216SOL    HW2 9668   4.018   0.861   2.055
 3217SOL     OW 9669   4.185   1.266   3.589
 3217SOL    HW1 9670   4.135   1.267   3.503
 3217SOL    HW2 9671   4.122   1.248   3.665
 3218SOL     OW 9672   4.835   1.776   2.099
 3218SOL    HW1 9673   4.775   1.714   2.149
 3218SOL    HW2 9674   4.866   1.732   2.014
 3219SOL     OW 9675   3.926   0.285   3.360
 3219SOL    HW1 9676   3.846   0.345   3.347
 3219SOL    HW2 9677   3.916   0.236   3.446
 3220SOL     OW 9678   4.188   1.743   2.185
 3220SOL    HW1 9679   4.221   1.782   2.271
 3220SOL    HW2 9680   4.264   1.736   2.120
 3221SOL     OW 9681   3.973   1.785   3.103
 3221SOL    HW1 9682   4.030   1.720   3.153
 3221SOL    HW2 9683   3.957   1.752   3.010
 3222SOL     OW 9684   4.664   1.698   2.766
 3222SOL    HW1 9685   4.744   1.641   2.787
 3222SOL    HW2 9686   4.615   1.658   2.689
 3223SOL     OW 9687   4.106   0.700   2.342
 3223SOL    HW1 9688   4.151   0.610   2.339
 3223SOL    HW2 9689   4.012   0.689   2.375
 3224SOL     OW 9690   4.338   0.122   1.979
 3224SOL    HW1 9691   4.436   0.100   1.986
 3224SOL    HW2 9692   4.307   0.105   1.886
 3225SOL     OW 9693   4.505   0.264   3.611
 3225SOL    HW1 9694   4.572   0.203   3.654
 3225SOL    HW2 9695   4.432   0.283   3.676
 3226SOL     OW 9696   4.612   1.514   3.057
 3226SOL    HW1 9697   4.589   1.489   2.963
 3226SOL    HW2 9698   4.673   1.445   3.096
 3227SOL     OW 9699   4.527   1.402   2.786
 3227SOL    HW1 9700   4.617   1.416   2.744
 3227SOL    HW2 9701   4.456   1.404   2.715
 3228SOL     OW 9702   4.646   0.503   2.761
 3228SOL    HW1 9703   4.621   0.494   2.665
 3228SOL    HW2 9704   4.694   0.421   2.792
 3229SOL     OW 9705   4.263   0.064   2.374
 3229SOL    HW1 9706   4.182   0.065   2.432
 3229SOL    HW2 9707   4.266   0.147   2.319
 3230SOL     OW 9708   4.021   0.035   2.033
 3230SOL    HW1 9709   4.070   0.119   2.012
 3230SOL    HW2 9710   4.083  -0.030   2.078
 3231SOL     OW 9711   4.659   0.236   2.342
 3231SOL    HW1 9712   4.611   0.277   2.264
 3231SOL    HW2 9713   4.758   0.234   2.323
 3232SOL     OW 9714   4.800   0.683   3.326
 3232SOL    HW1 9715   4.720   0.622   3.329
 3232SOL    HW2 9716   4.881   0.630   3.302
 3233SOL     OW 9717   4.951   1.570   2.655
 3233SOL    HW1 9718   4.972   1.644   2.590
 3233SOL    HW2 9719   5.019   1.570   2.728
 3234SOL     OW 9720   4.183   1.152   2.603
 3234SOL    HW1 9721   4.112   1.125   2.668
 3234SOL    HW2 9722   4.157   1.124   2.510
 3235SOL     OW 9723   4.995   1.797   2.453
 3235SOL    HW1 9724   5.039   1.861   2.389
 3235SOL    HW2 9725   4.945   1.849   2.523
 3236SOL     OW 9726   4.756   0.549   1.878
 3236SOL    HW1 9727   4.715   0.631   1.839
 3236SOL    HW2 9728   4.820   0.575   1.951
 3237SOL     OW 9729   3.802   0.556   3.248
 3237SOL    HW1 9730   3.894   0.555   3.207
 3237SOL    HW2 9731   3.796   0.630   3.315
 3238SOL     OW 9732   4.285   0.222   3.009
 3238SOL    HW1 9733   4.323   0.138   3.046
 3238SOL    HW2 9734   4.197   0.241   3.053
 3239SOL     OW 9735   4.590   0.454   2.504
 3239SOL    HW1 9736   4.558   0.526   2.442
 3239SOL    HW2 9737   4.614   0.373   2.451
 3240SOL     OW 9738   4.741   0.039   2.615
 3240SOL    HW1 9739   4.669   0.044   2.546
 3240SOL    HW2 9740   4.717  -0.030   2.684
 3241SOL     OW 9741   4.212   1.385   2.036
 3241SOL    HW1 9742   4.125   1.370   2.083
 3241SOL    HW2 9743   4.195   1.411   1.941
 3242SOL     OW 9744   4.251   0.256   2.190
 3242SOL    HW1 9745   4.278   0.197   2.115
 3242SOL    HW2 9746   4.251   0.351   2.159
 3243SOL     OW 9747   4.788   1.347   3.202
 3243SOL    HW1 9748   4.708   1.324   3.257
 3243SOL    HW2 9749   4.871   1.321   3.251
 3244SOL     OW 9750   4.835   1.195   2.962
 3244SOL    HW1 9751   4.795   1.239   3.043
 3244SOL    HW2 9752   4.794   1.232   2.879
 3245SOL     OW 9753   4.639   0.089   3.264
 3245SOL    HW1 9754   4.664   0.069   3.169
 3245SOL    HW2 9755   4.711   0.145   3.306
 3246SOL     OW 9756   4.704   1.116   3.581
 3246SOL    HW1 9757   4.605   1.122   3.591
 3246SOL    HW2 9758   4.727   1.036   3.525
 3247SOL     OW 9759   4.429   1.050   2.230
 3247SOL    HW1 9760   4.415   1.057   2.329
 3247SOL    HW2 9761   4.513   0.999   2.212
 3248SOL     OW 9762   4.134   0.813   3.113
 3248SOL    HW1 9763   4.220   0.825   3.163
 3248SOL    HW2 9764   4.092   0.726   3.140
 3249SOL     OW 9765   3.788   1.564   3.193
 3249SOL    HW1 9766   3.742   1.646   3.159
 3249SOL    HW2 9767   3.886   1.583   3.202
 3250SOL     OW 9768   4.091   1.100   2.363
 3250SOL    HW1 9769   4.084   1.183   2.307
 3250SOL    HW2 9770   4.095   1.020   2.303
 3251SOL     OW 9771   4.290   0.537   2.727
 3251SOL    HW1 9772   4.302   0.603   2.653
 3251SOL    HW2 9773   4.336   0.571   2.810
 3252SOL     OW 9774   4.976   1.348   2.250
 3252SOL    HW1 9775   5.026   1.425   2.290
 3252SOL    HW2 9776   4.881   1.350   2.282
 3253SOL     OW 9777   4.078   1.510   3.191
 3253SOL    HW1 9778   4.057   1.466   3.104
 3253SOL    HW2 9779   4.175   1.536   3.194
 3254SOL     OW 9780   4.126   0.751   3.460
 3254SOL    HW1 9781   4.194   0.806   3.413
 3254SOL    HW2 9782   4.166   0.663   3.487
 3255SOL     OW 9783   4.737   0.105   3.632
 3255SOL    HW1 9784   4.743   0.190   3.580
 3255SOL    HW2 9785   4.769   0.029   3.575
 3256SOL     OW 9786   4.228   0.050   3.602
 3256SOL    HW1 9787   4.186  -0.007   3.532
 3256SOL    HW2 9788   4.162   0.119   3.634
 3257SOL     OW 9789   4.297   0.870   2.891
 3257SOL    HW1 9790   4.341   0.959   2.882
 3257SOL    HW2 9791   4.234   0.870   2.968
 3258SOL     OW 9792   5.084   0.862   2.907
 3258SOL    HW1 9793   5.009   0.862   2.841
 3258SOL    HW2 9794   5.121   0.770   2.916
 3259SOL     OW 9795   4.933   0.525   2.137
 3259SOL    HW1 9796   4.946   0.441   2.191
 3259SOL    HW2 9797   4.904   0.599   2.197
 3260SOL     OW 9798   4.031   0.213   3.093
 3260SOL    HW1 9799   4.008   0.250   3.183
 3260SOL    HW2 9800   4.001   0.118   3.087
 3261SOL     OW 9801   3.761   1.310   3.144
 3261SOL    HW1 9802   3.814   1.261   3.212
 3261SOL    HW2 9803   3.783   1.408   3.149
 3262SOL     OW 9804   4.456   0.634   2.926
 3262SOL    HW1 9805   4.515   0.608   2.850
 3262SOL    HW2 9806   4.428   0.730   2.915
 3263SOL     OW 9807   4.031   0.063   2.480
 3263SOL    HW1 9808   4.020   0.157   2.513
 3263SOL    HW2 9809   4.026   0.000   2.557
 3264SOL     OW 9810   4.747   0.766   2.828
 3264SOL    HW1 9811   4.762   0.787   2.924
 3264SOL    HW2 9812   4.717   0.671   2.819
 3265SOL     OW 9813   4.704   1.573   3.562
 3265SOL    HW1 9814   4.684   1.617   3.474
 3265SOL    HW2 9815   4.743   1.482   3.546
 3266SOL     OW 9816   4.074   0.898   3.666
 3266SOL    HW1 9817   4.150   0.942   3.714
 3266SOL    HW2 9818   4.109   0.851   3.584
 3267SOL     OW 9819   5.264   0.274   1.987
 3267SOL    HW1 9820   5.203   0.199   2.010
 3267SOL    HW2 9821   5.286   0.326   2.070
 3268SOL     OW 9822   4.792   1.333   2.711
 3268SOL    HW1 9823   4.799   1.249   2.656
 3268SOL    HW2 9824   4.854   1.402   2.675
 3269SOL     OW 9825   4.043   0.810   2.811
 3269SOL    HW1 9826   4.136   0.846   2.816
 3269SOL    HW2 9827   4.037   0.725   2.863
 3270SOL     OW 9828   4.063   0.509   2.868
 3270SOL    HW1 9829   4.011   0.426   2.851
 3270SOL    HW2 9830   4.140   0.514   2.804
 3271SOL     OW 9831   4.862   0.380   3.540
 3271SOL    HW1 9832   4.817   0.443   3.604
 3271SOL    HW2 9833   4.955   0.411   3.523
 3272SOL     OW 9834   4.884   0.207   3.339
 3272SOL    HW1 9835   4.884   0.271   3.416
 3272SOL    HW2 9836   4.912   0.255   3.256
 3273SOL     OW 9837   3.732   1.326   2.062
 3273SOL    HW1 9838   3.639   1.347   2.031
 3273SOL    HW2 9839   3.742   1.227   2.075
 3274SOL     OW 9840   3.812   1.801   2.789
 3274SOL    HW1 9841   3.770   1.715   2.762
 3274SOL    HW2 9842   3.906   1.804   2.755
 3275SOL     OW 9843   4.228   1.568   2.772
 3275SOL    HW1 9844   4.294   1.642   2.781
 3275SOL    HW2 9845   4.272   1.489   2.730
 3276SOL     OW 9846   4.726   0.796   3.100
 3276SOL    HW1 9847   4.767   0.764   3.186
 3276SOL    HW2 9848   4.630   0.769   3.097
 3277SOL     OW 9849   3.764   0.544   2.976
 3277SOL    HW1 9850   3.849   0.511   2.935
 3277SOL    HW2 9851   3.777   0.559   3.074
 3278SOL     OW 9852   3.913   0.520   3.584
 3278SOL    HW1 9853   3.972   0.480   3.514
 3278SOL    HW2 9854   3.855   0.591   3.543
 3279SOL     OW 9855   4.539   0.572   2.187
 3279SOL    HW1 9856   4.546   0.483   2.141
 3279SOL    HW2 9857   4.445   0.606   2.179
 3280SOL     OW 9858   3.976   1.564   3.606
 3280SOL    HW1 9859   3.946   1.621   3.682
 3280SOL    HW2 9860   3.969   1.467   3.632
 3281SOL     OW 9861   4.395   0.464   3.131
 3281SOL    HW1 9862   4.361   0.375   3.101
 3281SOL    HW2 9863   4.421   0.518   3.051
 3282SOL     OW 9864   4.654   1.678   3.327
 3282SOL    HW1 9865   4.630   1.660   3.232
 3282SOL    HW2 9866   4.684   1.772   3.337
 3283SOL     OW 9867   4.197   0.500   2.053
 3283SOL    HW1 9868   4.258   0.580   2.057
 3283SOL    HW2 9869   4.102   0.531   2.060
 3284SOL     OW 9870   3.883   1.137   3.328
 3284SOL    HW1 9871   3.905   1.076   3.404
 3284SOL    HW2 9872   3.893   1.088   3.242
 3285SOL     OW 9873   4.976   1.731   2.990
 3285SOL    HW1 9874   5.060   1.736   2.936
 3285SOL    HW2 9875   4.953   1.635   3.008
 3286SOL     OW 9876   3.807   1.258   2.884
 3286SOL    HW1 9877   3.802   1.257   2.984
 3286SOL    HW2 9878   3.724   1.217   2.846
 3287SOL     OW 9879   4.412   1.662   3.578
 3287SOL    HW1 9880   4.356   1.743   3.587
 3287SOL    HW2 9881   4.464   1.666   3.492
 3288SOL     OW 9882   3.854   1.794   3.713
 3288SOL    HW1 9883   3.813   1.720   3.766
 3288SOL    HW2 9884   3.918   1.845   3.771
 3289SOL     OW 9885   4.554   1.273   3.284
 3289SOL    HW1 9886   4.549   1.306   3.379
 3289SOL    HW2 9887   4.468   1.292   3.238
 3290SOL     OW 9888   4.396   1.616   2.016
 3290SOL    HW1 9889   4.405   1.626   1.917
 3290SOL    HW2 9890   4.356   1.527   2.037
 3291SOL     OW 9891   3.987   0.326   2.582
 3291SOL    HW1 9892   3.908   0.377   2.548
 3291SOL    HW2 9893   3.978   0.311   2.680
 3292SOL     OW 9894   4.546   1.002   3.234
 3292SOL    HW1 9895   4.586   1.001   3.142
 3292SOL    HW2 9896   4.556   1.094   3.274
 3293SOL     OW 9897   4.640   0.910   2.153
 3293SOL    HW1 9898   4.703   0.948   2.085
 3293SOL    HW2 9899   4.680   0.827   2.192
 3294SOL     OW 9900   4.096   1.288   3.352
 3294SOL    HW1 9901   4.083   1.381   3.318
 3294SOL    HW2 9902   4.012   1.236   3.339
 3295SOL     OW 9903   4.763   1.098   2.558
 3295SOL    HW1 9904   4.693   1.051   2.612
 3295SOL    HW2 9905   4.822   1.030   2.515
 3296SOL     OW 9906   4.738   0.236   2.833
 3296SOL    HW1 9907   4.730   0.200   2.740
 3296SOL    HW2 9908   4.736   0.160   2.898
 3297SOL     OW 9909   4.314   1.487   2.353
 3297SOL    HW1 9910   4.356   1.429   2.283
 3297SOL    HW2 9911   4.270   1.566   2.309
 3298SOL     OW 9912   3.979   1.348   2.152
 3298SOL    HW1 9913   3.883   1.349   2.125
 3298SOL    HW2 9914   3.991   1.401   2.236
 3299SOL     OW 9915   3.829   1.013   3.588
 3299SOL    HW1 9916   3.752   0.980   3.642
 3299SOL    HW2 9917   3.914   0.983   3.630
 3300SOL     OW 9918   4.396   0.203   3.351
 3300SOL    HW1 9919   4.486   0.187   3.311
 3300SOL    HW2 9920   4.404   0.208   3.450
 3301SOL     OW 9921   3.799   0.345   1.895
 3301SOL    HW1 9922   3.707   0.317   1.866
 3301SOL    HW2 9923   3.830   0.422   1.839
 3302SOL     OW 9924   3.796   0.166   2.180
 3302SOL    HW1 9925   3.779   0.249   2.126
 3302SOL    HW2 9926   3.886   0.129   2.158
 3303SOL     OW 9927   4.337   0.842   3.293
 3303SOL    HW1 9928   4.393   0.923   3.276
 3303SOL    HW2 9929   4.396   0.762   3.296
 3304SOL     OW 9930   4.440   0.565   3.570
 3304SOL    HW1 9931   4.459   0.630   3.644
 3304SOL    HW2 9932   4.500   0.485   3.579
 3305SOL     OW 9933   4.114   1.741   3.422
 3305SOL    HW1 9934   4.023   1.782   3.420
 3305SOL    HW2 9935   4.107   1.647   3.454
 3306SOL     OW 9936   4.318   0.745   2.514
 3306SOL    HW1 9937   4.368   0.830   2.495
 3306SOL    HW2 9938   4.230   0.747   2.466
 3307SOL     OW 9939   4.583   1.374   1.878
 3307SOL    HW1 9940   4.537   1.389   1.966
 3307SOL    HW2 9941   4.627   1.459   1.848
 3308SOL     OW 9942   4.385   1.790   2.815
 3308SOL    HW1 9943   4.339   1.878   2.802
 3308SOL    HW2 9944   4.484   1.802   2.808
 3309SOL     OW 9945   4.583   0.956   2.723
 3309SOL    HW1 9946   4.637   0.887   2.771
 3309SOL    HW2 9947   4.551   1.025   2.789
 3310SOL     OW 9948   4.807   0.984   1.949
 3310SOL    HW1 9949   4.784   1.037   1.867
 3310SOL    HW2 9950   4.888   0.928   1.930
 3311SOL     OW 9951   3.945   1.314   3.706
 3311SOL    HW1 9952   3.880   1.241   3.685
 3311SOL    HW2 9953   3.949   1.328   3.804
 3312SOL     OW 9954   3.803   1.240   2.515
 3312SOL    HW1 9955   3.802   1.193   2.603
 3312SOL    HW2 9956   3.885   1.212   2.464
 3313SOL     OW 9957   4.396   1.391   3.486
 3313SOL    HW1 9958   4.318   1.341   3.524
 3313SOL    HW2 9959   4.393   1.486   3.517
 3314SOL     OW 9960   4.152   0.424   2.382
 3314SOL    HW1 9961   4.182   0.352   2.320
 3314SOL    HW2 9962   4.113   0.384   2.465
 3315SOL     OW 9963   4.041   0.547   3.142
 3315SOL    HW1 9964   4.079   0.488   3.214
 3315SOL    HW2 9965   4.081   0.521   3.054
 3316SOL     OW 9966   4.536   1.586   2.549
 3316SOL    HW1 9967   4.568   1.596   2.455
 3316SOL    HW2 9968   4.457   1.524   2.551
 3317SOL     OW 9969   4.725   0.034   3.016
 3317SOL    HW1 9970   4.662  -0.038   2.985
 3317SOL    HW2 9971   4.818  -0.002   3.016
 3318SOL     OW 9972   4.494   1.330   2.163
 3318SOL    HW1 9973   4.448   1.243   2.180
 3318SOL    HW2 9974   4.585   1.327   2.204
 3319SOL     OW 9975   4.342   1.567   3.146
 3319SOL    HW1 9976   4.337   1.649   3.203
 3319SOL    HW2 9977   4.431   1.564   3.101
 3320SOL     OW 9978   3.763   1.077   2.162
 3320SOL    HW1 9979   3.862   1.066   2.153
 3320SOL    HW2 9980   3.723   0.991   2.194
 3321SOL     OW 9981   4.599   1.646   2.199
 3321SOL    HW1 9982   4.522   1.611   2.145
 3321SOL    HW2 9983   4.567   1.717   2.261
 3322SOL     OW 9984   3.954   0.628   3.837
 3322SOL    HW1 9985   3.861   0.626   3.874
 3322SOL    HW2 9986   3.955   0.589   3.745
 3323SOL     OW 9987   3.949   0.275   4.720
 3323SOL    HW1 9988   3.984   0.258   4.812
 3323SOL    HW2 9989   3.861   0.230   4.708
 3324SOL     OW 9990   3.743   0.368   4.371
 3324SOL    HW1 9991   3.661   0.411   4.410
 3324SOL    HW2 9992   3.715   0.295   4.308
 3325SOL     OW 9993   4.293   1.275   4.889
 3325SOL    HW1 9994   4.200   1.268   4.852
 3325SOL    HW2 9995   4.304   1.364   4.933
 3326SOL     OW 9996   4.859   0.703   4.441
 3326SOL    HW1 9997   4.916   0.781   4.416
 3326SOL    HW2 9998   4.799   0.729   4.517
 3327SOL     OW 9999   4.492   1.144   4.747
 3327SOL    HW110000   4.414   1.161   4.807
 3327SOL    HW210001   4.526   1.231   4.711
 3328SOL     OW10002   4.409   1.012   4.389
 3328SOL    HW110003   4.478   0.996   4.459
 3328SOL    HW210004   4.336   1.069   4.427
 3329SOL     OW10005   4.059   1.435   4.785
 3329SOL    HW110006   3.981   1.404   4.732
 3329SOL    HW210007   4.117   1.493   4.728
 3330SOL     OW10008   5.184   1.505   5.063
 3330SOL    HW110009   5.208   1.599   5.089
 3330SOL    HW210010   5.168   1.451   5.145
 3331SOL     OW10011   3.955   1.713   4.207
 3331SOL    HW110012   3.989   1.790   4.261
 3331SOL    HW210013   3.999   1.713   4.117
 3332SOL     OW10014   3.954   1.434   4.262
 3332SOL    HW110015   3.928   1.530   4.262
 3332SOL    HW210016   3.883   1.380   4.307
 3333SOL     OW10017   3.964   1.091   4.610
 3333SOL    HW110018   3.978   1.007   4.662
 3333SOL    HW210019   3.909   1.155   4.665
 3334SOL     OW10020   4.330   0.964   3.847
 3334SOL    HW110021   4.337   1.048   3.793
 3334SOL    HW210022   4.376   0.977   3.935
 3335SOL     OW10023   3.846   0.643   4.287
 3335SOL    HW110024   3.801   0.555   4.304
 3335SOL    HW210025   3.845   0.697   4.371
 3336SOL     OW10026   3.751   1.596   3.841
 3336SOL    HW110027   3.732   1.500   3.862
 3336SOL    HW210028   3.718   1.654   3.916
 3337SOL     OW10029   4.337   1.365   4.450
 3337SOL    HW110030   4.288   1.278   4.459
 3337SOL    HW210031   4.314   1.408   4.363
 3338SOL     OW10032   4.533   0.004   4.226
 3338SOL    HW110033   4.573   0.095   4.217
 3338SOL    HW210034   4.433   0.012   4.232
 3339SOL     OW10035   3.921   0.976   4.988
 3339SOL    HW110036   4.010   0.931   4.974
 3339SOL    HW210037   3.848   0.911   4.969
 3340SOL     OW10038   4.322   0.729   3.994
 3340SOL    HW110039   4.346   0.798   3.926
 3340SOL    HW210040   4.244   0.762   4.048
 3341SOL     OW10041   4.765   0.701   4.153
 3341SOL    HW110042   4.791   0.697   4.249
 3341SOL    HW210043   4.680   0.650   4.139
 3342SOL     OW10044   3.800   0.811   4.513
 3342SOL    HW110045   3.899   0.799   4.522
 3342SOL    HW210046   3.776   0.906   4.534
 3343SOL     OW10047   4.589   0.348   3.919
 3343SOL    HW110048   4.648   0.411   3.870
 3343SOL    HW210049   4.608   0.254   3.890
 3344SOL     OW10050   4.274   0.196   4.609
 3344SOL    HW110051   4.269   0.191   4.709
 3344SOL    HW210052   4.276   0.292   4.580
 3345SOL     OW10053   4.732   1.456   4.201
 3345SOL    HW110054   4.686   1.528   4.149
 3345SOL    HW210055   4.728   1.476   4.299
 3346SOL     OW10056   4.075   1.801   4.577
 3346SOL    HW110057   4.125   1.715   4.583
 3346SOL    HW210058   4.140   1.878   4.574
 3347SOL     OW10059   4.045   0.943   3.966
 3347SOL    HW110060   4.127   0.982   3.924
 3347SOL    HW210061   4.018   0.861   3.917
 3348SOL     OW10062   4.835   1.776   3.961
 3348SOL    HW110063   4.775   1.714   4.011
 3348SOL    HW210064   4.866   1.732   3.876
 3349SOL     OW10065   4.188   1.743   4.047
 3349SOL    HW110066   4.221   1.782   4.133
 3349SOL    HW210067   4.264   1.736   3.982
 3350SOL     OW10068   3.973   1.785   4.965
 3350SOL    HW110069   4.030   1.720   5.015
 3350SOL    HW210070   3.957   1.752   4.872
 3351SOL     OW10071   4.664   1.698   4.628
 3351SOL    HW110072   4.744   1.641   4.649
 3351SOL    HW210073   4.615   1.658   4.551
 3352SOL     OW10074   4.106   0.700   4.204
 3352SOL    HW110075   4.151   0.610   4.201
 3352SOL    HW210076   4.012   0.689   4.237
 3353SOL     OW10077   4.338   0.122   3.841
 3353SOL    HW110078   4.436   0.100   3.848
 3353SOL    HW210079   4.307   0.105   3.748
 3354SOL     OW10080   4.527   1.402   4.648
 3354SOL    HW110081   4.617   1.416   4.606
 3354SOL    HW210082   4.456   1.404   4.577
 3355SOL     OW10083   4.646   0.503   4.623
 3355SOL    HW110084   4.621   0.494   4.527
 3355SOL    HW210085   4.694   0.421   4.654
 3356SOL     OW10086   4.263   0.064   4.236
 3356SOL    HW110087   4.182   0.065   4.294
 3356SOL    HW210088   4.266   0.147   4.181
 3357SOL     OW10089   4.021   0.035   3.895
 3357SOL    HW110090   4.070   0.119   3.874
 3357SOL    HW210091   4.083  -0.030   3.940
 3358SOL     OW10092   4.659   0.236   4.204
 3358SOL    HW110093   4.611   0.277   4.126
 3358SOL    HW210094   4.758   0.234   4.185
 3359SOL     OW10095   4.951   1.570   4.517
 3359SOL    HW110096   4.972   1.644   4.452
 3359SOL    HW210097   5.019   1.570   4.590
 3360SOL     OW10098   4.183   1.152   4.465
 3360SOL    HW110099   4.112   1.125   4.530
 3360SOL    HW210100   4.157   1.124   4.372
 3361SOL     OW10101   4.995   1.797   4.315
 3361SOL    HW110102   5.039   1.861   4.251
 3361SOL    HW210103   4.945   1.849   4.385
 3362SOL     OW10104   4.756   0.549   3.740
 3362SOL    HW110105   4.715   0.631   3.701
 3362SOL    HW210106   4.820   0.575   3.813
 3363SOL     OW10107   4.590   0.454   4.366
 3363SOL    HW110108   4.558   0.526   4.304
 3363SOL    HW210109   4.614   0.373   4.313
 3364SOL     OW10110   4.741   0.039   4.477
 3364SOL    HW110111   4.669   0.044   4.408
 3364SOL    HW210112   4.717  -0.030   4.546
 3365SOL     OW10113   4.212   1.385   3.898
 3365SOL    HW110114   4.125   1.370   3.945
 3365SOL    HW210115   4.195   1.411   3.803
 3366SOL     OW10116   4.251   0.256   4.052
 3366SOL    HW110117   4.278   0.197   3.977
 3366SOL    HW210118   4.251   0.351   4.021
 3367SOL     OW10119   4.835   1.195   4.824
 3367SOL    HW110120   4.795   1.239   4.905
 3367SOL    HW210121   4.794   1.232   4.741
 3368SOL     OW10122   4.429   1.050   4.092
 3368SOL    HW110123   4.415   1.057   4.191
 3368SOL    HW210124   4.513   0.999   4.074
 3369SOL     OW10125   4.134   0.813   4.975
 3369SOL    HW110126   4.220   0.825   5.025
 3369SOL    HW210127   4.092   0.726   5.002
 3370SOL     OW10128   4.091   1.100   4.225
 3370SOL    HW110129   4.084   1.183   4.169
 3370SOL    HW210130   4.095   1.020   4.165
 3371SOL     OW10131   4.290   0.537   4.589
 3371SOL    HW110132   4.302   0.603   4.515
 3371SOL    HW210133   4.336   0.571   4.672
 3372SOL     OW10134   4.976   1.348   4.112
 3372SOL    HW110135   5.026   1.425   4.152
 3372SOL    HW210136   4.881   1.350   4.144
 3373SOL     OW10137   4.297   0.870   4.753
 3373SOL    HW110138   4.341   0.959   4.744
 3373SOL    HW210139   4.234   0.870   4.830
 3374SOL     OW10140   5.084   0.862   4.769
 3374SOL    HW110141   5.009   0.862   4.703
 3374SOL    HW210142   5.121   0.770   4.778
 3375SOL     OW10143   4.933   0.525   3.999
 3375SOL    HW110144   4.946   0.441   4.053
 3375SOL    HW210145   4.904   0.599   4.059
 3376SOL     OW10146   4.031   0.213   4.955
 3376SOL    HW110147   4.008   0.250   5.045
 3376SOL    HW210148   4.001   0.118   4.949
 3377SOL     OW10149   3.761   1.310   5.006
 3377SOL    HW110150   3.814   1.261   5.074
 3377SOL    HW210151   3.783   1.408   5.011
 3378SOL     OW10152   4.456   0.634   4.788
 3378SOL    HW110153   4.515   0.608   4.712
 3378SOL    HW210154   4.428   0.730   4.777
 3379SOL     OW10155   4.031   0.063   4.342
 3379SOL    HW110156   4.020   0.157   4.375
 3379SOL    HW210157   4.026   0.000   4.419
 3380SOL     OW10158   4.747   0.766   4.690
 3380SOL    HW110159   4.762   0.787   4.786
 3380SOL    HW210160   4.717   0.671   4.681
 3381SOL     OW10161   5.264   0.274   3.849
 3381SOL    HW110162   5.203   0.199   3.872
 3381SOL    HW210163   5.286   0.326   3.932
 3382SOL     OW10164   4.792   1.333   4.573
 3382SOL    HW110165   4.799   1.249   4.518
 3382SOL    HW210166   4.854   1.402   4.537
 3383SOL     OW10167   4.043   0.810   4.673
 3383SOL    HW110168   4.136   0.846   4.678
 3383SOL    HW210169   4.037   0.725   4.725
 3384SOL     OW10170   4.063   0.509   4.730
 3384SOL    HW110171   4.011   0.426   4.713
 3384SOL    HW210172   4.140   0.514   4.666
 3385SOL     OW10173   3.732   1.326   3.924
 3385SOL    HW110174   3.639   1.347   3.893
 3385SOL    HW210175   3.742   1.227   3.937
 3386SOL     OW10176   3.812   1.801   4.651
 3386SOL    HW110177   3.770   1.715   4.624
 3386SOL    HW210178   3.906   1.804   4.617
 3387SOL     OW10179   4.228   1.568   4.634
 3387SOL    HW110180   4.294   1.642   4.643
 3387SOL    HW210181   4.272   1.489   4.592
 3388SOL     OW10182   4.726   0.796   4.962
 3388SOL    HW110183   4.767   0.764   5.048
 3388SOL    HW210184   4.630   0.769   4.959
 3389SOL     OW10185   3.764   0.544   4.838
 3389SOL    HW110186   3.849   0.511   4.797
 3389SOL    HW210187   3.777   0.559   4.936
 3390SOL     OW10188   4.539   0.572   4.049
 3390SOL    HW110189   4.546   0.483   4.003
 3390SOL    HW210190   4.445   0.606   4.041
 3391SOL     OW10191   4.395   0.464   4.993
 3391SOL    HW110192   4.361   0.375   4.963
 3391SOL    HW210193   4.421   0.518   4.913
 3392SOL     OW10194   4.197   0.500   3.915
 3392SOL    HW110195   4.258   0.580   3.919
 3392SOL    HW210196   4.102   0.531   3.922
 3393SOL     OW10197   3.883   1.137   5.190
 3393SOL    HW110198   3.905   1.076   5.266
 3393SOL    HW210199   3.893   1.088   5.104
 3394SOL     OW10200   4.976   1.731   4.852
 3394SOL    HW110201   5.060   1.736   4.798
 3394SOL    HW210202   4.953   1.635   4.870
 3395SOL     OW10203   3.807   1.258   4.746
 3395SOL    HW110204   3.802   1.257   4.846
 3395SOL    HW210205   3.724   1.217   4.708
 3396SOL     OW10206   4.396   1.616   3.878
 3396SOL    HW110207   4.405   1.626   3.779
 3396SOL    HW210208   4.356   1.527   3.899
 3397SOL     OW10209   3.987   0.326   4.444
 3397SOL    HW110210   3.908   0.377   4.410
 3397SOL    HW210211   3.978   0.311   4.542
 3398SOL     OW10212   4.546   1.002   5.096
 3398SOL    HW110213   4.586   1.001   5.004
 3398SOL    HW210214   4.556   1.094   5.136
 3399SOL     OW10215   4.640   0.910   4.015
 3399SOL    HW110216   4.703   0.948   3.947
 3399SOL    HW210217   4.680   0.827   4.054
 3400SOL     OW10218   5.338   1.292   5.013
 3400SOL    HW110219   5.398   1.295   5.093
 3400SOL    HW210220   5.263   1.356   5.026
 3401SOL     OW10221   4.763   1.098   4.420
 3401SOL    HW110222   4.693   1.051   4.474
 3401SOL    HW210223   4.822   1.030   4.377
 3402SOL     OW10224   4.738   0.236   4.695
 3402SOL    HW110225   4.730   0.200   4.602
 3402SOL    HW210226   4.736   0.160   4.760
 3403SOL     OW10227   4.314   1.487   4.215
 3403SOL    HW110228   4.356   1.429   4.145
 3403SOL    HW210229   4.270   1.566   4.171
 3404SOL     OW10230   3.979   1.348   4.014
 3404SOL    HW110231   3.883   1.349   3.987
 3404SOL    HW210232   3.991   1.401   4.098
 3405SOL     OW10233   3.799   0.345   3.757
 3405SOL    HW110234   3.707   0.317   3.728
 3405SOL    HW210235   3.830   0.422   3.701
 3406SOL     OW10236   3.796   0.166   4.042
 3406SOL    HW110237   3.779   0.249   3.988
 3406SOL    HW210238   3.886   0.129   4.020
 3407SOL     OW10239   4.318   0.745   4.376
 3407SOL    HW110240   4.368   0.830   4.357
 3407SOL    HW210241   4.230   0.747   4.328
 3408SOL     OW10242   4.583   1.374   3.740
 3408SOL    HW110243   4.537   1.389   3.828
 3408SOL    HW210244   4.627   1.459   3.710
 3409SOL     OW10245   4.385   1.790   4.677
 3409SOL    HW110246   4.339   1.878   4.664
 3409SOL    HW210247   4.484   1.802   4.670
 3410SOL     OW10248   4.583   0.956   4.585
 3410SOL    HW110249   4.637   0.887   4.633
 3410SOL    HW210250   4.551   1.025   4.651
 3411SOL     OW10251   4.807   0.984   3.811
 3411SOL    HW110252   4.784   1.037   3.729
 3411SOL    HW210253   4.888   0.928   3.792
 3412SOL     OW10254   3.803   1.240   4.377
 3412SOL    HW110255   3.802   1.193   4.465
 3412SOL    HW210256   3.885   1.212   4.326
 3413SOL     OW10257   4.152   0.424   4.244
 3413SOL    HW110258   4.182   0.352   4.182
 3413SOL    HW210259   4.113   0.384   4.327
 3414SOL     OW10260   4.536   1.586   4.411
 3414SOL    HW110261   4.568   1.596   4.317
 3414SOL    HW210262   4.457   1.524   4.413
 3415SOL     OW10263   4.725   0.034   4.878
 3415SOL    HW110264   4.662  -0.038   4.847
 3415SOL    HW210265   4.818  -0.002   4.878
 3416SOL     OW10266   4.494   1.330   4.025
 3416SOL    HW110267   4.448   1.243   4.042
 3416SOL    HW210268   4.585   1.327   4.066
 3417SOL     OW10269   3.763   1.077   4.024
 3417SOL    HW110270   3.862   1.066   4.015
 3417SOL    HW210271   3.723   0.991   4.056
 3418SOL     OW10272   4.599   1.646   4.061
 3418SOL    HW110273   4.522   1.611   4.007
 3418SOL    HW210274   4.567   1.717   4.123
 3419SOL     OW10275   3.954   2.490   0.113
 3419SOL    HW110276   3.861   2.488   0.150
 3419SOL    HW210277   3.955   2.451   0.021
 3420SOL     OW10278   3.949   2.137   0.996
 3420SOL    HW110279   3.984   2.120   1.088
 3420SOL    HW210280   3.861   2.092   0.984
 3421SOL     OW10281   3.743   2.230   0.647
 3421SOL    HW110282   3.661   2.273   0.686
 3421SOL    HW210283   3.715   2.157   0.584
 3422SOL     OW10284   4.293   3.137   1.165
 3422SOL    HW110285   4.200   3.130   1.128
 3422SOL    HW210286   4.304   3.226   1.209
 3423SOL     OW10287   4.859   2.565   0.717
 3423SOL    HW110288   4.916   2.643   0.692
 3423SOL    HW210289   4.799   2.591   0.793
 3424SOL     OW10290   4.492   3.006   1.023
 3424SOL    HW110291   4.414   3.023   1.083
 3424SOL    HW210292   4.526   3.093   0.987
 3425SOL     OW10293   4.574   2.660   1.823
 3425SOL    HW110294   4.570   2.736   1.888
 3425SOL    HW210295   4.596   2.696   1.732
 3426SOL     OW10296   4.409   2.874   0.665
 3426SOL    HW110297   4.478   2.858   0.735
 3426SOL    HW210298   4.336   2.931   0.703
 3427SOL     OW10299   4.410   3.023   1.803
 3427SOL    HW110300   4.470   3.102   1.817
 3427SOL    HW210301   4.324   3.054   1.762
 3428SOL     OW10302   4.059   3.297   1.061
 3428SOL    HW110303   3.981   3.266   1.008
 3428SOL    HW210304   4.117   3.355   1.004
 3429SOL     OW10305   4.162   2.254   1.499
 3429SOL    HW110306   4.244   2.198   1.508
 3429SOL    HW210307   4.081   2.196   1.503
 3430SOL     OW10308   3.955   3.575   0.483
 3430SOL    HW110309   3.989   3.652   0.537
 3430SOL    HW210310   3.999   3.575   0.393
 3431SOL     OW10311   4.851   3.203   1.690
 3431SOL    HW110312   4.898   3.203   1.778
 3431SOL    HW210313   4.803   3.116   1.679
 3432SOL     OW10314   3.954   3.296   0.538
 3432SOL    HW110315   3.928   3.392   0.538
 3432SOL    HW210316   3.883   3.242   0.583
 3433SOL     OW10317   3.964   2.953   0.886
 3433SOL    HW110318   3.978   2.869   0.938
 3433SOL    HW210319   3.909   3.017   0.941
 3434SOL     OW10320   4.344   3.648   1.439
 3434SOL    HW110321   4.252   3.631   1.474
 3434SOL    HW210322   4.372   3.740   1.465
 3435SOL     OW10323   4.330   2.826   0.123
 3435SOL    HW110324   4.337   2.910   0.069
 3435SOL    HW210325   4.376   2.839   0.211
 3436SOL     OW10326   3.846   2.505   0.563
 3436SOL    HW110327   3.801   2.417   0.580
 3436SOL    HW210328   3.845   2.559   0.647
 3437SOL     OW10329   3.751   3.458   0.117
 3437SOL    HW110330   3.732   3.362   0.138
 3437SOL    HW210331   3.718   3.516   0.192
 3438SOL     OW10332   3.837   2.599   1.597
 3438SOL    HW110333   3.925   2.586   1.642
 3438SOL    HW210334   3.824   2.696   1.575
 3439SOL     OW10335   4.337   3.227   0.726
 3439SOL    HW110336   4.288   3.140   0.735
 3439SOL    HW210337   4.314   3.270   0.639
 3440SOL     OW10338   4.533   1.866   0.502
 3440SOL    HW110339   4.573   1.957   0.493
 3440SOL    HW210340   4.433   1.874   0.508
 3441SOL     OW10341   3.921   2.838   1.264
 3441SOL    HW110342   4.010   2.793   1.250
 3441SOL    HW210343   3.848   2.773   1.245
 3442SOL     OW10344   4.041   2.113   1.801
 3442SOL    HW110345   4.112   2.184   1.807
 3442SOL    HW210346   3.953   2.152   1.829
 3443SOL     OW10347   4.322   2.591   0.270
 3443SOL    HW110348   4.346   2.660   0.202
 3443SOL    HW210349   4.244   2.624   0.324
 3444SOL     OW10350   4.531   2.467   1.465
 3444SOL    HW110351   4.484   2.464   1.554
 3444SOL    HW210352   4.480   2.412   1.399
 3445SOL     OW10353   4.697   2.752   1.572
 3445SOL    HW110354   4.743   2.668   1.543
 3445SOL    HW210355   4.641   2.786   1.497
 3446SOL     OW10356   4.715   2.272   1.242
 3446SOL    HW110357   4.638   2.306   1.296
 3446SOL    HW210358   4.681   2.221   1.163
 3447SOL     OW10359   4.765   2.563   0.429
 3447SOL    HW110360   4.791   2.559   0.525
 3447SOL    HW210361   4.680   2.512   0.415
 3448SOL     OW10362   3.800   2.673   0.789
 3448SOL    HW110363   3.899   2.661   0.798
 3448SOL    HW210364   3.776   2.768   0.810
 3449SOL     OW10365   3.854   3.683   1.571
 3449SOL    HW110366   3.844   3.668   1.670
 3449SOL    HW210367   3.768   3.719   1.535
 3450SOL     OW10368   4.589   2.210   0.195
 3450SOL    HW110369   4.648   2.273   0.146
 3450SOL    HW210370   4.608   2.116   0.166
 3451SOL     OW10371   4.274   2.058   0.885
 3451SOL    HW110372   4.269   2.053   0.985
 3451SOL    HW210373   4.276   2.154   0.856
 3452SOL     OW10374   4.732   3.318   0.477
 3452SOL    HW110375   4.686   3.390   0.425
 3452SOL    HW210376   4.728   3.338   0.575
 3453SOL     OW10377   4.075   3.663   0.853
 3453SOL    HW110378   4.125   3.577   0.859
 3453SOL    HW210379   4.140   3.740   0.850
 3454SOL     OW10380   4.951   3.412   1.506
 3454SOL    HW110381   4.957   3.335   1.570
 3454SOL    HW210382   4.899   3.386   1.426
 3455SOL     OW10383   4.045   2.805   0.242
 3455SOL    HW110384   4.127   2.844   0.200
 3455SOL    HW210385   4.018   2.723   0.193
 3456SOL     OW10386   4.185   3.128   1.727
 3456SOL    HW110387   4.135   3.129   1.641
 3456SOL    HW210388   4.122   3.110   1.803
 3457SOL     OW10389   4.835   3.638   0.237
 3457SOL    HW110390   4.775   3.576   0.287
 3457SOL    HW210391   4.866   3.594   0.152
 3458SOL     OW10392   3.926   2.147   1.498
 3458SOL    HW110393   3.846   2.207   1.485
 3458SOL    HW210394   3.916   2.098   1.584
 3459SOL     OW10395   4.188   3.605   0.323
 3459SOL    HW110396   4.221   3.644   0.409
 3459SOL    HW210397   4.264   3.598   0.258
 3460SOL     OW10398   3.973   3.647   1.241
 3460SOL    HW110399   4.030   3.582   1.291
 3460SOL    HW210400   3.957   3.614   1.148
 3461SOL     OW10401   4.664   3.560   0.904
 3461SOL    HW110402   4.744   3.503   0.925
 3461SOL    HW210403   4.615   3.520   0.827
 3462SOL     OW10404   4.106   2.562   0.480
 3462SOL    HW110405   4.151   2.472   0.477
 3462SOL    HW210406   4.012   2.551   0.513
 3463SOL     OW10407   4.338   1.984   0.117
 3463SOL    HW110408   4.436   1.962   0.124
 3463SOL    HW210409   4.307   1.967   0.024
 3464SOL     OW10410   4.505   2.126   1.749
 3464SOL    HW110411   4.572   2.065   1.792
 3464SOL    HW210412   4.432   2.145   1.814
 3465SOL     OW10413   4.612   3.376   1.195
 3465SOL    HW110414   4.589   3.351   1.101
 3465SOL    HW210415   4.673   3.307   1.234
 3466SOL     OW10416   4.527   3.264   0.924
 3466SOL    HW110417   4.617   3.278   0.882
 3466SOL    HW210418   4.456   3.266   0.853
 3467SOL     OW10419   4.646   2.365   0.899
 3467SOL    HW110420   4.621   2.356   0.803
 3467SOL    HW210421   4.694   2.283   0.930
 3468SOL     OW10422   4.263   1.926   0.512
 3468SOL    HW110423   4.182   1.927   0.570
 3468SOL    HW210424   4.266   2.009   0.457
 3469SOL     OW10425   4.021   1.897   0.171
 3469SOL    HW110426   4.070   1.981   0.150
 3469SOL    HW210427   4.083   1.832   0.216
 3470SOL     OW10428   4.659   2.098   0.480
 3470SOL    HW110429   4.611   2.139   0.402
 3470SOL    HW210430   4.758   2.096   0.461
 3471SOL     OW10431   4.800   2.545   1.464
 3471SOL    HW110432   4.720   2.484   1.467
 3471SOL    HW210433   4.881   2.492   1.440
 3472SOL     OW10434   4.951   3.432   0.793
 3472SOL    HW110435   4.972   3.506   0.728
 3472SOL    HW210436   5.019   3.432   0.866
 3473SOL     OW10437   4.183   3.014   0.741
 3473SOL    HW110438   4.112   2.987   0.806
 3473SOL    HW210439   4.157   2.986   0.648
 3474SOL     OW10440   4.995   3.659   0.591
 3474SOL    HW110441   5.039   3.723   0.527
 3474SOL    HW210442   4.945   3.711   0.661
 3475SOL     OW10443   4.756   2.411   0.016
 3475SOL    HW110444   4.715   2.493  -0.023
 3475SOL    HW210445   4.820   2.437   0.089
 3476SOL     OW10446   3.802   2.418   1.386
 3476SOL    HW110447   3.894   2.417   1.345
 3476SOL    HW210448   3.796   2.492   1.453
 3477SOL     OW10449   4.285   2.084   1.147
 3477SOL    HW110450   4.323   2.000   1.184
 3477SOL    HW210451   4.197   2.103   1.191
 3478SOL     OW10452   4.590   2.316   0.642
 3478SOL    HW110453   4.558   2.388   0.580
 3478SOL    HW210454   4.614   2.235   0.589
 3479SOL     OW10455   4.741   1.901   0.753
 3479SOL    HW110456   4.669   1.906   0.684
 3479SOL    HW210457   4.717   1.832   0.822
 3480SOL     OW10458   4.212   3.247   0.174
 3480SOL    HW110459   4.125   3.232   0.221
 3480SOL    HW210460   4.195   3.273   0.079
 3481SOL     OW10461   4.251   2.118   0.328
 3481SOL    HW110462   4.278   2.059   0.253
 3481SOL    HW210463   4.251   2.213   0.297
 3482SOL     OW10464   4.788   3.209   1.340
 3482SOL    HW110465   4.708   3.186   1.395
 3482SOL    HW210466   4.871   3.183   1.389
 3483SOL     OW10467   4.835   3.057   1.100
 3483SOL    HW110468   4.795   3.101   1.181
 3483SOL    HW210469   4.794   3.094   1.017
 3484SOL     OW10470   4.639   1.951   1.402
 3484SOL    HW110471   4.664   1.931   1.307
 3484SOL    HW210472   4.711   2.007   1.444
 3485SOL     OW10473   4.704   2.978   1.719
 3485SOL    HW110474   4.605   2.984   1.729
 3485SOL    HW210475   4.727   2.898   1.663
 3486SOL     OW10476   4.429   2.912   0.368
 3486SOL    HW110477   4.415   2.919   0.467
 3486SOL    HW210478   4.513   2.861   0.350
 3487SOL     OW10479   4.134   2.675   1.251
 3487SOL    HW110480   4.220   2.687   1.301
 3487SOL    HW210481   4.092   2.588   1.278
 3488SOL     OW10482   3.788   3.426   1.331
 3488SOL    HW110483   3.742   3.508   1.297
 3488SOL    HW210484   3.886   3.445   1.340
 3489SOL     OW10485   4.091   2.962   0.501
 3489SOL    HW110486   4.084   3.045   0.445
 3489SOL    HW210487   4.095   2.882   0.441
 3490SOL     OW10488   4.290   2.399   0.865
 3490SOL    HW110489   4.302   2.465   0.791
 3490SOL    HW210490   4.336   2.433   0.948
 3491SOL     OW10491   4.976   3.210   0.388
 3491SOL    HW110492   5.026   3.287   0.428
 3491SOL    HW210493   4.881   3.212   0.420
 3492SOL     OW10494   4.078   3.372   1.329
 3492SOL    HW110495   4.057   3.328   1.242
 3492SOL    HW210496   4.175   3.398   1.332
 3493SOL     OW10497   4.126   2.613   1.598
 3493SOL    HW110498   4.194   2.668   1.551
 3493SOL    HW210499   4.166   2.525   1.625
 3494SOL     OW10500   4.737   1.967   1.770
 3494SOL    HW110501   4.743   2.052   1.718
 3494SOL    HW210502   4.769   1.891   1.713
 3495SOL     OW10503   4.228   1.912   1.740
 3495SOL    HW110504   4.186   1.855   1.670
 3495SOL    HW210505   4.162   1.981   1.772
 3496SOL     OW10506   4.297   2.732   1.029
 3496SOL    HW110507   4.341   2.821   1.020
 3496SOL    HW210508   4.234   2.732   1.106
 3497SOL     OW10509   5.084   2.724   1.045
 3497SOL    HW110510   5.009   2.724   0.979
 3497SOL    HW210511   5.121   2.632   1.054
 3498SOL     OW10512   4.933   2.387   0.275
 3498SOL    HW110513   4.946   2.303   0.329
 3498SOL    HW210514   4.904   2.461   0.335
 3499SOL     OW10515   4.031   2.075   1.231
 3499SOL    HW110516   4.008   2.112   1.321
 3499SOL    HW210517   4.001   1.980   1.225
 3500SOL     OW10518   3.761   3.172   1.282
 3500SOL    HW110519   3.814   3.123   1.350
 3500SOL    HW210520   3.783   3.270   1.287
 3501SOL     OW10521   4.456   2.496   1.064
 3501SOL    HW110522   4.515   2.470   0.988
 3501SOL    HW210523   4.428   2.592   1.053
 3502SOL     OW10524   4.031   1.925   0.618
 3502SOL    HW110525   4.020   2.019   0.651
 3502SOL    HW210526   4.026   1.862   0.695
 3503SOL     OW10527   4.747   2.628   0.966
 3503SOL    HW110528   4.762   2.649   1.062
 3503SOL    HW210529   4.717   2.533   0.957
 3504SOL     OW10530   4.704   3.435   1.700
 3504SOL    HW110531   4.684   3.479   1.612
 3504SOL    HW210532   4.743   3.344   1.684
 3505SOL     OW10533   4.074   2.760   1.804
 3505SOL    HW110534   4.150   2.804   1.852
 3505SOL    HW210535   4.109   2.713   1.722
 3506SOL     OW10536   4.792   3.195   0.849
 3506SOL    HW110537   4.799   3.111   0.794
 3506SOL    HW210538   4.854   3.264   0.813
 3507SOL     OW10539   4.043   2.672   0.949
 3507SOL    HW110540   4.136   2.708   0.954
 3507SOL    HW210541   4.037   2.587   1.001
 3508SOL     OW10542   4.063   2.371   1.006
 3508SOL    HW110543   4.011   2.288   0.989
 3508SOL    HW210544   4.140   2.376   0.942
 3509SOL     OW10545   4.862   2.242   1.678
 3509SOL    HW110546   4.817   2.305   1.742
 3509SOL    HW210547   4.955   2.273   1.661
 3510SOL     OW10548   4.884   2.069   1.477
 3510SOL    HW110549   4.884   2.133   1.554
 3510SOL    HW210550   4.912   2.117   1.394
 3511SOL     OW10551   3.732   3.188   0.200
 3511SOL    HW110552   3.639   3.209   0.169
 3511SOL    HW210553   3.742   3.089   0.213
 3512SOL     OW10554   3.812   3.663   0.927
 3512SOL    HW110555   3.770   3.577   0.900
 3512SOL    HW210556   3.906   3.666   0.893
 3513SOL     OW10557   4.228   3.430   0.910
 3513SOL    HW110558   4.294   3.504   0.919
 3513SOL    HW210559   4.272   3.351   0.868
 3514SOL     OW10560   4.726   2.658   1.238
 3514SOL    HW110561   4.767   2.626   1.324
 3514SOL    HW210562   4.630   2.631   1.235
 3515SOL     OW10563   3.764   2.406   1.114
 3515SOL    HW110564   3.849   2.373   1.073
 3515SOL    HW210565   3.777   2.421   1.212
 3516SOL     OW10566   3.913   2.382   1.722
 3516SOL    HW110567   3.972   2.342   1.652
 3516SOL    HW210568   3.855   2.453   1.681
 3517SOL     OW10569   4.539   2.434   0.325
 3517SOL    HW110570   4.546   2.345   0.279
 3517SOL    HW210571   4.445   2.468   0.317
 3518SOL     OW10572   3.976   3.426   1.744
 3518SOL    HW110573   3.946   3.483   1.820
 3518SOL    HW210574   3.969   3.329   1.770
 3519SOL     OW10575   4.395   2.326   1.269
 3519SOL    HW110576   4.361   2.237   1.239
 3519SOL    HW210577   4.421   2.380   1.189
 3520SOL     OW10578   4.654   3.540   1.465
 3520SOL    HW110579   4.630   3.522   1.370
 3520SOL    HW210580   4.684   3.634   1.475
 3521SOL     OW10581   4.197   2.362   0.191
 3521SOL    HW110582   4.258   2.442   0.195
 3521SOL    HW210583   4.102   2.393   0.198
 3522SOL     OW10584   3.883   2.999   1.466
 3522SOL    HW110585   3.905   2.938   1.542
 3522SOL    HW210586   3.893   2.950   1.380
 3523SOL     OW10587   4.976   3.593   1.128
 3523SOL    HW110588   5.060   3.598   1.074
 3523SOL    HW210589   4.953   3.497   1.146
 3524SOL     OW10590   3.807   3.120   1.022
 3524SOL    HW110591   3.802   3.119   1.122
 3524SOL    HW210592   3.724   3.079   0.984
 3525SOL     OW10593   4.412   3.524   1.716
 3525SOL    HW110594   4.356   3.605   1.725
 3525SOL    HW210595   4.464   3.528   1.630
 3526SOL     OW10596   4.627   1.948   0.133
 3526SOL    HW110597   4.678   1.949   0.047
 3526SOL    HW210598   4.683   1.906   0.204
 3527SOL     OW10599   3.854   3.656   1.851
 3527SOL    HW110600   3.813   3.582   1.904
 3527SOL    HW210601   3.918   3.707   1.909
 3528SOL     OW10602   4.554   3.135   1.422
 3528SOL    HW110603   4.549   3.168   1.517
 3528SOL    HW210604   4.468   3.154   1.376
 3529SOL     OW10605   4.396   3.478   0.154
 3529SOL    HW110606   4.405   3.488   0.055
 3529SOL    HW210607   4.356   3.389   0.175
 3530SOL     OW10608   3.987   2.188   0.720
 3530SOL    HW110609   3.908   2.239   0.686
 3530SOL    HW210610   3.978   2.173   0.818
 3531SOL     OW10611   4.546   2.864   1.372
 3531SOL    HW110612   4.586   2.863   1.280
 3531SOL    HW210613   4.556   2.956   1.412
 3532SOL     OW10614   4.640   2.772   0.291
 3532SOL    HW110615   4.703   2.810   0.223
 3532SOL    HW210616   4.680   2.689   0.330
 3533SOL     OW10617   4.096   3.150   1.490
 3533SOL    HW110618   4.083   3.243   1.456
 3533SOL    HW210619   4.012   3.098   1.477
 3534SOL     OW10620   4.763   2.960   0.696
 3534SOL    HW110621   4.693   2.913   0.750
 3534SOL    HW210622   4.822   2.892   0.653
 3535SOL     OW10623   4.738   2.098   0.971
 3535SOL    HW110624   4.730   2.062   0.878
 3535SOL    HW210625   4.736   2.022   1.036
 3536SOL     OW10626   4.314   3.349   0.491
 3536SOL    HW110627   4.356   3.291   0.421
 3536SOL    HW210628   4.270   3.428   0.447
 3537SOL     OW10629   3.979   3.210   0.290
 3537SOL    HW110630   3.883   3.211   0.263
 3537SOL    HW210631   3.991   3.263   0.374
 3538SOL     OW10632   3.829   2.875   1.726
 3538SOL    HW110633   3.752   2.842   1.780
 3538SOL    HW210634   3.914   2.845   1.768
 3539SOL     OW10635   4.396   2.065   1.489
 3539SOL    HW110636   4.486   2.049   1.449
 3539SOL    HW210637   4.404   2.070   1.588
 3540SOL     OW10638   3.796   2.028   0.318
 3540SOL    HW110639   3.779   2.111   0.264
 3540SOL    HW210640   3.886   1.991   0.296
 3541SOL     OW10641   4.337   2.704   1.431
 3541SOL    HW110642   4.393   2.785   1.414
 3541SOL    HW210643   4.396   2.624   1.434
 3542SOL     OW10644   4.440   2.427   1.708
 3542SOL    HW110645   4.459   2.492   1.782
 3542SOL    HW210646   4.500   2.347   1.717
 3543SOL     OW10647   4.114   3.603   1.560
 3543SOL    HW110648   4.023   3.644   1.558
 3543SOL    HW210649   4.107   3.509   1.592
 3544SOL     OW10650   4.318   2.607   0.652
 3544SOL    HW110651   4.368   2.692   0.633
 3544SOL    HW210652   4.230   2.609   0.604
 3545SOL     OW10653   4.583   3.236   0.016
 3545SOL    HW110654   4.537   3.251   0.104
 3545SOL    HW210655   4.627   3.321  -0.014
 3546SOL     OW10656   4.385   3.652   0.953
 3546SOL    HW110657   4.339   3.740   0.940
 3546SOL    HW210658   4.484   3.664   0.946
 3547SOL     OW10659   4.583   2.818   0.861
 3547SOL    HW110660   4.637   2.749   0.909
 3547SOL    HW210661   4.551   2.887   0.927
 3548SOL     OW10662   4.807   2.846   0.087
 3548SOL    HW110663   4.784   2.899   0.005
 3548SOL    HW210664   4.888   2.790   0.068
 3549SOL     OW10665   3.945   3.176   1.844
 3549SOL    HW110666   3.880   3.103   1.823
 3549SOL    HW210667   3.949   3.190   1.942
 3550SOL     OW10668   3.803   3.102   0.653
 3550SOL    HW110669   3.802   3.055   0.741
 3550SOL    HW210670   3.885   3.074   0.602
 3551SOL     OW10671   4.396   3.253   1.624
 3551SOL    HW110672   4.318   3.203   1.662
 3551SOL    HW210673   4.393   3.348   1.655
 3552SOL     OW10674   4.152   2.286   0.520
 3552SOL    HW110675   4.182   2.214   0.458
 3552SOL    HW210676   4.113   2.246   0.603
 3553SOL     OW10677   4.041   2.409   1.280
 3553SOL    HW110678   4.079   2.350   1.352
 3553SOL    HW210679   4.081   2.383   1.192
 3554SOL     OW10680   4.536   3.448   0.687
 3554SOL    HW110681   4.568   3.458   0.593
 3554SOL    HW210682   4.457   3.386   0.689
 3555SOL     OW10683   4.725   1.896   1.154
 3555SOL    HW110684   4.662   1.824   1.123
 3555SOL    HW210685   4.818   1.860   1.154
 3556SOL     OW10686   4.494   3.192   0.301
 3556SOL    HW110687   4.448   3.105   0.318
 3556SOL    HW210688   4.585   3.189   0.342
 3557SOL     OW10689   4.342   3.429   1.284
 3557SOL    HW110690   4.337   3.511   1.341
 3557SOL    HW210691   4.431   3.426   1.239
 3558SOL     OW10692   4.599   3.508   0.337
 3558SOL    HW110693   4.522   3.473   0.283
 3558SOL    HW210694   4.567   3.579   0.399
 3559SOL     OW10695   3.954   2.490   1.975
 3559SOL    HW110696   3.861   2.488   2.012
 3559SOL    HW210697   3.955   2.451   1.883
 3560SOL     OW10698   3.949   2.137   2.858
 3560SOL    HW110699   3.984   2.120   2.950
 3560SOL    HW210700   3.861   2.092   2.846
 3561SOL     OW10701   3.743   2.230   2.509
 3561SOL    HW110702   3.661   2.273   2.548
 3561SOL    HW210703   3.715   2.157   2.446
 3562SOL     OW10704   4.293   3.137   3.027
 3562SOL    HW110705   4.200   3.130   2.990
 3562SOL    HW210706   4.304   3.226   3.071
 3563SOL     OW10707   4.859   2.565   2.579
 3563SOL    HW110708   4.916   2.643   2.554
 3563SOL    HW210709   4.799   2.591   2.655
 3564SOL     OW10710   4.492   3.006   2.885
 3564SOL    HW110711   4.414   3.023   2.945
 3564SOL    HW210712   4.526   3.093   2.849
 3565SOL     OW10713   4.574   2.660   3.685
 3565SOL    HW110714   4.570   2.736   3.750
 3565SOL    HW210715   4.596   2.696   3.594
 3566SOL     OW10716   4.409   2.874   2.527
 3566SOL    HW110717   4.478   2.858   2.597
 3566SOL    HW210718   4.336   2.931   2.565
 3567SOL     OW10719   4.410   3.023   3.665
 3567SOL    HW110720   4.470   3.102   3.679
 3567SOL    HW210721   4.324   3.054   3.624
 3568SOL     OW10722   4.059   3.297   2.923
 3568SOL    HW110723   3.981   3.266   2.870
 3568SOL    HW210724   4.117   3.355   2.866
 3569SOL     OW10725   4.162   2.254   3.361
 3569SOL    HW110726   4.244   2.198   3.370
 3569SOL    HW210727   4.081   2.196   3.365
 3570SOL     OW10728   3.955   3.575   2.345
 3570SOL    HW110729   3.989   3.652   2.399
 3570SOL    HW210730   3.999   3.575   2.255
 3571SOL     OW10731   4.851   3.203   3.552
 3571SOL    HW110732   4.898   3.203   3.640
 3571SOL    HW210733   4.803   3.116   3.541
 3572SOL     OW10734   3.954   3.296   2.400
 3572SOL    HW110735   3.928   3.392   2.400
 3572SOL    HW210736   3.883   3.242   2.445
 3573SOL     OW10737   3.964   2.953   2.748
 3573SOL    HW110738   3.978   2.869   2.800
 3573SOL    HW210739   3.909   3.017   2.803
 3574SOL     OW10740   4.344   3.648   3.301
 3574SOL    HW110741   4.252   3.631   3.336
 3574SOL    HW210742   4.372   3.740   3.327
 3575SOL     OW10743   4.330   2.826   1.985
 3575SOL    HW110744   4.337   2.910   1.931
 3575SOL    HW210745   4.376   2.839   2.073
 3576SOL     OW10746   3.846   2.505   2.425
 3576SOL    HW110747   3.801   2.417   2.442
 3576SOL    HW210748   3.845   2.559   2.509
 3577SOL     OW10749   3.751   3.458   1.979
 3577SOL    HW110750   3.732   3.362   2.000
 3577SOL    HW210751   3.718   3.516   2.054
 3578SOL     OW10752   3.837   2.599   3.459
 3578SOL    HW110753   3.925   2.586   3.504
 3578SOL    HW210754   3.824   2.696   3.437
 3579SOL     OW10755   4.337   3.227   2.588
 3579SOL    HW110756   4.288   3.140   2.597
 3579SOL    HW210757   4.314   3.270   2.501
 3580SOL     OW10758   4.533   1.866   2.364
 3580SOL    HW110759   4.573   1.957   2.355
 3580SOL    HW210760   4.433   1.874   2.370
 3581SOL     OW10761   3.921   2.838   3.126
 3581SOL    HW110762   4.010   2.793   3.112
 3581SOL    HW210763   3.848   2.773   3.107
 3582SOL     OW10764   4.041   2.113   3.663
 3582SOL    HW110765   4.112   2.184   3.669
 3582SOL    HW210766   3.953   2.152   3.691
 3583SOL     OW10767   4.322   2.591   2.132
 3583SOL    HW110768   4.346   2.660   2.064
 3583SOL    HW210769   4.244   2.624   2.186
 3584SOL     OW10770   4.531   2.467   3.327
 3584SOL    HW110771   4.484   2.464   3.416
 3584SOL    HW210772   4.480   2.412   3.261
 3585SOL     OW10773   4.697   2.752   3.434
 3585SOL    HW110774   4.743   2.668   3.405
 3585SOL    HW210775   4.641   2.786   3.359
 3586SOL     OW10776   4.715   2.272   3.104
 3586SOL    HW110777   4.638   2.306   3.158
 3586SOL    HW210778   4.681   2.221   3.025
 3587SOL     OW10779   4.765   2.563   2.291
 3587SOL    HW110780   4.791   2.559   2.387
 3587SOL    HW210781   4.680   2.512   2.277
 3588SOL     OW10782   3.800   2.673   2.651
 3588SOL    HW110783   3.899   2.661   2.660
 3588SOL    HW210784   3.776   2.768   2.672
 3589SOL     OW10785   3.854   3.683   3.433
 3589SOL    HW110786   3.844   3.668   3.532
 3589SOL    HW210787   3.768   3.719   3.397
 3590SOL     OW10788   4.589   2.210   2.057
 3590SOL    HW110789   4.648   2.273   2.008
 3590SOL    HW210790   4.608   2.116   2.028
 3591SOL     OW10791   4.274   2.058   2.747
 3591SOL    HW110792   4.269   2.053   2.847
 3591SOL    HW210793   4.276   2.154   2.718
 3592SOL     OW10794   4.732   3.318   2.339
 3592SOL    HW110795   4.686   3.390   2.287
 3592SOL    HW210796   4.728   3.338   2.437
 3593SOL     OW10797   4.075   3.663   2.715
 3593SOL    HW110798   4.125   3.577   2.721
 3593SOL    HW210799   4.140   3.740   2.712
 3594SOL     OW10800   4.951   3.412   3.368
 3594SOL    HW110801   4.957   3.335   3.432
 3594SOL    HW210802   4.899   3.386   3.288
 3595SOL     OW10803   4.045   2.805   2.104
 3595SOL    HW110804   4.127   2.844   2.062
 3595SOL    HW210805   4.018   2.723   2.055
 3596SOL     OW10806   4.185   3.128   3.589
 3596SOL    HW110807   4.135   3.129   3.503
 3596SOL    HW210808   4.122   3.110   3.665
 3597SOL     OW10809   4.835   3.638   2.099
 3597SOL    HW110810   4.775   3.576   2.149
 3597SOL    HW210811   4.866   3.594   2.014
 3598SOL     OW10812   3.926   2.147   3.360
 3598SOL    HW110813   3.846   2.207   3.347
 3598SOL    HW210814   3.916   2.098   3.446
 3599SOL     OW10815   4.188   3.605   2.185
 3599SOL    HW110816   4.221   3.644   2.271
 3599SOL    HW210817   4.264   3.598   2.120
 3600SOL     OW10818   3.973   3.647   3.103
 3600SOL    HW110819   4.030   3.582   3.153
 3600SOL    HW210820   3.957   3.614   3.010
 3601SOL     OW10821   4.664   3.560   2.766
 3601SOL    HW110822   4.744   3.503   2.787
 3601SOL    HW210823   4.615   3.520   2.689
 3602SOL     OW10824   4.106   2.562   2.342
 3602SOL    HW110825   4.151   2.472   2.339
 3602SOL    HW210826   4.012   2.551   2.375
 3603SOL     OW10827   4.338   1.984   1.979
 3603SOL    HW110828   4.436   1.962   1.986
 3603SOL    HW210829   4.307   1.967   1.886
 3604SOL     OW10830   4.505   2.126   3.611
 3604SOL    HW110831   4.572   2.065   3.654
 3604SOL    HW210832   4.432   2.145   3.676
 3605SOL     OW10833   4.612   3.376   3.057
 3605SOL    HW110834   4.589   3.351   2.963
 3605SOL    HW210835   4.673   3.307   3.096
 3606SOL     OW10836   4.527   3.264   2.786
 3606SOL    HW110837   4.617   3.278   2.744
 3606SOL    HW210838   4.456   3.266   2.715
 3607SOL     OW10839   4.646   2.365   2.761
 3607SOL    HW110840   4.621   2.356   2.665
 3607SOL    HW210841   4.694   2.283   2.792
 3608SOL     OW10842   4.263   1.926   2.374
 3608SOL    HW110843   4.182   1.927   2.432
 3608SOL    HW210844   4.266   2.009   2.319
 3609SOL     OW10845   4.021   1.897   2.033
 3609SOL    HW110846   4.070   1.981   2.012
 3609SOL    HW210847   4.083   1.832   2.078
 3610SOL     OW10848   4.659   2.098   2.342
 3610SOL    HW110849   4.611   2.139   2.264
 3610SOL    HW210850   4.758   2.096   2.323
 3611SOL     OW10851   4.800   2.545   3.326
 3611SOL    HW110852   4.720   2.484   3.329
 3611SOL    HW210853   4.881   2.492   3.302
 3612SOL     OW10854   4.951   3.432   2.655
 3612SOL    HW110855   4.972   3.506   2.590
 3612SOL    HW210856   5.019   3.432   2.728
 3613SOL     OW10857   4.183   3.014   2.603
 3613SOL    HW110858   4.112   2.987   2.668
 3613SOL    HW210859   4.157   2.986   2.510
 3614SOL     OW10860   4.995   3.659   2.453
 3614SOL    HW110861   5.039   3.723   2.389
 3614SOL    HW210862   4.945   3.711   2.523
 3615SOL     OW10863   4.756   2.411   1.878
 3615SOL    HW110864   4.715   2.493   1.839
 3615SOL    HW210865   4.820   2.437   1.951
 3616SOL     OW10866   3.802   2.418   3.248
 3616SOL    HW110867   3.894   2.417   3.207
 3616SOL    HW210868   3.796   2.492   3.315
 3617SOL     OW10869   4.285   2.084   3.009
 3617SOL    HW110870   4.323   2.000   3.046
 3617SOL    HW210871   4.197   2.103   3.053
 3618SOL     OW10872   4.590   2.316   2.504
 3618SOL    HW110873   4.558   2.388   2.442
 3618SOL    HW210874   4.614   2.235   2.451
 3619SOL     OW10875   4.741   1.901   2.615
 3619SOL    HW110876   4.669   1.906   2.546
 3619SOL    HW210877   4.717   1.832   2.684
 3620SOL     OW10878   4.212   3.247   2.036
 3620SOL    HW110879   4.125   3.232   2.083
 3620SOL    HW210880   4.195   3.273   1.941
 3621SOL     OW10881   4.251   2.118   2.190
 3621SOL    HW110882   4.278   2.059   2.115
 3621SOL    HW210883   4.251   2.213   2.159
 3622SOL     OW10884   4.788   3.209   3.202
 3622SOL    HW110885   4.708   3.186   3.257
 3622SOL    HW210886   4.871   3.183   3.251
 3623SOL     OW10887   4.835   3.057   2.962
 3623SOL    HW110888   4.795   3.101   3.043
 3623SOL    HW210889   4.794   3.094   2.879
 3624SOL     OW10890   4.639   1.951   3.264
 3624SOL    HW110891   4.664   1.931   3.169
 3624SOL    HW210892   4.711   2.007   3.306
 3625SOL     OW10893   4.704   2.978   3.581
 3625SOL    HW110894   4.605   2.984   3.591
 3625SOL    HW210895   4.727   2.898   3.525
 3626SOL     OW10896   4.429   2.912   2.230
 3626SOL    HW110897   4.415   2.919   2.329
 3626SOL    HW210898   4.513   2.861   2.212
 3627SOL     OW10899   4.134   2.675   3.113
 3627SOL    HW110900   4.220   2.687   3.163
 3627SOL    HW210901   4.092   2.588   3.140
 3628SOL     OW10902   3.788   3.426   3.193
 3628SOL    HW110903   3.742   3.508   3.159
 3628SOL    HW210904   3.886   3.445   3.202
 3629SOL     OW10905   4.091   2.962   2.363
 3629SOL    HW110906   4.084   3.045   2.307
 3629SOL    HW210907   4.095   2.882   2.303
 3630SOL     OW10908   4.290   2.399   2.727
 3630SOL    HW110909   4.302   2.465   2.653
 3630SOL    HW210910   4.336   2.433   2.810
 3631SOL     OW10911   4.976   3.210   2.250
 3631SOL    HW110912   5.026   3.287   2.290
 3631SOL    HW210913   4.881   3.212   2.282
 3632SOL     OW10914   4.078   3.372   3.191
 3632SOL    HW110915   4.057   3.328   3.104
 3632SOL    HW210916   4.175   3.398   3.194
 3633SOL     OW10917   4.126   2.613   3.460
 3633SOL    HW110918   4.194   2.668   3.413
 3633SOL    HW210919   4.166   2.525   3.487
 3634SOL     OW10920   4.737   1.967   3.632
 3634SOL    HW110921   4.743   2.052   3.580
 3634SOL    HW210922   4.769   1.891   3.575
 3635SOL     OW10923   4.228   1.912   3.602
 3635SOL    HW110924   4.186   1.855   3.532
 3635SOL    HW210925   4.162   1.981   3.634
 3636SOL     OW10926   4.297   2.732   2.891
 3636SOL    HW110927   4.341   2.821   2.882
 3636SOL    HW210928   4.234   2.732   2.968
 3637SOL     OW10929   5.084   2.724   2.907
 3637SOL    HW110930   5.009   2.724   2.841
 3637SOL    HW210931   5.121   2.632   2.916
 3638SOL     OW10932   4.933   2.387   2.137
 3638SOL    HW110933   4.946   2.303   2.191
 3638SOL    HW210934   4.904   2.461   2.197
 3639SOL     OW10935   4.031   2.075   3.093
 3639SOL    HW110936   4.008   2.112   3.183
 3639SOL    HW210937   4.001   1.980   3.087
 3640SOL     OW10938   3.761   3.172   3.144
 3640SOL    HW110939   3.814   3.123   3.212
 3640SOL    HW210940   3.783   3.270   3.149
 3641SOL     OW10941   4.456   2.496   2.926
 3641SOL    HW110942   4.515   2.470   2.850
 3641SOL    HW210943   4.428   2.592   2.915
 3642SOL     OW10944   4.031   1.925   2.480
 3642SOL    HW110945   4.020   2.019   2.513
 3642SOL    HW210946   4.026   1.862   2.557
 3643SOL     OW10947   4.747   2.628   2.828
 3643SOL    HW110948   4.762   2.649   2.924
 3643SOL    HW210949   4.717   2.533   2.819
 3644SOL     OW10950   4.704   3.435   3.562
 3644SOL    HW110951   4.684   3.479   3.474
 3644SOL    HW210952   4.743   3.344   3.546
 3645SOL     OW10953   4.074   2.760   3.666
 3645SOL    HW110954   4.150   2.804   3.714
 3645SOL    HW210955   4.109   2.713   3.584
 3646SOL     OW10956   5.264   2.136   1.987
 3646SOL    HW110957   5.203   2.061   2.010
 3646SOL    HW210958   5.286   2.188   2.070
 3647SOL     OW10959   4.792   3.195   2.711
 3647SOL    HW110960   4.799   3.111   2.656
 3647SOL    HW210961   4.854   3.264   2.675
 3648SOL     OW10962   4.043   2.672   2.811
 3648SOL    HW110963   4.136   2.708   2.816
 3648SOL    HW210964   4.037   2.587   2.863
 3649SOL     OW10965   4.063   2.371   2.868
 3649SOL    HW110966   4.011   2.288   2.851
 3649SOL    HW210967   4.140   2.376   2.804
 3650SOL     OW10968   4.862   2.242   3.540
 3650SOL    HW110969   4.817   2.305   3.604
 3650SOL    HW210970   4.955   2.273   3.523
 3651SOL     OW10971   4.884   2.069   3.339
 3651SOL    HW110972   4.884   2.133   3.416
 3651SOL    HW210973   4.912   2.117   3.256
 3652SOL     OW10974   3.732   3.188   2.062
 3652SOL    HW110975   3.639   3.209   2.031
 3652SOL    HW210976   3.742   3.089   2.075
 3653SOL     OW10977   3.812   3.663   2.789
 3653SOL    HW110978   3.770   3.577   2.762
 3653SOL    HW210979   3.906   3.666   2.755
 3654SOL     OW10980   4.228   3.430   2.772
 3654SOL    HW110981   4.294   3.504   2.781
 3654SOL    HW210982   4.272   3.351   2.730
 3655SOL     OW10983   4.726   2.658   3.100
 3655SOL    HW110984   4.767   2.626   3.186
 3655SOL    HW210985   4.630   2.631   3.097
 3656SOL     OW10986   3.764   2.406   2.976
 3656SOL    HW110987   3.849   2.373   2.935
 3656SOL    HW210988   3.777   2.421   3.074
 3657SOL     OW10989   3.913   2.382   3.584
 3657SOL    HW110990   3.972   2.342   3.514
 3657SOL    HW210991   3.855   2.453   3.543
 3658SOL     OW10992   4.539   2.434   2.187
 3658SOL    HW110993   4.546   2.345   2.141
 3658SOL    HW210994   4.445   2.468   2.179
 3659SOL     OW10995   3.976   3.426   3.606
 3659SOL    HW110996   3.946   3.483   3.682
 3659SOL    HW210997   3.969   3.329   3.632
 3660SOL     OW10998   4.395   2.326   3.131
 3660SOL    HW110999   4.361   2.237   3.101
 3660SOL    HW211000   4.421   2.380   3.051
 3661SOL     OW11001   4.654   3.540   3.327
 3661SOL    HW111002   4.630   3.522   3.232
 3661SOL    HW211003   4.684   3.634   3.337
 3662SOL     OW11004   4.197   2.362   2.053
 3662SOL    HW111005   4.258   2.442   2.057
 3662SOL    HW211006   4.102   2.393   2.060
 3663SOL     OW11007   3.883   2.999   3.328
 3663SOL    HW111008   3.905   2.938   3.404
 3663SOL    HW211009   3.893   2.950   3.242
 3664SOL     OW11010   4.976   3.593   2.990
 3664SOL    HW111011   5.060   3.598   2.936
 3664SOL    HW211012   4.953   3.497   3.008
 3665SOL     OW11013   3.807   3.120   2.884
 3665SOL    HW111014   3.802   3.119   2.984
 3665SOL    HW211015   3.724   3.079   2.846
 3666SOL     OW11016   4.412   3.524   3.578
 3666SOL    HW111017   4.356   3.605   3.587
 3666SOL    HW211018   4.464   3.528   3.492
 3667SOL     OW11019   3.854   3.656   3.713
 3667SOL    HW111020   3.813   3.582   3.766
 3667SOL    HW211021   3.918   3.707   3.771
 3668SOL     OW11022   4.554   3.135   3.284
 3668SOL    HW111023   4.549   3.168   3.379
 3668SOL    HW211024   4.468   3.154   3.238
 3669SOL     OW11025   4.396   3.478   2.016
 3669SOL    HW111026   4.405   3.488   1.917
 3669SOL    HW211027   4.356   3.389   2.037
 3670SOL     OW11028   3.987   2.188   2.582
 3670SOL    HW111029   3.908   2.239   2.548
 3670SOL    HW211030   3.978   2.173   2.680
 3671SOL     OW11031   4.546   2.864   3.234
 3671SOL    HW111032   4.586   2.863   3.142
 3671SOL    HW211033   4.556   2.956   3.274
 3672SOL     OW11034   4.640   2.772   2.153
 3672SOL    HW111035   4.703   2.810   2.085
 3672SOL    HW211036   4.680   2.689   2.192
 3673SOL     OW11037   4.096   3.150   3.352
 3673SOL    HW111038   4.083   3.243   3.318
 3673SOL    HW211039   4.012   3.098   3.339
 3674SOL     OW11040   4.763   2.960   2.558
 3674SOL    HW111041   4.693   2.913   2.612
 3674SOL    HW211042   4.822   2.892   2.515
 3675SOL     OW11043   4.738   2.098   2.833
 3675SOL    HW111044   4.730   2.062   2.740
 3675SOL    HW211045   4.736   2.022   2.898
 3676SOL     OW11046   4.314   3.349   2.353
 3676SOL    HW111047   4.356   3.291   2.283
 3676SOL    HW211048   4.270   3.428   2.309
 3677SOL     OW11049   3.979   3.210   2.152
 3677SOL    HW111050   3.883   3.211   2.125
 3677SOL    HW211051   3.991   3.263   2.236
 3678SOL     OW11052   3.829   2.875   3.588
 3678SOL    HW111053   3.752   2.842   3.642
 3678SOL    HW211054   3.914   2.845   3.630
 3679SOL     OW11055   4.396   2.065   3.351
 3679SOL    HW111056   4.486   2.049   3.311
 3679SOL    HW211057   4.404   2.070   3.450
 3680SOL     OW11058   3.799   2.207   1.895
 3680SOL    HW111059   3.707   2.179   1.866
 3680SOL    HW211060   3.830   2.284   1.839
 3681SOL     OW11061   3.796   2.028   2.180
 3681SOL    HW111062   3.779   2.111   2.126
 3681SOL    HW211063   3.886   1.991   2.158
 3682SOL     OW11064   4.337   2.704   3.293
 3682SOL    HW111065   4.393   2.785   3.276
 3682SOL    HW211066   4.396   2.624   3.296
 3683SOL     OW11067   4.440   2.427   3.570
 3683SOL    HW111068   4.459   2.492   3.644
 3683SOL    HW211069   4.500   2.347   3.579
 3684SOL     OW11070   4.114   3.603   3.422
 3684SOL    HW111071   4.023   3.644   3.420
 3684SOL    HW211072   4.107   3.509   3.454
 3685SOL     OW11073   4.318   2.607   2.514
 3685SOL    HW111074   4.368   2.692   2.495
 3685SOL    HW211075   4.230   2.609   2.466
 3686SOL     OW11076   4.583   3.236   1.878
 3686SOL    HW111077   4.537   3.251   1.966
 3686SOL    HW211078   4.627   3.321   1.848
 3687SOL     OW11079   4.385   3.652   2.815
 3687SOL    HW111080   4.339   3.740   2.802
 3687SOL    HW211081   4.484   3.664   2.808
 3688SOL     OW11082   4.583   2.818   2.723
 3688SOL    HW111083   4.637   2.749   2.771
 3688SOL    HW211084   4.551   2.887   2.789
 3689SOL     OW11085   4.807   2.846   1.949
 3689SOL    HW111086   4.784   2.899   1.867
 3689SOL    HW211087   4.888   2.790   1.930
 3690SOL     OW11088   3.945   3.176   3.706
 3690SOL    HW111089   3.880   3.103   3.685
 3690SOL    HW211090   3.949   3.190   3.804
 3691SOL     OW11091   3.803   3.102   2.515
 3691SOL    HW111092   3.802   3.055   2.603
 3691SOL    HW211093   3.885   3.074   2.464
 3692SOL     OW11094   4.396   3.253   3.486
 3692SOL    HW111095   4.318   3.203   3.524
 3692SOL    HW211096   4.393   3.348   3.517
 3693SOL     OW11097   4.152   2.286   2.382
 3693SOL    HW111098   4.182   2.214   2.320
 3693SOL    HW211099   4.113   2.246   2.465
 3694SOL     OW11100   4.041   2.409   3.142
 3694SOL    HW111101   4.079   2.350   3.214
 3694SOL    HW211102   4.081   2.383   3.054
 3695SOL     OW11103   4.536   3.448   2.549
 3695SOL    HW111104   4.568   3.458   2.455
 3695SOL    HW211105   4.457   3.386   2.551
 3696SOL     OW11106   4.725   1.896   3.016
 3696SOL    HW111107   4.662   1.824   2.985
 3696SOL    HW211108   4.818   1.860   3.016
 3697SOL     OW11109   4.494   3.192   2.163
 3697SOL    HW111110   4.448   3.105   2.180
 3697SOL    HW211111   4.585   3.189   2.204
 3698SOL     OW11112   4.342   3.429   3.146
 3698SOL    HW111113   4.337   3.511   3.203
 3698SOL    HW211114   4.431   3.426   3.101
 3699SOL     OW11115   3.763   2.939   2.162
 3699SOL    HW111116   3.862   2.928   2.153
 3699SOL    HW211117   3.723   2.853   2.194
 3700SOL     OW11118   4.599   3.508   2.199
 3700SOL    HW111119   4.522   3.473   2.145
 3700SOL    HW211120   4.567   3.579   2.261
 3701SOL     OW11121   3.954   2.490   3.837
 3701SOL    HW111122   3.861   2.488   3.874
 3701SOL    HW211123   3.955   2.451   3.745
 3702SOL     OW11124   3.949   2.137   4.720
 3702SOL    HW111125   3.984   2.120   4.812
 3702SOL    HW211126   3.861   2.092   4.708
 3703SOL     OW11127   3.743   2.230   4.371
 3703SOL    HW111128   3.661   2.273   4.410
 3703SOL    HW211129   3.715   2.157   4.308
 3704SOL     OW11130   4.293   3.137   4.889
 3704SOL    HW111131   4.200   3.130   4.852
 3704SOL    HW211132   4.304   3.226   4.933
 3705SOL     OW11133   4.859   2.565   4.441
 3705SOL    HW111134   4.916   2.643   4.416
 3705SOL    HW211135   4.799   2.591   4.517
 3706SOL     OW11136   4.492   3.006   4.747
 3706SOL    HW111137   4.414   3.023   4.807
 3706SOL    HW211138   4.526   3.093   4.711
 3707SOL     OW11139   4.409   2.874   4.389
 3707SOL    HW111140   4.478   2.858   4.459
 3707SOL    HW211141   4.336   2.931   4.427
 3708SOL     OW11142   4.059   3.297   4.785
 3708SOL    HW111143   3.981   3.266   4.732
 3708SOL    HW211144   4.117   3.355   4.728
 3709SOL     OW11145   5.184   3.367   5.063
 3709SOL    HW111146   5.208   3.461   5.089
 3709SOL    HW211147   5.168   3.313   5.145
 3710SOL     OW11148   3.955   3.575   4.207
 3710SOL    HW111149   3.989   3.652   4.261
 3710SOL    HW211150   3.999   3.575   4.117
 3711SOL     OW11151   3.954   3.296   4.262
 3711SOL    HW111152   3.928   3.392   4.262
 3711SOL    HW211153   3.883   3.242   4.307
 3712SOL     OW11154   3.964   2.953   4.610
 3712SOL    HW111155   3.978   2.869   4.662
 3712SOL    HW211156   3.909   3.017   4.665
 3713SOL     OW11157   4.330   2.826   3.847
 3713SOL    HW111158   4.337   2.910   3.793
 3713SOL    HW211159   4.376   2.839   3.935
 3714SOL     OW11160   3.846   2.505   4.287
 3714SOL    HW111161   3.801   2.417   4.304
 3714SOL    HW211162   3.845   2.559   4.371
 3715SOL     OW11163   3.751   3.458   3.841
 3715SOL    HW111164   3.732   3.362   3.862
 3715SOL    HW211165   3.718   3.516   3.916
 3716SOL     OW11166   4.337   3.227   4.450
 3716SOL    HW111167   4.288   3.140   4.459
 3716SOL    HW211168   4.314   3.270   4.363
 3717SOL     OW11169   4.533   1.866   4.226
 3717SOL    HW111170   4.573   1.957   4.217
 3717SOL    HW211171   4.433   1.874   4.232
 3718SOL     OW11172   3.921   2.838   4.988
 3718SOL    HW111173   4.010   2.793   4.974
 3718SOL    HW211174   3.848   2.773   4.969
 3719SOL     OW11175   4.322   2.591   3.994
 3719SOL    HW111176   4.346   2.660   3.926
 3719SOL    HW211177   4.244   2.624   4.048
 3720SOL     OW11178   4.765   2.563   4.153
 3720SOL    HW111179   4.791   2.559   4.249
 3720SOL    HW211180   4.680   2.512   4.139
 3721SOL     OW11181   3.800   2.673   4.513
 3721SOL    HW111182   3.899   2.661   4.522
 3721SOL    HW211183   3.776   2.768   4.534
 3722SOL     OW11184   4.589   2.210   3.919
 3722SOL    HW111185   4.648   2.273   3.870
 3722SOL    HW211186   4.608   2.116   3.890
 3723SOL     OW11187   4.274   2.058   4.609
 3723SOL    HW111188   4.269   2.053   4.709
 3723SOL    HW211189   4.276   2.154   4.580
 3724SOL     OW11190   4.732   3.318   4.201
 3724SOL    HW111191   4.686   3.390   4.149
 3724SOL    HW211192   4.728   3.338   4.299
 3725SOL     OW11193   4.075   3.663   4.577
 3725SOL    HW111194   4.125   3.577   4.583
 3725SOL    HW211195   4.140   3.740   4.574
 3726SOL     OW11196   4.045   2.805   3.966
 3726SOL    HW111197   4.127   2.844   3.924
 3726SOL    HW211198   4.018   2.723   3.917
 3727SOL     OW11199   4.835   3.638   3.961
 3727SOL    HW111200   4.775   3.576   4.011
 3727SOL    HW211201   4.866   3.594   3.876
 3728SOL     OW11202   4.188   3.605   4.047
 3728SOL    HW111203   4.221   3.644   4.133
 3728SOL    HW211204   4.264   3.598   3.982
 3729SOL     OW11205   3.973   3.647   4.965
 3729SOL    HW111206   4.030   3.582   5.015
 3729SOL    HW211207   3.957   3.614   4.872
 3730SOL     OW11208   4.664   3.560   4.628
 3730SOL    HW111209   4.744   3.503   4.649
 3730SOL    HW211210   4.615   3.520   4.551
 3731SOL     OW11211   4.106   2.562   4.204
 3731SOL    HW111212   4.151   2.472   4.201
 3731SOL    HW211213   4.012   2.551   4.237
 3732SOL     OW11214   4.338   1.984   3.841
 3732SOL    HW111215   4.436   1.962   3.848
 3732SOL    HW211216   4.307   1.967   3.748
 3733SOL     OW11217   4.527   3.264   4.648
 3733SOL    HW111218   4.617   3.278   4.606
 3733SOL    HW211219   4.456   3.266   4.577
 3734SOL     OW11220   4.646   2.365   4.623
 3734SOL    HW111221   4.621   2.356   4.527
 3734SOL    HW211222   4.694   2.283   4.654
 3735SOL     OW11223   4.263   1.926   4.236
 3735SOL    HW111224   4.182   1.927   4.294
 3735SOL    HW211225   4.266   2.009   4.181
 3736SOL     OW11226   4.021   1.897   3.895
 3736SOL    HW111227   4.070   1.981   3.874
 3736SOL    HW211228   4.083   1.832   3.940
 3737SOL     OW11229   4.659   2.098   4.204
 3737SOL    HW111230   4.611   2.139   4.126
 3737SOL    HW211231   4.758   2.096   4.185
 3738SOL     OW11232   4.951   3.432   4.517
 3738SOL    HW111233   4.972   3.506   4.452
 3738SOL    HW211234   5.019   3.432   4.590
 3739SOL     OW11235   4.183   3.014   4.465
 3739SOL    HW111236   4.112   2.987   4.530
 3739SOL    HW211237   4.157   2.986   4.372
 3740SOL     OW11238   4.995   3.659   4.315
 3740SOL    HW111239   5.039   3.723   4.251
 3740SOL    HW211240   4.945   3.711   4.385
 3741SOL     OW11241   4.756   2.411   3.740
 3741SOL    HW111242   4.715   2.493   3.701
 3741SOL    HW211243   4.820   2.437   3.813
 3742SOL     OW11244   4.590   2.316   4.366
 3742SOL    HW111245   4.558   2.388   4.304
 3742SOL    HW211246   4.614   2.235   4.313
 3743SOL     OW11247   4.741   1.901   4.477
 3743SOL    HW111248   4.669   1.906   4.408
 3743SOL    HW211249   4.717   1.832   4.546
 3744SOL     OW11250   4.212   3.247   3.898
 3744SOL    HW111251   4.125   3.232   3.945
 3744SOL    HW211252   4.195   3.273   3.803
 3745SOL     OW11253   4.251   2.118   4.052
 3745SOL    HW111254   4.278   2.059   3.977
 3745SOL    HW211255   4.251   2.213   4.021
 3746SOL     OW11256   4.835   3.057   4.824
 3746SOL    HW111257   4.795   3.101   4.905
 3746SOL    HW211258   4.794   3.094   4.741
 3747SOL     OW11259   4.429   2.912   4.092
 3747SOL    HW111260   4.415   2.919   4.191
 3747SOL    HW211261   4.513   2.861   4.074
 3748SOL     OW11262   4.134   2.675   4.975
 3748SOL    HW111263   4.220   2.687   5.025
 3748SOL    HW211264   4.092   2.588   5.002
 3749SOL     OW11265   4.091   2.962   4.225
 3749SOL    HW111266   4.084   3.045   4.169
 3749SOL    HW211267   4.095   2.882   4.165
 3750SOL     OW11268   4.290   2.399   4.589
 3750SOL    HW111269   4.302   2.465   4.515
 3750SOL    HW211270   4.336   2.433   4.672
 3751SOL     OW11271   4.976   3.210   4.112
 3751SOL    HW111272   5.026   3.287   4.152
 3751SOL    HW211273   4.881   3.212   4.144
 3752SOL     OW11274   4.297   2.732   4.753
 3752SOL    HW111275   4.341   2.821   4.744
 3752SOL    HW211276   4.234   2.732   4.830
 3753SOL     OW11277   5.084   2.724   4.769
 3753SOL    HW111278   5.009   2.724   4.703
 3753SOL    HW211279   5.121   2.632   4.778
 3754SOL     OW11280   4.933   2.387   3.999
 3754SOL    HW111281   4.946   2.303   4.053
 3754SOL    HW211282   4.904   2.461   4.059
 3755SOL     OW11283   4.031   2.075   4.955
 3755SOL    HW111284   4.008   2.112   5.045
 3755SOL    HW211285   4.001   1.980   4.949
 3756SOL     OW11286   3.761   3.172   5.006
 3756SOL    HW111287   3.814   3.123   5.074
 3756SOL    HW211288   3.783   3.270   5.011
 3757SOL     OW11289   4.456   2.496   4.788
 3757SOL    HW111290   4.515   2.470   4.712
 3757SOL    HW211291   4.428   2.592   4.777
 3758SOL     OW11292   4.031   1.925   4.342
 3758SOL    HW111293   4.020   2.019   4.375
 3758SOL    HW211294   4.026   1.862   4.419
 3759SOL     OW11295   4.747   2.628   4.690
 3759SOL    HW111296   4.762   2.649   4.786
 3759SOL    HW211297   4.717   2.533   4.681
 3760SOL     OW11298   5.264   2.136   3.849
 3760SOL    HW111299   5.203   2.061   3.872
 3760SOL    HW211300   5.286   2.188   3.932
 3761SOL     OW11301   4.792   3.195   4.573
 3761SOL    HW111302   4.799   3.111   4.518
 3761SOL    HW211303   4.854   3.264   4.537
 3762SOL     OW11304   4.043   2.672   4.673
 3762SOL    HW111305   4.136   2.708   4.678
 3762SOL    HW211306   4.037   2.587   4.725
 3763SOL     OW11307   4.063   2.371   4.730
 3763SOL    HW111308   4.011   2.288   4.713
 3763SOL    HW211309   4.140   2.376   4.666
 3764SOL     OW11310   4.884   2.069   5.201
 3764SOL    HW111311   4.884   2.133   5.278
 3764SOL    HW211312   4.912   2.117   5.118
 3765SOL     OW11313   3.732   3.188   3.924
 3765SOL    HW111314   3.639   3.209   3.893
 3765SOL    HW211315   3.742   3.089   3.937
 3766SOL     OW11316   3.812   3.663   4.651
 3766SOL    HW111317   3.770   3.577   4.624
 3766SOL    HW211318   3.906   3.666   4.617
 3767SOL     OW11319   4.228   3.430   4.634
 3767SOL    HW111320   4.294   3.504   4.643
 3767SOL    HW211321   4.272   3.351   4.592
 3768SOL     OW11322   4.726   2.658   4.962
 3768SOL    HW111323   4.767   2.626   5.048
 3768SOL    HW211324   4.630   2.631   4.959
 3769SOL     OW11325   3.764   2.406   4.838
 3769SOL    HW111326   3.849   2.373   4.797
 3769SOL    HW211327   3.777   2.421   4.936
 3770SOL     OW11328   4.539   2.434   4.049
 3770SOL    HW111329   4.546   2.345   4.003
 3770SOL    HW211330   4.445   2.468   4.041
 3771SOL     OW11331   4.395   2.326   4.993
 3771SOL    HW111332   4.361   2.237   4.963
 3771SOL    HW211333   4.421   2.380   4.913
 3772SOL     OW11334   4.197   2.362   3.915
 3772SOL    HW111335   4.258   2.442   3.919
 3772SOL    HW211336   4.102   2.393   3.922
 3773SOL     OW11337   3.883   2.999   5.190
 3773SOL    HW111338   3.905   2.938   5.266
 3773SOL    HW211339   3.893   2.950   5.104
 3774SOL     OW11340   4.976   3.593   4.852
 3774SOL    HW111341   5.060   3.598   4.798
 3774SOL    HW211342   4.953   3.497   4.870
 3775SOL     OW11343   3.807   3.120   4.746
 3775SOL    HW111344   3.802   3.119   4.846
 3775SOL    HW211345   3.724   3.079   4.708
 3776SOL     OW11346   4.396   3.478   3.878
 3776SOL    HW111347   4.405   3.488   3.779
 3776SOL    HW211348   4.356   3.389   3.899
 3777SOL     OW11349   3.987   2.188   4.444
 3777SOL    HW111350   3.908   2.239   4.410
 3777SOL    HW211351   3.978   2.173   4.542
 3778SOL     OW11352   4.546   2.864   5.096
 3778SOL    HW111353   4.586   2.863   5.004
 3778SOL    HW211354   4.556   2.956   5.136
 3779SOL     OW11355   4.640   2.772   4.015
 3779SOL    HW111356   4.703   2.810   3.947
 3779SOL    HW211357   4.680   2.689   4.054
 3780SOL     OW11358   5.338   3.154   5.013
 3780SOL    HW111359   5.398   3.157   5.093
 3780SOL    HW211360   5.263   3.218   5.026
 3781SOL     OW11361   4.763   2.960   4.420
 3781SOL    HW111362   4.693   2.913   4.474
 3781SOL    HW211363   4.822   2.892   4.377
 3782SOL     OW11364   4.738   2.098   4.695
 3782SOL    HW111365   4.730   2.062   4.602
 3782SOL    HW211366   4.736   2.022   4.760
 3783SOL     OW11367   4.314   3.349   4.215
 3783SOL    HW111368   4.356   3.291   4.145
 3783SOL    HW211369   4.270   3.428   4.171
 3784SOL     OW11370   3.979   3.210   4.014
 3784SOL    HW111371   3.883   3.211   3.987
 3784SOL    HW211372   3.991   3.263   4.098
 3785SOL     OW11373   3.799   2.207   3.757
 3785SOL    HW111374   3.707   2.179   3.728
 3785SOL    HW211375   3.830   2.284   3.701
 3786SOL     OW11376   3.796   2.028   4.042
 3786SOL    HW111377   3.779   2.111   3.988
 3786SOL    HW211378   3.886   1.991   4.020
 3787SOL     OW11379   4.318   2.607   4.376
 3787SOL    HW111380   4.368   2.692   4.357
 3787SOL    HW211381   4.230   2.609   4.328
 3788SOL     OW11382   4.583   3.236   3.740
 3788SOL    HW111383   4.537   3.251   3.828
 3788SOL    HW211384   4.627   3.321   3.710
 3789SOL     OW11385   4.385   3.652   4.677
 3789SOL    HW111386   4.339   3.740   4.664
 3789SOL    HW211387   4.484   3.664   4.670
 3790SOL     OW11388   4.583   2.818   4.585
 3790SOL    HW111389   4.637   2.749   4.633
 3790SOL    HW211390   4.551   2.887   4.651
 3791SOL     OW11391   4.807   2.846   3.811
 3791SOL    HW111392   4.784   2.899   3.729
 3791SOL    HW211393   4.888   2.790   3.792
 3792SOL     OW11394   3.803   3.102   4.377
 3792SOL    HW111395   3.802   3.055   4.465
 3792SOL    HW211396   3.885   3.074   4.326
 3793SOL     OW11397   4.152   2.286   4.244
 3793SOL    HW111398   4.182   2.214   4.182
 3793SOL    HW211399   4.113   2.246   4.327
 3794SOL     OW11400   4.536   3.448   4.411
 3794SOL    HW111401   4.568   3.458   4.317
 3794SOL    HW211402   4.457   3.386   4.413
 3795SOL     OW11403   4.725   1.896   4.878
 3795SOL    HW111404   4.662   1.824   4.847
 3795SOL    HW211405   4.818   1.860   4.878
 3796SOL     OW11406   4.494   3.192   4.025
 3796SOL    HW111407   4.448   3.105   4.042
 3796SOL    HW211408   4.585   3.189   4.066
 3797SOL     OW11409   3.763   2.939   4.024
 3797SOL    HW111410   3.862   2.928   4.015
 3797SOL    HW211411   3.723   2.853   4.056
 3798SOL     OW11412   4.599   3.508   4.061
 3798SOL    HW111413   4.522   3.473   4.007
 3798SOL    HW211414   4.567   3.579   4.123
 3799SOL     OW11415   3.954   4.352   0.113
 3799SOL    HW111416   3.861   4.350   0.150
 3799SOL    HW211417   3.955   4.313   0.021
 3800SOL     OW11418   3.949   3.999   0.996
 3800SOL    HW111419   3.984   3.982   1.088
 3800SOL    HW211420   3.861   3.954   0.984
 3801SOL     OW11421   3.743   4.092   0.647
 3801SOL    HW111422   3.661   4.135   0.686
 3801SOL    HW211423   3.715   4.019   0.584
 3802SOL     OW11424   4.859   4.427   0.717
 3802SOL    HW111425   4.916   4.505   0.692
 3802SOL    HW211426   4.799   4.453   0.793
 3803SOL     OW11427   4.492   4.868   1.023
 3803SOL    HW111428   4.414   4.885   1.083
 3803SOL    HW211429   4.526   4.955   0.987
 3804SOL     OW11430   4.574   4.522   1.823
 3804SOL    HW111431   4.570   4.598   1.888
 3804SOL    HW211432   4.596   4.558   1.732
 3805SOL     OW11433   4.409   4.736   0.665
 3805SOL    HW111434   4.478   4.720   0.735
 3805SOL    HW211435   4.336   4.793   0.703
 3806SOL     OW11436   4.410   4.885   1.803
 3806SOL    HW111437   4.470   4.964   1.817
 3806SOL    HW211438   4.324   4.916   1.762
 3807SOL     OW11439   4.162   4.116   1.499
 3807SOL    HW111440   4.244   4.060   1.508
 3807SOL    HW211441   4.081   4.058   1.503
 3808SOL     OW11442   3.964   4.815   0.886
 3808SOL    HW111443   3.978   4.731   0.938
 3808SOL    HW211444   3.909   4.879   0.941
 3809SOL     OW11445   4.330   4.688   0.123
 3809SOL    HW111446   4.337   4.772   0.069
 3809SOL    HW211447   4.376   4.701   0.211
 3810SOL     OW11448   3.846   4.367   0.563
 3810SOL    HW111449   3.801   4.279   0.580
 3810SOL    HW211450   3.845   4.421   0.647
 3811SOL     OW11451   3.751   5.320   0.117
 3811SOL    HW111452   3.732   5.224   0.138
 3811SOL    HW211453   3.718   5.378   0.192
 3812SOL     OW11454   3.837   4.461   1.597
 3812SOL    HW111455   3.925   4.448   1.642
 3812SOL    HW211456   3.824   4.558   1.575
 3813SOL     OW11457   4.533   3.728   0.502
 3813SOL    HW111458   4.573   3.819   0.493
 3813SOL    HW211459   4.433   3.736   0.508
 3814SOL     OW11460   3.921   4.700   1.264
 3814SOL    HW111461   4.010   4.655   1.250
 3814SOL    HW211462   3.848   4.635   1.245
 3815SOL     OW11463   4.041   3.975   1.801
 3815SOL    HW111464   4.112   4.046   1.807
 3815SOL    HW211465   3.953   4.014   1.829
 3816SOL     OW11466   4.322   4.453   0.270
 3816SOL    HW111467   4.346   4.522   0.202
 3816SOL    HW211468   4.244   4.486   0.324
 3817SOL     OW11469   4.531   4.329   1.465
 3817SOL    HW111470   4.484   4.326   1.554
 3817SOL    HW211471   4.480   4.274   1.399
 3818SOL     OW11472   4.697   4.614   1.572
 3818SOL    HW111473   4.743   4.530   1.543
 3818SOL    HW211474   4.641   4.648   1.497
 3819SOL     OW11475   4.715   4.134   1.242
 3819SOL    HW111476   4.638   4.168   1.296
 3819SOL    HW211477   4.681   4.083   1.163
 3820SOL     OW11478   4.765   4.425   0.429
 3820SOL    HW111479   4.791   4.421   0.525
 3820SOL    HW211480   4.680   4.374   0.415
 3821SOL     OW11481   3.800   4.535   0.789
 3821SOL    HW111482   3.899   4.523   0.798
 3821SOL    HW211483   3.776   4.630   0.810
 3822SOL     OW11484   4.589   4.072   0.195
 3822SOL    HW111485   4.648   4.135   0.146
 3822SOL    HW211486   4.608   3.978   0.166
 3823SOL     OW11487   4.274   3.920   0.885
 3823SOL    HW111488   4.269   3.915   0.985
 3823SOL    HW211489   4.276   4.016   0.856
 3824SOL     OW11490   4.045   4.667   0.242
 3824SOL    HW111491   4.127   4.706   0.200
 3824SOL    HW211492   4.018   4.585   0.193
 3825SOL     OW11493   3.926   4.009   1.498
 3825SOL    HW111494   3.846   4.069   1.485
 3825SOL    HW211495   3.916   3.960   1.584
 3826SOL     OW11496   4.106   4.424   0.480
 3826SOL    HW111497   4.151   4.334   0.477
 3826SOL    HW211498   4.012   4.413   0.513
 3827SOL     OW11499   4.338   3.846   0.117
 3827SOL    HW111500   4.436   3.824   0.124
 3827SOL    HW211501   4.307   3.829   0.024
 3828SOL     OW11502   4.505   3.988   1.749
 3828SOL    HW111503   4.572   3.927   1.792
 3828SOL    HW211504   4.432   4.007   1.814
 3829SOL     OW11505   4.646   4.227   0.899
 3829SOL    HW111506   4.621   4.218   0.803
 3829SOL    HW211507   4.694   4.145   0.930
 3830SOL     OW11508   4.263   3.788   0.512
 3830SOL    HW111509   4.182   3.789   0.570
 3830SOL    HW211510   4.266   3.871   0.457
 3831SOL     OW11511   4.021   3.759   0.171
 3831SOL    HW111512   4.070   3.843   0.150
 3831SOL    HW211513   4.083   3.694   0.216
 3832SOL     OW11514   4.659   3.960   0.480
 3832SOL    HW111515   4.611   4.001   0.402
 3832SOL    HW211516   4.758   3.958   0.461
 3833SOL     OW11517   4.800   4.407   1.464
 3833SOL    HW111518   4.720   4.346   1.467
 3833SOL    HW211519   4.881   4.354   1.440
 3834SOL     OW11520   4.183   4.876   0.741
 3834SOL    HW111521   4.112   4.849   0.806
 3834SOL    HW211522   4.157   4.848   0.648
 3835SOL     OW11523   4.756   4.273   0.016
 3835SOL    HW111524   4.715   4.355  -0.023
 3835SOL    HW211525   4.820   4.299   0.089
 3836SOL     OW11526   3.802   4.280   1.386
 3836SOL    HW111527   3.894   4.279   1.345
 3836SOL    HW211528   3.796   4.354   1.453
 3837SOL     OW11529   4.285   3.946   1.147
 3837SOL    HW111530   4.323   3.862   1.184
 3837SOL    HW211531   4.197   3.965   1.191
 3838SOL     OW11532   4.590   4.178   0.642
 3838SOL    HW111533   4.558   4.250   0.580
 3838SOL    HW211534   4.614   4.097   0.589
 3839SOL     OW11535   4.741   3.763   0.753
 3839SOL    HW111536   4.669   3.768   0.684
 3839SOL    HW211537   4.717   3.694   0.822
 3840SOL     OW11538   4.251   3.980   0.328
 3840SOL    HW111539   4.278   3.921   0.253
 3840SOL    HW211540   4.251   4.075   0.297
 3841SOL     OW11541   4.639   3.813   1.402
 3841SOL    HW111542   4.664   3.793   1.307
 3841SOL    HW211543   4.711   3.869   1.444
 3842SOL     OW11544   4.704   4.840   1.719
 3842SOL    HW111545   4.605   4.846   1.729
 3842SOL    HW211546   4.727   4.760   1.663
 3843SOL     OW11547   4.429   4.774   0.368
 3843SOL    HW111548   4.415   4.781   0.467
 3843SOL    HW211549   4.513   4.723   0.350
 3844SOL     OW11550   4.134   4.537   1.251
 3844SOL    HW111551   4.220   4.549   1.301
 3844SOL    HW211552   4.092   4.450   1.278
 3845SOL     OW11553   4.091   4.824   0.501
 3845SOL    HW111554   4.084   4.907   0.445
 3845SOL    HW211555   4.095   4.744   0.441
 3846SOL     OW11556   4.290   4.261   0.865
 3846SOL    HW111557   4.302   4.327   0.791
 3846SOL    HW211558   4.336   4.295   0.948
 3847SOL     OW11559   4.126   4.475   1.598
 3847SOL    HW111560   4.194   4.530   1.551
 3847SOL    HW211561   4.166   4.387   1.625
 3848SOL     OW11562   4.737   3.829   1.770
 3848SOL    HW111563   4.743   3.914   1.718
 3848SOL    HW211564   4.769   3.753   1.713
 3849SOL     OW11565   4.228   3.774   1.740
 3849SOL    HW111566   4.186   3.717   1.670
 3849SOL    HW211567   4.162   3.843   1.772
 3850SOL     OW11568   4.297   4.594   1.029
 3850SOL    HW111569   4.341   4.683   1.020
 3850SOL    HW211570   4.234   4.594   1.106
 3851SOL     OW11571   5.084   4.586   1.045
 3851SOL    HW111572   5.009   4.586   0.979
 3851SOL    HW211573   5.121   4.494   1.054
 3852SOL     OW11574   4.933   4.249   0.275
 3852SOL    HW111575   4.946   4.165   0.329
 3852SOL    HW211576   4.904   4.323   0.335
 3853SOL     OW11577   4.031   3.937   1.231
 3853SOL    HW111578   4.008   3.974   1.321
 3853SOL    HW211579   4.001   3.842   1.225
 3854SOL     OW11580   4.456   4.358   1.064
 3854SOL    HW111581   4.515   4.332   0.988
 3854SOL    HW211582   4.428   4.454   1.053
 3855SOL     OW11583   4.031   3.787   0.618
 3855SOL    HW111584   4.020   3.881   0.651
 3855SOL    HW211585   4.026   3.724   0.695
 3856SOL     OW11586   4.747   4.490   0.966
 3856SOL    HW111587   4.762   4.511   1.062
 3856SOL    HW211588   4.717   4.395   0.957
 3857SOL     OW11589   4.074   4.622   1.804
 3857SOL    HW111590   4.150   4.666   1.852
 3857SOL    HW211591   4.109   4.575   1.722
 3858SOL     OW11592   4.043   4.534   0.949
 3858SOL    HW111593   4.136   4.570   0.954
 3858SOL    HW211594   4.037   4.449   1.001
 3859SOL     OW11595   4.063   4.233   1.006
 3859SOL    HW111596   4.011   4.150   0.989
 3859SOL    HW211597   4.140   4.238   0.942
 3860SOL     OW11598   4.862   4.104   1.678
 3860SOL    HW111599   4.817   4.167   1.742
 3860SOL    HW211600   4.955   4.135   1.661
 3861SOL     OW11601   4.884   3.931   1.477
 3861SOL    HW111602   4.884   3.995   1.554
 3861SOL    HW211603   4.912   3.979   1.394
 3862SOL     OW11604   3.732   5.050   0.200
 3862SOL    HW111605   3.639   5.071   0.169
 3862SOL    HW211606   3.742   4.951   0.213
 3863SOL     OW11607   4.726   4.520   1.238
 3863SOL    HW111608   4.767   4.488   1.324
 3863SOL    HW211609   4.630   4.493   1.235
 3864SOL     OW11610   3.764   4.268   1.114
 3864SOL    HW111611   3.849   4.235   1.073
 3864SOL    HW211612   3.777   4.283   1.212
 3865SOL     OW11613   3.913   4.244   1.722
 3865SOL    HW111614   3.972   4.204   1.652
 3865SOL    HW211615   3.855   4.315   1.681
 3866SOL     OW11616   4.539   4.296   0.325
 3866SOL    HW111617   4.546   4.207   0.279
 3866SOL    HW211618   4.445   4.330   0.317
 3867SOL     OW11619   4.395   4.188   1.269
 3867SOL    HW111620   4.361   4.099   1.239
 3867SOL    HW211621   4.421   4.242   1.189
 3868SOL     OW11622   4.197   4.224   0.191
 3868SOL    HW111623   4.258   4.304   0.195
 3868SOL    HW211624   4.102   4.255   0.198
 3869SOL     OW11625   3.883   4.861   1.466
 3869SOL    HW111626   3.905   4.800   1.542
 3869SOL    HW211627   3.893   4.812   1.380
 3870SOL     OW11628   3.807   4.982   1.022
 3870SOL    HW111629   3.802   4.981   1.122
 3870SOL    HW211630   3.724   4.941   0.984
 3871SOL     OW11631   4.627   3.810   0.133
 3871SOL    HW111632   4.678   3.811   0.047
 3871SOL    HW211633   4.683   3.768   0.204
 3872SOL     OW11634   3.987   4.050   0.720
 3872SOL    HW111635   3.908   4.101   0.686
 3872SOL    HW211636   3.978   4.035   0.818
 3873SOL     OW11637   4.546   4.726   1.372
 3873SOL    HW111638   4.586   4.725   1.280
 3873SOL    HW211639   4.556   4.818   1.412
 3874SOL     OW11640   4.640   4.634   0.291
 3874SOL    HW111641   4.703   4.672   0.223
 3874SOL    HW211642   4.680   4.551   0.330
 3875SOL     OW11643   4.096   5.012   1.490
 3875SOL    HW111644   4.083   5.105   1.456
 3875SOL    HW211645   4.012   4.960   1.477
 3876SOL     OW11646   4.763   4.822   0.696
 3876SOL    HW111647   4.693   4.775   0.750
 3876SOL    HW211648   4.822   4.754   0.653
 3877SOL     OW11649   4.738   3.960   0.971
 3877SOL    HW111650   4.730   3.924   0.878
 3877SOL    HW211651   4.736   3.884   1.036
 3878SOL     OW11652   3.829   4.737   1.726
 3878SOL    HW111653   3.752   4.704   1.780
 3878SOL    HW211654   3.914   4.707   1.768
 3879SOL     OW11655   4.396   3.927   1.489
 3879SOL    HW111656   4.486   3.911   1.449
 3879SOL    HW211657   4.404   3.932   1.588
 3880SOL     OW11658   3.796   3.890   0.318
 3880SOL    HW111659   3.779   3.973   0.264
 3880SOL    HW211660   3.886   3.853   0.296
 3881SOL     OW11661   4.337   4.566   1.431
 3881SOL    HW111662   4.393   4.647   1.414
 3881SOL    HW211663   4.396   4.486   1.434
 3882SOL     OW11664   4.440   4.289   1.708
 3882SOL    HW111665   4.459   4.354   1.782
 3882SOL    HW211666   4.500   4.209   1.717
 3883SOL     OW11667   4.318   4.469   0.652
 3883SOL    HW111668   4.368   4.554   0.633
 3883SOL    HW211669   4.230   4.471   0.604
 3884SOL     OW11670   4.583   4.680   0.861
 3884SOL    HW111671   4.637   4.611   0.909
 3884SOL    HW211672   4.551   4.749   0.927
 3885SOL     OW11673   4.807   4.708   0.087
 3885SOL    HW111674   4.784   4.761   0.005
 3885SOL    HW211675   4.888   4.652   0.068
 3886SOL     OW11676   3.803   4.964   0.653
 3886SOL    HW111677   3.802   4.917   0.741
 3886SOL    HW211678   3.885   4.936   0.602
 3887SOL     OW11679   4.152   4.148   0.520
 3887SOL    HW111680   4.182   4.076   0.458
 3887SOL    HW211681   4.113   4.108   0.603
 3888SOL     OW11682   4.041   4.271   1.280
 3888SOL    HW111683   4.079   4.212   1.352
 3888SOL    HW211684   4.081   4.245   1.192
 3889SOL     OW11685   4.725   3.758   1.154
 3889SOL    HW111686   4.662   3.686   1.123
 3889SOL    HW211687   4.818   3.722   1.154
 3890SOL     OW11688   4.494   5.054   0.301
 3890SOL    HW111689   4.448   4.967   0.318
 3890SOL    HW211690   4.585   5.051   0.342
 3891SOL     OW11691   3.954   4.352   1.975
 3891SOL    HW111692   3.861   4.350   2.012
 3891SOL    HW211693   3.955   4.313   1.883
 3892SOL     OW11694   3.949   3.999   2.858
 3892SOL    HW111695   3.984   3.982   2.950
 3892SOL    HW211696   3.861   3.954   2.846
 3893SOL     OW11697   3.743   4.092   2.509
 3893SOL    HW111698   3.661   4.135   2.548
 3893SOL    HW211699   3.715   4.019   2.446
 3894SOL     OW11700   4.859   4.427   2.579
 3894SOL    HW111701   4.916   4.505   2.554
 3894SOL    HW211702   4.799   4.453   2.655
 3895SOL     OW11703   4.492   4.868   2.885
 3895SOL    HW111704   4.414   4.885   2.945
 3895SOL    HW211705   4.526   4.955   2.849
 3896SOL     OW11706   4.574   4.522   3.685
 3896SOL    HW111707   4.570   4.598   3.750
 3896SOL    HW211708   4.596   4.558   3.594
 3897SOL     OW11709   4.409   4.736   2.527
 3897SOL    HW111710   4.478   4.720   2.597
 3897SOL    HW211711   4.336   4.793   2.565
 3898SOL     OW11712   4.410   4.885   3.665
 3898SOL    HW111713   4.470   4.964   3.679
 3898SOL    HW211714   4.324   4.916   3.624
 3899SOL     OW11715   4.162   4.116   3.361
 3899SOL    HW111716   4.244   4.060   3.370
 3899SOL    HW211717   4.081   4.058   3.365
 3900SOL     OW11718   3.964   4.815   2.748
 3900SOL    HW111719   3.978   4.731   2.800
 3900SOL    HW211720   3.909   4.879   2.803
 3901SOL     OW11721   4.330   4.688   1.985
 3901SOL    HW111722   4.337   4.772   1.931
 3901SOL    HW211723   4.376   4.701   2.073
 3902SOL     OW11724   3.846   4.367   2.425
 3902SOL    HW111725   3.801   4.279   2.442
 3902SOL    HW211726   3.845   4.421   2.509
 3903SOL     OW11727   3.837   4.461   3.459
 3903SOL    HW111728   3.925   4.448   3.504
 3903SOL    HW211729   3.824   4.558   3.437
 3904SOL     OW11730   4.533   3.728   2.364
 3904SOL    HW111731   4.573   3.819   2.355
 3904SOL    HW211732   4.433   3.736   2.370
 3905SOL     OW11733   3.921   4.700   3.126
 3905SOL    HW111734   4.010   4.655   3.112
 3905SOL    HW211735   3.848   4.635   3.107
 3906SOL     OW11736   4.041   3.975   3.663
 3906SOL    HW111737   4.112   4.046   3.669
 3906SOL    HW211738   3.953   4.014   3.691
 3907SOL     OW11739   4.322   4.453   2.132
 3907SOL    HW111740   4.346   4.522   2.064
 3907SOL    HW211741   4.244   4.486   2.186
 3908SOL     OW11742   4.531   4.329   3.327
 3908SOL    HW111743   4.484   4.326   3.416
 3908SOL    HW211744   4.480   4.274   3.261
 3909SOL     OW11745   4.697   4.614   3.434
 3909SOL    HW111746   4.743   4.530   3.405
 3909SOL    HW211747   4.641   4.648   3.359
 3910SOL     OW11748   4.715   4.134   3.104
 3910SOL    HW111749   4.638   4.168   3.158
 3910SOL    HW211750   4.681   4.083   3.025
 3911SOL     OW11751   4.765   4.425   2.291
 3911SOL    HW111752   4.791   4.421   2.387
 3911SOL    HW211753   4.680   4.374   2.277
 3912SOL     OW11754   3.800   4.535   2.651
 3912SOL    HW111755   3.899   4.523   2.660
 3912SOL    HW211756   3.776   4.630   2.672
 3913SOL     OW11757   4.589   4.072   2.057
 3913SOL    HW111758   4.648   4.135   2.008
 3913SOL    HW211759   4.608   3.978   2.028
 3914SOL     OW11760   4.274   3.920   2.747
 3914SOL    HW111761   4.269   3.915   2.847
 3914SOL    HW211762   4.276   4.016   2.718
 3915SOL     OW11763   4.045   4.667   2.104
 3915SOL    HW111764   4.127   4.706   2.062
 3915SOL    HW211765   4.018   4.585   2.055
 3916SOL     OW11766   3.926   4.009   3.360
 3916SOL    HW111767   3.846   4.069   3.347
 3916SOL    HW211768   3.916   3.960   3.446
 3917SOL     OW11769   4.106   4.424   2.342
 3917SOL    HW111770   4.151   4.334   2.339
 3917SOL    HW211771   4.012   4.413   2.375
 3918SOL     OW11772   4.338   3.846   1.979
 3918SOL    HW111773   4.436   3.824   1.986
 3918SOL    HW211774   4.307   3.829   1.886
 3919SOL     OW11775   4.505   3.988   3.611
 3919SOL    HW111776   4.572   3.927   3.654
 3919SOL    HW211777   4.432   4.007   3.676
 3920SOL     OW11778   4.646   4.227   2.761
 3920SOL    HW111779   4.621   4.218   2.665
 3920SOL    HW211780   4.694   4.145   2.792
 3921SOL     OW11781   4.263   3.788   2.374
 3921SOL    HW111782   4.182   3.789   2.432
 3921SOL    HW211783   4.266   3.871   2.319
 3922SOL     OW11784   5.158   4.912   1.903
 3922SOL    HW111785   5.190   4.836   1.960
 3922SOL    HW211786   5.066   4.939   1.933
 3923SOL     OW11787   4.021   3.759   2.033
 3923SOL    HW111788   4.070   3.843   2.012
 3923SOL    HW211789   4.083   3.694   2.078
 3924SOL     OW11790   4.659   3.960   2.342
 3924SOL    HW111791   4.611   4.001   2.264
 3924SOL    HW211792   4.758   3.958   2.323
 3925SOL     OW11793   4.800   4.407   3.326
 3925SOL    HW111794   4.720   4.346   3.329
 3925SOL    HW211795   4.881   4.354   3.302
 3926SOL     OW11796   4.183   4.876   2.603
 3926SOL    HW111797   4.112   4.849   2.668
 3926SOL    HW211798   4.157   4.848   2.510
 3927SOL     OW11799   4.756   4.273   1.878
 3927SOL    HW111800   4.715   4.355   1.839
 3927SOL    HW211801   4.820   4.299   1.951
 3928SOL     OW11802   3.802   4.280   3.248
 3928SOL    HW111803   3.894   4.279   3.207
 3928SOL    HW211804   3.796   4.354   3.315
 3929SOL     OW11805   4.285   3.946   3.009
 3929SOL    HW111806   4.323   3.862   3.046
 3929SOL    HW211807   4.197   3.965   3.053
 3930SOL     OW11808   4.590   4.178   2.504
 3930SOL    HW111809   4.558   4.250   2.442
 3930SOL    HW211810   4.614   4.097   2.451
 3931SOL     OW11811   4.741   3.763   2.615
 3931SOL    HW111812   4.669   3.768   2.546
 3931SOL    HW211813   4.717   3.694   2.684
 3932SOL     OW11814   4.251   3.980   2.190
 3932SOL    HW111815   4.278   3.921   2.115
 3932SOL    HW211816   4.251   4.075   2.159
 3933SOL     OW11817   4.639   3.813   3.264
 3933SOL    HW111818   4.664   3.793   3.169
 3933SOL    HW211819   4.711   3.869   3.306
 3934SOL     OW11820   4.704   4.840   3.581
 3934SOL    HW111821   4.605   4.846   3.591
 3934SOL    HW211822   4.727   4.760   3.525
 3935SOL     OW11823   4.429   4.774   2.230
 3935SOL    HW111824   4.415   4.781   2.329
 3935SOL    HW211825   4.513   4.723   2.212
 3936SOL     OW11826   4.134   4.537   3.113
 3936SOL    HW111827   4.220   4.549   3.163
 3936SOL    HW211828   4.092   4.450   3.140
 3937SOL     OW11829   4.091   4.824   2.363
 3937SOL    HW111830   4.084   4.907   2.307
 3937SOL    HW211831   4.095   4.744   2.303
 3938SOL     OW11832   4.290   4.261   2.727
 3938SOL    HW111833   4.302   4.327   2.653
 3938SOL    HW211834   4.336   4.295   2.810
 3939SOL     OW11835   4.126   4.475   3.460
 3939SOL    HW111836   4.194   4.530   3.413
 3939SOL    HW211837   4.166   4.387   3.487
 3940SOL     OW11838   4.737   3.829   3.632
 3940SOL    HW111839   4.743   3.914   3.580
 3940SOL    HW211840   4.769   3.753   3.575
 3941SOL     OW11841   4.228   3.774   3.602
 3941SOL    HW111842   4.186   3.717   3.532
 3941SOL    HW211843   4.162   3.843   3.634
 3942SOL     OW11844   4.297   4.594   2.891
 3942SOL    HW111845   4.341   4.683   2.882
 3942SOL    HW211846   4.234   4.594   2.968
 3943SOL     OW11847   5.084   4.586   2.907
 3943SOL    HW111848   5.009   4.586   2.841
 3943SOL    HW211849   5.121   4.494   2.916
 3944SOL     OW11850   4.933   4.249   2.137
 3944SOL    HW111851   4.946   4.165   2.191
 3944SOL    HW211852   4.904   4.323   2.197
 3945SOL     OW11853   4.031   3.937   3.093
 3945SOL    HW111854   4.008   3.974   3.183
 3945SOL    HW211855   4.001   3.842   3.087
 3946SOL     OW11856   4.456   4.358   2.926
 3946SOL    HW111857   4.515   4.332   2.850
 3946SOL    HW211858   4.428   4.454   2.915
 3947SOL     OW11859   4.031   3.787   2.480
 3947SOL    HW111860   4.020   3.881   2.513
 3947SOL    HW211861   4.026   3.724   2.557
 3948SOL     OW11862   4.747   4.490   2.828
 3948SOL    HW111863   4.762   4.511   2.924
 3948SOL    HW211864   4.717   4.395   2.819
 3949SOL     OW11865   4.074   4.622   3.666
 3949SOL    HW111866   4.150   4.666   3.714
 3949SOL    HW211867   4.109   4.575   3.584
 3950SOL     OW11868   5.264   3.998   1.987
 3950SOL    HW111869   5.203   3.923   2.010
 3950SOL    HW211870   5.286   4.050   2.070
 3951SOL     OW11871   4.043   4.534   2.811
 3951SOL    HW111872   4.136   4.570   2.816
 3951SOL    HW211873   4.037   4.449   2.863
 3952SOL     OW11874   4.063   4.233   2.868
 3952SOL    HW111875   4.011   4.150   2.851
 3952SOL    HW211876   4.140   4.238   2.804
 3953SOL     OW11877   4.862   4.104   3.540
 3953SOL    HW111878   4.817   4.167   3.604
 3953SOL    HW211879   4.955   4.135   3.523
 3954SOL     OW11880   4.884   3.931   3.339
 3954SOL    HW111881   4.884   3.995   3.416
 3954SOL    HW211882   4.912   3.979   3.256
 3955SOL     OW11883   3.732   5.050   2.062
 3955SOL    HW111884   3.639   5.071   2.031
 3955SOL    HW211885   3.742   4.951   2.075
 3956SOL     OW11886   4.726   4.520   3.100
 3956SOL    HW111887   4.767   4.488   3.186
 3956SOL    HW211888   4.630   4.493   3.097
 3957SOL     OW11889   3.764   4.268   2.976
 3957SOL    HW111890   3.849   4.235   2.935
 3957SOL    HW211891   3.777   4.283   3.074
 3958SOL     OW11892   3.913   4.244   3.584
 3958SOL    HW111893   3.972   4.204   3.514
 3958SOL    HW211894   3.855   4.315   3.543
 3959SOL     OW11895   4.539   4.296   2.187
 3959SOL    HW111896   4.546   4.207   2.141
 3959SOL    HW211897   4.445   4.330   2.179
 3960SOL     OW11898   4.395   4.188   3.131
 3960SOL    HW111899   4.361   4.099   3.101
 3960SOL    HW211900   4.421   4.242   3.051
 3961SOL     OW11901   4.197   4.224   2.053
 3961SOL    HW111902   4.258   4.304   2.057
 3961SOL    HW211903   4.102   4.255   2.060
 3962SOL     OW11904   3.883   4.861   3.328
 3962SOL    HW111905   3.905   4.800   3.404
 3962SOL    HW211906   3.893   4.812   3.242
 3963SOL     OW11907   3.807   4.982   2.884
 3963SOL    HW111908   3.802   4.981   2.984
 3963SOL    HW211909   3.724   4.941   2.846
 3964SOL     OW11910   3.987   4.050   2.582
 3964SOL    HW111911   3.908   4.101   2.548
 3964SOL    HW211912   3.978   4.035   2.680
 3965SOL     OW11913   4.546   4.726   3.234
 3965SOL    HW111914   4.586   4.725   3.142
 3965SOL    HW211915   4.556   4.818   3.274
 3966SOL     OW11916   4.640   4.634   2.153
 3966SOL    HW111917   4.703   4.672   2.085
 3966SOL    HW211918   4.680   4.551   2.192
 3967SOL     OW11919   4.096   5.012   3.352
 3967SOL    HW111920   4.083   5.105   3.318
 3967SOL    HW211921   4.012   4.960   3.339
 3968SOL     OW11922   4.763   4.822   2.558
 3968SOL    HW111923   4.693   4.775   2.612
 3968SOL    HW211924   4.822   4.754   2.515
 3969SOL     OW11925   4.738   3.960   2.833
 3969SOL    HW111926   4.730   3.924   2.740
 3969SOL    HW211927   4.736   3.884   2.898
 3970SOL     OW11928   3.829   4.737   3.588
 3970SOL    HW111929   3.752   4.704   3.642
 3970SOL    HW211930   3.914   4.707   3.630
 3971SOL     OW11931   4.396   3.927   3.351
 3971SOL    HW111932   4.486   3.911   3.311
 3971SOL    HW211933   4.404   3.932   3.450
 3972SOL     OW11934   3.799   4.069   1.895
 3972SOL    HW111935   3.707   4.041   1.866
 3972SOL    HW211936   3.830   4.146   1.839
 3973SOL     OW11937   3.796   3.890   2.180
 3973SOL    HW111938   3.779   3.973   2.126
 3973SOL    HW211939   3.886   3.853   2.158
 3974SOL     OW11940   4.337   4.566   3.293
 3974SOL    HW111941   4.393   4.647   3.276
 3974SOL    HW211942   4.396   4.486   3.296
 3975SOL     OW11943   4.440   4.289   3.570
 3975SOL    HW111944   4.459   4.354   3.644
 3975SOL    HW211945   4.500   4.209   3.579
 3976SOL     OW11946   4.318   4.469   2.514
 3976SOL    HW111947   4.368   4.554   2.495
 3976SOL    HW211948   4.230   4.471   2.466
 3977SOL     OW11949   4.583   4.680   2.723
 3977SOL    HW111950   4.637   4.611   2.771
 3977SOL    HW211951   4.551   4.749   2.789
 3978SOL     OW11952   4.807   4.708   1.949
 3978SOL    HW111953   4.784   4.761   1.867
 3978SOL    HW211954   4.888   4.652   1.930
 3979SOL     OW11955   3.803   4.964   2.515
 3979SOL    HW111956   3.802   4.917   2.603
 3979SOL    HW211957   3.885   4.936   2.464
 3980SOL     OW11958   4.152   4.148   2.382
 3980SOL    HW111959   4.182   4.076   2.320
 3980SOL    HW211960   4.113   4.108   2.465
 3981SOL     OW11961   4.041   4.271   3.142
 3981SOL    HW111962   4.079   4.212   3.214
 3981SOL    HW211963   4.081   4.245   3.054
 3982SOL     OW11964   4.725   3.758   3.016
 3982SOL    HW111965   4.662   3.686   2.985
 3982SOL    HW211966   4.818   3.722   3.016
 3983SOL     OW11967   4.494   5.054   2.163
 3983SOL    HW111968   4.448   4.967   2.180
 3983SOL    HW211969   4.585   5.051   2.204
 3984SOL     OW11970   3.763   4.801   2.162
 3984SOL    HW111971   3.862   4.790   2.153
 3984SOL    HW211972   3.723   4.715   2.194
 3985SOL     OW11973   3.954   4.352   3.837
 3985SOL    HW111974   3.861   4.350   3.874
 3985SOL    HW211975   3.955   4.313   3.745
 3986SOL     OW11976   3.949   3.999   4.720
 3986SOL    HW111977   3.984   3.982   4.812
 3986SOL    HW211978   3.861   3.954   4.708
 3987SOL     OW11979   3.743   4.092   4.371
 3987SOL    HW111980   3.661   4.135   4.410
 3987SOL    HW211981   3.715   4.019   4.308
 3988SOL     OW11982   4.859   4.427   4.441
 3988SOL    HW111983   4.916   4.505   4.416
 3988SOL    HW211984   4.799   4.453   4.517
 3989SOL     OW11985   4.492   4.868   4.747
 3989SOL    HW111986   4.414   4.885   4.807
 3989SOL    HW211987   4.526   4.955   4.711
 3990SOL     OW11988   4.409   4.736   4.389
 3990SOL    HW111989   4.478   4.720   4.459
 3990SOL    HW211990   4.336   4.793   4.427
 3991SOL     OW11991   3.964   4.815   4.610
 3991SOL    HW111992   3.978   4.731   4.662
 3991SOL    HW211993   3.909   4.879   4.665
 3992SOL     OW11994   4.330   4.688   3.847
 3992SOL    HW111995   4.337   4.772   3.793
 3992SOL    HW211996   4.376   4.701   3.935
 3993SOL     OW11997   3.846   4.367   4.287
 3993SOL    HW111998   3.801   4.279   4.304
 3993SOL    HW211999   3.845   4.421   4.371
 3994SOL     OW12000   4.533   3.728   4.226
 3994SOL    HW112001   4.573   3.819   4.217
 3994SOL    HW212002   4.433   3.736   4.232
 3995SOL     OW12003   3.921   4.700   4.988
 3995SOL    HW112004   4.010   4.655   4.974
 3995SOL    HW212005   3.848   4.635   4.969
 3996SOL     OW12006   4.322   4.453   3.994
 3996SOL    HW112007   4.346   4.522   3.926
 3996SOL    HW212008   4.244   4.486   4.048
 3997SOL     OW12009   4.765   4.425   4.153
 3997SOL    HW112010   4.791   4.421   4.249
 3997SOL    HW212011   4.680   4.374   4.139
 3998SOL     OW12012   3.800   4.535   4.513
 3998SOL    HW112013   3.899   4.523   4.522
 3998SOL    HW212014   3.776   4.630   4.534
 3999SOL     OW12015   4.589   4.072   3.919
 3999SOL    HW112016   4.648   4.135   3.870
 3999SOL    HW212017   4.608   3.978   3.890
 4000SOL     OW12018   4.274   3.920   4.609
 4000SOL    HW112019   4.269   3.915   4.709
 4000SOL    HW212020   4.276   4.016   4.580
 4001SOL     OW12021   4.045   4.667   3.966
 4001SOL    HW112022   4.127   4.706   3.924
 4001SOL    HW212023   4.018   4.585   3.917
 4002SOL     OW12024   4.106   4.424   4.204
 4002SOL    HW112025   4.151   4.334   4.201
 4002SOL    HW212026   4.012   4.413   4.237
 4003SOL     OW12027   4.338   3.846   3.841
 4003SOL    HW112028   4.436   3.824   3.848
 4003SOL    HW212029   4.307   3.829   3.748
 4004SOL     OW12030   4.646   4.227   4.623
 4004SOL    HW112031   4.621   4.218   4.527
 4004SOL    HW212032   4.694   4.145   4.654
 4005SOL     OW12033   4.263   3.788   4.236
 4005SOL    HW112034   4.182   3.789   4.294
 4005SOL    HW212035   4.266   3.871   4.181
 4006SOL     OW12036   5.158   4.912   3.765
 4006SOL    HW112037   5.190   4.836   3.822
 4006SOL    HW212038   5.066   4.939   3.795
 4007SOL     OW12039   4.021   3.759   3.895
 4007SOL    HW112040   4.070   3.843   3.874
 4007SOL    HW212041   4.083   3.694   3.940
 4008SOL     OW12042   4.659   3.960   4.204
 4008SOL    HW112043   4.611   4.001   4.126
 4008SOL    HW212044   4.758   3.958   4.185
 4009SOL     OW12045   4.183   4.876   4.465
 4009SOL    HW112046   4.112   4.849   4.530
 4009SOL    HW212047   4.157   4.848   4.372
 4010SOL     OW12048   4.756   4.273   3.740
 4010SOL    HW112049   4.715   4.355   3.701
 4010SOL    HW212050   4.820   4.299   3.813
 4011SOL     OW12051   4.590   4.178   4.366
 4011SOL    HW112052   4.558   4.250   4.304
 4011SOL    HW212053   4.614   4.097   4.313
 4012SOL     OW12054   4.741   3.763   4.477
 4012SOL    HW112055   4.669   3.768   4.408
 4012SOL    HW212056   4.717   3.694   4.546
 4013SOL     OW12057   4.251   3.980   4.052
 4013SOL    HW112058   4.278   3.921   3.977
 4013SOL    HW212059   4.251   4.075   4.021
 4014SOL     OW12060   4.429   4.774   4.092
 4014SOL    HW112061   4.415   4.781   4.191
 4014SOL    HW212062   4.513   4.723   4.074
 4015SOL     OW12063   4.134   4.537   4.975
 4015SOL    HW112064   4.220   4.549   5.025
 4015SOL    HW212065   4.092   4.450   5.002
 4016SOL     OW12066   4.091   4.824   4.225
 4016SOL    HW112067   4.084   4.907   4.169
 4016SOL    HW212068   4.095   4.744   4.165
 4017SOL     OW12069   4.290   4.261   4.589
 4017SOL    HW112070   4.302   4.327   4.515
 4017SOL    HW212071   4.336   4.295   4.672
 4018SOL     OW12072   4.297   4.594   4.753
 4018SOL    HW112073   4.341   4.683   4.744
 4018SOL    HW212074   4.234   4.594   4.830
 4019SOL     OW12075   5.084   4.586   4.769
 4019SOL    HW112076   5.009   4.586   4.703
 4019SOL    HW212077   5.121   4.494   4.778
 4020SOL     OW12078   4.933   4.249   3.999
 4020SOL    HW112079   4.946   4.165   4.053
 4020SOL    HW212080   4.904   4.323   4.059
 4021SOL     OW12081   4.031   3.937   4.955
 4021SOL    HW112082   4.008   3.974   5.045
 4021SOL    HW212083   4.001   3.842   4.949
 4022SOL     OW12084   4.456   4.358   4.788
 4022SOL    HW112085   4.515   4.332   4.712
 4022SOL    HW212086   4.428   4.454   4.777
 4023SOL     OW12087   4.031   3.787   4.342
 4023SOL    HW112088   4.020   3.881   4.375
 4023SOL    HW212089   4.026   3.724   4.419
 4024SOL     OW12090   4.747   4.490   4.690
 4024SOL    HW112091   4.762   4.511   4.786
 4024SOL    HW212092   4.717   4.395   4.681
 4025SOL     OW12093   5.264   3.998   3.849
 4025SOL    HW112094   5.203   3.923   3.872
 4025SOL    HW212095   5.286   4.050   3.932
 4026SOL     OW12096   4.043   4.534   4.673
 4026SOL    HW112097   4.136   4.570   4.678
 4026SOL    HW212098   4.037   4.449   4.725
 4027SOL     OW12099   4.063   4.233   4.730
 4027SOL    HW112100   4.011   4.150   4.713
 4027SOL    HW212101   4.140   4.238   4.666
 4028SOL     OW12102   4.884   3.931   5.201
 4028SOL    HW112103   4.884   3.995   5.278
 4028SOL    HW212104   4.912   3.979   5.118
 4029SOL     OW12105   3.732   5.050   3.924
 4029SOL    HW112106   3.639   5.071   3.893
 4029SOL    HW212107   3.742   4.951   3.937
 4030SOL     OW12108   4.726   4.520   4.962
 4030SOL    HW112109   4.767   4.488   5.048
 4030SOL    HW212110   4.630   4.493   4.959
 4031SOL     OW12111   3.764   4.268   4.838
 4031SOL    HW112112   3.849   4.235   4.797
 4031SOL    HW212113   3.777   4.283   4.936
 4032SOL     OW12114   4.539   4.296   4.049
 4032SOL    HW112115   4.546   4.207   4.003
 4032SOL    HW212116   4.445   4.330   4.041
 4033SOL     OW12117   4.395   4.188   4.993
 4033SOL    HW112118   4.361   4.099   4.963
 4033SOL    HW212119   4.421   4.242   4.913
 4034SOL     OW12120   4.197   4.224   3.915
 4034SOL    HW112121   4.258   4.304   3.919
 4034SOL    HW212122   4.102   4.255   3.922
 4035SOL     OW12123   3.883   4.861   5.190
 4035SOL    HW112124   3.905   4.800   5.266
 4035SOL    HW212125   3.893   4.812   5.104
 4036SOL     OW12126   3.807   4.982   4.746
 4036SOL    HW112127   3.802   4.981   4.846
 4036SOL    HW212128   3.724   4.941   4.708
 4037SOL     OW12129   3.987   4.050   4.444
 4037SOL    HW112130   3.908   4.101   4.410
 4037SOL    HW212131   3.978   4.035   4.542
 4038SOL     OW12132   4.546   4.726   5.096
 4038SOL    HW112133   4.586   4.725   5.004
 4038SOL    HW212134   4.556   4.818   5.136
 4039SOL     OW12135   4.640   4.634   4.015
 4039SOL    HW112136   4.703   4.672   3.947
 4039SOL    HW212137   4.680   4.551   4.054
 4040SOL     OW12138   4.763   4.822   4.420
 4040SOL    HW112139   4.693   4.775   4.474
 4040SOL    HW212140   4.822   4.754   4.377
 4041SOL     OW12141   4.738   3.960   4.695
 4041SOL    HW112142   4.730   3.924   4.602
 4041SOL    HW212143   4.736   3.884   4.760
 4042SOL     OW12144   3.799   4.069   3.757
 4042SOL    HW112145   3.707   4.041   3.728
 4042SOL    HW212146   3.830   4.146   3.701
 4043SOL     OW12147   3.796   3.890   4.042
 4043SOL    HW112148   3.779   3.973   3.988
 4043SOL    HW212149   3.886   3.853   4.020
 4044SOL     OW12150   4.318   4.469   4.376
 4044SOL    HW112151   4.368   4.554   4.357
 4044SOL    HW212152   4.230   4.471   4.328
 4045SOL     OW12153   4.583   4.680   4.585
 4045SOL    HW112154   4.637   4.611   4.633
 4045SOL    HW212155   4.551   4.749   4.651
 4046SOL     OW12156   4.807   4.708   3.811
 4046SOL    HW112157   4.784   4.761   3.729
 4046SOL    HW212158   4.888   4.652   3.792
 4047SOL     OW12159   3.803   4.964   4.377
 4047SOL    HW112160   3.802   4.917   4.465
 4047SOL    HW212161   3.885   4.936   4.326
 4048SOL     OW12162   4.152   4.148   4.244
 4048SOL    HW112163   4.182   4.076   4.182
 4048SOL    HW212164   4.113   4.108   4.327
 4049SOL     OW12165   4.725   3.758   4.878
 4049SOL    HW112166   4.662   3.686   4.847
 4049SOL    HW212167   4.818   3.722   4.878
 4050SOL     OW12168   4.494   5.054   4.025
 4050SOL    HW112169   4.448   4.967   4.042
 4050SOL    HW212170   4.585   5.051   4.066
 4051SOL     OW12171   3.763   4.801   4.024
 4051SOL    HW112172   3.862   4.790   4.015
 4051SOL    HW212173   3.723   4.715   4.056
   5.00715   5.00715   5.00715
