SAMPL4_013
    27
  -0.5830000  -0.6710000  -1.2600000   0.5220000   0.0960000  -1.2540000
  -2.3020000  -0.3050000   3.2910000  -1.4430000  -0.9300000   2.4730000
  -1.3260000  -1.0780000  -0.0210000   0.6110000  -0.1310000   1.2810000
   1.1470000   0.5830000   0.0320000  -0.9170000  -0.2800000   1.2280000
   1.2100000   0.4880000  -2.5300000  -0.9530000  -2.3210000   2.7500000
   0.8990000   1.9810000   0.1750000  -0.9900000  -1.0240000  -2.2040000
  -2.6760000  -0.7840000   4.1890000  -2.6510000   0.7010000   3.0820000
  -2.4010000  -0.9440000  -0.1950000  -1.1630000  -2.1530000   0.1340000
   1.0730000  -1.1240000   1.3570000   0.8980000   0.4290000   2.1800000
   2.2330000   0.4420000  -0.0040000  -1.3650000   0.7210000   1.1690000
   0.7920000   1.4240000  -2.8930000   1.0640000  -0.2910000  -3.2750000
   2.2750000   0.6100000  -2.3440000  -1.6180000  -3.0570000   2.2860000
   0.0540000  -2.4560000   2.3440000  -0.9120000  -2.5380000   3.8230000
   1.3150000   2.2500000   1.0080000
