%VERSION  VERSION_STAMP = V0001.000  DATE = 05/20/26  23:59:20                  
%FLAG TITLE                                                                     
%FORMAT(20a4)                                                                   
SAMPL4_013                                                                      
%FLAG POINTERS                                                                  
%FORMAT(10I8)                                                                   
      27       7      16      11      34      15      53      23       0       0
     146       1      11      15      23      10      19      17       8       0
       0       0       0       0       0       0       0       0      27       0
       0
%FLAG ATOM_NAME                                                                 
%FORMAT(20a4)                                                                   
C1  C2  C3  C4  C5  C6  C7  C8  C9  C10 O1  H1  H2  H3  H4  H5  H6  H7  H8  H9  
H10 H11 H12 H13 H14 H15 H16 
%FLAG CHARGE                                                                    
%FORMAT(5E16.8)                                                                 
 -2.86454556E+00 -2.02996422E+00 -4.08179520E+00 -2.02996422E+00 -7.50758760E-01
 -1.88418582E+00  3.26725839E+00 -5.37557850E-01 -1.03684887E+00 -1.10973807E+00
 -1.08568463E+01  2.25956520E+00  2.05911990E+00  2.05911990E+00  9.51204060E-01
  9.51204060E-01  8.78314860E-01  8.78314860E-01  6.50536110E-01  1.23364971E+00
  8.20604836E-01  8.20604836E-01  8.20604836E-01  7.59869910E-01  7.59869910E-01
  7.59869910E-01  7.25247540E+00
%FLAG ATOMIC_NUMBER                                                             
%FORMAT(10I8)                                                                   
       6       6       6       6       6       6       6       6       6       6
       8       1       1       1       1       1       1       1       1       1
       1       1       1       1       1       1       1
%FLAG MASS                                                                      
%FORMAT(5E16.8)                                                                 
  1.20100000E+01  1.20100000E+01  1.20100000E+01  1.20100000E+01  1.20100000E+01
  1.20100000E+01  1.20100000E+01  1.20100000E+01  1.20100000E+01  1.20100000E+01
  1.60000000E+01  1.00800000E+00  1.00800000E+00  1.00800000E+00  1.00800000E+00
  1.00800000E+00  1.00800000E+00  1.00800000E+00  1.00800000E+00  1.00800000E+00
  1.00800000E+00  1.00800000E+00  1.00800000E+00  1.00800000E+00  1.00800000E+00
  1.00800000E+00  1.00800000E+00
%FLAG ATOM_TYPE_INDEX                                                           
%FORMAT(10I8)                                                                   
       1       1       1       1       2       2       2       2       2       2
       3       4       4       4       5       5       5       5       6       5
       5       5       5       5       5       5       7
%FLAG NUMBER_EXCLUDED_ATOMS                                                     
%FORMAT(10I8)                                                                   
      16      16      11      15      11      12      12      14       6       6
       4       2       1       1       2       1       3       2       1       1
       2       1       1       2       1       1       1
%FLAG NONBONDED_PARM_INDEX                                                      
%FORMAT(10I8)                                                                   
       1       2       4       7      11      16      22       2       3       5
       8      12      17      23       4       5       6       9      13      18
      24       7       8       9      10      14      19      25      11      12
      13      14      15      20      26      16      17      18      19      20
      21      27      22      23      24      25      26      27      28
%FLAG RESIDUE_LABEL                                                             
%FORMAT(20a4)                                                                   
MOL 
%FLAG RESIDUE_POINTER                                                           
%FORMAT(10I8)                                                                   
       1
%FLAG BOND_FORCE_CONSTANT                                                       
%FORMAT(5E16.8)                                                                 
  4.36000000E+02  2.44960000E+02  3.57290000E+02  2.48400000E+02  2.26810000E+02
  3.42750000E+02  2.85250000E+02  3.42020000E+02  3.45250000E+02  5.35510000E+02
%FLAG BOND_EQUIL_VALUE                                                          
%FORMAT(5E16.8)                                                                 
  1.33790000E+00  1.51330000E+00  1.08820000E+00  1.50880000E+00  1.53840000E+00
  1.09790000E+00  1.42410000E+00  1.09840000E+00  1.09620000E+00  9.72500000E-01
%FLAG ANGLE_FORCE_CONSTANT                                                      
%FORMAT(5E16.8)                                                                 
  6.12400000E+01  6.08800000E+01  6.05700000E+01  4.39000000E+01  4.63700000E+01
  7.73000000E+01  4.39000000E+01  4.37600000E+01  4.25500000E+01  6.01800000E+01
  4.32300000E+01  7.65600000E+01  4.32800000E+01  5.97700000E+01  6.52300000E+01
  5.63900000E+01  3.46600000E+01  3.59300000E+01  3.58000000E+01
%FLAG ANGLE_EQUIL_VALUE                                                         
%FORMAT(5E16.8)                                                                 
  2.14710497E+00  2.18078984E+00  1.94447215E+00  1.90782022E+00  2.10120279E+00
  1.92091020E+00  1.90764569E+00  1.93120765E+00  2.03453118E+00  1.93836350E+00
  1.91026369E+00  1.92073567E+00  1.90555129E+00  2.03697464E+00  1.86872483E+00
  1.91916487E+00  2.03610198E+00  1.86087085E+00  1.88024401E+00
%FLAG DIHEDRAL_FORCE_CONSTANT                                                   
%FORMAT(5E16.8)                                                                 
  0.00000000E+00  2.60000000E-01  1.55555556E-01  1.66666667E-01  1.50000000E-01
  5.78000000E+00  1.33000000E+00  5.20000000E-01  1.30000000E-01  6.00000000E-02
  6.65000000E+00  1.50000000E-01  1.80000000E-01  9.00000000E-02  1.20000000E-01
  1.23000000E-01  1.10000000E+00
%FLAG DIHEDRAL_PERIODICITY                                                      
%FORMAT(5E16.8)                                                                 
  2.00000000E+00  3.00000000E+00  3.00000000E+00  3.00000000E+00  1.00000000E+00
  2.00000000E+00  3.00000000E+00  3.00000000E+00  3.00000000E+00  3.00000000E+00
  2.00000000E+00  3.00000000E+00  3.00000000E+00  3.00000000E+00  3.00000000E+00
  3.00000000E+00  2.00000000E+00
%FLAG DIHEDRAL_PHASE                                                            
%FORMAT(5E16.8)                                                                 
  0.00000000E+00  3.14159400E+00  0.00000000E+00  0.00000000E+00  0.00000000E+00
  3.14159400E+00  3.14159400E+00  0.00000000E+00  0.00000000E+00  0.00000000E+00
  3.14159400E+00  0.00000000E+00  0.00000000E+00  0.00000000E+00  0.00000000E+00
  0.00000000E+00  3.14159400E+00
%FLAG SCEE_SCALE_FACTOR                                                         
%FORMAT(5E16.8)                                                                 
  1.20000000E+00  1.20000000E+00  1.20000000E+00  1.20000000E+00  1.20000000E+00
  1.20000000E+00  1.20000000E+00  1.20000000E+00  1.20000000E+00  1.20000000E+00
  1.20000000E+00  1.20000000E+00  1.20000000E+00  1.20000000E+00  1.20000000E+00
  1.20000000E+00  0.00000000E+00
%FLAG SCNB_SCALE_FACTOR                                                         
%FORMAT(5E16.8)                                                                 
  2.00000000E+00  2.00000000E+00  2.00000000E+00  2.00000000E+00  2.00000000E+00
  2.00000000E+00  2.00000000E+00  2.00000000E+00  2.00000000E+00  2.00000000E+00
  2.00000000E+00  2.00000000E+00  2.00000000E+00  2.00000000E+00  2.00000000E+00
  2.00000000E+00  0.00000000E+00
%FLAG SOLTY                                                                     
%FORMAT(5E16.8)                                                                 
  0.00000000E+00  0.00000000E+00  0.00000000E+00  0.00000000E+00  0.00000000E+00
  0.00000000E+00  0.00000000E+00  0.00000000E+00
%FLAG LENNARD_JONES_ACOEF                                                       
%FORMAT(5E16.8)                                                                 
  6.96551276E+05  8.43969952E+05  1.02073671E+06  5.92438683E+05  7.18991463E+05
  5.03152404E+05  7.52549148E+04  9.27554496E+04  6.30298721E+04  6.90855956E+03
  8.12662403E+04  1.00235148E+05  6.80216136E+04  7.41026906E+03  7.94617769E+03
  5.63013422E+04  6.97998263E+04  4.69084694E+04  4.88692384E+03  5.22955465E+03
  3.39005767E+03  2.25372434E+02  3.03553352E+02  1.74176419E+02  8.53132435E+00
  8.80612241E+00  4.36660257E+00  1.10360882E-05
%FLAG LENNARD_JONES_BCOEF                                                       
%FORMAT(5E16.8)                                                                 
  5.24668528E+02  5.90251928E+02  6.63431737E+02  4.76608379E+02  5.36620538E+02
  4.32634597E+02  1.09570372E+02  1.24325688E+02  9.87712192E+01  2.10929191E+01
  1.21392023E+02  1.37787728E+02  1.09393126E+02  2.32899892E+01  2.57122925E+01
  1.01040256E+02  1.14981426E+02  9.08431526E+01  1.89134207E+01  2.08590256E+01
  1.67944276E+01  4.40751799E+00  5.22789272E+00  3.81654050E+00  5.44840215E-01
  5.90150328E-01  4.15568027E-01  4.55498033E-04
%FLAG BONDS_INC_HYDROGEN                                                        
%FORMAT(10I8)                                                                   
       0      33       3       6      36       3       6      39       3      12
      42       6      12      45       6      15      48       6      15      51
       6      18      54       8      21      57       6      24      60       9
      24      63       9      24      66       9      27      69       9      27
      72       9      27      75       9      30      78      10
%FLAG BONDS_WITHOUT_HYDROGEN                                                    
%FORMAT(10I8)                                                                   
       0       3       1       0      12       2       3      18       2       3
      24       4       6       9       1       9      21       2       9      27
       4      12      21       5      15      18       5      15      21       5
      18      30       7
%FLAG ANGLES_INC_HYDROGEN                                                       
%FORMAT(10I8)                                                                   
       0      12      42       4       0      12      45       4       3       0
      33       5       3      18      54       7       3      24      60       8
       3      24      63       8       3      24      66       8       9       6
      36       5       9       6      39       5       9      21      57       4
       9      27      69       8       9      27      72       8       9      27
      75       8      12       0      33       9      12      21      57      11
      15      18      54      13      15      21      57      11      18      15
      48      11      18      15      51      11      18      30      78      15
      21      12      42      11      21      12      45      11      21      15
      48      11      21      15      51      11      30      18      54      16
      36       6      39      17      42      12      45      18      48      15
      51      18      60      24      63      19      60      24      66      19
      63      24      66      19      69      27      72      19      69      27
      75      19      72      27      75      19
%FLAG ANGLES_WITHOUT_HYDROGEN                                                   
%FORMAT(10I8)                                                                   
       0       3      18       1       0       3      24       2       0      12
      21       3       3       0      12       1       3      18      15       3
       3      18      30       6       6       9      21       1       6       9
      27       2       9      21      12       3       9      21      15       3
      12      21      15      10      15      18      30      12      18       3
      24      14      18      15      21      10      21       9      27      14
%FLAG DIHEDRALS_INC_HYDROGEN                                                    
%FORMAT(10I8)                                                                   
       0       3      18      54       1       0       3      24      60       2
       0       3      24      63       2       0       3      24      66       2
       0      12      21      57       3       3       0      12      42       2
       3       0      12      45       2       3      18      15      48       3
       3      18      15      51       3       3      18      30      78       4
       6       9      21      57       2       6       9      27      69       2
       6       9      27      72       2       6       9      27      75       2
       9      21      12      42       3       9      21      12      45       3
       9      21      15      48       3       9      21      15      51       3
      12      21      15      48       9      12      21      15      51       9
      15      18      30      78      10      15      21      12      42       9
      15      21      12      45       9      33       0       3      18      11
      18       3      24      60      12      18       3      24      63      12
      18       3      24      66      12      18      15      21      57       9
      21       9       6      36      11      21       9       6      39      11
      21       9      27      69      12      21       9      27      72      12
      21       9      27      75      12      33       0      12      21       1
      21      15      18      54       3      33       0       3      24      11
      24       3      18      54       1      27       9       6      36      11
      27       9       6      39      11      27       9      21      57      12
      30      18      15      48      14      30      18      15      51      14
      33       0      12      42       1      33       0      12      45       1
      42      12      21      57      15      45      12      21      57      15
      48      15      18      54       3      48      15      21      57      15
      51      15      18      54       3      51      15      21      57      15
      54      18      30      78      16      33       0     -12      -3      17
       9      36      -6     -39      17
%FLAG DIHEDRALS_WITHOUT_HYDROGEN                                                
%FORMAT(10I8)                                                                   
       0       3      18      15       1       0       3      18      30       1
       0      12      21       9       3       0      12     -21      15       3
       3       0      12      21       1       3      18     -15      21       3
       6       9      21      12       1       6       9      21      15       1
       9      21      15      18       3      12       0       3      18       5
      12       0      -3      18       6      12       0      -3      18       7
      12       0       3      24       5      12       0      -3      24       6
      12       0      -3      24       7      12      21       9      27       1
      12      21     -15      18       8      15      18       3      24       1
      15      21       9      27       1      21      15      18      30      13
      24       3      18      30       1       0      24      -3     -18      17
       6      27      -9     -21      17
%FLAG EXCLUDED_ATOMS_LIST                                                       
%FORMAT(10I8)                                                                   
       2       4       5       6       7       8       9      11      12      15
      16      19      20      21      22      23       5       6       7       8
       9      11      12      15      16      17      18      19      21      22
      23      27       4       5       6       8      10      13      14      20
      24      25      26       5       6       7       8      10      13      14
      15      16      17      18      20      24      25      26       6       7
       8       9      10      12      15      16      17      18      20       7
       8       9      10      11      15      16      17      18      19      20
      27       8       9      11      12      17      18      19      20      21
      22      23      27      10      11      12      13      14      15      16
      17      18      19      20      24      25      26      11      12      19
      21      22      23      13      14      20      24      25      26      17
      18      19      27      15      16      14       0      16      20      20
      18      19      20      19      20      27       0      22      23      23
       0      25      26      26       0       0
%FLAG HBOND_ACOEF                                                               
%FORMAT(5E16.8)                                                                 

%FLAG HBOND_BCOEF                                                               
%FORMAT(5E16.8)                                                                 

%FLAG HBCUT                                                                     
%FORMAT(5E16.8)                                                                 

%FLAG AMBER_ATOM_TYPE                                                           
%FORMAT(20a4)                                                                   
c2  c2  c2  c2  c6  c6  c6  c6  c3  c3  oh  ha  ha  ha  hc  hc  hc  hc  h1  hc  
hc  hc  hc  hc  hc  hc  ho  
%FLAG TREE_CHAIN_CLASSIFICATION                                                 
%FORMAT(20a4)                                                                   
BLA BLA BLA BLA BLA BLA BLA BLA BLA BLA BLA BLA BLA BLA BLA BLA BLA BLA BLA BLA 
BLA BLA BLA BLA BLA BLA BLA 
%FLAG JOIN_ARRAY                                                                
%FORMAT(10I8)                                                                   
       0       0       0       0       0       0       0       0       0       0
       0       0       0       0       0       0       0       0       0       0
       0       0       0       0       0       0       0
%FLAG IROTAT                                                                    
%FORMAT(10I8)                                                                   
       0       0       0       0       0       0       0       0       0       0
       0       0       0       0       0       0       0       0       0       0
       0       0       0       0       0       0       0
%FLAG RADIUS_SET                                                                
%FORMAT(1a80)                                                                   
modified Bondi radii (mbondi)                                                   
%FLAG RADII                                                                     
%FORMAT(5E16.8)                                                                 
  1.70000000E+00  1.70000000E+00  1.70000000E+00  1.70000000E+00  1.70000000E+00
  1.70000000E+00  1.70000000E+00  1.70000000E+00  1.70000000E+00  1.70000000E+00
  1.50000000E+00  1.30000000E+00  1.30000000E+00  1.30000000E+00  1.30000000E+00
  1.30000000E+00  1.30000000E+00  1.30000000E+00  1.30000000E+00  1.30000000E+00
  1.30000000E+00  1.30000000E+00  1.30000000E+00  1.30000000E+00  1.30000000E+00
  1.30000000E+00  8.00000000E-01
%FLAG SCREEN                                                                    
%FORMAT(5E16.8)                                                                 
  7.20000000E-01  7.20000000E-01  7.20000000E-01  7.20000000E-01  7.20000000E-01
  7.20000000E-01  7.20000000E-01  7.20000000E-01  7.20000000E-01  7.20000000E-01
  8.50000000E-01  8.50000000E-01  8.50000000E-01  8.50000000E-01  8.50000000E-01
  8.50000000E-01  8.50000000E-01  8.50000000E-01  8.50000000E-01  8.50000000E-01
  8.50000000E-01  8.50000000E-01  8.50000000E-01  8.50000000E-01  8.50000000E-01
  8.50000000E-01  8.50000000E-01
%FLAG IPOL                                                                      
%FORMAT(1I8)                                                                    
       0
