; mobley_9653690_GMX_OPLS.itp created by acpype (v: 2023.10.27) on Wed May 20 23:59:17 2026

; For OPLS atomtypes manual fine tuning
; AC_at:OPLS_at:OPLScode: Possible_Alternatives (see ffoplsaa.atp and ffoplsaanb.itp)
; c2:CR:opls_509: ['510']
; c6:x:opls_x: []
; c3:CT:opls_135: ['136', '137', '149', '157', '158', '206', '209', '210', '223B', '224B', '245', '246', '274', '283', '284', '285', '292', '292B', '293B', '296', '307', '308', '505']
; oh:OH:opls_154: ['167']
; ha:HA:opls_146: []
; hc:HC:opls_140: []
; h1:HC:opls_140: []
; ho:HO:opls_155: ['168']

[ moleculetype ]
;name            nrexcl
 mobley_9653690   3

[ atoms ]
;   nr  type  resi  res  atom  cgnr     charge      mass       ; qtot   bond_type
     1 opls_509     1   MOL    C1    1    -0.157200     12.01100 ; qtot -0.157  CR  
     2 opls_509     1   MOL    C2    2    -0.111400     12.01100 ; qtot -0.269  CR  
     3 opls_509     1   MOL    C3    3    -0.224000     12.01100 ; qtot -0.493  CR  
     4 opls_509     1   MOL    C4    4    -0.111400     12.01100 ; qtot -0.604  CR  
     5 opls_x     1   MOL    C5    5    -0.041200      0.00000 ; qtot -0.645  x   
     6 opls_x     1   MOL    C6    6    -0.103400      0.00000 ; qtot -0.749  x   
     7 opls_x     1   MOL    C7    7     0.179300      0.00000 ; qtot -0.569  x   
     8 opls_x     1   MOL    C8    8    -0.029500      0.00000 ; qtot -0.599  x   
     9 opls_135     1   MOL    C9    9    -0.056900     12.01100 ; qtot -0.656  CT  
    10 opls_135     1   MOL   C10   10    -0.060900     12.01100 ; qtot -0.717  CT  
    11 opls_154     1   MOL    O1   11    -0.595799     15.99940 ; qtot -1.312  OH  
    12 opls_146     1   MOL    H1   12     0.124000      1.00800 ; qtot -1.188  HA  
    13 opls_146     1   MOL    H2   13     0.113000      1.00800 ; qtot -1.075  HA  
    14 opls_146     1   MOL    H3   14     0.113000      1.00800 ; qtot -0.962  HA  
    15 opls_140     1   MOL    H4   15     0.052200      1.00800 ; qtot -0.910  HC  
    16 opls_140     1   MOL    H5   16     0.052200      1.00800 ; qtot -0.858  HC  
    17 opls_140     1   MOL    H6   17     0.048200      1.00800 ; qtot -0.810  HC  
    18 opls_140     1   MOL    H7   18     0.048200      1.00800 ; qtot -0.762  HC  
    19 opls_140     1   MOL    H8   19     0.035700      1.00800 ; qtot -0.726  HC  
    20 opls_140     1   MOL    H9   20     0.067700      1.00800 ; qtot -0.658  HC  
    21 opls_140     1   MOL   H10   21     0.045033      1.00800 ; qtot -0.613  HC  
    22 opls_140     1   MOL   H11   22     0.045033      1.00800 ; qtot -0.568  HC  
    23 opls_140     1   MOL   H12   23     0.045033      1.00800 ; qtot -0.523  HC  
    24 opls_140     1   MOL   H13   24     0.041700      1.00800 ; qtot -0.481  HC  
    25 opls_140     1   MOL   H14   25     0.041700      1.00800 ; qtot -0.440  HC  
    26 opls_140     1   MOL   H15   26     0.041700      1.00800 ; qtot -0.398  HC  
    27 opls_155     1   MOL   H16   27     0.398000      1.00800 ; qtot  0.000  HO  

[ bonds ]
;   ai     aj funct   r             k
     1      2   1 ;    1.3379e-01    3.6484e+05 ;     C1 - C2         CR - CR    
     1      5   1 ;    1.5133e-01    2.0498e+05 ;     C1 - C5         CR - x     
     1     12   1 ;    1.0882e-01    2.9898e+05 ;     C1 - H1         CR - HA    
     2      7   1 ;    1.5133e-01    2.0498e+05 ;     C2 - C7         CR - x     
     2      9   1 ;    1.5088e-01    2.0786e+05 ;     C2 - C9         CR - CT    
     3      4   1 ;    1.3379e-01    3.6484e+05 ;     C3 - C4         CR - CR    
     3     13   1 ;    1.0882e-01    2.9898e+05 ;     C3 - H2         CR - HA    
     3     14   1 ;    1.0882e-01    2.9898e+05 ;     C3 - H3         CR - HA    
     4      8   1 ;    1.5133e-01    2.0498e+05 ;     C4 - C8         CR - x     
     4     10   1 ;    1.5088e-01    2.0786e+05 ;     C4 - C10        CR - CT    
     5      8   1 ;    1.5384e-01    1.8979e+05 ;     C5 - C8          x - x     
     5     15   1 ;    1.0979e-01    2.8681e+05 ;     C5 - H4          x - HC    
     5     16   1 ;    1.0979e-01    2.8681e+05 ;     C5 - H5          x - HC    
     6      7   1 ;    1.5384e-01    1.8979e+05 ;     C6 - C7          x - x     
     6      8   1 ;    1.5384e-01    1.8979e+05 ;     C6 - C8          x - x     
     6     17   1 ;    1.0979e-01    2.8681e+05 ;     C6 - H6          x - HC    
     6     18   1 ;    1.0979e-01    2.8681e+05 ;     C6 - H7          x - HC    
     7     11   1 ;    1.4241e-01    2.3870e+05 ;     C7 - O1          x - OH    
     7     19   1 ;    1.0984e-01    2.8620e+05 ;     C7 - H8          x - HC    
     8     20   1 ;    1.0979e-01    2.8681e+05 ;     C8 - H9          x - HC    
     9     21   1 ;    1.0962e-01    2.8891e+05 ;     C9 - H10        CT - HC    
     9     22   1 ;    1.0962e-01    2.8891e+05 ;     C9 - H11        CT - HC    
     9     23   1 ;    1.0962e-01    2.8891e+05 ;     C9 - H12        CT - HC    
    10     24   1 ;    1.0962e-01    2.8891e+05 ;    C10 - H13        CT - HC    
    10     25   1 ;    1.0962e-01    2.8891e+05 ;    C10 - H14        CT - HC    
    10     26   1 ;    1.0962e-01    2.8891e+05 ;    C10 - H15        CT - HC    
    11     27   1 ;    9.7250e-02    4.4811e+05 ;     O1 - H16        OH - HO    

[ pairs ]
;   ai     aj    funct
     1      4      1 ;     C1 - C4    
     1      6      1 ;     C1 - C6    
     1     11      1 ;     C1 - O1    
     1     19      1 ;     C1 - H8    
     1     20      1 ;     C1 - H9    
     1     21      1 ;     C1 - H10   
     1     22      1 ;     C1 - H11   
     1     23      1 ;     C1 - H12   
     2      8      1 ;     C2 - C8    
     2     15      1 ;     C2 - H4    
     2     16      1 ;     C2 - H5    
     2     17      1 ;     C2 - H6    
     2     18      1 ;     C2 - H7    
     2     27      1 ;     C2 - H16   
     3      5      1 ;     C3 - C5    
     3      6      1 ;     C3 - C6    
     3     20      1 ;     C3 - H9    
     3     24      1 ;     C3 - H13   
     3     25      1 ;     C3 - H14   
     3     26      1 ;     C3 - H15   
     4      7      1 ;     C4 - C7    
     4     15      1 ;     C4 - H4    
     4     16      1 ;     C4 - H5    
     4     17      1 ;     C4 - H6    
     4     18      1 ;     C4 - H7    
     5      7      1 ;     C5 - C7    
     5      9      1 ;     C5 - C9    
     5     10      1 ;     C5 - C10   
     5     17      1 ;     C5 - H6    
     5     18      1 ;     C5 - H7    
     6      9      1 ;     C6 - C9    
     6     10      1 ;     C6 - C10   
     6     15      1 ;     C6 - H4    
     6     16      1 ;     C6 - H5    
     6     27      1 ;     C6 - H16   
     7     20      1 ;     C7 - H9    
     7     21      1 ;     C7 - H10   
     7     22      1 ;     C7 - H11   
     7     23      1 ;     C7 - H12   
     8     11      1 ;     C8 - O1    
     8     13      1 ;     C8 - H2    
     8     14      1 ;     C8 - H3    
     8     19      1 ;     C8 - H8    
     8     24      1 ;     C8 - H13   
     8     25      1 ;     C8 - H14   
     8     26      1 ;     C8 - H15   
     9     11      1 ;     C9 - O1    
     9     19      1 ;     C9 - H8    
    10     13      1 ;    C10 - H2    
    10     14      1 ;    C10 - H3    
    10     20      1 ;    C10 - H9    
    11     17      1 ;     O1 - H6    
    11     18      1 ;     O1 - H7    
    12      7      1 ;     H1 - C7    
    12      8      1 ;     H1 - C8    
    12      9      1 ;     H1 - C9    
    12     15      1 ;     H1 - H4    
    12     16      1 ;     H1 - H5    
    15     20      1 ;     H4 - H9    
    16     20      1 ;     H5 - H9    
    17     19      1 ;     H6 - H8    
    17     20      1 ;     H6 - H9    
    18     19      1 ;     H7 - H8    
    18     20      1 ;     H7 - H9    
    19     27      1 ;     H8 - H16   

[ angles ]
;   ai     aj     ak    funct   theta         cth
     1      2      7      1 ;    1.2302e+02    5.1246e+02 ;     C1 - C2   - C7       CR -   CR - x   
     1      2      9      1 ;    1.2495e+02    5.0944e+02 ;     C1 - C2   - C9       CR -   CR - CT  
     1      5      8      1 ;    1.1141e+02    5.0685e+02 ;     C1 - C5   - C8       CR -    x - x   
     1      5     15      1 ;    1.0931e+02    3.6736e+02 ;     C1 - C5   - H4       CR -    x - HC  
     1      5     16      1 ;    1.0931e+02    3.6736e+02 ;     C1 - C5   - H5       CR -    x - HC  
     2      1      5      1 ;    1.2302e+02    5.1246e+02 ;     C2 - C1   - C5       CR -   CR - x   
     2      1     12      1 ;    1.2039e+02    3.8802e+02 ;     C2 - C1   - H1       CR -   CR - HA  
     2      7      6      1 ;    1.1141e+02    5.0685e+02 ;     C2 - C7   - C6       CR -    x - x   
     2      7     11      1 ;    1.1006e+02    6.4685e+02 ;     C2 - C7   - O1       CR -    x - OH  
     2      7     19      1 ;    1.0930e+02    3.6736e+02 ;     C2 - C7   - H8       CR -    x - HC  
     2      9     21      1 ;    1.1065e+02    3.6618e+02 ;     C2 - C9   - H10      CR -   CT - HC  
     2      9     22      1 ;    1.1065e+02    3.6618e+02 ;     C2 - C9   - H11      CR -   CT - HC  
     2      9     23      1 ;    1.1065e+02    3.6618e+02 ;     C2 - C9   - H12      CR -   CT - HC  
     3      4      8      1 ;    1.2302e+02    5.1246e+02 ;     C3 - C4   - C8       CR -   CR - x   
     3      4     10      1 ;    1.2495e+02    5.0944e+02 ;     C3 - C4   - C10      CR -   CR - CT  
     4      3     13      1 ;    1.2039e+02    3.8802e+02 ;     C4 - C3   - H2       CR -   CR - HA  
     4      3     14      1 ;    1.2039e+02    3.8802e+02 ;     C4 - C3   - H3       CR -   CR - HA  
     4      8      5      1 ;    1.1141e+02    5.0685e+02 ;     C4 - C8   - C5       CR -    x - x   
     4      8      6      1 ;    1.1141e+02    5.0685e+02 ;     C4 - C8   - C6       CR -    x - x   
     4      8     20      1 ;    1.0931e+02    3.6736e+02 ;     C4 - C8   - H9       CR -    x - HC  
     4     10     24      1 ;    1.1065e+02    3.6618e+02 ;     C4 - C10  - H13      CR -   CT - HC  
     4     10     25      1 ;    1.1065e+02    3.6618e+02 ;     C4 - C10  - H14      CR -   CT - HC  
     4     10     26      1 ;    1.1065e+02    3.6618e+02 ;     C4 - C10  - H15      CR -   CT - HC  
     5      1     12      1 ;    1.1657e+02    3.5606e+02 ;     C5 - C1   - H1        x -   CR - HA  
     5      8      6      1 ;    1.1106e+02    5.0359e+02 ;     C5 - C8   - C6        x -    x - x   
     5      8     20      1 ;    1.0945e+02    3.6175e+02 ;     C5 - C8   - H9        x -    x - HC  
     6      7     11      1 ;    1.1005e+02    6.4065e+02 ;     C6 - C7   - O1        x -    x - OH  
     6      7     19      1 ;    1.0918e+02    3.6217e+02 ;     C6 - C7   - H8        x -    x - HC  
     6      8     20      1 ;    1.0945e+02    3.6175e+02 ;     C6 - C8   - H9        x -    x - HC  
     7      2      9      1 ;    1.1671e+02    5.0016e+02 ;     C7 - C2   - C9        x -   CR - CT  
     7      6      8      1 ;    1.1106e+02    5.0359e+02 ;     C7 - C6   - C8        x -    x - x   
     7      6     17      1 ;    1.0945e+02    3.6175e+02 ;     C7 - C6   - H6        x -    x - HC  
     7      6     18      1 ;    1.0945e+02    3.6175e+02 ;     C7 - C6   - H7        x -    x - HC  
     7     11     27      1 ;    1.0707e+02    5.4584e+02 ;     C7 - O1   - H16       x -   OH - HO  
     8      4     10      1 ;    1.1671e+02    5.0016e+02 ;     C8 - C4   - C10       x -   CR - CT  
     8      5     15      1 ;    1.0945e+02    3.6175e+02 ;     C8 - C5   - H4        x -    x - HC  
     8      5     16      1 ;    1.0945e+02    3.6175e+02 ;     C8 - C5   - H5        x -    x - HC  
     8      6     17      1 ;    1.0945e+02    3.6175e+02 ;     C8 - C6   - H6        x -    x - HC  
     8      6     18      1 ;    1.0945e+02    3.6175e+02 ;     C8 - C6   - H7        x -    x - HC  
    11      7     19      1 ;    1.0996e+02    4.7187e+02 ;     O1 - C7   - H8       OH -    x - HC  
    13      3     14      1 ;    1.1666e+02    2.9003e+02 ;     H2 - C3   - H3       HA -   CR - HA  
    15      5     16      1 ;    1.0662e+02    3.0066e+02 ;     H4 - C5   - H5       HC -    x - HC  
    17      6     18      1 ;    1.0662e+02    3.0066e+02 ;     H6 - C6   - H7       HC -    x - HC  
    21      9     22      1 ;    1.0773e+02    2.9957e+02 ;    H10 - C9   - H11      HC -   CT - HC  
    21      9     23      1 ;    1.0773e+02    2.9957e+02 ;    H10 - C9   - H12      HC -   CT - HC  
    22      9     23      1 ;    1.0773e+02    2.9957e+02 ;    H11 - C9   - H12      HC -   CT - HC  
    24     10     25      1 ;    1.0773e+02    2.9957e+02 ;    H13 - C10  - H14      HC -   CT - HC  
    24     10     26      1 ;    1.0773e+02    2.9957e+02 ;    H13 - C10  - H15      HC -   CT - HC  
    25     10     26      1 ;    1.0773e+02    2.9957e+02 ;    H14 - C10  - H15      HC -   CT - HC  

[ dihedrals ] ; propers
; for gromacs 4.5 or higher, using funct 9
;    i      j      k      l   func   phase     kd      pn
     1      2      7      6      9 ;     0.00   0.00000   0 ;     C1-    C2-    C7-    C6
     1      2      7     11      9 ;     0.00   0.00000   0 ;     C1-    C2-    C7-    O1
     1      2      7     19      9 ;     0.00   0.00000   0 ;     C1-    C2-    C7-    H8
     1      2      9     21      9 ;   180.00   1.08784   3 ;     C1-    C2-    C9-   H10
     1      2      9     22      9 ;   180.00   1.08784   3 ;     C1-    C2-    C9-   H11
     1      2      9     23      9 ;   180.00   1.08784   3 ;     C1-    C2-    C9-   H12
     1      5      8      4      9 ;     0.00   0.65084   3 ;     C1-    C5-    C8-    C4
     1      5      8      6      9 ;     0.00   0.65084   3 ;     C1-    C5-    C8-    C6
     1      5      8     20      9 ;     0.00   0.65084   3 ;     C1-    C5-    C8-    H9
     2      1      5      8      9 ;     0.00   0.00000   0 ;     C2-    C1-    C5-    C8
     2      1      5     15      9 ;   180.00   1.08784   3 ;     C2-    C1-    C5-    H4
     2      1      5     16      9 ;   180.00   1.08784   3 ;     C2-    C1-    C5-    H5
     2      7      6      8      9 ;     0.00   0.65084   3 ;     C2-    C7-    C6-    C8
     2      7      6     17      9 ;     0.00   0.65084   3 ;     C2-    C7-    C6-    H6
     2      7      6     18      9 ;     0.00   0.65084   3 ;     C2-    C7-    C6-    H7
     2      7     11     27      9 ;     0.00   0.69733   3 ;     C2-    C7-    O1-   H16
     3      4      8      5      9 ;     0.00   0.00000   0 ;     C3-    C4-    C8-    C5
     3      4      8      6      9 ;     0.00   0.00000   0 ;     C3-    C4-    C8-    C6
     3      4      8     20      9 ;   180.00   1.08784   3 ;     C3-    C4-    C8-    H9
     3      4     10     24      9 ;   180.00   1.08784   3 ;     C3-    C4-   C10-   H13
     3      4     10     25      9 ;   180.00   1.08784   3 ;     C3-    C4-   C10-   H14
     3      4     10     26      9 ;   180.00   1.08784   3 ;     C3-    C4-   C10-   H15
     4      8      5     15      9 ;     0.00   0.65084   3 ;     C4-    C8-    C5-    H4
     4      8      5     16      9 ;     0.00   0.65084   3 ;     C4-    C8-    C5-    H5
     4      8      6      7      9 ;     0.00   0.65084   3 ;     C4-    C8-    C6-    C7
     4      8      6     17      9 ;     0.00   0.65084   3 ;     C4-    C8-    C6-    H6
     4      8      6     18      9 ;     0.00   0.65084   3 ;     C4-    C8-    C6-    H7
     5      1      2      7      9 ;     0.00   0.62760   1 ;     C5-    C1-    C2-    C7
     5      1      2      7      9 ;   180.00   5.56472   3 ;     C5-    C1-    C2-    C7
     5      1      2      7      9 ;   180.00  24.18352   2 ;     C5-    C1-    C2-    C7
     5      1      2      9      9 ;     0.00   0.62760   1 ;     C5-    C1-    C2-    C9
     5      1      2      9      9 ;   180.00   5.56472   3 ;     C5-    C1-    C2-    C9
     5      1      2      9      9 ;   180.00  24.18352   2 ;     C5-    C1-    C2-    C9
     5      8      4     10      9 ;     0.00   0.00000   0 ;     C5-    C8-    C4-   C10
     5      8      6      7      9 ;     0.00   2.17568   3 ;     C5-    C8-    C6-    C7
     5      8      6     17      9 ;     0.00   0.54392   3 ;     C5-    C8-    C6-    H6
     5      8      6     18      9 ;     0.00   0.54392   3 ;     C5-    C8-    C6-    H7
     6      7      2      9      9 ;     0.00   0.00000   0 ;     C6-    C7-    C2-    C9
     6      7     11     27      9 ;     0.00   0.25104   3 ;     C6-    C7-    O1-   H16
     6      8      4     10      9 ;     0.00   0.00000   0 ;     C6-    C8-    C4-   C10
     6      8      5     15      9 ;     0.00   0.54392   3 ;     C6-    C8-    C5-    H4
     6      8      5     16      9 ;     0.00   0.54392   3 ;     C6-    C8-    C5-    H5
     7      2      9     21      9 ;     0.00   0.62760   3 ;     C7-    C2-    C9-   H10
     7      2      9     22      9 ;     0.00   0.62760   3 ;     C7-    C2-    C9-   H11
     7      2      9     23      9 ;     0.00   0.62760   3 ;     C7-    C2-    C9-   H12
     7      6      8     20      9 ;     0.00   0.54392   3 ;     C7-    C6-    C8-    H9
     8      4      3     13      9 ;   180.00  27.82360   2 ;     C8-    C4-    C3-    H2
     8      4      3     14      9 ;   180.00  27.82360   2 ;     C8-    C4-    C3-    H3
     8      4     10     24      9 ;     0.00   0.62760   3 ;     C8-    C4-   C10-   H13
     8      4     10     25      9 ;     0.00   0.62760   3 ;     C8-    C4-   C10-   H14
     8      4     10     26      9 ;     0.00   0.62760   3 ;     C8-    C4-   C10-   H15
     8      6      7     11      9 ;     0.00   0.75312   3 ;     C8-    C6-    C7-    O1
     8      6      7     19      9 ;     0.00   0.65084   3 ;     C8-    C6-    C7-    H8
     9      2      7     11      9 ;     0.00   0.00000   0 ;     C9-    C2-    C7-    O1
     9      2      7     19      9 ;     0.00   0.00000   0 ;     C9-    C2-    C7-    H8
    10      4      3     13      9 ;   180.00  27.82360   2 ;    C10-    C4-    C3-    H2
    10      4      3     14      9 ;   180.00  27.82360   2 ;    C10-    C4-    C3-    H3
    10      4      8     20      9 ;     0.00   0.62760   3 ;    C10-    C4-    C8-    H9
    11      7      6     17      9 ;     0.00   0.37656   3 ;     O1-    C7-    C6-    H6
    11      7      6     18      9 ;     0.00   0.37656   3 ;     O1-    C7-    C6-    H7
    12      1      2      7      9 ;   180.00  27.82360   2 ;     H1-    C1-    C2-    C7
    12      1      2      9      9 ;   180.00  27.82360   2 ;     H1-    C1-    C2-    C9
    12      1      5      8      9 ;     0.00   0.00000   0 ;     H1-    C1-    C5-    C8
    12      1      5     15      9 ;     0.00   0.00000   0 ;     H1-    C1-    C5-    H4
    12      1      5     16      9 ;     0.00   0.00000   0 ;     H1-    C1-    C5-    H5
    15      5      8     20      9 ;     0.00   0.50208   3 ;     H4-    C5-    C8-    H9
    16      5      8     20      9 ;     0.00   0.50208   3 ;     H5-    C5-    C8-    H9
    17      6      7     19      9 ;     0.00   0.65084   3 ;     H6-    C6-    C7-    H8
    17      6      8     20      9 ;     0.00   0.50208   3 ;     H6-    C6-    C8-    H9
    18      6      7     19      9 ;     0.00   0.65084   3 ;     H7-    C6-    C7-    H8
    18      6      8     20      9 ;     0.00   0.50208   3 ;     H7-    C6-    C8-    H9
    19      7     11     27      9 ;     0.00   0.51463   3 ;     H8-    C7-    O1-   H16

[ dihedrals ] ; impropers
; treated as propers in GROMACS to use correct AMBER analytical function
;    i      j      k      l   func   phase     kd      pn
     1      9      2      7      4 ;   180.00   4.60240   2 ;     C1-    C9-    C2-    C7
     3     10      4      8      4 ;   180.00   4.60240   2 ;     C3-   C10-    C4-    C8
     4     13      3     14      4 ;   180.00   4.60240   2 ;     C4-    H2-    C3-    H3
    12      1      5      2      4 ;   180.00   4.60240   2 ;     H1-    C1-    C5-    C2
