mobley_9653690_GMX.gro created by acpype (v: 2023.10.27) on Wed May 20 23:59:17 2026
 27
    1  MOL   C1    1  -0.058  -0.067  -0.126
    1  MOL   C2    2   0.052   0.010  -0.125
    1  MOL   C3    3  -0.230  -0.030   0.329
    1  MOL   C4    4  -0.144  -0.093   0.247
    1  MOL   C5    5  -0.133  -0.108  -0.002
    1  MOL   C6    6   0.061  -0.013   0.128
    1  MOL   C7    7   0.115   0.058   0.003
    1  MOL   C8    8  -0.092  -0.028   0.123
    1  MOL   C9    9   0.121   0.049  -0.253
    1  MOL  C10   10  -0.095  -0.232   0.275
    1  MOL   O1   11   0.090   0.198   0.017
    1  MOL   H1   12  -0.099  -0.102  -0.220
    1  MOL   H2   13  -0.268  -0.078   0.419
    1  MOL   H3   14  -0.265   0.070   0.308
    1  MOL   H4   15  -0.240  -0.094  -0.020
    1  MOL   H5   16  -0.116  -0.215   0.013
    1  MOL   H6   17   0.107  -0.112   0.136
    1  MOL   H7   18   0.090   0.043   0.218
    1  MOL   H8   19   0.223   0.044  -0.000
    1  MOL   H9   20  -0.137   0.072   0.117
    1  MOL  H10   21   0.079   0.142  -0.289
    1  MOL  H11   22   0.106  -0.029  -0.328
    1  MOL  H12   23   0.228   0.061  -0.234
    1  MOL  H13   24  -0.162  -0.306   0.229
    1  MOL  H14   25   0.005  -0.246   0.234
    1  MOL  H15   26  -0.091  -0.254   0.382
    1  MOL  H16   27   0.132   0.225   0.101
    9.90200    10.61400    14.92800
