; mobley_2763835_GMX_OPLS.top created by acpype (v: 2023.10.27) on Wed May 20 23:42:50 2026

; Include forcefield parameters
#include "ffoplsaa.itp"

; Include mobley_2763835_GMX.itp topology
#include "mobley_2763835_GMX.itp"

; Ligand position restraints
#ifdef POSRES_LIG
#include "posre_mobley_2763835.itp"
#endif

[ system ]
 mobley_2763835

[ molecules ]
; Compound        nmols
 mobley_2763835   1     
