ethyl_phenyl_ether
    19
   1.8850000  -1.0380000  -0.1090000   0.8180000  -0.4410000   0.5630000
   2.9350000  -1.6040000   0.6140000   0.8010000  -0.4100000   1.9570000
   2.9180000  -1.5730000   2.0080000   1.8510000  -0.9770000   2.6800000
   1.8190000   0.4350000   5.9950000   1.1680000   0.1520000   4.6580000
   1.8340000  -0.9480000   4.0400000   1.8990000  -1.0600000  -1.1950000
  -0.0000000  -0.0010000  -0.0000000   3.7660000  -2.0680000   0.0900000
  -0.0340000   0.0550000   2.4750000   3.7390000  -2.0170000   2.5660000
   1.3310000   1.2760000   6.4970000   1.7640000  -0.4450000   6.6450000
   2.8810000   0.6690000   5.8660000   1.2440000   1.0240000   4.0020000
   0.1130000  -0.1040000   4.7920000
