%VERSION  VERSION_STAMP = V0001.000  DATE = 05/20/26  23:42:52                  
%FLAG TITLE                                                                     
%FORMAT(20a4)                                                                   
ethyl_phenyl_ether                                                              
%FLAG POINTERS                                                                  
%FORMAT(10I8)                                                                   
      19       6      10       9      21      10      35      12       0       0
      88       1       9      10      12       7      10       7       6       0
       0       0       0       0       0       0       0       0      19       0
       0
%FLAG ATOM_NAME                                                                 
%FORMAT(20a4)                                                                   
C1  C2  C3  C4  C5  C6  C7  C8  O1  H1  H2  H3  H4  H5  H6  H7  H8  H9  H10 
%FLAG CHARGE                                                                    
%FORMAT(5E16.8)                                                                 
 -3.02490180E+00 -1.76756310E+00 -1.76756310E+00 -3.31645860E+00 -3.31645860E+00
  2.33427663E+00 -1.82405223E+00  2.33974332E+00 -6.06620367E+00  2.40534360E+00
  2.39623245E+00  2.39623245E+00  2.57845545E+00  2.57845545E+00  8.87426010E-01
  8.87426010E-01  8.87426010E-01  6.86980710E-01  6.86980710E-01
%FLAG ATOMIC_NUMBER                                                             
%FORMAT(10I8)                                                                   
       6       6       6       6       6       6       6       6       8       1
       1       1       1       1       1       1       1       1       1
%FLAG MASS                                                                      
%FORMAT(5E16.8)                                                                 
  1.20100000E+01  1.20100000E+01  1.20100000E+01  1.20100000E+01  1.20100000E+01
  1.20100000E+01  1.20100000E+01  1.20100000E+01  1.60000000E+01  1.00800000E+00
  1.00800000E+00  1.00800000E+00  1.00800000E+00  1.00800000E+00  1.00800000E+00
  1.00800000E+00  1.00800000E+00  1.00800000E+00  1.00800000E+00
%FLAG ATOM_TYPE_INDEX                                                           
%FORMAT(10I8)                                                                   
       1       1       1       1       1       1       2       2       3       4
       4       4       4       4       5       5       5       6       6
%FLAG NUMBER_EXCLUDED_ATOMS                                                     
%FORMAT(10I8)                                                                   
      10       9       8       8       7       9       7       6       7       2
       1       1       1       1       4       3       2       1       1
%FLAG NONBONDED_PARM_INDEX                                                      
%FORMAT(10I8)                                                                   
       1       2       4       7      11      16       2       3       5       8
      12      17       4       5       6       9      13      18       7       8
       9      10      14      19      11      12      13      14      15      20
      16      17      18      19      20      21
%FLAG RESIDUE_LABEL                                                             
%FORMAT(20a4)                                                                   
MOL 
%FLAG RESIDUE_POINTER                                                           
%FORMAT(10I8)                                                                   
       1
%FLAG BOND_FORCE_CONSTANT                                                       
%FORMAT(5E16.8)                                                                 
  3.54250000E+02  3.60690000E+02  3.43340000E+02  2.28890000E+02  3.45250000E+02
  2.82270000E+02  3.44220000E+02
%FLAG BOND_EQUIL_VALUE                                                          
%FORMAT(5E16.8)                                                                 
  1.39860000E+00  1.08600000E+00  1.36880000E+00  1.53540000E+00  1.09620000E+00
  1.42730000E+00  1.09690000E+00
%FLAG ANGLE_FORCE_CONSTANT                                                      
%FORMAT(5E16.8)                                                                 
  6.36700000E+01  4.49000000E+01  7.90000000E+01  8.82600000E+01  7.74400000E+01
  4.32800000E+01  4.32700000E+01  5.62000000E+01  3.58000000E+01  3.56400000E+01
%FLAG ANGLE_EQUIL_VALUE                                                         
%FORMAT(5E16.8)                                                                 
  2.09474507E+00  2.09230160E+00  2.07886256E+00  2.06629619E+00  1.87832415E+00
  1.91270715E+00  1.91427794E+00  1.92579712E+00  1.88024401E+00  1.89455572E+00
%FLAG DIHEDRAL_FORCE_CONSTANT                                                   
%FORMAT(5E16.8)                                                                 
  3.62500000E+00  1.66000000E+00  3.83333333E-01  2.50000000E-01  0.00000000E+00
  1.55555556E-01  1.10000000E+00
%FLAG DIHEDRAL_PERIODICITY                                                      
%FORMAT(5E16.8)                                                                 
  2.00000000E+00  2.00000000E+00  3.00000000E+00  1.00000000E+00  3.00000000E+00
  3.00000000E+00  2.00000000E+00
%FLAG DIHEDRAL_PHASE                                                            
%FORMAT(5E16.8)                                                                 
  3.14159400E+00  3.14159400E+00  0.00000000E+00  0.00000000E+00  0.00000000E+00
  0.00000000E+00  3.14159400E+00
%FLAG SCEE_SCALE_FACTOR                                                         
%FORMAT(5E16.8)                                                                 
  1.20000000E+00  1.20000000E+00  1.20000000E+00  1.20000000E+00  1.20000000E+00
  1.20000000E+00  0.00000000E+00
%FLAG SCNB_SCALE_FACTOR                                                         
%FORMAT(5E16.8)                                                                 
  2.00000000E+00  2.00000000E+00  2.00000000E+00  2.00000000E+00  2.00000000E+00
  2.00000000E+00  0.00000000E+00
%FLAG SOLTY                                                                     
%FORMAT(5E16.8)                                                                 
  0.00000000E+00  0.00000000E+00  0.00000000E+00  0.00000000E+00  0.00000000E+00
  0.00000000E+00
%FLAG LENNARD_JONES_ACOEF                                                       
%FORMAT(5E16.8)                                                                 
  6.96551276E+05  8.43969952E+05  1.02073671E+06  4.46121722E+05  5.42502534E+05
  2.83662575E+05  7.52549148E+04  9.27554496E+04  4.65732396E+04  6.90855956E+03
  8.12662403E+04  1.00235148E+05  5.02224902E+04  7.41026906E+03  7.94617769E+03
  5.63013422E+04  6.97998263E+04  3.44374471E+04  4.88692384E+03  5.22955465E+03
  3.39005767E+03
%FLAG LENNARD_JONES_BCOEF                                                       
%FORMAT(5E16.8)                                                                 
  5.24668528E+02  5.90251928E+02  6.63431737E+02  3.88758656E+02  4.38146883E+02
  2.87011518E+02  1.09570372E+02  1.24325688E+02  7.98066064E+01  2.10929191E+01
  1.21392023E+02  1.37787728E+02  8.83545880E+01  2.32899892E+01  2.57122925E+01
  1.01040256E+02  1.14981426E+02  7.31636661E+01  1.89134207E+01  2.08590256E+01
  1.67944276E+01
%FLAG BONDS_INC_HYDROGEN                                                        
%FORMAT(10I8)                                                                   
       0      27       2       3      30       2       6      33       2       9
      36       2      12      39       2      18      42       5      18      45
       5      18      48       5      21      51       7      21      54       7
%FLAG BONDS_WITHOUT_HYDROGEN                                                    
%FORMAT(10I8)                                                                   
       0       3       1       0       6       1       3       9       1       6
      12       1       9      15       1      12      15       1      15      24
       3      18      21       4      21      24       6
%FLAG ANGLES_INC_HYDROGEN                                                       
%FORMAT(10I8)                                                                   
       0       3      30       2       0       6      33       2       3       0
      27       2       3       9      36       2       6       0      27       2
       6      12      39       2       9       3      30       2      12       6
      33       2      15       9      36       2      15      12      39       2
      18      21      51       6      18      21      54       6      21      18
      42       7      21      18      45       7      21      18      48       7
      24      21      51       8      24      21      54       8      42      18
      45       9      42      18      48       9      45      18      48       9
      51      21      54      10
%FLAG ANGLES_WITHOUT_HYDROGEN                                                   
%FORMAT(10I8)                                                                   
       0       3       9       1       0       6      12       1       3       0
       6       1       3       9      15       1       6      12      15       1
       9      15      12       1       9      15      24       3      12      15
      24       3      15      24      21       4      18      21      24       5
%FLAG DIHEDRALS_INC_HYDROGEN                                                    
%FORMAT(10I8)                                                                   
       0       3       9      36       1       0       6      12      39       1
       3       0       6      33       1       6       0       3      30       1
      27       0       3       9       1       9      15      12      39       1
      27       0       6      12       1      12      15       9      36       1
      15       9       3      30       1      15      12       6      33       1
      15      24      21      51       3      15      24      21      54       3
      24      15       9      36       1      24      15      12      39       1
      24      21      18      42       4      24      21     -18      42       5
      24      21      18      45       4      24      21     -18      45       5
      24      21      18      48       4      24      21     -18      48       5
      27       0       3      30       1      27       0       6      33       1
      30       3       9      36       1      33       6      12      39       1
      42      18      21      51       6      42      18      21      54       6
      45      18      21      51       6      45      18      21      54       6
      48      18      21      51       6      48      18      21      54       6
      27       0      -6      -3       7       0       9      -3     -30       7
       0      12      -6     -33       7       3      15      -9     -36       7
       6      15     -12     -39       7
%FLAG DIHEDRALS_WITHOUT_HYDROGEN                                                
%FORMAT(10I8)                                                                   
       0       3       9      15       1       0       6     -12      15       1
       3       0       6      12       1       3       9     -15      12       1
       3       9      15      24       1       6       0       3       9       1
       6      12     -15       9       1       6      12      15      24       1
       9      15      24      21       2      12      15      24      21       2
      15      24      21      18       3       9      12     -15     -24       7
%FLAG EXCLUDED_ATOMS_LIST                                                       
%FORMAT(10I8)                                                                   
       2       3       4       5       6      10      11      12      13      14
       3       4       5       6       9      10      11      12      13       4
       5       6       9      10      11      12      14       5       6       8
       9      10      11      13      14       6       8       9      10      12
      13      14       7       8       9      11      12      13      14      18
      19       8       9      15      16      17      18      19       9      15
      16      17      18      19      13      14      15      16      17      18
      19      11      12      13      14       0       0      16      17      18
      19      17      18      19      18      19      19       0
%FLAG HBOND_ACOEF                                                               
%FORMAT(5E16.8)                                                                 

%FLAG HBOND_BCOEF                                                               
%FORMAT(5E16.8)                                                                 

%FLAG HBCUT                                                                     
%FORMAT(5E16.8)                                                                 

%FLAG AMBER_ATOM_TYPE                                                           
%FORMAT(20a4)                                                                   
ca  ca  ca  ca  ca  ca  c3  c3  os  ha  ha  ha  ha  ha  hc  hc  hc  h1  h1  
%FLAG TREE_CHAIN_CLASSIFICATION                                                 
%FORMAT(20a4)                                                                   
BLA BLA BLA BLA BLA BLA BLA BLA BLA BLA BLA BLA BLA BLA BLA BLA BLA BLA BLA 
%FLAG JOIN_ARRAY                                                                
%FORMAT(10I8)                                                                   
       0       0       0       0       0       0       0       0       0       0
       0       0       0       0       0       0       0       0       0
%FLAG IROTAT                                                                    
%FORMAT(10I8)                                                                   
       0       0       0       0       0       0       0       0       0       0
       0       0       0       0       0       0       0       0       0
%FLAG RADIUS_SET                                                                
%FORMAT(1a80)                                                                   
modified Bondi radii (mbondi)                                                   
%FLAG RADII                                                                     
%FORMAT(5E16.8)                                                                 
  1.70000000E+00  1.70000000E+00  1.70000000E+00  1.70000000E+00  1.70000000E+00
  1.70000000E+00  1.70000000E+00  1.70000000E+00  1.50000000E+00  1.30000000E+00
  1.30000000E+00  1.30000000E+00  1.30000000E+00  1.30000000E+00  1.30000000E+00
  1.30000000E+00  1.30000000E+00  1.30000000E+00  1.30000000E+00
%FLAG SCREEN                                                                    
%FORMAT(5E16.8)                                                                 
  7.20000000E-01  7.20000000E-01  7.20000000E-01  7.20000000E-01  7.20000000E-01
  7.20000000E-01  7.20000000E-01  7.20000000E-01  8.50000000E-01  8.50000000E-01
  8.50000000E-01  8.50000000E-01  8.50000000E-01  8.50000000E-01  8.50000000E-01
  8.50000000E-01  8.50000000E-01  8.50000000E-01  8.50000000E-01
%FLAG IPOL                                                                      
%FORMAT(1I8)                                                                    
       0
