mobley_2763835_GMX.gro created by acpype (v: 2023.10.27) on Wed May 20 23:42:50 2026
 19
    1  MOL   C1    1   0.189  -0.104  -0.011
    1  MOL   C2    2   0.082  -0.044   0.056
    1  MOL   C3    3   0.294  -0.160   0.061
    1  MOL   C4    4   0.080  -0.041   0.196
    1  MOL   C5    5   0.292  -0.157   0.201
    1  MOL   C6    6   0.185  -0.098   0.268
    1  MOL   C7    7   0.182   0.044   0.600
    1  MOL   C8    8   0.117   0.015   0.466
    1  MOL   O1    9   0.183  -0.095   0.404
    1  MOL   H1   10   0.190  -0.106  -0.120
    1  MOL   H2   11  -0.000  -0.000  -0.000
    1  MOL   H3   12   0.377  -0.207   0.009
    1  MOL   H4   13  -0.003   0.006   0.248
    1  MOL   H5   14   0.374  -0.202   0.257
    1  MOL   H6   15   0.133   0.128   0.650
    1  MOL   H7   16   0.176  -0.045   0.664
    1  MOL   H8   17   0.288   0.067   0.587
    1  MOL   H9   18   0.124   0.102   0.400
    1  MOL  H10   19   0.011  -0.010   0.479
    7.60000     6.68800    15.68000
