; mobley_2763835_GMX_OPLS.itp created by acpype (v: 2023.10.27) on Wed May 20 23:42:50 2026

; For OPLS atomtypes manual fine tuning
; AC_at:OPLS_at:OPLScode: Possible_Alternatives (see ffoplsaa.atp and ffoplsaanb.itp)
; ca:CA:opls_145: ['166', '501', '502']
; c3:CT:opls_135: ['136', '137', '149', '157', '158', '206', '209', '210', '223B', '224B', '245', '246', '274', '283', '284', '285', '292', '292B', '293B', '296', '307', '308', '505']
; os:x:opls_x: []
; ha:HA:opls_146: []
; hc:HC:opls_140: []
; h1:HC:opls_140: []

[ moleculetype ]
;name            nrexcl
 mobley_2763835   3

[ atoms ]
;   nr  type  resi  res  atom  cgnr     charge      mass       ; qtot   bond_type
     1 opls_145     1   MOL    C1    1    -0.166000     12.01100 ; qtot -0.166  CA  
     2 opls_145     1   MOL    C2    2    -0.097000     12.01100 ; qtot -0.263  CA  
     3 opls_145     1   MOL    C3    3    -0.097000     12.01100 ; qtot -0.360  CA  
     4 opls_145     1   MOL    C4    4    -0.182000     12.01100 ; qtot -0.542  CA  
     5 opls_145     1   MOL    C5    5    -0.182000     12.01100 ; qtot -0.724  CA  
     6 opls_145     1   MOL    C6    6     0.128100     12.01100 ; qtot -0.596  CA  
     7 opls_135     1   MOL    C7    7    -0.100100     12.01100 ; qtot -0.696  CT  
     8 opls_135     1   MOL    C8    8     0.128400     12.01100 ; qtot -0.568  CT  
     9 opls_x     1   MOL    O1    9    -0.331900      0.00000 ; qtot -0.899  x   
    10 opls_146     1   MOL    H1   10     0.132000      1.00800 ; qtot -0.767  HA  
    11 opls_146     1   MOL    H2   11     0.131500      1.00800 ; qtot -0.636  HA  
    12 opls_146     1   MOL    H3   12     0.131500      1.00800 ; qtot -0.504  HA  
    13 opls_146     1   MOL    H4   13     0.141500      1.00800 ; qtot -0.363  HA  
    14 opls_146     1   MOL    H5   14     0.141500      1.00800 ; qtot -0.221  HA  
    15 opls_140     1   MOL    H6   15     0.048700      1.00800 ; qtot -0.173  HC  
    16 opls_140     1   MOL    H7   16     0.048700      1.00800 ; qtot -0.124  HC  
    17 opls_140     1   MOL    H8   17     0.048700      1.00800 ; qtot -0.075  HC  
    18 opls_140     1   MOL    H9   18     0.037700      1.00800 ; qtot -0.038  HC  
    19 opls_140     1   MOL   H10   19     0.037700      1.00800 ; qtot  0.000  HC  

[ bonds ]
;   ai     aj funct   r             k
     1      2   1 ;    1.3986e-01    2.9644e+05 ;     C1 - C2         CA - CA    
     1      3   1 ;    1.3986e-01    2.9644e+05 ;     C1 - C3         CA - CA    
     1     10   1 ;    1.0860e-01    3.0183e+05 ;     C1 - H1         CA - HA    
     2      4   1 ;    1.3986e-01    2.9644e+05 ;     C2 - C4         CA - CA    
     2     11   1 ;    1.0860e-01    3.0183e+05 ;     C2 - H2         CA - HA    
     3      5   1 ;    1.3986e-01    2.9644e+05 ;     C3 - C5         CA - CA    
     3     12   1 ;    1.0860e-01    3.0183e+05 ;     C3 - H3         CA - HA    
     4      6   1 ;    1.3986e-01    2.9644e+05 ;     C4 - C6         CA - CA    
     4     13   1 ;    1.0860e-01    3.0183e+05 ;     C4 - H4         CA - HA    
     5      6   1 ;    1.3986e-01    2.9644e+05 ;     C5 - C6         CA - CA    
     5     14   1 ;    1.0860e-01    3.0183e+05 ;     C5 - H5         CA - HA    
     6      9   1 ;    1.3688e-01    2.8731e+05 ;     C6 - O1         CA - x     
     7      8   1 ;    1.5354e-01    1.9154e+05 ;     C7 - C8         CT - CT    
     7     15   1 ;    1.0962e-01    2.8891e+05 ;     C7 - H6         CT - HC    
     7     16   1 ;    1.0962e-01    2.8891e+05 ;     C7 - H7         CT - HC    
     7     17   1 ;    1.0962e-01    2.8891e+05 ;     C7 - H8         CT - HC    
     8      9   1 ;    1.4273e-01    2.3620e+05 ;     C8 - O1         CT - x     
     8     18   1 ;    1.0969e-01    2.8804e+05 ;     C8 - H9         CT - HC    
     8     19   1 ;    1.0969e-01    2.8804e+05 ;     C8 - H10        CT - HC    

[ pairs ]
;   ai     aj    funct
     1      6      1 ;     C1 - C6    
     1     13      1 ;     C1 - H4    
     1     14      1 ;     C1 - H5    
     2      5      1 ;     C2 - C5    
     2      9      1 ;     C2 - O1    
     2     12      1 ;     C2 - H3    
     3      4      1 ;     C3 - C4    
     3      9      1 ;     C3 - O1    
     3     11      1 ;     C3 - H2    
     4      8      1 ;     C4 - C8    
     4     14      1 ;     C4 - H5    
     5      8      1 ;     C5 - C8    
     5     13      1 ;     C5 - H4    
     6      7      1 ;     C6 - C7    
     6     11      1 ;     C6 - H2    
     6     12      1 ;     C6 - H3    
     6     18      1 ;     C6 - H9    
     6     19      1 ;     C6 - H10   
     9     13      1 ;     O1 - H4    
     9     14      1 ;     O1 - H5    
     9     15      1 ;     O1 - H6    
     9     16      1 ;     O1 - H7    
     9     17      1 ;     O1 - H8    
    10      4      1 ;     H1 - C4    
    10      5      1 ;     H1 - C5    
    10     11      1 ;     H1 - H2    
    10     12      1 ;     H1 - H3    
    11     13      1 ;     H2 - H4    
    12     14      1 ;     H3 - H5    
    15     18      1 ;     H6 - H9    
    15     19      1 ;     H6 - H10   
    16     18      1 ;     H7 - H9    
    16     19      1 ;     H7 - H10   
    17     18      1 ;     H8 - H9    
    17     19      1 ;     H8 - H10   

[ angles ]
;   ai     aj     ak    funct   theta         cth
     1      2      4      1 ;    1.2002e+02    5.3279e+02 ;     C1 - C2   - C4       CA -   CA - CA  
     1      2     11      1 ;    1.1988e+02    3.7572e+02 ;     C1 - C2   - H2       CA -   CA - HA  
     1      3      5      1 ;    1.2002e+02    5.3279e+02 ;     C1 - C3   - C5       CA -   CA - CA  
     1      3     12      1 ;    1.1988e+02    3.7572e+02 ;     C1 - C3   - H3       CA -   CA - HA  
     2      1      3      1 ;    1.2002e+02    5.3279e+02 ;     C2 - C1   - C3       CA -   CA - CA  
     2      1     10      1 ;    1.1988e+02    3.7572e+02 ;     C2 - C1   - H1       CA -   CA - HA  
     2      4      6      1 ;    1.2002e+02    5.3279e+02 ;     C2 - C4   - C6       CA -   CA - CA  
     2      4     13      1 ;    1.1988e+02    3.7572e+02 ;     C2 - C4   - H4       CA -   CA - HA  
     3      1     10      1 ;    1.1988e+02    3.7572e+02 ;     C3 - C1   - H1       CA -   CA - HA  
     3      5      6      1 ;    1.2002e+02    5.3279e+02 ;     C3 - C5   - C6       CA -   CA - CA  
     3      5     14      1 ;    1.1988e+02    3.7572e+02 ;     C3 - C5   - H5       CA -   CA - HA  
     4      2     11      1 ;    1.1988e+02    3.7572e+02 ;     C4 - C2   - H2       CA -   CA - HA  
     4      6      5      1 ;    1.2002e+02    5.3279e+02 ;     C4 - C6   - C5       CA -   CA - CA  
     4      6      9      1 ;    1.1911e+02    6.6107e+02 ;     C4 - C6   - O1       CA -   CA - x   
     5      3     12      1 ;    1.1988e+02    3.7572e+02 ;     C5 - C3   - H3       CA -   CA - HA  
     5      6      9      1 ;    1.1911e+02    6.6107e+02 ;     C5 - C6   - O1       CA -   CA - x   
     6      4     13      1 ;    1.1988e+02    3.7572e+02 ;     C6 - C4   - H4       CA -   CA - HA  
     6      5     14      1 ;    1.1988e+02    3.7572e+02 ;     C6 - C5   - H5       CA -   CA - HA  
     6      9      8      1 ;    1.1839e+02    7.3856e+02 ;     C6 - O1   - C8       CA -    x - CT  
     7      8      9      1 ;    1.0762e+02    6.4802e+02 ;     C7 - C8   - O1       CT -   CT - x   
     7      8     18      1 ;    1.0959e+02    3.6217e+02 ;     C7 - C8   - H9       CT -   CT - HC  
     7      8     19      1 ;    1.0959e+02    3.6217e+02 ;     C7 - C8   - H10      CT -   CT - HC  
     8      7     15      1 ;    1.0968e+02    3.6208e+02 ;     C8 - C7   - H6       CT -   CT - HC  
     8      7     16      1 ;    1.0968e+02    3.6208e+02 ;     C8 - C7   - H7       CT -   CT - HC  
     8      7     17      1 ;    1.0968e+02    3.6208e+02 ;     C8 - C7   - H8       CT -   CT - HC  
     9      8     18      1 ;    1.1034e+02    4.7028e+02 ;     O1 - C8   - H9        x -   CT - HC  
     9      8     19      1 ;    1.1034e+02    4.7028e+02 ;     O1 - C8   - H10       x -   CT - HC  
    15      7     16      1 ;    1.0773e+02    2.9957e+02 ;     H6 - C7   - H7       HC -   CT - HC  
    15      7     17      1 ;    1.0773e+02    2.9957e+02 ;     H6 - C7   - H8       HC -   CT - HC  
    16      7     17      1 ;    1.0773e+02    2.9957e+02 ;     H7 - C7   - H8       HC -   CT - HC  
    18      8     19      1 ;    1.0855e+02    2.9824e+02 ;     H9 - C8   - H10      HC -   CT - HC  

[ dihedrals ] ; propers
; for gromacs 4.5 or higher, using funct 9
;    i      j      k      l   func   phase     kd      pn
     1      2      4      6      9 ;   180.00  15.16700   2 ;     C1-    C2-    C4-    C6
     1      2      4     13      9 ;   180.00  15.16700   2 ;     C1-    C2-    C4-    H4
     1      3      5      6      9 ;   180.00  15.16700   2 ;     C1-    C3-    C5-    C6
     1      3      5     14      9 ;   180.00  15.16700   2 ;     C1-    C3-    C5-    H5
     2      1      3      5      9 ;   180.00  15.16700   2 ;     C2-    C1-    C3-    C5
     2      1      3     12      9 ;   180.00  15.16700   2 ;     C2-    C1-    C3-    H3
     2      4      6      5      9 ;   180.00  15.16700   2 ;     C2-    C4-    C6-    C5
     2      4      6      9      9 ;   180.00  15.16700   2 ;     C2-    C4-    C6-    O1
     3      1      2      4      9 ;   180.00  15.16700   2 ;     C3-    C1-    C2-    C4
     3      1      2     11      9 ;   180.00  15.16700   2 ;     C3-    C1-    C2-    H2
     3      5      6      4      9 ;   180.00  15.16700   2 ;     C3-    C5-    C6-    C4
     3      5      6      9      9 ;   180.00  15.16700   2 ;     C3-    C5-    C6-    O1
     4      6      5     14      9 ;   180.00  15.16700   2 ;     C4-    C6-    C5-    H5
     4      6      9      8      9 ;   180.00   6.94544   2 ;     C4-    C6-    O1-    C8
     5      6      4     13      9 ;   180.00  15.16700   2 ;     C5-    C6-    C4-    H4
     5      6      9      8      9 ;   180.00   6.94544   2 ;     C5-    C6-    O1-    C8
     6      4      2     11      9 ;   180.00  15.16700   2 ;     C6-    C4-    C2-    H2
     6      5      3     12      9 ;   180.00  15.16700   2 ;     C6-    C5-    C3-    H3
     6      9      8      7      9 ;     0.00   1.60387   3 ;     C6-    O1-    C8-    C7
     6      9      8     18      9 ;     0.00   1.60387   3 ;     C6-    O1-    C8-    H9
     6      9      8     19      9 ;     0.00   1.60387   3 ;     C6-    O1-    C8-   H10
     9      6      4     13      9 ;   180.00  15.16700   2 ;     O1-    C6-    C4-    H4
     9      6      5     14      9 ;   180.00  15.16700   2 ;     O1-    C6-    C5-    H5
     9      8      7     15      9 ;     0.00   0.00000   0 ;     O1-    C8-    C7-    H6
     9      8      7     15      9 ;     0.00   1.04600   1 ;     O1-    C8-    C7-    H6
     9      8      7     16      9 ;     0.00   0.00000   0 ;     O1-    C8-    C7-    H7
     9      8      7     16      9 ;     0.00   1.04600   1 ;     O1-    C8-    C7-    H7
     9      8      7     17      9 ;     0.00   0.00000   0 ;     O1-    C8-    C7-    H8
     9      8      7     17      9 ;     0.00   1.04600   1 ;     O1-    C8-    C7-    H8
    10      1      2      4      9 ;   180.00  15.16700   2 ;     H1-    C1-    C2-    C4
    10      1      2     11      9 ;   180.00  15.16700   2 ;     H1-    C1-    C2-    H2
    10      1      3      5      9 ;   180.00  15.16700   2 ;     H1-    C1-    C3-    C5
    10      1      3     12      9 ;   180.00  15.16700   2 ;     H1-    C1-    C3-    H3
    11      2      4     13      9 ;   180.00  15.16700   2 ;     H2-    C2-    C4-    H4
    12      3      5     14      9 ;   180.00  15.16700   2 ;     H3-    C3-    C5-    H5
    15      7      8     18      9 ;     0.00   0.65084   3 ;     H6-    C7-    C8-    H9
    15      7      8     19      9 ;     0.00   0.65084   3 ;     H6-    C7-    C8-   H10
    16      7      8     18      9 ;     0.00   0.65084   3 ;     H7-    C7-    C8-    H9
    16      7      8     19      9 ;     0.00   0.65084   3 ;     H7-    C7-    C8-   H10
    17      7      8     18      9 ;     0.00   0.65084   3 ;     H8-    C7-    C8-    H9
    17      7      8     19      9 ;     0.00   0.65084   3 ;     H8-    C7-    C8-   H10

[ dihedrals ] ; impropers
; treated as propers in GROMACS to use correct AMBER analytical function
;    i      j      k      l   func   phase     kd      pn
     1      4      2     11      4 ;   180.00   4.60240   2 ;     C1-    C4-    C2-    H2
     1      5      3     12      4 ;   180.00   4.60240   2 ;     C1-    C5-    C3-    H3
     2      6      4     13      4 ;   180.00   4.60240   2 ;     C2-    C6-    C4-    H4
     3      6      5     14      4 ;   180.00   4.60240   2 ;     C3-    C6-    C5-    H5
     4      5      6      9      4 ;   180.00   4.60240   2 ;     C4-    C5-    C6-    O1
    10      1      3      2      4 ;   180.00   4.60240   2 ;     H1-    C1-    C3-    C2
