mobley_1079207_GMX.gro created by acpype (v: 2023.10.27) on Wed May 20 23:50:54 2026
   12
    1MOL     C1    1   2.169   2.332   2.203
    1MOL     C2    2   2.276   2.271   2.138
    1MOL     C3    3   2.170   2.344   2.343
    1MOL     C4    4   2.383   2.231   2.351
    1MOL     C5    5   2.383   2.220   2.212
    1MOL     C6    6   2.276   2.293   2.416
    1MOL    CL1    7   2.514   2.144   2.132
    1MOL    CL2    8   2.277   2.307   2.588
    1MOL     H1    9   2.086   2.372   2.146
    1MOL     H2   10   2.274   2.262   2.030
    1MOL     H3   11   2.086   2.392   2.392
    1MOL     H4   12   2.466   2.192   2.409
   4.55982   4.55982   4.55982
