mobley_9653690_GMX.gro created by acpype (v: 2023.10.27) on Wed May 20 23:59:17 2026
11202
    1MOL     C1    1   2.387   2.390   2.230
    1MOL     C2    2   2.497   2.467   2.231
    1MOL     C3    3   2.215   2.427   2.685
    1MOL     C4    4   2.301   2.364   2.603
    1MOL     C5    5   2.312   2.349   2.354
    1MOL     C6    6   2.506   2.444   2.484
    1MOL     C7    7   2.560   2.515   2.359
    1MOL     C8    8   2.353   2.429   2.479
    1MOL     C9    9   2.566   2.506   2.103
    1MOL    C10   10   2.350   2.225   2.631
    1MOL     O1   11   2.535   2.655   2.373
    1MOL     H1   12   2.346   2.355   2.136
    1MOL     H2   13   2.177   2.379   2.775
    1MOL     H3   14   2.180   2.527   2.664
    1MOL     H4   15   2.205   2.363   2.336
    1MOL     H5   16   2.329   2.242   2.369
    1MOL     H6   17   2.552   2.345   2.492
    1MOL     H7   18   2.535   2.500   2.574
    1MOL     H8   19   2.668   2.501   2.356
    1MOL     H9   20   2.308   2.529   2.473
    1MOL    H10   21   2.524   2.599   2.067
    1MOL    H11   22   2.551   2.428   2.028
    1MOL    H12   23   2.673   2.518   2.122
    1MOL    H13   24   2.283   2.151   2.585
    1MOL    H14   25   2.450   2.211   2.590
    1MOL    H15   26   2.354   2.203   2.738
    1MOL    H16   27   2.577   2.682   2.457
    2SOL     OW   28   0.230   0.628   0.113
    2SOL    HW1   29   0.137   0.626   0.150
    2SOL    HW2   30   0.231   0.589   0.021
    3SOL     OW   31   0.225   0.275   0.996
    3SOL    HW1   32   0.260   0.258   1.088
    3SOL    HW2   33   0.137   0.230   0.984
    4SOL     OW   34   0.019   0.368   0.647
    4SOL    HW1   35  -0.063   0.411   0.686
    4SOL    HW2   36  -0.009   0.295   0.584
    5SOL     OW   37   0.569   1.275   1.165
    5SOL    HW1   38   0.476   1.268   1.128
    5SOL    HW2   39   0.580   1.364   1.209
    6SOL     OW   40   1.555   1.511   0.703
    6SOL    HW1   41   1.498   1.495   0.784
    6SOL    HW2   42   1.496   1.521   0.623
    7SOL     OW   43   1.135   0.703   0.717
    7SOL    HW1   44   1.192   0.781   0.692
    7SOL    HW2   45   1.075   0.729   0.793
    8SOL     OW   46   1.755   0.607   0.231
    8SOL    HW1   47   1.743   0.594   0.132
    8SOL    HW2   48   1.725   0.526   0.280
    9SOL     OW   49   0.768   1.144   1.023
    9SOL    HW1   50   0.690   1.161   1.083
    9SOL    HW2   51   0.802   1.231   0.987
   10SOL     OW   52   0.850   0.798   1.823
   10SOL    HW1   53   0.846   0.874   1.888
   10SOL    HW2   54   0.872   0.834   1.732
   11SOL     OW   55   0.685   1.012   0.665
   11SOL    HW1   56   0.754   0.996   0.735
   11SOL    HW2   57   0.612   1.069   0.703
   12SOL     OW   58   0.686   1.161   1.803
   12SOL    HW1   59   0.746   1.240   1.817
   12SOL    HW2   60   0.600   1.192   1.762
   13SOL     OW   61   0.335   1.435   1.061
   13SOL    HW1   62   0.257   1.404   1.008
   13SOL    HW2   63   0.393   1.493   1.004
   14SOL     OW   64   1.460   1.505   1.339
   14SOL    HW1   65   1.484   1.599   1.365
   14SOL    HW2   66   1.444   1.451   1.421
   15SOL     OW   67   0.438   0.392   1.499
   15SOL    HW1   68   0.520   0.336   1.508
   15SOL    HW2   69   0.357   0.334   1.503
   16SOL     OW   70   1.603   0.447   0.737
   16SOL    HW1   71   1.529   0.493   0.687
   16SOL    HW2   72   1.654   0.515   0.790
   17SOL     OW   73   0.231   1.713   0.483
   17SOL    HW1   74   0.265   1.790   0.537
   17SOL    HW2   75   0.275   1.713   0.393
   18SOL     OW   76   1.127   1.341   1.690
   18SOL    HW1   77   1.174   1.341   1.778
   18SOL    HW2   78   1.079   1.254   1.679
   19SOL     OW   79   0.230   1.434   0.538
   19SOL    HW1   80   0.204   1.530   0.538
   19SOL    HW2   81   0.159   1.380   0.583
   20SOL     OW   82   0.240   1.091   0.886
   20SOL    HW1   83   0.254   1.007   0.938
   20SOL    HW2   84   0.185   1.155   0.941
   21SOL     OW   85   0.620   1.786   1.439
   21SOL    HW1   86   0.528   1.769   1.474
   21SOL    HW2   87   0.648   1.878   1.465
   22SOL     OW   88   0.606   0.964   0.123
   22SOL    HW1   89   0.613   1.048   0.069
   22SOL    HW2   90   0.652   0.977   0.211
   23SOL     OW   91   1.594   0.114   1.480
   23SOL    HW1   92   1.576   0.181   1.408
   23SOL    HW2   93   1.591   0.160   1.569
   24SOL     OW   94   0.122   0.643   0.563
   24SOL    HW1   95   0.077   0.555   0.580
   24SOL    HW2   96   0.121   0.697   0.647
   25SOL     OW   97   1.842   1.767   0.359
   25SOL    HW1   98   1.896   1.738   0.439
   25SOL    HW2   99   1.872   1.857   0.330
   26SOL     OW  100   0.027   1.596   0.117
   26SOL    HW1  101   0.008   1.500   0.138
   26SOL    HW2  102  -0.006   1.654   0.192
   27SOL     OW  103   1.689   0.922   0.612
   27SOL    HW1  104   1.784   0.893   0.620
   27SOL    HW2  105   1.681   0.987   0.537
   28SOL     OW  106   1.641   1.108   0.432
   28SOL    HW1  107   1.727   1.110   0.380
   28SOL    HW2  108   1.655   1.155   0.520
   29SOL     OW  109   0.113   0.737   1.597
   29SOL    HW1  110   0.201   0.724   1.642
   29SOL    HW2  111   0.100   0.834   1.575
   30SOL     OW  112   0.613   1.365   0.726
   30SOL    HW1  113   0.564   1.278   0.735
   30SOL    HW2  114   0.590   1.408   0.639
   31SOL     OW  115   1.293   1.228   1.423
   31SOL    HW1  116   1.330   1.155   1.365
   31SOL    HW2  117   1.345   1.233   1.508
   32SOL     OW  118   0.809   0.004   0.502
   32SOL    HW1  119   0.849   0.095   0.493
   32SOL    HW2  120   0.709   0.012   0.508
   33SOL     OW  121   0.197   0.976   1.264
   33SOL    HW1  122   0.286   0.931   1.250
   33SOL    HW2  123   0.124   0.911   1.245
   34SOL     OW  124   1.525   0.999   0.190
   34SOL    HW1  125   1.462   0.923   0.203
   34SOL    HW2  126   1.573   1.017   0.276
   35SOL     OW  127   1.187   1.792   1.616
   35SOL    HW1  128   1.211   1.852   1.540
   35SOL    HW2  129   1.194   1.697   1.586
   36SOL     OW  130   0.317   0.251   1.801
   36SOL    HW1  131   0.388   0.322   1.807
   36SOL    HW2  132   0.229   0.290   1.829
   37SOL     OW  133   1.466   1.417   0.953
   37SOL    HW1  134   1.407   1.423   1.033
   37SOL    HW2  135   1.451   1.329   0.907
   38SOL     OW  136   1.667   1.714   0.572
   38SOL    HW1  137   1.626   1.691   0.484
   38SOL    HW2  138   1.649   1.640   0.637
   39SOL     OW  139   0.598   0.729   0.270
   39SOL    HW1  140   0.622   0.798   0.202
   39SOL    HW2  141   0.520   0.762   0.324
   40SOL     OW  142   1.281   0.345   0.944
   40SOL    HW1  143   1.195   0.295   0.931
   40SOL    HW2  144   1.343   0.291   1.000
   41SOL     OW  145   1.576   1.662   0.307
   41SOL    HW1  146   1.665   1.708   0.310
   41SOL    HW2  147   1.555   1.638   0.212
   42SOL     OW  148   0.807   0.605   1.465
   42SOL    HW1  149   0.760   0.602   1.554
   42SOL    HW2  150   0.756   0.550   1.399
   43SOL     OW  151   1.394   0.469   1.674
   43SOL    HW1  152   1.374   0.512   1.762
   43SOL    HW2  153   1.472   0.407   1.683
   44SOL     OW  154   0.973   0.890   1.572
   44SOL    HW1  155   1.019   0.806   1.543
   44SOL    HW2  156   0.917   0.924   1.497
   45SOL     OW  157   0.991   0.410   1.242
   45SOL    HW1  158   0.914   0.444   1.296
   45SOL    HW2  159   0.957   0.359   1.163
   46SOL     OW  160   1.041   0.701   0.429
   46SOL    HW1  161   1.067   0.697   0.525
   46SOL    HW2  162   0.956   0.650   0.415
   47SOL     OW  163   0.076   0.811   0.789
   47SOL    HW1  164   0.175   0.799   0.798
   47SOL    HW2  165   0.052   0.906   0.810
   48SOL     OW  166   0.130   1.821   1.571
   48SOL    HW1  167   0.120   1.806   1.670
   48SOL    HW2  168   0.044   1.857   1.535
   49SOL     OW  169   0.865   0.348   0.195
   49SOL    HW1  170   0.924   0.411   0.146
   49SOL    HW2  171   0.884   0.254   0.166
   50SOL     OW  172   1.719   0.585   1.831
   50SOL    HW1  173   1.693   0.674   1.795
   50SOL    HW2  174   1.717   0.517   1.758
   51SOL     OW  175   1.362   1.144   0.545
   51SOL    HW1  176   1.445   1.115   0.497
   51SOL    HW2  177   1.313   1.211   0.489
   52SOL     OW  178   0.550   0.196   0.885
   52SOL    HW1  179   0.545   0.191   0.985
   52SOL    HW2  180   0.552   0.292   0.856
   53SOL     OW  181   1.008   1.456   0.477
   53SOL    HW1  182   0.962   1.528   0.425
   53SOL    HW2  183   1.004   1.476   0.575
   54SOL     OW  184   0.351   1.801   0.853
   54SOL    HW1  185   0.401   1.715   0.859
   54SOL    HW2  186   0.416   1.878   0.850
   55SOL     OW  187   1.795   1.066   0.873
   55SOL    HW1  188   1.733   1.051   0.797
   55SOL    HW2  189   1.743   1.077   0.958
   56SOL     OW  190   1.227   1.550   1.506
   56SOL    HW1  191   1.233   1.473   1.570
   56SOL    HW2  192   1.175   1.524   1.426
   57SOL     OW  193   0.321   0.943   0.242
   57SOL    HW1  194   0.403   0.982   0.200
   57SOL    HW2  195   0.294   0.861   0.193
   58SOL     OW  196   1.458   0.735   0.728
   58SOL    HW1  197   1.453   0.670   0.803
   58SOL    HW2  198   1.538   0.794   0.741
   59SOL     OW  199   0.461   1.266   1.727
   59SOL    HW1  200   0.411   1.267   1.641
   59SOL    HW2  201   0.398   1.248   1.803
   60SOL     OW  202   1.111   1.776   0.237
   60SOL    HW1  203   1.051   1.714   0.287
   60SOL    HW2  204   1.142   1.732   0.152
   61SOL     OW  205   0.202   0.285   1.498
   61SOL    HW1  206   0.122   0.345   1.485
   61SOL    HW2  207   0.192   0.236   1.584
   62SOL     OW  208   1.632   1.377   0.081
   62SOL    HW1  209   1.600   1.471   0.071
   62SOL    HW2  210   1.556   1.314   0.069
   63SOL     OW  211   0.464   1.743   0.323
   63SOL    HW1  212   0.497   1.782   0.409
   63SOL    HW2  213   0.540   1.736   0.258
   64SOL     OW  214   1.400   0.107   0.426
   64SOL    HW1  215   1.376   0.070   0.336
   64SOL    HW2  216   1.499   0.123   0.430
   65SOL     OW  217   0.249   1.785   1.241
   65SOL    HW1  218   0.306   1.720   1.291
   65SOL    HW2  219   0.233   1.752   1.148
   66SOL     OW  220   0.940   1.698   0.904
   66SOL    HW1  221   1.020   1.641   0.925
   66SOL    HW2  222   0.891   1.658   0.827
   67SOL     OW  223   0.382   0.700   0.480
   67SOL    HW1  224   0.427   0.610   0.477
   67SOL    HW2  225   0.288   0.689   0.513
   68SOL     OW  226   1.547   0.222   1.729
   68SOL    HW1  227   1.542   0.259   1.821
   68SOL    HW2  228   1.475   0.153   1.717
   69SOL     OW  229   0.614   0.122   0.117
   69SOL    HW1  230   0.712   0.100   0.124
   69SOL    HW2  231   0.583   0.105   0.024
   70SOL     OW  232   0.781   0.264   1.749
   70SOL    HW1  233   0.848   0.203   1.792
   70SOL    HW2  234   0.708   0.283   1.814
   71SOL     OW  235   0.888   1.514   1.195
   71SOL    HW1  236   0.865   1.489   1.101
   71SOL    HW2  237   0.949   1.445   1.234
   72SOL     OW  238   1.351   0.590   1.433
   72SOL    HW1  239   1.379   0.547   1.518
   72SOL    HW2  240   1.376   0.686   1.434
   73SOL     OW  241   0.803   1.402   0.924
   73SOL    HW1  242   0.893   1.416   0.882
   73SOL    HW2  243   0.732   1.404   0.853
   74SOL     OW  244   0.922   0.503   0.899
   74SOL    HW1  245   0.897   0.494   0.803
   74SOL    HW2  246   0.970   0.421   0.930
   75SOL     OW  247   0.539   0.064   0.512
   75SOL    HW1  248   0.458   0.065   0.570
   75SOL    HW2  249   0.542   0.147   0.457
   76SOL     OW  250   1.434   1.188   0.041
   76SOL    HW1  251   1.466   1.112   0.098
   76SOL    HW2  252   1.342   1.215   0.071
   77SOL     OW  253   0.297   0.035   0.171
   77SOL    HW1  254   0.346   0.119   0.150
   77SOL    HW2  255   0.359  -0.030   0.216
   78SOL     OW  256   0.935   0.236   0.480
   78SOL    HW1  257   0.887   0.277   0.402
   78SOL    HW2  258   1.034   0.234   0.461
   79SOL     OW  259   1.076   0.683   1.464
   79SOL    HW1  260   0.996   0.622   1.467
   79SOL    HW2  261   1.157   0.630   1.440
   80SOL     OW  262   1.227   1.570   0.793
   80SOL    HW1  263   1.248   1.644   0.728
   80SOL    HW2  264   1.295   1.570   0.866
   81SOL     OW  265   0.459   1.152   0.741
   81SOL    HW1  266   0.388   1.125   0.806
   81SOL    HW2  267   0.433   1.124   0.648
   82SOL     OW  268   1.271   1.797   0.591
   82SOL    HW1  269   1.315   1.861   0.527
   82SOL    HW2  270   1.221   1.849   0.661
   83SOL     OW  271   1.032   0.549   0.016
   83SOL    HW1  272   0.991   0.631  -0.023
   83SOL    HW2  273   1.096   0.575   0.089
   84SOL     OW  274   0.078   0.556   1.386
   84SOL    HW1  275   0.170   0.555   1.345
   84SOL    HW2  276   0.072   0.630   1.453
   85SOL     OW  277   0.561   0.222   1.147
   85SOL    HW1  278   0.599   0.138   1.184
   85SOL    HW2  279   0.473   0.241   1.191
   86SOL     OW  280   0.866   0.454   0.642
   86SOL    HW1  281   0.834   0.526   0.580
   86SOL    HW2  282   0.890   0.373   0.589
   87SOL     OW  283   1.017   0.039   0.753
   87SOL    HW1  284   0.945   0.044   0.684
   87SOL    HW2  285   0.993  -0.030   0.822
   88SOL     OW  286   1.429   1.173   0.867
   88SOL    HW1  287   1.374   1.089   0.860
   88SOL    HW2  288   1.455   1.202   0.775
   89SOL     OW  289   1.466   0.590   0.992
   89SOL    HW1  290   1.436   0.495   0.999
   89SOL    HW2  291   1.539   0.606   1.058
   90SOL     OW  292   1.857   0.833   0.377
   90SOL    HW1  293   1.899   0.769   0.441
   90SOL    HW2  294   1.819   0.782   0.299
   91SOL     OW  295   0.488   1.385   0.174
   91SOL    HW1  296   0.401   1.370   0.221
   91SOL    HW2  297   0.471   1.411   0.079
   92SOL     OW  298   1.664   1.280   0.657
   92SOL    HW1  299   1.763   1.288   0.671
   92SOL    HW2  300   1.619   1.364   0.688
   93SOL     OW  301   1.390   0.575   0.078
   93SOL    HW1  302   1.336   0.554   0.159
   93SOL    HW2  303   1.481   0.534   0.087
   94SOL     OW  304   0.527   0.256   0.328
   94SOL    HW1  305   0.554   0.197   0.253
   94SOL    HW2  306   0.527   0.351   0.297
   95SOL     OW  307   1.754   1.223   1.588
   95SOL    HW1  308   1.845   1.184   1.575
   95SOL    HW2  309   1.762   1.319   1.612
   96SOL     OW  310   1.064   1.347   1.340
   96SOL    HW1  311   0.984   1.324   1.395
   96SOL    HW2  312   1.147   1.321   1.389
   97SOL     OW  313   1.592   1.629   1.625
   97SOL    HW1  314   1.619   1.663   1.535
   97SOL    HW2  315   1.671   1.591   1.671
   98SOL     OW  316   1.111   1.195   1.100
   98SOL    HW1  317   1.071   1.239   1.181
   98SOL    HW2  318   1.070   1.232   1.017
   99SOL     OW  319   1.638   1.099   1.079
   99SOL    HW1  320   1.643   1.180   1.138
   99SOL    HW2  321   1.552   1.101   1.028
  100SOL     OW  322   0.915   0.089   1.402
  100SOL    HW1  323   0.940   0.069   1.307
  100SOL    HW2  324   0.987   0.145   1.444
  101SOL     OW  325   0.980   1.116   1.719
  101SOL    HW1  326   0.881   1.122   1.729
  101SOL    HW2  327   1.003   1.036   1.663
  102SOL     OW  328   0.705   1.050   0.368
  102SOL    HW1  329   0.691   1.057   0.467
  102SOL    HW2  330   0.789   0.999   0.350
  103SOL     OW  331   0.410   0.813   1.251
  103SOL    HW1  332   0.496   0.825   1.301
  103SOL    HW2  333   0.368   0.726   1.278
  104SOL     OW  334   1.274   0.386   1.262
  104SOL    HW1  335   1.295   0.460   1.326
  104SOL    HW2  336   1.185   0.403   1.219
  105SOL     OW  337   0.064   1.564   1.331
  105SOL    HW1  338   0.018   1.646   1.297
  105SOL    HW2  339   0.162   1.583   1.340
  106SOL     OW  340   0.367   1.100   0.501
  106SOL    HW1  341   0.360   1.183   0.445
  106SOL    HW2  342   0.371   1.020   0.441
  107SOL     OW  343   0.566   0.537   0.865
  107SOL    HW1  344   0.578   0.603   0.791
  107SOL    HW2  345   0.612   0.571   0.948
  108SOL     OW  346   1.252   1.348   0.388
  108SOL    HW1  347   1.302   1.425   0.428
  108SOL    HW2  348   1.157   1.350   0.420
  109SOL     OW  349   1.272   1.445   1.142
  109SOL    HW1  350   1.319   1.458   1.229
  109SOL    HW2  351   1.206   1.371   1.151
  110SOL     OW  352   1.582   0.639   0.472
  110SOL    HW1  353   1.551   0.700   0.545
  110SOL    HW2  354   1.632   0.691   0.403
  111SOL     OW  355   0.354   1.510   1.329
  111SOL    HW1  356   0.333   1.466   1.242
  111SOL    HW2  357   0.451   1.536   1.332
  112SOL     OW  358   0.402   0.751   1.598
  112SOL    HW1  359   0.470   0.806   1.551
  112SOL    HW2  360   0.442   0.663   1.625
  113SOL     OW  361   1.587   0.779   1.670
  113SOL    HW1  362   1.495   0.817   1.665
  113SOL    HW2  363   1.647   0.826   1.605
  114SOL     OW  364   1.013   0.105   1.770
  114SOL    HW1  365   1.019   0.190   1.718
  114SOL    HW2  366   1.045   0.029   1.713
  115SOL     OW  367   0.504   0.050   1.740
  115SOL    HW1  368   0.462  -0.007   1.670
  115SOL    HW2  369   0.438   0.119   1.772
  116SOL     OW  370   0.573   0.870   1.029
  116SOL    HW1  371   0.617   0.959   1.020
  116SOL    HW2  372   0.510   0.870   1.106
  117SOL     OW  373   1.360   0.862   1.045
  117SOL    HW1  374   1.285   0.862   0.979
  117SOL    HW2  375   1.397   0.770   1.054
  118SOL     OW  376   1.209   0.525   0.275
  118SOL    HW1  377   1.222   0.441   0.329
  118SOL    HW2  378   1.180   0.599   0.335
  119SOL     OW  379   0.307   0.213   1.231
  119SOL    HW1  380   0.284   0.250   1.321
  119SOL    HW2  381   0.277   0.118   1.225
  120SOL     OW  382   0.037   1.310   1.282
  120SOL    HW1  383   0.090   1.261   1.350
  120SOL    HW2  384   0.059   1.408   1.287
  121SOL     OW  385   0.732   0.634   1.064
  121SOL    HW1  386   0.791   0.608   0.988
  121SOL    HW2  387   0.704   0.730   1.053
  122SOL     OW  388   1.728   0.935   1.854
  122SOL    HW1  389   1.682   0.928   1.765
  122SOL    HW2  390   1.666   0.979   1.920
  123SOL     OW  391   0.307   0.063   0.618
  123SOL    HW1  392   0.296   0.157   0.651
  123SOL    HW2  393   0.302   0.000   0.695
  124SOL     OW  394   1.622   0.367   0.374
  124SOL    HW1  395   1.624   0.291   0.438
  124SOL    HW2  396   1.574   0.444   0.414
  125SOL     OW  397   1.023   0.766   0.966
  125SOL    HW1  398   1.038   0.787   1.062
  125SOL    HW2  399   0.993   0.671   0.957
  126SOL     OW  400   0.980   1.573   1.700
  126SOL    HW1  401   0.960   1.617   1.612
  126SOL    HW2  402   1.019   1.482   1.684
  127SOL     OW  403   1.859   1.518   1.605
  127SOL    HW1  404   1.873   1.545   1.510
  127SOL    HW2  405   1.942   1.540   1.658
  128SOL     OW  406   0.350   0.898   1.804
  128SOL    HW1  407   0.426   0.942   1.852
  128SOL    HW2  408   0.385   0.851   1.722
  129SOL     OW  409   1.540   0.274   0.125
  129SOL    HW1  410   1.479   0.199   0.148
  129SOL    HW2  411   1.562   0.326   0.208
  130SOL     OW  412   1.303   0.838   0.042
  130SOL    HW1  413   1.337   0.745   0.057
  130SOL    HW2  414   1.321   0.865  -0.053
  131SOL     OW  415   1.068   1.333   0.849
  131SOL    HW1  416   1.075   1.249   0.794
  131SOL    HW2  417   1.130   1.402   0.813
  132SOL     OW  418   0.319   0.810   0.949
  132SOL    HW1  419   0.412   0.846   0.954
  132SOL    HW2  420   0.313   0.725   1.001
  133SOL     OW  421   0.339   0.509   1.006
  133SOL    HW1  422   0.287   0.426   0.989
  133SOL    HW2  423   0.416   0.514   0.942
  134SOL     OW  424   1.138   0.380   1.678
  134SOL    HW1  425   1.093   0.443   1.742
  134SOL    HW2  426   1.231   0.411   1.661
  135SOL     OW  427   1.160   0.207   1.477
  135SOL    HW1  428   1.160   0.271   1.554
  135SOL    HW2  429   1.188   0.255   1.394
  136SOL     OW  430   0.008   1.326   0.200
  136SOL    HW1  431  -0.085   1.347   0.169
  136SOL    HW2  432   0.018   1.227   0.213
  137SOL     OW  433   0.088   1.801   0.927
  137SOL    HW1  434   0.046   1.715   0.900
  137SOL    HW2  435   0.182   1.804   0.893
  138SOL     OW  436   0.504   1.568   0.910
  138SOL    HW1  437   0.570   1.642   0.919
  138SOL    HW2  438   0.548   1.489   0.868
  139SOL     OW  439   1.002   0.796   1.238
  139SOL    HW1  440   1.043   0.764   1.324
  139SOL    HW2  441   0.906   0.769   1.235
  140SOL     OW  442   0.040   0.544   1.114
  140SOL    HW1  443   0.125   0.511   1.073
  140SOL    HW2  444   0.053   0.559   1.212
  141SOL     OW  445   0.189   0.520   1.722
  141SOL    HW1  446   0.248   0.480   1.652
  141SOL    HW2  447   0.131   0.591   1.681
  142SOL     OW  448   1.369   0.950   1.660
  142SOL    HW1  449   1.408   1.039   1.680
  142SOL    HW2  450   1.379   0.930   1.563
  143SOL     OW  451   0.815   0.572   0.325
  143SOL    HW1  452   0.822   0.483   0.279
  143SOL    HW2  453   0.721   0.606   0.317
  144SOL     OW  454   1.657   0.604   1.206
  144SOL    HW1  455   1.619   0.535   1.268
  144SOL    HW2  456   1.739   0.568   1.162
  145SOL     OW  457   0.252   1.564   1.744
  145SOL    HW1  458   0.222   1.621   1.820
  145SOL    HW2  459   0.245   1.467   1.770
  146SOL     OW  460   0.671   0.464   1.269
  146SOL    HW1  461   0.637   0.375   1.239
  146SOL    HW2  462   0.697   0.518   1.189
  147SOL     OW  463   0.930   1.678   1.465
  147SOL    HW1  464   0.906   1.660   1.370
  147SOL    HW2  465   0.960   1.772   1.475
  148SOL     OW  466   0.473   0.500   0.191
  148SOL    HW1  467   0.534   0.580   0.195
  148SOL    HW2  468   0.378   0.531   0.198
  149SOL     OW  469   0.159   1.137   1.466
  149SOL    HW1  470   0.181   1.076   1.542
  149SOL    HW2  471   0.169   1.088   1.380
  150SOL     OW  472   1.347   1.059   1.234
  150SOL    HW1  473   1.371   0.996   1.160
  150SOL    HW2  474   1.257   1.099   1.216
  151SOL     OW  475   1.302   0.855   0.309
  151SOL    HW1  476   1.216   0.824   0.351
  151SOL    HW2  477   1.298   0.841   0.210
  152SOL     OW  478   1.759   1.747   1.154
  152SOL    HW1  479   1.820   1.777   1.081
  152SOL    HW2  480   1.721   1.658   1.132
  153SOL     OW  481   1.252   1.731   1.128
  153SOL    HW1  482   1.336   1.736   1.074
  153SOL    HW2  483   1.229   1.635   1.146
  154SOL     OW  484   0.083   1.258   1.022
  154SOL    HW1  485   0.078   1.257   1.122
  154SOL    HW2  486   0.000   1.217   0.984
  155SOL     OW  487   0.688   1.662   1.716
  155SOL    HW1  488   0.632   1.743   1.725
  155SOL    HW2  489   0.740   1.666   1.630
  156SOL     OW  490   0.903   0.086   0.133
  156SOL    HW1  491   0.954   0.087   0.047
  156SOL    HW2  492   0.959   0.044   0.204
  157SOL     OW  493   1.726   0.135   0.523
  157SOL    HW1  494   1.799   0.118   0.456
  157SOL    HW2  495   1.695   0.048   0.561
  158SOL     OW  496   1.388   1.573   0.477
  158SOL    HW1  497   1.455   1.585   0.403
  158SOL    HW2  498   1.348   1.662   0.500
  159SOL     OW  499   0.130   1.794   1.851
  159SOL    HW1  500   0.089   1.720   1.904
  159SOL    HW2  501   0.194   1.845   1.909
  160SOL     OW  502   1.280   0.927   0.672
  160SOL    HW1  503   1.340   0.846   0.674
  160SOL    HW2  504   1.320   0.996   0.612
  161SOL     OW  505   0.830   1.273   1.422
  161SOL    HW1  506   0.825   1.306   1.517
  161SOL    HW2  507   0.744   1.292   1.376
  162SOL     OW  508   0.672   1.616   0.154
  162SOL    HW1  509   0.681   1.626   0.055
  162SOL    HW2  510   0.632   1.527   0.175
  163SOL     OW  511   1.650   1.720   1.394
  163SOL    HW1  512   1.703   1.730   1.310
  163SOL    HW2  513   1.623   1.810   1.428
  164SOL     OW  514   1.841   0.175   0.963
  164SOL    HW1  515   1.880   0.090   0.927
  164SOL    HW2  516   1.743   0.177   0.944
  165SOL     OW  517   0.263   0.326   0.720
  165SOL    HW1  518   0.184   0.377   0.686
  165SOL    HW2  519   0.254   0.311   0.818
  166SOL     OW  520   1.194   1.612   0.031
  166SOL    HW1  521   1.200   1.519   0.068
  166SOL    HW2  522   1.135   1.612  -0.049
  167SOL     OW  523   0.822   1.002   1.372
  167SOL    HW1  524   0.862   1.001   1.280
  167SOL    HW2  525   0.832   1.094   1.412
  168SOL     OW  526   0.916   0.910   0.291
  168SOL    HW1  527   0.979   0.948   0.223
  168SOL    HW2  528   0.956   0.827   0.330
  169SOL     OW  529   1.504   1.607   0.044
  169SOL    HW1  530   1.412   1.644   0.051
  169SOL    HW2  531   1.542   1.627  -0.046
  170SOL     OW  532   0.372   1.288   1.490
  170SOL    HW1  533   0.359   1.381   1.456
  170SOL    HW2  534   0.288   1.236   1.477
  171SOL     OW  535   1.614   1.292   1.289
  171SOL    HW1  536   1.674   1.295   1.369
  171SOL    HW2  537   1.539   1.356   1.302
  172SOL     OW  538   1.039   1.098   0.696
  172SOL    HW1  539   0.969   1.051   0.750
  172SOL    HW2  540   1.098   1.030   0.653
  173SOL     OW  541   1.014   0.236   0.971
  173SOL    HW1  542   1.006   0.200   0.878
  173SOL    HW2  543   1.012   0.160   1.036
  174SOL     OW  544   0.590   1.487   0.491
  174SOL    HW1  545   0.632   1.429   0.421
  174SOL    HW2  546   0.546   1.566   0.447
  175SOL     OW  547   1.709   0.385   1.381
  175SOL    HW1  548   1.782   0.454   1.385
  175SOL    HW2  549   1.737   0.310   1.322
  176SOL     OW  550   0.255   1.348   0.290
  176SOL    HW1  551   0.159   1.349   0.263
  176SOL    HW2  552   0.267   1.401   0.374
  177SOL     OW  553   0.105   1.013   1.726
  177SOL    HW1  554   0.028   0.980   1.780
  177SOL    HW2  555   0.190   0.983   1.768
  178SOL     OW  556   0.672   0.203   1.489
  178SOL    HW1  557   0.762   0.187   1.449
  178SOL    HW2  558   0.680   0.208   1.588
  179SOL     OW  559   0.075   0.345   0.033
  179SOL    HW1  560  -0.017   0.317   0.004
  179SOL    HW2  561   0.106   0.422  -0.023
  180SOL     OW  562   1.440   0.856   1.398
  180SOL    HW1  563   1.383   0.908   1.335
  180SOL    HW2  564   1.536   0.868   1.374
  181SOL     OW  565   0.072   0.166   0.318
  181SOL    HW1  566   0.055   0.249   0.264
  181SOL    HW2  567   0.162   0.129   0.296
  182SOL     OW  568   1.183   1.335   0.119
  182SOL    HW1  569   1.084   1.324   0.121
  182SOL    HW2  570   1.217   1.350   0.212
  183SOL     OW  571   0.613   0.842   1.431
  183SOL    HW1  572   0.669   0.923   1.414
  183SOL    HW2  573   0.672   0.762   1.434
  184SOL     OW  574   1.493   1.767   0.959
  184SOL    HW1  575   1.526   1.831   0.890
  184SOL    HW2  576   1.559   1.761   1.034
  185SOL     OW  577   0.716   0.565   1.708
  185SOL    HW1  578   0.735   0.630   1.782
  185SOL    HW2  579   0.776   0.485   1.717
  186SOL     OW  580   1.450   1.220   1.633
  186SOL    HW1  581   1.441   1.210   1.732
  186SOL    HW2  582   1.546   1.213   1.607
  187SOL     OW  583   0.390   1.741   1.560
  187SOL    HW1  584   0.299   1.782   1.558
  187SOL    HW2  585   0.383   1.647   1.592
  188SOL     OW  586   1.674   0.883   1.254
  188SOL    HW1  587   1.647   0.794   1.217
  188SOL    HW2  588   1.675   0.951   1.181
  189SOL     OW  589   1.225   0.325   0.449
  189SOL    HW1  590   1.290   0.251   0.438
  189SOL    HW2  591   1.245   0.375   0.533
  190SOL     OW  592   0.594   0.745   0.652
  190SOL    HW1  593   0.644   0.830   0.633
  190SOL    HW2  594   0.506   0.747   0.604
  191SOL     OW  595   1.777   0.342   1.642
  191SOL    HW1  596   1.760   0.373   1.548
  191SOL    HW2  597   1.693   0.305   1.680
  192SOL     OW  598   1.730   0.934   1.517
  192SOL    HW1  599   1.768   1.025   1.532
  192SOL    HW2  600   1.722   0.917   1.418
  193SOL     OW  601   0.859   1.374   0.016
  193SOL    HW1  602   0.813   1.389   0.104
  193SOL    HW2  603   0.903   1.459  -0.014
  194SOL     OW  604   0.661   1.790   0.953
  194SOL    HW1  605   0.615   1.878   0.940
  194SOL    HW2  606   0.760   1.802   0.946
  195SOL     OW  607   0.859   0.956   0.861
  195SOL    HW1  608   0.913   0.887   0.909
  195SOL    HW2  609   0.827   1.025   0.927
  196SOL     OW  610   1.083   0.984   0.087
  196SOL    HW1  611   1.060   1.037   0.005
  196SOL    HW2  612   1.164   0.928   0.068
  197SOL     OW  613   1.861   1.569   0.851
  197SOL    HW1  614   1.790   1.557   0.781
  197SOL    HW2  615   1.862   1.490   0.911
  198SOL     OW  616   0.221   1.314   1.844
  198SOL    HW1  617   0.156   1.241   1.823
  198SOL    HW2  618   0.225   1.328   1.942
  199SOL     OW  619   0.079   1.240   0.653
  199SOL    HW1  620   0.078   1.193   0.741
  199SOL    HW2  621   0.161   1.212   0.602
  200SOL     OW  622   0.672   1.391   1.624
  200SOL    HW1  623   0.594   1.341   1.662
  200SOL    HW2  624   0.669   1.486   1.655
  201SOL     OW  625   1.824   0.192   1.227
  201SOL    HW1  626   1.820   0.102   1.271
  201SOL    HW2  627   1.827   0.181   1.128
  202SOL     OW  628   0.428   0.424   0.520
  202SOL    HW1  629   0.458   0.352   0.458
  202SOL    HW2  630   0.389   0.384   0.603
  203SOL     OW  631   1.705   1.487   1.104
  203SOL    HW1  632   1.612   1.462   1.077
  203SOL    HW2  633   1.731   1.437   1.186
  204SOL     OW  634   0.317   0.547   1.280
  204SOL    HW1  635   0.355   0.488   1.352
  204SOL    HW2  636   0.357   0.521   1.192
  205SOL     OW  637   0.812   1.586   0.687
  205SOL    HW1  638   0.844   1.596   0.593
  205SOL    HW2  639   0.733   1.524   0.689
  206SOL     OW  640   1.424   0.214   1.112
  206SOL    HW1  641   1.476   0.149   1.167
  206SOL    HW2  642   1.375   0.277   1.173
  207SOL     OW  643   1.001   0.034   1.154
  207SOL    HW1  644   0.938  -0.038   1.123
  207SOL    HW2  645   1.094  -0.002   1.154
  208SOL     OW  646   0.770   1.330   0.301
  208SOL    HW1  647   0.724   1.243   0.318
  208SOL    HW2  648   0.861   1.327   0.342
  209SOL     OW  649   0.618   1.567   1.284
  209SOL    HW1  650   0.613   1.649   1.341
  209SOL    HW2  651   0.707   1.564   1.239
  210SOL     OW  652   1.352   0.052   0.168
  210SOL    HW1  653   1.387   0.011   0.084
  210SOL    HW2  654   1.262   0.014   0.188
  211SOL     OW  655   1.300   0.453   0.691
  211SOL    HW1  656   1.241   0.533   0.695
  211SOL    HW2  657   1.315   0.418   0.784
  212SOL     OW  658   1.593   0.221   0.882
  212SOL    HW1  659   1.509   0.220   0.936
  212SOL    HW2  660   1.595   0.304   0.826
  213SOL     OW  661   0.039   1.077   0.300
  213SOL    HW1  662   0.138   1.066   0.291
  213SOL    HW2  663  -0.001   0.991   0.332
  214SOL     OW  664   0.875   1.646   0.337
  214SOL    HW1  665   0.798   1.611   0.283
  214SOL    HW2  666   0.843   1.717   0.399
  215SOL     OW  667   0.230   0.628   1.975
  215SOL    HW1  668   0.137   0.626   2.012
  215SOL    HW2  669   0.231   0.589   1.883
  216SOL     OW  670   0.225   0.275   2.858
  216SOL    HW1  671   0.260   0.258   2.950
  216SOL    HW2  672   0.137   0.230   2.846
  217SOL     OW  673   0.019   0.368   2.509
  217SOL    HW1  674  -0.063   0.411   2.548
  217SOL    HW2  675  -0.009   0.295   2.446
  218SOL     OW  676   0.569   1.275   3.027
  218SOL    HW1  677   0.476   1.268   2.990
  218SOL    HW2  678   0.580   1.364   3.071
  219SOL     OW  679   1.555   1.511   2.565
  219SOL    HW1  680   1.498   1.495   2.646
  219SOL    HW2  681   1.496   1.521   2.485
  220SOL     OW  682   1.135   0.703   2.579
  220SOL    HW1  683   1.192   0.781   2.554
  220SOL    HW2  684   1.075   0.729   2.655
  221SOL     OW  685   1.755   0.607   2.093
  221SOL    HW1  686   1.743   0.594   1.994
  221SOL    HW2  687   1.725   0.526   2.142
  222SOL     OW  688   0.768   1.144   2.885
  222SOL    HW1  689   0.690   1.161   2.945
  222SOL    HW2  690   0.802   1.231   2.849
  223SOL     OW  691   0.850   0.798   3.685
  223SOL    HW1  692   0.846   0.874   3.750
  223SOL    HW2  693   0.872   0.834   3.594
  224SOL     OW  694   0.685   1.012   2.527
  224SOL    HW1  695   0.754   0.996   2.597
  224SOL    HW2  696   0.612   1.069   2.565
  225SOL     OW  697   0.686   1.161   3.665
  225SOL    HW1  698   0.746   1.240   3.679
  225SOL    HW2  699   0.600   1.192   3.624
  226SOL     OW  700   0.335   1.435   2.923
  226SOL    HW1  701   0.257   1.404   2.870
  226SOL    HW2  702   0.393   1.493   2.866
  227SOL     OW  703   1.460   1.505   3.201
  227SOL    HW1  704   1.484   1.599   3.227
  227SOL    HW2  705   1.444   1.451   3.283
  228SOL     OW  706   0.438   0.392   3.361
  228SOL    HW1  707   0.520   0.336   3.370
  228SOL    HW2  708   0.357   0.334   3.365
  229SOL     OW  709   1.603   0.447   2.599
  229SOL    HW1  710   1.529   0.493   2.549
  229SOL    HW2  711   1.654   0.515   2.652
  230SOL     OW  712   0.231   1.713   2.345
  230SOL    HW1  713   0.265   1.790   2.399
  230SOL    HW2  714   0.275   1.713   2.255
  231SOL     OW  715   1.127   1.341   3.552
  231SOL    HW1  716   1.174   1.341   3.640
  231SOL    HW2  717   1.079   1.254   3.541
  232SOL     OW  718   0.230   1.434   2.400
  232SOL    HW1  719   0.204   1.530   2.400
  232SOL    HW2  720   0.159   1.380   2.445
  233SOL     OW  721   0.240   1.091   2.748
  233SOL    HW1  722   0.254   1.007   2.800
  233SOL    HW2  723   0.185   1.155   2.803
  234SOL     OW  724   0.620   1.786   3.301
  234SOL    HW1  725   0.528   1.769   3.336
  234SOL    HW2  726   0.648   1.878   3.327
  235SOL     OW  727   0.606   0.964   1.985
  235SOL    HW1  728   0.613   1.048   1.931
  235SOL    HW2  729   0.652   0.977   2.073
  236SOL     OW  730   1.594   0.114   3.342
  236SOL    HW1  731   1.576   0.181   3.270
  236SOL    HW2  732   1.591   0.160   3.431
  237SOL     OW  733   0.122   0.643   2.425
  237SOL    HW1  734   0.077   0.555   2.442
  237SOL    HW2  735   0.121   0.697   2.509
  238SOL     OW  736   1.842   1.767   2.221
  238SOL    HW1  737   1.896   1.738   2.301
  238SOL    HW2  738   1.872   1.857   2.192
  239SOL     OW  739   0.027   1.596   1.979
  239SOL    HW1  740   0.008   1.500   2.000
  239SOL    HW2  741  -0.006   1.654   2.054
  240SOL     OW  742   1.689   0.922   2.474
  240SOL    HW1  743   1.784   0.893   2.482
  240SOL    HW2  744   1.681   0.987   2.399
  241SOL     OW  745   1.641   1.108   2.294
  241SOL    HW1  746   1.727   1.110   2.242
  241SOL    HW2  747   1.655   1.155   2.382
  242SOL     OW  748   0.113   0.737   3.459
  242SOL    HW1  749   0.201   0.724   3.504
  242SOL    HW2  750   0.100   0.834   3.437
  243SOL     OW  751   0.613   1.365   2.588
  243SOL    HW1  752   0.564   1.278   2.597
  243SOL    HW2  753   0.590   1.408   2.501
  244SOL     OW  754   1.293   1.228   3.285
  244SOL    HW1  755   1.330   1.155   3.227
  244SOL    HW2  756   1.345   1.233   3.370
  245SOL     OW  757   0.809   0.004   2.364
  245SOL    HW1  758   0.849   0.095   2.355
  245SOL    HW2  759   0.709   0.012   2.370
  246SOL     OW  760   0.197   0.976   3.126
  246SOL    HW1  761   0.286   0.931   3.112
  246SOL    HW2  762   0.124   0.911   3.107
  247SOL     OW  763   1.525   0.999   2.052
  247SOL    HW1  764   1.462   0.923   2.065
  247SOL    HW2  765   1.573   1.017   2.138
  248SOL     OW  766   1.187   1.792   3.478
  248SOL    HW1  767   1.211   1.852   3.402
  248SOL    HW2  768   1.194   1.697   3.448
  249SOL     OW  769   0.317   0.251   3.663
  249SOL    HW1  770   0.388   0.322   3.669
  249SOL    HW2  771   0.229   0.290   3.691
  250SOL     OW  772   1.466   1.417   2.815
  250SOL    HW1  773   1.407   1.423   2.895
  250SOL    HW2  774   1.451   1.329   2.769
  251SOL     OW  775   1.667   1.714   2.434
  251SOL    HW1  776   1.626   1.691   2.346
  251SOL    HW2  777   1.649   1.640   2.499
  252SOL     OW  778   0.598   0.729   2.132
  252SOL    HW1  779   0.622   0.798   2.064
  252SOL    HW2  780   0.520   0.762   2.186
  253SOL     OW  781   1.281   0.345   2.806
  253SOL    HW1  782   1.195   0.295   2.793
  253SOL    HW2  783   1.343   0.291   2.862
  254SOL     OW  784   1.576   1.662   2.169
  254SOL    HW1  785   1.665   1.708   2.172
  254SOL    HW2  786   1.555   1.638   2.074
  255SOL     OW  787   0.807   0.605   3.327
  255SOL    HW1  788   0.760   0.602   3.416
  255SOL    HW2  789   0.756   0.550   3.261
  256SOL     OW  790   1.394   0.469   3.536
  256SOL    HW1  791   1.374   0.512   3.624
  256SOL    HW2  792   1.472   0.407   3.545
  257SOL     OW  793   0.973   0.890   3.434
  257SOL    HW1  794   1.019   0.806   3.405
  257SOL    HW2  795   0.917   0.924   3.359
  258SOL     OW  796   0.991   0.410   3.104
  258SOL    HW1  797   0.914   0.444   3.158
  258SOL    HW2  798   0.957   0.359   3.025
  259SOL     OW  799   1.041   0.701   2.291
  259SOL    HW1  800   1.067   0.697   2.387
  259SOL    HW2  801   0.956   0.650   2.277
  260SOL     OW  802   0.076   0.811   2.651
  260SOL    HW1  803   0.175   0.799   2.660
  260SOL    HW2  804   0.052   0.906   2.672
  261SOL     OW  805   0.130   1.821   3.433
  261SOL    HW1  806   0.120   1.806   3.532
  261SOL    HW2  807   0.044   1.857   3.397
  262SOL     OW  808   0.865   0.348   2.057
  262SOL    HW1  809   0.924   0.411   2.008
  262SOL    HW2  810   0.884   0.254   2.028
  263SOL     OW  811   1.719   0.585   3.693
  263SOL    HW1  812   1.693   0.674   3.657
  263SOL    HW2  813   1.717   0.517   3.620
  264SOL     OW  814   1.362   1.144   2.407
  264SOL    HW1  815   1.445   1.115   2.359
  264SOL    HW2  816   1.313   1.211   2.351
  265SOL     OW  817   0.550   0.196   2.747
  265SOL    HW1  818   0.545   0.191   2.847
  265SOL    HW2  819   0.552   0.292   2.718
  266SOL     OW  820   1.008   1.456   2.339
  266SOL    HW1  821   0.962   1.528   2.287
  266SOL    HW2  822   1.004   1.476   2.437
  267SOL     OW  823   0.351   1.801   2.715
  267SOL    HW1  824   0.401   1.715   2.721
  267SOL    HW2  825   0.416   1.878   2.712
  268SOL     OW  826   1.795   1.066   2.735
  268SOL    HW1  827   1.733   1.051   2.659
  268SOL    HW2  828   1.743   1.077   2.820
  269SOL     OW  829   1.227   1.550   3.368
  269SOL    HW1  830   1.233   1.473   3.432
  269SOL    HW2  831   1.175   1.524   3.288
  270SOL     OW  832   0.321   0.943   2.104
  270SOL    HW1  833   0.403   0.982   2.062
  270SOL    HW2  834   0.294   0.861   2.055
  271SOL     OW  835   1.458   0.735   2.590
  271SOL    HW1  836   1.453   0.670   2.665
  271SOL    HW2  837   1.538   0.794   2.603
  272SOL     OW  838   0.461   1.266   3.589
  272SOL    HW1  839   0.411   1.267   3.503
  272SOL    HW2  840   0.398   1.248   3.665
  273SOL     OW  841   1.111   1.776   2.099
  273SOL    HW1  842   1.051   1.714   2.149
  273SOL    HW2  843   1.142   1.732   2.014
  274SOL     OW  844   0.202   0.285   3.360
  274SOL    HW1  845   0.122   0.345   3.347
  274SOL    HW2  846   0.192   0.236   3.446
  275SOL     OW  847   1.632   1.377   1.943
  275SOL    HW1  848   1.600   1.471   1.933
  275SOL    HW2  849   1.556   1.314   1.931
  276SOL     OW  850   0.464   1.743   2.185
  276SOL    HW1  851   0.497   1.782   2.271
  276SOL    HW2  852   0.540   1.736   2.120
  277SOL     OW  853   1.400   0.107   2.288
  277SOL    HW1  854   1.376   0.070   2.198
  277SOL    HW2  855   1.499   0.123   2.292
  278SOL     OW  856   0.249   1.785   3.103
  278SOL    HW1  857   0.306   1.720   3.153
  278SOL    HW2  858   0.233   1.752   3.010
  279SOL     OW  859   0.940   1.698   2.766
  279SOL    HW1  860   1.020   1.641   2.787
  279SOL    HW2  861   0.891   1.658   2.689
  280SOL     OW  862   0.382   0.700   2.342
  280SOL    HW1  863   0.427   0.610   2.339
  280SOL    HW2  864   0.288   0.689   2.375
  281SOL     OW  865   1.547   0.222   3.591
  281SOL    HW1  866   1.542   0.259   3.683
  281SOL    HW2  867   1.475   0.153   3.579
  282SOL     OW  868   0.614   0.122   1.979
  282SOL    HW1  869   0.712   0.100   1.986
  282SOL    HW2  870   0.583   0.105   1.886
  283SOL     OW  871   0.781   0.264   3.611
  283SOL    HW1  872   0.848   0.203   3.654
  283SOL    HW2  873   0.708   0.283   3.676
  284SOL     OW  874   0.888   1.514   3.057
  284SOL    HW1  875   0.865   1.489   2.963
  284SOL    HW2  876   0.949   1.445   3.096
  285SOL     OW  877   1.351   0.590   3.295
  285SOL    HW1  878   1.379   0.547   3.380
  285SOL    HW2  879   1.376   0.686   3.296
  286SOL     OW  880   0.803   1.402   2.786
  286SOL    HW1  881   0.893   1.416   2.744
  286SOL    HW2  882   0.732   1.404   2.715
  287SOL     OW  883   0.922   0.503   2.761
  287SOL    HW1  884   0.897   0.494   2.665
  287SOL    HW2  885   0.970   0.421   2.792
  288SOL     OW  886   0.539   0.064   2.374
  288SOL    HW1  887   0.458   0.065   2.432
  288SOL    HW2  888   0.542   0.147   2.319
  289SOL     OW  889   1.434   1.188   1.903
  289SOL    HW1  890   1.466   1.112   1.960
  289SOL    HW2  891   1.342   1.215   1.933
  290SOL     OW  892   0.297   0.035   2.033
  290SOL    HW1  893   0.346   0.119   2.012
  290SOL    HW2  894   0.359  -0.030   2.078
  291SOL     OW  895   0.935   0.236   2.342
  291SOL    HW1  896   0.887   0.277   2.264
  291SOL    HW2  897   1.034   0.234   2.323
  292SOL     OW  898   1.076   0.683   3.326
  292SOL    HW1  899   0.996   0.622   3.329
  292SOL    HW2  900   1.157   0.630   3.302
  293SOL     OW  901   1.227   1.570   2.655
  293SOL    HW1  902   1.248   1.644   2.590
  293SOL    HW2  903   1.295   1.570   2.728
  294SOL     OW  904   0.459   1.152   2.603
  294SOL    HW1  905   0.388   1.125   2.668
  294SOL    HW2  906   0.433   1.124   2.510
  295SOL     OW  907   1.271   1.797   2.453
  295SOL    HW1  908   1.315   1.861   2.389
  295SOL    HW2  909   1.221   1.849   2.523
  296SOL     OW  910   1.032   0.549   1.878
  296SOL    HW1  911   0.991   0.631   1.839
  296SOL    HW2  912   1.096   0.575   1.951
  297SOL     OW  913   0.078   0.556   3.248
  297SOL    HW1  914   0.170   0.555   3.207
  297SOL    HW2  915   0.072   0.630   3.315
  298SOL     OW  916   0.561   0.222   3.009
  298SOL    HW1  917   0.599   0.138   3.046
  298SOL    HW2  918   0.473   0.241   3.053
  299SOL     OW  919   0.866   0.454   2.504
  299SOL    HW1  920   0.834   0.526   2.442
  299SOL    HW2  921   0.890   0.373   2.451
  300SOL     OW  922   1.017   0.039   2.615
  300SOL    HW1  923   0.945   0.044   2.546
  300SOL    HW2  924   0.993  -0.030   2.684
  301SOL     OW  925   1.429   1.173   2.729
  301SOL    HW1  926   1.374   1.089   2.722
  301SOL    HW2  927   1.455   1.202   2.637
  302SOL     OW  928   1.466   0.590   2.854
  302SOL    HW1  929   1.436   0.495   2.861
  302SOL    HW2  930   1.539   0.606   2.920
  303SOL     OW  931   1.857   0.833   2.239
  303SOL    HW1  932   1.899   0.769   2.303
  303SOL    HW2  933   1.819   0.782   2.161
  304SOL     OW  934   0.488   1.385   2.036
  304SOL    HW1  935   0.401   1.370   2.083
  304SOL    HW2  936   0.471   1.411   1.941
  305SOL     OW  937   1.664   1.280   2.519
  305SOL    HW1  938   1.763   1.288   2.533
  305SOL    HW2  939   1.619   1.364   2.550
  306SOL     OW  940   1.390   0.575   1.940
  306SOL    HW1  941   1.336   0.554   2.021
  306SOL    HW2  942   1.481   0.534   1.949
  307SOL     OW  943   0.527   0.256   2.190
  307SOL    HW1  944   0.554   0.197   2.115
  307SOL    HW2  945   0.527   0.351   2.159
  308SOL     OW  946   1.754   1.223   3.450
  308SOL    HW1  947   1.845   1.184   3.437
  308SOL    HW2  948   1.762   1.319   3.474
  309SOL     OW  949   1.064   1.347   3.202
  309SOL    HW1  950   0.984   1.324   3.257
  309SOL    HW2  951   1.147   1.321   3.251
  310SOL     OW  952   1.592   1.629   3.487
  310SOL    HW1  953   1.619   1.663   3.397
  310SOL    HW2  954   1.671   1.591   3.533
  311SOL     OW  955   1.111   1.195   2.962
  311SOL    HW1  956   1.071   1.239   3.043
  311SOL    HW2  957   1.070   1.232   2.879
  312SOL     OW  958   1.638   1.099   2.941
  312SOL    HW1  959   1.643   1.180   3.000
  312SOL    HW2  960   1.552   1.101   2.890
  313SOL     OW  961   0.915   0.089   3.264
  313SOL    HW1  962   0.940   0.069   3.169
  313SOL    HW2  963   0.987   0.145   3.306
  314SOL     OW  964   0.980   1.116   3.581
  314SOL    HW1  965   0.881   1.122   3.591
  314SOL    HW2  966   1.003   1.036   3.525
  315SOL     OW  967   0.705   1.050   2.230
  315SOL    HW1  968   0.691   1.057   2.329
  315SOL    HW2  969   0.789   0.999   2.212
  316SOL     OW  970   0.410   0.813   3.113
  316SOL    HW1  971   0.496   0.825   3.163
  316SOL    HW2  972   0.368   0.726   3.140
  317SOL     OW  973   1.274   0.386   3.124
  317SOL    HW1  974   1.295   0.460   3.188
  317SOL    HW2  975   1.185   0.403   3.081
  318SOL     OW  976   0.064   1.564   3.193
  318SOL    HW1  977   0.018   1.646   3.159
  318SOL    HW2  978   0.162   1.583   3.202
  319SOL     OW  979   0.367   1.100   2.363
  319SOL    HW1  980   0.360   1.183   2.307
  319SOL    HW2  981   0.371   1.020   2.303
  320SOL     OW  982   0.566   0.537   2.727
  320SOL    HW1  983   0.578   0.603   2.653
  320SOL    HW2  984   0.612   0.571   2.810
  321SOL     OW  985   1.252   1.348   2.250
  321SOL    HW1  986   1.302   1.425   2.290
  321SOL    HW2  987   1.157   1.350   2.282
  322SOL     OW  988   1.272   1.445   3.004
  322SOL    HW1  989   1.319   1.458   3.091
  322SOL    HW2  990   1.206   1.371   3.013
  323SOL     OW  991   1.582   0.639   2.334
  323SOL    HW1  992   1.551   0.700   2.407
  323SOL    HW2  993   1.632   0.691   2.265
  324SOL     OW  994   0.354   1.510   3.191
  324SOL    HW1  995   0.333   1.466   3.104
  324SOL    HW2  996   0.451   1.536   3.194
  325SOL     OW  997   0.402   0.751   3.460
  325SOL    HW1  998   0.470   0.806   3.413
  325SOL    HW2  999   0.442   0.663   3.487
  326SOL     OW 1000   1.587   0.779   3.532
  326SOL    HW1 1001   1.495   0.817   3.527
  326SOL    HW2 1002   1.647   0.826   3.467
  327SOL     OW 1003   1.013   0.105   3.632
  327SOL    HW1 1004   1.019   0.190   3.580
  327SOL    HW2 1005   1.045   0.029   3.575
  328SOL     OW 1006   0.504   0.050   3.602
  328SOL    HW1 1007   0.462  -0.007   3.532
  328SOL    HW2 1008   0.438   0.119   3.634
  329SOL     OW 1009   0.573   0.870   2.891
  329SOL    HW1 1010   0.617   0.959   2.882
  329SOL    HW2 1011   0.510   0.870   2.968
  330SOL     OW 1012   1.360   0.862   2.907
  330SOL    HW1 1013   1.285   0.862   2.841
  330SOL    HW2 1014   1.397   0.770   2.916
  331SOL     OW 1015   1.209   0.525   2.137
  331SOL    HW1 1016   1.222   0.441   2.191
  331SOL    HW2 1017   1.180   0.599   2.197
  332SOL     OW 1018   0.307   0.213   3.093
  332SOL    HW1 1019   0.284   0.250   3.183
  332SOL    HW2 1020   0.277   0.118   3.087
  333SOL     OW 1021   0.037   1.310   3.144
  333SOL    HW1 1022   0.090   1.261   3.212
  333SOL    HW2 1023   0.059   1.408   3.149
  334SOL     OW 1024   0.732   0.634   2.926
  334SOL    HW1 1025   0.791   0.608   2.850
  334SOL    HW2 1026   0.704   0.730   2.915
  335SOL     OW 1027   1.728   0.935   3.716
  335SOL    HW1 1028   1.682   0.928   3.627
  335SOL    HW2 1029   1.666   0.979   3.782
  336SOL     OW 1030   0.307   0.063   2.480
  336SOL    HW1 1031   0.296   0.157   2.513
  336SOL    HW2 1032   0.302   0.000   2.557
  337SOL     OW 1033   1.622   0.367   2.236
  337SOL    HW1 1034   1.624   0.291   2.300
  337SOL    HW2 1035   1.574   0.444   2.276
  338SOL     OW 1036   1.023   0.766   2.828
  338SOL    HW1 1037   1.038   0.787   2.924
  338SOL    HW2 1038   0.993   0.671   2.819
  339SOL     OW 1039   0.980   1.573   3.562
  339SOL    HW1 1040   0.960   1.617   3.474
  339SOL    HW2 1041   1.019   1.482   3.546
  340SOL     OW 1042   1.859   1.518   3.467
  340SOL    HW1 1043   1.873   1.545   3.372
  340SOL    HW2 1044   1.942   1.540   3.520
  341SOL     OW 1045   0.350   0.898   3.666
  341SOL    HW1 1046   0.426   0.942   3.714
  341SOL    HW2 1047   0.385   0.851   3.584
  342SOL     OW 1048   1.540   0.274   1.987
  342SOL    HW1 1049   1.479   0.199   2.010
  342SOL    HW2 1050   1.562   0.326   2.070
  343SOL     OW 1051   1.303   0.838   1.904
  343SOL    HW1 1052   1.337   0.745   1.919
  343SOL    HW2 1053   1.321   0.865   1.809
  344SOL     OW 1054   1.068   1.333   2.711
  344SOL    HW1 1055   1.075   1.249   2.656
  344SOL    HW2 1056   1.130   1.402   2.675
  345SOL     OW 1057   0.319   0.810   2.811
  345SOL    HW1 1058   0.412   0.846   2.816
  345SOL    HW2 1059   0.313   0.725   2.863
  346SOL     OW 1060   0.339   0.509   2.868
  346SOL    HW1 1061   0.287   0.426   2.851
  346SOL    HW2 1062   0.416   0.514   2.804
  347SOL     OW 1063   1.138   0.380   3.540
  347SOL    HW1 1064   1.093   0.443   3.604
  347SOL    HW2 1065   1.231   0.411   3.523
  348SOL     OW 1066   1.160   0.207   3.339
  348SOL    HW1 1067   1.160   0.271   3.416
  348SOL    HW2 1068   1.188   0.255   3.256
  349SOL     OW 1069   0.008   1.326   2.062
  349SOL    HW1 1070  -0.085   1.347   2.031
  349SOL    HW2 1071   0.018   1.227   2.075
  350SOL     OW 1072   0.088   1.801   2.789
  350SOL    HW1 1073   0.046   1.715   2.762
  350SOL    HW2 1074   0.182   1.804   2.755
  351SOL     OW 1075   0.504   1.568   2.772
  351SOL    HW1 1076   0.570   1.642   2.781
  351SOL    HW2 1077   0.548   1.489   2.730
  352SOL     OW 1078   1.002   0.796   3.100
  352SOL    HW1 1079   1.043   0.764   3.186
  352SOL    HW2 1080   0.906   0.769   3.097
  353SOL     OW 1081   0.040   0.544   2.976
  353SOL    HW1 1082   0.125   0.511   2.935
  353SOL    HW2 1083   0.053   0.559   3.074
  354SOL     OW 1084   0.189   0.520   3.584
  354SOL    HW1 1085   0.248   0.480   3.514
  354SOL    HW2 1086   0.131   0.591   3.543
  355SOL     OW 1087   1.369   0.950   3.522
  355SOL    HW1 1088   1.408   1.039   3.542
  355SOL    HW2 1089   1.379   0.930   3.425
  356SOL     OW 1090   0.815   0.572   2.187
  356SOL    HW1 1091   0.822   0.483   2.141
  356SOL    HW2 1092   0.721   0.606   2.179
  357SOL     OW 1093   1.657   0.604   3.068
  357SOL    HW1 1094   1.619   0.535   3.130
  357SOL    HW2 1095   1.739   0.568   3.024
  358SOL     OW 1096   0.252   1.564   3.606
  358SOL    HW1 1097   0.222   1.621   3.682
  358SOL    HW2 1098   0.245   1.467   3.632
  359SOL     OW 1099   0.671   0.464   3.131
  359SOL    HW1 1100   0.637   0.375   3.101
  359SOL    HW2 1101   0.697   0.518   3.051
  360SOL     OW 1102   0.930   1.678   3.327
  360SOL    HW1 1103   0.906   1.660   3.232
  360SOL    HW2 1104   0.960   1.772   3.337
  361SOL     OW 1105   0.473   0.500   2.053
  361SOL    HW1 1106   0.534   0.580   2.057
  361SOL    HW2 1107   0.378   0.531   2.060
  362SOL     OW 1108   0.159   1.137   3.328
  362SOL    HW1 1109   0.181   1.076   3.404
  362SOL    HW2 1110   0.169   1.088   3.242
  363SOL     OW 1111   1.347   1.059   3.096
  363SOL    HW1 1112   1.371   0.996   3.022
  363SOL    HW2 1113   1.257   1.099   3.078
  364SOL     OW 1114   1.302   0.855   2.171
  364SOL    HW1 1115   1.216   0.824   2.213
  364SOL    HW2 1116   1.298   0.841   2.072
  365SOL     OW 1117   1.759   1.747   3.016
  365SOL    HW1 1118   1.820   1.777   2.943
  365SOL    HW2 1119   1.721   1.658   2.994
  366SOL     OW 1120   1.252   1.731   2.990
  366SOL    HW1 1121   1.336   1.736   2.936
  366SOL    HW2 1122   1.229   1.635   3.008
  367SOL     OW 1123   0.083   1.258   2.884
  367SOL    HW1 1124   0.078   1.257   2.984
  367SOL    HW2 1125   0.000   1.217   2.846
  368SOL     OW 1126   0.688   1.662   3.578
  368SOL    HW1 1127   0.632   1.743   3.587
  368SOL    HW2 1128   0.740   1.666   3.492
  369SOL     OW 1129   1.726   0.135   2.385
  369SOL    HW1 1130   1.799   0.118   2.318
  369SOL    HW2 1131   1.695   0.048   2.423
  370SOL     OW 1132   1.388   1.573   2.339
  370SOL    HW1 1133   1.455   1.585   2.265
  370SOL    HW2 1134   1.348   1.662   2.362
  371SOL     OW 1135   0.130   1.794   3.713
  371SOL    HW1 1136   0.089   1.720   3.766
  371SOL    HW2 1137   0.194   1.845   3.771
  372SOL     OW 1138   1.280   0.927   2.534
  372SOL    HW1 1139   1.340   0.846   2.536
  372SOL    HW2 1140   1.320   0.996   2.474
  373SOL     OW 1141   0.830   1.273   3.284
  373SOL    HW1 1142   0.825   1.306   3.379
  373SOL    HW2 1143   0.744   1.292   3.238
  374SOL     OW 1144   0.672   1.616   2.016
  374SOL    HW1 1145   0.681   1.626   1.917
  374SOL    HW2 1146   0.632   1.527   2.037
  375SOL     OW 1147   1.650   1.720   3.256
  375SOL    HW1 1148   1.703   1.730   3.172
  375SOL    HW2 1149   1.623   1.810   3.290
  376SOL     OW 1150   1.841   0.175   2.825
  376SOL    HW1 1151   1.880   0.090   2.789
  376SOL    HW2 1152   1.743   0.177   2.806
  377SOL     OW 1153   0.263   0.326   2.582
  377SOL    HW1 1154   0.184   0.377   2.548
  377SOL    HW2 1155   0.254   0.311   2.680
  378SOL     OW 1156   1.194   1.612   1.893
  378SOL    HW1 1157   1.200   1.519   1.930
  378SOL    HW2 1158   1.135   1.612   1.813
  379SOL     OW 1159   0.822   1.002   3.234
  379SOL    HW1 1160   0.862   1.001   3.142
  379SOL    HW2 1161   0.832   1.094   3.274
  380SOL     OW 1162   0.916   0.910   2.153
  380SOL    HW1 1163   0.979   0.948   2.085
  380SOL    HW2 1164   0.956   0.827   2.192
  381SOL     OW 1165   1.504   1.607   1.906
  381SOL    HW1 1166   1.412   1.644   1.913
  381SOL    HW2 1167   1.542   1.627   1.816
  382SOL     OW 1168   0.372   1.288   3.352
  382SOL    HW1 1169   0.359   1.381   3.318
  382SOL    HW2 1170   0.288   1.236   3.339
  383SOL     OW 1171   1.614   1.292   3.151
  383SOL    HW1 1172   1.674   1.295   3.231
  383SOL    HW2 1173   1.539   1.356   3.164
  384SOL     OW 1174   1.039   1.098   2.558
  384SOL    HW1 1175   0.969   1.051   2.612
  384SOL    HW2 1176   1.098   1.030   2.515
  385SOL     OW 1177   1.014   0.236   2.833
  385SOL    HW1 1178   1.006   0.200   2.740
  385SOL    HW2 1179   1.012   0.160   2.898
  386SOL     OW 1180   0.590   1.487   2.353
  386SOL    HW1 1181   0.632   1.429   2.283
  386SOL    HW2 1182   0.546   1.566   2.309
  387SOL     OW 1183   1.709   0.385   3.243
  387SOL    HW1 1184   1.782   0.454   3.247
  387SOL    HW2 1185   1.737   0.310   3.184
  388SOL     OW 1186   0.255   1.348   2.152
  388SOL    HW1 1187   0.159   1.349   2.125
  388SOL    HW2 1188   0.267   1.401   2.236
  389SOL     OW 1189   0.105   1.013   3.588
  389SOL    HW1 1190   0.028   0.980   3.642
  389SOL    HW2 1191   0.190   0.983   3.630
  390SOL     OW 1192   0.672   0.203   3.351
  390SOL    HW1 1193   0.762   0.187   3.311
  390SOL    HW2 1194   0.680   0.208   3.450
  391SOL     OW 1195   0.075   0.345   1.895
  391SOL    HW1 1196  -0.017   0.317   1.866
  391SOL    HW2 1197   0.106   0.422   1.839
  392SOL     OW 1198   1.440   0.856   3.260
  392SOL    HW1 1199   1.383   0.908   3.197
  392SOL    HW2 1200   1.536   0.868   3.236
  393SOL     OW 1201   0.072   0.166   2.180
  393SOL    HW1 1202   0.055   0.249   2.126
  393SOL    HW2 1203   0.162   0.129   2.158
  394SOL     OW 1204   1.183   1.335   1.981
  394SOL    HW1 1205   1.084   1.324   1.983
  394SOL    HW2 1206   1.217   1.350   2.074
  395SOL     OW 1207   0.613   0.842   3.293
  395SOL    HW1 1208   0.669   0.923   3.276
  395SOL    HW2 1209   0.672   0.762   3.296
  396SOL     OW 1210   1.493   1.767   2.821
  396SOL    HW1 1211   1.526   1.831   2.752
  396SOL    HW2 1212   1.559   1.761   2.896
  397SOL     OW 1213   0.716   0.565   3.570
  397SOL    HW1 1214   0.735   0.630   3.644
  397SOL    HW2 1215   0.776   0.485   3.579
  398SOL     OW 1216   1.450   1.220   3.495
  398SOL    HW1 1217   1.441   1.210   3.594
  398SOL    HW2 1218   1.546   1.213   3.469
  399SOL     OW 1219   0.390   1.741   3.422
  399SOL    HW1 1220   0.299   1.782   3.420
  399SOL    HW2 1221   0.383   1.647   3.454
  400SOL     OW 1222   1.674   0.883   3.116
  400SOL    HW1 1223   1.647   0.794   3.079
  400SOL    HW2 1224   1.675   0.951   3.043
  401SOL     OW 1225   1.225   0.325   2.311
  401SOL    HW1 1226   1.290   0.251   2.300
  401SOL    HW2 1227   1.245   0.375   2.395
  402SOL     OW 1228   0.594   0.745   2.514
  402SOL    HW1 1229   0.644   0.830   2.495
  402SOL    HW2 1230   0.506   0.747   2.466
  403SOL     OW 1231   1.777   0.342   3.504
  403SOL    HW1 1232   1.760   0.373   3.410
  403SOL    HW2 1233   1.693   0.305   3.542
  404SOL     OW 1234   1.730   0.934   3.379
  404SOL    HW1 1235   1.768   1.025   3.394
  404SOL    HW2 1236   1.722   0.917   3.280
  405SOL     OW 1237   0.859   1.374   1.878
  405SOL    HW1 1238   0.813   1.389   1.966
  405SOL    HW2 1239   0.903   1.459   1.848
  406SOL     OW 1240   0.661   1.790   2.815
  406SOL    HW1 1241   0.615   1.878   2.802
  406SOL    HW2 1242   0.760   1.802   2.808
  407SOL     OW 1243   0.859   0.956   2.723
  407SOL    HW1 1244   0.913   0.887   2.771
  407SOL    HW2 1245   0.827   1.025   2.789
  408SOL     OW 1246   1.083   0.984   1.949
  408SOL    HW1 1247   1.060   1.037   1.867
  408SOL    HW2 1248   1.164   0.928   1.930
  409SOL     OW 1249   1.861   1.569   2.713
  409SOL    HW1 1250   1.790   1.557   2.643
  409SOL    HW2 1251   1.862   1.490   2.773
  410SOL     OW 1252   0.221   1.314   3.706
  410SOL    HW1 1253   0.156   1.241   3.685
  410SOL    HW2 1254   0.225   1.328   3.804
  411SOL     OW 1255   0.079   1.240   2.515
  411SOL    HW1 1256   0.078   1.193   2.603
  411SOL    HW2 1257   0.161   1.212   2.464
  412SOL     OW 1258   0.672   1.391   3.486
  412SOL    HW1 1259   0.594   1.341   3.524
  412SOL    HW2 1260   0.669   1.486   3.517
  413SOL     OW 1261   1.824   0.192   3.089
  413SOL    HW1 1262   1.820   0.102   3.133
  413SOL    HW2 1263   1.827   0.181   2.990
  414SOL     OW 1264   0.428   0.424   2.382
  414SOL    HW1 1265   0.458   0.352   2.320
  414SOL    HW2 1266   0.389   0.384   2.465
  415SOL     OW 1267   1.705   1.487   2.966
  415SOL    HW1 1268   1.612   1.462   2.939
  415SOL    HW2 1269   1.731   1.437   3.048
  416SOL     OW 1270   0.317   0.547   3.142
  416SOL    HW1 1271   0.355   0.488   3.214
  416SOL    HW2 1272   0.357   0.521   3.054
  417SOL     OW 1273   0.812   1.586   2.549
  417SOL    HW1 1274   0.844   1.596   2.455
  417SOL    HW2 1275   0.733   1.524   2.551
  418SOL     OW 1276   1.424   0.214   2.974
  418SOL    HW1 1277   1.476   0.149   3.029
  418SOL    HW2 1278   1.375   0.277   3.035
  419SOL     OW 1279   1.001   0.034   3.016
  419SOL    HW1 1280   0.938  -0.038   2.985
  419SOL    HW2 1281   1.094  -0.002   3.016
  420SOL     OW 1282   0.770   1.330   2.163
  420SOL    HW1 1283   0.724   1.243   2.180
  420SOL    HW2 1284   0.861   1.327   2.204
  421SOL     OW 1285   0.618   1.567   3.146
  421SOL    HW1 1286   0.613   1.649   3.203
  421SOL    HW2 1287   0.707   1.564   3.101
  422SOL     OW 1288   1.352   0.052   2.030
  422SOL    HW1 1289   1.387   0.011   1.946
  422SOL    HW2 1290   1.262   0.014   2.050
  423SOL     OW 1291   1.300   0.453   2.553
  423SOL    HW1 1292   1.241   0.533   2.557
  423SOL    HW2 1293   1.315   0.418   2.646
  424SOL     OW 1294   1.593   0.221   2.744
  424SOL    HW1 1295   1.509   0.220   2.798
  424SOL    HW2 1296   1.595   0.304   2.688
  425SOL     OW 1297   0.039   1.077   2.162
  425SOL    HW1 1298   0.138   1.066   2.153
  425SOL    HW2 1299  -0.001   0.991   2.194
  426SOL     OW 1300   0.875   1.646   2.199
  426SOL    HW1 1301   0.798   1.611   2.145
  426SOL    HW2 1302   0.843   1.717   2.261
  427SOL     OW 1303   0.230   0.628   3.837
  427SOL    HW1 1304   0.137   0.626   3.874
  427SOL    HW2 1305   0.231   0.589   3.745
  428SOL     OW 1306   0.225   0.275   4.720
  428SOL    HW1 1307   0.260   0.258   4.812
  428SOL    HW2 1308   0.137   0.230   4.708
  429SOL     OW 1309   0.019   0.368   4.371
  429SOL    HW1 1310  -0.063   0.411   4.410
  429SOL    HW2 1311  -0.009   0.295   4.308
  430SOL     OW 1312   1.555   1.511   4.427
  430SOL    HW1 1313   1.498   1.495   4.508
  430SOL    HW2 1314   1.496   1.521   4.347
  431SOL     OW 1315   1.135   0.703   4.441
  431SOL    HW1 1316   1.192   0.781   4.416
  431SOL    HW2 1317   1.075   0.729   4.517
  432SOL     OW 1318   1.755   0.607   3.955
  432SOL    HW1 1319   1.743   0.594   3.856
  432SOL    HW2 1320   1.725   0.526   4.004
  433SOL     OW 1321   0.768   1.144   4.747
  433SOL    HW1 1322   0.690   1.161   4.807
  433SOL    HW2 1323   0.802   1.231   4.711
  434SOL     OW 1324   0.685   1.012   4.389
  434SOL    HW1 1325   0.754   0.996   4.459
  434SOL    HW2 1326   0.612   1.069   4.427
  435SOL     OW 1327   0.335   1.435   4.785
  435SOL    HW1 1328   0.257   1.404   4.732
  435SOL    HW2 1329   0.393   1.493   4.728
  436SOL     OW 1330   1.603   0.447   4.461
  436SOL    HW1 1331   1.529   0.493   4.411
  436SOL    HW2 1332   1.654   0.515   4.514
  437SOL     OW 1333   0.231   1.713   4.207
  437SOL    HW1 1334   0.265   1.790   4.261
  437SOL    HW2 1335   0.275   1.713   4.117
  438SOL     OW 1336   0.230   1.434   4.262
  438SOL    HW1 1337   0.204   1.530   4.262
  438SOL    HW2 1338   0.159   1.380   4.307
  439SOL     OW 1339   0.240   1.091   4.610
  439SOL    HW1 1340   0.254   1.007   4.662
  439SOL    HW2 1341   0.185   1.155   4.665
  440SOL     OW 1342   0.606   0.964   3.847
  440SOL    HW1 1343   0.613   1.048   3.793
  440SOL    HW2 1344   0.652   0.977   3.935
  441SOL     OW 1345   0.122   0.643   4.287
  441SOL    HW1 1346   0.077   0.555   4.304
  441SOL    HW2 1347   0.121   0.697   4.371
  442SOL     OW 1348   1.842   1.767   4.083
  442SOL    HW1 1349   1.896   1.738   4.163
  442SOL    HW2 1350   1.872   1.857   4.054
  443SOL     OW 1351   0.027   1.596   3.841
  443SOL    HW1 1352   0.008   1.500   3.862
  443SOL    HW2 1353  -0.006   1.654   3.916
  444SOL     OW 1354   1.689   0.922   4.336
  444SOL    HW1 1355   1.784   0.893   4.344
  444SOL    HW2 1356   1.681   0.987   4.261
  445SOL     OW 1357   1.641   1.108   4.156
  445SOL    HW1 1358   1.727   1.110   4.104
  445SOL    HW2 1359   1.655   1.155   4.244
  446SOL     OW 1360   0.613   1.365   4.450
  446SOL    HW1 1361   0.564   1.278   4.459
  446SOL    HW2 1362   0.590   1.408   4.363
  447SOL     OW 1363   0.809   0.004   4.226
  447SOL    HW1 1364   0.849   0.095   4.217
  447SOL    HW2 1365   0.709   0.012   4.232
  448SOL     OW 1366   1.525   0.999   3.914
  448SOL    HW1 1367   1.462   0.923   3.927
  448SOL    HW2 1368   1.573   1.017   4.000
  449SOL     OW 1369   1.466   1.417   4.677
  449SOL    HW1 1370   1.407   1.423   4.757
  449SOL    HW2 1371   1.451   1.329   4.631
  450SOL     OW 1372   1.667   1.714   4.296
  450SOL    HW1 1373   1.626   1.691   4.208
  450SOL    HW2 1374   1.649   1.640   4.361
  451SOL     OW 1375   0.598   0.729   3.994
  451SOL    HW1 1376   0.622   0.798   3.926
  451SOL    HW2 1377   0.520   0.762   4.048
  452SOL     OW 1378   1.281   0.345   4.668
  452SOL    HW1 1379   1.195   0.295   4.655
  452SOL    HW2 1380   1.343   0.291   4.724
  453SOL     OW 1381   1.576   1.662   4.031
  453SOL    HW1 1382   1.665   1.708   4.034
  453SOL    HW2 1383   1.555   1.638   3.936
  454SOL     OW 1384   1.041   0.701   4.153
  454SOL    HW1 1385   1.067   0.697   4.249
  454SOL    HW2 1386   0.956   0.650   4.139
  455SOL     OW 1387   0.076   0.811   4.513
  455SOL    HW1 1388   0.175   0.799   4.522
  455SOL    HW2 1389   0.052   0.906   4.534
  456SOL     OW 1390   0.865   0.348   3.919
  456SOL    HW1 1391   0.924   0.411   3.870
  456SOL    HW2 1392   0.884   0.254   3.890
  457SOL     OW 1393   1.362   1.144   4.269
  457SOL    HW1 1394   1.445   1.115   4.221
  457SOL    HW2 1395   1.313   1.211   4.213
  458SOL     OW 1396   0.550   0.196   4.609
  458SOL    HW1 1397   0.545   0.191   4.709
  458SOL    HW2 1398   0.552   0.292   4.580
  459SOL     OW 1399   1.008   1.456   4.201
  459SOL    HW1 1400   0.962   1.528   4.149
  459SOL    HW2 1401   1.004   1.476   4.299
  460SOL     OW 1402   0.351   1.801   4.577
  460SOL    HW1 1403   0.401   1.715   4.583
  460SOL    HW2 1404   0.416   1.878   4.574
  461SOL     OW 1405   1.795   1.066   4.597
  461SOL    HW1 1406   1.733   1.051   4.521
  461SOL    HW2 1407   1.743   1.077   4.682
  462SOL     OW 1408   0.321   0.943   3.966
  462SOL    HW1 1409   0.403   0.982   3.924
  462SOL    HW2 1410   0.294   0.861   3.917
  463SOL     OW 1411   1.458   0.735   4.452
  463SOL    HW1 1412   1.453   0.670   4.527
  463SOL    HW2 1413   1.538   0.794   4.465
  464SOL     OW 1414   1.111   1.776   3.961
  464SOL    HW1 1415   1.051   1.714   4.011
  464SOL    HW2 1416   1.142   1.732   3.876
  465SOL     OW 1417   1.632   1.377   3.805
  465SOL    HW1 1418   1.600   1.471   3.795
  465SOL    HW2 1419   1.556   1.314   3.793
  466SOL     OW 1420   0.464   1.743   4.047
  466SOL    HW1 1421   0.497   1.782   4.133
  466SOL    HW2 1422   0.540   1.736   3.982
  467SOL     OW 1423   1.400   0.107   4.150
  467SOL    HW1 1424   1.376   0.070   4.060
  467SOL    HW2 1425   1.499   0.123   4.154
  468SOL     OW 1426   0.249   1.785   4.965
  468SOL    HW1 1427   0.306   1.720   5.015
  468SOL    HW2 1428   0.233   1.752   4.872
  469SOL     OW 1429   0.940   1.698   4.628
  469SOL    HW1 1430   1.020   1.641   4.649
  469SOL    HW2 1431   0.891   1.658   4.551
  470SOL     OW 1432   0.382   0.700   4.204
  470SOL    HW1 1433   0.427   0.610   4.201
  470SOL    HW2 1434   0.288   0.689   4.237
  471SOL     OW 1435   0.614   0.122   3.841
  471SOL    HW1 1436   0.712   0.100   3.848
  471SOL    HW2 1437   0.583   0.105   3.748
  472SOL     OW 1438   0.803   1.402   4.648
  472SOL    HW1 1439   0.893   1.416   4.606
  472SOL    HW2 1440   0.732   1.404   4.577
  473SOL     OW 1441   0.922   0.503   4.623
  473SOL    HW1 1442   0.897   0.494   4.527
  473SOL    HW2 1443   0.970   0.421   4.654
  474SOL     OW 1444   0.539   0.064   4.236
  474SOL    HW1 1445   0.458   0.065   4.294
  474SOL    HW2 1446   0.542   0.147   4.181
  475SOL     OW 1447   1.434   1.188   3.765
  475SOL    HW1 1448   1.466   1.112   3.822
  475SOL    HW2 1449   1.342   1.215   3.795
  476SOL     OW 1450   0.297   0.035   3.895
  476SOL    HW1 1451   0.346   0.119   3.874
  476SOL    HW2 1452   0.359  -0.030   3.940
  477SOL     OW 1453   0.935   0.236   4.204
  477SOL    HW1 1454   0.887   0.277   4.126
  477SOL    HW2 1455   1.034   0.234   4.185
  478SOL     OW 1456   1.227   1.570   4.517
  478SOL    HW1 1457   1.248   1.644   4.452
  478SOL    HW2 1458   1.295   1.570   4.590
  479SOL     OW 1459   0.459   1.152   4.465
  479SOL    HW1 1460   0.388   1.125   4.530
  479SOL    HW2 1461   0.433   1.124   4.372
  480SOL     OW 1462   1.271   1.797   4.315
  480SOL    HW1 1463   1.315   1.861   4.251
  480SOL    HW2 1464   1.221   1.849   4.385
  481SOL     OW 1465   1.032   0.549   3.740
  481SOL    HW1 1466   0.991   0.631   3.701
  481SOL    HW2 1467   1.096   0.575   3.813
  482SOL     OW 1468   0.866   0.454   4.366
  482SOL    HW1 1469   0.834   0.526   4.304
  482SOL    HW2 1470   0.890   0.373   4.313
  483SOL     OW 1471   1.017   0.039   4.477
  483SOL    HW1 1472   0.945   0.044   4.408
  483SOL    HW2 1473   0.993  -0.030   4.546
  484SOL     OW 1474   1.429   1.173   4.591
  484SOL    HW1 1475   1.374   1.089   4.584
  484SOL    HW2 1476   1.455   1.202   4.499
  485SOL     OW 1477   1.466   0.590   4.716
  485SOL    HW1 1478   1.436   0.495   4.723
  485SOL    HW2 1479   1.539   0.606   4.782
  486SOL     OW 1480   1.857   0.833   4.101
  486SOL    HW1 1481   1.899   0.769   4.165
  486SOL    HW2 1482   1.819   0.782   4.023
  487SOL     OW 1483   0.488   1.385   3.898
  487SOL    HW1 1484   0.401   1.370   3.945
  487SOL    HW2 1485   0.471   1.411   3.803
  488SOL     OW 1486   1.664   1.280   4.381
  488SOL    HW1 1487   1.763   1.288   4.395
  488SOL    HW2 1488   1.619   1.364   4.412
  489SOL     OW 1489   1.390   0.575   3.802
  489SOL    HW1 1490   1.336   0.554   3.883
  489SOL    HW2 1491   1.481   0.534   3.811
  490SOL     OW 1492   0.527   0.256   4.052
  490SOL    HW1 1493   0.554   0.197   3.977
  490SOL    HW2 1494   0.527   0.351   4.021
  491SOL     OW 1495   1.638   1.099   4.803
  491SOL    HW1 1496   1.643   1.180   4.862
  491SOL    HW2 1497   1.552   1.101   4.752
  492SOL     OW 1498   0.705   1.050   4.092
  492SOL    HW1 1499   0.691   1.057   4.191
  492SOL    HW2 1500   0.789   0.999   4.074
  493SOL     OW 1501   0.367   1.100   4.225
  493SOL    HW1 1502   0.360   1.183   4.169
  493SOL    HW2 1503   0.371   1.020   4.165
  494SOL     OW 1504   0.566   0.537   4.589
  494SOL    HW1 1505   0.578   0.603   4.515
  494SOL    HW2 1506   0.612   0.571   4.672
  495SOL     OW 1507   1.252   1.348   4.112
  495SOL    HW1 1508   1.302   1.425   4.152
  495SOL    HW2 1509   1.157   1.350   4.144
  496SOL     OW 1510   1.582   0.639   4.196
  496SOL    HW1 1511   1.551   0.700   4.269
  496SOL    HW2 1512   1.632   0.691   4.127
  497SOL     OW 1513   0.573   0.870   4.753
  497SOL    HW1 1514   0.617   0.959   4.744
  497SOL    HW2 1515   0.510   0.870   4.830
  498SOL     OW 1516   1.209   0.525   3.999
  498SOL    HW1 1517   1.222   0.441   4.053
  498SOL    HW2 1518   1.180   0.599   4.059
  499SOL     OW 1519   0.732   0.634   4.788
  499SOL    HW1 1520   0.791   0.608   4.712
  499SOL    HW2 1521   0.704   0.730   4.777
  500SOL     OW 1522   0.307   0.063   4.342
  500SOL    HW1 1523   0.296   0.157   4.375
  500SOL    HW2 1524   0.302   0.000   4.419
  501SOL     OW 1525   1.622   0.367   4.098
  501SOL    HW1 1526   1.624   0.291   4.162
  501SOL    HW2 1527   1.574   0.444   4.138
  502SOL     OW 1528   1.023   0.766   4.690
  502SOL    HW1 1529   1.038   0.787   4.786
  502SOL    HW2 1530   0.993   0.671   4.681
  503SOL     OW 1531   1.540   0.274   3.849
  503SOL    HW1 1532   1.479   0.199   3.872
  503SOL    HW2 1533   1.562   0.326   3.932
  504SOL     OW 1534   1.303   0.838   3.766
  504SOL    HW1 1535   1.337   0.745   3.781
  504SOL    HW2 1536   1.321   0.865   3.671
  505SOL     OW 1537   1.068   1.333   4.573
  505SOL    HW1 1538   1.075   1.249   4.518
  505SOL    HW2 1539   1.130   1.402   4.537
  506SOL     OW 1540   0.319   0.810   4.673
  506SOL    HW1 1541   0.412   0.846   4.678
  506SOL    HW2 1542   0.313   0.725   4.725
  507SOL     OW 1543   0.339   0.509   4.730
  507SOL    HW1 1544   0.287   0.426   4.713
  507SOL    HW2 1545   0.416   0.514   4.666
  508SOL     OW 1546   0.008   1.326   3.924
  508SOL    HW1 1547  -0.085   1.347   3.893
  508SOL    HW2 1548   0.018   1.227   3.937
  509SOL     OW 1549   0.088   1.801   4.651
  509SOL    HW1 1550   0.046   1.715   4.624
  509SOL    HW2 1551   0.182   1.804   4.617
  510SOL     OW 1552   0.504   1.568   4.634
  510SOL    HW1 1553   0.570   1.642   4.643
  510SOL    HW2 1554   0.548   1.489   4.592
  511SOL     OW 1555   1.002   0.796   4.962
  511SOL    HW1 1556   1.043   0.764   5.048
  511SOL    HW2 1557   0.906   0.769   4.959
  512SOL     OW 1558   0.815   0.572   4.049
  512SOL    HW1 1559   0.822   0.483   4.003
  512SOL    HW2 1560   0.721   0.606   4.041
  513SOL     OW 1561   0.671   0.464   4.993
  513SOL    HW1 1562   0.637   0.375   4.963
  513SOL    HW2 1563   0.697   0.518   4.913
  514SOL     OW 1564   0.473   0.500   3.915
  514SOL    HW1 1565   0.534   0.580   3.919
  514SOL    HW2 1566   0.378   0.531   3.922
  515SOL     OW 1567   1.302   0.855   4.033
  515SOL    HW1 1568   1.216   0.824   4.075
  515SOL    HW2 1569   1.298   0.841   3.934
  516SOL     OW 1570   1.759   1.747   4.878
  516SOL    HW1 1571   1.820   1.777   4.805
  516SOL    HW2 1572   1.721   1.658   4.856
  517SOL     OW 1573   0.083   1.258   4.746
  517SOL    HW1 1574   0.078   1.257   4.846
  517SOL    HW2 1575   0.000   1.217   4.708
  518SOL     OW 1576   1.726   0.135   4.247
  518SOL    HW1 1577   1.799   0.118   4.180
  518SOL    HW2 1578   1.695   0.048   4.285
  519SOL     OW 1579   1.388   1.573   4.201
  519SOL    HW1 1580   1.455   1.585   4.127
  519SOL    HW2 1581   1.348   1.662   4.224
  520SOL     OW 1582   1.280   0.927   4.396
  520SOL    HW1 1583   1.340   0.846   4.398
  520SOL    HW2 1584   1.320   0.996   4.336
  521SOL     OW 1585   0.672   1.616   3.878
  521SOL    HW1 1586   0.681   1.626   3.779
  521SOL    HW2 1587   0.632   1.527   3.899
  522SOL     OW 1588   1.841   0.175   4.687
  522SOL    HW1 1589   1.880   0.090   4.651
  522SOL    HW2 1590   1.743   0.177   4.668
  523SOL     OW 1591   0.263   0.326   4.444
  523SOL    HW1 1592   0.184   0.377   4.410
  523SOL    HW2 1593   0.254   0.311   4.542
  524SOL     OW 1594   1.194   1.612   3.755
  524SOL    HW1 1595   1.200   1.519   3.792
  524SOL    HW2 1596   1.135   1.612   3.675
  525SOL     OW 1597   0.916   0.910   4.015
  525SOL    HW1 1598   0.979   0.948   3.947
  525SOL    HW2 1599   0.956   0.827   4.054
  526SOL     OW 1600   1.504   1.607   3.768
  526SOL    HW1 1601   1.412   1.644   3.775
  526SOL    HW2 1602   1.542   1.627   3.678
  527SOL     OW 1603   1.039   1.098   4.420
  527SOL    HW1 1604   0.969   1.051   4.474
  527SOL    HW2 1605   1.098   1.030   4.377
  528SOL     OW 1606   1.014   0.236   4.695
  528SOL    HW1 1607   1.006   0.200   4.602
  528SOL    HW2 1608   1.012   0.160   4.760
  529SOL     OW 1609   0.590   1.487   4.215
  529SOL    HW1 1610   0.632   1.429   4.145
  529SOL    HW2 1611   0.546   1.566   4.171
  530SOL     OW 1612   0.255   1.348   4.014
  530SOL    HW1 1613   0.159   1.349   3.987
  530SOL    HW2 1614   0.267   1.401   4.098
  531SOL     OW 1615   0.075   0.345   3.757
  531SOL    HW1 1616  -0.017   0.317   3.728
  531SOL    HW2 1617   0.106   0.422   3.701
  532SOL     OW 1618   0.072   0.166   4.042
  532SOL    HW1 1619   0.055   0.249   3.988
  532SOL    HW2 1620   0.162   0.129   4.020
  533SOL     OW 1621   1.183   1.335   3.843
  533SOL    HW1 1622   1.084   1.324   3.845
  533SOL    HW2 1623   1.217   1.350   3.936
  534SOL     OW 1624   1.493   1.767   4.683
  534SOL    HW1 1625   1.526   1.831   4.614
  534SOL    HW2 1626   1.559   1.761   4.758
  535SOL     OW 1627   1.674   0.883   4.978
  535SOL    HW1 1628   1.647   0.794   4.941
  535SOL    HW2 1629   1.675   0.951   4.905
  536SOL     OW 1630   1.225   0.325   4.173
  536SOL    HW1 1631   1.290   0.251   4.162
  536SOL    HW2 1632   1.245   0.375   4.257
  537SOL     OW 1633   0.594   0.745   4.376
  537SOL    HW1 1634   0.644   0.830   4.357
  537SOL    HW2 1635   0.506   0.747   4.328
  538SOL     OW 1636   0.859   1.374   3.740
  538SOL    HW1 1637   0.813   1.389   3.828
  538SOL    HW2 1638   0.903   1.459   3.710
  539SOL     OW 1639   0.661   1.790   4.677
  539SOL    HW1 1640   0.615   1.878   4.664
  539SOL    HW2 1641   0.760   1.802   4.670
  540SOL     OW 1642   0.859   0.956   4.585
  540SOL    HW1 1643   0.913   0.887   4.633
  540SOL    HW2 1644   0.827   1.025   4.651
  541SOL     OW 1645   1.083   0.984   3.811
  541SOL    HW1 1646   1.060   1.037   3.729
  541SOL    HW2 1647   1.164   0.928   3.792
  542SOL     OW 1648   1.861   1.569   4.575
  542SOL    HW1 1649   1.790   1.557   4.505
  542SOL    HW2 1650   1.862   1.490   4.635
  543SOL     OW 1651   0.079   1.240   4.377
  543SOL    HW1 1652   0.078   1.193   4.465
  543SOL    HW2 1653   0.161   1.212   4.326
  544SOL     OW 1654   1.824   0.192   4.951
  544SOL    HW1 1655   1.820   0.102   4.995
  544SOL    HW2 1656   1.827   0.181   4.852
  545SOL     OW 1657   0.428   0.424   4.244
  545SOL    HW1 1658   0.458   0.352   4.182
  545SOL    HW2 1659   0.389   0.384   4.327
  546SOL     OW 1660   0.812   1.586   4.411
  546SOL    HW1 1661   0.844   1.596   4.317
  546SOL    HW2 1662   0.733   1.524   4.413
  547SOL     OW 1663   0.770   1.330   4.025
  547SOL    HW1 1664   0.724   1.243   4.042
  547SOL    HW2 1665   0.861   1.327   4.066
  548SOL     OW 1666   1.352   0.052   3.892
  548SOL    HW1 1667   1.387   0.011   3.808
  548SOL    HW2 1668   1.262   0.014   3.912
  549SOL     OW 1669   1.300   0.453   4.415
  549SOL    HW1 1670   1.241   0.533   4.419
  549SOL    HW2 1671   1.315   0.418   4.508
  550SOL     OW 1672   1.593   0.221   4.606
  550SOL    HW1 1673   1.509   0.220   4.660
  550SOL    HW2 1674   1.595   0.304   4.550
  551SOL     OW 1675   0.039   1.077   4.024
  551SOL    HW1 1676   0.138   1.066   4.015
  551SOL    HW2 1677  -0.001   0.991   4.056
  552SOL     OW 1678   0.875   1.646   4.061
  552SOL    HW1 1679   0.798   1.611   4.007
  552SOL    HW2 1680   0.843   1.717   4.123
  553SOL     OW 1681   0.230   2.490   0.113
  553SOL    HW1 1682   0.137   2.488   0.150
  553SOL    HW2 1683   0.231   2.451   0.021
  554SOL     OW 1684   0.225   2.137   0.996
  554SOL    HW1 1685   0.260   2.120   1.088
  554SOL    HW2 1686   0.137   2.092   0.984
  555SOL     OW 1687   0.019   2.230   0.647
  555SOL    HW1 1688  -0.063   2.273   0.686
  555SOL    HW2 1689  -0.009   2.157   0.584
  556SOL     OW 1690   0.569   3.137   1.165
  556SOL    HW1 1691   0.476   3.130   1.128
  556SOL    HW2 1692   0.580   3.226   1.209
  557SOL     OW 1693   1.555   3.373   0.703
  557SOL    HW1 1694   1.498   3.357   0.784
  557SOL    HW2 1695   1.496   3.383   0.623
  558SOL     OW 1696   1.135   2.565   0.717
  558SOL    HW1 1697   1.192   2.643   0.692
  558SOL    HW2 1698   1.075   2.591   0.793
  559SOL     OW 1699   1.755   2.469   0.231
  559SOL    HW1 1700   1.743   2.456   0.132
  559SOL    HW2 1701   1.725   2.388   0.280
  560SOL     OW 1702   0.768   3.006   1.023
  560SOL    HW1 1703   0.690   3.023   1.083
  560SOL    HW2 1704   0.802   3.093   0.987
  561SOL     OW 1705   0.850   2.660   1.823
  561SOL    HW1 1706   0.846   2.736   1.888
  561SOL    HW2 1707   0.872   2.696   1.732
  562SOL     OW 1708   0.685   2.874   0.665
  562SOL    HW1 1709   0.754   2.858   0.735
  562SOL    HW2 1710   0.612   2.931   0.703
  563SOL     OW 1711   0.686   3.023   1.803
  563SOL    HW1 1712   0.746   3.102   1.817
  563SOL    HW2 1713   0.600   3.054   1.762
  564SOL     OW 1714   0.335   3.297   1.061
  564SOL    HW1 1715   0.257   3.266   1.008
  564SOL    HW2 1716   0.393   3.355   1.004
  565SOL     OW 1717   1.460   3.367   1.339
  565SOL    HW1 1718   1.484   3.461   1.365
  565SOL    HW2 1719   1.444   3.313   1.421
  566SOL     OW 1720   0.438   2.254   1.499
  566SOL    HW1 1721   0.520   2.198   1.508
  566SOL    HW2 1722   0.357   2.196   1.503
  567SOL     OW 1723   1.603   2.309   0.737
  567SOL    HW1 1724   1.529   2.355   0.687
  567SOL    HW2 1725   1.654   2.377   0.790
  568SOL     OW 1726   0.231   3.575   0.483
  568SOL    HW1 1727   0.265   3.652   0.537
  568SOL    HW2 1728   0.275   3.575   0.393
  569SOL     OW 1729   1.127   3.203   1.690
  569SOL    HW1 1730   1.174   3.203   1.778
  569SOL    HW2 1731   1.079   3.116   1.679
  570SOL     OW 1732   0.230   3.296   0.538
  570SOL    HW1 1733   0.204   3.392   0.538
  570SOL    HW2 1734   0.159   3.242   0.583
  571SOL     OW 1735   0.240   2.953   0.886
  571SOL    HW1 1736   0.254   2.869   0.938
  571SOL    HW2 1737   0.185   3.017   0.941
  572SOL     OW 1738   0.620   3.648   1.439
  572SOL    HW1 1739   0.528   3.631   1.474
  572SOL    HW2 1740   0.648   3.740   1.465
  573SOL     OW 1741   0.606   2.826   0.123
  573SOL    HW1 1742   0.613   2.910   0.069
  573SOL    HW2 1743   0.652   2.839   0.211
  574SOL     OW 1744   1.594   1.976   1.480
  574SOL    HW1 1745   1.576   2.043   1.408
  574SOL    HW2 1746   1.591   2.022   1.569
  575SOL     OW 1747   0.122   2.505   0.563
  575SOL    HW1 1748   0.077   2.417   0.580
  575SOL    HW2 1749   0.121   2.559   0.647
  576SOL     OW 1750   1.842   3.629   0.359
  576SOL    HW1 1751   1.896   3.600   0.439
  576SOL    HW2 1752   1.872   3.719   0.330
  577SOL     OW 1753   0.027   3.458   0.117
  577SOL    HW1 1754   0.008   3.362   0.138
  577SOL    HW2 1755  -0.006   3.516   0.192
  578SOL     OW 1756   1.689   2.784   0.612
  578SOL    HW1 1757   1.784   2.755   0.620
  578SOL    HW2 1758   1.681   2.849   0.537
  579SOL     OW 1759   1.641   2.970   0.432
  579SOL    HW1 1760   1.727   2.972   0.380
  579SOL    HW2 1761   1.655   3.017   0.520
  580SOL     OW 1762   0.113   2.599   1.597
  580SOL    HW1 1763   0.201   2.586   1.642
  580SOL    HW2 1764   0.100   2.696   1.575
  581SOL     OW 1765   0.613   3.227   0.726
  581SOL    HW1 1766   0.564   3.140   0.735
  581SOL    HW2 1767   0.590   3.270   0.639
  582SOL     OW 1768   1.293   3.090   1.423
  582SOL    HW1 1769   1.330   3.017   1.365
  582SOL    HW2 1770   1.345   3.095   1.508
  583SOL     OW 1771   0.809   1.866   0.502
  583SOL    HW1 1772   0.849   1.957   0.493
  583SOL    HW2 1773   0.709   1.874   0.508
  584SOL     OW 1774   0.197   2.838   1.264
  584SOL    HW1 1775   0.286   2.793   1.250
  584SOL    HW2 1776   0.124   2.773   1.245
  585SOL     OW 1777   1.525   2.861   0.190
  585SOL    HW1 1778   1.462   2.785   0.203
  585SOL    HW2 1779   1.573   2.879   0.276
  586SOL     OW 1780   1.187   3.654   1.616
  586SOL    HW1 1781   1.211   3.714   1.540
  586SOL    HW2 1782   1.194   3.559   1.586
  587SOL     OW 1783   0.317   2.113   1.801
  587SOL    HW1 1784   0.388   2.184   1.807
  587SOL    HW2 1785   0.229   2.152   1.829
  588SOL     OW 1786   1.466   3.279   0.953
  588SOL    HW1 1787   1.407   3.285   1.033
  588SOL    HW2 1788   1.451   3.191   0.907
  589SOL     OW 1789   1.667   3.576   0.572
  589SOL    HW1 1790   1.626   3.553   0.484
  589SOL    HW2 1791   1.649   3.502   0.637
  590SOL     OW 1792   0.598   2.591   0.270
  590SOL    HW1 1793   0.622   2.660   0.202
  590SOL    HW2 1794   0.520   2.624   0.324
  591SOL     OW 1795   1.281   2.207   0.944
  591SOL    HW1 1796   1.195   2.157   0.931
  591SOL    HW2 1797   1.343   2.153   1.000
  592SOL     OW 1798   1.576   3.524   0.307
  592SOL    HW1 1799   1.665   3.570   0.310
  592SOL    HW2 1800   1.555   3.500   0.212
  593SOL     OW 1801   0.807   2.467   1.465
  593SOL    HW1 1802   0.760   2.464   1.554
  593SOL    HW2 1803   0.756   2.412   1.399
  594SOL     OW 1804   1.394   2.331   1.674
  594SOL    HW1 1805   1.374   2.374   1.762
  594SOL    HW2 1806   1.472   2.269   1.683
  595SOL     OW 1807   0.973   2.752   1.572
  595SOL    HW1 1808   1.019   2.668   1.543
  595SOL    HW2 1809   0.917   2.786   1.497
  596SOL     OW 1810   0.991   2.272   1.242
  596SOL    HW1 1811   0.914   2.306   1.296
  596SOL    HW2 1812   0.957   2.221   1.163
  597SOL     OW 1813   1.041   2.563   0.429
  597SOL    HW1 1814   1.067   2.559   0.525
  597SOL    HW2 1815   0.956   2.512   0.415
  598SOL     OW 1816   0.076   2.673   0.789
  598SOL    HW1 1817   0.175   2.661   0.798
  598SOL    HW2 1818   0.052   2.768   0.810
  599SOL     OW 1819   0.130   3.683   1.571
  599SOL    HW1 1820   0.120   3.668   1.670
  599SOL    HW2 1821   0.044   3.719   1.535
  600SOL     OW 1822   0.865   2.210   0.195
  600SOL    HW1 1823   0.924   2.273   0.146
  600SOL    HW2 1824   0.884   2.116   0.166
  601SOL     OW 1825   1.719   2.447   1.831
  601SOL    HW1 1826   1.693   2.536   1.795
  601SOL    HW2 1827   1.717   2.379   1.758
  602SOL     OW 1828   1.362   3.006   0.545
  602SOL    HW1 1829   1.445   2.977   0.497
  602SOL    HW2 1830   1.313   3.073   0.489
  603SOL     OW 1831   0.550   2.058   0.885
  603SOL    HW1 1832   0.545   2.053   0.985
  603SOL    HW2 1833   0.552   2.154   0.856
  604SOL     OW 1834   1.008   3.318   0.477
  604SOL    HW1 1835   0.962   3.390   0.425
  604SOL    HW2 1836   1.004   3.338   0.575
  605SOL     OW 1837   0.351   3.663   0.853
  605SOL    HW1 1838   0.401   3.577   0.859
  605SOL    HW2 1839   0.416   3.740   0.850
  606SOL     OW 1840   1.795   2.928   0.873
  606SOL    HW1 1841   1.733   2.913   0.797
  606SOL    HW2 1842   1.743   2.939   0.958
  607SOL     OW 1843   1.227   3.412   1.506
  607SOL    HW1 1844   1.233   3.335   1.570
  607SOL    HW2 1845   1.175   3.386   1.426
  608SOL     OW 1846   0.321   2.805   0.242
  608SOL    HW1 1847   0.403   2.844   0.200
  608SOL    HW2 1848   0.294   2.723   0.193
  609SOL     OW 1849   1.458   2.597   0.728
  609SOL    HW1 1850   1.453   2.532   0.803
  609SOL    HW2 1851   1.538   2.656   0.741
  610SOL     OW 1852   0.461   3.128   1.727
  610SOL    HW1 1853   0.411   3.129   1.641
  610SOL    HW2 1854   0.398   3.110   1.803
  611SOL     OW 1855   1.111   3.638   0.237
  611SOL    HW1 1856   1.051   3.576   0.287
  611SOL    HW2 1857   1.142   3.594   0.152
  612SOL     OW 1858   0.202   2.147   1.498
  612SOL    HW1 1859   0.122   2.207   1.485
  612SOL    HW2 1860   0.192   2.098   1.584
  613SOL     OW 1861   1.632   3.239   0.081
  613SOL    HW1 1862   1.600   3.333   0.071
  613SOL    HW2 1863   1.556   3.176   0.069
  614SOL     OW 1864   0.464   3.605   0.323
  614SOL    HW1 1865   0.497   3.644   0.409
  614SOL    HW2 1866   0.540   3.598   0.258
  615SOL     OW 1867   1.400   1.969   0.426
  615SOL    HW1 1868   1.376   1.932   0.336
  615SOL    HW2 1869   1.499   1.985   0.430
  616SOL     OW 1870   0.249   3.647   1.241
  616SOL    HW1 1871   0.306   3.582   1.291
  616SOL    HW2 1872   0.233   3.614   1.148
  617SOL     OW 1873   0.940   3.560   0.904
  617SOL    HW1 1874   1.020   3.503   0.925
  617SOL    HW2 1875   0.891   3.520   0.827
  618SOL     OW 1876   0.382   2.562   0.480
  618SOL    HW1 1877   0.427   2.472   0.477
  618SOL    HW2 1878   0.288   2.551   0.513
  619SOL     OW 1879   1.547   2.084   1.729
  619SOL    HW1 1880   1.542   2.121   1.821
  619SOL    HW2 1881   1.475   2.015   1.717
  620SOL     OW 1882   0.614   1.984   0.117
  620SOL    HW1 1883   0.712   1.962   0.124
  620SOL    HW2 1884   0.583   1.967   0.024
  621SOL     OW 1885   0.781   2.126   1.749
  621SOL    HW1 1886   0.848   2.065   1.792
  621SOL    HW2 1887   0.708   2.145   1.814
  622SOL     OW 1888   0.888   3.376   1.195
  622SOL    HW1 1889   0.865   3.351   1.101
  622SOL    HW2 1890   0.949   3.307   1.234
  623SOL     OW 1891   1.351   2.452   1.433
  623SOL    HW1 1892   1.379   2.409   1.518
  623SOL    HW2 1893   1.376   2.548   1.434
  624SOL     OW 1894   0.803   3.264   0.924
  624SOL    HW1 1895   0.893   3.278   0.882
  624SOL    HW2 1896   0.732   3.266   0.853
  625SOL     OW 1897   0.922   2.365   0.899
  625SOL    HW1 1898   0.897   2.356   0.803
  625SOL    HW2 1899   0.970   2.283   0.930
  626SOL     OW 1900   0.539   1.926   0.512
  626SOL    HW1 1901   0.458   1.927   0.570
  626SOL    HW2 1902   0.542   2.009   0.457
  627SOL     OW 1903   1.434   3.050   0.041
  627SOL    HW1 1904   1.466   2.974   0.098
  627SOL    HW2 1905   1.342   3.077   0.071
  628SOL     OW 1906   0.935   2.098   0.480
  628SOL    HW1 1907   0.887   2.139   0.402
  628SOL    HW2 1908   1.034   2.096   0.461
  629SOL     OW 1909   1.076   2.545   1.464
  629SOL    HW1 1910   0.996   2.484   1.467
  629SOL    HW2 1911   1.157   2.492   1.440
  630SOL     OW 1912   1.227   3.432   0.793
  630SOL    HW1 1913   1.248   3.506   0.728
  630SOL    HW2 1914   1.295   3.432   0.866
  631SOL     OW 1915   0.459   3.014   0.741
  631SOL    HW1 1916   0.388   2.987   0.806
  631SOL    HW2 1917   0.433   2.986   0.648
  632SOL     OW 1918   1.271   3.659   0.591
  632SOL    HW1 1919   1.315   3.723   0.527
  632SOL    HW2 1920   1.221   3.711   0.661
  633SOL     OW 1921   1.032   2.411   0.016
  633SOL    HW1 1922   0.991   2.493  -0.023
  633SOL    HW2 1923   1.096   2.437   0.089
  634SOL     OW 1924   0.078   2.418   1.386
  634SOL    HW1 1925   0.170   2.417   1.345
  634SOL    HW2 1926   0.072   2.492   1.453
  635SOL     OW 1927   0.561   2.084   1.147
  635SOL    HW1 1928   0.599   2.000   1.184
  635SOL    HW2 1929   0.473   2.103   1.191
  636SOL     OW 1930   0.866   2.316   0.642
  636SOL    HW1 1931   0.834   2.388   0.580
  636SOL    HW2 1932   0.890   2.235   0.589
  637SOL     OW 1933   1.017   1.901   0.753
  637SOL    HW1 1934   0.945   1.906   0.684
  637SOL    HW2 1935   0.993   1.832   0.822
  638SOL     OW 1936   1.429   3.035   0.867
  638SOL    HW1 1937   1.374   2.951   0.860
  638SOL    HW2 1938   1.455   3.064   0.775
  639SOL     OW 1939   1.466   2.452   0.992
  639SOL    HW1 1940   1.436   2.357   0.999
  639SOL    HW2 1941   1.539   2.468   1.058
  640SOL     OW 1942   1.857   2.695   0.377
  640SOL    HW1 1943   1.899   2.631   0.441
  640SOL    HW2 1944   1.819   2.644   0.299
  641SOL     OW 1945   0.488   3.247   0.174
  641SOL    HW1 1946   0.401   3.232   0.221
  641SOL    HW2 1947   0.471   3.273   0.079
  642SOL     OW 1948   1.664   3.142   0.657
  642SOL    HW1 1949   1.763   3.150   0.671
  642SOL    HW2 1950   1.619   3.226   0.688
  643SOL     OW 1951   1.390   2.437   0.078
  643SOL    HW1 1952   1.336   2.416   0.159
  643SOL    HW2 1953   1.481   2.396   0.087
  644SOL     OW 1954   0.527   2.118   0.328
  644SOL    HW1 1955   0.554   2.059   0.253
  644SOL    HW2 1956   0.527   2.213   0.297
  645SOL     OW 1957   1.754   3.085   1.588
  645SOL    HW1 1958   1.845   3.046   1.575
  645SOL    HW2 1959   1.762   3.181   1.612
  646SOL     OW 1960   1.064   3.209   1.340
  646SOL    HW1 1961   0.984   3.186   1.395
  646SOL    HW2 1962   1.147   3.183   1.389
  647SOL     OW 1963   1.592   3.491   1.625
  647SOL    HW1 1964   1.619   3.525   1.535
  647SOL    HW2 1965   1.671   3.453   1.671
  648SOL     OW 1966   1.111   3.057   1.100
  648SOL    HW1 1967   1.071   3.101   1.181
  648SOL    HW2 1968   1.070   3.094   1.017
  649SOL     OW 1969   1.638   2.961   1.079
  649SOL    HW1 1970   1.643   3.042   1.138
  649SOL    HW2 1971   1.552   2.963   1.028
  650SOL     OW 1972   0.915   1.951   1.402
  650SOL    HW1 1973   0.940   1.931   1.307
  650SOL    HW2 1974   0.987   2.007   1.444
  651SOL     OW 1975   0.980   2.978   1.719
  651SOL    HW1 1976   0.881   2.984   1.729
  651SOL    HW2 1977   1.003   2.898   1.663
  652SOL     OW 1978   0.705   2.912   0.368
  652SOL    HW1 1979   0.691   2.919   0.467
  652SOL    HW2 1980   0.789   2.861   0.350
  653SOL     OW 1981   0.410   2.675   1.251
  653SOL    HW1 1982   0.496   2.687   1.301
  653SOL    HW2 1983   0.368   2.588   1.278
  654SOL     OW 1984   1.274   2.248   1.262
  654SOL    HW1 1985   1.295   2.322   1.326
  654SOL    HW2 1986   1.185   2.265   1.219
  655SOL     OW 1987   0.064   3.426   1.331
  655SOL    HW1 1988   0.018   3.508   1.297
  655SOL    HW2 1989   0.162   3.445   1.340
  656SOL     OW 1990   0.367   2.962   0.501
  656SOL    HW1 1991   0.360   3.045   0.445
  656SOL    HW2 1992   0.371   2.882   0.441
  657SOL     OW 1993   0.566   2.399   0.865
  657SOL    HW1 1994   0.578   2.465   0.791
  657SOL    HW2 1995   0.612   2.433   0.948
  658SOL     OW 1996   1.252   3.210   0.388
  658SOL    HW1 1997   1.302   3.287   0.428
  658SOL    HW2 1998   1.157   3.212   0.420
  659SOL     OW 1999   1.272   3.307   1.142
  659SOL    HW1 2000   1.319   3.320   1.229
  659SOL    HW2 2001   1.206   3.233   1.151
  660SOL     OW 2002   1.582   2.501   0.472
  660SOL    HW1 2003   1.551   2.562   0.545
  660SOL    HW2 2004   1.632   2.553   0.403
  661SOL     OW 2005   0.354   3.372   1.329
  661SOL    HW1 2006   0.333   3.328   1.242
  661SOL    HW2 2007   0.451   3.398   1.332
  662SOL     OW 2008   0.402   2.613   1.598
  662SOL    HW1 2009   0.470   2.668   1.551
  662SOL    HW2 2010   0.442   2.525   1.625
  663SOL     OW 2011   1.587   2.641   1.670
  663SOL    HW1 2012   1.495   2.679   1.665
  663SOL    HW2 2013   1.647   2.688   1.605
  664SOL     OW 2014   1.013   1.967   1.770
  664SOL    HW1 2015   1.019   2.052   1.718
  664SOL    HW2 2016   1.045   1.891   1.713
  665SOL     OW 2017   0.504   1.912   1.740
  665SOL    HW1 2018   0.462   1.855   1.670
  665SOL    HW2 2019   0.438   1.981   1.772
  666SOL     OW 2020   0.573   2.732   1.029
  666SOL    HW1 2021   0.617   2.821   1.020
  666SOL    HW2 2022   0.510   2.732   1.106
  667SOL     OW 2023   1.360   2.724   1.045
  667SOL    HW1 2024   1.285   2.724   0.979
  667SOL    HW2 2025   1.397   2.632   1.054
  668SOL     OW 2026   1.209   2.387   0.275
  668SOL    HW1 2027   1.222   2.303   0.329
  668SOL    HW2 2028   1.180   2.461   0.335
  669SOL     OW 2029   0.307   2.075   1.231
  669SOL    HW1 2030   0.284   2.112   1.321
  669SOL    HW2 2031   0.277   1.980   1.225
  670SOL     OW 2032   0.037   3.172   1.282
  670SOL    HW1 2033   0.090   3.123   1.350
  670SOL    HW2 2034   0.059   3.270   1.287
  671SOL     OW 2035   0.732   2.496   1.064
  671SOL    HW1 2036   0.791   2.470   0.988
  671SOL    HW2 2037   0.704   2.592   1.053
  672SOL     OW 2038   1.728   2.797   1.854
  672SOL    HW1 2039   1.682   2.790   1.765
  672SOL    HW2 2040   1.666   2.841   1.920
  673SOL     OW 2041   0.307   1.925   0.618
  673SOL    HW1 2042   0.296   2.019   0.651
  673SOL    HW2 2043   0.302   1.862   0.695
  674SOL     OW 2044   1.622   2.229   0.374
  674SOL    HW1 2045   1.624   2.153   0.438
  674SOL    HW2 2046   1.574   2.306   0.414
  675SOL     OW 2047   1.023   2.628   0.966
  675SOL    HW1 2048   1.038   2.649   1.062
  675SOL    HW2 2049   0.993   2.533   0.957
  676SOL     OW 2050   0.980   3.435   1.700
  676SOL    HW1 2051   0.960   3.479   1.612
  676SOL    HW2 2052   1.019   3.344   1.684
  677SOL     OW 2053   1.859   3.380   1.605
  677SOL    HW1 2054   1.873   3.407   1.510
  677SOL    HW2 2055   1.942   3.402   1.658
  678SOL     OW 2056   0.350   2.760   1.804
  678SOL    HW1 2057   0.426   2.804   1.852
  678SOL    HW2 2058   0.385   2.713   1.722
  679SOL     OW 2059   1.540   2.136   0.125
  679SOL    HW1 2060   1.479   2.061   0.148
  679SOL    HW2 2061   1.562   2.188   0.208
  680SOL     OW 2062   1.303   2.700   0.042
  680SOL    HW1 2063   1.337   2.607   0.057
  680SOL    HW2 2064   1.321   2.727  -0.053
  681SOL     OW 2065   1.068   3.195   0.849
  681SOL    HW1 2066   1.075   3.111   0.794
  681SOL    HW2 2067   1.130   3.264   0.813
  682SOL     OW 2068   0.319   2.672   0.949
  682SOL    HW1 2069   0.412   2.708   0.954
  682SOL    HW2 2070   0.313   2.587   1.001
  683SOL     OW 2071   0.339   2.371   1.006
  683SOL    HW1 2072   0.287   2.288   0.989
  683SOL    HW2 2073   0.416   2.376   0.942
  684SOL     OW 2074   1.138   2.242   1.678
  684SOL    HW1 2075   1.093   2.305   1.742
  684SOL    HW2 2076   1.231   2.273   1.661
  685SOL     OW 2077   1.160   2.069   1.477
  685SOL    HW1 2078   1.160   2.133   1.554
  685SOL    HW2 2079   1.188   2.117   1.394
  686SOL     OW 2080   0.008   3.188   0.200
  686SOL    HW1 2081  -0.085   3.209   0.169
  686SOL    HW2 2082   0.018   3.089   0.213
  687SOL     OW 2083   0.088   3.663   0.927
  687SOL    HW1 2084   0.046   3.577   0.900
  687SOL    HW2 2085   0.182   3.666   0.893
  688SOL     OW 2086   0.504   3.430   0.910
  688SOL    HW1 2087   0.570   3.504   0.919
  688SOL    HW2 2088   0.548   3.351   0.868
  689SOL     OW 2089   1.002   2.658   1.238
  689SOL    HW1 2090   1.043   2.626   1.324
  689SOL    HW2 2091   0.906   2.631   1.235
  690SOL     OW 2092   0.040   2.406   1.114
  690SOL    HW1 2093   0.125   2.373   1.073
  690SOL    HW2 2094   0.053   2.421   1.212
  691SOL     OW 2095   0.189   2.382   1.722
  691SOL    HW1 2096   0.248   2.342   1.652
  691SOL    HW2 2097   0.131   2.453   1.681
  692SOL     OW 2098   1.369   2.812   1.660
  692SOL    HW1 2099   1.408   2.901   1.680
  692SOL    HW2 2100   1.379   2.792   1.563
  693SOL     OW 2101   0.815   2.434   0.325
  693SOL    HW1 2102   0.822   2.345   0.279
  693SOL    HW2 2103   0.721   2.468   0.317
  694SOL     OW 2104   1.657   2.466   1.206
  694SOL    HW1 2105   1.619   2.397   1.268
  694SOL    HW2 2106   1.739   2.430   1.162
  695SOL     OW 2107   0.252   3.426   1.744
  695SOL    HW1 2108   0.222   3.483   1.820
  695SOL    HW2 2109   0.245   3.329   1.770
  696SOL     OW 2110   0.671   2.326   1.269
  696SOL    HW1 2111   0.637   2.237   1.239
  696SOL    HW2 2112   0.697   2.380   1.189
  697SOL     OW 2113   0.930   3.540   1.465
  697SOL    HW1 2114   0.906   3.522   1.370
  697SOL    HW2 2115   0.960   3.634   1.475
  698SOL     OW 2116   0.473   2.362   0.191
  698SOL    HW1 2117   0.534   2.442   0.195
  698SOL    HW2 2118   0.378   2.393   0.198
  699SOL     OW 2119   0.159   2.999   1.466
  699SOL    HW1 2120   0.181   2.938   1.542
  699SOL    HW2 2121   0.169   2.950   1.380
  700SOL     OW 2122   1.347   2.921   1.234
  700SOL    HW1 2123   1.371   2.858   1.160
  700SOL    HW2 2124   1.257   2.961   1.216
  701SOL     OW 2125   1.302   2.717   0.309
  701SOL    HW1 2126   1.216   2.686   0.351
  701SOL    HW2 2127   1.298   2.703   0.210
  702SOL     OW 2128   1.759   3.609   1.154
  702SOL    HW1 2129   1.820   3.639   1.081
  702SOL    HW2 2130   1.721   3.520   1.132
  703SOL     OW 2131   1.252   3.593   1.128
  703SOL    HW1 2132   1.336   3.598   1.074
  703SOL    HW2 2133   1.229   3.497   1.146
  704SOL     OW 2134   0.083   3.120   1.022
  704SOL    HW1 2135   0.078   3.119   1.122
  704SOL    HW2 2136   0.000   3.079   0.984
  705SOL     OW 2137   0.688   3.524   1.716
  705SOL    HW1 2138   0.632   3.605   1.725
  705SOL    HW2 2139   0.740   3.528   1.630
  706SOL     OW 2140   0.903   1.948   0.133
  706SOL    HW1 2141   0.954   1.949   0.047
  706SOL    HW2 2142   0.959   1.906   0.204
  707SOL     OW 2143   1.726   1.997   0.523
  707SOL    HW1 2144   1.799   1.980   0.456
  707SOL    HW2 2145   1.695   1.910   0.561
  708SOL     OW 2146   1.388   3.435   0.477
  708SOL    HW1 2147   1.455   3.447   0.403
  708SOL    HW2 2148   1.348   3.524   0.500
  709SOL     OW 2149   0.130   3.656   1.851
  709SOL    HW1 2150   0.089   3.582   1.904
  709SOL    HW2 2151   0.194   3.707   1.909
  710SOL     OW 2152   1.280   2.789   0.672
  710SOL    HW1 2153   1.340   2.708   0.674
  710SOL    HW2 2154   1.320   2.858   0.612
  711SOL     OW 2155   0.830   3.135   1.422
  711SOL    HW1 2156   0.825   3.168   1.517
  711SOL    HW2 2157   0.744   3.154   1.376
  712SOL     OW 2158   0.672   3.478   0.154
  712SOL    HW1 2159   0.681   3.488   0.055
  712SOL    HW2 2160   0.632   3.389   0.175
  713SOL     OW 2161   1.650   3.582   1.394
  713SOL    HW1 2162   1.703   3.592   1.310
  713SOL    HW2 2163   1.623   3.672   1.428
  714SOL     OW 2164   1.841   2.037   0.963
  714SOL    HW1 2165   1.880   1.952   0.927
  714SOL    HW2 2166   1.743   2.039   0.944
  715SOL     OW 2167   0.263   2.188   0.720
  715SOL    HW1 2168   0.184   2.239   0.686
  715SOL    HW2 2169   0.254   2.173   0.818
  716SOL     OW 2170   1.194   3.474   0.031
  716SOL    HW1 2171   1.200   3.381   0.068
  716SOL    HW2 2172   1.135   3.474  -0.049
  717SOL     OW 2173   0.822   2.864   1.372
  717SOL    HW1 2174   0.862   2.863   1.280
  717SOL    HW2 2175   0.832   2.956   1.412
  718SOL     OW 2176   0.916   2.772   0.291
  718SOL    HW1 2177   0.979   2.810   0.223
  718SOL    HW2 2178   0.956   2.689   0.330
  719SOL     OW 2179   1.504   3.469   0.044
  719SOL    HW1 2180   1.412   3.506   0.051
  719SOL    HW2 2181   1.542   3.489  -0.046
  720SOL     OW 2182   0.372   3.150   1.490
  720SOL    HW1 2183   0.359   3.243   1.456
  720SOL    HW2 2184   0.288   3.098   1.477
  721SOL     OW 2185   1.614   3.154   1.289
  721SOL    HW1 2186   1.674   3.157   1.369
  721SOL    HW2 2187   1.539   3.218   1.302
  722SOL     OW 2188   1.039   2.960   0.696
  722SOL    HW1 2189   0.969   2.913   0.750
  722SOL    HW2 2190   1.098   2.892   0.653
  723SOL     OW 2191   1.014   2.098   0.971
  723SOL    HW1 2192   1.006   2.062   0.878
  723SOL    HW2 2193   1.012   2.022   1.036
  724SOL     OW 2194   0.590   3.349   0.491
  724SOL    HW1 2195   0.632   3.291   0.421
  724SOL    HW2 2196   0.546   3.428   0.447
  725SOL     OW 2197   1.709   2.247   1.381
  725SOL    HW1 2198   1.782   2.316   1.385
  725SOL    HW2 2199   1.737   2.172   1.322
  726SOL     OW 2200   0.255   3.210   0.290
  726SOL    HW1 2201   0.159   3.211   0.263
  726SOL    HW2 2202   0.267   3.263   0.374
  727SOL     OW 2203   0.105   2.875   1.726
  727SOL    HW1 2204   0.028   2.842   1.780
  727SOL    HW2 2205   0.190   2.845   1.768
  728SOL     OW 2206   0.672   2.065   1.489
  728SOL    HW1 2207   0.762   2.049   1.449
  728SOL    HW2 2208   0.680   2.070   1.588
  729SOL     OW 2209   0.075   2.207   0.033
  729SOL    HW1 2210  -0.017   2.179   0.004
  729SOL    HW2 2211   0.106   2.284  -0.023
  730SOL     OW 2212   1.440   2.718   1.398
  730SOL    HW1 2213   1.383   2.770   1.335
  730SOL    HW2 2214   1.536   2.730   1.374
  731SOL     OW 2215   0.072   2.028   0.318
  731SOL    HW1 2216   0.055   2.111   0.264
  731SOL    HW2 2217   0.162   1.991   0.296
  732SOL     OW 2218   1.183   3.197   0.119
  732SOL    HW1 2219   1.084   3.186   0.121
  732SOL    HW2 2220   1.217   3.212   0.212
  733SOL     OW 2221   0.613   2.704   1.431
  733SOL    HW1 2222   0.669   2.785   1.414
  733SOL    HW2 2223   0.672   2.624   1.434
  734SOL     OW 2224   1.493   3.629   0.959
  734SOL    HW1 2225   1.526   3.693   0.890
  734SOL    HW2 2226   1.559   3.623   1.034
  735SOL     OW 2227   0.716   2.427   1.708
  735SOL    HW1 2228   0.735   2.492   1.782
  735SOL    HW2 2229   0.776   2.347   1.717
  736SOL     OW 2230   1.450   3.082   1.633
  736SOL    HW1 2231   1.441   3.072   1.732
  736SOL    HW2 2232   1.546   3.075   1.607
  737SOL     OW 2233   0.390   3.603   1.560
  737SOL    HW1 2234   0.299   3.644   1.558
  737SOL    HW2 2235   0.383   3.509   1.592
  738SOL     OW 2236   1.674   2.745   1.254
  738SOL    HW1 2237   1.647   2.656   1.217
  738SOL    HW2 2238   1.675   2.813   1.181
  739SOL     OW 2239   1.225   2.187   0.449
  739SOL    HW1 2240   1.290   2.113   0.438
  739SOL    HW2 2241   1.245   2.237   0.533
  740SOL     OW 2242   0.594   2.607   0.652
  740SOL    HW1 2243   0.644   2.692   0.633
  740SOL    HW2 2244   0.506   2.609   0.604
  741SOL     OW 2245   1.777   2.204   1.642
  741SOL    HW1 2246   1.760   2.235   1.548
  741SOL    HW2 2247   1.693   2.167   1.680
  742SOL     OW 2248   1.730   2.796   1.517
  742SOL    HW1 2249   1.768   2.887   1.532
  742SOL    HW2 2250   1.722   2.779   1.418
  743SOL     OW 2251   0.859   3.236   0.016
  743SOL    HW1 2252   0.813   3.251   0.104
  743SOL    HW2 2253   0.903   3.321  -0.014
  744SOL     OW 2254   0.661   3.652   0.953
  744SOL    HW1 2255   0.615   3.740   0.940
  744SOL    HW2 2256   0.760   3.664   0.946
  745SOL     OW 2257   0.859   2.818   0.861
  745SOL    HW1 2258   0.913   2.749   0.909
  745SOL    HW2 2259   0.827   2.887   0.927
  746SOL     OW 2260   1.083   2.846   0.087
  746SOL    HW1 2261   1.060   2.899   0.005
  746SOL    HW2 2262   1.164   2.790   0.068
  747SOL     OW 2263   1.861   3.431   0.851
  747SOL    HW1 2264   1.790   3.419   0.781
  747SOL    HW2 2265   1.862   3.352   0.911
  748SOL     OW 2266   0.221   3.176   1.844
  748SOL    HW1 2267   0.156   3.103   1.823
  748SOL    HW2 2268   0.225   3.190   1.942
  749SOL     OW 2269   0.079   3.102   0.653
  749SOL    HW1 2270   0.078   3.055   0.741
  749SOL    HW2 2271   0.161   3.074   0.602
  750SOL     OW 2272   0.672   3.253   1.624
  750SOL    HW1 2273   0.594   3.203   1.662
  750SOL    HW2 2274   0.669   3.348   1.655
  751SOL     OW 2275   1.824   2.054   1.227
  751SOL    HW1 2276   1.820   1.964   1.271
  751SOL    HW2 2277   1.827   2.043   1.128
  752SOL     OW 2278   0.428   2.286   0.520
  752SOL    HW1 2279   0.458   2.214   0.458
  752SOL    HW2 2280   0.389   2.246   0.603
  753SOL     OW 2281   1.705   3.349   1.104
  753SOL    HW1 2282   1.612   3.324   1.077
  753SOL    HW2 2283   1.731   3.299   1.186
  754SOL     OW 2284   0.317   2.409   1.280
  754SOL    HW1 2285   0.355   2.350   1.352
  754SOL    HW2 2286   0.357   2.383   1.192
  755SOL     OW 2287   0.812   3.448   0.687
  755SOL    HW1 2288   0.844   3.458   0.593
  755SOL    HW2 2289   0.733   3.386   0.689
  756SOL     OW 2290   1.424   2.076   1.112
  756SOL    HW1 2291   1.476   2.011   1.167
  756SOL    HW2 2292   1.375   2.139   1.173
  757SOL     OW 2293   1.001   1.896   1.154
  757SOL    HW1 2294   0.938   1.824   1.123
  757SOL    HW2 2295   1.094   1.860   1.154
  758SOL     OW 2296   0.770   3.192   0.301
  758SOL    HW1 2297   0.724   3.105   0.318
  758SOL    HW2 2298   0.861   3.189   0.342
  759SOL     OW 2299   0.618   3.429   1.284
  759SOL    HW1 2300   0.613   3.511   1.341
  759SOL    HW2 2301   0.707   3.426   1.239
  760SOL     OW 2302   1.352   1.914   0.168
  760SOL    HW1 2303   1.387   1.873   0.084
  760SOL    HW2 2304   1.262   1.876   0.188
  761SOL     OW 2305   1.300   2.315   0.691
  761SOL    HW1 2306   1.241   2.395   0.695
  761SOL    HW2 2307   1.315   2.280   0.784
  762SOL     OW 2308   1.593   2.083   0.882
  762SOL    HW1 2309   1.509   2.082   0.936
  762SOL    HW2 2310   1.595   2.166   0.826
  763SOL     OW 2311   0.039   2.939   0.300
  763SOL    HW1 2312   0.138   2.928   0.291
  763SOL    HW2 2313  -0.001   2.853   0.332
  764SOL     OW 2314   0.875   3.508   0.337
  764SOL    HW1 2315   0.798   3.473   0.283
  764SOL    HW2 2316   0.843   3.579   0.399
  765SOL     OW 2317   0.230   2.490   1.975
  765SOL    HW1 2318   0.137   2.488   2.012
  765SOL    HW2 2319   0.231   2.451   1.883
  766SOL     OW 2320   0.225   2.137   2.858
  766SOL    HW1 2321   0.260   2.120   2.950
  766SOL    HW2 2322   0.137   2.092   2.846
  767SOL     OW 2323   0.019   2.230   2.509
  767SOL    HW1 2324  -0.063   2.273   2.548
  767SOL    HW2 2325  -0.009   2.157   2.446
  768SOL     OW 2326   0.569   3.137   3.027
  768SOL    HW1 2327   0.476   3.130   2.990
  768SOL    HW2 2328   0.580   3.226   3.071
  769SOL     OW 2329   1.555   3.373   2.565
  769SOL    HW1 2330   1.498   3.357   2.646
  769SOL    HW2 2331   1.496   3.383   2.485
  770SOL     OW 2332   1.135   2.565   2.579
  770SOL    HW1 2333   1.192   2.643   2.554
  770SOL    HW2 2334   1.075   2.591   2.655
  771SOL     OW 2335   1.755   2.469   2.093
  771SOL    HW1 2336   1.743   2.456   1.994
  771SOL    HW2 2337   1.725   2.388   2.142
  772SOL     OW 2338   0.768   3.006   2.885
  772SOL    HW1 2339   0.690   3.023   2.945
  772SOL    HW2 2340   0.802   3.093   2.849
  773SOL     OW 2341   0.850   2.660   3.685
  773SOL    HW1 2342   0.846   2.736   3.750
  773SOL    HW2 2343   0.872   2.696   3.594
  774SOL     OW 2344   0.685   2.874   2.527
  774SOL    HW1 2345   0.754   2.858   2.597
  774SOL    HW2 2346   0.612   2.931   2.565
  775SOL     OW 2347   0.686   3.023   3.665
  775SOL    HW1 2348   0.746   3.102   3.679
  775SOL    HW2 2349   0.600   3.054   3.624
  776SOL     OW 2350   0.335   3.297   2.923
  776SOL    HW1 2351   0.257   3.266   2.870
  776SOL    HW2 2352   0.393   3.355   2.866
  777SOL     OW 2353   1.460   3.367   3.201
  777SOL    HW1 2354   1.484   3.461   3.227
  777SOL    HW2 2355   1.444   3.313   3.283
  778SOL     OW 2356   0.438   2.254   3.361
  778SOL    HW1 2357   0.520   2.198   3.370
  778SOL    HW2 2358   0.357   2.196   3.365
  779SOL     OW 2359   1.603   2.309   2.599
  779SOL    HW1 2360   1.529   2.355   2.549
  779SOL    HW2 2361   1.654   2.377   2.652
  780SOL     OW 2362   0.231   3.575   2.345
  780SOL    HW1 2363   0.265   3.652   2.399
  780SOL    HW2 2364   0.275   3.575   2.255
  781SOL     OW 2365   1.127   3.203   3.552
  781SOL    HW1 2366   1.174   3.203   3.640
  781SOL    HW2 2367   1.079   3.116   3.541
  782SOL     OW 2368   0.230   3.296   2.400
  782SOL    HW1 2369   0.204   3.392   2.400
  782SOL    HW2 2370   0.159   3.242   2.445
  783SOL     OW 2371   0.240   2.953   2.748
  783SOL    HW1 2372   0.254   2.869   2.800
  783SOL    HW2 2373   0.185   3.017   2.803
  784SOL     OW 2374   0.620   3.648   3.301
  784SOL    HW1 2375   0.528   3.631   3.336
  784SOL    HW2 2376   0.648   3.740   3.327
  785SOL     OW 2377   0.606   2.826   1.985
  785SOL    HW1 2378   0.613   2.910   1.931
  785SOL    HW2 2379   0.652   2.839   2.073
  786SOL     OW 2380   1.594   1.976   3.342
  786SOL    HW1 2381   1.576   2.043   3.270
  786SOL    HW2 2382   1.591   2.022   3.431
  787SOL     OW 2383   0.122   2.505   2.425
  787SOL    HW1 2384   0.077   2.417   2.442
  787SOL    HW2 2385   0.121   2.559   2.509
  788SOL     OW 2386   1.842   3.629   2.221
  788SOL    HW1 2387   1.896   3.600   2.301
  788SOL    HW2 2388   1.872   3.719   2.192
  789SOL     OW 2389   0.027   3.458   1.979
  789SOL    HW1 2390   0.008   3.362   2.000
  789SOL    HW2 2391  -0.006   3.516   2.054
  790SOL     OW 2392   1.689   2.784   2.474
  790SOL    HW1 2393   1.784   2.755   2.482
  790SOL    HW2 2394   1.681   2.849   2.399
  791SOL     OW 2395   1.641   2.970   2.294
  791SOL    HW1 2396   1.727   2.972   2.242
  791SOL    HW2 2397   1.655   3.017   2.382
  792SOL     OW 2398   0.113   2.599   3.459
  792SOL    HW1 2399   0.201   2.586   3.504
  792SOL    HW2 2400   0.100   2.696   3.437
  793SOL     OW 2401   0.613   3.227   2.588
  793SOL    HW1 2402   0.564   3.140   2.597
  793SOL    HW2 2403   0.590   3.270   2.501
  794SOL     OW 2404   1.293   3.090   3.285
  794SOL    HW1 2405   1.330   3.017   3.227
  794SOL    HW2 2406   1.345   3.095   3.370
  795SOL     OW 2407   0.809   1.866   2.364
  795SOL    HW1 2408   0.849   1.957   2.355
  795SOL    HW2 2409   0.709   1.874   2.370
  796SOL     OW 2410   0.197   2.838   3.126
  796SOL    HW1 2411   0.286   2.793   3.112
  796SOL    HW2 2412   0.124   2.773   3.107
  797SOL     OW 2413   1.525   2.861   2.052
  797SOL    HW1 2414   1.462   2.785   2.065
  797SOL    HW2 2415   1.573   2.879   2.138
  798SOL     OW 2416   1.187   3.654   3.478
  798SOL    HW1 2417   1.211   3.714   3.402
  798SOL    HW2 2418   1.194   3.559   3.448
  799SOL     OW 2419   0.317   2.113   3.663
  799SOL    HW1 2420   0.388   2.184   3.669
  799SOL    HW2 2421   0.229   2.152   3.691
  800SOL     OW 2422   1.466   3.279   2.815
  800SOL    HW1 2423   1.407   3.285   2.895
  800SOL    HW2 2424   1.451   3.191   2.769
  801SOL     OW 2425   1.667   3.576   2.434
  801SOL    HW1 2426   1.626   3.553   2.346
  801SOL    HW2 2427   1.649   3.502   2.499
  802SOL     OW 2428   0.598   2.591   2.132
  802SOL    HW1 2429   0.622   2.660   2.064
  802SOL    HW2 2430   0.520   2.624   2.186
  803SOL     OW 2431   1.281   2.207   2.806
  803SOL    HW1 2432   1.195   2.157   2.793
  803SOL    HW2 2433   1.343   2.153   2.862
  804SOL     OW 2434   1.576   3.524   2.169
  804SOL    HW1 2435   1.665   3.570   2.172
  804SOL    HW2 2436   1.555   3.500   2.074
  805SOL     OW 2437   0.807   2.467   3.327
  805SOL    HW1 2438   0.760   2.464   3.416
  805SOL    HW2 2439   0.756   2.412   3.261
  806SOL     OW 2440   1.394   2.331   3.536
  806SOL    HW1 2441   1.374   2.374   3.624
  806SOL    HW2 2442   1.472   2.269   3.545
  807SOL     OW 2443   0.973   2.752   3.434
  807SOL    HW1 2444   1.019   2.668   3.405
  807SOL    HW2 2445   0.917   2.786   3.359
  808SOL     OW 2446   0.991   2.272   3.104
  808SOL    HW1 2447   0.914   2.306   3.158
  808SOL    HW2 2448   0.957   2.221   3.025
  809SOL     OW 2449   1.041   2.563   2.291
  809SOL    HW1 2450   1.067   2.559   2.387
  809SOL    HW2 2451   0.956   2.512   2.277
  810SOL     OW 2452   0.076   2.673   2.651
  810SOL    HW1 2453   0.175   2.661   2.660
  810SOL    HW2 2454   0.052   2.768   2.672
  811SOL     OW 2455   0.130   3.683   3.433
  811SOL    HW1 2456   0.120   3.668   3.532
  811SOL    HW2 2457   0.044   3.719   3.397
  812SOL     OW 2458   0.865   2.210   2.057
  812SOL    HW1 2459   0.924   2.273   2.008
  812SOL    HW2 2460   0.884   2.116   2.028
  813SOL     OW 2461   1.719   2.447   3.693
  813SOL    HW1 2462   1.693   2.536   3.657
  813SOL    HW2 2463   1.717   2.379   3.620
  814SOL     OW 2464   1.362   3.006   2.407
  814SOL    HW1 2465   1.445   2.977   2.359
  814SOL    HW2 2466   1.313   3.073   2.351
  815SOL     OW 2467   0.550   2.058   2.747
  815SOL    HW1 2468   0.545   2.053   2.847
  815SOL    HW2 2469   0.552   2.154   2.718
  816SOL     OW 2470   1.008   3.318   2.339
  816SOL    HW1 2471   0.962   3.390   2.287
  816SOL    HW2 2472   1.004   3.338   2.437
  817SOL     OW 2473   0.351   3.663   2.715
  817SOL    HW1 2474   0.401   3.577   2.721
  817SOL    HW2 2475   0.416   3.740   2.712
  818SOL     OW 2476   1.795   2.928   2.735
  818SOL    HW1 2477   1.733   2.913   2.659
  818SOL    HW2 2478   1.743   2.939   2.820
  819SOL     OW 2479   1.227   3.412   3.368
  819SOL    HW1 2480   1.233   3.335   3.432
  819SOL    HW2 2481   1.175   3.386   3.288
  820SOL     OW 2482   0.321   2.805   2.104
  820SOL    HW1 2483   0.403   2.844   2.062
  820SOL    HW2 2484   0.294   2.723   2.055
  821SOL     OW 2485   1.458   2.597   2.590
  821SOL    HW1 2486   1.453   2.532   2.665
  821SOL    HW2 2487   1.538   2.656   2.603
  822SOL     OW 2488   0.461   3.128   3.589
  822SOL    HW1 2489   0.411   3.129   3.503
  822SOL    HW2 2490   0.398   3.110   3.665
  823SOL     OW 2491   1.111   3.638   2.099
  823SOL    HW1 2492   1.051   3.576   2.149
  823SOL    HW2 2493   1.142   3.594   2.014
  824SOL     OW 2494   0.202   2.147   3.360
  824SOL    HW1 2495   0.122   2.207   3.347
  824SOL    HW2 2496   0.192   2.098   3.446
  825SOL     OW 2497   1.632   3.239   1.943
  825SOL    HW1 2498   1.600   3.333   1.933
  825SOL    HW2 2499   1.556   3.176   1.931
  826SOL     OW 2500   0.464   3.605   2.185
  826SOL    HW1 2501   0.497   3.644   2.271
  826SOL    HW2 2502   0.540   3.598   2.120
  827SOL     OW 2503   1.400   1.969   2.288
  827SOL    HW1 2504   1.376   1.932   2.198
  827SOL    HW2 2505   1.499   1.985   2.292
  828SOL     OW 2506   0.249   3.647   3.103
  828SOL    HW1 2507   0.306   3.582   3.153
  828SOL    HW2 2508   0.233   3.614   3.010
  829SOL     OW 2509   0.940   3.560   2.766
  829SOL    HW1 2510   1.020   3.503   2.787
  829SOL    HW2 2511   0.891   3.520   2.689
  830SOL     OW 2512   0.382   2.562   2.342
  830SOL    HW1 2513   0.427   2.472   2.339
  830SOL    HW2 2514   0.288   2.551   2.375
  831SOL     OW 2515   1.547   2.084   3.591
  831SOL    HW1 2516   1.542   2.121   3.683
  831SOL    HW2 2517   1.475   2.015   3.579
  832SOL     OW 2518   0.614   1.984   1.979
  832SOL    HW1 2519   0.712   1.962   1.986
  832SOL    HW2 2520   0.583   1.967   1.886
  833SOL     OW 2521   0.781   2.126   3.611
  833SOL    HW1 2522   0.848   2.065   3.654
  833SOL    HW2 2523   0.708   2.145   3.676
  834SOL     OW 2524   0.888   3.376   3.057
  834SOL    HW1 2525   0.865   3.351   2.963
  834SOL    HW2 2526   0.949   3.307   3.096
  835SOL     OW 2527   1.351   2.452   3.295
  835SOL    HW1 2528   1.379   2.409   3.380
  835SOL    HW2 2529   1.376   2.548   3.296
  836SOL     OW 2530   0.803   3.264   2.786
  836SOL    HW1 2531   0.893   3.278   2.744
  836SOL    HW2 2532   0.732   3.266   2.715
  837SOL     OW 2533   0.922   2.365   2.761
  837SOL    HW1 2534   0.897   2.356   2.665
  837SOL    HW2 2535   0.970   2.283   2.792
  838SOL     OW 2536   0.539   1.926   2.374
  838SOL    HW1 2537   0.458   1.927   2.432
  838SOL    HW2 2538   0.542   2.009   2.319
  839SOL     OW 2539   1.434   3.050   1.903
  839SOL    HW1 2540   1.466   2.974   1.960
  839SOL    HW2 2541   1.342   3.077   1.933
  840SOL     OW 2542   0.297   1.897   2.033
  840SOL    HW1 2543   0.346   1.981   2.012
  840SOL    HW2 2544   0.359   1.832   2.078
  841SOL     OW 2545   0.935   2.098   2.342
  841SOL    HW1 2546   0.887   2.139   2.264
  841SOL    HW2 2547   1.034   2.096   2.323
  842SOL     OW 2548   1.076   2.545   3.326
  842SOL    HW1 2549   0.996   2.484   3.329
  842SOL    HW2 2550   1.157   2.492   3.302
  843SOL     OW 2551   1.227   3.432   2.655
  843SOL    HW1 2552   1.248   3.506   2.590
  843SOL    HW2 2553   1.295   3.432   2.728
  844SOL     OW 2554   0.459   3.014   2.603
  844SOL    HW1 2555   0.388   2.987   2.668
  844SOL    HW2 2556   0.433   2.986   2.510
  845SOL     OW 2557   1.271   3.659   2.453
  845SOL    HW1 2558   1.315   3.723   2.389
  845SOL    HW2 2559   1.221   3.711   2.523
  846SOL     OW 2560   1.032   2.411   1.878
  846SOL    HW1 2561   0.991   2.493   1.839
  846SOL    HW2 2562   1.096   2.437   1.951
  847SOL     OW 2563   0.078   2.418   3.248
  847SOL    HW1 2564   0.170   2.417   3.207
  847SOL    HW2 2565   0.072   2.492   3.315
  848SOL     OW 2566   0.561   2.084   3.009
  848SOL    HW1 2567   0.599   2.000   3.046
  848SOL    HW2 2568   0.473   2.103   3.053
  849SOL     OW 2569   0.866   2.316   2.504
  849SOL    HW1 2570   0.834   2.388   2.442
  849SOL    HW2 2571   0.890   2.235   2.451
  850SOL     OW 2572   1.017   1.901   2.615
  850SOL    HW1 2573   0.945   1.906   2.546
  850SOL    HW2 2574   0.993   1.832   2.684
  851SOL     OW 2575   1.429   3.035   2.729
  851SOL    HW1 2576   1.374   2.951   2.722
  851SOL    HW2 2577   1.455   3.064   2.637
  852SOL     OW 2578   1.466   2.452   2.854
  852SOL    HW1 2579   1.436   2.357   2.861
  852SOL    HW2 2580   1.539   2.468   2.920
  853SOL     OW 2581   1.857   2.695   2.239
  853SOL    HW1 2582   1.899   2.631   2.303
  853SOL    HW2 2583   1.819   2.644   2.161
  854SOL     OW 2584   0.488   3.247   2.036
  854SOL    HW1 2585   0.401   3.232   2.083
  854SOL    HW2 2586   0.471   3.273   1.941
  855SOL     OW 2587   1.664   3.142   2.519
  855SOL    HW1 2588   1.763   3.150   2.533
  855SOL    HW2 2589   1.619   3.226   2.550
  856SOL     OW 2590   1.390   2.437   1.940
  856SOL    HW1 2591   1.336   2.416   2.021
  856SOL    HW2 2592   1.481   2.396   1.949
  857SOL     OW 2593   0.527   2.118   2.190
  857SOL    HW1 2594   0.554   2.059   2.115
  857SOL    HW2 2595   0.527   2.213   2.159
  858SOL     OW 2596   1.754   3.085   3.450
  858SOL    HW1 2597   1.845   3.046   3.437
  858SOL    HW2 2598   1.762   3.181   3.474
  859SOL     OW 2599   1.064   3.209   3.202
  859SOL    HW1 2600   0.984   3.186   3.257
  859SOL    HW2 2601   1.147   3.183   3.251
  860SOL     OW 2602   1.592   3.491   3.487
  860SOL    HW1 2603   1.619   3.525   3.397
  860SOL    HW2 2604   1.671   3.453   3.533
  861SOL     OW 2605   1.111   3.057   2.962
  861SOL    HW1 2606   1.071   3.101   3.043
  861SOL    HW2 2607   1.070   3.094   2.879
  862SOL     OW 2608   1.638   2.961   2.941
  862SOL    HW1 2609   1.643   3.042   3.000
  862SOL    HW2 2610   1.552   2.963   2.890
  863SOL     OW 2611   0.915   1.951   3.264
  863SOL    HW1 2612   0.940   1.931   3.169
  863SOL    HW2 2613   0.987   2.007   3.306
  864SOL     OW 2614   0.980   2.978   3.581
  864SOL    HW1 2615   0.881   2.984   3.591
  864SOL    HW2 2616   1.003   2.898   3.525
  865SOL     OW 2617   0.705   2.912   2.230
  865SOL    HW1 2618   0.691   2.919   2.329
  865SOL    HW2 2619   0.789   2.861   2.212
  866SOL     OW 2620   0.410   2.675   3.113
  866SOL    HW1 2621   0.496   2.687   3.163
  866SOL    HW2 2622   0.368   2.588   3.140
  867SOL     OW 2623   1.274   2.248   3.124
  867SOL    HW1 2624   1.295   2.322   3.188
  867SOL    HW2 2625   1.185   2.265   3.081
  868SOL     OW 2626   0.064   3.426   3.193
  868SOL    HW1 2627   0.018   3.508   3.159
  868SOL    HW2 2628   0.162   3.445   3.202
  869SOL     OW 2629   0.367   2.962   2.363
  869SOL    HW1 2630   0.360   3.045   2.307
  869SOL    HW2 2631   0.371   2.882   2.303
  870SOL     OW 2632   0.566   2.399   2.727
  870SOL    HW1 2633   0.578   2.465   2.653
  870SOL    HW2 2634   0.612   2.433   2.810
  871SOL     OW 2635   1.252   3.210   2.250
  871SOL    HW1 2636   1.302   3.287   2.290
  871SOL    HW2 2637   1.157   3.212   2.282
  872SOL     OW 2638   1.272   3.307   3.004
  872SOL    HW1 2639   1.319   3.320   3.091
  872SOL    HW2 2640   1.206   3.233   3.013
  873SOL     OW 2641   1.582   2.501   2.334
  873SOL    HW1 2642   1.551   2.562   2.407
  873SOL    HW2 2643   1.632   2.553   2.265
  874SOL     OW 2644   0.354   3.372   3.191
  874SOL    HW1 2645   0.333   3.328   3.104
  874SOL    HW2 2646   0.451   3.398   3.194
  875SOL     OW 2647   0.402   2.613   3.460
  875SOL    HW1 2648   0.470   2.668   3.413
  875SOL    HW2 2649   0.442   2.525   3.487
  876SOL     OW 2650   1.587   2.641   3.532
  876SOL    HW1 2651   1.495   2.679   3.527
  876SOL    HW2 2652   1.647   2.688   3.467
  877SOL     OW 2653   1.013   1.967   3.632
  877SOL    HW1 2654   1.019   2.052   3.580
  877SOL    HW2 2655   1.045   1.891   3.575
  878SOL     OW 2656   0.504   1.912   3.602
  878SOL    HW1 2657   0.462   1.855   3.532
  878SOL    HW2 2658   0.438   1.981   3.634
  879SOL     OW 2659   0.573   2.732   2.891
  879SOL    HW1 2660   0.617   2.821   2.882
  879SOL    HW2 2661   0.510   2.732   2.968
  880SOL     OW 2662   1.360   2.724   2.907
  880SOL    HW1 2663   1.285   2.724   2.841
  880SOL    HW2 2664   1.397   2.632   2.916
  881SOL     OW 2665   1.209   2.387   2.137
  881SOL    HW1 2666   1.222   2.303   2.191
  881SOL    HW2 2667   1.180   2.461   2.197
  882SOL     OW 2668   0.307   2.075   3.093
  882SOL    HW1 2669   0.284   2.112   3.183
  882SOL    HW2 2670   0.277   1.980   3.087
  883SOL     OW 2671   0.037   3.172   3.144
  883SOL    HW1 2672   0.090   3.123   3.212
  883SOL    HW2 2673   0.059   3.270   3.149
  884SOL     OW 2674   0.732   2.496   2.926
  884SOL    HW1 2675   0.791   2.470   2.850
  884SOL    HW2 2676   0.704   2.592   2.915
  885SOL     OW 2677   1.728   2.797   3.716
  885SOL    HW1 2678   1.682   2.790   3.627
  885SOL    HW2 2679   1.666   2.841   3.782
  886SOL     OW 2680   0.307   1.925   2.480
  886SOL    HW1 2681   0.296   2.019   2.513
  886SOL    HW2 2682   0.302   1.862   2.557
  887SOL     OW 2683   1.622   2.229   2.236
  887SOL    HW1 2684   1.624   2.153   2.300
  887SOL    HW2 2685   1.574   2.306   2.276
  888SOL     OW 2686   1.023   2.628   2.828
  888SOL    HW1 2687   1.038   2.649   2.924
  888SOL    HW2 2688   0.993   2.533   2.819
  889SOL     OW 2689   0.980   3.435   3.562
  889SOL    HW1 2690   0.960   3.479   3.474
  889SOL    HW2 2691   1.019   3.344   3.546
  890SOL     OW 2692   1.859   3.380   3.467
  890SOL    HW1 2693   1.873   3.407   3.372
  890SOL    HW2 2694   1.942   3.402   3.520
  891SOL     OW 2695   0.350   2.760   3.666
  891SOL    HW1 2696   0.426   2.804   3.714
  891SOL    HW2 2697   0.385   2.713   3.584
  892SOL     OW 2698   1.540   2.136   1.987
  892SOL    HW1 2699   1.479   2.061   2.010
  892SOL    HW2 2700   1.562   2.188   2.070
  893SOL     OW 2701   1.303   2.700   1.904
  893SOL    HW1 2702   1.337   2.607   1.919
  893SOL    HW2 2703   1.321   2.727   1.809
  894SOL     OW 2704   1.068   3.195   2.711
  894SOL    HW1 2705   1.075   3.111   2.656
  894SOL    HW2 2706   1.130   3.264   2.675
  895SOL     OW 2707   0.319   2.672   2.811
  895SOL    HW1 2708   0.412   2.708   2.816
  895SOL    HW2 2709   0.313   2.587   2.863
  896SOL     OW 2710   0.339   2.371   2.868
  896SOL    HW1 2711   0.287   2.288   2.851
  896SOL    HW2 2712   0.416   2.376   2.804
  897SOL     OW 2713   1.138   2.242   3.540
  897SOL    HW1 2714   1.093   2.305   3.604
  897SOL    HW2 2715   1.231   2.273   3.523
  898SOL     OW 2716   1.160   2.069   3.339
  898SOL    HW1 2717   1.160   2.133   3.416
  898SOL    HW2 2718   1.188   2.117   3.256
  899SOL     OW 2719   0.008   3.188   2.062
  899SOL    HW1 2720  -0.085   3.209   2.031
  899SOL    HW2 2721   0.018   3.089   2.075
  900SOL     OW 2722   0.088   3.663   2.789
  900SOL    HW1 2723   0.046   3.577   2.762
  900SOL    HW2 2724   0.182   3.666   2.755
  901SOL     OW 2725   0.504   3.430   2.772
  901SOL    HW1 2726   0.570   3.504   2.781
  901SOL    HW2 2727   0.548   3.351   2.730
  902SOL     OW 2728   1.002   2.658   3.100
  902SOL    HW1 2729   1.043   2.626   3.186
  902SOL    HW2 2730   0.906   2.631   3.097
  903SOL     OW 2731   0.040   2.406   2.976
  903SOL    HW1 2732   0.125   2.373   2.935
  903SOL    HW2 2733   0.053   2.421   3.074
  904SOL     OW 2734   0.189   2.382   3.584
  904SOL    HW1 2735   0.248   2.342   3.514
  904SOL    HW2 2736   0.131   2.453   3.543
  905SOL     OW 2737   1.369   2.812   3.522
  905SOL    HW1 2738   1.408   2.901   3.542
  905SOL    HW2 2739   1.379   2.792   3.425
  906SOL     OW 2740   0.815   2.434   2.187
  906SOL    HW1 2741   0.822   2.345   2.141
  906SOL    HW2 2742   0.721   2.468   2.179
  907SOL     OW 2743   1.657   2.466   3.068
  907SOL    HW1 2744   1.619   2.397   3.130
  907SOL    HW2 2745   1.739   2.430   3.024
  908SOL     OW 2746   0.252   3.426   3.606
  908SOL    HW1 2747   0.222   3.483   3.682
  908SOL    HW2 2748   0.245   3.329   3.632
  909SOL     OW 2749   0.671   2.326   3.131
  909SOL    HW1 2750   0.637   2.237   3.101
  909SOL    HW2 2751   0.697   2.380   3.051
  910SOL     OW 2752   0.930   3.540   3.327
  910SOL    HW1 2753   0.906   3.522   3.232
  910SOL    HW2 2754   0.960   3.634   3.337
  911SOL     OW 2755   0.473   2.362   2.053
  911SOL    HW1 2756   0.534   2.442   2.057
  911SOL    HW2 2757   0.378   2.393   2.060
  912SOL     OW 2758   0.159   2.999   3.328
  912SOL    HW1 2759   0.181   2.938   3.404
  912SOL    HW2 2760   0.169   2.950   3.242
  913SOL     OW 2761   1.347   2.921   3.096
  913SOL    HW1 2762   1.371   2.858   3.022
  913SOL    HW2 2763   1.257   2.961   3.078
  914SOL     OW 2764   1.302   2.717   2.171
  914SOL    HW1 2765   1.216   2.686   2.213
  914SOL    HW2 2766   1.298   2.703   2.072
  915SOL     OW 2767   1.759   3.609   3.016
  915SOL    HW1 2768   1.820   3.639   2.943
  915SOL    HW2 2769   1.721   3.520   2.994
  916SOL     OW 2770   1.252   3.593   2.990
  916SOL    HW1 2771   1.336   3.598   2.936
  916SOL    HW2 2772   1.229   3.497   3.008
  917SOL     OW 2773   0.083   3.120   2.884
  917SOL    HW1 2774   0.078   3.119   2.984
  917SOL    HW2 2775   0.000   3.079   2.846
  918SOL     OW 2776   0.688   3.524   3.578
  918SOL    HW1 2777   0.632   3.605   3.587
  918SOL    HW2 2778   0.740   3.528   3.492
  919SOL     OW 2779   1.726   1.997   2.385
  919SOL    HW1 2780   1.799   1.980   2.318
  919SOL    HW2 2781   1.695   1.910   2.423
  920SOL     OW 2782   1.388   3.435   2.339
  920SOL    HW1 2783   1.455   3.447   2.265
  920SOL    HW2 2784   1.348   3.524   2.362
  921SOL     OW 2785   0.130   3.656   3.713
  921SOL    HW1 2786   0.089   3.582   3.766
  921SOL    HW2 2787   0.194   3.707   3.771
  922SOL     OW 2788   1.280   2.789   2.534
  922SOL    HW1 2789   1.340   2.708   2.536
  922SOL    HW2 2790   1.320   2.858   2.474
  923SOL     OW 2791   0.830   3.135   3.284
  923SOL    HW1 2792   0.825   3.168   3.379
  923SOL    HW2 2793   0.744   3.154   3.238
  924SOL     OW 2794   0.672   3.478   2.016
  924SOL    HW1 2795   0.681   3.488   1.917
  924SOL    HW2 2796   0.632   3.389   2.037
  925SOL     OW 2797   1.650   3.582   3.256
  925SOL    HW1 2798   1.703   3.592   3.172
  925SOL    HW2 2799   1.623   3.672   3.290
  926SOL     OW 2800   1.841   2.037   2.825
  926SOL    HW1 2801   1.880   1.952   2.789
  926SOL    HW2 2802   1.743   2.039   2.806
  927SOL     OW 2803   0.263   2.188   2.582
  927SOL    HW1 2804   0.184   2.239   2.548
  927SOL    HW2 2805   0.254   2.173   2.680
  928SOL     OW 2806   1.194   3.474   1.893
  928SOL    HW1 2807   1.200   3.381   1.930
  928SOL    HW2 2808   1.135   3.474   1.813
  929SOL     OW 2809   0.822   2.864   3.234
  929SOL    HW1 2810   0.862   2.863   3.142
  929SOL    HW2 2811   0.832   2.956   3.274
  930SOL     OW 2812   0.916   2.772   2.153
  930SOL    HW1 2813   0.979   2.810   2.085
  930SOL    HW2 2814   0.956   2.689   2.192
  931SOL     OW 2815   1.504   3.469   1.906
  931SOL    HW1 2816   1.412   3.506   1.913
  931SOL    HW2 2817   1.542   3.489   1.816
  932SOL     OW 2818   0.372   3.150   3.352
  932SOL    HW1 2819   0.359   3.243   3.318
  932SOL    HW2 2820   0.288   3.098   3.339
  933SOL     OW 2821   1.614   3.154   3.151
  933SOL    HW1 2822   1.674   3.157   3.231
  933SOL    HW2 2823   1.539   3.218   3.164
  934SOL     OW 2824   1.039   2.960   2.558
  934SOL    HW1 2825   0.969   2.913   2.612
  934SOL    HW2 2826   1.098   2.892   2.515
  935SOL     OW 2827   1.014   2.098   2.833
  935SOL    HW1 2828   1.006   2.062   2.740
  935SOL    HW2 2829   1.012   2.022   2.898
  936SOL     OW 2830   0.590   3.349   2.353
  936SOL    HW1 2831   0.632   3.291   2.283
  936SOL    HW2 2832   0.546   3.428   2.309
  937SOL     OW 2833   1.709   2.247   3.243
  937SOL    HW1 2834   1.782   2.316   3.247
  937SOL    HW2 2835   1.737   2.172   3.184
  938SOL     OW 2836   0.255   3.210   2.152
  938SOL    HW1 2837   0.159   3.211   2.125
  938SOL    HW2 2838   0.267   3.263   2.236
  939SOL     OW 2839   0.105   2.875   3.588
  939SOL    HW1 2840   0.028   2.842   3.642
  939SOL    HW2 2841   0.190   2.845   3.630
  940SOL     OW 2842   0.672   2.065   3.351
  940SOL    HW1 2843   0.762   2.049   3.311
  940SOL    HW2 2844   0.680   2.070   3.450
  941SOL     OW 2845   0.075   2.207   1.895
  941SOL    HW1 2846  -0.017   2.179   1.866
  941SOL    HW2 2847   0.106   2.284   1.839
  942SOL     OW 2848   1.440   2.718   3.260
  942SOL    HW1 2849   1.383   2.770   3.197
  942SOL    HW2 2850   1.536   2.730   3.236
  943SOL     OW 2851   0.072   2.028   2.180
  943SOL    HW1 2852   0.055   2.111   2.126
  943SOL    HW2 2853   0.162   1.991   2.158
  944SOL     OW 2854   1.183   3.197   1.981
  944SOL    HW1 2855   1.084   3.186   1.983
  944SOL    HW2 2856   1.217   3.212   2.074
  945SOL     OW 2857   0.613   2.704   3.293
  945SOL    HW1 2858   0.669   2.785   3.276
  945SOL    HW2 2859   0.672   2.624   3.296
  946SOL     OW 2860   1.493   3.629   2.821
  946SOL    HW1 2861   1.526   3.693   2.752
  946SOL    HW2 2862   1.559   3.623   2.896
  947SOL     OW 2863   0.716   2.427   3.570
  947SOL    HW1 2864   0.735   2.492   3.644
  947SOL    HW2 2865   0.776   2.347   3.579
  948SOL     OW 2866   1.450   3.082   3.495
  948SOL    HW1 2867   1.441   3.072   3.594
  948SOL    HW2 2868   1.546   3.075   3.469
  949SOL     OW 2869   0.390   3.603   3.422
  949SOL    HW1 2870   0.299   3.644   3.420
  949SOL    HW2 2871   0.383   3.509   3.454
  950SOL     OW 2872   1.674   2.745   3.116
  950SOL    HW1 2873   1.647   2.656   3.079
  950SOL    HW2 2874   1.675   2.813   3.043
  951SOL     OW 2875   1.225   2.187   2.311
  951SOL    HW1 2876   1.290   2.113   2.300
  951SOL    HW2 2877   1.245   2.237   2.395
  952SOL     OW 2878   0.594   2.607   2.514
  952SOL    HW1 2879   0.644   2.692   2.495
  952SOL    HW2 2880   0.506   2.609   2.466
  953SOL     OW 2881   1.777   2.204   3.504
  953SOL    HW1 2882   1.760   2.235   3.410
  953SOL    HW2 2883   1.693   2.167   3.542
  954SOL     OW 2884   1.730   2.796   3.379
  954SOL    HW1 2885   1.768   2.887   3.394
  954SOL    HW2 2886   1.722   2.779   3.280
  955SOL     OW 2887   0.859   3.236   1.878
  955SOL    HW1 2888   0.813   3.251   1.966
  955SOL    HW2 2889   0.903   3.321   1.848
  956SOL     OW 2890   0.661   3.652   2.815
  956SOL    HW1 2891   0.615   3.740   2.802
  956SOL    HW2 2892   0.760   3.664   2.808
  957SOL     OW 2893   0.859   2.818   2.723
  957SOL    HW1 2894   0.913   2.749   2.771
  957SOL    HW2 2895   0.827   2.887   2.789
  958SOL     OW 2896   1.083   2.846   1.949
  958SOL    HW1 2897   1.060   2.899   1.867
  958SOL    HW2 2898   1.164   2.790   1.930
  959SOL     OW 2899   1.861   3.431   2.713
  959SOL    HW1 2900   1.790   3.419   2.643
  959SOL    HW2 2901   1.862   3.352   2.773
  960SOL     OW 2902   0.221   3.176   3.706
  960SOL    HW1 2903   0.156   3.103   3.685
  960SOL    HW2 2904   0.225   3.190   3.804
  961SOL     OW 2905   0.079   3.102   2.515
  961SOL    HW1 2906   0.078   3.055   2.603
  961SOL    HW2 2907   0.161   3.074   2.464
  962SOL     OW 2908   0.672   3.253   3.486
  962SOL    HW1 2909   0.594   3.203   3.524
  962SOL    HW2 2910   0.669   3.348   3.517
  963SOL     OW 2911   1.824   2.054   3.089
  963SOL    HW1 2912   1.820   1.964   3.133
  963SOL    HW2 2913   1.827   2.043   2.990
  964SOL     OW 2914   0.428   2.286   2.382
  964SOL    HW1 2915   0.458   2.214   2.320
  964SOL    HW2 2916   0.389   2.246   2.465
  965SOL     OW 2917   1.705   3.349   2.966
  965SOL    HW1 2918   1.612   3.324   2.939
  965SOL    HW2 2919   1.731   3.299   3.048
  966SOL     OW 2920   0.317   2.409   3.142
  966SOL    HW1 2921   0.355   2.350   3.214
  966SOL    HW2 2922   0.357   2.383   3.054
  967SOL     OW 2923   0.812   3.448   2.549
  967SOL    HW1 2924   0.844   3.458   2.455
  967SOL    HW2 2925   0.733   3.386   2.551
  968SOL     OW 2926   1.424   2.076   2.974
  968SOL    HW1 2927   1.476   2.011   3.029
  968SOL    HW2 2928   1.375   2.139   3.035
  969SOL     OW 2929   1.001   1.896   3.016
  969SOL    HW1 2930   0.938   1.824   2.985
  969SOL    HW2 2931   1.094   1.860   3.016
  970SOL     OW 2932   0.770   3.192   2.163
  970SOL    HW1 2933   0.724   3.105   2.180
  970SOL    HW2 2934   0.861   3.189   2.204
  971SOL     OW 2935   0.618   3.429   3.146
  971SOL    HW1 2936   0.613   3.511   3.203
  971SOL    HW2 2937   0.707   3.426   3.101
  972SOL     OW 2938   1.352   1.914   2.030
  972SOL    HW1 2939   1.387   1.873   1.946
  972SOL    HW2 2940   1.262   1.876   2.050
  973SOL     OW 2941   1.300   2.315   2.553
  973SOL    HW1 2942   1.241   2.395   2.557
  973SOL    HW2 2943   1.315   2.280   2.646
  974SOL     OW 2944   1.593   2.083   2.744
  974SOL    HW1 2945   1.509   2.082   2.798
  974SOL    HW2 2946   1.595   2.166   2.688
  975SOL     OW 2947   0.039   2.939   2.162
  975SOL    HW1 2948   0.138   2.928   2.153
  975SOL    HW2 2949  -0.001   2.853   2.194
  976SOL     OW 2950   0.875   3.508   2.199
  976SOL    HW1 2951   0.798   3.473   2.145
  976SOL    HW2 2952   0.843   3.579   2.261
  977SOL     OW 2953   0.230   2.490   3.837
  977SOL    HW1 2954   0.137   2.488   3.874
  977SOL    HW2 2955   0.231   2.451   3.745
  978SOL     OW 2956   0.225   2.137   4.720
  978SOL    HW1 2957   0.260   2.120   4.812
  978SOL    HW2 2958   0.137   2.092   4.708
  979SOL     OW 2959   0.019   2.230   4.371
  979SOL    HW1 2960  -0.063   2.273   4.410
  979SOL    HW2 2961  -0.009   2.157   4.308
  980SOL     OW 2962   1.555   3.373   4.427
  980SOL    HW1 2963   1.498   3.357   4.508
  980SOL    HW2 2964   1.496   3.383   4.347
  981SOL     OW 2965   1.135   2.565   4.441
  981SOL    HW1 2966   1.192   2.643   4.416
  981SOL    HW2 2967   1.075   2.591   4.517
  982SOL     OW 2968   1.755   2.469   3.955
  982SOL    HW1 2969   1.743   2.456   3.856
  982SOL    HW2 2970   1.725   2.388   4.004
  983SOL     OW 2971   0.768   3.006   4.747
  983SOL    HW1 2972   0.690   3.023   4.807
  983SOL    HW2 2973   0.802   3.093   4.711
  984SOL     OW 2974   0.685   2.874   4.389
  984SOL    HW1 2975   0.754   2.858   4.459
  984SOL    HW2 2976   0.612   2.931   4.427
  985SOL     OW 2977   0.335   3.297   4.785
  985SOL    HW1 2978   0.257   3.266   4.732
  985SOL    HW2 2979   0.393   3.355   4.728
  986SOL     OW 2980   1.603   2.309   4.461
  986SOL    HW1 2981   1.529   2.355   4.411
  986SOL    HW2 2982   1.654   2.377   4.514
  987SOL     OW 2983   0.231   3.575   4.207
  987SOL    HW1 2984   0.265   3.652   4.261
  987SOL    HW2 2985   0.275   3.575   4.117
  988SOL     OW 2986   0.230   3.296   4.262
  988SOL    HW1 2987   0.204   3.392   4.262
  988SOL    HW2 2988   0.159   3.242   4.307
  989SOL     OW 2989   0.240   2.953   4.610
  989SOL    HW1 2990   0.254   2.869   4.662
  989SOL    HW2 2991   0.185   3.017   4.665
  990SOL     OW 2992   0.606   2.826   3.847
  990SOL    HW1 2993   0.613   2.910   3.793
  990SOL    HW2 2994   0.652   2.839   3.935
  991SOL     OW 2995   0.122   2.505   4.287
  991SOL    HW1 2996   0.077   2.417   4.304
  991SOL    HW2 2997   0.121   2.559   4.371
  992SOL     OW 2998   1.842   3.629   4.083
  992SOL    HW1 2999   1.896   3.600   4.163
  992SOL    HW2 3000   1.872   3.719   4.054
  993SOL     OW 3001   0.027   3.458   3.841
  993SOL    HW1 3002   0.008   3.362   3.862
  993SOL    HW2 3003  -0.006   3.516   3.916
  994SOL     OW 3004   1.689   2.784   4.336
  994SOL    HW1 3005   1.784   2.755   4.344
  994SOL    HW2 3006   1.681   2.849   4.261
  995SOL     OW 3007   1.641   2.970   4.156
  995SOL    HW1 3008   1.727   2.972   4.104
  995SOL    HW2 3009   1.655   3.017   4.244
  996SOL     OW 3010   0.613   3.227   4.450
  996SOL    HW1 3011   0.564   3.140   4.459
  996SOL    HW2 3012   0.590   3.270   4.363
  997SOL     OW 3013   0.809   1.866   4.226
  997SOL    HW1 3014   0.849   1.957   4.217
  997SOL    HW2 3015   0.709   1.874   4.232
  998SOL     OW 3016   1.525   2.861   3.914
  998SOL    HW1 3017   1.462   2.785   3.927
  998SOL    HW2 3018   1.573   2.879   4.000
  999SOL     OW 3019   1.466   3.279   4.677
  999SOL    HW1 3020   1.407   3.285   4.757
  999SOL    HW2 3021   1.451   3.191   4.631
 1000SOL     OW 3022   1.667   3.576   4.296
 1000SOL    HW1 3023   1.626   3.553   4.208
 1000SOL    HW2 3024   1.649   3.502   4.361
 1001SOL     OW 3025   0.598   2.591   3.994
 1001SOL    HW1 3026   0.622   2.660   3.926
 1001SOL    HW2 3027   0.520   2.624   4.048
 1002SOL     OW 3028   1.281   2.207   4.668
 1002SOL    HW1 3029   1.195   2.157   4.655
 1002SOL    HW2 3030   1.343   2.153   4.724
 1003SOL     OW 3031   1.576   3.524   4.031
 1003SOL    HW1 3032   1.665   3.570   4.034
 1003SOL    HW2 3033   1.555   3.500   3.936
 1004SOL     OW 3034   1.041   2.563   4.153
 1004SOL    HW1 3035   1.067   2.559   4.249
 1004SOL    HW2 3036   0.956   2.512   4.139
 1005SOL     OW 3037   0.076   2.673   4.513
 1005SOL    HW1 3038   0.175   2.661   4.522
 1005SOL    HW2 3039   0.052   2.768   4.534
 1006SOL     OW 3040   0.865   2.210   3.919
 1006SOL    HW1 3041   0.924   2.273   3.870
 1006SOL    HW2 3042   0.884   2.116   3.890
 1007SOL     OW 3043   1.362   3.006   4.269
 1007SOL    HW1 3044   1.445   2.977   4.221
 1007SOL    HW2 3045   1.313   3.073   4.213
 1008SOL     OW 3046   0.550   2.058   4.609
 1008SOL    HW1 3047   0.545   2.053   4.709
 1008SOL    HW2 3048   0.552   2.154   4.580
 1009SOL     OW 3049   1.008   3.318   4.201
 1009SOL    HW1 3050   0.962   3.390   4.149
 1009SOL    HW2 3051   1.004   3.338   4.299
 1010SOL     OW 3052   0.351   3.663   4.577
 1010SOL    HW1 3053   0.401   3.577   4.583
 1010SOL    HW2 3054   0.416   3.740   4.574
 1011SOL     OW 3055   1.795   2.928   4.597
 1011SOL    HW1 3056   1.733   2.913   4.521
 1011SOL    HW2 3057   1.743   2.939   4.682
 1012SOL     OW 3058   0.321   2.805   3.966
 1012SOL    HW1 3059   0.403   2.844   3.924
 1012SOL    HW2 3060   0.294   2.723   3.917
 1013SOL     OW 3061   1.458   2.597   4.452
 1013SOL    HW1 3062   1.453   2.532   4.527
 1013SOL    HW2 3063   1.538   2.656   4.465
 1014SOL     OW 3064   1.111   3.638   3.961
 1014SOL    HW1 3065   1.051   3.576   4.011
 1014SOL    HW2 3066   1.142   3.594   3.876
 1015SOL     OW 3067   1.632   3.239   3.805
 1015SOL    HW1 3068   1.600   3.333   3.795
 1015SOL    HW2 3069   1.556   3.176   3.793
 1016SOL     OW 3070   0.464   3.605   4.047
 1016SOL    HW1 3071   0.497   3.644   4.133
 1016SOL    HW2 3072   0.540   3.598   3.982
 1017SOL     OW 3073   1.400   1.969   4.150
 1017SOL    HW1 3074   1.376   1.932   4.060
 1017SOL    HW2 3075   1.499   1.985   4.154
 1018SOL     OW 3076   0.249   3.647   4.965
 1018SOL    HW1 3077   0.306   3.582   5.015
 1018SOL    HW2 3078   0.233   3.614   4.872
 1019SOL     OW 3079   0.940   3.560   4.628
 1019SOL    HW1 3080   1.020   3.503   4.649
 1019SOL    HW2 3081   0.891   3.520   4.551
 1020SOL     OW 3082   0.382   2.562   4.204
 1020SOL    HW1 3083   0.427   2.472   4.201
 1020SOL    HW2 3084   0.288   2.551   4.237
 1021SOL     OW 3085   0.614   1.984   3.841
 1021SOL    HW1 3086   0.712   1.962   3.848
 1021SOL    HW2 3087   0.583   1.967   3.748
 1022SOL     OW 3088   0.803   3.264   4.648
 1022SOL    HW1 3089   0.893   3.278   4.606
 1022SOL    HW2 3090   0.732   3.266   4.577
 1023SOL     OW 3091   0.922   2.365   4.623
 1023SOL    HW1 3092   0.897   2.356   4.527
 1023SOL    HW2 3093   0.970   2.283   4.654
 1024SOL     OW 3094   0.539   1.926   4.236
 1024SOL    HW1 3095   0.458   1.927   4.294
 1024SOL    HW2 3096   0.542   2.009   4.181
 1025SOL     OW 3097   1.434   3.050   3.765
 1025SOL    HW1 3098   1.466   2.974   3.822
 1025SOL    HW2 3099   1.342   3.077   3.795
 1026SOL     OW 3100   0.297   1.897   3.895
 1026SOL    HW1 3101   0.346   1.981   3.874
 1026SOL    HW2 3102   0.359   1.832   3.940
 1027SOL     OW 3103   0.935   2.098   4.204
 1027SOL    HW1 3104   0.887   2.139   4.126
 1027SOL    HW2 3105   1.034   2.096   4.185
 1028SOL     OW 3106   1.227   3.432   4.517
 1028SOL    HW1 3107   1.248   3.506   4.452
 1028SOL    HW2 3108   1.295   3.432   4.590
 1029SOL     OW 3109   0.459   3.014   4.465
 1029SOL    HW1 3110   0.388   2.987   4.530
 1029SOL    HW2 3111   0.433   2.986   4.372
 1030SOL     OW 3112   1.271   3.659   4.315
 1030SOL    HW1 3113   1.315   3.723   4.251
 1030SOL    HW2 3114   1.221   3.711   4.385
 1031SOL     OW 3115   1.032   2.411   3.740
 1031SOL    HW1 3116   0.991   2.493   3.701
 1031SOL    HW2 3117   1.096   2.437   3.813
 1032SOL     OW 3118   0.866   2.316   4.366
 1032SOL    HW1 3119   0.834   2.388   4.304
 1032SOL    HW2 3120   0.890   2.235   4.313
 1033SOL     OW 3121   1.017   1.901   4.477
 1033SOL    HW1 3122   0.945   1.906   4.408
 1033SOL    HW2 3123   0.993   1.832   4.546
 1034SOL     OW 3124   1.429   3.035   4.591
 1034SOL    HW1 3125   1.374   2.951   4.584
 1034SOL    HW2 3126   1.455   3.064   4.499
 1035SOL     OW 3127   1.466   2.452   4.716
 1035SOL    HW1 3128   1.436   2.357   4.723
 1035SOL    HW2 3129   1.539   2.468   4.782
 1036SOL     OW 3130   1.857   2.695   4.101
 1036SOL    HW1 3131   1.899   2.631   4.165
 1036SOL    HW2 3132   1.819   2.644   4.023
 1037SOL     OW 3133   0.488   3.247   3.898
 1037SOL    HW1 3134   0.401   3.232   3.945
 1037SOL    HW2 3135   0.471   3.273   3.803
 1038SOL     OW 3136   1.664   3.142   4.381
 1038SOL    HW1 3137   1.763   3.150   4.395
 1038SOL    HW2 3138   1.619   3.226   4.412
 1039SOL     OW 3139   1.390   2.437   3.802
 1039SOL    HW1 3140   1.336   2.416   3.883
 1039SOL    HW2 3141   1.481   2.396   3.811
 1040SOL     OW 3142   0.527   2.118   4.052
 1040SOL    HW1 3143   0.554   2.059   3.977
 1040SOL    HW2 3144   0.527   2.213   4.021
 1041SOL     OW 3145   1.638   2.961   4.803
 1041SOL    HW1 3146   1.643   3.042   4.862
 1041SOL    HW2 3147   1.552   2.963   4.752
 1042SOL     OW 3148   0.705   2.912   4.092
 1042SOL    HW1 3149   0.691   2.919   4.191
 1042SOL    HW2 3150   0.789   2.861   4.074
 1043SOL     OW 3151   0.367   2.962   4.225
 1043SOL    HW1 3152   0.360   3.045   4.169
 1043SOL    HW2 3153   0.371   2.882   4.165
 1044SOL     OW 3154   0.566   2.399   4.589
 1044SOL    HW1 3155   0.578   2.465   4.515
 1044SOL    HW2 3156   0.612   2.433   4.672
 1045SOL     OW 3157   1.252   3.210   4.112
 1045SOL    HW1 3158   1.302   3.287   4.152
 1045SOL    HW2 3159   1.157   3.212   4.144
 1046SOL     OW 3160   1.582   2.501   4.196
 1046SOL    HW1 3161   1.551   2.562   4.269
 1046SOL    HW2 3162   1.632   2.553   4.127
 1047SOL     OW 3163   0.573   2.732   4.753
 1047SOL    HW1 3164   0.617   2.821   4.744
 1047SOL    HW2 3165   0.510   2.732   4.830
 1048SOL     OW 3166   1.209   2.387   3.999
 1048SOL    HW1 3167   1.222   2.303   4.053
 1048SOL    HW2 3168   1.180   2.461   4.059
 1049SOL     OW 3169   0.307   2.075   4.955
 1049SOL    HW1 3170   0.284   2.112   5.045
 1049SOL    HW2 3171   0.277   1.980   4.949
 1050SOL     OW 3172   0.732   2.496   4.788
 1050SOL    HW1 3173   0.791   2.470   4.712
 1050SOL    HW2 3174   0.704   2.592   4.777
 1051SOL     OW 3175   0.307   1.925   4.342
 1051SOL    HW1 3176   0.296   2.019   4.375
 1051SOL    HW2 3177   0.302   1.862   4.419
 1052SOL     OW 3178   1.622   2.229   4.098
 1052SOL    HW1 3179   1.624   2.153   4.162
 1052SOL    HW2 3180   1.574   2.306   4.138
 1053SOL     OW 3181   1.023   2.628   4.690
 1053SOL    HW1 3182   1.038   2.649   4.786
 1053SOL    HW2 3183   0.993   2.533   4.681
 1054SOL     OW 3184   1.540   2.136   3.849
 1054SOL    HW1 3185   1.479   2.061   3.872
 1054SOL    HW2 3186   1.562   2.188   3.932
 1055SOL     OW 3187   1.303   2.700   3.766
 1055SOL    HW1 3188   1.337   2.607   3.781
 1055SOL    HW2 3189   1.321   2.727   3.671
 1056SOL     OW 3190   1.068   3.195   4.573
 1056SOL    HW1 3191   1.075   3.111   4.518
 1056SOL    HW2 3192   1.130   3.264   4.537
 1057SOL     OW 3193   0.319   2.672   4.673
 1057SOL    HW1 3194   0.412   2.708   4.678
 1057SOL    HW2 3195   0.313   2.587   4.725
 1058SOL     OW 3196   0.339   2.371   4.730
 1058SOL    HW1 3197   0.287   2.288   4.713
 1058SOL    HW2 3198   0.416   2.376   4.666
 1059SOL     OW 3199   0.008   3.188   3.924
 1059SOL    HW1 3200  -0.085   3.209   3.893
 1059SOL    HW2 3201   0.018   3.089   3.937
 1060SOL     OW 3202   0.088   3.663   4.651
 1060SOL    HW1 3203   0.046   3.577   4.624
 1060SOL    HW2 3204   0.182   3.666   4.617
 1061SOL     OW 3205   0.504   3.430   4.634
 1061SOL    HW1 3206   0.570   3.504   4.643
 1061SOL    HW2 3207   0.548   3.351   4.592
 1062SOL     OW 3208   1.002   2.658   4.962
 1062SOL    HW1 3209   1.043   2.626   5.048
 1062SOL    HW2 3210   0.906   2.631   4.959
 1063SOL     OW 3211   0.815   2.434   4.049
 1063SOL    HW1 3212   0.822   2.345   4.003
 1063SOL    HW2 3213   0.721   2.468   4.041
 1064SOL     OW 3214   0.671   2.326   4.993
 1064SOL    HW1 3215   0.637   2.237   4.963
 1064SOL    HW2 3216   0.697   2.380   4.913
 1065SOL     OW 3217   0.473   2.362   3.915
 1065SOL    HW1 3218   0.534   2.442   3.919
 1065SOL    HW2 3219   0.378   2.393   3.922
 1066SOL     OW 3220   1.302   2.717   4.033
 1066SOL    HW1 3221   1.216   2.686   4.075
 1066SOL    HW2 3222   1.298   2.703   3.934
 1067SOL     OW 3223   1.759   3.609   4.878
 1067SOL    HW1 3224   1.820   3.639   4.805
 1067SOL    HW2 3225   1.721   3.520   4.856
 1068SOL     OW 3226   0.083   3.120   4.746
 1068SOL    HW1 3227   0.078   3.119   4.846
 1068SOL    HW2 3228   0.000   3.079   4.708
 1069SOL     OW 3229   1.726   1.997   4.247
 1069SOL    HW1 3230   1.799   1.980   4.180
 1069SOL    HW2 3231   1.695   1.910   4.285
 1070SOL     OW 3232   1.388   3.435   4.201
 1070SOL    HW1 3233   1.455   3.447   4.127
 1070SOL    HW2 3234   1.348   3.524   4.224
 1071SOL     OW 3235   1.280   2.789   4.396
 1071SOL    HW1 3236   1.340   2.708   4.398
 1071SOL    HW2 3237   1.320   2.858   4.336
 1072SOL     OW 3238   0.672   3.478   3.878
 1072SOL    HW1 3239   0.681   3.488   3.779
 1072SOL    HW2 3240   0.632   3.389   3.899
 1073SOL     OW 3241   1.841   2.037   4.687
 1073SOL    HW1 3242   1.880   1.952   4.651
 1073SOL    HW2 3243   1.743   2.039   4.668
 1074SOL     OW 3244   0.263   2.188   4.444
 1074SOL    HW1 3245   0.184   2.239   4.410
 1074SOL    HW2 3246   0.254   2.173   4.542
 1075SOL     OW 3247   1.194   3.474   3.755
 1075SOL    HW1 3248   1.200   3.381   3.792
 1075SOL    HW2 3249   1.135   3.474   3.675
 1076SOL     OW 3250   0.916   2.772   4.015
 1076SOL    HW1 3251   0.979   2.810   3.947
 1076SOL    HW2 3252   0.956   2.689   4.054
 1077SOL     OW 3253   1.504   3.469   3.768
 1077SOL    HW1 3254   1.412   3.506   3.775
 1077SOL    HW2 3255   1.542   3.489   3.678
 1078SOL     OW 3256   1.039   2.960   4.420
 1078SOL    HW1 3257   0.969   2.913   4.474
 1078SOL    HW2 3258   1.098   2.892   4.377
 1079SOL     OW 3259   1.014   2.098   4.695
 1079SOL    HW1 3260   1.006   2.062   4.602
 1079SOL    HW2 3261   1.012   2.022   4.760
 1080SOL     OW 3262   0.590   3.349   4.215
 1080SOL    HW1 3263   0.632   3.291   4.145
 1080SOL    HW2 3264   0.546   3.428   4.171
 1081SOL     OW 3265   0.255   3.210   4.014
 1081SOL    HW1 3266   0.159   3.211   3.987
 1081SOL    HW2 3267   0.267   3.263   4.098
 1082SOL     OW 3268   0.075   2.207   3.757
 1082SOL    HW1 3269  -0.017   2.179   3.728
 1082SOL    HW2 3270   0.106   2.284   3.701
 1083SOL     OW 3271   0.072   2.028   4.042
 1083SOL    HW1 3272   0.055   2.111   3.988
 1083SOL    HW2 3273   0.162   1.991   4.020
 1084SOL     OW 3274   1.183   3.197   3.843
 1084SOL    HW1 3275   1.084   3.186   3.845
 1084SOL    HW2 3276   1.217   3.212   3.936
 1085SOL     OW 3277   1.493   3.629   4.683
 1085SOL    HW1 3278   1.526   3.693   4.614
 1085SOL    HW2 3279   1.559   3.623   4.758
 1086SOL     OW 3280   1.674   2.745   4.978
 1086SOL    HW1 3281   1.647   2.656   4.941
 1086SOL    HW2 3282   1.675   2.813   4.905
 1087SOL     OW 3283   1.225   2.187   4.173
 1087SOL    HW1 3284   1.290   2.113   4.162
 1087SOL    HW2 3285   1.245   2.237   4.257
 1088SOL     OW 3286   0.594   2.607   4.376
 1088SOL    HW1 3287   0.644   2.692   4.357
 1088SOL    HW2 3288   0.506   2.609   4.328
 1089SOL     OW 3289   0.859   3.236   3.740
 1089SOL    HW1 3290   0.813   3.251   3.828
 1089SOL    HW2 3291   0.903   3.321   3.710
 1090SOL     OW 3292   0.661   3.652   4.677
 1090SOL    HW1 3293   0.615   3.740   4.664
 1090SOL    HW2 3294   0.760   3.664   4.670
 1091SOL     OW 3295   0.859   2.818   4.585
 1091SOL    HW1 3296   0.913   2.749   4.633
 1091SOL    HW2 3297   0.827   2.887   4.651
 1092SOL     OW 3298   1.083   2.846   3.811
 1092SOL    HW1 3299   1.060   2.899   3.729
 1092SOL    HW2 3300   1.164   2.790   3.792
 1093SOL     OW 3301   1.861   3.431   4.575
 1093SOL    HW1 3302   1.790   3.419   4.505
 1093SOL    HW2 3303   1.862   3.352   4.635
 1094SOL     OW 3304   0.079   3.102   4.377
 1094SOL    HW1 3305   0.078   3.055   4.465
 1094SOL    HW2 3306   0.161   3.074   4.326
 1095SOL     OW 3307   1.824   2.054   4.951
 1095SOL    HW1 3308   1.820   1.964   4.995
 1095SOL    HW2 3309   1.827   2.043   4.852
 1096SOL     OW 3310   0.428   2.286   4.244
 1096SOL    HW1 3311   0.458   2.214   4.182
 1096SOL    HW2 3312   0.389   2.246   4.327
 1097SOL     OW 3313   0.812   3.448   4.411
 1097SOL    HW1 3314   0.844   3.458   4.317
 1097SOL    HW2 3315   0.733   3.386   4.413
 1098SOL     OW 3316   0.770   3.192   4.025
 1098SOL    HW1 3317   0.724   3.105   4.042
 1098SOL    HW2 3318   0.861   3.189   4.066
 1099SOL     OW 3319   1.352   1.914   3.892
 1099SOL    HW1 3320   1.387   1.873   3.808
 1099SOL    HW2 3321   1.262   1.876   3.912
 1100SOL     OW 3322   1.300   2.315   4.415
 1100SOL    HW1 3323   1.241   2.395   4.419
 1100SOL    HW2 3324   1.315   2.280   4.508
 1101SOL     OW 3325   1.593   2.083   4.606
 1101SOL    HW1 3326   1.509   2.082   4.660
 1101SOL    HW2 3327   1.595   2.166   4.550
 1102SOL     OW 3328   0.039   2.939   4.024
 1102SOL    HW1 3329   0.138   2.928   4.015
 1102SOL    HW2 3330  -0.001   2.853   4.056
 1103SOL     OW 3331   0.875   3.508   4.061
 1103SOL    HW1 3332   0.798   3.473   4.007
 1103SOL    HW2 3333   0.843   3.579   4.123
 1104SOL     OW 3334   0.230   4.352   0.113
 1104SOL    HW1 3335   0.137   4.350   0.150
 1104SOL    HW2 3336   0.231   4.313   0.021
 1105SOL     OW 3337   0.225   3.999   0.996
 1105SOL    HW1 3338   0.260   3.982   1.088
 1105SOL    HW2 3339   0.137   3.954   0.984
 1106SOL     OW 3340   0.019   4.092   0.647
 1106SOL    HW1 3341  -0.063   4.135   0.686
 1106SOL    HW2 3342  -0.009   4.019   0.584
 1107SOL     OW 3343   1.135   4.427   0.717
 1107SOL    HW1 3344   1.192   4.505   0.692
 1107SOL    HW2 3345   1.075   4.453   0.793
 1108SOL     OW 3346   1.755   4.331   0.231
 1108SOL    HW1 3347   1.743   4.318   0.132
 1108SOL    HW2 3348   1.725   4.250   0.280
 1109SOL     OW 3349   0.768   4.868   1.023
 1109SOL    HW1 3350   0.690   4.885   1.083
 1109SOL    HW2 3351   0.802   4.955   0.987
 1110SOL     OW 3352   0.850   4.522   1.823
 1110SOL    HW1 3353   0.846   4.598   1.888
 1110SOL    HW2 3354   0.872   4.558   1.732
 1111SOL     OW 3355   0.685   4.736   0.665
 1111SOL    HW1 3356   0.754   4.720   0.735
 1111SOL    HW2 3357   0.612   4.793   0.703
 1112SOL     OW 3358   0.438   4.116   1.499
 1112SOL    HW1 3359   0.520   4.060   1.508
 1112SOL    HW2 3360   0.357   4.058   1.503
 1113SOL     OW 3361   1.603   4.171   0.737
 1113SOL    HW1 3362   1.529   4.217   0.687
 1113SOL    HW2 3363   1.654   4.239   0.790
 1114SOL     OW 3364   0.240   4.815   0.886
 1114SOL    HW1 3365   0.254   4.731   0.938
 1114SOL    HW2 3366   0.185   4.879   0.941
 1115SOL     OW 3367   0.606   4.688   0.123
 1115SOL    HW1 3368   0.613   4.772   0.069
 1115SOL    HW2 3369   0.652   4.701   0.211
 1116SOL     OW 3370   1.594   3.838   1.480
 1116SOL    HW1 3371   1.576   3.905   1.408
 1116SOL    HW2 3372   1.591   3.884   1.569
 1117SOL     OW 3373   0.122   4.367   0.563
 1117SOL    HW1 3374   0.077   4.279   0.580
 1117SOL    HW2 3375   0.121   4.421   0.647
 1118SOL     OW 3376   1.689   4.646   0.612
 1118SOL    HW1 3377   1.784   4.617   0.620
 1118SOL    HW2 3378   1.681   4.711   0.537
 1119SOL     OW 3379   0.113   4.461   1.597
 1119SOL    HW1 3380   0.201   4.448   1.642
 1119SOL    HW2 3381   0.100   4.558   1.575
 1120SOL     OW 3382   0.809   3.728   0.502
 1120SOL    HW1 3383   0.849   3.819   0.493
 1120SOL    HW2 3384   0.709   3.736   0.508
 1121SOL     OW 3385   0.197   4.700   1.264
 1121SOL    HW1 3386   0.286   4.655   1.250
 1121SOL    HW2 3387   0.124   4.635   1.245
 1122SOL     OW 3388   1.525   4.723   0.190
 1122SOL    HW1 3389   1.462   4.647   0.203
 1122SOL    HW2 3390   1.573   4.741   0.276
 1123SOL     OW 3391   0.317   3.975   1.801
 1123SOL    HW1 3392   0.388   4.046   1.807
 1123SOL    HW2 3393   0.229   4.014   1.829
 1124SOL     OW 3394   0.598   4.453   0.270
 1124SOL    HW1 3395   0.622   4.522   0.202
 1124SOL    HW2 3396   0.520   4.486   0.324
 1125SOL     OW 3397   1.281   4.069   0.944
 1125SOL    HW1 3398   1.195   4.019   0.931
 1125SOL    HW2 3399   1.343   4.015   1.000
 1126SOL     OW 3400   0.807   4.329   1.465
 1126SOL    HW1 3401   0.760   4.326   1.554
 1126SOL    HW2 3402   0.756   4.274   1.399
 1127SOL     OW 3403   1.394   4.193   1.674
 1127SOL    HW1 3404   1.374   4.236   1.762
 1127SOL    HW2 3405   1.472   4.131   1.683
 1128SOL     OW 3406   0.973   4.614   1.572
 1128SOL    HW1 3407   1.019   4.530   1.543
 1128SOL    HW2 3408   0.917   4.648   1.497
 1129SOL     OW 3409   0.991   4.134   1.242
 1129SOL    HW1 3410   0.914   4.168   1.296
 1129SOL    HW2 3411   0.957   4.083   1.163
 1130SOL     OW 3412   1.041   4.425   0.429
 1130SOL    HW1 3413   1.067   4.421   0.525
 1130SOL    HW2 3414   0.956   4.374   0.415
 1131SOL     OW 3415   0.076   4.535   0.789
 1131SOL    HW1 3416   0.175   4.523   0.798
 1131SOL    HW2 3417   0.052   4.630   0.810
 1132SOL     OW 3418   0.865   4.072   0.195
 1132SOL    HW1 3419   0.924   4.135   0.146
 1132SOL    HW2 3420   0.884   3.978   0.166
 1133SOL     OW 3421   1.719   4.309   1.831
 1133SOL    HW1 3422   1.693   4.398   1.795
 1133SOL    HW2 3423   1.717   4.241   1.758
 1134SOL     OW 3424   0.550   3.920   0.885
 1134SOL    HW1 3425   0.545   3.915   0.985
 1134SOL    HW2 3426   0.552   4.016   0.856
 1135SOL     OW 3427   1.795   4.790   0.873
 1135SOL    HW1 3428   1.733   4.775   0.797
 1135SOL    HW2 3429   1.743   4.801   0.958
 1136SOL     OW 3430   1.458   4.459   0.728
 1136SOL    HW1 3431   1.453   4.394   0.803
 1136SOL    HW2 3432   1.538   4.518   0.741
 1137SOL     OW 3433   0.202   4.009   1.498
 1137SOL    HW1 3434   0.122   4.069   1.485
 1137SOL    HW2 3435   0.192   3.960   1.584
 1138SOL     OW 3436   1.400   3.831   0.426
 1138SOL    HW1 3437   1.376   3.794   0.336
 1138SOL    HW2 3438   1.499   3.847   0.430
 1139SOL     OW 3439   0.382   4.424   0.480
 1139SOL    HW1 3440   0.427   4.334   0.477
 1139SOL    HW2 3441   0.288   4.413   0.513
 1140SOL     OW 3442   1.547   3.946   1.729
 1140SOL    HW1 3443   1.542   3.983   1.821
 1140SOL    HW2 3444   1.475   3.877   1.717
 1141SOL     OW 3445   0.614   3.846   0.117
 1141SOL    HW1 3446   0.712   3.824   0.124
 1141SOL    HW2 3447   0.583   3.829   0.024
 1142SOL     OW 3448   0.781   3.988   1.749
 1142SOL    HW1 3449   0.848   3.927   1.792
 1142SOL    HW2 3450   0.708   4.007   1.814
 1143SOL     OW 3451   1.351   4.314   1.433
 1143SOL    HW1 3452   1.379   4.271   1.518
 1143SOL    HW2 3453   1.376   4.410   1.434
 1144SOL     OW 3454   0.922   4.227   0.899
 1144SOL    HW1 3455   0.897   4.218   0.803
 1144SOL    HW2 3456   0.970   4.145   0.930
 1145SOL     OW 3457   0.539   3.788   0.512
 1145SOL    HW1 3458   0.458   3.789   0.570
 1145SOL    HW2 3459   0.542   3.871   0.457
 1146SOL     OW 3460   0.935   3.960   0.480
 1146SOL    HW1 3461   0.887   4.001   0.402
 1146SOL    HW2 3462   1.034   3.958   0.461
 1147SOL     OW 3463   1.076   4.407   1.464
 1147SOL    HW1 3464   0.996   4.346   1.467
 1147SOL    HW2 3465   1.157   4.354   1.440
 1148SOL     OW 3466   1.032   4.273   0.016
 1148SOL    HW1 3467   0.991   4.355  -0.023
 1148SOL    HW2 3468   1.096   4.299   0.089
 1149SOL     OW 3469   0.078   4.280   1.386
 1149SOL    HW1 3470   0.170   4.279   1.345
 1149SOL    HW2 3471   0.072   4.354   1.453
 1150SOL     OW 3472   0.561   3.946   1.147
 1150SOL    HW1 3473   0.599   3.862   1.184
 1150SOL    HW2 3474   0.473   3.965   1.191
 1151SOL     OW 3475   0.866   4.178   0.642
 1151SOL    HW1 3476   0.834   4.250   0.580
 1151SOL    HW2 3477   0.890   4.097   0.589
 1152SOL     OW 3478   1.017   3.763   0.753
 1152SOL    HW1 3479   0.945   3.768   0.684
 1152SOL    HW2 3480   0.993   3.694   0.822
 1153SOL     OW 3481   1.429   4.897   0.867
 1153SOL    HW1 3482   1.374   4.813   0.860
 1153SOL    HW2 3483   1.455   4.926   0.775
 1154SOL     OW 3484   1.466   4.314   0.992
 1154SOL    HW1 3485   1.436   4.219   0.999
 1154SOL    HW2 3486   1.539   4.330   1.058
 1155SOL     OW 3487   1.857   4.557   0.377
 1155SOL    HW1 3488   1.899   4.493   0.441
 1155SOL    HW2 3489   1.819   4.506   0.299
 1156SOL     OW 3490   1.390   4.299   0.078
 1156SOL    HW1 3491   1.336   4.278   0.159
 1156SOL    HW2 3492   1.481   4.258   0.087
 1157SOL     OW 3493   0.527   3.980   0.328
 1157SOL    HW1 3494   0.554   3.921   0.253
 1157SOL    HW2 3495   0.527   4.075   0.297
 1158SOL     OW 3496   1.638   4.823   1.079
 1158SOL    HW1 3497   1.643   4.904   1.138
 1158SOL    HW2 3498   1.552   4.825   1.028
 1159SOL     OW 3499   0.915   3.813   1.402
 1159SOL    HW1 3500   0.940   3.793   1.307
 1159SOL    HW2 3501   0.987   3.869   1.444
 1160SOL     OW 3502   0.410   4.537   1.251
 1160SOL    HW1 3503   0.496   4.549   1.301
 1160SOL    HW2 3504   0.368   4.450   1.278
 1161SOL     OW 3505   1.274   4.110   1.262
 1161SOL    HW1 3506   1.295   4.184   1.326
 1161SOL    HW2 3507   1.185   4.127   1.219
 1162SOL     OW 3508   0.566   4.261   0.865
 1162SOL    HW1 3509   0.578   4.327   0.791
 1162SOL    HW2 3510   0.612   4.295   0.948
 1163SOL     OW 3511   1.582   4.363   0.472
 1163SOL    HW1 3512   1.551   4.424   0.545
 1163SOL    HW2 3513   1.632   4.415   0.403
 1164SOL     OW 3514   0.402   4.475   1.598
 1164SOL    HW1 3515   0.470   4.530   1.551
 1164SOL    HW2 3516   0.442   4.387   1.625
 1165SOL     OW 3517   1.587   4.503   1.670
 1165SOL    HW1 3518   1.495   4.541   1.665
 1165SOL    HW2 3519   1.647   4.550   1.605
 1166SOL     OW 3520   1.013   3.829   1.770
 1166SOL    HW1 3521   1.019   3.914   1.718
 1166SOL    HW2 3522   1.045   3.753   1.713
 1167SOL     OW 3523   0.504   3.774   1.740
 1167SOL    HW1 3524   0.462   3.717   1.670
 1167SOL    HW2 3525   0.438   3.843   1.772
 1168SOL     OW 3526   0.573   4.594   1.029
 1168SOL    HW1 3527   0.617   4.683   1.020
 1168SOL    HW2 3528   0.510   4.594   1.106
 1169SOL     OW 3529   1.360   4.586   1.045
 1169SOL    HW1 3530   1.285   4.586   0.979
 1169SOL    HW2 3531   1.397   4.494   1.054
 1170SOL     OW 3532   1.209   4.249   0.275
 1170SOL    HW1 3533   1.222   4.165   0.329
 1170SOL    HW2 3534   1.180   4.323   0.335
 1171SOL     OW 3535   0.307   3.937   1.231
 1171SOL    HW1 3536   0.284   3.974   1.321
 1171SOL    HW2 3537   0.277   3.842   1.225
 1172SOL     OW 3538   0.037   5.034   1.282
 1172SOL    HW1 3539   0.090   4.985   1.350
 1172SOL    HW2 3540   0.059   5.132   1.287
 1173SOL     OW 3541   0.732   4.358   1.064
 1173SOL    HW1 3542   0.791   4.332   0.988
 1173SOL    HW2 3543   0.704   4.454   1.053
 1174SOL     OW 3544   1.728   4.659   1.854
 1174SOL    HW1 3545   1.682   4.652   1.765
 1174SOL    HW2 3546   1.666   4.703   1.920
 1175SOL     OW 3547   0.307   3.787   0.618
 1175SOL    HW1 3548   0.296   3.881   0.651
 1175SOL    HW2 3549   0.302   3.724   0.695
 1176SOL     OW 3550   1.622   4.091   0.374
 1176SOL    HW1 3551   1.624   4.015   0.438
 1176SOL    HW2 3552   1.574   4.168   0.414
 1177SOL     OW 3553   1.023   4.490   0.966
 1177SOL    HW1 3554   1.038   4.511   1.062
 1177SOL    HW2 3555   0.993   4.395   0.957
 1178SOL     OW 3556   0.350   4.622   1.804
 1178SOL    HW1 3557   0.426   4.666   1.852
 1178SOL    HW2 3558   0.385   4.575   1.722
 1179SOL     OW 3559   1.540   3.998   0.125
 1179SOL    HW1 3560   1.479   3.923   0.148
 1179SOL    HW2 3561   1.562   4.050   0.208
 1180SOL     OW 3562   1.303   4.562   0.042
 1180SOL    HW1 3563   1.337   4.469   0.057
 1180SOL    HW2 3564   1.321   4.589  -0.053
 1181SOL     OW 3565   0.319   4.534   0.949
 1181SOL    HW1 3566   0.412   4.570   0.954
 1181SOL    HW2 3567   0.313   4.449   1.001
 1182SOL     OW 3568   0.339   4.233   1.006
 1182SOL    HW1 3569   0.287   4.150   0.989
 1182SOL    HW2 3570   0.416   4.238   0.942
 1183SOL     OW 3571   1.138   4.104   1.678
 1183SOL    HW1 3572   1.093   4.167   1.742
 1183SOL    HW2 3573   1.231   4.135   1.661
 1184SOL     OW 3574   1.160   3.931   1.477
 1184SOL    HW1 3575   1.160   3.995   1.554
 1184SOL    HW2 3576   1.188   3.979   1.394
 1185SOL     OW 3577   1.002   4.520   1.238
 1185SOL    HW1 3578   1.043   4.488   1.324
 1185SOL    HW2 3579   0.906   4.493   1.235
 1186SOL     OW 3580   0.040   4.268   1.114
 1186SOL    HW1 3581   0.125   4.235   1.073
 1186SOL    HW2 3582   0.053   4.283   1.212
 1187SOL     OW 3583   0.189   4.244   1.722
 1187SOL    HW1 3584   0.248   4.204   1.652
 1187SOL    HW2 3585   0.131   4.315   1.681
 1188SOL     OW 3586   1.369   4.674   1.660
 1188SOL    HW1 3587   1.408   4.763   1.680
 1188SOL    HW2 3588   1.379   4.654   1.563
 1189SOL     OW 3589   0.815   4.296   0.325
 1189SOL    HW1 3590   0.822   4.207   0.279
 1189SOL    HW2 3591   0.721   4.330   0.317
 1190SOL     OW 3592   1.657   4.328   1.206
 1190SOL    HW1 3593   1.619   4.259   1.268
 1190SOL    HW2 3594   1.739   4.292   1.162
 1191SOL     OW 3595   0.671   4.188   1.269
 1191SOL    HW1 3596   0.637   4.099   1.239
 1191SOL    HW2 3597   0.697   4.242   1.189
 1192SOL     OW 3598   0.473   4.224   0.191
 1192SOL    HW1 3599   0.534   4.304   0.195
 1192SOL    HW2 3600   0.378   4.255   0.198
 1193SOL     OW 3601   0.159   4.861   1.466
 1193SOL    HW1 3602   0.181   4.800   1.542
 1193SOL    HW2 3603   0.169   4.812   1.380
 1194SOL     OW 3604   1.347   4.783   1.234
 1194SOL    HW1 3605   1.371   4.720   1.160
 1194SOL    HW2 3606   1.257   4.823   1.216
 1195SOL     OW 3607   1.302   4.579   0.309
 1195SOL    HW1 3608   1.216   4.548   0.351
 1195SOL    HW2 3609   1.298   4.565   0.210
 1196SOL     OW 3610   0.903   3.810   0.133
 1196SOL    HW1 3611   0.954   3.811   0.047
 1196SOL    HW2 3612   0.959   3.768   0.204
 1197SOL     OW 3613   1.726   3.859   0.523
 1197SOL    HW1 3614   1.799   3.842   0.456
 1197SOL    HW2 3615   1.695   3.772   0.561
 1198SOL     OW 3616   1.280   4.651   0.672
 1198SOL    HW1 3617   1.340   4.570   0.674
 1198SOL    HW2 3618   1.320   4.720   0.612
 1199SOL     OW 3619   1.841   3.899   0.963
 1199SOL    HW1 3620   1.880   3.814   0.927
 1199SOL    HW2 3621   1.743   3.901   0.944
 1200SOL     OW 3622   0.263   4.050   0.720
 1200SOL    HW1 3623   0.184   4.101   0.686
 1200SOL    HW2 3624   0.254   4.035   0.818
 1201SOL     OW 3625   0.916   4.634   0.291
 1201SOL    HW1 3626   0.979   4.672   0.223
 1201SOL    HW2 3627   0.956   4.551   0.330
 1202SOL     OW 3628   1.014   3.960   0.971
 1202SOL    HW1 3629   1.006   3.924   0.878
 1202SOL    HW2 3630   1.012   3.884   1.036
 1203SOL     OW 3631   1.709   4.109   1.381
 1203SOL    HW1 3632   1.782   4.178   1.385
 1203SOL    HW2 3633   1.737   4.034   1.322
 1204SOL     OW 3634   0.105   4.737   1.726
 1204SOL    HW1 3635   0.028   4.704   1.780
 1204SOL    HW2 3636   0.190   4.707   1.768
 1205SOL     OW 3637   0.672   3.927   1.489
 1205SOL    HW1 3638   0.762   3.911   1.449
 1205SOL    HW2 3639   0.680   3.932   1.588
 1206SOL     OW 3640   0.075   4.069   0.033
 1206SOL    HW1 3641  -0.017   4.041   0.004
 1206SOL    HW2 3642   0.106   4.146  -0.023
 1207SOL     OW 3643   1.440   4.580   1.398
 1207SOL    HW1 3644   1.383   4.632   1.335
 1207SOL    HW2 3645   1.536   4.592   1.374
 1208SOL     OW 3646   0.072   3.890   0.318
 1208SOL    HW1 3647   0.055   3.973   0.264
 1208SOL    HW2 3648   0.162   3.853   0.296
 1209SOL     OW 3649   1.183   5.059   0.119
 1209SOL    HW1 3650   1.084   5.048   0.121
 1209SOL    HW2 3651   1.217   5.074   0.212
 1210SOL     OW 3652   0.613   4.566   1.431
 1210SOL    HW1 3653   0.669   4.647   1.414
 1210SOL    HW2 3654   0.672   4.486   1.434
 1211SOL     OW 3655   0.716   4.289   1.708
 1211SOL    HW1 3656   0.735   4.354   1.782
 1211SOL    HW2 3657   0.776   4.209   1.717
 1212SOL     OW 3658   1.674   4.607   1.254
 1212SOL    HW1 3659   1.647   4.518   1.217
 1212SOL    HW2 3660   1.675   4.675   1.181
 1213SOL     OW 3661   1.225   4.049   0.449
 1213SOL    HW1 3662   1.290   3.975   0.438
 1213SOL    HW2 3663   1.245   4.099   0.533
 1214SOL     OW 3664   0.594   4.469   0.652
 1214SOL    HW1 3665   0.644   4.554   0.633
 1214SOL    HW2 3666   0.506   4.471   0.604
 1215SOL     OW 3667   1.777   4.066   1.642
 1215SOL    HW1 3668   1.760   4.097   1.548
 1215SOL    HW2 3669   1.693   4.029   1.680
 1216SOL     OW 3670   1.730   4.658   1.517
 1216SOL    HW1 3671   1.768   4.749   1.532
 1216SOL    HW2 3672   1.722   4.641   1.418
 1217SOL     OW 3673   0.859   4.680   0.861
 1217SOL    HW1 3674   0.913   4.611   0.909
 1217SOL    HW2 3675   0.827   4.749   0.927
 1218SOL     OW 3676   1.083   4.708   0.087
 1218SOL    HW1 3677   1.060   4.761   0.005
 1218SOL    HW2 3678   1.164   4.652   0.068
 1219SOL     OW 3679   1.824   3.916   1.227
 1219SOL    HW1 3680   1.820   3.826   1.271
 1219SOL    HW2 3681   1.827   3.905   1.128
 1220SOL     OW 3682   0.428   4.148   0.520
 1220SOL    HW1 3683   0.458   4.076   0.458
 1220SOL    HW2 3684   0.389   4.108   0.603
 1221SOL     OW 3685   0.317   4.271   1.280
 1221SOL    HW1 3686   0.355   4.212   1.352
 1221SOL    HW2 3687   0.357   4.245   1.192
 1222SOL     OW 3688   1.424   3.938   1.112
 1222SOL    HW1 3689   1.476   3.873   1.167
 1222SOL    HW2 3690   1.375   4.001   1.173
 1223SOL     OW 3691   1.001   3.758   1.154
 1223SOL    HW1 3692   0.938   3.686   1.123
 1223SOL    HW2 3693   1.094   3.722   1.154
 1224SOL     OW 3694   1.352   3.776   0.168
 1224SOL    HW1 3695   1.387   3.735   0.084
 1224SOL    HW2 3696   1.262   3.738   0.188
 1225SOL     OW 3697   1.300   4.177   0.691
 1225SOL    HW1 3698   1.241   4.257   0.695
 1225SOL    HW2 3699   1.315   4.142   0.784
 1226SOL     OW 3700   1.593   3.945   0.882
 1226SOL    HW1 3701   1.509   3.944   0.936
 1226SOL    HW2 3702   1.595   4.028   0.826
 1227SOL     OW 3703   0.039   4.801   0.300
 1227SOL    HW1 3704   0.138   4.790   0.291
 1227SOL    HW2 3705  -0.001   4.715   0.332
 1228SOL     OW 3706   0.230   4.352   1.975
 1228SOL    HW1 3707   0.137   4.350   2.012
 1228SOL    HW2 3708   0.231   4.313   1.883
 1229SOL     OW 3709   0.225   3.999   2.858
 1229SOL    HW1 3710   0.260   3.982   2.950
 1229SOL    HW2 3711   0.137   3.954   2.846
 1230SOL     OW 3712   0.019   4.092   2.509
 1230SOL    HW1 3713  -0.063   4.135   2.548
 1230SOL    HW2 3714  -0.009   4.019   2.446
 1231SOL     OW 3715   1.135   4.427   2.579
 1231SOL    HW1 3716   1.192   4.505   2.554
 1231SOL    HW2 3717   1.075   4.453   2.655
 1232SOL     OW 3718   1.755   4.331   2.093
 1232SOL    HW1 3719   1.743   4.318   1.994
 1232SOL    HW2 3720   1.725   4.250   2.142
 1233SOL     OW 3721   0.768   4.868   2.885
 1233SOL    HW1 3722   0.690   4.885   2.945
 1233SOL    HW2 3723   0.802   4.955   2.849
 1234SOL     OW 3724   0.850   4.522   3.685
 1234SOL    HW1 3725   0.846   4.598   3.750
 1234SOL    HW2 3726   0.872   4.558   3.594
 1235SOL     OW 3727   0.685   4.736   2.527
 1235SOL    HW1 3728   0.754   4.720   2.597
 1235SOL    HW2 3729   0.612   4.793   2.565
 1236SOL     OW 3730   0.438   4.116   3.361
 1236SOL    HW1 3731   0.520   4.060   3.370
 1236SOL    HW2 3732   0.357   4.058   3.365
 1237SOL     OW 3733   1.603   4.171   2.599
 1237SOL    HW1 3734   1.529   4.217   2.549
 1237SOL    HW2 3735   1.654   4.239   2.652
 1238SOL     OW 3736   0.240   4.815   2.748
 1238SOL    HW1 3737   0.254   4.731   2.800
 1238SOL    HW2 3738   0.185   4.879   2.803
 1239SOL     OW 3739   0.606   4.688   1.985
 1239SOL    HW1 3740   0.613   4.772   1.931
 1239SOL    HW2 3741   0.652   4.701   2.073
 1240SOL     OW 3742   1.594   3.838   3.342
 1240SOL    HW1 3743   1.576   3.905   3.270
 1240SOL    HW2 3744   1.591   3.884   3.431
 1241SOL     OW 3745   0.122   4.367   2.425
 1241SOL    HW1 3746   0.077   4.279   2.442
 1241SOL    HW2 3747   0.121   4.421   2.509
 1242SOL     OW 3748   1.689   4.646   2.474
 1242SOL    HW1 3749   1.784   4.617   2.482
 1242SOL    HW2 3750   1.681   4.711   2.399
 1243SOL     OW 3751   0.113   4.461   3.459
 1243SOL    HW1 3752   0.201   4.448   3.504
 1243SOL    HW2 3753   0.100   4.558   3.437
 1244SOL     OW 3754   0.809   3.728   2.364
 1244SOL    HW1 3755   0.849   3.819   2.355
 1244SOL    HW2 3756   0.709   3.736   2.370
 1245SOL     OW 3757   0.197   4.700   3.126
 1245SOL    HW1 3758   0.286   4.655   3.112
 1245SOL    HW2 3759   0.124   4.635   3.107
 1246SOL     OW 3760   1.525   4.723   2.052
 1246SOL    HW1 3761   1.462   4.647   2.065
 1246SOL    HW2 3762   1.573   4.741   2.138
 1247SOL     OW 3763   0.317   3.975   3.663
 1247SOL    HW1 3764   0.388   4.046   3.669
 1247SOL    HW2 3765   0.229   4.014   3.691
 1248SOL     OW 3766   0.598   4.453   2.132
 1248SOL    HW1 3767   0.622   4.522   2.064
 1248SOL    HW2 3768   0.520   4.486   2.186
 1249SOL     OW 3769   1.281   4.069   2.806
 1249SOL    HW1 3770   1.195   4.019   2.793
 1249SOL    HW2 3771   1.343   4.015   2.862
 1250SOL     OW 3772   0.807   4.329   3.327
 1250SOL    HW1 3773   0.760   4.326   3.416
 1250SOL    HW2 3774   0.756   4.274   3.261
 1251SOL     OW 3775   1.394   4.193   3.536
 1251SOL    HW1 3776   1.374   4.236   3.624
 1251SOL    HW2 3777   1.472   4.131   3.545
 1252SOL     OW 3778   0.973   4.614   3.434
 1252SOL    HW1 3779   1.019   4.530   3.405
 1252SOL    HW2 3780   0.917   4.648   3.359
 1253SOL     OW 3781   0.991   4.134   3.104
 1253SOL    HW1 3782   0.914   4.168   3.158
 1253SOL    HW2 3783   0.957   4.083   3.025
 1254SOL     OW 3784   1.041   4.425   2.291
 1254SOL    HW1 3785   1.067   4.421   2.387
 1254SOL    HW2 3786   0.956   4.374   2.277
 1255SOL     OW 3787   0.076   4.535   2.651
 1255SOL    HW1 3788   0.175   4.523   2.660
 1255SOL    HW2 3789   0.052   4.630   2.672
 1256SOL     OW 3790   0.865   4.072   2.057
 1256SOL    HW1 3791   0.924   4.135   2.008
 1256SOL    HW2 3792   0.884   3.978   2.028
 1257SOL     OW 3793   1.719   4.309   3.693
 1257SOL    HW1 3794   1.693   4.398   3.657
 1257SOL    HW2 3795   1.717   4.241   3.620
 1258SOL     OW 3796   0.550   3.920   2.747
 1258SOL    HW1 3797   0.545   3.915   2.847
 1258SOL    HW2 3798   0.552   4.016   2.718
 1259SOL     OW 3799   1.795   4.790   2.735
 1259SOL    HW1 3800   1.733   4.775   2.659
 1259SOL    HW2 3801   1.743   4.801   2.820
 1260SOL     OW 3802   1.458   4.459   2.590
 1260SOL    HW1 3803   1.453   4.394   2.665
 1260SOL    HW2 3804   1.538   4.518   2.603
 1261SOL     OW 3805   0.202   4.009   3.360
 1261SOL    HW1 3806   0.122   4.069   3.347
 1261SOL    HW2 3807   0.192   3.960   3.446
 1262SOL     OW 3808   1.400   3.831   2.288
 1262SOL    HW1 3809   1.376   3.794   2.198
 1262SOL    HW2 3810   1.499   3.847   2.292
 1263SOL     OW 3811   0.382   4.424   2.342
 1263SOL    HW1 3812   0.427   4.334   2.339
 1263SOL    HW2 3813   0.288   4.413   2.375
 1264SOL     OW 3814   1.547   3.946   3.591
 1264SOL    HW1 3815   1.542   3.983   3.683
 1264SOL    HW2 3816   1.475   3.877   3.579
 1265SOL     OW 3817   0.614   3.846   1.979
 1265SOL    HW1 3818   0.712   3.824   1.986
 1265SOL    HW2 3819   0.583   3.829   1.886
 1266SOL     OW 3820   0.781   3.988   3.611
 1266SOL    HW1 3821   0.848   3.927   3.654
 1266SOL    HW2 3822   0.708   4.007   3.676
 1267SOL     OW 3823   1.351   4.314   3.295
 1267SOL    HW1 3824   1.379   4.271   3.380
 1267SOL    HW2 3825   1.376   4.410   3.296
 1268SOL     OW 3826   0.922   4.227   2.761
 1268SOL    HW1 3827   0.897   4.218   2.665
 1268SOL    HW2 3828   0.970   4.145   2.792
 1269SOL     OW 3829   0.539   3.788   2.374
 1269SOL    HW1 3830   0.458   3.789   2.432
 1269SOL    HW2 3831   0.542   3.871   2.319
 1270SOL     OW 3832   0.297   3.759   2.033
 1270SOL    HW1 3833   0.346   3.843   2.012
 1270SOL    HW2 3834   0.359   3.694   2.078
 1271SOL     OW 3835   0.935   3.960   2.342
 1271SOL    HW1 3836   0.887   4.001   2.264
 1271SOL    HW2 3837   1.034   3.958   2.323
 1272SOL     OW 3838   1.076   4.407   3.326
 1272SOL    HW1 3839   0.996   4.346   3.329
 1272SOL    HW2 3840   1.157   4.354   3.302
 1273SOL     OW 3841   1.032   4.273   1.878
 1273SOL    HW1 3842   0.991   4.355   1.839
 1273SOL    HW2 3843   1.096   4.299   1.951
 1274SOL     OW 3844   0.078   4.280   3.248
 1274SOL    HW1 3845   0.170   4.279   3.207
 1274SOL    HW2 3846   0.072   4.354   3.315
 1275SOL     OW 3847   0.561   3.946   3.009
 1275SOL    HW1 3848   0.599   3.862   3.046
 1275SOL    HW2 3849   0.473   3.965   3.053
 1276SOL     OW 3850   0.866   4.178   2.504
 1276SOL    HW1 3851   0.834   4.250   2.442
 1276SOL    HW2 3852   0.890   4.097   2.451
 1277SOL     OW 3853   1.017   3.763   2.615
 1277SOL    HW1 3854   0.945   3.768   2.546
 1277SOL    HW2 3855   0.993   3.694   2.684
 1278SOL     OW 3856   1.429   4.897   2.729
 1278SOL    HW1 3857   1.374   4.813   2.722
 1278SOL    HW2 3858   1.455   4.926   2.637
 1279SOL     OW 3859   1.466   4.314   2.854
 1279SOL    HW1 3860   1.436   4.219   2.861
 1279SOL    HW2 3861   1.539   4.330   2.920
 1280SOL     OW 3862   1.857   4.557   2.239
 1280SOL    HW1 3863   1.899   4.493   2.303
 1280SOL    HW2 3864   1.819   4.506   2.161
 1281SOL     OW 3865   1.390   4.299   1.940
 1281SOL    HW1 3866   1.336   4.278   2.021
 1281SOL    HW2 3867   1.481   4.258   1.949
 1282SOL     OW 3868   0.527   3.980   2.190
 1282SOL    HW1 3869   0.554   3.921   2.115
 1282SOL    HW2 3870   0.527   4.075   2.159
 1283SOL     OW 3871   1.638   4.823   2.941
 1283SOL    HW1 3872   1.643   4.904   3.000
 1283SOL    HW2 3873   1.552   4.825   2.890
 1284SOL     OW 3874   0.915   3.813   3.264
 1284SOL    HW1 3875   0.940   3.793   3.169
 1284SOL    HW2 3876   0.987   3.869   3.306
 1285SOL     OW 3877   0.410   4.537   3.113
 1285SOL    HW1 3878   0.496   4.549   3.163
 1285SOL    HW2 3879   0.368   4.450   3.140
 1286SOL     OW 3880   1.274   4.110   3.124
 1286SOL    HW1 3881   1.295   4.184   3.188
 1286SOL    HW2 3882   1.185   4.127   3.081
 1287SOL     OW 3883   0.566   4.261   2.727
 1287SOL    HW1 3884   0.578   4.327   2.653
 1287SOL    HW2 3885   0.612   4.295   2.810
 1288SOL     OW 3886   1.582   4.363   2.334
 1288SOL    HW1 3887   1.551   4.424   2.407
 1288SOL    HW2 3888   1.632   4.415   2.265
 1289SOL     OW 3889   0.402   4.475   3.460
 1289SOL    HW1 3890   0.470   4.530   3.413
 1289SOL    HW2 3891   0.442   4.387   3.487
 1290SOL     OW 3892   1.587   4.503   3.532
 1290SOL    HW1 3893   1.495   4.541   3.527
 1290SOL    HW2 3894   1.647   4.550   3.467
 1291SOL     OW 3895   1.013   3.829   3.632
 1291SOL    HW1 3896   1.019   3.914   3.580
 1291SOL    HW2 3897   1.045   3.753   3.575
 1292SOL     OW 3898   0.504   3.774   3.602
 1292SOL    HW1 3899   0.462   3.717   3.532
 1292SOL    HW2 3900   0.438   3.843   3.634
 1293SOL     OW 3901   0.573   4.594   2.891
 1293SOL    HW1 3902   0.617   4.683   2.882
 1293SOL    HW2 3903   0.510   4.594   2.968
 1294SOL     OW 3904   1.360   4.586   2.907
 1294SOL    HW1 3905   1.285   4.586   2.841
 1294SOL    HW2 3906   1.397   4.494   2.916
 1295SOL     OW 3907   1.209   4.249   2.137
 1295SOL    HW1 3908   1.222   4.165   2.191
 1295SOL    HW2 3909   1.180   4.323   2.197
 1296SOL     OW 3910   0.307   3.937   3.093
 1296SOL    HW1 3911   0.284   3.974   3.183
 1296SOL    HW2 3912   0.277   3.842   3.087
 1297SOL     OW 3913   0.037   5.034   3.144
 1297SOL    HW1 3914   0.090   4.985   3.212
 1297SOL    HW2 3915   0.059   5.132   3.149
 1298SOL     OW 3916   0.732   4.358   2.926
 1298SOL    HW1 3917   0.791   4.332   2.850
 1298SOL    HW2 3918   0.704   4.454   2.915
 1299SOL     OW 3919   1.728   4.659   3.716
 1299SOL    HW1 3920   1.682   4.652   3.627
 1299SOL    HW2 3921   1.666   4.703   3.782
 1300SOL     OW 3922   0.307   3.787   2.480
 1300SOL    HW1 3923   0.296   3.881   2.513
 1300SOL    HW2 3924   0.302   3.724   2.557
 1301SOL     OW 3925   1.622   4.091   2.236
 1301SOL    HW1 3926   1.624   4.015   2.300
 1301SOL    HW2 3927   1.574   4.168   2.276
 1302SOL     OW 3928   1.023   4.490   2.828
 1302SOL    HW1 3929   1.038   4.511   2.924
 1302SOL    HW2 3930   0.993   4.395   2.819
 1303SOL     OW 3931   0.350   4.622   3.666
 1303SOL    HW1 3932   0.426   4.666   3.714
 1303SOL    HW2 3933   0.385   4.575   3.584
 1304SOL     OW 3934   1.540   3.998   1.987
 1304SOL    HW1 3935   1.479   3.923   2.010
 1304SOL    HW2 3936   1.562   4.050   2.070
 1305SOL     OW 3937   1.303   4.562   1.904
 1305SOL    HW1 3938   1.337   4.469   1.919
 1305SOL    HW2 3939   1.321   4.589   1.809
 1306SOL     OW 3940   0.319   4.534   2.811
 1306SOL    HW1 3941   0.412   4.570   2.816
 1306SOL    HW2 3942   0.313   4.449   2.863
 1307SOL     OW 3943   0.339   4.233   2.868
 1307SOL    HW1 3944   0.287   4.150   2.851
 1307SOL    HW2 3945   0.416   4.238   2.804
 1308SOL     OW 3946   1.138   4.104   3.540
 1308SOL    HW1 3947   1.093   4.167   3.604
 1308SOL    HW2 3948   1.231   4.135   3.523
 1309SOL     OW 3949   1.160   3.931   3.339
 1309SOL    HW1 3950   1.160   3.995   3.416
 1309SOL    HW2 3951   1.188   3.979   3.256
 1310SOL     OW 3952   1.002   4.520   3.100
 1310SOL    HW1 3953   1.043   4.488   3.186
 1310SOL    HW2 3954   0.906   4.493   3.097
 1311SOL     OW 3955   0.040   4.268   2.976
 1311SOL    HW1 3956   0.125   4.235   2.935
 1311SOL    HW2 3957   0.053   4.283   3.074
 1312SOL     OW 3958   0.189   4.244   3.584
 1312SOL    HW1 3959   0.248   4.204   3.514
 1312SOL    HW2 3960   0.131   4.315   3.543
 1313SOL     OW 3961   1.369   4.674   3.522
 1313SOL    HW1 3962   1.408   4.763   3.542
 1313SOL    HW2 3963   1.379   4.654   3.425
 1314SOL     OW 3964   0.815   4.296   2.187
 1314SOL    HW1 3965   0.822   4.207   2.141
 1314SOL    HW2 3966   0.721   4.330   2.179
 1315SOL     OW 3967   1.657   4.328   3.068
 1315SOL    HW1 3968   1.619   4.259   3.130
 1315SOL    HW2 3969   1.739   4.292   3.024
 1316SOL     OW 3970   0.671   4.188   3.131
 1316SOL    HW1 3971   0.637   4.099   3.101
 1316SOL    HW2 3972   0.697   4.242   3.051
 1317SOL     OW 3973   0.473   4.224   2.053
 1317SOL    HW1 3974   0.534   4.304   2.057
 1317SOL    HW2 3975   0.378   4.255   2.060
 1318SOL     OW 3976   0.159   4.861   3.328
 1318SOL    HW1 3977   0.181   4.800   3.404
 1318SOL    HW2 3978   0.169   4.812   3.242
 1319SOL     OW 3979   1.347   4.783   3.096
 1319SOL    HW1 3980   1.371   4.720   3.022
 1319SOL    HW2 3981   1.257   4.823   3.078
 1320SOL     OW 3982   1.302   4.579   2.171
 1320SOL    HW1 3983   1.216   4.548   2.213
 1320SOL    HW2 3984   1.298   4.565   2.072
 1321SOL     OW 3985   1.726   3.859   2.385
 1321SOL    HW1 3986   1.799   3.842   2.318
 1321SOL    HW2 3987   1.695   3.772   2.423
 1322SOL     OW 3988   1.280   4.651   2.534
 1322SOL    HW1 3989   1.340   4.570   2.536
 1322SOL    HW2 3990   1.320   4.720   2.474
 1323SOL     OW 3991   1.841   3.899   2.825
 1323SOL    HW1 3992   1.880   3.814   2.789
 1323SOL    HW2 3993   1.743   3.901   2.806
 1324SOL     OW 3994   0.263   4.050   2.582
 1324SOL    HW1 3995   0.184   4.101   2.548
 1324SOL    HW2 3996   0.254   4.035   2.680
 1325SOL     OW 3997   0.916   4.634   2.153
 1325SOL    HW1 3998   0.979   4.672   2.085
 1325SOL    HW2 3999   0.956   4.551   2.192
 1326SOL     OW 4000   1.014   3.960   2.833
 1326SOL    HW1 4001   1.006   3.924   2.740
 1326SOL    HW2 4002   1.012   3.884   2.898
 1327SOL     OW 4003   1.709   4.109   3.243
 1327SOL    HW1 4004   1.782   4.178   3.247
 1327SOL    HW2 4005   1.737   4.034   3.184
 1328SOL     OW 4006   0.105   4.737   3.588
 1328SOL    HW1 4007   0.028   4.704   3.642
 1328SOL    HW2 4008   0.190   4.707   3.630
 1329SOL     OW 4009   0.672   3.927   3.351
 1329SOL    HW1 4010   0.762   3.911   3.311
 1329SOL    HW2 4011   0.680   3.932   3.450
 1330SOL     OW 4012   0.075   4.069   1.895
 1330SOL    HW1 4013  -0.017   4.041   1.866
 1330SOL    HW2 4014   0.106   4.146   1.839
 1331SOL     OW 4015   1.440   4.580   3.260
 1331SOL    HW1 4016   1.383   4.632   3.197
 1331SOL    HW2 4017   1.536   4.592   3.236
 1332SOL     OW 4018   0.072   3.890   2.180
 1332SOL    HW1 4019   0.055   3.973   2.126
 1332SOL    HW2 4020   0.162   3.853   2.158
 1333SOL     OW 4021   1.183   5.059   1.981
 1333SOL    HW1 4022   1.084   5.048   1.983
 1333SOL    HW2 4023   1.217   5.074   2.074
 1334SOL     OW 4024   0.613   4.566   3.293
 1334SOL    HW1 4025   0.669   4.647   3.276
 1334SOL    HW2 4026   0.672   4.486   3.296
 1335SOL     OW 4027   0.716   4.289   3.570
 1335SOL    HW1 4028   0.735   4.354   3.644
 1335SOL    HW2 4029   0.776   4.209   3.579
 1336SOL     OW 4030   1.674   4.607   3.116
 1336SOL    HW1 4031   1.647   4.518   3.079
 1336SOL    HW2 4032   1.675   4.675   3.043
 1337SOL     OW 4033   1.225   4.049   2.311
 1337SOL    HW1 4034   1.290   3.975   2.300
 1337SOL    HW2 4035   1.245   4.099   2.395
 1338SOL     OW 4036   0.594   4.469   2.514
 1338SOL    HW1 4037   0.644   4.554   2.495
 1338SOL    HW2 4038   0.506   4.471   2.466
 1339SOL     OW 4039   1.777   4.066   3.504
 1339SOL    HW1 4040   1.760   4.097   3.410
 1339SOL    HW2 4041   1.693   4.029   3.542
 1340SOL     OW 4042   1.730   4.658   3.379
 1340SOL    HW1 4043   1.768   4.749   3.394
 1340SOL    HW2 4044   1.722   4.641   3.280
 1341SOL     OW 4045   0.859   4.680   2.723
 1341SOL    HW1 4046   0.913   4.611   2.771
 1341SOL    HW2 4047   0.827   4.749   2.789
 1342SOL     OW 4048   1.083   4.708   1.949
 1342SOL    HW1 4049   1.060   4.761   1.867
 1342SOL    HW2 4050   1.164   4.652   1.930
 1343SOL     OW 4051   1.824   3.916   3.089
 1343SOL    HW1 4052   1.820   3.826   3.133
 1343SOL    HW2 4053   1.827   3.905   2.990
 1344SOL     OW 4054   0.428   4.148   2.382
 1344SOL    HW1 4055   0.458   4.076   2.320
 1344SOL    HW2 4056   0.389   4.108   2.465
 1345SOL     OW 4057   0.317   4.271   3.142
 1345SOL    HW1 4058   0.355   4.212   3.214
 1345SOL    HW2 4059   0.357   4.245   3.054
 1346SOL     OW 4060   1.424   3.938   2.974
 1346SOL    HW1 4061   1.476   3.873   3.029
 1346SOL    HW2 4062   1.375   4.001   3.035
 1347SOL     OW 4063   1.001   3.758   3.016
 1347SOL    HW1 4064   0.938   3.686   2.985
 1347SOL    HW2 4065   1.094   3.722   3.016
 1348SOL     OW 4066   1.352   3.776   2.030
 1348SOL    HW1 4067   1.387   3.735   1.946
 1348SOL    HW2 4068   1.262   3.738   2.050
 1349SOL     OW 4069   1.300   4.177   2.553
 1349SOL    HW1 4070   1.241   4.257   2.557
 1349SOL    HW2 4071   1.315   4.142   2.646
 1350SOL     OW 4072   1.593   3.945   2.744
 1350SOL    HW1 4073   1.509   3.944   2.798
 1350SOL    HW2 4074   1.595   4.028   2.688
 1351SOL     OW 4075   0.039   4.801   2.162
 1351SOL    HW1 4076   0.138   4.790   2.153
 1351SOL    HW2 4077  -0.001   4.715   2.194
 1352SOL     OW 4078   0.230   4.352   3.837
 1352SOL    HW1 4079   0.137   4.350   3.874
 1352SOL    HW2 4080   0.231   4.313   3.745
 1353SOL     OW 4081   0.225   3.999   4.720
 1353SOL    HW1 4082   0.260   3.982   4.812
 1353SOL    HW2 4083   0.137   3.954   4.708
 1354SOL     OW 4084   0.019   4.092   4.371
 1354SOL    HW1 4085  -0.063   4.135   4.410
 1354SOL    HW2 4086  -0.009   4.019   4.308
 1355SOL     OW 4087   1.135   4.427   4.441
 1355SOL    HW1 4088   1.192   4.505   4.416
 1355SOL    HW2 4089   1.075   4.453   4.517
 1356SOL     OW 4090   1.755   4.331   3.955
 1356SOL    HW1 4091   1.743   4.318   3.856
 1356SOL    HW2 4092   1.725   4.250   4.004
 1357SOL     OW 4093   0.685   4.736   4.389
 1357SOL    HW1 4094   0.754   4.720   4.459
 1357SOL    HW2 4095   0.612   4.793   4.427
 1358SOL     OW 4096   1.603   4.171   4.461
 1358SOL    HW1 4097   1.529   4.217   4.411
 1358SOL    HW2 4098   1.654   4.239   4.514
 1359SOL     OW 4099   0.240   4.815   4.610
 1359SOL    HW1 4100   0.254   4.731   4.662
 1359SOL    HW2 4101   0.185   4.879   4.665
 1360SOL     OW 4102   0.606   4.688   3.847
 1360SOL    HW1 4103   0.613   4.772   3.793
 1360SOL    HW2 4104   0.652   4.701   3.935
 1361SOL     OW 4105   0.122   4.367   4.287
 1361SOL    HW1 4106   0.077   4.279   4.304
 1361SOL    HW2 4107   0.121   4.421   4.371
 1362SOL     OW 4108   1.689   4.646   4.336
 1362SOL    HW1 4109   1.784   4.617   4.344
 1362SOL    HW2 4110   1.681   4.711   4.261
 1363SOL     OW 4111   0.809   3.728   4.226
 1363SOL    HW1 4112   0.849   3.819   4.217
 1363SOL    HW2 4113   0.709   3.736   4.232
 1364SOL     OW 4114   0.197   4.700   4.988
 1364SOL    HW1 4115   0.286   4.655   4.974
 1364SOL    HW2 4116   0.124   4.635   4.969
 1365SOL     OW 4117   1.525   4.723   3.914
 1365SOL    HW1 4118   1.462   4.647   3.927
 1365SOL    HW2 4119   1.573   4.741   4.000
 1366SOL     OW 4120   0.598   4.453   3.994
 1366SOL    HW1 4121   0.622   4.522   3.926
 1366SOL    HW2 4122   0.520   4.486   4.048
 1367SOL     OW 4123   1.281   4.069   4.668
 1367SOL    HW1 4124   1.195   4.019   4.655
 1367SOL    HW2 4125   1.343   4.015   4.724
 1368SOL     OW 4126   1.041   4.425   4.153
 1368SOL    HW1 4127   1.067   4.421   4.249
 1368SOL    HW2 4128   0.956   4.374   4.139
 1369SOL     OW 4129   0.076   4.535   4.513
 1369SOL    HW1 4130   0.175   4.523   4.522
 1369SOL    HW2 4131   0.052   4.630   4.534
 1370SOL     OW 4132   0.865   4.072   3.919
 1370SOL    HW1 4133   0.924   4.135   3.870
 1370SOL    HW2 4134   0.884   3.978   3.890
 1371SOL     OW 4135   0.550   3.920   4.609
 1371SOL    HW1 4136   0.545   3.915   4.709
 1371SOL    HW2 4137   0.552   4.016   4.580
 1372SOL     OW 4138   1.795   4.790   4.597
 1372SOL    HW1 4139   1.733   4.775   4.521
 1372SOL    HW2 4140   1.743   4.801   4.682
 1373SOL     OW 4141   1.458   4.459   4.452
 1373SOL    HW1 4142   1.453   4.394   4.527
 1373SOL    HW2 4143   1.538   4.518   4.465
 1374SOL     OW 4144   1.400   3.831   4.150
 1374SOL    HW1 4145   1.376   3.794   4.060
 1374SOL    HW2 4146   1.499   3.847   4.154
 1375SOL     OW 4147   0.382   4.424   4.204
 1375SOL    HW1 4148   0.427   4.334   4.201
 1375SOL    HW2 4149   0.288   4.413   4.237
 1376SOL     OW 4150   0.614   3.846   3.841
 1376SOL    HW1 4151   0.712   3.824   3.848
 1376SOL    HW2 4152   0.583   3.829   3.748
 1377SOL     OW 4153   0.922   4.227   4.623
 1377SOL    HW1 4154   0.897   4.218   4.527
 1377SOL    HW2 4155   0.970   4.145   4.654
 1378SOL     OW 4156   0.539   3.788   4.236
 1378SOL    HW1 4157   0.458   3.789   4.294
 1378SOL    HW2 4158   0.542   3.871   4.181
 1379SOL     OW 4159   0.297   3.759   3.895
 1379SOL    HW1 4160   0.346   3.843   3.874
 1379SOL    HW2 4161   0.359   3.694   3.940
 1380SOL     OW 4162   0.935   3.960   4.204
 1380SOL    HW1 4163   0.887   4.001   4.126
 1380SOL    HW2 4164   1.034   3.958   4.185
 1381SOL     OW 4165   1.032   4.273   3.740
 1381SOL    HW1 4166   0.991   4.355   3.701
 1381SOL    HW2 4167   1.096   4.299   3.813
 1382SOL     OW 4168   0.866   4.178   4.366
 1382SOL    HW1 4169   0.834   4.250   4.304
 1382SOL    HW2 4170   0.890   4.097   4.313
 1383SOL     OW 4171   1.017   3.763   4.477
 1383SOL    HW1 4172   0.945   3.768   4.408
 1383SOL    HW2 4173   0.993   3.694   4.546
 1384SOL     OW 4174   1.429   4.897   4.591
 1384SOL    HW1 4175   1.374   4.813   4.584
 1384SOL    HW2 4176   1.455   4.926   4.499
 1385SOL     OW 4177   1.466   4.314   4.716
 1385SOL    HW1 4178   1.436   4.219   4.723
 1385SOL    HW2 4179   1.539   4.330   4.782
 1386SOL     OW 4180   1.857   4.557   4.101
 1386SOL    HW1 4181   1.899   4.493   4.165
 1386SOL    HW2 4182   1.819   4.506   4.023
 1387SOL     OW 4183   1.390   4.299   3.802
 1387SOL    HW1 4184   1.336   4.278   3.883
 1387SOL    HW2 4185   1.481   4.258   3.811
 1388SOL     OW 4186   0.527   3.980   4.052
 1388SOL    HW1 4187   0.554   3.921   3.977
 1388SOL    HW2 4188   0.527   4.075   4.021
 1389SOL     OW 4189   1.638   4.823   4.803
 1389SOL    HW1 4190   1.643   4.904   4.862
 1389SOL    HW2 4191   1.552   4.825   4.752
 1390SOL     OW 4192   0.566   4.261   4.589
 1390SOL    HW1 4193   0.578   4.327   4.515
 1390SOL    HW2 4194   0.612   4.295   4.672
 1391SOL     OW 4195   1.582   4.363   4.196
 1391SOL    HW1 4196   1.551   4.424   4.269
 1391SOL    HW2 4197   1.632   4.415   4.127
 1392SOL     OW 4198   0.573   4.594   4.753
 1392SOL    HW1 4199   0.617   4.683   4.744
 1392SOL    HW2 4200   0.510   4.594   4.830
 1393SOL     OW 4201   1.209   4.249   3.999
 1393SOL    HW1 4202   1.222   4.165   4.053
 1393SOL    HW2 4203   1.180   4.323   4.059
 1394SOL     OW 4204   0.307   3.937   4.955
 1394SOL    HW1 4205   0.284   3.974   5.045
 1394SOL    HW2 4206   0.277   3.842   4.949
 1395SOL     OW 4207   0.732   4.358   4.788
 1395SOL    HW1 4208   0.791   4.332   4.712
 1395SOL    HW2 4209   0.704   4.454   4.777
 1396SOL     OW 4210   0.307   3.787   4.342
 1396SOL    HW1 4211   0.296   3.881   4.375
 1396SOL    HW2 4212   0.302   3.724   4.419
 1397SOL     OW 4213   1.622   4.091   4.098
 1397SOL    HW1 4214   1.624   4.015   4.162
 1397SOL    HW2 4215   1.574   4.168   4.138
 1398SOL     OW 4216   1.023   4.490   4.690
 1398SOL    HW1 4217   1.038   4.511   4.786
 1398SOL    HW2 4218   0.993   4.395   4.681
 1399SOL     OW 4219   1.540   3.998   3.849
 1399SOL    HW1 4220   1.479   3.923   3.872
 1399SOL    HW2 4221   1.562   4.050   3.932
 1400SOL     OW 4222   1.303   4.562   3.766
 1400SOL    HW1 4223   1.337   4.469   3.781
 1400SOL    HW2 4224   1.321   4.589   3.671
 1401SOL     OW 4225   0.319   4.534   4.673
 1401SOL    HW1 4226   0.412   4.570   4.678
 1401SOL    HW2 4227   0.313   4.449   4.725
 1402SOL     OW 4228   0.339   4.233   4.730
 1402SOL    HW1 4229   0.287   4.150   4.713
 1402SOL    HW2 4230   0.416   4.238   4.666
 1403SOL     OW 4231   1.002   4.520   4.962
 1403SOL    HW1 4232   1.043   4.488   5.048
 1403SOL    HW2 4233   0.906   4.493   4.959
 1404SOL     OW 4234   0.815   4.296   4.049
 1404SOL    HW1 4235   0.822   4.207   4.003
 1404SOL    HW2 4236   0.721   4.330   4.041
 1405SOL     OW 4237   0.671   4.188   4.993
 1405SOL    HW1 4238   0.637   4.099   4.963
 1405SOL    HW2 4239   0.697   4.242   4.913
 1406SOL     OW 4240   0.473   4.224   3.915
 1406SOL    HW1 4241   0.534   4.304   3.919
 1406SOL    HW2 4242   0.378   4.255   3.922
 1407SOL     OW 4243   1.302   4.579   4.033
 1407SOL    HW1 4244   1.216   4.548   4.075
 1407SOL    HW2 4245   1.298   4.565   3.934
 1408SOL     OW 4246   1.726   3.859   4.247
 1408SOL    HW1 4247   1.799   3.842   4.180
 1408SOL    HW2 4248   1.695   3.772   4.285
 1409SOL     OW 4249   1.280   4.651   4.396
 1409SOL    HW1 4250   1.340   4.570   4.398
 1409SOL    HW2 4251   1.320   4.720   4.336
 1410SOL     OW 4252   1.841   3.899   4.687
 1410SOL    HW1 4253   1.880   3.814   4.651
 1410SOL    HW2 4254   1.743   3.901   4.668
 1411SOL     OW 4255   0.263   4.050   4.444
 1411SOL    HW1 4256   0.184   4.101   4.410
 1411SOL    HW2 4257   0.254   4.035   4.542
 1412SOL     OW 4258   0.916   4.634   4.015
 1412SOL    HW1 4259   0.979   4.672   3.947
 1412SOL    HW2 4260   0.956   4.551   4.054
 1413SOL     OW 4261   1.014   3.960   4.695
 1413SOL    HW1 4262   1.006   3.924   4.602
 1413SOL    HW2 4263   1.012   3.884   4.760
 1414SOL     OW 4264   0.075   4.069   3.757
 1414SOL    HW1 4265  -0.017   4.041   3.728
 1414SOL    HW2 4266   0.106   4.146   3.701
 1415SOL     OW 4267   0.072   3.890   4.042
 1415SOL    HW1 4268   0.055   3.973   3.988
 1415SOL    HW2 4269   0.162   3.853   4.020
 1416SOL     OW 4270   1.183   5.059   3.843
 1416SOL    HW1 4271   1.084   5.048   3.845
 1416SOL    HW2 4272   1.217   5.074   3.936
 1417SOL     OW 4273   1.674   4.607   4.978
 1417SOL    HW1 4274   1.647   4.518   4.941
 1417SOL    HW2 4275   1.675   4.675   4.905
 1418SOL     OW 4276   1.225   4.049   4.173
 1418SOL    HW1 4277   1.290   3.975   4.162
 1418SOL    HW2 4278   1.245   4.099   4.257
 1419SOL     OW 4279   0.594   4.469   4.376
 1419SOL    HW1 4280   0.644   4.554   4.357
 1419SOL    HW2 4281   0.506   4.471   4.328
 1420SOL     OW 4282   0.859   4.680   4.585
 1420SOL    HW1 4283   0.913   4.611   4.633
 1420SOL    HW2 4284   0.827   4.749   4.651
 1421SOL     OW 4285   1.083   4.708   3.811
 1421SOL    HW1 4286   1.060   4.761   3.729
 1421SOL    HW2 4287   1.164   4.652   3.792
 1422SOL     OW 4288   1.824   3.916   4.951
 1422SOL    HW1 4289   1.820   3.826   4.995
 1422SOL    HW2 4290   1.827   3.905   4.852
 1423SOL     OW 4291   0.428   4.148   4.244
 1423SOL    HW1 4292   0.458   4.076   4.182
 1423SOL    HW2 4293   0.389   4.108   4.327
 1424SOL     OW 4294   1.352   3.776   3.892
 1424SOL    HW1 4295   1.387   3.735   3.808
 1424SOL    HW2 4296   1.262   3.738   3.912
 1425SOL     OW 4297   1.300   4.177   4.415
 1425SOL    HW1 4298   1.241   4.257   4.419
 1425SOL    HW2 4299   1.315   4.142   4.508
 1426SOL     OW 4300   1.593   3.945   4.606
 1426SOL    HW1 4301   1.509   3.944   4.660
 1426SOL    HW2 4302   1.595   4.028   4.550
 1427SOL     OW 4303   0.039   4.801   4.024
 1427SOL    HW1 4304   0.138   4.790   4.015
 1427SOL    HW2 4305  -0.001   4.715   4.056
 1428SOL     OW 4306   2.092   0.628   0.113
 1428SOL    HW1 4307   1.999   0.626   0.150
 1428SOL    HW2 4308   2.093   0.589   0.021
 1429SOL     OW 4309   2.087   0.275   0.996
 1429SOL    HW1 4310   2.122   0.258   1.088
 1429SOL    HW2 4311   1.999   0.230   0.984
 1430SOL     OW 4312   1.881   0.368   0.647
 1430SOL    HW1 4313   1.799   0.411   0.686
 1430SOL    HW2 4314   1.853   0.295   0.584
 1431SOL     OW 4315   2.431   1.275   1.165
 1431SOL    HW1 4316   2.338   1.268   1.128
 1431SOL    HW2 4317   2.442   1.364   1.209
 1432SOL     OW 4318   3.417   1.511   0.703
 1432SOL    HW1 4319   3.360   1.495   0.784
 1432SOL    HW2 4320   3.358   1.521   0.623
 1433SOL     OW 4321   2.997   0.703   0.717
 1433SOL    HW1 4322   3.054   0.781   0.692
 1433SOL    HW2 4323   2.937   0.729   0.793
 1434SOL     OW 4324   3.617   0.607   0.231
 1434SOL    HW1 4325   3.605   0.594   0.132
 1434SOL    HW2 4326   3.587   0.526   0.280
 1435SOL     OW 4327   2.630   1.144   1.023
 1435SOL    HW1 4328   2.552   1.161   1.083
 1435SOL    HW2 4329   2.664   1.231   0.987
 1436SOL     OW 4330   2.712   0.798   1.823
 1436SOL    HW1 4331   2.708   0.874   1.888
 1436SOL    HW2 4332   2.734   0.834   1.732
 1437SOL     OW 4333   2.547   1.012   0.665
 1437SOL    HW1 4334   2.616   0.996   0.735
 1437SOL    HW2 4335   2.474   1.069   0.703
 1438SOL     OW 4336   2.548   1.161   1.803
 1438SOL    HW1 4337   2.608   1.240   1.817
 1438SOL    HW2 4338   2.462   1.192   1.762
 1439SOL     OW 4339   2.197   1.435   1.061
 1439SOL    HW1 4340   2.119   1.404   1.008
 1439SOL    HW2 4341   2.255   1.493   1.004
 1440SOL     OW 4342   3.322   1.505   1.339
 1440SOL    HW1 4343   3.346   1.599   1.365
 1440SOL    HW2 4344   3.306   1.451   1.421
 1441SOL     OW 4345   2.300   0.392   1.499
 1441SOL    HW1 4346   2.382   0.336   1.508
 1441SOL    HW2 4347   2.219   0.334   1.503
 1442SOL     OW 4348   3.465   0.447   0.737
 1442SOL    HW1 4349   3.391   0.493   0.687
 1442SOL    HW2 4350   3.516   0.515   0.790
 1443SOL     OW 4351   2.093   1.713   0.483
 1443SOL    HW1 4352   2.127   1.790   0.537
 1443SOL    HW2 4353   2.137   1.713   0.393
 1444SOL     OW 4354   2.989   1.341   1.690
 1444SOL    HW1 4355   3.036   1.341   1.778
 1444SOL    HW2 4356   2.941   1.254   1.679
 1445SOL     OW 4357   2.092   1.434   0.538
 1445SOL    HW1 4358   2.066   1.530   0.538
 1445SOL    HW2 4359   2.021   1.380   0.583
 1446SOL     OW 4360   2.102   1.091   0.886
 1446SOL    HW1 4361   2.116   1.007   0.938
 1446SOL    HW2 4362   2.047   1.155   0.941
 1447SOL     OW 4363   2.482   1.786   1.439
 1447SOL    HW1 4364   2.390   1.769   1.474
 1447SOL    HW2 4365   2.510   1.878   1.465
 1448SOL     OW 4366   2.468   0.964   0.123
 1448SOL    HW1 4367   2.475   1.048   0.069
 1448SOL    HW2 4368   2.514   0.977   0.211
 1449SOL     OW 4369   3.456   0.114   1.480
 1449SOL    HW1 4370   3.438   0.181   1.408
 1449SOL    HW2 4371   3.453   0.160   1.569
 1450SOL     OW 4372   1.984   0.643   0.563
 1450SOL    HW1 4373   1.939   0.555   0.580
 1450SOL    HW2 4374   1.983   0.697   0.647
 1451SOL     OW 4375   3.704   1.767   0.359
 1451SOL    HW1 4376   3.758   1.738   0.439
 1451SOL    HW2 4377   3.734   1.857   0.330
 1452SOL     OW 4378   1.889   1.596   0.117
 1452SOL    HW1 4379   1.870   1.500   0.138
 1452SOL    HW2 4380   1.856   1.654   0.192
 1453SOL     OW 4381   3.551   0.922   0.612
 1453SOL    HW1 4382   3.646   0.893   0.620
 1453SOL    HW2 4383   3.543   0.987   0.537
 1454SOL     OW 4384   3.503   1.108   0.432
 1454SOL    HW1 4385   3.589   1.110   0.380
 1454SOL    HW2 4386   3.517   1.155   0.520
 1455SOL     OW 4387   1.975   0.737   1.597
 1455SOL    HW1 4388   2.063   0.724   1.642
 1455SOL    HW2 4389   1.962   0.834   1.575
 1456SOL     OW 4390   2.475   1.365   0.726
 1456SOL    HW1 4391   2.426   1.278   0.735
 1456SOL    HW2 4392   2.452   1.408   0.639
 1457SOL     OW 4393   3.155   1.228   1.423
 1457SOL    HW1 4394   3.192   1.155   1.365
 1457SOL    HW2 4395   3.207   1.233   1.508
 1458SOL     OW 4396   2.671   0.004   0.502
 1458SOL    HW1 4397   2.711   0.095   0.493
 1458SOL    HW2 4398   2.571   0.012   0.508
 1459SOL     OW 4399   2.059   0.976   1.264
 1459SOL    HW1 4400   2.148   0.931   1.250
 1459SOL    HW2 4401   1.986   0.911   1.245
 1460SOL     OW 4402   3.387   0.999   0.190
 1460SOL    HW1 4403   3.324   0.923   0.203
 1460SOL    HW2 4404   3.435   1.017   0.276
 1461SOL     OW 4405   3.049   1.792   1.616
 1461SOL    HW1 4406   3.073   1.852   1.540
 1461SOL    HW2 4407   3.056   1.697   1.586
 1462SOL     OW 4408   2.179   0.251   1.801
 1462SOL    HW1 4409   2.250   0.322   1.807
 1462SOL    HW2 4410   2.091   0.290   1.829
 1463SOL     OW 4411   3.328   1.417   0.953
 1463SOL    HW1 4412   3.269   1.423   1.033
 1463SOL    HW2 4413   3.313   1.329   0.907
 1464SOL     OW 4414   3.529   1.714   0.572
 1464SOL    HW1 4415   3.488   1.691   0.484
 1464SOL    HW2 4416   3.511   1.640   0.637
 1465SOL     OW 4417   2.460   0.729   0.270
 1465SOL    HW1 4418   2.484   0.798   0.202
 1465SOL    HW2 4419   2.382   0.762   0.324
 1466SOL     OW 4420   3.143   0.345   0.944
 1466SOL    HW1 4421   3.057   0.295   0.931
 1466SOL    HW2 4422   3.205   0.291   1.000
 1467SOL     OW 4423   3.438   1.662   0.307
 1467SOL    HW1 4424   3.527   1.708   0.310
 1467SOL    HW2 4425   3.417   1.638   0.212
 1468SOL     OW 4426   2.669   0.605   1.465
 1468SOL    HW1 4427   2.622   0.602   1.554
 1468SOL    HW2 4428   2.618   0.550   1.399
 1469SOL     OW 4429   3.256   0.469   1.674
 1469SOL    HW1 4430   3.236   0.512   1.762
 1469SOL    HW2 4431   3.334   0.407   1.683
 1470SOL     OW 4432   2.835   0.890   1.572
 1470SOL    HW1 4433   2.881   0.806   1.543
 1470SOL    HW2 4434   2.779   0.924   1.497
 1471SOL     OW 4435   2.853   0.410   1.242
 1471SOL    HW1 4436   2.776   0.444   1.296
 1471SOL    HW2 4437   2.819   0.359   1.163
 1472SOL     OW 4438   2.903   0.701   0.429
 1472SOL    HW1 4439   2.929   0.697   0.525
 1472SOL    HW2 4440   2.818   0.650   0.415
 1473SOL     OW 4441   1.938   0.811   0.789
 1473SOL    HW1 4442   2.037   0.799   0.798
 1473SOL    HW2 4443   1.914   0.906   0.810
 1474SOL     OW 4444   1.992   1.821   1.571
 1474SOL    HW1 4445   1.982   1.806   1.670
 1474SOL    HW2 4446   1.906   1.857   1.535
 1475SOL     OW 4447   2.727   0.348   0.195
 1475SOL    HW1 4448   2.786   0.411   0.146
 1475SOL    HW2 4449   2.746   0.254   0.166
 1476SOL     OW 4450   3.581   0.585   1.831
 1476SOL    HW1 4451   3.555   0.674   1.795
 1476SOL    HW2 4452   3.579   0.517   1.758
 1477SOL     OW 4453   3.224   1.144   0.545
 1477SOL    HW1 4454   3.307   1.115   0.497
 1477SOL    HW2 4455   3.175   1.211   0.489
 1478SOL     OW 4456   2.412   0.196   0.885
 1478SOL    HW1 4457   2.407   0.191   0.985
 1478SOL    HW2 4458   2.414   0.292   0.856
 1479SOL     OW 4459   2.870   1.456   0.477
 1479SOL    HW1 4460   2.824   1.528   0.425
 1479SOL    HW2 4461   2.866   1.476   0.575
 1480SOL     OW 4462   2.213   1.801   0.853
 1480SOL    HW1 4463   2.263   1.715   0.859
 1480SOL    HW2 4464   2.278   1.878   0.850
 1481SOL     OW 4465   3.657   1.066   0.873
 1481SOL    HW1 4466   3.595   1.051   0.797
 1481SOL    HW2 4467   3.605   1.077   0.958
 1482SOL     OW 4468   3.089   1.550   1.506
 1482SOL    HW1 4469   3.095   1.473   1.570
 1482SOL    HW2 4470   3.037   1.524   1.426
 1483SOL     OW 4471   2.183   0.943   0.242
 1483SOL    HW1 4472   2.265   0.982   0.200
 1483SOL    HW2 4473   2.156   0.861   0.193
 1484SOL     OW 4474   3.320   0.735   0.728
 1484SOL    HW1 4475   3.315   0.670   0.803
 1484SOL    HW2 4476   3.400   0.794   0.741
 1485SOL     OW 4477   2.323   1.266   1.727
 1485SOL    HW1 4478   2.273   1.267   1.641
 1485SOL    HW2 4479   2.260   1.248   1.803
 1486SOL     OW 4480   2.973   1.776   0.237
 1486SOL    HW1 4481   2.913   1.714   0.287
 1486SOL    HW2 4482   3.004   1.732   0.152
 1487SOL     OW 4483   2.064   0.285   1.498
 1487SOL    HW1 4484   1.984   0.345   1.485
 1487SOL    HW2 4485   2.054   0.236   1.584
 1488SOL     OW 4486   3.494   1.377   0.081
 1488SOL    HW1 4487   3.462   1.471   0.071
 1488SOL    HW2 4488   3.418   1.314   0.069
 1489SOL     OW 4489   2.326   1.743   0.323
 1489SOL    HW1 4490   2.359   1.782   0.409
 1489SOL    HW2 4491   2.402   1.736   0.258
 1490SOL     OW 4492   3.262   0.107   0.426
 1490SOL    HW1 4493   3.238   0.070   0.336
 1490SOL    HW2 4494   3.361   0.123   0.430
 1491SOL     OW 4495   2.111   1.785   1.241
 1491SOL    HW1 4496   2.168   1.720   1.291
 1491SOL    HW2 4497   2.095   1.752   1.148
 1492SOL     OW 4498   2.802   1.698   0.904
 1492SOL    HW1 4499   2.882   1.641   0.925
 1492SOL    HW2 4500   2.753   1.658   0.827
 1493SOL     OW 4501   2.244   0.700   0.480
 1493SOL    HW1 4502   2.289   0.610   0.477
 1493SOL    HW2 4503   2.150   0.689   0.513
 1494SOL     OW 4504   3.409   0.222   1.729
 1494SOL    HW1 4505   3.404   0.259   1.821
 1494SOL    HW2 4506   3.337   0.153   1.717
 1495SOL     OW 4507   2.476   0.122   0.117
 1495SOL    HW1 4508   2.574   0.100   0.124
 1495SOL    HW2 4509   2.445   0.105   0.024
 1496SOL     OW 4510   2.643   0.264   1.749
 1496SOL    HW1 4511   2.710   0.203   1.792
 1496SOL    HW2 4512   2.570   0.283   1.814
 1497SOL     OW 4513   2.750   1.514   1.195
 1497SOL    HW1 4514   2.727   1.489   1.101
 1497SOL    HW2 4515   2.811   1.445   1.234
 1498SOL     OW 4516   3.213   0.590   1.433
 1498SOL    HW1 4517   3.241   0.547   1.518
 1498SOL    HW2 4518   3.238   0.686   1.434
 1499SOL     OW 4519   2.665   1.402   0.924
 1499SOL    HW1 4520   2.755   1.416   0.882
 1499SOL    HW2 4521   2.594   1.404   0.853
 1500SOL     OW 4522   2.784   0.503   0.899
 1500SOL    HW1 4523   2.759   0.494   0.803
 1500SOL    HW2 4524   2.832   0.421   0.930
 1501SOL     OW 4525   2.401   0.064   0.512
 1501SOL    HW1 4526   2.320   0.065   0.570
 1501SOL    HW2 4527   2.404   0.147   0.457
 1502SOL     OW 4528   3.296   1.188   0.041
 1502SOL    HW1 4529   3.328   1.112   0.098
 1502SOL    HW2 4530   3.204   1.215   0.071
 1503SOL     OW 4531   2.159   0.035   0.171
 1503SOL    HW1 4532   2.208   0.119   0.150
 1503SOL    HW2 4533   2.221  -0.030   0.216
 1504SOL     OW 4534   2.797   0.236   0.480
 1504SOL    HW1 4535   2.749   0.277   0.402
 1504SOL    HW2 4536   2.896   0.234   0.461
 1505SOL     OW 4537   2.938   0.683   1.464
 1505SOL    HW1 4538   2.858   0.622   1.467
 1505SOL    HW2 4539   3.019   0.630   1.440
 1506SOL     OW 4540   3.089   1.570   0.793
 1506SOL    HW1 4541   3.110   1.644   0.728
 1506SOL    HW2 4542   3.157   1.570   0.866
 1507SOL     OW 4543   2.321   1.152   0.741
 1507SOL    HW1 4544   2.250   1.125   0.806
 1507SOL    HW2 4545   2.295   1.124   0.648
 1508SOL     OW 4546   3.133   1.797   0.591
 1508SOL    HW1 4547   3.177   1.861   0.527
 1508SOL    HW2 4548   3.083   1.849   0.661
 1509SOL     OW 4549   2.894   0.549   0.016
 1509SOL    HW1 4550   2.853   0.631  -0.023
 1509SOL    HW2 4551   2.958   0.575   0.089
 1510SOL     OW 4552   1.940   0.556   1.386
 1510SOL    HW1 4553   2.032   0.555   1.345
 1510SOL    HW2 4554   1.934   0.630   1.453
 1511SOL     OW 4555   2.423   0.222   1.147
 1511SOL    HW1 4556   2.461   0.138   1.184
 1511SOL    HW2 4557   2.335   0.241   1.191
 1512SOL     OW 4558   2.728   0.454   0.642
 1512SOL    HW1 4559   2.696   0.526   0.580
 1512SOL    HW2 4560   2.752   0.373   0.589
 1513SOL     OW 4561   2.879   0.039   0.753
 1513SOL    HW1 4562   2.807   0.044   0.684
 1513SOL    HW2 4563   2.855  -0.030   0.822
 1514SOL     OW 4564   3.291   1.173   0.867
 1514SOL    HW1 4565   3.236   1.089   0.860
 1514SOL    HW2 4566   3.317   1.202   0.775
 1515SOL     OW 4567   3.328   0.590   0.992
 1515SOL    HW1 4568   3.298   0.495   0.999
 1515SOL    HW2 4569   3.401   0.606   1.058
 1516SOL     OW 4570   3.719   0.833   0.377
 1516SOL    HW1 4571   3.761   0.769   0.441
 1516SOL    HW2 4572   3.681   0.782   0.299
 1517SOL     OW 4573   2.350   1.385   0.174
 1517SOL    HW1 4574   2.263   1.370   0.221
 1517SOL    HW2 4575   2.333   1.411   0.079
 1518SOL     OW 4576   3.526   1.280   0.657
 1518SOL    HW1 4577   3.625   1.288   0.671
 1518SOL    HW2 4578   3.481   1.364   0.688
 1519SOL     OW 4579   3.252   0.575   0.078
 1519SOL    HW1 4580   3.198   0.554   0.159
 1519SOL    HW2 4581   3.343   0.534   0.087
 1520SOL     OW 4582   2.389   0.256   0.328
 1520SOL    HW1 4583   2.416   0.197   0.253
 1520SOL    HW2 4584   2.389   0.351   0.297
 1521SOL     OW 4585   3.616   1.223   1.588
 1521SOL    HW1 4586   3.707   1.184   1.575
 1521SOL    HW2 4587   3.624   1.319   1.612
 1522SOL     OW 4588   2.926   1.347   1.340
 1522SOL    HW1 4589   2.846   1.324   1.395
 1522SOL    HW2 4590   3.009   1.321   1.389
 1523SOL     OW 4591   3.454   1.629   1.625
 1523SOL    HW1 4592   3.481   1.663   1.535
 1523SOL    HW2 4593   3.533   1.591   1.671
 1524SOL     OW 4594   2.973   1.195   1.100
 1524SOL    HW1 4595   2.933   1.239   1.181
 1524SOL    HW2 4596   2.932   1.232   1.017
 1525SOL     OW 4597   3.500   1.099   1.079
 1525SOL    HW1 4598   3.505   1.180   1.138
 1525SOL    HW2 4599   3.414   1.101   1.028
 1526SOL     OW 4600   2.777   0.089   1.402
 1526SOL    HW1 4601   2.802   0.069   1.307
 1526SOL    HW2 4602   2.849   0.145   1.444
 1527SOL     OW 4603   2.842   1.116   1.719
 1527SOL    HW1 4604   2.743   1.122   1.729
 1527SOL    HW2 4605   2.865   1.036   1.663
 1528SOL     OW 4606   2.567   1.050   0.368
 1528SOL    HW1 4607   2.553   1.057   0.467
 1528SOL    HW2 4608   2.651   0.999   0.350
 1529SOL     OW 4609   2.272   0.813   1.251
 1529SOL    HW1 4610   2.358   0.825   1.301
 1529SOL    HW2 4611   2.230   0.726   1.278
 1530SOL     OW 4612   3.136   0.386   1.262
 1530SOL    HW1 4613   3.157   0.460   1.326
 1530SOL    HW2 4614   3.047   0.403   1.219
 1531SOL     OW 4615   1.926   1.564   1.331
 1531SOL    HW1 4616   1.880   1.646   1.297
 1531SOL    HW2 4617   2.024   1.583   1.340
 1532SOL     OW 4618   2.229   1.100   0.501
 1532SOL    HW1 4619   2.222   1.183   0.445
 1532SOL    HW2 4620   2.233   1.020   0.441
 1533SOL     OW 4621   2.428   0.537   0.865
 1533SOL    HW1 4622   2.440   0.603   0.791
 1533SOL    HW2 4623   2.474   0.571   0.948
 1534SOL     OW 4624   3.114   1.348   0.388
 1534SOL    HW1 4625   3.164   1.425   0.428
 1534SOL    HW2 4626   3.019   1.350   0.420
 1535SOL     OW 4627   3.134   1.445   1.142
 1535SOL    HW1 4628   3.181   1.458   1.229
 1535SOL    HW2 4629   3.068   1.371   1.151
 1536SOL     OW 4630   3.444   0.639   0.472
 1536SOL    HW1 4631   3.413   0.700   0.545
 1536SOL    HW2 4632   3.494   0.691   0.403
 1537SOL     OW 4633   2.216   1.510   1.329
 1537SOL    HW1 4634   2.195   1.466   1.242
 1537SOL    HW2 4635   2.313   1.536   1.332
 1538SOL     OW 4636   2.264   0.751   1.598
 1538SOL    HW1 4637   2.332   0.806   1.551
 1538SOL    HW2 4638   2.304   0.663   1.625
 1539SOL     OW 4639   3.449   0.779   1.670
 1539SOL    HW1 4640   3.357   0.817   1.665
 1539SOL    HW2 4641   3.509   0.826   1.605
 1540SOL     OW 4642   2.875   0.105   1.770
 1540SOL    HW1 4643   2.881   0.190   1.718
 1540SOL    HW2 4644   2.907   0.029   1.713
 1541SOL     OW 4645   2.366   0.050   1.740
 1541SOL    HW1 4646   2.324  -0.007   1.670
 1541SOL    HW2 4647   2.300   0.119   1.772
 1542SOL     OW 4648   2.435   0.870   1.029
 1542SOL    HW1 4649   2.479   0.959   1.020
 1542SOL    HW2 4650   2.372   0.870   1.106
 1543SOL     OW 4651   3.222   0.862   1.045
 1543SOL    HW1 4652   3.147   0.862   0.979
 1543SOL    HW2 4653   3.259   0.770   1.054
 1544SOL     OW 4654   3.071   0.525   0.275
 1544SOL    HW1 4655   3.084   0.441   0.329
 1544SOL    HW2 4656   3.042   0.599   0.335
 1545SOL     OW 4657   2.169   0.213   1.231
 1545SOL    HW1 4658   2.146   0.250   1.321
 1545SOL    HW2 4659   2.139   0.118   1.225
 1546SOL     OW 4660   1.899   1.310   1.282
 1546SOL    HW1 4661   1.952   1.261   1.350
 1546SOL    HW2 4662   1.921   1.408   1.287
 1547SOL     OW 4663   2.594   0.634   1.064
 1547SOL    HW1 4664   2.653   0.608   0.988
 1547SOL    HW2 4665   2.566   0.730   1.053
 1548SOL     OW 4666   3.590   0.935   1.854
 1548SOL    HW1 4667   3.544   0.928   1.765
 1548SOL    HW2 4668   3.528   0.979   1.920
 1549SOL     OW 4669   2.169   0.063   0.618
 1549SOL    HW1 4670   2.158   0.157   0.651
 1549SOL    HW2 4671   2.164   0.000   0.695
 1550SOL     OW 4672   3.484   0.367   0.374
 1550SOL    HW1 4673   3.486   0.291   0.438
 1550SOL    HW2 4674   3.436   0.444   0.414
 1551SOL     OW 4675   2.885   0.766   0.966
 1551SOL    HW1 4676   2.900   0.787   1.062
 1551SOL    HW2 4677   2.855   0.671   0.957
 1552SOL     OW 4678   2.842   1.573   1.700
 1552SOL    HW1 4679   2.822   1.617   1.612
 1552SOL    HW2 4680   2.881   1.482   1.684
 1553SOL     OW 4681   3.721   1.518   1.605
 1553SOL    HW1 4682   3.735   1.545   1.510
 1553SOL    HW2 4683   3.804   1.540   1.658
 1554SOL     OW 4684   2.212   0.898   1.804
 1554SOL    HW1 4685   2.288   0.942   1.852
 1554SOL    HW2 4686   2.247   0.851   1.722
 1555SOL     OW 4687   3.402   0.274   0.125
 1555SOL    HW1 4688   3.341   0.199   0.148
 1555SOL    HW2 4689   3.424   0.326   0.208
 1556SOL     OW 4690   3.165   0.838   0.042
 1556SOL    HW1 4691   3.199   0.745   0.057
 1556SOL    HW2 4692   3.183   0.865  -0.053
 1557SOL     OW 4693   2.930   1.333   0.849
 1557SOL    HW1 4694   2.937   1.249   0.794
 1557SOL    HW2 4695   2.992   1.402   0.813
 1558SOL     OW 4696   2.181   0.810   0.949
 1558SOL    HW1 4697   2.274   0.846   0.954
 1558SOL    HW2 4698   2.175   0.725   1.001
 1559SOL     OW 4699   2.201   0.509   1.006
 1559SOL    HW1 4700   2.149   0.426   0.989
 1559SOL    HW2 4701   2.278   0.514   0.942
 1560SOL     OW 4702   3.000   0.380   1.678
 1560SOL    HW1 4703   2.955   0.443   1.742
 1560SOL    HW2 4704   3.093   0.411   1.661
 1561SOL     OW 4705   3.022   0.207   1.477
 1561SOL    HW1 4706   3.022   0.271   1.554
 1561SOL    HW2 4707   3.050   0.255   1.394
 1562SOL     OW 4708   1.870   1.326   0.200
 1562SOL    HW1 4709   1.777   1.347   0.169
 1562SOL    HW2 4710   1.880   1.227   0.213
 1563SOL     OW 4711   1.950   1.801   0.927
 1563SOL    HW1 4712   1.908   1.715   0.900
 1563SOL    HW2 4713   2.044   1.804   0.893
 1564SOL     OW 4714   2.366   1.568   0.910
 1564SOL    HW1 4715   2.432   1.642   0.919
 1564SOL    HW2 4716   2.410   1.489   0.868
 1565SOL     OW 4717   2.864   0.796   1.238
 1565SOL    HW1 4718   2.905   0.764   1.324
 1565SOL    HW2 4719   2.768   0.769   1.235
 1566SOL     OW 4720   1.902   0.544   1.114
 1566SOL    HW1 4721   1.987   0.511   1.073
 1566SOL    HW2 4722   1.915   0.559   1.212
 1567SOL     OW 4723   2.051   0.520   1.722
 1567SOL    HW1 4724   2.110   0.480   1.652
 1567SOL    HW2 4725   1.993   0.591   1.681
 1568SOL     OW 4726   3.231   0.950   1.660
 1568SOL    HW1 4727   3.270   1.039   1.680
 1568SOL    HW2 4728   3.241   0.930   1.563
 1569SOL     OW 4729   2.677   0.572   0.325
 1569SOL    HW1 4730   2.684   0.483   0.279
 1569SOL    HW2 4731   2.583   0.606   0.317
 1570SOL     OW 4732   3.519   0.604   1.206
 1570SOL    HW1 4733   3.481   0.535   1.268
 1570SOL    HW2 4734   3.601   0.568   1.162
 1571SOL     OW 4735   2.114   1.564   1.744
 1571SOL    HW1 4736   2.084   1.621   1.820
 1571SOL    HW2 4737   2.107   1.467   1.770
 1572SOL     OW 4738   2.533   0.464   1.269
 1572SOL    HW1 4739   2.499   0.375   1.239
 1572SOL    HW2 4740   2.559   0.518   1.189
 1573SOL     OW 4741   2.792   1.678   1.465
 1573SOL    HW1 4742   2.768   1.660   1.370
 1573SOL    HW2 4743   2.822   1.772   1.475
 1574SOL     OW 4744   2.335   0.500   0.191
 1574SOL    HW1 4745   2.396   0.580   0.195
 1574SOL    HW2 4746   2.240   0.531   0.198
 1575SOL     OW 4747   2.021   1.137   1.466
 1575SOL    HW1 4748   2.043   1.076   1.542
 1575SOL    HW2 4749   2.031   1.088   1.380
 1576SOL     OW 4750   3.209   1.059   1.234
 1576SOL    HW1 4751   3.233   0.996   1.160
 1576SOL    HW2 4752   3.119   1.099   1.216
 1577SOL     OW 4753   3.164   0.855   0.309
 1577SOL    HW1 4754   3.078   0.824   0.351
 1577SOL    HW2 4755   3.160   0.841   0.210
 1578SOL     OW 4756   3.621   1.747   1.154
 1578SOL    HW1 4757   3.682   1.777   1.081
 1578SOL    HW2 4758   3.583   1.658   1.132
 1579SOL     OW 4759   3.114   1.731   1.128
 1579SOL    HW1 4760   3.198   1.736   1.074
 1579SOL    HW2 4761   3.091   1.635   1.146
 1580SOL     OW 4762   1.945   1.258   1.022
 1580SOL    HW1 4763   1.940   1.257   1.122
 1580SOL    HW2 4764   1.862   1.217   0.984
 1581SOL     OW 4765   2.550   1.662   1.716
 1581SOL    HW1 4766   2.494   1.743   1.725
 1581SOL    HW2 4767   2.602   1.666   1.630
 1582SOL     OW 4768   2.765   0.086   0.133
 1582SOL    HW1 4769   2.816   0.087   0.047
 1582SOL    HW2 4770   2.821   0.044   0.204
 1583SOL     OW 4771   3.588   0.135   0.523
 1583SOL    HW1 4772   3.661   0.118   0.456
 1583SOL    HW2 4773   3.557   0.048   0.561
 1584SOL     OW 4774   3.250   1.573   0.477
 1584SOL    HW1 4775   3.317   1.585   0.403
 1584SOL    HW2 4776   3.210   1.662   0.500
 1585SOL     OW 4777   1.992   1.794   1.851
 1585SOL    HW1 4778   1.951   1.720   1.904
 1585SOL    HW2 4779   2.056   1.845   1.909
 1586SOL     OW 4780   3.142   0.927   0.672
 1586SOL    HW1 4781   3.202   0.846   0.674
 1586SOL    HW2 4782   3.182   0.996   0.612
 1587SOL     OW 4783   2.692   1.273   1.422
 1587SOL    HW1 4784   2.687   1.306   1.517
 1587SOL    HW2 4785   2.606   1.292   1.376
 1588SOL     OW 4786   2.534   1.616   0.154
 1588SOL    HW1 4787   2.543   1.626   0.055
 1588SOL    HW2 4788   2.494   1.527   0.175
 1589SOL     OW 4789   3.512   1.720   1.394
 1589SOL    HW1 4790   3.565   1.730   1.310
 1589SOL    HW2 4791   3.485   1.810   1.428
 1590SOL     OW 4792   3.703   0.175   0.963
 1590SOL    HW1 4793   3.742   0.090   0.927
 1590SOL    HW2 4794   3.605   0.177   0.944
 1591SOL     OW 4795   2.125   0.326   0.720
 1591SOL    HW1 4796   2.046   0.377   0.686
 1591SOL    HW2 4797   2.116   0.311   0.818
 1592SOL     OW 4798   3.056   1.612   0.031
 1592SOL    HW1 4799   3.062   1.519   0.068
 1592SOL    HW2 4800   2.997   1.612  -0.049
 1593SOL     OW 4801   2.684   1.002   1.372
 1593SOL    HW1 4802   2.724   1.001   1.280
 1593SOL    HW2 4803   2.694   1.094   1.412
 1594SOL     OW 4804   2.778   0.910   0.291
 1594SOL    HW1 4805   2.841   0.948   0.223
 1594SOL    HW2 4806   2.818   0.827   0.330
 1595SOL     OW 4807   3.366   1.607   0.044
 1595SOL    HW1 4808   3.274   1.644   0.051
 1595SOL    HW2 4809   3.404   1.627  -0.046
 1596SOL     OW 4810   2.234   1.288   1.490
 1596SOL    HW1 4811   2.221   1.381   1.456
 1596SOL    HW2 4812   2.150   1.236   1.477
 1597SOL     OW 4813   3.476   1.292   1.289
 1597SOL    HW1 4814   3.536   1.295   1.369
 1597SOL    HW2 4815   3.401   1.356   1.302
 1598SOL     OW 4816   2.901   1.098   0.696
 1598SOL    HW1 4817   2.831   1.051   0.750
 1598SOL    HW2 4818   2.960   1.030   0.653
 1599SOL     OW 4819   2.876   0.236   0.971
 1599SOL    HW1 4820   2.868   0.200   0.878
 1599SOL    HW2 4821   2.874   0.160   1.036
 1600SOL     OW 4822   2.452   1.487   0.491
 1600SOL    HW1 4823   2.494   1.429   0.421
 1600SOL    HW2 4824   2.408   1.566   0.447
 1601SOL     OW 4825   3.571   0.385   1.381
 1601SOL    HW1 4826   3.644   0.454   1.385
 1601SOL    HW2 4827   3.599   0.310   1.322
 1602SOL     OW 4828   2.117   1.348   0.290
 1602SOL    HW1 4829   2.021   1.349   0.263
 1602SOL    HW2 4830   2.129   1.401   0.374
 1603SOL     OW 4831   1.967   1.013   1.726
 1603SOL    HW1 4832   1.890   0.980   1.780
 1603SOL    HW2 4833   2.052   0.983   1.768
 1604SOL     OW 4834   2.534   0.203   1.489
 1604SOL    HW1 4835   2.624   0.187   1.449
 1604SOL    HW2 4836   2.542   0.208   1.588
 1605SOL     OW 4837   1.937   0.345   0.033
 1605SOL    HW1 4838   1.845   0.317   0.004
 1605SOL    HW2 4839   1.968   0.422  -0.023
 1606SOL     OW 4840   3.302   0.856   1.398
 1606SOL    HW1 4841   3.245   0.908   1.335
 1606SOL    HW2 4842   3.398   0.868   1.374
 1607SOL     OW 4843   1.934   0.166   0.318
 1607SOL    HW1 4844   1.917   0.249   0.264
 1607SOL    HW2 4845   2.024   0.129   0.296
 1608SOL     OW 4846   3.045   1.335   0.119
 1608SOL    HW1 4847   2.946   1.324   0.121
 1608SOL    HW2 4848   3.079   1.350   0.212
 1609SOL     OW 4849   2.475   0.842   1.431
 1609SOL    HW1 4850   2.531   0.923   1.414
 1609SOL    HW2 4851   2.534   0.762   1.434
 1610SOL     OW 4852   3.355   1.767   0.959
 1610SOL    HW1 4853   3.388   1.831   0.890
 1610SOL    HW2 4854   3.421   1.761   1.034
 1611SOL     OW 4855   2.578   0.565   1.708
 1611SOL    HW1 4856   2.597   0.630   1.782
 1611SOL    HW2 4857   2.638   0.485   1.717
 1612SOL     OW 4858   3.312   1.220   1.633
 1612SOL    HW1 4859   3.303   1.210   1.732
 1612SOL    HW2 4860   3.408   1.213   1.607
 1613SOL     OW 4861   2.252   1.741   1.560
 1613SOL    HW1 4862   2.161   1.782   1.558
 1613SOL    HW2 4863   2.245   1.647   1.592
 1614SOL     OW 4864   3.536   0.883   1.254
 1614SOL    HW1 4865   3.509   0.794   1.217
 1614SOL    HW2 4866   3.537   0.951   1.181
 1615SOL     OW 4867   3.087   0.325   0.449
 1615SOL    HW1 4868   3.152   0.251   0.438
 1615SOL    HW2 4869   3.107   0.375   0.533
 1616SOL     OW 4870   2.456   0.745   0.652
 1616SOL    HW1 4871   2.506   0.830   0.633
 1616SOL    HW2 4872   2.368   0.747   0.604
 1617SOL     OW 4873   3.639   0.342   1.642
 1617SOL    HW1 4874   3.622   0.373   1.548
 1617SOL    HW2 4875   3.555   0.305   1.680
 1618SOL     OW 4876   3.592   0.934   1.517
 1618SOL    HW1 4877   3.630   1.025   1.532
 1618SOL    HW2 4878   3.584   0.917   1.418
 1619SOL     OW 4879   2.721   1.374   0.016
 1619SOL    HW1 4880   2.675   1.389   0.104
 1619SOL    HW2 4881   2.765   1.459  -0.014
 1620SOL     OW 4882   2.523   1.790   0.953
 1620SOL    HW1 4883   2.477   1.878   0.940
 1620SOL    HW2 4884   2.622   1.802   0.946
 1621SOL     OW 4885   2.721   0.956   0.861
 1621SOL    HW1 4886   2.775   0.887   0.909
 1621SOL    HW2 4887   2.689   1.025   0.927
 1622SOL     OW 4888   2.945   0.984   0.087
 1622SOL    HW1 4889   2.922   1.037   0.005
 1622SOL    HW2 4890   3.026   0.928   0.068
 1623SOL     OW 4891   3.723   1.569   0.851
 1623SOL    HW1 4892   3.652   1.557   0.781
 1623SOL    HW2 4893   3.724   1.490   0.911
 1624SOL     OW 4894   2.083   1.314   1.844
 1624SOL    HW1 4895   2.018   1.241   1.823
 1624SOL    HW2 4896   2.087   1.328   1.942
 1625SOL     OW 4897   1.941   1.240   0.653
 1625SOL    HW1 4898   1.940   1.193   0.741
 1625SOL    HW2 4899   2.023   1.212   0.602
 1626SOL     OW 4900   2.534   1.391   1.624
 1626SOL    HW1 4901   2.456   1.341   1.662
 1626SOL    HW2 4902   2.531   1.486   1.655
 1627SOL     OW 4903   3.686   0.192   1.227
 1627SOL    HW1 4904   3.682   0.102   1.271
 1627SOL    HW2 4905   3.689   0.181   1.128
 1628SOL     OW 4906   2.290   0.424   0.520
 1628SOL    HW1 4907   2.320   0.352   0.458
 1628SOL    HW2 4908   2.251   0.384   0.603
 1629SOL     OW 4909   3.567   1.487   1.104
 1629SOL    HW1 4910   3.474   1.462   1.077
 1629SOL    HW2 4911   3.593   1.437   1.186
 1630SOL     OW 4912   2.179   0.547   1.280
 1630SOL    HW1 4913   2.217   0.488   1.352
 1630SOL    HW2 4914   2.219   0.521   1.192
 1631SOL     OW 4915   2.674   1.586   0.687
 1631SOL    HW1 4916   2.706   1.596   0.593
 1631SOL    HW2 4917   2.595   1.524   0.689
 1632SOL     OW 4918   3.286   0.214   1.112
 1632SOL    HW1 4919   3.338   0.149   1.167
 1632SOL    HW2 4920   3.237   0.277   1.173
 1633SOL     OW 4921   2.863   0.034   1.154
 1633SOL    HW1 4922   2.800  -0.038   1.123
 1633SOL    HW2 4923   2.956  -0.002   1.154
 1634SOL     OW 4924   2.632   1.330   0.301
 1634SOL    HW1 4925   2.586   1.243   0.318
 1634SOL    HW2 4926   2.723   1.327   0.342
 1635SOL     OW 4927   2.480   1.567   1.284
 1635SOL    HW1 4928   2.475   1.649   1.341
 1635SOL    HW2 4929   2.569   1.564   1.239
 1636SOL     OW 4930   3.214   0.052   0.168
 1636SOL    HW1 4931   3.249   0.011   0.084
 1636SOL    HW2 4932   3.124   0.014   0.188
 1637SOL     OW 4933   3.162   0.453   0.691
 1637SOL    HW1 4934   3.103   0.533   0.695
 1637SOL    HW2 4935   3.177   0.418   0.784
 1638SOL     OW 4936   3.455   0.221   0.882
 1638SOL    HW1 4937   3.371   0.220   0.936
 1638SOL    HW2 4938   3.457   0.304   0.826
 1639SOL     OW 4939   1.901   1.077   0.300
 1639SOL    HW1 4940   2.000   1.066   0.291
 1639SOL    HW2 4941   1.861   0.991   0.332
 1640SOL     OW 4942   2.737   1.646   0.337
 1640SOL    HW1 4943   2.660   1.611   0.283
 1640SOL    HW2 4944   2.705   1.717   0.399
 1641SOL     OW 4945   2.092   0.628   1.975
 1641SOL    HW1 4946   1.999   0.626   2.012
 1641SOL    HW2 4947   2.093   0.589   1.883
 1642SOL     OW 4948   2.087   0.275   2.858
 1642SOL    HW1 4949   2.122   0.258   2.950
 1642SOL    HW2 4950   1.999   0.230   2.846
 1643SOL     OW 4951   1.881   0.368   2.509
 1643SOL    HW1 4952   1.799   0.411   2.548
 1643SOL    HW2 4953   1.853   0.295   2.446
 1644SOL     OW 4954   2.431   1.275   3.027
 1644SOL    HW1 4955   2.338   1.268   2.990
 1644SOL    HW2 4956   2.442   1.364   3.071
 1645SOL     OW 4957   3.417   1.511   2.565
 1645SOL    HW1 4958   3.360   1.495   2.646
 1645SOL    HW2 4959   3.358   1.521   2.485
 1646SOL     OW 4960   2.997   0.703   2.579
 1646SOL    HW1 4961   3.054   0.781   2.554
 1646SOL    HW2 4962   2.937   0.729   2.655
 1647SOL     OW 4963   3.617   0.607   2.093
 1647SOL    HW1 4964   3.605   0.594   1.994
 1647SOL    HW2 4965   3.587   0.526   2.142
 1648SOL     OW 4966   2.630   1.144   2.885
 1648SOL    HW1 4967   2.552   1.161   2.945
 1648SOL    HW2 4968   2.664   1.231   2.849
 1649SOL     OW 4969   2.712   0.798   3.685
 1649SOL    HW1 4970   2.708   0.874   3.750
 1649SOL    HW2 4971   2.734   0.834   3.594
 1650SOL     OW 4972   2.547   1.012   2.527
 1650SOL    HW1 4973   2.616   0.996   2.597
 1650SOL    HW2 4974   2.474   1.069   2.565
 1651SOL     OW 4975   2.548   1.161   3.665
 1651SOL    HW1 4976   2.608   1.240   3.679
 1651SOL    HW2 4977   2.462   1.192   3.624
 1652SOL     OW 4978   2.197   1.435   2.923
 1652SOL    HW1 4979   2.119   1.404   2.870
 1652SOL    HW2 4980   2.255   1.493   2.866
 1653SOL     OW 4981   3.322   1.505   3.201
 1653SOL    HW1 4982   3.346   1.599   3.227
 1653SOL    HW2 4983   3.306   1.451   3.283
 1654SOL     OW 4984   2.300   0.392   3.361
 1654SOL    HW1 4985   2.382   0.336   3.370
 1654SOL    HW2 4986   2.219   0.334   3.365
 1655SOL     OW 4987   3.465   0.447   2.599
 1655SOL    HW1 4988   3.391   0.493   2.549
 1655SOL    HW2 4989   3.516   0.515   2.652
 1656SOL     OW 4990   2.093   1.713   2.345
 1656SOL    HW1 4991   2.127   1.790   2.399
 1656SOL    HW2 4992   2.137   1.713   2.255
 1657SOL     OW 4993   2.989   1.341   3.552
 1657SOL    HW1 4994   3.036   1.341   3.640
 1657SOL    HW2 4995   2.941   1.254   3.541
 1658SOL     OW 4996   2.092   1.434   2.400
 1658SOL    HW1 4997   2.066   1.530   2.400
 1658SOL    HW2 4998   2.021   1.380   2.445
 1659SOL     OW 4999   2.102   1.091   2.748
 1659SOL    HW1 5000   2.116   1.007   2.800
 1659SOL    HW2 5001   2.047   1.155   2.803
 1660SOL     OW 5002   2.482   1.786   3.301
 1660SOL    HW1 5003   2.390   1.769   3.336
 1660SOL    HW2 5004   2.510   1.878   3.327
 1661SOL     OW 5005   2.468   0.964   1.985
 1661SOL    HW1 5006   2.475   1.048   1.931
 1661SOL    HW2 5007   2.514   0.977   2.073
 1662SOL     OW 5008   3.456   0.114   3.342
 1662SOL    HW1 5009   3.438   0.181   3.270
 1662SOL    HW2 5010   3.453   0.160   3.431
 1663SOL     OW 5011   1.984   0.643   2.425
 1663SOL    HW1 5012   1.939   0.555   2.442
 1663SOL    HW2 5013   1.983   0.697   2.509
 1664SOL     OW 5014   3.704   1.767   2.221
 1664SOL    HW1 5015   3.758   1.738   2.301
 1664SOL    HW2 5016   3.734   1.857   2.192
 1665SOL     OW 5017   1.889   1.596   1.979
 1665SOL    HW1 5018   1.870   1.500   2.000
 1665SOL    HW2 5019   1.856   1.654   2.054
 1666SOL     OW 5020   3.551   0.922   2.474
 1666SOL    HW1 5021   3.646   0.893   2.482
 1666SOL    HW2 5022   3.543   0.987   2.399
 1667SOL     OW 5023   3.503   1.108   2.294
 1667SOL    HW1 5024   3.589   1.110   2.242
 1667SOL    HW2 5025   3.517   1.155   2.382
 1668SOL     OW 5026   1.975   0.737   3.459
 1668SOL    HW1 5027   2.063   0.724   3.504
 1668SOL    HW2 5028   1.962   0.834   3.437
 1669SOL     OW 5029   2.475   1.365   2.588
 1669SOL    HW1 5030   2.426   1.278   2.597
 1669SOL    HW2 5031   2.452   1.408   2.501
 1670SOL     OW 5032   3.155   1.228   3.285
 1670SOL    HW1 5033   3.192   1.155   3.227
 1670SOL    HW2 5034   3.207   1.233   3.370
 1671SOL     OW 5035   2.671   0.004   2.364
 1671SOL    HW1 5036   2.711   0.095   2.355
 1671SOL    HW2 5037   2.571   0.012   2.370
 1672SOL     OW 5038   2.059   0.976   3.126
 1672SOL    HW1 5039   2.148   0.931   3.112
 1672SOL    HW2 5040   1.986   0.911   3.107
 1673SOL     OW 5041   3.387   0.999   2.052
 1673SOL    HW1 5042   3.324   0.923   2.065
 1673SOL    HW2 5043   3.435   1.017   2.138
 1674SOL     OW 5044   3.049   1.792   3.478
 1674SOL    HW1 5045   3.073   1.852   3.402
 1674SOL    HW2 5046   3.056   1.697   3.448
 1675SOL     OW 5047   2.179   0.251   3.663
 1675SOL    HW1 5048   2.250   0.322   3.669
 1675SOL    HW2 5049   2.091   0.290   3.691
 1676SOL     OW 5050   3.328   1.417   2.815
 1676SOL    HW1 5051   3.269   1.423   2.895
 1676SOL    HW2 5052   3.313   1.329   2.769
 1677SOL     OW 5053   3.529   1.714   2.434
 1677SOL    HW1 5054   3.488   1.691   2.346
 1677SOL    HW2 5055   3.511   1.640   2.499
 1678SOL     OW 5056   2.460   0.729   2.132
 1678SOL    HW1 5057   2.484   0.798   2.064
 1678SOL    HW2 5058   2.382   0.762   2.186
 1679SOL     OW 5059   3.143   0.345   2.806
 1679SOL    HW1 5060   3.057   0.295   2.793
 1679SOL    HW2 5061   3.205   0.291   2.862
 1680SOL     OW 5062   3.438   1.662   2.169
 1680SOL    HW1 5063   3.527   1.708   2.172
 1680SOL    HW2 5064   3.417   1.638   2.074
 1681SOL     OW 5065   2.669   0.605   3.327
 1681SOL    HW1 5066   2.622   0.602   3.416
 1681SOL    HW2 5067   2.618   0.550   3.261
 1682SOL     OW 5068   3.256   0.469   3.536
 1682SOL    HW1 5069   3.236   0.512   3.624
 1682SOL    HW2 5070   3.334   0.407   3.545
 1683SOL     OW 5071   2.835   0.890   3.434
 1683SOL    HW1 5072   2.881   0.806   3.405
 1683SOL    HW2 5073   2.779   0.924   3.359
 1684SOL     OW 5074   2.853   0.410   3.104
 1684SOL    HW1 5075   2.776   0.444   3.158
 1684SOL    HW2 5076   2.819   0.359   3.025
 1685SOL     OW 5077   2.903   0.701   2.291
 1685SOL    HW1 5078   2.929   0.697   2.387
 1685SOL    HW2 5079   2.818   0.650   2.277
 1686SOL     OW 5080   1.938   0.811   2.651
 1686SOL    HW1 5081   2.037   0.799   2.660
 1686SOL    HW2 5082   1.914   0.906   2.672
 1687SOL     OW 5083   1.992   1.821   3.433
 1687SOL    HW1 5084   1.982   1.806   3.532
 1687SOL    HW2 5085   1.906   1.857   3.397
 1688SOL     OW 5086   2.727   0.348   2.057
 1688SOL    HW1 5087   2.786   0.411   2.008
 1688SOL    HW2 5088   2.746   0.254   2.028
 1689SOL     OW 5089   3.581   0.585   3.693
 1689SOL    HW1 5090   3.555   0.674   3.657
 1689SOL    HW2 5091   3.579   0.517   3.620
 1690SOL     OW 5092   3.224   1.144   2.407
 1690SOL    HW1 5093   3.307   1.115   2.359
 1690SOL    HW2 5094   3.175   1.211   2.351
 1691SOL     OW 5095   2.412   0.196   2.747
 1691SOL    HW1 5096   2.407   0.191   2.847
 1691SOL    HW2 5097   2.414   0.292   2.718
 1692SOL     OW 5098   2.870   1.456   2.339
 1692SOL    HW1 5099   2.824   1.528   2.287
 1692SOL    HW2 5100   2.866   1.476   2.437
 1693SOL     OW 5101   2.213   1.801   2.715
 1693SOL    HW1 5102   2.263   1.715   2.721
 1693SOL    HW2 5103   2.278   1.878   2.712
 1694SOL     OW 5104   3.657   1.066   2.735
 1694SOL    HW1 5105   3.595   1.051   2.659
 1694SOL    HW2 5106   3.605   1.077   2.820
 1695SOL     OW 5107   3.089   1.550   3.368
 1695SOL    HW1 5108   3.095   1.473   3.432
 1695SOL    HW2 5109   3.037   1.524   3.288
 1696SOL     OW 5110   2.183   0.943   2.104
 1696SOL    HW1 5111   2.265   0.982   2.062
 1696SOL    HW2 5112   2.156   0.861   2.055
 1697SOL     OW 5113   3.320   0.735   2.590
 1697SOL    HW1 5114   3.315   0.670   2.665
 1697SOL    HW2 5115   3.400   0.794   2.603
 1698SOL     OW 5116   2.323   1.266   3.589
 1698SOL    HW1 5117   2.273   1.267   3.503
 1698SOL    HW2 5118   2.260   1.248   3.665
 1699SOL     OW 5119   2.973   1.776   2.099
 1699SOL    HW1 5120   2.913   1.714   2.149
 1699SOL    HW2 5121   3.004   1.732   2.014
 1700SOL     OW 5122   2.064   0.285   3.360
 1700SOL    HW1 5123   1.984   0.345   3.347
 1700SOL    HW2 5124   2.054   0.236   3.446
 1701SOL     OW 5125   3.494   1.377   1.943
 1701SOL    HW1 5126   3.462   1.471   1.933
 1701SOL    HW2 5127   3.418   1.314   1.931
 1702SOL     OW 5128   2.326   1.743   2.185
 1702SOL    HW1 5129   2.359   1.782   2.271
 1702SOL    HW2 5130   2.402   1.736   2.120
 1703SOL     OW 5131   3.262   0.107   2.288
 1703SOL    HW1 5132   3.238   0.070   2.198
 1703SOL    HW2 5133   3.361   0.123   2.292
 1704SOL     OW 5134   2.111   1.785   3.103
 1704SOL    HW1 5135   2.168   1.720   3.153
 1704SOL    HW2 5136   2.095   1.752   3.010
 1705SOL     OW 5137   2.802   1.698   2.766
 1705SOL    HW1 5138   2.882   1.641   2.787
 1705SOL    HW2 5139   2.753   1.658   2.689
 1706SOL     OW 5140   2.244   0.700   2.342
 1706SOL    HW1 5141   2.289   0.610   2.339
 1706SOL    HW2 5142   2.150   0.689   2.375
 1707SOL     OW 5143   3.409   0.222   3.591
 1707SOL    HW1 5144   3.404   0.259   3.683
 1707SOL    HW2 5145   3.337   0.153   3.579
 1708SOL     OW 5146   2.476   0.122   1.979
 1708SOL    HW1 5147   2.574   0.100   1.986
 1708SOL    HW2 5148   2.445   0.105   1.886
 1709SOL     OW 5149   2.643   0.264   3.611
 1709SOL    HW1 5150   2.710   0.203   3.654
 1709SOL    HW2 5151   2.570   0.283   3.676
 1710SOL     OW 5152   2.750   1.514   3.057
 1710SOL    HW1 5153   2.727   1.489   2.963
 1710SOL    HW2 5154   2.811   1.445   3.096
 1711SOL     OW 5155   3.213   0.590   3.295
 1711SOL    HW1 5156   3.241   0.547   3.380
 1711SOL    HW2 5157   3.238   0.686   3.296
 1712SOL     OW 5158   2.665   1.402   2.786
 1712SOL    HW1 5159   2.755   1.416   2.744
 1712SOL    HW2 5160   2.594   1.404   2.715
 1713SOL     OW 5161   2.784   0.503   2.761
 1713SOL    HW1 5162   2.759   0.494   2.665
 1713SOL    HW2 5163   2.832   0.421   2.792
 1714SOL     OW 5164   2.401   0.064   2.374
 1714SOL    HW1 5165   2.320   0.065   2.432
 1714SOL    HW2 5166   2.404   0.147   2.319
 1715SOL     OW 5167   3.296   1.188   1.903
 1715SOL    HW1 5168   3.328   1.112   1.960
 1715SOL    HW2 5169   3.204   1.215   1.933
 1716SOL     OW 5170   2.159   0.035   2.033
 1716SOL    HW1 5171   2.208   0.119   2.012
 1716SOL    HW2 5172   2.221  -0.030   2.078
 1717SOL     OW 5173   2.797   0.236   2.342
 1717SOL    HW1 5174   2.749   0.277   2.264
 1717SOL    HW2 5175   2.896   0.234   2.323
 1718SOL     OW 5176   2.938   0.683   3.326
 1718SOL    HW1 5177   2.858   0.622   3.329
 1718SOL    HW2 5178   3.019   0.630   3.302
 1719SOL     OW 5179   3.089   1.570   2.655
 1719SOL    HW1 5180   3.110   1.644   2.590
 1719SOL    HW2 5181   3.157   1.570   2.728
 1720SOL     OW 5182   2.321   1.152   2.603
 1720SOL    HW1 5183   2.250   1.125   2.668
 1720SOL    HW2 5184   2.295   1.124   2.510
 1721SOL     OW 5185   3.133   1.797   2.453
 1721SOL    HW1 5186   3.177   1.861   2.389
 1721SOL    HW2 5187   3.083   1.849   2.523
 1722SOL     OW 5188   2.894   0.549   1.878
 1722SOL    HW1 5189   2.853   0.631   1.839
 1722SOL    HW2 5190   2.958   0.575   1.951
 1723SOL     OW 5191   1.940   0.556   3.248
 1723SOL    HW1 5192   2.032   0.555   3.207
 1723SOL    HW2 5193   1.934   0.630   3.315
 1724SOL     OW 5194   2.423   0.222   3.009
 1724SOL    HW1 5195   2.461   0.138   3.046
 1724SOL    HW2 5196   2.335   0.241   3.053
 1725SOL     OW 5197   2.728   0.454   2.504
 1725SOL    HW1 5198   2.696   0.526   2.442
 1725SOL    HW2 5199   2.752   0.373   2.451
 1726SOL     OW 5200   2.879   0.039   2.615
 1726SOL    HW1 5201   2.807   0.044   2.546
 1726SOL    HW2 5202   2.855  -0.030   2.684
 1727SOL     OW 5203   3.291   1.173   2.729
 1727SOL    HW1 5204   3.236   1.089   2.722
 1727SOL    HW2 5205   3.317   1.202   2.637
 1728SOL     OW 5206   3.328   0.590   2.854
 1728SOL    HW1 5207   3.298   0.495   2.861
 1728SOL    HW2 5208   3.401   0.606   2.920
 1729SOL     OW 5209   3.719   0.833   2.239
 1729SOL    HW1 5210   3.761   0.769   2.303
 1729SOL    HW2 5211   3.681   0.782   2.161
 1730SOL     OW 5212   2.350   1.385   2.036
 1730SOL    HW1 5213   2.263   1.370   2.083
 1730SOL    HW2 5214   2.333   1.411   1.941
 1731SOL     OW 5215   3.526   1.280   2.519
 1731SOL    HW1 5216   3.625   1.288   2.533
 1731SOL    HW2 5217   3.481   1.364   2.550
 1732SOL     OW 5218   3.252   0.575   1.940
 1732SOL    HW1 5219   3.198   0.554   2.021
 1732SOL    HW2 5220   3.343   0.534   1.949
 1733SOL     OW 5221   2.389   0.256   2.190
 1733SOL    HW1 5222   2.416   0.197   2.115
 1733SOL    HW2 5223   2.389   0.351   2.159
 1734SOL     OW 5224   3.616   1.223   3.450
 1734SOL    HW1 5225   3.707   1.184   3.437
 1734SOL    HW2 5226   3.624   1.319   3.474
 1735SOL     OW 5227   2.926   1.347   3.202
 1735SOL    HW1 5228   2.846   1.324   3.257
 1735SOL    HW2 5229   3.009   1.321   3.251
 1736SOL     OW 5230   3.454   1.629   3.487
 1736SOL    HW1 5231   3.481   1.663   3.397
 1736SOL    HW2 5232   3.533   1.591   3.533
 1737SOL     OW 5233   2.973   1.195   2.962
 1737SOL    HW1 5234   2.933   1.239   3.043
 1737SOL    HW2 5235   2.932   1.232   2.879
 1738SOL     OW 5236   3.500   1.099   2.941
 1738SOL    HW1 5237   3.505   1.180   3.000
 1738SOL    HW2 5238   3.414   1.101   2.890
 1739SOL     OW 5239   2.777   0.089   3.264
 1739SOL    HW1 5240   2.802   0.069   3.169
 1739SOL    HW2 5241   2.849   0.145   3.306
 1740SOL     OW 5242   2.842   1.116   3.581
 1740SOL    HW1 5243   2.743   1.122   3.591
 1740SOL    HW2 5244   2.865   1.036   3.525
 1741SOL     OW 5245   2.567   1.050   2.230
 1741SOL    HW1 5246   2.553   1.057   2.329
 1741SOL    HW2 5247   2.651   0.999   2.212
 1742SOL     OW 5248   2.272   0.813   3.113
 1742SOL    HW1 5249   2.358   0.825   3.163
 1742SOL    HW2 5250   2.230   0.726   3.140
 1743SOL     OW 5251   3.136   0.386   3.124
 1743SOL    HW1 5252   3.157   0.460   3.188
 1743SOL    HW2 5253   3.047   0.403   3.081
 1744SOL     OW 5254   1.926   1.564   3.193
 1744SOL    HW1 5255   1.880   1.646   3.159
 1744SOL    HW2 5256   2.024   1.583   3.202
 1745SOL     OW 5257   2.229   1.100   2.363
 1745SOL    HW1 5258   2.222   1.183   2.307
 1745SOL    HW2 5259   2.233   1.020   2.303
 1746SOL     OW 5260   2.428   0.537   2.727
 1746SOL    HW1 5261   2.440   0.603   2.653
 1746SOL    HW2 5262   2.474   0.571   2.810
 1747SOL     OW 5263   3.114   1.348   2.250
 1747SOL    HW1 5264   3.164   1.425   2.290
 1747SOL    HW2 5265   3.019   1.350   2.282
 1748SOL     OW 5266   3.134   1.445   3.004
 1748SOL    HW1 5267   3.181   1.458   3.091
 1748SOL    HW2 5268   3.068   1.371   3.013
 1749SOL     OW 5269   3.444   0.639   2.334
 1749SOL    HW1 5270   3.413   0.700   2.407
 1749SOL    HW2 5271   3.494   0.691   2.265
 1750SOL     OW 5272   2.216   1.510   3.191
 1750SOL    HW1 5273   2.195   1.466   3.104
 1750SOL    HW2 5274   2.313   1.536   3.194
 1751SOL     OW 5275   2.264   0.751   3.460
 1751SOL    HW1 5276   2.332   0.806   3.413
 1751SOL    HW2 5277   2.304   0.663   3.487
 1752SOL     OW 5278   3.449   0.779   3.532
 1752SOL    HW1 5279   3.357   0.817   3.527
 1752SOL    HW2 5280   3.509   0.826   3.467
 1753SOL     OW 5281   2.875   0.105   3.632
 1753SOL    HW1 5282   2.881   0.190   3.580
 1753SOL    HW2 5283   2.907   0.029   3.575
 1754SOL     OW 5284   2.366   0.050   3.602
 1754SOL    HW1 5285   2.324  -0.007   3.532
 1754SOL    HW2 5286   2.300   0.119   3.634
 1755SOL     OW 5287   2.435   0.870   2.891
 1755SOL    HW1 5288   2.479   0.959   2.882
 1755SOL    HW2 5289   2.372   0.870   2.968
 1756SOL     OW 5290   3.222   0.862   2.907
 1756SOL    HW1 5291   3.147   0.862   2.841
 1756SOL    HW2 5292   3.259   0.770   2.916
 1757SOL     OW 5293   3.071   0.525   2.137
 1757SOL    HW1 5294   3.084   0.441   2.191
 1757SOL    HW2 5295   3.042   0.599   2.197
 1758SOL     OW 5296   2.169   0.213   3.093
 1758SOL    HW1 5297   2.146   0.250   3.183
 1758SOL    HW2 5298   2.139   0.118   3.087
 1759SOL     OW 5299   1.899   1.310   3.144
 1759SOL    HW1 5300   1.952   1.261   3.212
 1759SOL    HW2 5301   1.921   1.408   3.149
 1760SOL     OW 5302   2.594   0.634   2.926
 1760SOL    HW1 5303   2.653   0.608   2.850
 1760SOL    HW2 5304   2.566   0.730   2.915
 1761SOL     OW 5305   3.590   0.935   3.716
 1761SOL    HW1 5306   3.544   0.928   3.627
 1761SOL    HW2 5307   3.528   0.979   3.782
 1762SOL     OW 5308   2.169   0.063   2.480
 1762SOL    HW1 5309   2.158   0.157   2.513
 1762SOL    HW2 5310   2.164   0.000   2.557
 1763SOL     OW 5311   3.484   0.367   2.236
 1763SOL    HW1 5312   3.486   0.291   2.300
 1763SOL    HW2 5313   3.436   0.444   2.276
 1764SOL     OW 5314   2.885   0.766   2.828
 1764SOL    HW1 5315   2.900   0.787   2.924
 1764SOL    HW2 5316   2.855   0.671   2.819
 1765SOL     OW 5317   2.842   1.573   3.562
 1765SOL    HW1 5318   2.822   1.617   3.474
 1765SOL    HW2 5319   2.881   1.482   3.546
 1766SOL     OW 5320   3.721   1.518   3.467
 1766SOL    HW1 5321   3.735   1.545   3.372
 1766SOL    HW2 5322   3.804   1.540   3.520
 1767SOL     OW 5323   2.212   0.898   3.666
 1767SOL    HW1 5324   2.288   0.942   3.714
 1767SOL    HW2 5325   2.247   0.851   3.584
 1768SOL     OW 5326   3.402   0.274   1.987
 1768SOL    HW1 5327   3.341   0.199   2.010
 1768SOL    HW2 5328   3.424   0.326   2.070
 1769SOL     OW 5329   3.165   0.838   1.904
 1769SOL    HW1 5330   3.199   0.745   1.919
 1769SOL    HW2 5331   3.183   0.865   1.809
 1770SOL     OW 5332   2.930   1.333   2.711
 1770SOL    HW1 5333   2.937   1.249   2.656
 1770SOL    HW2 5334   2.992   1.402   2.675
 1771SOL     OW 5335   2.181   0.810   2.811
 1771SOL    HW1 5336   2.274   0.846   2.816
 1771SOL    HW2 5337   2.175   0.725   2.863
 1772SOL     OW 5338   2.201   0.509   2.868
 1772SOL    HW1 5339   2.149   0.426   2.851
 1772SOL    HW2 5340   2.278   0.514   2.804
 1773SOL     OW 5341   3.000   0.380   3.540
 1773SOL    HW1 5342   2.955   0.443   3.604
 1773SOL    HW2 5343   3.093   0.411   3.523
 1774SOL     OW 5344   3.022   0.207   3.339
 1774SOL    HW1 5345   3.022   0.271   3.416
 1774SOL    HW2 5346   3.050   0.255   3.256
 1775SOL     OW 5347   1.870   1.326   2.062
 1775SOL    HW1 5348   1.777   1.347   2.031
 1775SOL    HW2 5349   1.880   1.227   2.075
 1776SOL     OW 5350   1.950   1.801   2.789
 1776SOL    HW1 5351   1.908   1.715   2.762
 1776SOL    HW2 5352   2.044   1.804   2.755
 1777SOL     OW 5353   2.366   1.568   2.772
 1777SOL    HW1 5354   2.432   1.642   2.781
 1777SOL    HW2 5355   2.410   1.489   2.730
 1778SOL     OW 5356   2.864   0.796   3.100
 1778SOL    HW1 5357   2.905   0.764   3.186
 1778SOL    HW2 5358   2.768   0.769   3.097
 1779SOL     OW 5359   1.902   0.544   2.976
 1779SOL    HW1 5360   1.987   0.511   2.935
 1779SOL    HW2 5361   1.915   0.559   3.074
 1780SOL     OW 5362   2.051   0.520   3.584
 1780SOL    HW1 5363   2.110   0.480   3.514
 1780SOL    HW2 5364   1.993   0.591   3.543
 1781SOL     OW 5365   3.231   0.950   3.522
 1781SOL    HW1 5366   3.270   1.039   3.542
 1781SOL    HW2 5367   3.241   0.930   3.425
 1782SOL     OW 5368   2.677   0.572   2.187
 1782SOL    HW1 5369   2.684   0.483   2.141
 1782SOL    HW2 5370   2.583   0.606   2.179
 1783SOL     OW 5371   3.519   0.604   3.068
 1783SOL    HW1 5372   3.481   0.535   3.130
 1783SOL    HW2 5373   3.601   0.568   3.024
 1784SOL     OW 5374   2.114   1.564   3.606
 1784SOL    HW1 5375   2.084   1.621   3.682
 1784SOL    HW2 5376   2.107   1.467   3.632
 1785SOL     OW 5377   2.533   0.464   3.131
 1785SOL    HW1 5378   2.499   0.375   3.101
 1785SOL    HW2 5379   2.559   0.518   3.051
 1786SOL     OW 5380   2.792   1.678   3.327
 1786SOL    HW1 5381   2.768   1.660   3.232
 1786SOL    HW2 5382   2.822   1.772   3.337
 1787SOL     OW 5383   2.335   0.500   2.053
 1787SOL    HW1 5384   2.396   0.580   2.057
 1787SOL    HW2 5385   2.240   0.531   2.060
 1788SOL     OW 5386   2.021   1.137   3.328
 1788SOL    HW1 5387   2.043   1.076   3.404
 1788SOL    HW2 5388   2.031   1.088   3.242
 1789SOL     OW 5389   3.209   1.059   3.096
 1789SOL    HW1 5390   3.233   0.996   3.022
 1789SOL    HW2 5391   3.119   1.099   3.078
 1790SOL     OW 5392   3.164   0.855   2.171
 1790SOL    HW1 5393   3.078   0.824   2.213
 1790SOL    HW2 5394   3.160   0.841   2.072
 1791SOL     OW 5395   3.621   1.747   3.016
 1791SOL    HW1 5396   3.682   1.777   2.943
 1791SOL    HW2 5397   3.583   1.658   2.994
 1792SOL     OW 5398   3.114   1.731   2.990
 1792SOL    HW1 5399   3.198   1.736   2.936
 1792SOL    HW2 5400   3.091   1.635   3.008
 1793SOL     OW 5401   1.945   1.258   2.884
 1793SOL    HW1 5402   1.940   1.257   2.984
 1793SOL    HW2 5403   1.862   1.217   2.846
 1794SOL     OW 5404   2.550   1.662   3.578
 1794SOL    HW1 5405   2.494   1.743   3.587
 1794SOL    HW2 5406   2.602   1.666   3.492
 1795SOL     OW 5407   3.588   0.135   2.385
 1795SOL    HW1 5408   3.661   0.118   2.318
 1795SOL    HW2 5409   3.557   0.048   2.423
 1796SOL     OW 5410   3.250   1.573   2.339
 1796SOL    HW1 5411   3.317   1.585   2.265
 1796SOL    HW2 5412   3.210   1.662   2.362
 1797SOL     OW 5413   1.992   1.794   3.713
 1797SOL    HW1 5414   1.951   1.720   3.766
 1797SOL    HW2 5415   2.056   1.845   3.771
 1798SOL     OW 5416   3.142   0.927   2.534
 1798SOL    HW1 5417   3.202   0.846   2.536
 1798SOL    HW2 5418   3.182   0.996   2.474
 1799SOL     OW 5419   2.692   1.273   3.284
 1799SOL    HW1 5420   2.687   1.306   3.379
 1799SOL    HW2 5421   2.606   1.292   3.238
 1800SOL     OW 5422   2.534   1.616   2.016
 1800SOL    HW1 5423   2.543   1.626   1.917
 1800SOL    HW2 5424   2.494   1.527   2.037
 1801SOL     OW 5425   3.512   1.720   3.256
 1801SOL    HW1 5426   3.565   1.730   3.172
 1801SOL    HW2 5427   3.485   1.810   3.290
 1802SOL     OW 5428   3.703   0.175   2.825
 1802SOL    HW1 5429   3.742   0.090   2.789
 1802SOL    HW2 5430   3.605   0.177   2.806
 1803SOL     OW 5431   2.125   0.326   2.582
 1803SOL    HW1 5432   2.046   0.377   2.548
 1803SOL    HW2 5433   2.116   0.311   2.680
 1804SOL     OW 5434   3.056   1.612   1.893
 1804SOL    HW1 5435   3.062   1.519   1.930
 1804SOL    HW2 5436   2.997   1.612   1.813
 1805SOL     OW 5437   2.684   1.002   3.234
 1805SOL    HW1 5438   2.724   1.001   3.142
 1805SOL    HW2 5439   2.694   1.094   3.274
 1806SOL     OW 5440   2.778   0.910   2.153
 1806SOL    HW1 5441   2.841   0.948   2.085
 1806SOL    HW2 5442   2.818   0.827   2.192
 1807SOL     OW 5443   3.366   1.607   1.906
 1807SOL    HW1 5444   3.274   1.644   1.913
 1807SOL    HW2 5445   3.404   1.627   1.816
 1808SOL     OW 5446   2.234   1.288   3.352
 1808SOL    HW1 5447   2.221   1.381   3.318
 1808SOL    HW2 5448   2.150   1.236   3.339
 1809SOL     OW 5449   3.476   1.292   3.151
 1809SOL    HW1 5450   3.536   1.295   3.231
 1809SOL    HW2 5451   3.401   1.356   3.164
 1810SOL     OW 5452   2.901   1.098   2.558
 1810SOL    HW1 5453   2.831   1.051   2.612
 1810SOL    HW2 5454   2.960   1.030   2.515
 1811SOL     OW 5455   2.876   0.236   2.833
 1811SOL    HW1 5456   2.868   0.200   2.740
 1811SOL    HW2 5457   2.874   0.160   2.898
 1812SOL     OW 5458   2.452   1.487   2.353
 1812SOL    HW1 5459   2.494   1.429   2.283
 1812SOL    HW2 5460   2.408   1.566   2.309
 1813SOL     OW 5461   3.571   0.385   3.243
 1813SOL    HW1 5462   3.644   0.454   3.247
 1813SOL    HW2 5463   3.599   0.310   3.184
 1814SOL     OW 5464   2.117   1.348   2.152
 1814SOL    HW1 5465   2.021   1.349   2.125
 1814SOL    HW2 5466   2.129   1.401   2.236
 1815SOL     OW 5467   1.967   1.013   3.588
 1815SOL    HW1 5468   1.890   0.980   3.642
 1815SOL    HW2 5469   2.052   0.983   3.630
 1816SOL     OW 5470   2.534   0.203   3.351
 1816SOL    HW1 5471   2.624   0.187   3.311
 1816SOL    HW2 5472   2.542   0.208   3.450
 1817SOL     OW 5473   1.937   0.345   1.895
 1817SOL    HW1 5474   1.845   0.317   1.866
 1817SOL    HW2 5475   1.968   0.422   1.839
 1818SOL     OW 5476   3.302   0.856   3.260
 1818SOL    HW1 5477   3.245   0.908   3.197
 1818SOL    HW2 5478   3.398   0.868   3.236
 1819SOL     OW 5479   1.934   0.166   2.180
 1819SOL    HW1 5480   1.917   0.249   2.126
 1819SOL    HW2 5481   2.024   0.129   2.158
 1820SOL     OW 5482   3.045   1.335   1.981
 1820SOL    HW1 5483   2.946   1.324   1.983
 1820SOL    HW2 5484   3.079   1.350   2.074
 1821SOL     OW 5485   2.475   0.842   3.293
 1821SOL    HW1 5486   2.531   0.923   3.276
 1821SOL    HW2 5487   2.534   0.762   3.296
 1822SOL     OW 5488   3.355   1.767   2.821
 1822SOL    HW1 5489   3.388   1.831   2.752
 1822SOL    HW2 5490   3.421   1.761   2.896
 1823SOL     OW 5491   2.578   0.565   3.570
 1823SOL    HW1 5492   2.597   0.630   3.644
 1823SOL    HW2 5493   2.638   0.485   3.579
 1824SOL     OW 5494   3.312   1.220   3.495
 1824SOL    HW1 5495   3.303   1.210   3.594
 1824SOL    HW2 5496   3.408   1.213   3.469
 1825SOL     OW 5497   2.252   1.741   3.422
 1825SOL    HW1 5498   2.161   1.782   3.420
 1825SOL    HW2 5499   2.245   1.647   3.454
 1826SOL     OW 5500   3.536   0.883   3.116
 1826SOL    HW1 5501   3.509   0.794   3.079
 1826SOL    HW2 5502   3.537   0.951   3.043
 1827SOL     OW 5503   3.087   0.325   2.311
 1827SOL    HW1 5504   3.152   0.251   2.300
 1827SOL    HW2 5505   3.107   0.375   2.395
 1828SOL     OW 5506   2.456   0.745   2.514
 1828SOL    HW1 5507   2.506   0.830   2.495
 1828SOL    HW2 5508   2.368   0.747   2.466
 1829SOL     OW 5509   3.639   0.342   3.504
 1829SOL    HW1 5510   3.622   0.373   3.410
 1829SOL    HW2 5511   3.555   0.305   3.542
 1830SOL     OW 5512   3.592   0.934   3.379
 1830SOL    HW1 5513   3.630   1.025   3.394
 1830SOL    HW2 5514   3.584   0.917   3.280
 1831SOL     OW 5515   2.721   1.374   1.878
 1831SOL    HW1 5516   2.675   1.389   1.966
 1831SOL    HW2 5517   2.765   1.459   1.848
 1832SOL     OW 5518   2.523   1.790   2.815
 1832SOL    HW1 5519   2.477   1.878   2.802
 1832SOL    HW2 5520   2.622   1.802   2.808
 1833SOL     OW 5521   2.721   0.956   2.723
 1833SOL    HW1 5522   2.775   0.887   2.771
 1833SOL    HW2 5523   2.689   1.025   2.789
 1834SOL     OW 5524   2.945   0.984   1.949
 1834SOL    HW1 5525   2.922   1.037   1.867
 1834SOL    HW2 5526   3.026   0.928   1.930
 1835SOL     OW 5527   3.723   1.569   2.713
 1835SOL    HW1 5528   3.652   1.557   2.643
 1835SOL    HW2 5529   3.724   1.490   2.773
 1836SOL     OW 5530   2.083   1.314   3.706
 1836SOL    HW1 5531   2.018   1.241   3.685
 1836SOL    HW2 5532   2.087   1.328   3.804
 1837SOL     OW 5533   1.941   1.240   2.515
 1837SOL    HW1 5534   1.940   1.193   2.603
 1837SOL    HW2 5535   2.023   1.212   2.464
 1838SOL     OW 5536   2.534   1.391   3.486
 1838SOL    HW1 5537   2.456   1.341   3.524
 1838SOL    HW2 5538   2.531   1.486   3.517
 1839SOL     OW 5539   3.686   0.192   3.089
 1839SOL    HW1 5540   3.682   0.102   3.133
 1839SOL    HW2 5541   3.689   0.181   2.990
 1840SOL     OW 5542   2.290   0.424   2.382
 1840SOL    HW1 5543   2.320   0.352   2.320
 1840SOL    HW2 5544   2.251   0.384   2.465
 1841SOL     OW 5545   3.567   1.487   2.966
 1841SOL    HW1 5546   3.474   1.462   2.939
 1841SOL    HW2 5547   3.593   1.437   3.048
 1842SOL     OW 5548   2.179   0.547   3.142
 1842SOL    HW1 5549   2.217   0.488   3.214
 1842SOL    HW2 5550   2.219   0.521   3.054
 1843SOL     OW 5551   2.674   1.586   2.549
 1843SOL    HW1 5552   2.706   1.596   2.455
 1843SOL    HW2 5553   2.595   1.524   2.551
 1844SOL     OW 5554   3.286   0.214   2.974
 1844SOL    HW1 5555   3.338   0.149   3.029
 1844SOL    HW2 5556   3.237   0.277   3.035
 1845SOL     OW 5557   2.863   0.034   3.016
 1845SOL    HW1 5558   2.800  -0.038   2.985
 1845SOL    HW2 5559   2.956  -0.002   3.016
 1846SOL     OW 5560   2.632   1.330   2.163
 1846SOL    HW1 5561   2.586   1.243   2.180
 1846SOL    HW2 5562   2.723   1.327   2.204
 1847SOL     OW 5563   2.480   1.567   3.146
 1847SOL    HW1 5564   2.475   1.649   3.203
 1847SOL    HW2 5565   2.569   1.564   3.101
 1848SOL     OW 5566   3.214   0.052   2.030
 1848SOL    HW1 5567   3.249   0.011   1.946
 1848SOL    HW2 5568   3.124   0.014   2.050
 1849SOL     OW 5569   3.162   0.453   2.553
 1849SOL    HW1 5570   3.103   0.533   2.557
 1849SOL    HW2 5571   3.177   0.418   2.646
 1850SOL     OW 5572   3.455   0.221   2.744
 1850SOL    HW1 5573   3.371   0.220   2.798
 1850SOL    HW2 5574   3.457   0.304   2.688
 1851SOL     OW 5575   1.901   1.077   2.162
 1851SOL    HW1 5576   2.000   1.066   2.153
 1851SOL    HW2 5577   1.861   0.991   2.194
 1852SOL     OW 5578   2.737   1.646   2.199
 1852SOL    HW1 5579   2.660   1.611   2.145
 1852SOL    HW2 5580   2.705   1.717   2.261
 1853SOL     OW 5581   2.092   0.628   3.837
 1853SOL    HW1 5582   1.999   0.626   3.874
 1853SOL    HW2 5583   2.093   0.589   3.745
 1854SOL     OW 5584   2.087   0.275   4.720
 1854SOL    HW1 5585   2.122   0.258   4.812
 1854SOL    HW2 5586   1.999   0.230   4.708
 1855SOL     OW 5587   1.881   0.368   4.371
 1855SOL    HW1 5588   1.799   0.411   4.410
 1855SOL    HW2 5589   1.853   0.295   4.308
 1856SOL     OW 5590   3.417   1.511   4.427
 1856SOL    HW1 5591   3.360   1.495   4.508
 1856SOL    HW2 5592   3.358   1.521   4.347
 1857SOL     OW 5593   2.997   0.703   4.441
 1857SOL    HW1 5594   3.054   0.781   4.416
 1857SOL    HW2 5595   2.937   0.729   4.517
 1858SOL     OW 5596   3.617   0.607   3.955
 1858SOL    HW1 5597   3.605   0.594   3.856
 1858SOL    HW2 5598   3.587   0.526   4.004
 1859SOL     OW 5599   2.630   1.144   4.747
 1859SOL    HW1 5600   2.552   1.161   4.807
 1859SOL    HW2 5601   2.664   1.231   4.711
 1860SOL     OW 5602   2.547   1.012   4.389
 1860SOL    HW1 5603   2.616   0.996   4.459
 1860SOL    HW2 5604   2.474   1.069   4.427
 1861SOL     OW 5605   2.197   1.435   4.785
 1861SOL    HW1 5606   2.119   1.404   4.732
 1861SOL    HW2 5607   2.255   1.493   4.728
 1862SOL     OW 5608   3.465   0.447   4.461
 1862SOL    HW1 5609   3.391   0.493   4.411
 1862SOL    HW2 5610   3.516   0.515   4.514
 1863SOL     OW 5611   2.093   1.713   4.207
 1863SOL    HW1 5612   2.127   1.790   4.261
 1863SOL    HW2 5613   2.137   1.713   4.117
 1864SOL     OW 5614   2.092   1.434   4.262
 1864SOL    HW1 5615   2.066   1.530   4.262
 1864SOL    HW2 5616   2.021   1.380   4.307
 1865SOL     OW 5617   2.102   1.091   4.610
 1865SOL    HW1 5618   2.116   1.007   4.662
 1865SOL    HW2 5619   2.047   1.155   4.665
 1866SOL     OW 5620   2.468   0.964   3.847
 1866SOL    HW1 5621   2.475   1.048   3.793
 1866SOL    HW2 5622   2.514   0.977   3.935
 1867SOL     OW 5623   1.984   0.643   4.287
 1867SOL    HW1 5624   1.939   0.555   4.304
 1867SOL    HW2 5625   1.983   0.697   4.371
 1868SOL     OW 5626   3.704   1.767   4.083
 1868SOL    HW1 5627   3.758   1.738   4.163
 1868SOL    HW2 5628   3.734   1.857   4.054
 1869SOL     OW 5629   1.889   1.596   3.841
 1869SOL    HW1 5630   1.870   1.500   3.862
 1869SOL    HW2 5631   1.856   1.654   3.916
 1870SOL     OW 5632   3.551   0.922   4.336
 1870SOL    HW1 5633   3.646   0.893   4.344
 1870SOL    HW2 5634   3.543   0.987   4.261
 1871SOL     OW 5635   3.503   1.108   4.156
 1871SOL    HW1 5636   3.589   1.110   4.104
 1871SOL    HW2 5637   3.517   1.155   4.244
 1872SOL     OW 5638   2.475   1.365   4.450
 1872SOL    HW1 5639   2.426   1.278   4.459
 1872SOL    HW2 5640   2.452   1.408   4.363
 1873SOL     OW 5641   2.671   0.004   4.226
 1873SOL    HW1 5642   2.711   0.095   4.217
 1873SOL    HW2 5643   2.571   0.012   4.232
 1874SOL     OW 5644   3.387   0.999   3.914
 1874SOL    HW1 5645   3.324   0.923   3.927
 1874SOL    HW2 5646   3.435   1.017   4.000
 1875SOL     OW 5647   3.328   1.417   4.677
 1875SOL    HW1 5648   3.269   1.423   4.757
 1875SOL    HW2 5649   3.313   1.329   4.631
 1876SOL     OW 5650   3.529   1.714   4.296
 1876SOL    HW1 5651   3.488   1.691   4.208
 1876SOL    HW2 5652   3.511   1.640   4.361
 1877SOL     OW 5653   2.460   0.729   3.994
 1877SOL    HW1 5654   2.484   0.798   3.926
 1877SOL    HW2 5655   2.382   0.762   4.048
 1878SOL     OW 5656   3.143   0.345   4.668
 1878SOL    HW1 5657   3.057   0.295   4.655
 1878SOL    HW2 5658   3.205   0.291   4.724
 1879SOL     OW 5659   3.438   1.662   4.031
 1879SOL    HW1 5660   3.527   1.708   4.034
 1879SOL    HW2 5661   3.417   1.638   3.936
 1880SOL     OW 5662   2.903   0.701   4.153
 1880SOL    HW1 5663   2.929   0.697   4.249
 1880SOL    HW2 5664   2.818   0.650   4.139
 1881SOL     OW 5665   1.938   0.811   4.513
 1881SOL    HW1 5666   2.037   0.799   4.522
 1881SOL    HW2 5667   1.914   0.906   4.534
 1882SOL     OW 5668   2.727   0.348   3.919
 1882SOL    HW1 5669   2.786   0.411   3.870
 1882SOL    HW2 5670   2.746   0.254   3.890
 1883SOL     OW 5671   3.224   1.144   4.269
 1883SOL    HW1 5672   3.307   1.115   4.221
 1883SOL    HW2 5673   3.175   1.211   4.213
 1884SOL     OW 5674   2.412   0.196   4.609
 1884SOL    HW1 5675   2.407   0.191   4.709
 1884SOL    HW2 5676   2.414   0.292   4.580
 1885SOL     OW 5677   2.870   1.456   4.201
 1885SOL    HW1 5678   2.824   1.528   4.149
 1885SOL    HW2 5679   2.866   1.476   4.299
 1886SOL     OW 5680   2.213   1.801   4.577
 1886SOL    HW1 5681   2.263   1.715   4.583
 1886SOL    HW2 5682   2.278   1.878   4.574
 1887SOL     OW 5683   3.657   1.066   4.597
 1887SOL    HW1 5684   3.595   1.051   4.521
 1887SOL    HW2 5685   3.605   1.077   4.682
 1888SOL     OW 5686   2.183   0.943   3.966
 1888SOL    HW1 5687   2.265   0.982   3.924
 1888SOL    HW2 5688   2.156   0.861   3.917
 1889SOL     OW 5689   3.320   0.735   4.452
 1889SOL    HW1 5690   3.315   0.670   4.527
 1889SOL    HW2 5691   3.400   0.794   4.465
 1890SOL     OW 5692   2.973   1.776   3.961
 1890SOL    HW1 5693   2.913   1.714   4.011
 1890SOL    HW2 5694   3.004   1.732   3.876
 1891SOL     OW 5695   3.494   1.377   3.805
 1891SOL    HW1 5696   3.462   1.471   3.795
 1891SOL    HW2 5697   3.418   1.314   3.793
 1892SOL     OW 5698   2.326   1.743   4.047
 1892SOL    HW1 5699   2.359   1.782   4.133
 1892SOL    HW2 5700   2.402   1.736   3.982
 1893SOL     OW 5701   3.262   0.107   4.150
 1893SOL    HW1 5702   3.238   0.070   4.060
 1893SOL    HW2 5703   3.361   0.123   4.154
 1894SOL     OW 5704   2.111   1.785   4.965
 1894SOL    HW1 5705   2.168   1.720   5.015
 1894SOL    HW2 5706   2.095   1.752   4.872
 1895SOL     OW 5707   2.802   1.698   4.628
 1895SOL    HW1 5708   2.882   1.641   4.649
 1895SOL    HW2 5709   2.753   1.658   4.551
 1896SOL     OW 5710   2.244   0.700   4.204
 1896SOL    HW1 5711   2.289   0.610   4.201
 1896SOL    HW2 5712   2.150   0.689   4.237
 1897SOL     OW 5713   2.476   0.122   3.841
 1897SOL    HW1 5714   2.574   0.100   3.848
 1897SOL    HW2 5715   2.445   0.105   3.748
 1898SOL     OW 5716   2.665   1.402   4.648
 1898SOL    HW1 5717   2.755   1.416   4.606
 1898SOL    HW2 5718   2.594   1.404   4.577
 1899SOL     OW 5719   2.784   0.503   4.623
 1899SOL    HW1 5720   2.759   0.494   4.527
 1899SOL    HW2 5721   2.832   0.421   4.654
 1900SOL     OW 5722   2.401   0.064   4.236
 1900SOL    HW1 5723   2.320   0.065   4.294
 1900SOL    HW2 5724   2.404   0.147   4.181
 1901SOL     OW 5725   3.296   1.188   3.765
 1901SOL    HW1 5726   3.328   1.112   3.822
 1901SOL    HW2 5727   3.204   1.215   3.795
 1902SOL     OW 5728   2.159   0.035   3.895
 1902SOL    HW1 5729   2.208   0.119   3.874
 1902SOL    HW2 5730   2.221  -0.030   3.940
 1903SOL     OW 5731   2.797   0.236   4.204
 1903SOL    HW1 5732   2.749   0.277   4.126
 1903SOL    HW2 5733   2.896   0.234   4.185
 1904SOL     OW 5734   3.089   1.570   4.517
 1904SOL    HW1 5735   3.110   1.644   4.452
 1904SOL    HW2 5736   3.157   1.570   4.590
 1905SOL     OW 5737   2.321   1.152   4.465
 1905SOL    HW1 5738   2.250   1.125   4.530
 1905SOL    HW2 5739   2.295   1.124   4.372
 1906SOL     OW 5740   3.133   1.797   4.315
 1906SOL    HW1 5741   3.177   1.861   4.251
 1906SOL    HW2 5742   3.083   1.849   4.385
 1907SOL     OW 5743   2.894   0.549   3.740
 1907SOL    HW1 5744   2.853   0.631   3.701
 1907SOL    HW2 5745   2.958   0.575   3.813
 1908SOL     OW 5746   2.728   0.454   4.366
 1908SOL    HW1 5747   2.696   0.526   4.304
 1908SOL    HW2 5748   2.752   0.373   4.313
 1909SOL     OW 5749   2.879   0.039   4.477
 1909SOL    HW1 5750   2.807   0.044   4.408
 1909SOL    HW2 5751   2.855  -0.030   4.546
 1910SOL     OW 5752   3.291   1.173   4.591
 1910SOL    HW1 5753   3.236   1.089   4.584
 1910SOL    HW2 5754   3.317   1.202   4.499
 1911SOL     OW 5755   3.328   0.590   4.716
 1911SOL    HW1 5756   3.298   0.495   4.723
 1911SOL    HW2 5757   3.401   0.606   4.782
 1912SOL     OW 5758   3.719   0.833   4.101
 1912SOL    HW1 5759   3.761   0.769   4.165
 1912SOL    HW2 5760   3.681   0.782   4.023
 1913SOL     OW 5761   2.350   1.385   3.898
 1913SOL    HW1 5762   2.263   1.370   3.945
 1913SOL    HW2 5763   2.333   1.411   3.803
 1914SOL     OW 5764   3.526   1.280   4.381
 1914SOL    HW1 5765   3.625   1.288   4.395
 1914SOL    HW2 5766   3.481   1.364   4.412
 1915SOL     OW 5767   3.252   0.575   3.802
 1915SOL    HW1 5768   3.198   0.554   3.883
 1915SOL    HW2 5769   3.343   0.534   3.811
 1916SOL     OW 5770   2.389   0.256   4.052
 1916SOL    HW1 5771   2.416   0.197   3.977
 1916SOL    HW2 5772   2.389   0.351   4.021
 1917SOL     OW 5773   3.500   1.099   4.803
 1917SOL    HW1 5774   3.505   1.180   4.862
 1917SOL    HW2 5775   3.414   1.101   4.752
 1918SOL     OW 5776   2.567   1.050   4.092
 1918SOL    HW1 5777   2.553   1.057   4.191
 1918SOL    HW2 5778   2.651   0.999   4.074
 1919SOL     OW 5779   2.229   1.100   4.225
 1919SOL    HW1 5780   2.222   1.183   4.169
 1919SOL    HW2 5781   2.233   1.020   4.165
 1920SOL     OW 5782   2.428   0.537   4.589
 1920SOL    HW1 5783   2.440   0.603   4.515
 1920SOL    HW2 5784   2.474   0.571   4.672
 1921SOL     OW 5785   3.114   1.348   4.112
 1921SOL    HW1 5786   3.164   1.425   4.152
 1921SOL    HW2 5787   3.019   1.350   4.144
 1922SOL     OW 5788   3.444   0.639   4.196
 1922SOL    HW1 5789   3.413   0.700   4.269
 1922SOL    HW2 5790   3.494   0.691   4.127
 1923SOL     OW 5791   2.435   0.870   4.753
 1923SOL    HW1 5792   2.479   0.959   4.744
 1923SOL    HW2 5793   2.372   0.870   4.830
 1924SOL     OW 5794   3.071   0.525   3.999
 1924SOL    HW1 5795   3.084   0.441   4.053
 1924SOL    HW2 5796   3.042   0.599   4.059
 1925SOL     OW 5797   2.594   0.634   4.788
 1925SOL    HW1 5798   2.653   0.608   4.712
 1925SOL    HW2 5799   2.566   0.730   4.777
 1926SOL     OW 5800   2.169   0.063   4.342
 1926SOL    HW1 5801   2.158   0.157   4.375
 1926SOL    HW2 5802   2.164   0.000   4.419
 1927SOL     OW 5803   3.484   0.367   4.098
 1927SOL    HW1 5804   3.486   0.291   4.162
 1927SOL    HW2 5805   3.436   0.444   4.138
 1928SOL     OW 5806   2.885   0.766   4.690
 1928SOL    HW1 5807   2.900   0.787   4.786
 1928SOL    HW2 5808   2.855   0.671   4.681
 1929SOL     OW 5809   3.402   0.274   3.849
 1929SOL    HW1 5810   3.341   0.199   3.872
 1929SOL    HW2 5811   3.424   0.326   3.932
 1930SOL     OW 5812   3.165   0.838   3.766
 1930SOL    HW1 5813   3.199   0.745   3.781
 1930SOL    HW2 5814   3.183   0.865   3.671
 1931SOL     OW 5815   2.930   1.333   4.573
 1931SOL    HW1 5816   2.937   1.249   4.518
 1931SOL    HW2 5817   2.992   1.402   4.537
 1932SOL     OW 5818   2.181   0.810   4.673
 1932SOL    HW1 5819   2.274   0.846   4.678
 1932SOL    HW2 5820   2.175   0.725   4.725
 1933SOL     OW 5821   2.201   0.509   4.730
 1933SOL    HW1 5822   2.149   0.426   4.713
 1933SOL    HW2 5823   2.278   0.514   4.666
 1934SOL     OW 5824   1.870   1.326   3.924
 1934SOL    HW1 5825   1.777   1.347   3.893
 1934SOL    HW2 5826   1.880   1.227   3.937
 1935SOL     OW 5827   1.950   1.801   4.651
 1935SOL    HW1 5828   1.908   1.715   4.624
 1935SOL    HW2 5829   2.044   1.804   4.617
 1936SOL     OW 5830   2.366   1.568   4.634
 1936SOL    HW1 5831   2.432   1.642   4.643
 1936SOL    HW2 5832   2.410   1.489   4.592
 1937SOL     OW 5833   2.864   0.796   4.962
 1937SOL    HW1 5834   2.905   0.764   5.048
 1937SOL    HW2 5835   2.768   0.769   4.959
 1938SOL     OW 5836   2.677   0.572   4.049
 1938SOL    HW1 5837   2.684   0.483   4.003
 1938SOL    HW2 5838   2.583   0.606   4.041
 1939SOL     OW 5839   2.533   0.464   4.993
 1939SOL    HW1 5840   2.499   0.375   4.963
 1939SOL    HW2 5841   2.559   0.518   4.913
 1940SOL     OW 5842   2.335   0.500   3.915
 1940SOL    HW1 5843   2.396   0.580   3.919
 1940SOL    HW2 5844   2.240   0.531   3.922
 1941SOL     OW 5845   3.164   0.855   4.033
 1941SOL    HW1 5846   3.078   0.824   4.075
 1941SOL    HW2 5847   3.160   0.841   3.934
 1942SOL     OW 5848   3.621   1.747   4.878
 1942SOL    HW1 5849   3.682   1.777   4.805
 1942SOL    HW2 5850   3.583   1.658   4.856
 1943SOL     OW 5851   1.945   1.258   4.746
 1943SOL    HW1 5852   1.940   1.257   4.846
 1943SOL    HW2 5853   1.862   1.217   4.708
 1944SOL     OW 5854   3.588   0.135   4.247
 1944SOL    HW1 5855   3.661   0.118   4.180
 1944SOL    HW2 5856   3.557   0.048   4.285
 1945SOL     OW 5857   3.250   1.573   4.201
 1945SOL    HW1 5858   3.317   1.585   4.127
 1945SOL    HW2 5859   3.210   1.662   4.224
 1946SOL     OW 5860   3.142   0.927   4.396
 1946SOL    HW1 5861   3.202   0.846   4.398
 1946SOL    HW2 5862   3.182   0.996   4.336
 1947SOL     OW 5863   2.534   1.616   3.878
 1947SOL    HW1 5864   2.543   1.626   3.779
 1947SOL    HW2 5865   2.494   1.527   3.899
 1948SOL     OW 5866   3.703   0.175   4.687
 1948SOL    HW1 5867   3.742   0.090   4.651
 1948SOL    HW2 5868   3.605   0.177   4.668
 1949SOL     OW 5869   2.125   0.326   4.444
 1949SOL    HW1 5870   2.046   0.377   4.410
 1949SOL    HW2 5871   2.116   0.311   4.542
 1950SOL     OW 5872   3.056   1.612   3.755
 1950SOL    HW1 5873   3.062   1.519   3.792
 1950SOL    HW2 5874   2.997   1.612   3.675
 1951SOL     OW 5875   2.778   0.910   4.015
 1951SOL    HW1 5876   2.841   0.948   3.947
 1951SOL    HW2 5877   2.818   0.827   4.054
 1952SOL     OW 5878   3.366   1.607   3.768
 1952SOL    HW1 5879   3.274   1.644   3.775
 1952SOL    HW2 5880   3.404   1.627   3.678
 1953SOL     OW 5881   2.901   1.098   4.420
 1953SOL    HW1 5882   2.831   1.051   4.474
 1953SOL    HW2 5883   2.960   1.030   4.377
 1954SOL     OW 5884   2.876   0.236   4.695
 1954SOL    HW1 5885   2.868   0.200   4.602
 1954SOL    HW2 5886   2.874   0.160   4.760
 1955SOL     OW 5887   2.452   1.487   4.215
 1955SOL    HW1 5888   2.494   1.429   4.145
 1955SOL    HW2 5889   2.408   1.566   4.171
 1956SOL     OW 5890   2.117   1.348   4.014
 1956SOL    HW1 5891   2.021   1.349   3.987
 1956SOL    HW2 5892   2.129   1.401   4.098
 1957SOL     OW 5893   1.937   0.345   3.757
 1957SOL    HW1 5894   1.845   0.317   3.728
 1957SOL    HW2 5895   1.968   0.422   3.701
 1958SOL     OW 5896   1.934   0.166   4.042
 1958SOL    HW1 5897   1.917   0.249   3.988
 1958SOL    HW2 5898   2.024   0.129   4.020
 1959SOL     OW 5899   3.045   1.335   3.843
 1959SOL    HW1 5900   2.946   1.324   3.845
 1959SOL    HW2 5901   3.079   1.350   3.936
 1960SOL     OW 5902   3.355   1.767   4.683
 1960SOL    HW1 5903   3.388   1.831   4.614
 1960SOL    HW2 5904   3.421   1.761   4.758
 1961SOL     OW 5905   3.536   0.883   4.978
 1961SOL    HW1 5906   3.509   0.794   4.941
 1961SOL    HW2 5907   3.537   0.951   4.905
 1962SOL     OW 5908   3.087   0.325   4.173
 1962SOL    HW1 5909   3.152   0.251   4.162
 1962SOL    HW2 5910   3.107   0.375   4.257
 1963SOL     OW 5911   2.456   0.745   4.376
 1963SOL    HW1 5912   2.506   0.830   4.357
 1963SOL    HW2 5913   2.368   0.747   4.328
 1964SOL     OW 5914   2.721   1.374   3.740
 1964SOL    HW1 5915   2.675   1.389   3.828
 1964SOL    HW2 5916   2.765   1.459   3.710
 1965SOL     OW 5917   2.523   1.790   4.677
 1965SOL    HW1 5918   2.477   1.878   4.664
 1965SOL    HW2 5919   2.622   1.802   4.670
 1966SOL     OW 5920   2.721   0.956   4.585
 1966SOL    HW1 5921   2.775   0.887   4.633
 1966SOL    HW2 5922   2.689   1.025   4.651
 1967SOL     OW 5923   2.945   0.984   3.811
 1967SOL    HW1 5924   2.922   1.037   3.729
 1967SOL    HW2 5925   3.026   0.928   3.792
 1968SOL     OW 5926   3.723   1.569   4.575
 1968SOL    HW1 5927   3.652   1.557   4.505
 1968SOL    HW2 5928   3.724   1.490   4.635
 1969SOL     OW 5929   1.941   1.240   4.377
 1969SOL    HW1 5930   1.940   1.193   4.465
 1969SOL    HW2 5931   2.023   1.212   4.326
 1970SOL     OW 5932   3.686   0.192   4.951
 1970SOL    HW1 5933   3.682   0.102   4.995
 1970SOL    HW2 5934   3.689   0.181   4.852
 1971SOL     OW 5935   2.290   0.424   4.244
 1971SOL    HW1 5936   2.320   0.352   4.182
 1971SOL    HW2 5937   2.251   0.384   4.327
 1972SOL     OW 5938   2.674   1.586   4.411
 1972SOL    HW1 5939   2.706   1.596   4.317
 1972SOL    HW2 5940   2.595   1.524   4.413
 1973SOL     OW 5941   2.632   1.330   4.025
 1973SOL    HW1 5942   2.586   1.243   4.042
 1973SOL    HW2 5943   2.723   1.327   4.066
 1974SOL     OW 5944   3.214   0.052   3.892
 1974SOL    HW1 5945   3.249   0.011   3.808
 1974SOL    HW2 5946   3.124   0.014   3.912
 1975SOL     OW 5947   3.162   0.453   4.415
 1975SOL    HW1 5948   3.103   0.533   4.419
 1975SOL    HW2 5949   3.177   0.418   4.508
 1976SOL     OW 5950   3.455   0.221   4.606
 1976SOL    HW1 5951   3.371   0.220   4.660
 1976SOL    HW2 5952   3.457   0.304   4.550
 1977SOL     OW 5953   1.901   1.077   4.024
 1977SOL    HW1 5954   2.000   1.066   4.015
 1977SOL    HW2 5955   1.861   0.991   4.056
 1978SOL     OW 5956   2.737   1.646   4.061
 1978SOL    HW1 5957   2.660   1.611   4.007
 1978SOL    HW2 5958   2.705   1.717   4.123
 1979SOL     OW 5959   2.092   2.490   0.113
 1979SOL    HW1 5960   1.999   2.488   0.150
 1979SOL    HW2 5961   2.093   2.451   0.021
 1980SOL     OW 5962   2.087   2.137   0.996
 1980SOL    HW1 5963   2.122   2.120   1.088
 1980SOL    HW2 5964   1.999   2.092   0.984
 1981SOL     OW 5965   1.881   2.230   0.647
 1981SOL    HW1 5966   1.799   2.273   0.686
 1981SOL    HW2 5967   1.853   2.157   0.584
 1982SOL     OW 5968   2.431   3.137   1.165
 1982SOL    HW1 5969   2.338   3.130   1.128
 1982SOL    HW2 5970   2.442   3.226   1.209
 1983SOL     OW 5971   3.417   3.373   0.703
 1983SOL    HW1 5972   3.360   3.357   0.784
 1983SOL    HW2 5973   3.358   3.383   0.623
 1984SOL     OW 5974   2.997   2.565   0.717
 1984SOL    HW1 5975   3.054   2.643   0.692
 1984SOL    HW2 5976   2.937   2.591   0.793
 1985SOL     OW 5977   3.617   2.469   0.231
 1985SOL    HW1 5978   3.605   2.456   0.132
 1985SOL    HW2 5979   3.587   2.388   0.280
 1986SOL     OW 5980   2.630   3.006   1.023
 1986SOL    HW1 5981   2.552   3.023   1.083
 1986SOL    HW2 5982   2.664   3.093   0.987
 1987SOL     OW 5983   2.712   2.660   1.823
 1987SOL    HW1 5984   2.708   2.736   1.888
 1987SOL    HW2 5985   2.734   2.696   1.732
 1988SOL     OW 5986   2.547   2.874   0.665
 1988SOL    HW1 5987   2.616   2.858   0.735
 1988SOL    HW2 5988   2.474   2.931   0.703
 1989SOL     OW 5989   2.548   3.023   1.803
 1989SOL    HW1 5990   2.608   3.102   1.817
 1989SOL    HW2 5991   2.462   3.054   1.762
 1990SOL     OW 5992   2.197   3.297   1.061
 1990SOL    HW1 5993   2.119   3.266   1.008
 1990SOL    HW2 5994   2.255   3.355   1.004
 1991SOL     OW 5995   3.322   3.367   1.339
 1991SOL    HW1 5996   3.346   3.461   1.365
 1991SOL    HW2 5997   3.306   3.313   1.421
 1992SOL     OW 5998   2.300   2.254   1.499
 1992SOL    HW1 5999   2.382   2.198   1.508
 1992SOL    HW2 6000   2.219   2.196   1.503
 1993SOL     OW 6001   3.465   2.309   0.737
 1993SOL    HW1 6002   3.391   2.355   0.687
 1993SOL    HW2 6003   3.516   2.377   0.790
 1994SOL     OW 6004   2.093   3.575   0.483
 1994SOL    HW1 6005   2.127   3.652   0.537
 1994SOL    HW2 6006   2.137   3.575   0.393
 1995SOL     OW 6007   2.989   3.203   1.690
 1995SOL    HW1 6008   3.036   3.203   1.778
 1995SOL    HW2 6009   2.941   3.116   1.679
 1996SOL     OW 6010   2.092   3.296   0.538
 1996SOL    HW1 6011   2.066   3.392   0.538
 1996SOL    HW2 6012   2.021   3.242   0.583
 1997SOL     OW 6013   2.102   2.953   0.886
 1997SOL    HW1 6014   2.116   2.869   0.938
 1997SOL    HW2 6015   2.047   3.017   0.941
 1998SOL     OW 6016   2.482   3.648   1.439
 1998SOL    HW1 6017   2.390   3.631   1.474
 1998SOL    HW2 6018   2.510   3.740   1.465
 1999SOL     OW 6019   2.468   2.826   0.123
 1999SOL    HW1 6020   2.475   2.910   0.069
 1999SOL    HW2 6021   2.514   2.839   0.211
 2000SOL     OW 6022   3.456   1.976   1.480
 2000SOL    HW1 6023   3.438   2.043   1.408
 2000SOL    HW2 6024   3.453   2.022   1.569
 2001SOL     OW 6025   1.984   2.505   0.563
 2001SOL    HW1 6026   1.939   2.417   0.580
 2001SOL    HW2 6027   1.983   2.559   0.647
 2002SOL     OW 6028   3.704   3.629   0.359
 2002SOL    HW1 6029   3.758   3.600   0.439
 2002SOL    HW2 6030   3.734   3.719   0.330
 2003SOL     OW 6031   1.889   3.458   0.117
 2003SOL    HW1 6032   1.870   3.362   0.138
 2003SOL    HW2 6033   1.856   3.516   0.192
 2004SOL     OW 6034   3.551   2.784   0.612
 2004SOL    HW1 6035   3.646   2.755   0.620
 2004SOL    HW2 6036   3.543   2.849   0.537
 2005SOL     OW 6037   3.503   2.970   0.432
 2005SOL    HW1 6038   3.589   2.972   0.380
 2005SOL    HW2 6039   3.517   3.017   0.520
 2006SOL     OW 6040   1.975   2.599   1.597
 2006SOL    HW1 6041   2.063   2.586   1.642
 2006SOL    HW2 6042   1.962   2.696   1.575
 2007SOL     OW 6043   2.475   3.227   0.726
 2007SOL    HW1 6044   2.426   3.140   0.735
 2007SOL    HW2 6045   2.452   3.270   0.639
 2008SOL     OW 6046   3.155   3.090   1.423
 2008SOL    HW1 6047   3.192   3.017   1.365
 2008SOL    HW2 6048   3.207   3.095   1.508
 2009SOL     OW 6049   2.671   1.866   0.502
 2009SOL    HW1 6050   2.711   1.957   0.493
 2009SOL    HW2 6051   2.571   1.874   0.508
 2010SOL     OW 6052   2.059   2.838   1.264
 2010SOL    HW1 6053   2.148   2.793   1.250
 2010SOL    HW2 6054   1.986   2.773   1.245
 2011SOL     OW 6055   3.387   2.861   0.190
 2011SOL    HW1 6056   3.324   2.785   0.203
 2011SOL    HW2 6057   3.435   2.879   0.276
 2012SOL     OW 6058   3.049   3.654   1.616
 2012SOL    HW1 6059   3.073   3.714   1.540
 2012SOL    HW2 6060   3.056   3.559   1.586
 2013SOL     OW 6061   2.179   2.113   1.801
 2013SOL    HW1 6062   2.250   2.184   1.807
 2013SOL    HW2 6063   2.091   2.152   1.829
 2014SOL     OW 6064   3.328   3.279   0.953
 2014SOL    HW1 6065   3.269   3.285   1.033
 2014SOL    HW2 6066   3.313   3.191   0.907
 2015SOL     OW 6067   3.529   3.576   0.572
 2015SOL    HW1 6068   3.488   3.553   0.484
 2015SOL    HW2 6069   3.511   3.502   0.637
 2016SOL     OW 6070   2.460   2.591   0.270
 2016SOL    HW1 6071   2.484   2.660   0.202
 2016SOL    HW2 6072   2.382   2.624   0.324
 2017SOL     OW 6073   3.143   2.207   0.944
 2017SOL    HW1 6074   3.057   2.157   0.931
 2017SOL    HW2 6075   3.205   2.153   1.000
 2018SOL     OW 6076   3.438   3.524   0.307
 2018SOL    HW1 6077   3.527   3.570   0.310
 2018SOL    HW2 6078   3.417   3.500   0.212
 2019SOL     OW 6079   2.669   2.467   1.465
 2019SOL    HW1 6080   2.622   2.464   1.554
 2019SOL    HW2 6081   2.618   2.412   1.399
 2020SOL     OW 6082   3.256   2.331   1.674
 2020SOL    HW1 6083   3.236   2.374   1.762
 2020SOL    HW2 6084   3.334   2.269   1.683
 2021SOL     OW 6085   2.835   2.752   1.572
 2021SOL    HW1 6086   2.881   2.668   1.543
 2021SOL    HW2 6087   2.779   2.786   1.497
 2022SOL     OW 6088   2.853   2.272   1.242
 2022SOL    HW1 6089   2.776   2.306   1.296
 2022SOL    HW2 6090   2.819   2.221   1.163
 2023SOL     OW 6091   2.903   2.563   0.429
 2023SOL    HW1 6092   2.929   2.559   0.525
 2023SOL    HW2 6093   2.818   2.512   0.415
 2024SOL     OW 6094   1.938   2.673   0.789
 2024SOL    HW1 6095   2.037   2.661   0.798
 2024SOL    HW2 6096   1.914   2.768   0.810
 2025SOL     OW 6097   1.992   3.683   1.571
 2025SOL    HW1 6098   1.982   3.668   1.670
 2025SOL    HW2 6099   1.906   3.719   1.535
 2026SOL     OW 6100   2.727   2.210   0.195
 2026SOL    HW1 6101   2.786   2.273   0.146
 2026SOL    HW2 6102   2.746   2.116   0.166
 2027SOL     OW 6103   3.581   2.447   1.831
 2027SOL    HW1 6104   3.555   2.536   1.795
 2027SOL    HW2 6105   3.579   2.379   1.758
 2028SOL     OW 6106   3.224   3.006   0.545
 2028SOL    HW1 6107   3.307   2.977   0.497
 2028SOL    HW2 6108   3.175   3.073   0.489
 2029SOL     OW 6109   2.412   2.058   0.885
 2029SOL    HW1 6110   2.407   2.053   0.985
 2029SOL    HW2 6111   2.414   2.154   0.856
 2030SOL     OW 6112   2.870   3.318   0.477
 2030SOL    HW1 6113   2.824   3.390   0.425
 2030SOL    HW2 6114   2.866   3.338   0.575
 2031SOL     OW 6115   2.213   3.663   0.853
 2031SOL    HW1 6116   2.263   3.577   0.859
 2031SOL    HW2 6117   2.278   3.740   0.850
 2032SOL     OW 6118   3.657   2.928   0.873
 2032SOL    HW1 6119   3.595   2.913   0.797
 2032SOL    HW2 6120   3.605   2.939   0.958
 2033SOL     OW 6121   3.089   3.412   1.506
 2033SOL    HW1 6122   3.095   3.335   1.570
 2033SOL    HW2 6123   3.037   3.386   1.426
 2034SOL     OW 6124   2.183   2.805   0.242
 2034SOL    HW1 6125   2.265   2.844   0.200
 2034SOL    HW2 6126   2.156   2.723   0.193
 2035SOL     OW 6127   3.320   2.597   0.728
 2035SOL    HW1 6128   3.315   2.532   0.803
 2035SOL    HW2 6129   3.400   2.656   0.741
 2036SOL     OW 6130   2.323   3.128   1.727
 2036SOL    HW1 6131   2.273   3.129   1.641
 2036SOL    HW2 6132   2.260   3.110   1.803
 2037SOL     OW 6133   2.973   3.638   0.237
 2037SOL    HW1 6134   2.913   3.576   0.287
 2037SOL    HW2 6135   3.004   3.594   0.152
 2038SOL     OW 6136   2.064   2.147   1.498
 2038SOL    HW1 6137   1.984   2.207   1.485
 2038SOL    HW2 6138   2.054   2.098   1.584
 2039SOL     OW 6139   3.494   3.239   0.081
 2039SOL    HW1 6140   3.462   3.333   0.071
 2039SOL    HW2 6141   3.418   3.176   0.069
 2040SOL     OW 6142   2.326   3.605   0.323
 2040SOL    HW1 6143   2.359   3.644   0.409
 2040SOL    HW2 6144   2.402   3.598   0.258
 2041SOL     OW 6145   3.262   1.969   0.426
 2041SOL    HW1 6146   3.238   1.932   0.336
 2041SOL    HW2 6147   3.361   1.985   0.430
 2042SOL     OW 6148   2.111   3.647   1.241
 2042SOL    HW1 6149   2.168   3.582   1.291
 2042SOL    HW2 6150   2.095   3.614   1.148
 2043SOL     OW 6151   2.802   3.560   0.904
 2043SOL    HW1 6152   2.882   3.503   0.925
 2043SOL    HW2 6153   2.753   3.520   0.827
 2044SOL     OW 6154   2.244   2.562   0.480
 2044SOL    HW1 6155   2.289   2.472   0.477
 2044SOL    HW2 6156   2.150   2.551   0.513
 2045SOL     OW 6157   3.409   2.084   1.729
 2045SOL    HW1 6158   3.404   2.121   1.821
 2045SOL    HW2 6159   3.337   2.015   1.717
 2046SOL     OW 6160   2.476   1.984   0.117
 2046SOL    HW1 6161   2.574   1.962   0.124
 2046SOL    HW2 6162   2.445   1.967   0.024
 2047SOL     OW 6163   2.643   2.126   1.749
 2047SOL    HW1 6164   2.710   2.065   1.792
 2047SOL    HW2 6165   2.570   2.145   1.814
 2048SOL     OW 6166   2.750   3.376   1.195
 2048SOL    HW1 6167   2.727   3.351   1.101
 2048SOL    HW2 6168   2.811   3.307   1.234
 2049SOL     OW 6169   3.213   2.452   1.433
 2049SOL    HW1 6170   3.241   2.409   1.518
 2049SOL    HW2 6171   3.238   2.548   1.434
 2050SOL     OW 6172   2.665   3.264   0.924
 2050SOL    HW1 6173   2.755   3.278   0.882
 2050SOL    HW2 6174   2.594   3.266   0.853
 2051SOL     OW 6175   2.784   2.365   0.899
 2051SOL    HW1 6176   2.759   2.356   0.803
 2051SOL    HW2 6177   2.832   2.283   0.930
 2052SOL     OW 6178   2.401   1.926   0.512
 2052SOL    HW1 6179   2.320   1.927   0.570
 2052SOL    HW2 6180   2.404   2.009   0.457
 2053SOL     OW 6181   3.296   3.050   0.041
 2053SOL    HW1 6182   3.328   2.974   0.098
 2053SOL    HW2 6183   3.204   3.077   0.071
 2054SOL     OW 6184   2.797   2.098   0.480
 2054SOL    HW1 6185   2.749   2.139   0.402
 2054SOL    HW2 6186   2.896   2.096   0.461
 2055SOL     OW 6187   2.938   2.545   1.464
 2055SOL    HW1 6188   2.858   2.484   1.467
 2055SOL    HW2 6189   3.019   2.492   1.440
 2056SOL     OW 6190   3.089   3.432   0.793
 2056SOL    HW1 6191   3.110   3.506   0.728
 2056SOL    HW2 6192   3.157   3.432   0.866
 2057SOL     OW 6193   2.321   3.014   0.741
 2057SOL    HW1 6194   2.250   2.987   0.806
 2057SOL    HW2 6195   2.295   2.986   0.648
 2058SOL     OW 6196   3.133   3.659   0.591
 2058SOL    HW1 6197   3.177   3.723   0.527
 2058SOL    HW2 6198   3.083   3.711   0.661
 2059SOL     OW 6199   2.894   2.411   0.016
 2059SOL    HW1 6200   2.853   2.493  -0.023
 2059SOL    HW2 6201   2.958   2.437   0.089
 2060SOL     OW 6202   1.940   2.418   1.386
 2060SOL    HW1 6203   2.032   2.417   1.345
 2060SOL    HW2 6204   1.934   2.492   1.453
 2061SOL     OW 6205   2.423   2.084   1.147
 2061SOL    HW1 6206   2.461   2.000   1.184
 2061SOL    HW2 6207   2.335   2.103   1.191
 2062SOL     OW 6208   2.728   2.316   0.642
 2062SOL    HW1 6209   2.696   2.388   0.580
 2062SOL    HW2 6210   2.752   2.235   0.589
 2063SOL     OW 6211   2.879   1.901   0.753
 2063SOL    HW1 6212   2.807   1.906   0.684
 2063SOL    HW2 6213   2.855   1.832   0.822
 2064SOL     OW 6214   3.291   3.035   0.867
 2064SOL    HW1 6215   3.236   2.951   0.860
 2064SOL    HW2 6216   3.317   3.064   0.775
 2065SOL     OW 6217   3.328   2.452   0.992
 2065SOL    HW1 6218   3.298   2.357   0.999
 2065SOL    HW2 6219   3.401   2.468   1.058
 2066SOL     OW 6220   3.719   2.695   0.377
 2066SOL    HW1 6221   3.761   2.631   0.441
 2066SOL    HW2 6222   3.681   2.644   0.299
 2067SOL     OW 6223   2.350   3.247   0.174
 2067SOL    HW1 6224   2.263   3.232   0.221
 2067SOL    HW2 6225   2.333   3.273   0.079
 2068SOL     OW 6226   3.526   3.142   0.657
 2068SOL    HW1 6227   3.625   3.150   0.671
 2068SOL    HW2 6228   3.481   3.226   0.688
 2069SOL     OW 6229   3.252   2.437   0.078
 2069SOL    HW1 6230   3.198   2.416   0.159
 2069SOL    HW2 6231   3.343   2.396   0.087
 2070SOL     OW 6232   2.389   2.118   0.328
 2070SOL    HW1 6233   2.416   2.059   0.253
 2070SOL    HW2 6234   2.389   2.213   0.297
 2071SOL     OW 6235   3.616   3.085   1.588
 2071SOL    HW1 6236   3.707   3.046   1.575
 2071SOL    HW2 6237   3.624   3.181   1.612
 2072SOL     OW 6238   2.926   3.209   1.340
 2072SOL    HW1 6239   2.846   3.186   1.395
 2072SOL    HW2 6240   3.009   3.183   1.389
 2073SOL     OW 6241   3.454   3.491   1.625
 2073SOL    HW1 6242   3.481   3.525   1.535
 2073SOL    HW2 6243   3.533   3.453   1.671
 2074SOL     OW 6244   2.973   3.057   1.100
 2074SOL    HW1 6245   2.933   3.101   1.181
 2074SOL    HW2 6246   2.932   3.094   1.017
 2075SOL     OW 6247   3.500   2.961   1.079
 2075SOL    HW1 6248   3.505   3.042   1.138
 2075SOL    HW2 6249   3.414   2.963   1.028
 2076SOL     OW 6250   2.777   1.951   1.402
 2076SOL    HW1 6251   2.802   1.931   1.307
 2076SOL    HW2 6252   2.849   2.007   1.444
 2077SOL     OW 6253   2.842   2.978   1.719
 2077SOL    HW1 6254   2.743   2.984   1.729
 2077SOL    HW2 6255   2.865   2.898   1.663
 2078SOL     OW 6256   2.567   2.912   0.368
 2078SOL    HW1 6257   2.553   2.919   0.467
 2078SOL    HW2 6258   2.651   2.861   0.350
 2079SOL     OW 6259   2.272   2.675   1.251
 2079SOL    HW1 6260   2.358   2.687   1.301
 2079SOL    HW2 6261   2.230   2.588   1.278
 2080SOL     OW 6262   3.136   2.248   1.262
 2080SOL    HW1 6263   3.157   2.322   1.326
 2080SOL    HW2 6264   3.047   2.265   1.219
 2081SOL     OW 6265   1.926   3.426   1.331
 2081SOL    HW1 6266   1.880   3.508   1.297
 2081SOL    HW2 6267   2.024   3.445   1.340
 2082SOL     OW 6268   2.229   2.962   0.501
 2082SOL    HW1 6269   2.222   3.045   0.445
 2082SOL    HW2 6270   2.233   2.882   0.441
 2083SOL     OW 6271   2.428   2.399   0.865
 2083SOL    HW1 6272   2.440   2.465   0.791
 2083SOL    HW2 6273   2.474   2.433   0.948
 2084SOL     OW 6274   3.114   3.210   0.388
 2084SOL    HW1 6275   3.164   3.287   0.428
 2084SOL    HW2 6276   3.019   3.212   0.420
 2085SOL     OW 6277   3.134   3.307   1.142
 2085SOL    HW1 6278   3.181   3.320   1.229
 2085SOL    HW2 6279   3.068   3.233   1.151
 2086SOL     OW 6280   3.444   2.501   0.472
 2086SOL    HW1 6281   3.413   2.562   0.545
 2086SOL    HW2 6282   3.494   2.553   0.403
 2087SOL     OW 6283   2.216   3.372   1.329
 2087SOL    HW1 6284   2.195   3.328   1.242
 2087SOL    HW2 6285   2.313   3.398   1.332
 2088SOL     OW 6286   2.264   2.613   1.598
 2088SOL    HW1 6287   2.332   2.668   1.551
 2088SOL    HW2 6288   2.304   2.525   1.625
 2089SOL     OW 6289   3.449   2.641   1.670
 2089SOL    HW1 6290   3.357   2.679   1.665
 2089SOL    HW2 6291   3.509   2.688   1.605
 2090SOL     OW 6292   2.875   1.967   1.770
 2090SOL    HW1 6293   2.881   2.052   1.718
 2090SOL    HW2 6294   2.907   1.891   1.713
 2091SOL     OW 6295   2.366   1.912   1.740
 2091SOL    HW1 6296   2.324   1.855   1.670
 2091SOL    HW2 6297   2.300   1.981   1.772
 2092SOL     OW 6298   2.435   2.732   1.029
 2092SOL    HW1 6299   2.479   2.821   1.020
 2092SOL    HW2 6300   2.372   2.732   1.106
 2093SOL     OW 6301   3.222   2.724   1.045
 2093SOL    HW1 6302   3.147   2.724   0.979
 2093SOL    HW2 6303   3.259   2.632   1.054
 2094SOL     OW 6304   3.071   2.387   0.275
 2094SOL    HW1 6305   3.084   2.303   0.329
 2094SOL    HW2 6306   3.042   2.461   0.335
 2095SOL     OW 6307   2.169   2.075   1.231
 2095SOL    HW1 6308   2.146   2.112   1.321
 2095SOL    HW2 6309   2.139   1.980   1.225
 2096SOL     OW 6310   1.899   3.172   1.282
 2096SOL    HW1 6311   1.952   3.123   1.350
 2096SOL    HW2 6312   1.921   3.270   1.287
 2097SOL     OW 6313   2.594   2.496   1.064
 2097SOL    HW1 6314   2.653   2.470   0.988
 2097SOL    HW2 6315   2.566   2.592   1.053
 2098SOL     OW 6316   3.590   2.797   1.854
 2098SOL    HW1 6317   3.544   2.790   1.765
 2098SOL    HW2 6318   3.528   2.841   1.920
 2099SOL     OW 6319   2.169   1.925   0.618
 2099SOL    HW1 6320   2.158   2.019   0.651
 2099SOL    HW2 6321   2.164   1.862   0.695
 2100SOL     OW 6322   3.484   2.229   0.374
 2100SOL    HW1 6323   3.486   2.153   0.438
 2100SOL    HW2 6324   3.436   2.306   0.414
 2101SOL     OW 6325   2.885   2.628   0.966
 2101SOL    HW1 6326   2.900   2.649   1.062
 2101SOL    HW2 6327   2.855   2.533   0.957
 2102SOL     OW 6328   2.842   3.435   1.700
 2102SOL    HW1 6329   2.822   3.479   1.612
 2102SOL    HW2 6330   2.881   3.344   1.684
 2103SOL     OW 6331   3.721   3.380   1.605
 2103SOL    HW1 6332   3.735   3.407   1.510
 2103SOL    HW2 6333   3.804   3.402   1.658
 2104SOL     OW 6334   2.212   2.760   1.804
 2104SOL    HW1 6335   2.288   2.804   1.852
 2104SOL    HW2 6336   2.247   2.713   1.722
 2105SOL     OW 6337   3.402   2.136   0.125
 2105SOL    HW1 6338   3.341   2.061   0.148
 2105SOL    HW2 6339   3.424   2.188   0.208
 2106SOL     OW 6340   3.165   2.700   0.042
 2106SOL    HW1 6341   3.199   2.607   0.057
 2106SOL    HW2 6342   3.183   2.727  -0.053
 2107SOL     OW 6343   2.930   3.195   0.849
 2107SOL    HW1 6344   2.937   3.111   0.794
 2107SOL    HW2 6345   2.992   3.264   0.813
 2108SOL     OW 6346   2.181   2.672   0.949
 2108SOL    HW1 6347   2.274   2.708   0.954
 2108SOL    HW2 6348   2.175   2.587   1.001
 2109SOL     OW 6349   2.201   2.371   1.006
 2109SOL    HW1 6350   2.149   2.288   0.989
 2109SOL    HW2 6351   2.278   2.376   0.942
 2110SOL     OW 6352   3.000   2.242   1.678
 2110SOL    HW1 6353   2.955   2.305   1.742
 2110SOL    HW2 6354   3.093   2.273   1.661
 2111SOL     OW 6355   3.022   2.069   1.477
 2111SOL    HW1 6356   3.022   2.133   1.554
 2111SOL    HW2 6357   3.050   2.117   1.394
 2112SOL     OW 6358   1.870   3.188   0.200
 2112SOL    HW1 6359   1.777   3.209   0.169
 2112SOL    HW2 6360   1.880   3.089   0.213
 2113SOL     OW 6361   1.950   3.663   0.927
 2113SOL    HW1 6362   1.908   3.577   0.900
 2113SOL    HW2 6363   2.044   3.666   0.893
 2114SOL     OW 6364   2.366   3.430   0.910
 2114SOL    HW1 6365   2.432   3.504   0.919
 2114SOL    HW2 6366   2.410   3.351   0.868
 2115SOL     OW 6367   2.864   2.658   1.238
 2115SOL    HW1 6368   2.905   2.626   1.324
 2115SOL    HW2 6369   2.768   2.631   1.235
 2116SOL     OW 6370   1.902   2.406   1.114
 2116SOL    HW1 6371   1.987   2.373   1.073
 2116SOL    HW2 6372   1.915   2.421   1.212
 2117SOL     OW 6373   2.051   2.382   1.722
 2117SOL    HW1 6374   2.110   2.342   1.652
 2117SOL    HW2 6375   1.993   2.453   1.681
 2118SOL     OW 6376   3.231   2.812   1.660
 2118SOL    HW1 6377   3.270   2.901   1.680
 2118SOL    HW2 6378   3.241   2.792   1.563
 2119SOL     OW 6379   2.677   2.434   0.325
 2119SOL    HW1 6380   2.684   2.345   0.279
 2119SOL    HW2 6381   2.583   2.468   0.317
 2120SOL     OW 6382   3.519   2.466   1.206
 2120SOL    HW1 6383   3.481   2.397   1.268
 2120SOL    HW2 6384   3.601   2.430   1.162
 2121SOL     OW 6385   2.114   3.426   1.744
 2121SOL    HW1 6386   2.084   3.483   1.820
 2121SOL    HW2 6387   2.107   3.329   1.770
 2122SOL     OW 6388   2.533   2.326   1.269
 2122SOL    HW1 6389   2.499   2.237   1.239
 2122SOL    HW2 6390   2.559   2.380   1.189
 2123SOL     OW 6391   2.792   3.540   1.465
 2123SOL    HW1 6392   2.768   3.522   1.370
 2123SOL    HW2 6393   2.822   3.634   1.475
 2124SOL     OW 6394   2.335   2.362   0.191
 2124SOL    HW1 6395   2.396   2.442   0.195
 2124SOL    HW2 6396   2.240   2.393   0.198
 2125SOL     OW 6397   2.021   2.999   1.466
 2125SOL    HW1 6398   2.043   2.938   1.542
 2125SOL    HW2 6399   2.031   2.950   1.380
 2126SOL     OW 6400   3.209   2.921   1.234
 2126SOL    HW1 6401   3.233   2.858   1.160
 2126SOL    HW2 6402   3.119   2.961   1.216
 2127SOL     OW 6403   3.164   2.717   0.309
 2127SOL    HW1 6404   3.078   2.686   0.351
 2127SOL    HW2 6405   3.160   2.703   0.210
 2128SOL     OW 6406   3.621   3.609   1.154
 2128SOL    HW1 6407   3.682   3.639   1.081
 2128SOL    HW2 6408   3.583   3.520   1.132
 2129SOL     OW 6409   3.114   3.593   1.128
 2129SOL    HW1 6410   3.198   3.598   1.074
 2129SOL    HW2 6411   3.091   3.497   1.146
 2130SOL     OW 6412   1.945   3.120   1.022
 2130SOL    HW1 6413   1.940   3.119   1.122
 2130SOL    HW2 6414   1.862   3.079   0.984
 2131SOL     OW 6415   2.550   3.524   1.716
 2131SOL    HW1 6416   2.494   3.605   1.725
 2131SOL    HW2 6417   2.602   3.528   1.630
 2132SOL     OW 6418   2.765   1.948   0.133
 2132SOL    HW1 6419   2.816   1.949   0.047
 2132SOL    HW2 6420   2.821   1.906   0.204
 2133SOL     OW 6421   3.588   1.997   0.523
 2133SOL    HW1 6422   3.661   1.980   0.456
 2133SOL    HW2 6423   3.557   1.910   0.561
 2134SOL     OW 6424   3.250   3.435   0.477
 2134SOL    HW1 6425   3.317   3.447   0.403
 2134SOL    HW2 6426   3.210   3.524   0.500
 2135SOL     OW 6427   1.992   3.656   1.851
 2135SOL    HW1 6428   1.951   3.582   1.904
 2135SOL    HW2 6429   2.056   3.707   1.909
 2136SOL     OW 6430   3.142   2.789   0.672
 2136SOL    HW1 6431   3.202   2.708   0.674
 2136SOL    HW2 6432   3.182   2.858   0.612
 2137SOL     OW 6433   2.692   3.135   1.422
 2137SOL    HW1 6434   2.687   3.168   1.517
 2137SOL    HW2 6435   2.606   3.154   1.376
 2138SOL     OW 6436   2.534   3.478   0.154
 2138SOL    HW1 6437   2.543   3.488   0.055
 2138SOL    HW2 6438   2.494   3.389   0.175
 2139SOL     OW 6439   3.512   3.582   1.394
 2139SOL    HW1 6440   3.565   3.592   1.310
 2139SOL    HW2 6441   3.485   3.672   1.428
 2140SOL     OW 6442   3.703   2.037   0.963
 2140SOL    HW1 6443   3.742   1.952   0.927
 2140SOL    HW2 6444   3.605   2.039   0.944
 2141SOL     OW 6445   2.125   2.188   0.720
 2141SOL    HW1 6446   2.046   2.239   0.686
 2141SOL    HW2 6447   2.116   2.173   0.818
 2142SOL     OW 6448   3.056   3.474   0.031
 2142SOL    HW1 6449   3.062   3.381   0.068
 2142SOL    HW2 6450   2.997   3.474  -0.049
 2143SOL     OW 6451   2.684   2.864   1.372
 2143SOL    HW1 6452   2.724   2.863   1.280
 2143SOL    HW2 6453   2.694   2.956   1.412
 2144SOL     OW 6454   2.778   2.772   0.291
 2144SOL    HW1 6455   2.841   2.810   0.223
 2144SOL    HW2 6456   2.818   2.689   0.330
 2145SOL     OW 6457   3.366   3.469   0.044
 2145SOL    HW1 6458   3.274   3.506   0.051
 2145SOL    HW2 6459   3.404   3.489  -0.046
 2146SOL     OW 6460   2.234   3.150   1.490
 2146SOL    HW1 6461   2.221   3.243   1.456
 2146SOL    HW2 6462   2.150   3.098   1.477
 2147SOL     OW 6463   3.476   3.154   1.289
 2147SOL    HW1 6464   3.536   3.157   1.369
 2147SOL    HW2 6465   3.401   3.218   1.302
 2148SOL     OW 6466   2.901   2.960   0.696
 2148SOL    HW1 6467   2.831   2.913   0.750
 2148SOL    HW2 6468   2.960   2.892   0.653
 2149SOL     OW 6469   2.876   2.098   0.971
 2149SOL    HW1 6470   2.868   2.062   0.878
 2149SOL    HW2 6471   2.874   2.022   1.036
 2150SOL     OW 6472   2.452   3.349   0.491
 2150SOL    HW1 6473   2.494   3.291   0.421
 2150SOL    HW2 6474   2.408   3.428   0.447
 2151SOL     OW 6475   3.571   2.247   1.381
 2151SOL    HW1 6476   3.644   2.316   1.385
 2151SOL    HW2 6477   3.599   2.172   1.322
 2152SOL     OW 6478   2.117   3.210   0.290
 2152SOL    HW1 6479   2.021   3.211   0.263
 2152SOL    HW2 6480   2.129   3.263   0.374
 2153SOL     OW 6481   1.967   2.875   1.726
 2153SOL    HW1 6482   1.890   2.842   1.780
 2153SOL    HW2 6483   2.052   2.845   1.768
 2154SOL     OW 6484   2.534   2.065   1.489
 2154SOL    HW1 6485   2.624   2.049   1.449
 2154SOL    HW2 6486   2.542   2.070   1.588
 2155SOL     OW 6487   1.937   2.207   0.033
 2155SOL    HW1 6488   1.845   2.179   0.004
 2155SOL    HW2 6489   1.968   2.284  -0.023
 2156SOL     OW 6490   3.302   2.718   1.398
 2156SOL    HW1 6491   3.245   2.770   1.335
 2156SOL    HW2 6492   3.398   2.730   1.374
 2157SOL     OW 6493   1.934   2.028   0.318
 2157SOL    HW1 6494   1.917   2.111   0.264
 2157SOL    HW2 6495   2.024   1.991   0.296
 2158SOL     OW 6496   3.045   3.197   0.119
 2158SOL    HW1 6497   2.946   3.186   0.121
 2158SOL    HW2 6498   3.079   3.212   0.212
 2159SOL     OW 6499   2.475   2.704   1.431
 2159SOL    HW1 6500   2.531   2.785   1.414
 2159SOL    HW2 6501   2.534   2.624   1.434
 2160SOL     OW 6502   3.355   3.629   0.959
 2160SOL    HW1 6503   3.388   3.693   0.890
 2160SOL    HW2 6504   3.421   3.623   1.034
 2161SOL     OW 6505   2.578   2.427   1.708
 2161SOL    HW1 6506   2.597   2.492   1.782
 2161SOL    HW2 6507   2.638   2.347   1.717
 2162SOL     OW 6508   3.312   3.082   1.633
 2162SOL    HW1 6509   3.303   3.072   1.732
 2162SOL    HW2 6510   3.408   3.075   1.607
 2163SOL     OW 6511   2.252   3.603   1.560
 2163SOL    HW1 6512   2.161   3.644   1.558
 2163SOL    HW2 6513   2.245   3.509   1.592
 2164SOL     OW 6514   3.536   2.745   1.254
 2164SOL    HW1 6515   3.509   2.656   1.217
 2164SOL    HW2 6516   3.537   2.813   1.181
 2165SOL     OW 6517   3.087   2.187   0.449
 2165SOL    HW1 6518   3.152   2.113   0.438
 2165SOL    HW2 6519   3.107   2.237   0.533
 2166SOL     OW 6520   2.456   2.607   0.652
 2166SOL    HW1 6521   2.506   2.692   0.633
 2166SOL    HW2 6522   2.368   2.609   0.604
 2167SOL     OW 6523   3.639   2.204   1.642
 2167SOL    HW1 6524   3.622   2.235   1.548
 2167SOL    HW2 6525   3.555   2.167   1.680
 2168SOL     OW 6526   3.592   2.796   1.517
 2168SOL    HW1 6527   3.630   2.887   1.532
 2168SOL    HW2 6528   3.584   2.779   1.418
 2169SOL     OW 6529   2.721   3.236   0.016
 2169SOL    HW1 6530   2.675   3.251   0.104
 2169SOL    HW2 6531   2.765   3.321  -0.014
 2170SOL     OW 6532   2.523   3.652   0.953
 2170SOL    HW1 6533   2.477   3.740   0.940
 2170SOL    HW2 6534   2.622   3.664   0.946
 2171SOL     OW 6535   2.721   2.818   0.861
 2171SOL    HW1 6536   2.775   2.749   0.909
 2171SOL    HW2 6537   2.689   2.887   0.927
 2172SOL     OW 6538   2.945   2.846   0.087
 2172SOL    HW1 6539   2.922   2.899   0.005
 2172SOL    HW2 6540   3.026   2.790   0.068
 2173SOL     OW 6541   3.723   3.431   0.851
 2173SOL    HW1 6542   3.652   3.419   0.781
 2173SOL    HW2 6543   3.724   3.352   0.911
 2174SOL     OW 6544   2.083   3.176   1.844
 2174SOL    HW1 6545   2.018   3.103   1.823
 2174SOL    HW2 6546   2.087   3.190   1.942
 2175SOL     OW 6547   1.941   3.102   0.653
 2175SOL    HW1 6548   1.940   3.055   0.741
 2175SOL    HW2 6549   2.023   3.074   0.602
 2176SOL     OW 6550   2.534   3.253   1.624
 2176SOL    HW1 6551   2.456   3.203   1.662
 2176SOL    HW2 6552   2.531   3.348   1.655
 2177SOL     OW 6553   3.686   2.054   1.227
 2177SOL    HW1 6554   3.682   1.964   1.271
 2177SOL    HW2 6555   3.689   2.043   1.128
 2178SOL     OW 6556   2.290   2.286   0.520
 2178SOL    HW1 6557   2.320   2.214   0.458
 2178SOL    HW2 6558   2.251   2.246   0.603
 2179SOL     OW 6559   3.567   3.349   1.104
 2179SOL    HW1 6560   3.474   3.324   1.077
 2179SOL    HW2 6561   3.593   3.299   1.186
 2180SOL     OW 6562   2.179   2.409   1.280
 2180SOL    HW1 6563   2.217   2.350   1.352
 2180SOL    HW2 6564   2.219   2.383   1.192
 2181SOL     OW 6565   2.674   3.448   0.687
 2181SOL    HW1 6566   2.706   3.458   0.593
 2181SOL    HW2 6567   2.595   3.386   0.689
 2182SOL     OW 6568   3.286   2.076   1.112
 2182SOL    HW1 6569   3.338   2.011   1.167
 2182SOL    HW2 6570   3.237   2.139   1.173
 2183SOL     OW 6571   2.863   1.896   1.154
 2183SOL    HW1 6572   2.800   1.824   1.123
 2183SOL    HW2 6573   2.956   1.860   1.154
 2184SOL     OW 6574   2.632   3.192   0.301
 2184SOL    HW1 6575   2.586   3.105   0.318
 2184SOL    HW2 6576   2.723   3.189   0.342
 2185SOL     OW 6577   2.480   3.429   1.284
 2185SOL    HW1 6578   2.475   3.511   1.341
 2185SOL    HW2 6579   2.569   3.426   1.239
 2186SOL     OW 6580   3.214   1.914   0.168
 2186SOL    HW1 6581   3.249   1.873   0.084
 2186SOL    HW2 6582   3.124   1.876   0.188
 2187SOL     OW 6583   3.162   2.315   0.691
 2187SOL    HW1 6584   3.103   2.395   0.695
 2187SOL    HW2 6585   3.177   2.280   0.784
 2188SOL     OW 6586   3.455   2.083   0.882
 2188SOL    HW1 6587   3.371   2.082   0.936
 2188SOL    HW2 6588   3.457   2.166   0.826
 2189SOL     OW 6589   1.901   2.939   0.300
 2189SOL    HW1 6590   2.000   2.928   0.291
 2189SOL    HW2 6591   1.861   2.853   0.332
 2190SOL     OW 6592   2.737   3.508   0.337
 2190SOL    HW1 6593   2.660   3.473   0.283
 2190SOL    HW2 6594   2.705   3.579   0.399
 2191SOL     OW 6595   2.092   2.490   1.975
 2191SOL    HW1 6596   1.999   2.488   2.012
 2191SOL    HW2 6597   2.093   2.451   1.883
 2192SOL     OW 6598   2.087   2.137   2.858
 2192SOL    HW1 6599   2.122   2.120   2.950
 2192SOL    HW2 6600   1.999   2.092   2.846
 2193SOL     OW 6601   1.881   2.230   2.509
 2193SOL    HW1 6602   1.799   2.273   2.548
 2193SOL    HW2 6603   1.853   2.157   2.446
 2194SOL     OW 6604   2.431   3.137   3.027
 2194SOL    HW1 6605   2.338   3.130   2.990
 2194SOL    HW2 6606   2.442   3.226   3.071
 2195SOL     OW 6607   3.417   3.373   2.565
 2195SOL    HW1 6608   3.360   3.357   2.646
 2195SOL    HW2 6609   3.358   3.383   2.485
 2196SOL     OW 6610   2.997   2.565   2.579
 2196SOL    HW1 6611   3.054   2.643   2.554
 2196SOL    HW2 6612   2.937   2.591   2.655
 2197SOL     OW 6613   3.617   2.469   2.093
 2197SOL    HW1 6614   3.605   2.456   1.994
 2197SOL    HW2 6615   3.587   2.388   2.142
 2198SOL     OW 6616   2.630   3.006   2.885
 2198SOL    HW1 6617   2.552   3.023   2.945
 2198SOL    HW2 6618   2.664   3.093   2.849
 2199SOL     OW 6619   2.712   2.660   3.685
 2199SOL    HW1 6620   2.708   2.736   3.750
 2199SOL    HW2 6621   2.734   2.696   3.594
 2200SOL     OW 6622   2.547   2.874   2.527
 2200SOL    HW1 6623   2.616   2.858   2.597
 2200SOL    HW2 6624   2.474   2.931   2.565
 2201SOL     OW 6625   2.548   3.023   3.665
 2201SOL    HW1 6626   2.608   3.102   3.679
 2201SOL    HW2 6627   2.462   3.054   3.624
 2202SOL     OW 6628   2.197   3.297   2.923
 2202SOL    HW1 6629   2.119   3.266   2.870
 2202SOL    HW2 6630   2.255   3.355   2.866
 2203SOL     OW 6631   3.322   3.367   3.201
 2203SOL    HW1 6632   3.346   3.461   3.227
 2203SOL    HW2 6633   3.306   3.313   3.283
 2204SOL     OW 6634   2.300   2.254   3.361
 2204SOL    HW1 6635   2.382   2.198   3.370
 2204SOL    HW2 6636   2.219   2.196   3.365
 2205SOL     OW 6637   3.465   2.309   2.599
 2205SOL    HW1 6638   3.391   2.355   2.549
 2205SOL    HW2 6639   3.516   2.377   2.652
 2206SOL     OW 6640   2.093   3.575   2.345
 2206SOL    HW1 6641   2.127   3.652   2.399
 2206SOL    HW2 6642   2.137   3.575   2.255
 2207SOL     OW 6643   2.989   3.203   3.552
 2207SOL    HW1 6644   3.036   3.203   3.640
 2207SOL    HW2 6645   2.941   3.116   3.541
 2208SOL     OW 6646   2.092   3.296   2.400
 2208SOL    HW1 6647   2.066   3.392   2.400
 2208SOL    HW2 6648   2.021   3.242   2.445
 2209SOL     OW 6649   2.102   2.953   2.748
 2209SOL    HW1 6650   2.116   2.869   2.800
 2209SOL    HW2 6651   2.047   3.017   2.803
 2210SOL     OW 6652   2.482   3.648   3.301
 2210SOL    HW1 6653   2.390   3.631   3.336
 2210SOL    HW2 6654   2.510   3.740   3.327
 2211SOL     OW 6655   2.468   2.826   1.985
 2211SOL    HW1 6656   2.475   2.910   1.931
 2211SOL    HW2 6657   2.514   2.839   2.073
 2212SOL     OW 6658   3.456   1.976   3.342
 2212SOL    HW1 6659   3.438   2.043   3.270
 2212SOL    HW2 6660   3.453   2.022   3.431
 2213SOL     OW 6661   1.984   2.505   2.425
 2213SOL    HW1 6662   1.939   2.417   2.442
 2213SOL    HW2 6663   1.983   2.559   2.509
 2214SOL     OW 6664   3.704   3.629   2.221
 2214SOL    HW1 6665   3.758   3.600   2.301
 2214SOL    HW2 6666   3.734   3.719   2.192
 2215SOL     OW 6667   1.889   3.458   1.979
 2215SOL    HW1 6668   1.870   3.362   2.000
 2215SOL    HW2 6669   1.856   3.516   2.054
 2216SOL     OW 6670   3.551   2.784   2.474
 2216SOL    HW1 6671   3.646   2.755   2.482
 2216SOL    HW2 6672   3.543   2.849   2.399
 2217SOL     OW 6673   3.503   2.970   2.294
 2217SOL    HW1 6674   3.589   2.972   2.242
 2217SOL    HW2 6675   3.517   3.017   2.382
 2218SOL     OW 6676   1.975   2.599   3.459
 2218SOL    HW1 6677   2.063   2.586   3.504
 2218SOL    HW2 6678   1.962   2.696   3.437
 2219SOL     OW 6679   2.475   3.227   2.588
 2219SOL    HW1 6680   2.426   3.140   2.597
 2219SOL    HW2 6681   2.452   3.270   2.501
 2220SOL     OW 6682   3.155   3.090   3.285
 2220SOL    HW1 6683   3.192   3.017   3.227
 2220SOL    HW2 6684   3.207   3.095   3.370
 2221SOL     OW 6685   2.671   1.866   2.364
 2221SOL    HW1 6686   2.711   1.957   2.355
 2221SOL    HW2 6687   2.571   1.874   2.370
 2222SOL     OW 6688   2.059   2.838   3.126
 2222SOL    HW1 6689   2.148   2.793   3.112
 2222SOL    HW2 6690   1.986   2.773   3.107
 2223SOL     OW 6691   3.387   2.861   2.052
 2223SOL    HW1 6692   3.324   2.785   2.065
 2223SOL    HW2 6693   3.435   2.879   2.138
 2224SOL     OW 6694   3.049   3.654   3.478
 2224SOL    HW1 6695   3.073   3.714   3.402
 2224SOL    HW2 6696   3.056   3.559   3.448
 2225SOL     OW 6697   2.179   2.113   3.663
 2225SOL    HW1 6698   2.250   2.184   3.669
 2225SOL    HW2 6699   2.091   2.152   3.691
 2226SOL     OW 6700   3.328   3.279   2.815
 2226SOL    HW1 6701   3.269   3.285   2.895
 2226SOL    HW2 6702   3.313   3.191   2.769
 2227SOL     OW 6703   3.529   3.576   2.434
 2227SOL    HW1 6704   3.488   3.553   2.346
 2227SOL    HW2 6705   3.511   3.502   2.499
 2228SOL     OW 6706   3.143   2.207   2.806
 2228SOL    HW1 6707   3.057   2.157   2.793
 2228SOL    HW2 6708   3.205   2.153   2.862
 2229SOL     OW 6709   3.438   3.524   2.169
 2229SOL    HW1 6710   3.527   3.570   2.172
 2229SOL    HW2 6711   3.417   3.500   2.074
 2230SOL     OW 6712   2.669   2.467   3.327
 2230SOL    HW1 6713   2.622   2.464   3.416
 2230SOL    HW2 6714   2.618   2.412   3.261
 2231SOL     OW 6715   3.256   2.331   3.536
 2231SOL    HW1 6716   3.236   2.374   3.624
 2231SOL    HW2 6717   3.334   2.269   3.545
 2232SOL     OW 6718   2.835   2.752   3.434
 2232SOL    HW1 6719   2.881   2.668   3.405
 2232SOL    HW2 6720   2.779   2.786   3.359
 2233SOL     OW 6721   2.853   2.272   3.104
 2233SOL    HW1 6722   2.776   2.306   3.158
 2233SOL    HW2 6723   2.819   2.221   3.025
 2234SOL     OW 6724   2.903   2.563   2.291
 2234SOL    HW1 6725   2.929   2.559   2.387
 2234SOL    HW2 6726   2.818   2.512   2.277
 2235SOL     OW 6727   1.938   2.673   2.651
 2235SOL    HW1 6728   2.037   2.661   2.660
 2235SOL    HW2 6729   1.914   2.768   2.672
 2236SOL     OW 6730   1.992   3.683   3.433
 2236SOL    HW1 6731   1.982   3.668   3.532
 2236SOL    HW2 6732   1.906   3.719   3.397
 2237SOL     OW 6733   2.727   2.210   2.057
 2237SOL    HW1 6734   2.786   2.273   2.008
 2237SOL    HW2 6735   2.746   2.116   2.028
 2238SOL     OW 6736   3.581   2.447   3.693
 2238SOL    HW1 6737   3.555   2.536   3.657
 2238SOL    HW2 6738   3.579   2.379   3.620
 2239SOL     OW 6739   3.224   3.006   2.407
 2239SOL    HW1 6740   3.307   2.977   2.359
 2239SOL    HW2 6741   3.175   3.073   2.351
 2240SOL     OW 6742   2.870   3.318   2.339
 2240SOL    HW1 6743   2.824   3.390   2.287
 2240SOL    HW2 6744   2.866   3.338   2.437
 2241SOL     OW 6745   2.213   3.663   2.715
 2241SOL    HW1 6746   2.263   3.577   2.721
 2241SOL    HW2 6747   2.278   3.740   2.712
 2242SOL     OW 6748   3.657   2.928   2.735
 2242SOL    HW1 6749   3.595   2.913   2.659
 2242SOL    HW2 6750   3.605   2.939   2.820
 2243SOL     OW 6751   3.089   3.412   3.368
 2243SOL    HW1 6752   3.095   3.335   3.432
 2243SOL    HW2 6753   3.037   3.386   3.288
 2244SOL     OW 6754   2.183   2.805   2.104
 2244SOL    HW1 6755   2.265   2.844   2.062
 2244SOL    HW2 6756   2.156   2.723   2.055
 2245SOL     OW 6757   3.320   2.597   2.590
 2245SOL    HW1 6758   3.315   2.532   2.665
 2245SOL    HW2 6759   3.400   2.656   2.603
 2246SOL     OW 6760   2.323   3.128   3.589
 2246SOL    HW1 6761   2.273   3.129   3.503
 2246SOL    HW2 6762   2.260   3.110   3.665
 2247SOL     OW 6763   2.973   3.638   2.099
 2247SOL    HW1 6764   2.913   3.576   2.149
 2247SOL    HW2 6765   3.004   3.594   2.014
 2248SOL     OW 6766   2.064   2.147   3.360
 2248SOL    HW1 6767   1.984   2.207   3.347
 2248SOL    HW2 6768   2.054   2.098   3.446
 2249SOL     OW 6769   3.494   3.239   1.943
 2249SOL    HW1 6770   3.462   3.333   1.933
 2249SOL    HW2 6771   3.418   3.176   1.931
 2250SOL     OW 6772   2.326   3.605   2.185
 2250SOL    HW1 6773   2.359   3.644   2.271
 2250SOL    HW2 6774   2.402   3.598   2.120
 2251SOL     OW 6775   3.262   1.969   2.288
 2251SOL    HW1 6776   3.238   1.932   2.198
 2251SOL    HW2 6777   3.361   1.985   2.292
 2252SOL     OW 6778   2.111   3.647   3.103
 2252SOL    HW1 6779   2.168   3.582   3.153
 2252SOL    HW2 6780   2.095   3.614   3.010
 2253SOL     OW 6781   2.802   3.560   2.766
 2253SOL    HW1 6782   2.882   3.503   2.787
 2253SOL    HW2 6783   2.753   3.520   2.689
 2254SOL     OW 6784   3.409   2.084   3.591
 2254SOL    HW1 6785   3.404   2.121   3.683
 2254SOL    HW2 6786   3.337   2.015   3.579
 2255SOL     OW 6787   2.476   1.984   1.979
 2255SOL    HW1 6788   2.574   1.962   1.986
 2255SOL    HW2 6789   2.445   1.967   1.886
 2256SOL     OW 6790   2.643   2.126   3.611
 2256SOL    HW1 6791   2.710   2.065   3.654
 2256SOL    HW2 6792   2.570   2.145   3.676
 2257SOL     OW 6793   2.750   3.376   3.057
 2257SOL    HW1 6794   2.727   3.351   2.963
 2257SOL    HW2 6795   2.811   3.307   3.096
 2258SOL     OW 6796   3.213   2.452   3.295
 2258SOL    HW1 6797   3.241   2.409   3.380
 2258SOL    HW2 6798   3.238   2.548   3.296
 2259SOL     OW 6799   2.665   3.264   2.786
 2259SOL    HW1 6800   2.755   3.278   2.744
 2259SOL    HW2 6801   2.594   3.266   2.715
 2260SOL     OW 6802   2.784   2.365   2.761
 2260SOL    HW1 6803   2.759   2.356   2.665
 2260SOL    HW2 6804   2.832   2.283   2.792
 2261SOL     OW 6805   2.401   1.926   2.374
 2261SOL    HW1 6806   2.320   1.927   2.432
 2261SOL    HW2 6807   2.404   2.009   2.319
 2262SOL     OW 6808   3.296   3.050   1.903
 2262SOL    HW1 6809   3.328   2.974   1.960
 2262SOL    HW2 6810   3.204   3.077   1.933
 2263SOL     OW 6811   2.159   1.897   2.033
 2263SOL    HW1 6812   2.208   1.981   2.012
 2263SOL    HW2 6813   2.221   1.832   2.078
 2264SOL     OW 6814   2.797   2.098   2.342
 2264SOL    HW1 6815   2.749   2.139   2.264
 2264SOL    HW2 6816   2.896   2.096   2.323
 2265SOL     OW 6817   2.938   2.545   3.326
 2265SOL    HW1 6818   2.858   2.484   3.329
 2265SOL    HW2 6819   3.019   2.492   3.302
 2266SOL     OW 6820   3.089   3.432   2.655
 2266SOL    HW1 6821   3.110   3.506   2.590
 2266SOL    HW2 6822   3.157   3.432   2.728
 2267SOL     OW 6823   2.321   3.014   2.603
 2267SOL    HW1 6824   2.250   2.987   2.668
 2267SOL    HW2 6825   2.295   2.986   2.510
 2268SOL     OW 6826   3.133   3.659   2.453
 2268SOL    HW1 6827   3.177   3.723   2.389
 2268SOL    HW2 6828   3.083   3.711   2.523
 2269SOL     OW 6829   2.894   2.411   1.878
 2269SOL    HW1 6830   2.853   2.493   1.839
 2269SOL    HW2 6831   2.958   2.437   1.951
 2270SOL     OW 6832   1.940   2.418   3.248
 2270SOL    HW1 6833   2.032   2.417   3.207
 2270SOL    HW2 6834   1.934   2.492   3.315
 2271SOL     OW 6835   2.423   2.084   3.009
 2271SOL    HW1 6836   2.461   2.000   3.046
 2271SOL    HW2 6837   2.335   2.103   3.053
 2272SOL     OW 6838   2.728   2.316   2.504
 2272SOL    HW1 6839   2.696   2.388   2.442
 2272SOL    HW2 6840   2.752   2.235   2.451
 2273SOL     OW 6841   2.879   1.901   2.615
 2273SOL    HW1 6842   2.807   1.906   2.546
 2273SOL    HW2 6843   2.855   1.832   2.684
 2274SOL     OW 6844   3.291   3.035   2.729
 2274SOL    HW1 6845   3.236   2.951   2.722
 2274SOL    HW2 6846   3.317   3.064   2.637
 2275SOL     OW 6847   3.328   2.452   2.854
 2275SOL    HW1 6848   3.298   2.357   2.861
 2275SOL    HW2 6849   3.401   2.468   2.920
 2276SOL     OW 6850   3.719   2.695   2.239
 2276SOL    HW1 6851   3.761   2.631   2.303
 2276SOL    HW2 6852   3.681   2.644   2.161
 2277SOL     OW 6853   2.350   3.247   2.036
 2277SOL    HW1 6854   2.263   3.232   2.083
 2277SOL    HW2 6855   2.333   3.273   1.941
 2278SOL     OW 6856   3.526   3.142   2.519
 2278SOL    HW1 6857   3.625   3.150   2.533
 2278SOL    HW2 6858   3.481   3.226   2.550
 2279SOL     OW 6859   3.252   2.437   1.940
 2279SOL    HW1 6860   3.198   2.416   2.021
 2279SOL    HW2 6861   3.343   2.396   1.949
 2280SOL     OW 6862   2.389   2.118   2.190
 2280SOL    HW1 6863   2.416   2.059   2.115
 2280SOL    HW2 6864   2.389   2.213   2.159
 2281SOL     OW 6865   3.616   3.085   3.450
 2281SOL    HW1 6866   3.707   3.046   3.437
 2281SOL    HW2 6867   3.624   3.181   3.474
 2282SOL     OW 6868   2.926   3.209   3.202
 2282SOL    HW1 6869   2.846   3.186   3.257
 2282SOL    HW2 6870   3.009   3.183   3.251
 2283SOL     OW 6871   3.454   3.491   3.487
 2283SOL    HW1 6872   3.481   3.525   3.397
 2283SOL    HW2 6873   3.533   3.453   3.533
 2284SOL     OW 6874   2.973   3.057   2.962
 2284SOL    HW1 6875   2.933   3.101   3.043
 2284SOL    HW2 6876   2.932   3.094   2.879
 2285SOL     OW 6877   3.500   2.961   2.941
 2285SOL    HW1 6878   3.505   3.042   3.000
 2285SOL    HW2 6879   3.414   2.963   2.890
 2286SOL     OW 6880   2.777   1.951   3.264
 2286SOL    HW1 6881   2.802   1.931   3.169
 2286SOL    HW2 6882   2.849   2.007   3.306
 2287SOL     OW 6883   2.842   2.978   3.581
 2287SOL    HW1 6884   2.743   2.984   3.591
 2287SOL    HW2 6885   2.865   2.898   3.525
 2288SOL     OW 6886   2.567   2.912   2.230
 2288SOL    HW1 6887   2.553   2.919   2.329
 2288SOL    HW2 6888   2.651   2.861   2.212
 2289SOL     OW 6889   2.272   2.675   3.113
 2289SOL    HW1 6890   2.358   2.687   3.163
 2289SOL    HW2 6891   2.230   2.588   3.140
 2290SOL     OW 6892   3.136   2.248   3.124
 2290SOL    HW1 6893   3.157   2.322   3.188
 2290SOL    HW2 6894   3.047   2.265   3.081
 2291SOL     OW 6895   1.926   3.426   3.193
 2291SOL    HW1 6896   1.880   3.508   3.159
 2291SOL    HW2 6897   2.024   3.445   3.202
 2292SOL     OW 6898   2.229   2.962   2.363
 2292SOL    HW1 6899   2.222   3.045   2.307
 2292SOL    HW2 6900   2.233   2.882   2.303
 2293SOL     OW 6901   3.114   3.210   2.250
 2293SOL    HW1 6902   3.164   3.287   2.290
 2293SOL    HW2 6903   3.019   3.212   2.282
 2294SOL     OW 6904   3.134   3.307   3.004
 2294SOL    HW1 6905   3.181   3.320   3.091
 2294SOL    HW2 6906   3.068   3.233   3.013
 2295SOL     OW 6907   3.444   2.501   2.334
 2295SOL    HW1 6908   3.413   2.562   2.407
 2295SOL    HW2 6909   3.494   2.553   2.265
 2296SOL     OW 6910   2.216   3.372   3.191
 2296SOL    HW1 6911   2.195   3.328   3.104
 2296SOL    HW2 6912   2.313   3.398   3.194
 2297SOL     OW 6913   2.264   2.613   3.460
 2297SOL    HW1 6914   2.332   2.668   3.413
 2297SOL    HW2 6915   2.304   2.525   3.487
 2298SOL     OW 6916   3.449   2.641   3.532
 2298SOL    HW1 6917   3.357   2.679   3.527
 2298SOL    HW2 6918   3.509   2.688   3.467
 2299SOL     OW 6919   2.875   1.967   3.632
 2299SOL    HW1 6920   2.881   2.052   3.580
 2299SOL    HW2 6921   2.907   1.891   3.575
 2300SOL     OW 6922   2.366   1.912   3.602
 2300SOL    HW1 6923   2.324   1.855   3.532
 2300SOL    HW2 6924   2.300   1.981   3.634
 2301SOL     OW 6925   2.435   2.732   2.891
 2301SOL    HW1 6926   2.479   2.821   2.882
 2301SOL    HW2 6927   2.372   2.732   2.968
 2302SOL     OW 6928   3.222   2.724   2.907
 2302SOL    HW1 6929   3.147   2.724   2.841
 2302SOL    HW2 6930   3.259   2.632   2.916
 2303SOL     OW 6931   3.071   2.387   2.137
 2303SOL    HW1 6932   3.084   2.303   2.191
 2303SOL    HW2 6933   3.042   2.461   2.197
 2304SOL     OW 6934   2.169   2.075   3.093
 2304SOL    HW1 6935   2.146   2.112   3.183
 2304SOL    HW2 6936   2.139   1.980   3.087
 2305SOL     OW 6937   1.899   3.172   3.144
 2305SOL    HW1 6938   1.952   3.123   3.212
 2305SOL    HW2 6939   1.921   3.270   3.149
 2306SOL     OW 6940   2.594   2.496   2.926
 2306SOL    HW1 6941   2.653   2.470   2.850
 2306SOL    HW2 6942   2.566   2.592   2.915
 2307SOL     OW 6943   3.590   2.797   3.716
 2307SOL    HW1 6944   3.544   2.790   3.627
 2307SOL    HW2 6945   3.528   2.841   3.782
 2308SOL     OW 6946   2.169   1.925   2.480
 2308SOL    HW1 6947   2.158   2.019   2.513
 2308SOL    HW2 6948   2.164   1.862   2.557
 2309SOL     OW 6949   3.484   2.229   2.236
 2309SOL    HW1 6950   3.486   2.153   2.300
 2309SOL    HW2 6951   3.436   2.306   2.276
 2310SOL     OW 6952   2.885   2.628   2.828
 2310SOL    HW1 6953   2.900   2.649   2.924
 2310SOL    HW2 6954   2.855   2.533   2.819
 2311SOL     OW 6955   2.842   3.435   3.562
 2311SOL    HW1 6956   2.822   3.479   3.474
 2311SOL    HW2 6957   2.881   3.344   3.546
 2312SOL     OW 6958   3.721   3.380   3.467
 2312SOL    HW1 6959   3.735   3.407   3.372
 2312SOL    HW2 6960   3.804   3.402   3.520
 2313SOL     OW 6961   2.212   2.760   3.666
 2313SOL    HW1 6962   2.288   2.804   3.714
 2313SOL    HW2 6963   2.247   2.713   3.584
 2314SOL     OW 6964   3.402   2.136   1.987
 2314SOL    HW1 6965   3.341   2.061   2.010
 2314SOL    HW2 6966   3.424   2.188   2.070
 2315SOL     OW 6967   3.165   2.700   1.904
 2315SOL    HW1 6968   3.199   2.607   1.919
 2315SOL    HW2 6969   3.183   2.727   1.809
 2316SOL     OW 6970   2.930   3.195   2.711
 2316SOL    HW1 6971   2.937   3.111   2.656
 2316SOL    HW2 6972   2.992   3.264   2.675
 2317SOL     OW 6973   2.181   2.672   2.811
 2317SOL    HW1 6974   2.274   2.708   2.816
 2317SOL    HW2 6975   2.175   2.587   2.863
 2318SOL     OW 6976   3.000   2.242   3.540
 2318SOL    HW1 6977   2.955   2.305   3.604
 2318SOL    HW2 6978   3.093   2.273   3.523
 2319SOL     OW 6979   3.022   2.069   3.339
 2319SOL    HW1 6980   3.022   2.133   3.416
 2319SOL    HW2 6981   3.050   2.117   3.256
 2320SOL     OW 6982   1.870   3.188   2.062
 2320SOL    HW1 6983   1.777   3.209   2.031
 2320SOL    HW2 6984   1.880   3.089   2.075
 2321SOL     OW 6985   1.950   3.663   2.789
 2321SOL    HW1 6986   1.908   3.577   2.762
 2321SOL    HW2 6987   2.044   3.666   2.755
 2322SOL     OW 6988   2.366   3.430   2.772
 2322SOL    HW1 6989   2.432   3.504   2.781
 2322SOL    HW2 6990   2.410   3.351   2.730
 2323SOL     OW 6991   2.864   2.658   3.100
 2323SOL    HW1 6992   2.905   2.626   3.186
 2323SOL    HW2 6993   2.768   2.631   3.097
 2324SOL     OW 6994   1.902   2.406   2.976
 2324SOL    HW1 6995   1.987   2.373   2.935
 2324SOL    HW2 6996   1.915   2.421   3.074
 2325SOL     OW 6997   2.051   2.382   3.584
 2325SOL    HW1 6998   2.110   2.342   3.514
 2325SOL    HW2 6999   1.993   2.453   3.543
 2326SOL     OW 7000   3.231   2.812   3.522
 2326SOL    HW1 7001   3.270   2.901   3.542
 2326SOL    HW2 7002   3.241   2.792   3.425
 2327SOL     OW 7003   3.519   2.466   3.068
 2327SOL    HW1 7004   3.481   2.397   3.130
 2327SOL    HW2 7005   3.601   2.430   3.024
 2328SOL     OW 7006   2.114   3.426   3.606
 2328SOL    HW1 7007   2.084   3.483   3.682
 2328SOL    HW2 7008   2.107   3.329   3.632
 2329SOL     OW 7009   2.533   2.326   3.131
 2329SOL    HW1 7010   2.499   2.237   3.101
 2329SOL    HW2 7011   2.559   2.380   3.051
 2330SOL     OW 7012   2.792   3.540   3.327
 2330SOL    HW1 7013   2.768   3.522   3.232
 2330SOL    HW2 7014   2.822   3.634   3.337
 2331SOL     OW 7015   2.021   2.999   3.328
 2331SOL    HW1 7016   2.043   2.938   3.404
 2331SOL    HW2 7017   2.031   2.950   3.242
 2332SOL     OW 7018   3.209   2.921   3.096
 2332SOL    HW1 7019   3.233   2.858   3.022
 2332SOL    HW2 7020   3.119   2.961   3.078
 2333SOL     OW 7021   3.164   2.717   2.171
 2333SOL    HW1 7022   3.078   2.686   2.213
 2333SOL    HW2 7023   3.160   2.703   2.072
 2334SOL     OW 7024   3.621   3.609   3.016
 2334SOL    HW1 7025   3.682   3.639   2.943
 2334SOL    HW2 7026   3.583   3.520   2.994
 2335SOL     OW 7027   3.114   3.593   2.990
 2335SOL    HW1 7028   3.198   3.598   2.936
 2335SOL    HW2 7029   3.091   3.497   3.008
 2336SOL     OW 7030   1.945   3.120   2.884
 2336SOL    HW1 7031   1.940   3.119   2.984
 2336SOL    HW2 7032   1.862   3.079   2.846
 2337SOL     OW 7033   2.550   3.524   3.578
 2337SOL    HW1 7034   2.494   3.605   3.587
 2337SOL    HW2 7035   2.602   3.528   3.492
 2338SOL     OW 7036   3.588   1.997   2.385
 2338SOL    HW1 7037   3.661   1.980   2.318
 2338SOL    HW2 7038   3.557   1.910   2.423
 2339SOL     OW 7039   3.250   3.435   2.339
 2339SOL    HW1 7040   3.317   3.447   2.265
 2339SOL    HW2 7041   3.210   3.524   2.362
 2340SOL     OW 7042   1.992   3.656   3.713
 2340SOL    HW1 7043   1.951   3.582   3.766
 2340SOL    HW2 7044   2.056   3.707   3.771
 2341SOL     OW 7045   3.142   2.789   2.534
 2341SOL    HW1 7046   3.202   2.708   2.536
 2341SOL    HW2 7047   3.182   2.858   2.474
 2342SOL     OW 7048   2.692   3.135   3.284
 2342SOL    HW1 7049   2.687   3.168   3.379
 2342SOL    HW2 7050   2.606   3.154   3.238
 2343SOL     OW 7051   2.534   3.478   2.016
 2343SOL    HW1 7052   2.543   3.488   1.917
 2343SOL    HW2 7053   2.494   3.389   2.037
 2344SOL     OW 7054   3.512   3.582   3.256
 2344SOL    HW1 7055   3.565   3.592   3.172
 2344SOL    HW2 7056   3.485   3.672   3.290
 2345SOL     OW 7057   3.703   2.037   2.825
 2345SOL    HW1 7058   3.742   1.952   2.789
 2345SOL    HW2 7059   3.605   2.039   2.806
 2346SOL     OW 7060   2.125   2.188   2.582
 2346SOL    HW1 7061   2.046   2.239   2.548
 2346SOL    HW2 7062   2.116   2.173   2.680
 2347SOL     OW 7063   3.056   3.474   1.893
 2347SOL    HW1 7064   3.062   3.381   1.930
 2347SOL    HW2 7065   2.997   3.474   1.813
 2348SOL     OW 7066   2.684   2.864   3.234
 2348SOL    HW1 7067   2.724   2.863   3.142
 2348SOL    HW2 7068   2.694   2.956   3.274
 2349SOL     OW 7069   2.778   2.772   2.153
 2349SOL    HW1 7070   2.841   2.810   2.085
 2349SOL    HW2 7071   2.818   2.689   2.192
 2350SOL     OW 7072   3.366   3.469   1.906
 2350SOL    HW1 7073   3.274   3.506   1.913
 2350SOL    HW2 7074   3.404   3.489   1.816
 2351SOL     OW 7075   2.234   3.150   3.352
 2351SOL    HW1 7076   2.221   3.243   3.318
 2351SOL    HW2 7077   2.150   3.098   3.339
 2352SOL     OW 7078   3.476   3.154   3.151
 2352SOL    HW1 7079   3.536   3.157   3.231
 2352SOL    HW2 7080   3.401   3.218   3.164
 2353SOL     OW 7081   2.901   2.960   2.558
 2353SOL    HW1 7082   2.831   2.913   2.612
 2353SOL    HW2 7083   2.960   2.892   2.515
 2354SOL     OW 7084   2.876   2.098   2.833
 2354SOL    HW1 7085   2.868   2.062   2.740
 2354SOL    HW2 7086   2.874   2.022   2.898
 2355SOL     OW 7087   2.452   3.349   2.353
 2355SOL    HW1 7088   2.494   3.291   2.283
 2355SOL    HW2 7089   2.408   3.428   2.309
 2356SOL     OW 7090   3.571   2.247   3.243
 2356SOL    HW1 7091   3.644   2.316   3.247
 2356SOL    HW2 7092   3.599   2.172   3.184
 2357SOL     OW 7093   2.117   3.210   2.152
 2357SOL    HW1 7094   2.021   3.211   2.125
 2357SOL    HW2 7095   2.129   3.263   2.236
 2358SOL     OW 7096   1.967   2.875   3.588
 2358SOL    HW1 7097   1.890   2.842   3.642
 2358SOL    HW2 7098   2.052   2.845   3.630
 2359SOL     OW 7099   2.534   2.065   3.351
 2359SOL    HW1 7100   2.624   2.049   3.311
 2359SOL    HW2 7101   2.542   2.070   3.450
 2360SOL     OW 7102   1.937   2.207   1.895
 2360SOL    HW1 7103   1.845   2.179   1.866
 2360SOL    HW2 7104   1.968   2.284   1.839
 2361SOL     OW 7105   3.302   2.718   3.260
 2361SOL    HW1 7106   3.245   2.770   3.197
 2361SOL    HW2 7107   3.398   2.730   3.236
 2362SOL     OW 7108   1.934   2.028   2.180
 2362SOL    HW1 7109   1.917   2.111   2.126
 2362SOL    HW2 7110   2.024   1.991   2.158
 2363SOL     OW 7111   3.045   3.197   1.981
 2363SOL    HW1 7112   2.946   3.186   1.983
 2363SOL    HW2 7113   3.079   3.212   2.074
 2364SOL     OW 7114   2.475   2.704   3.293
 2364SOL    HW1 7115   2.531   2.785   3.276
 2364SOL    HW2 7116   2.534   2.624   3.296
 2365SOL     OW 7117   3.355   3.629   2.821
 2365SOL    HW1 7118   3.388   3.693   2.752
 2365SOL    HW2 7119   3.421   3.623   2.896
 2366SOL     OW 7120   2.578   2.427   3.570
 2366SOL    HW1 7121   2.597   2.492   3.644
 2366SOL    HW2 7122   2.638   2.347   3.579
 2367SOL     OW 7123   3.312   3.082   3.495
 2367SOL    HW1 7124   3.303   3.072   3.594
 2367SOL    HW2 7125   3.408   3.075   3.469
 2368SOL     OW 7126   2.252   3.603   3.422
 2368SOL    HW1 7127   2.161   3.644   3.420
 2368SOL    HW2 7128   2.245   3.509   3.454
 2369SOL     OW 7129   3.536   2.745   3.116
 2369SOL    HW1 7130   3.509   2.656   3.079
 2369SOL    HW2 7131   3.537   2.813   3.043
 2370SOL     OW 7132   3.087   2.187   2.311
 2370SOL    HW1 7133   3.152   2.113   2.300
 2370SOL    HW2 7134   3.107   2.237   2.395
 2371SOL     OW 7135   3.639   2.204   3.504
 2371SOL    HW1 7136   3.622   2.235   3.410
 2371SOL    HW2 7137   3.555   2.167   3.542
 2372SOL     OW 7138   3.592   2.796   3.379
 2372SOL    HW1 7139   3.630   2.887   3.394
 2372SOL    HW2 7140   3.584   2.779   3.280
 2373SOL     OW 7141   2.721   3.236   1.878
 2373SOL    HW1 7142   2.675   3.251   1.966
 2373SOL    HW2 7143   2.765   3.321   1.848
 2374SOL     OW 7144   2.523   3.652   2.815
 2374SOL    HW1 7145   2.477   3.740   2.802
 2374SOL    HW2 7146   2.622   3.664   2.808
 2375SOL     OW 7147   2.721   2.818   2.723
 2375SOL    HW1 7148   2.775   2.749   2.771
 2375SOL    HW2 7149   2.689   2.887   2.789
 2376SOL     OW 7150   2.945   2.846   1.949
 2376SOL    HW1 7151   2.922   2.899   1.867
 2376SOL    HW2 7152   3.026   2.790   1.930
 2377SOL     OW 7153   3.723   3.431   2.713
 2377SOL    HW1 7154   3.652   3.419   2.643
 2377SOL    HW2 7155   3.724   3.352   2.773
 2378SOL     OW 7156   2.083   3.176   3.706
 2378SOL    HW1 7157   2.018   3.103   3.685
 2378SOL    HW2 7158   2.087   3.190   3.804
 2379SOL     OW 7159   1.941   3.102   2.515
 2379SOL    HW1 7160   1.940   3.055   2.603
 2379SOL    HW2 7161   2.023   3.074   2.464
 2380SOL     OW 7162   2.534   3.253   3.486
 2380SOL    HW1 7163   2.456   3.203   3.524
 2380SOL    HW2 7164   2.531   3.348   3.517
 2381SOL     OW 7165   3.686   2.054   3.089
 2381SOL    HW1 7166   3.682   1.964   3.133
 2381SOL    HW2 7167   3.689   2.043   2.990
 2382SOL     OW 7168   3.567   3.349   2.966
 2382SOL    HW1 7169   3.474   3.324   2.939
 2382SOL    HW2 7170   3.593   3.299   3.048
 2383SOL     OW 7171   2.179   2.409   3.142
 2383SOL    HW1 7172   2.217   2.350   3.214
 2383SOL    HW2 7173   2.219   2.383   3.054
 2384SOL     OW 7174   2.674   3.448   2.549
 2384SOL    HW1 7175   2.706   3.458   2.455
 2384SOL    HW2 7176   2.595   3.386   2.551
 2385SOL     OW 7177   3.286   2.076   2.974
 2385SOL    HW1 7178   3.338   2.011   3.029
 2385SOL    HW2 7179   3.237   2.139   3.035
 2386SOL     OW 7180   2.863   1.896   3.016
 2386SOL    HW1 7181   2.800   1.824   2.985
 2386SOL    HW2 7182   2.956   1.860   3.016
 2387SOL     OW 7183   2.632   3.192   2.163
 2387SOL    HW1 7184   2.586   3.105   2.180
 2387SOL    HW2 7185   2.723   3.189   2.204
 2388SOL     OW 7186   2.480   3.429   3.146
 2388SOL    HW1 7187   2.475   3.511   3.203
 2388SOL    HW2 7188   2.569   3.426   3.101
 2389SOL     OW 7189   3.214   1.914   2.030
 2389SOL    HW1 7190   3.249   1.873   1.946
 2389SOL    HW2 7191   3.124   1.876   2.050
 2390SOL     OW 7192   3.162   2.315   2.553
 2390SOL    HW1 7193   3.103   2.395   2.557
 2390SOL    HW2 7194   3.177   2.280   2.646
 2391SOL     OW 7195   3.455   2.083   2.744
 2391SOL    HW1 7196   3.371   2.082   2.798
 2391SOL    HW2 7197   3.457   2.166   2.688
 2392SOL     OW 7198   1.901   2.939   2.162
 2392SOL    HW1 7199   2.000   2.928   2.153
 2392SOL    HW2 7200   1.861   2.853   2.194
 2393SOL     OW 7201   2.737   3.508   2.199
 2393SOL    HW1 7202   2.660   3.473   2.145
 2393SOL    HW2 7203   2.705   3.579   2.261
 2394SOL     OW 7204   2.092   2.490   3.837
 2394SOL    HW1 7205   1.999   2.488   3.874
 2394SOL    HW2 7206   2.093   2.451   3.745
 2395SOL     OW 7207   2.087   2.137   4.720
 2395SOL    HW1 7208   2.122   2.120   4.812
 2395SOL    HW2 7209   1.999   2.092   4.708
 2396SOL     OW 7210   1.881   2.230   4.371
 2396SOL    HW1 7211   1.799   2.273   4.410
 2396SOL    HW2 7212   1.853   2.157   4.308
 2397SOL     OW 7213   3.417   3.373   4.427
 2397SOL    HW1 7214   3.360   3.357   4.508
 2397SOL    HW2 7215   3.358   3.383   4.347
 2398SOL     OW 7216   2.997   2.565   4.441
 2398SOL    HW1 7217   3.054   2.643   4.416
 2398SOL    HW2 7218   2.937   2.591   4.517
 2399SOL     OW 7219   3.617   2.469   3.955
 2399SOL    HW1 7220   3.605   2.456   3.856
 2399SOL    HW2 7221   3.587   2.388   4.004
 2400SOL     OW 7222   2.630   3.006   4.747
 2400SOL    HW1 7223   2.552   3.023   4.807
 2400SOL    HW2 7224   2.664   3.093   4.711
 2401SOL     OW 7225   2.547   2.874   4.389
 2401SOL    HW1 7226   2.616   2.858   4.459
 2401SOL    HW2 7227   2.474   2.931   4.427
 2402SOL     OW 7228   2.197   3.297   4.785
 2402SOL    HW1 7229   2.119   3.266   4.732
 2402SOL    HW2 7230   2.255   3.355   4.728
 2403SOL     OW 7231   3.465   2.309   4.461
 2403SOL    HW1 7232   3.391   2.355   4.411
 2403SOL    HW2 7233   3.516   2.377   4.514
 2404SOL     OW 7234   2.093   3.575   4.207
 2404SOL    HW1 7235   2.127   3.652   4.261
 2404SOL    HW2 7236   2.137   3.575   4.117
 2405SOL     OW 7237   2.092   3.296   4.262
 2405SOL    HW1 7238   2.066   3.392   4.262
 2405SOL    HW2 7239   2.021   3.242   4.307
 2406SOL     OW 7240   2.102   2.953   4.610
 2406SOL    HW1 7241   2.116   2.869   4.662
 2406SOL    HW2 7242   2.047   3.017   4.665
 2407SOL     OW 7243   2.468   2.826   3.847
 2407SOL    HW1 7244   2.475   2.910   3.793
 2407SOL    HW2 7245   2.514   2.839   3.935
 2408SOL     OW 7246   1.984   2.505   4.287
 2408SOL    HW1 7247   1.939   2.417   4.304
 2408SOL    HW2 7248   1.983   2.559   4.371
 2409SOL     OW 7249   3.704   3.629   4.083
 2409SOL    HW1 7250   3.758   3.600   4.163
 2409SOL    HW2 7251   3.734   3.719   4.054
 2410SOL     OW 7252   1.889   3.458   3.841
 2410SOL    HW1 7253   1.870   3.362   3.862
 2410SOL    HW2 7254   1.856   3.516   3.916
 2411SOL     OW 7255   3.551   2.784   4.336
 2411SOL    HW1 7256   3.646   2.755   4.344
 2411SOL    HW2 7257   3.543   2.849   4.261
 2412SOL     OW 7258   3.503   2.970   4.156
 2412SOL    HW1 7259   3.589   2.972   4.104
 2412SOL    HW2 7260   3.517   3.017   4.244
 2413SOL     OW 7261   2.475   3.227   4.450
 2413SOL    HW1 7262   2.426   3.140   4.459
 2413SOL    HW2 7263   2.452   3.270   4.363
 2414SOL     OW 7264   2.671   1.866   4.226
 2414SOL    HW1 7265   2.711   1.957   4.217
 2414SOL    HW2 7266   2.571   1.874   4.232
 2415SOL     OW 7267   3.387   2.861   3.914
 2415SOL    HW1 7268   3.324   2.785   3.927
 2415SOL    HW2 7269   3.435   2.879   4.000
 2416SOL     OW 7270   3.328   3.279   4.677
 2416SOL    HW1 7271   3.269   3.285   4.757
 2416SOL    HW2 7272   3.313   3.191   4.631
 2417SOL     OW 7273   3.529   3.576   4.296
 2417SOL    HW1 7274   3.488   3.553   4.208
 2417SOL    HW2 7275   3.511   3.502   4.361
 2418SOL     OW 7276   2.460   2.591   3.994
 2418SOL    HW1 7277   2.484   2.660   3.926
 2418SOL    HW2 7278   2.382   2.624   4.048
 2419SOL     OW 7279   3.143   2.207   4.668
 2419SOL    HW1 7280   3.057   2.157   4.655
 2419SOL    HW2 7281   3.205   2.153   4.724
 2420SOL     OW 7282   3.438   3.524   4.031
 2420SOL    HW1 7283   3.527   3.570   4.034
 2420SOL    HW2 7284   3.417   3.500   3.936
 2421SOL     OW 7285   2.903   2.563   4.153
 2421SOL    HW1 7286   2.929   2.559   4.249
 2421SOL    HW2 7287   2.818   2.512   4.139
 2422SOL     OW 7288   1.938   2.673   4.513
 2422SOL    HW1 7289   2.037   2.661   4.522
 2422SOL    HW2 7290   1.914   2.768   4.534
 2423SOL     OW 7291   2.727   2.210   3.919
 2423SOL    HW1 7292   2.786   2.273   3.870
 2423SOL    HW2 7293   2.746   2.116   3.890
 2424SOL     OW 7294   3.224   3.006   4.269
 2424SOL    HW1 7295   3.307   2.977   4.221
 2424SOL    HW2 7296   3.175   3.073   4.213
 2425SOL     OW 7297   2.412   2.058   4.609
 2425SOL    HW1 7298   2.407   2.053   4.709
 2425SOL    HW2 7299   2.414   2.154   4.580
 2426SOL     OW 7300   2.870   3.318   4.201
 2426SOL    HW1 7301   2.824   3.390   4.149
 2426SOL    HW2 7302   2.866   3.338   4.299
 2427SOL     OW 7303   2.213   3.663   4.577
 2427SOL    HW1 7304   2.263   3.577   4.583
 2427SOL    HW2 7305   2.278   3.740   4.574
 2428SOL     OW 7306   3.657   2.928   4.597
 2428SOL    HW1 7307   3.595   2.913   4.521
 2428SOL    HW2 7308   3.605   2.939   4.682
 2429SOL     OW 7309   2.183   2.805   3.966
 2429SOL    HW1 7310   2.265   2.844   3.924
 2429SOL    HW2 7311   2.156   2.723   3.917
 2430SOL     OW 7312   3.320   2.597   4.452
 2430SOL    HW1 7313   3.315   2.532   4.527
 2430SOL    HW2 7314   3.400   2.656   4.465
 2431SOL     OW 7315   2.973   3.638   3.961
 2431SOL    HW1 7316   2.913   3.576   4.011
 2431SOL    HW2 7317   3.004   3.594   3.876
 2432SOL     OW 7318   3.494   3.239   3.805
 2432SOL    HW1 7319   3.462   3.333   3.795
 2432SOL    HW2 7320   3.418   3.176   3.793
 2433SOL     OW 7321   2.326   3.605   4.047
 2433SOL    HW1 7322   2.359   3.644   4.133
 2433SOL    HW2 7323   2.402   3.598   3.982
 2434SOL     OW 7324   3.262   1.969   4.150
 2434SOL    HW1 7325   3.238   1.932   4.060
 2434SOL    HW2 7326   3.361   1.985   4.154
 2435SOL     OW 7327   2.111   3.647   4.965
 2435SOL    HW1 7328   2.168   3.582   5.015
 2435SOL    HW2 7329   2.095   3.614   4.872
 2436SOL     OW 7330   2.802   3.560   4.628
 2436SOL    HW1 7331   2.882   3.503   4.649
 2436SOL    HW2 7332   2.753   3.520   4.551
 2437SOL     OW 7333   2.244   2.562   4.204
 2437SOL    HW1 7334   2.289   2.472   4.201
 2437SOL    HW2 7335   2.150   2.551   4.237
 2438SOL     OW 7336   2.476   1.984   3.841
 2438SOL    HW1 7337   2.574   1.962   3.848
 2438SOL    HW2 7338   2.445   1.967   3.748
 2439SOL     OW 7339   2.665   3.264   4.648
 2439SOL    HW1 7340   2.755   3.278   4.606
 2439SOL    HW2 7341   2.594   3.266   4.577
 2440SOL     OW 7342   2.784   2.365   4.623
 2440SOL    HW1 7343   2.759   2.356   4.527
 2440SOL    HW2 7344   2.832   2.283   4.654
 2441SOL     OW 7345   2.401   1.926   4.236
 2441SOL    HW1 7346   2.320   1.927   4.294
 2441SOL    HW2 7347   2.404   2.009   4.181
 2442SOL     OW 7348   3.296   3.050   3.765
 2442SOL    HW1 7349   3.328   2.974   3.822
 2442SOL    HW2 7350   3.204   3.077   3.795
 2443SOL     OW 7351   2.159   1.897   3.895
 2443SOL    HW1 7352   2.208   1.981   3.874
 2443SOL    HW2 7353   2.221   1.832   3.940
 2444SOL     OW 7354   2.797   2.098   4.204
 2444SOL    HW1 7355   2.749   2.139   4.126
 2444SOL    HW2 7356   2.896   2.096   4.185
 2445SOL     OW 7357   3.089   3.432   4.517
 2445SOL    HW1 7358   3.110   3.506   4.452
 2445SOL    HW2 7359   3.157   3.432   4.590
 2446SOL     OW 7360   2.321   3.014   4.465
 2446SOL    HW1 7361   2.250   2.987   4.530
 2446SOL    HW2 7362   2.295   2.986   4.372
 2447SOL     OW 7363   3.133   3.659   4.315
 2447SOL    HW1 7364   3.177   3.723   4.251
 2447SOL    HW2 7365   3.083   3.711   4.385
 2448SOL     OW 7366   2.894   2.411   3.740
 2448SOL    HW1 7367   2.853   2.493   3.701
 2448SOL    HW2 7368   2.958   2.437   3.813
 2449SOL     OW 7369   2.728   2.316   4.366
 2449SOL    HW1 7370   2.696   2.388   4.304
 2449SOL    HW2 7371   2.752   2.235   4.313
 2450SOL     OW 7372   2.879   1.901   4.477
 2450SOL    HW1 7373   2.807   1.906   4.408
 2450SOL    HW2 7374   2.855   1.832   4.546
 2451SOL     OW 7375   3.291   3.035   4.591
 2451SOL    HW1 7376   3.236   2.951   4.584
 2451SOL    HW2 7377   3.317   3.064   4.499
 2452SOL     OW 7378   3.328   2.452   4.716
 2452SOL    HW1 7379   3.298   2.357   4.723
 2452SOL    HW2 7380   3.401   2.468   4.782
 2453SOL     OW 7381   3.719   2.695   4.101
 2453SOL    HW1 7382   3.761   2.631   4.165
 2453SOL    HW2 7383   3.681   2.644   4.023
 2454SOL     OW 7384   2.350   3.247   3.898
 2454SOL    HW1 7385   2.263   3.232   3.945
 2454SOL    HW2 7386   2.333   3.273   3.803
 2455SOL     OW 7387   3.526   3.142   4.381
 2455SOL    HW1 7388   3.625   3.150   4.395
 2455SOL    HW2 7389   3.481   3.226   4.412
 2456SOL     OW 7390   3.252   2.437   3.802
 2456SOL    HW1 7391   3.198   2.416   3.883
 2456SOL    HW2 7392   3.343   2.396   3.811
 2457SOL     OW 7393   2.389   2.118   4.052
 2457SOL    HW1 7394   2.416   2.059   3.977
 2457SOL    HW2 7395   2.389   2.213   4.021
 2458SOL     OW 7396   3.500   2.961   4.803
 2458SOL    HW1 7397   3.505   3.042   4.862
 2458SOL    HW2 7398   3.414   2.963   4.752
 2459SOL     OW 7399   2.567   2.912   4.092
 2459SOL    HW1 7400   2.553   2.919   4.191
 2459SOL    HW2 7401   2.651   2.861   4.074
 2460SOL     OW 7402   2.229   2.962   4.225
 2460SOL    HW1 7403   2.222   3.045   4.169
 2460SOL    HW2 7404   2.233   2.882   4.165
 2461SOL     OW 7405   2.428   2.399   4.589
 2461SOL    HW1 7406   2.440   2.465   4.515
 2461SOL    HW2 7407   2.474   2.433   4.672
 2462SOL     OW 7408   3.114   3.210   4.112
 2462SOL    HW1 7409   3.164   3.287   4.152
 2462SOL    HW2 7410   3.019   3.212   4.144
 2463SOL     OW 7411   3.444   2.501   4.196
 2463SOL    HW1 7412   3.413   2.562   4.269
 2463SOL    HW2 7413   3.494   2.553   4.127
 2464SOL     OW 7414   2.435   2.732   4.753
 2464SOL    HW1 7415   2.479   2.821   4.744
 2464SOL    HW2 7416   2.372   2.732   4.830
 2465SOL     OW 7417   3.071   2.387   3.999
 2465SOL    HW1 7418   3.084   2.303   4.053
 2465SOL    HW2 7419   3.042   2.461   4.059
 2466SOL     OW 7420   2.169   2.075   4.955
 2466SOL    HW1 7421   2.146   2.112   5.045
 2466SOL    HW2 7422   2.139   1.980   4.949
 2467SOL     OW 7423   2.594   2.496   4.788
 2467SOL    HW1 7424   2.653   2.470   4.712
 2467SOL    HW2 7425   2.566   2.592   4.777
 2468SOL     OW 7426   2.169   1.925   4.342
 2468SOL    HW1 7427   2.158   2.019   4.375
 2468SOL    HW2 7428   2.164   1.862   4.419
 2469SOL     OW 7429   3.484   2.229   4.098
 2469SOL    HW1 7430   3.486   2.153   4.162
 2469SOL    HW2 7431   3.436   2.306   4.138
 2470SOL     OW 7432   2.885   2.628   4.690
 2470SOL    HW1 7433   2.900   2.649   4.786
 2470SOL    HW2 7434   2.855   2.533   4.681
 2471SOL     OW 7435   3.402   2.136   3.849
 2471SOL    HW1 7436   3.341   2.061   3.872
 2471SOL    HW2 7437   3.424   2.188   3.932
 2472SOL     OW 7438   3.165   2.700   3.766
 2472SOL    HW1 7439   3.199   2.607   3.781
 2472SOL    HW2 7440   3.183   2.727   3.671
 2473SOL     OW 7441   2.930   3.195   4.573
 2473SOL    HW1 7442   2.937   3.111   4.518
 2473SOL    HW2 7443   2.992   3.264   4.537
 2474SOL     OW 7444   2.181   2.672   4.673
 2474SOL    HW1 7445   2.274   2.708   4.678
 2474SOL    HW2 7446   2.175   2.587   4.725
 2475SOL     OW 7447   2.201   2.371   4.730
 2475SOL    HW1 7448   2.149   2.288   4.713
 2475SOL    HW2 7449   2.278   2.376   4.666
 2476SOL     OW 7450   1.870   3.188   3.924
 2476SOL    HW1 7451   1.777   3.209   3.893
 2476SOL    HW2 7452   1.880   3.089   3.937
 2477SOL     OW 7453   1.950   3.663   4.651
 2477SOL    HW1 7454   1.908   3.577   4.624
 2477SOL    HW2 7455   2.044   3.666   4.617
 2478SOL     OW 7456   2.366   3.430   4.634
 2478SOL    HW1 7457   2.432   3.504   4.643
 2478SOL    HW2 7458   2.410   3.351   4.592
 2479SOL     OW 7459   2.864   2.658   4.962
 2479SOL    HW1 7460   2.905   2.626   5.048
 2479SOL    HW2 7461   2.768   2.631   4.959
 2480SOL     OW 7462   2.677   2.434   4.049
 2480SOL    HW1 7463   2.684   2.345   4.003
 2480SOL    HW2 7464   2.583   2.468   4.041
 2481SOL     OW 7465   2.533   2.326   4.993
 2481SOL    HW1 7466   2.499   2.237   4.963
 2481SOL    HW2 7467   2.559   2.380   4.913
 2482SOL     OW 7468   2.335   2.362   3.915
 2482SOL    HW1 7469   2.396   2.442   3.919
 2482SOL    HW2 7470   2.240   2.393   3.922
 2483SOL     OW 7471   3.164   2.717   4.033
 2483SOL    HW1 7472   3.078   2.686   4.075
 2483SOL    HW2 7473   3.160   2.703   3.934
 2484SOL     OW 7474   3.621   3.609   4.878
 2484SOL    HW1 7475   3.682   3.639   4.805
 2484SOL    HW2 7476   3.583   3.520   4.856
 2485SOL     OW 7477   1.945   3.120   4.746
 2485SOL    HW1 7478   1.940   3.119   4.846
 2485SOL    HW2 7479   1.862   3.079   4.708
 2486SOL     OW 7480   3.588   1.997   4.247
 2486SOL    HW1 7481   3.661   1.980   4.180
 2486SOL    HW2 7482   3.557   1.910   4.285
 2487SOL     OW 7483   3.250   3.435   4.201
 2487SOL    HW1 7484   3.317   3.447   4.127
 2487SOL    HW2 7485   3.210   3.524   4.224
 2488SOL     OW 7486   3.142   2.789   4.396
 2488SOL    HW1 7487   3.202   2.708   4.398
 2488SOL    HW2 7488   3.182   2.858   4.336
 2489SOL     OW 7489   2.534   3.478   3.878
 2489SOL    HW1 7490   2.543   3.488   3.779
 2489SOL    HW2 7491   2.494   3.389   3.899
 2490SOL     OW 7492   3.703   2.037   4.687
 2490SOL    HW1 7493   3.742   1.952   4.651
 2490SOL    HW2 7494   3.605   2.039   4.668
 2491SOL     OW 7495   2.125   2.188   4.444
 2491SOL    HW1 7496   2.046   2.239   4.410
 2491SOL    HW2 7497   2.116   2.173   4.542
 2492SOL     OW 7498   3.056   3.474   3.755
 2492SOL    HW1 7499   3.062   3.381   3.792
 2492SOL    HW2 7500   2.997   3.474   3.675
 2493SOL     OW 7501   2.778   2.772   4.015
 2493SOL    HW1 7502   2.841   2.810   3.947
 2493SOL    HW2 7503   2.818   2.689   4.054
 2494SOL     OW 7504   3.366   3.469   3.768
 2494SOL    HW1 7505   3.274   3.506   3.775
 2494SOL    HW2 7506   3.404   3.489   3.678
 2495SOL     OW 7507   2.901   2.960   4.420
 2495SOL    HW1 7508   2.831   2.913   4.474
 2495SOL    HW2 7509   2.960   2.892   4.377
 2496SOL     OW 7510   2.876   2.098   4.695
 2496SOL    HW1 7511   2.868   2.062   4.602
 2496SOL    HW2 7512   2.874   2.022   4.760
 2497SOL     OW 7513   2.452   3.349   4.215
 2497SOL    HW1 7514   2.494   3.291   4.145
 2497SOL    HW2 7515   2.408   3.428   4.171
 2498SOL     OW 7516   2.117   3.210   4.014
 2498SOL    HW1 7517   2.021   3.211   3.987
 2498SOL    HW2 7518   2.129   3.263   4.098
 2499SOL     OW 7519   1.937   2.207   3.757
 2499SOL    HW1 7520   1.845   2.179   3.728
 2499SOL    HW2 7521   1.968   2.284   3.701
 2500SOL     OW 7522   1.934   2.028   4.042
 2500SOL    HW1 7523   1.917   2.111   3.988
 2500SOL    HW2 7524   2.024   1.991   4.020
 2501SOL     OW 7525   3.045   3.197   3.843
 2501SOL    HW1 7526   2.946   3.186   3.845
 2501SOL    HW2 7527   3.079   3.212   3.936
 2502SOL     OW 7528   3.355   3.629   4.683
 2502SOL    HW1 7529   3.388   3.693   4.614
 2502SOL    HW2 7530   3.421   3.623   4.758
 2503SOL     OW 7531   3.536   2.745   4.978
 2503SOL    HW1 7532   3.509   2.656   4.941
 2503SOL    HW2 7533   3.537   2.813   4.905
 2504SOL     OW 7534   3.087   2.187   4.173
 2504SOL    HW1 7535   3.152   2.113   4.162
 2504SOL    HW2 7536   3.107   2.237   4.257
 2505SOL     OW 7537   2.456   2.607   4.376
 2505SOL    HW1 7538   2.506   2.692   4.357
 2505SOL    HW2 7539   2.368   2.609   4.328
 2506SOL     OW 7540   2.721   3.236   3.740
 2506SOL    HW1 7541   2.675   3.251   3.828
 2506SOL    HW2 7542   2.765   3.321   3.710
 2507SOL     OW 7543   2.523   3.652   4.677
 2507SOL    HW1 7544   2.477   3.740   4.664
 2507SOL    HW2 7545   2.622   3.664   4.670
 2508SOL     OW 7546   2.721   2.818   4.585
 2508SOL    HW1 7547   2.775   2.749   4.633
 2508SOL    HW2 7548   2.689   2.887   4.651
 2509SOL     OW 7549   2.945   2.846   3.811
 2509SOL    HW1 7550   2.922   2.899   3.729
 2509SOL    HW2 7551   3.026   2.790   3.792
 2510SOL     OW 7552   3.723   3.431   4.575
 2510SOL    HW1 7553   3.652   3.419   4.505
 2510SOL    HW2 7554   3.724   3.352   4.635
 2511SOL     OW 7555   1.941   3.102   4.377
 2511SOL    HW1 7556   1.940   3.055   4.465
 2511SOL    HW2 7557   2.023   3.074   4.326
 2512SOL     OW 7558   3.686   2.054   4.951
 2512SOL    HW1 7559   3.682   1.964   4.995
 2512SOL    HW2 7560   3.689   2.043   4.852
 2513SOL     OW 7561   2.290   2.286   4.244
 2513SOL    HW1 7562   2.320   2.214   4.182
 2513SOL    HW2 7563   2.251   2.246   4.327
 2514SOL     OW 7564   2.674   3.448   4.411
 2514SOL    HW1 7565   2.706   3.458   4.317
 2514SOL    HW2 7566   2.595   3.386   4.413
 2515SOL     OW 7567   2.632   3.192   4.025
 2515SOL    HW1 7568   2.586   3.105   4.042
 2515SOL    HW2 7569   2.723   3.189   4.066
 2516SOL     OW 7570   3.214   1.914   3.892
 2516SOL    HW1 7571   3.249   1.873   3.808
 2516SOL    HW2 7572   3.124   1.876   3.912
 2517SOL     OW 7573   3.162   2.315   4.415
 2517SOL    HW1 7574   3.103   2.395   4.419
 2517SOL    HW2 7575   3.177   2.280   4.508
 2518SOL     OW 7576   3.455   2.083   4.606
 2518SOL    HW1 7577   3.371   2.082   4.660
 2518SOL    HW2 7578   3.457   2.166   4.550
 2519SOL     OW 7579   1.901   2.939   4.024
 2519SOL    HW1 7580   2.000   2.928   4.015
 2519SOL    HW2 7581   1.861   2.853   4.056
 2520SOL     OW 7582   2.737   3.508   4.061
 2520SOL    HW1 7583   2.660   3.473   4.007
 2520SOL    HW2 7584   2.705   3.579   4.123
 2521SOL     OW 7585   2.092   4.352   0.113
 2521SOL    HW1 7586   1.999   4.350   0.150
 2521SOL    HW2 7587   2.093   4.313   0.021
 2522SOL     OW 7588   2.087   3.999   0.996
 2522SOL    HW1 7589   2.122   3.982   1.088
 2522SOL    HW2 7590   1.999   3.954   0.984
 2523SOL     OW 7591   1.881   4.092   0.647
 2523SOL    HW1 7592   1.799   4.135   0.686
 2523SOL    HW2 7593   1.853   4.019   0.584
 2524SOL     OW 7594   2.997   4.427   0.717
 2524SOL    HW1 7595   3.054   4.505   0.692
 2524SOL    HW2 7596   2.937   4.453   0.793
 2525SOL     OW 7597   3.617   4.331   0.231
 2525SOL    HW1 7598   3.605   4.318   0.132
 2525SOL    HW2 7599   3.587   4.250   0.280
 2526SOL     OW 7600   2.630   4.868   1.023
 2526SOL    HW1 7601   2.552   4.885   1.083
 2526SOL    HW2 7602   2.664   4.955   0.987
 2527SOL     OW 7603   2.712   4.522   1.823
 2527SOL    HW1 7604   2.708   4.598   1.888
 2527SOL    HW2 7605   2.734   4.558   1.732
 2528SOL     OW 7606   2.547   4.736   0.665
 2528SOL    HW1 7607   2.616   4.720   0.735
 2528SOL    HW2 7608   2.474   4.793   0.703
 2529SOL     OW 7609   2.300   4.116   1.499
 2529SOL    HW1 7610   2.382   4.060   1.508
 2529SOL    HW2 7611   2.219   4.058   1.503
 2530SOL     OW 7612   3.465   4.171   0.737
 2530SOL    HW1 7613   3.391   4.217   0.687
 2530SOL    HW2 7614   3.516   4.239   0.790
 2531SOL     OW 7615   2.102   4.815   0.886
 2531SOL    HW1 7616   2.116   4.731   0.938
 2531SOL    HW2 7617   2.047   4.879   0.941
 2532SOL     OW 7618   2.468   4.688   0.123
 2532SOL    HW1 7619   2.475   4.772   0.069
 2532SOL    HW2 7620   2.514   4.701   0.211
 2533SOL     OW 7621   3.456   3.838   1.480
 2533SOL    HW1 7622   3.438   3.905   1.408
 2533SOL    HW2 7623   3.453   3.884   1.569
 2534SOL     OW 7624   1.984   4.367   0.563
 2534SOL    HW1 7625   1.939   4.279   0.580
 2534SOL    HW2 7626   1.983   4.421   0.647
 2535SOL     OW 7627   3.551   4.646   0.612
 2535SOL    HW1 7628   3.646   4.617   0.620
 2535SOL    HW2 7629   3.543   4.711   0.537
 2536SOL     OW 7630   1.975   4.461   1.597
 2536SOL    HW1 7631   2.063   4.448   1.642
 2536SOL    HW2 7632   1.962   4.558   1.575
 2537SOL     OW 7633   2.671   3.728   0.502
 2537SOL    HW1 7634   2.711   3.819   0.493
 2537SOL    HW2 7635   2.571   3.736   0.508
 2538SOL     OW 7636   2.059   4.700   1.264
 2538SOL    HW1 7637   2.148   4.655   1.250
 2538SOL    HW2 7638   1.986   4.635   1.245
 2539SOL     OW 7639   3.387   4.723   0.190
 2539SOL    HW1 7640   3.324   4.647   0.203
 2539SOL    HW2 7641   3.435   4.741   0.276
 2540SOL     OW 7642   2.179   3.975   1.801
 2540SOL    HW1 7643   2.250   4.046   1.807
 2540SOL    HW2 7644   2.091   4.014   1.829
 2541SOL     OW 7645   2.460   4.453   0.270
 2541SOL    HW1 7646   2.484   4.522   0.202
 2541SOL    HW2 7647   2.382   4.486   0.324
 2542SOL     OW 7648   3.143   4.069   0.944
 2542SOL    HW1 7649   3.057   4.019   0.931
 2542SOL    HW2 7650   3.205   4.015   1.000
 2543SOL     OW 7651   2.669   4.329   1.465
 2543SOL    HW1 7652   2.622   4.326   1.554
 2543SOL    HW2 7653   2.618   4.274   1.399
 2544SOL     OW 7654   3.256   4.193   1.674
 2544SOL    HW1 7655   3.236   4.236   1.762
 2544SOL    HW2 7656   3.334   4.131   1.683
 2545SOL     OW 7657   2.835   4.614   1.572
 2545SOL    HW1 7658   2.881   4.530   1.543
 2545SOL    HW2 7659   2.779   4.648   1.497
 2546SOL     OW 7660   2.853   4.134   1.242
 2546SOL    HW1 7661   2.776   4.168   1.296
 2546SOL    HW2 7662   2.819   4.083   1.163
 2547SOL     OW 7663   2.903   4.425   0.429
 2547SOL    HW1 7664   2.929   4.421   0.525
 2547SOL    HW2 7665   2.818   4.374   0.415
 2548SOL     OW 7666   1.938   4.535   0.789
 2548SOL    HW1 7667   2.037   4.523   0.798
 2548SOL    HW2 7668   1.914   4.630   0.810
 2549SOL     OW 7669   2.727   4.072   0.195
 2549SOL    HW1 7670   2.786   4.135   0.146
 2549SOL    HW2 7671   2.746   3.978   0.166
 2550SOL     OW 7672   3.581   4.309   1.831
 2550SOL    HW1 7673   3.555   4.398   1.795
 2550SOL    HW2 7674   3.579   4.241   1.758
 2551SOL     OW 7675   2.412   3.920   0.885
 2551SOL    HW1 7676   2.407   3.915   0.985
 2551SOL    HW2 7677   2.414   4.016   0.856
 2552SOL     OW 7678   3.657   4.790   0.873
 2552SOL    HW1 7679   3.595   4.775   0.797
 2552SOL    HW2 7680   3.605   4.801   0.958
 2553SOL     OW 7681   3.320   4.459   0.728
 2553SOL    HW1 7682   3.315   4.394   0.803
 2553SOL    HW2 7683   3.400   4.518   0.741
 2554SOL     OW 7684   2.064   4.009   1.498
 2554SOL    HW1 7685   1.984   4.069   1.485
 2554SOL    HW2 7686   2.054   3.960   1.584
 2555SOL     OW 7687   3.262   3.831   0.426
 2555SOL    HW1 7688   3.238   3.794   0.336
 2555SOL    HW2 7689   3.361   3.847   0.430
 2556SOL     OW 7690   2.244   4.424   0.480
 2556SOL    HW1 7691   2.289   4.334   0.477
 2556SOL    HW2 7692   2.150   4.413   0.513
 2557SOL     OW 7693   3.409   3.946   1.729
 2557SOL    HW1 7694   3.404   3.983   1.821
 2557SOL    HW2 7695   3.337   3.877   1.717
 2558SOL     OW 7696   2.476   3.846   0.117
 2558SOL    HW1 7697   2.574   3.824   0.124
 2558SOL    HW2 7698   2.445   3.829   0.024
 2559SOL     OW 7699   2.643   3.988   1.749
 2559SOL    HW1 7700   2.710   3.927   1.792
 2559SOL    HW2 7701   2.570   4.007   1.814
 2560SOL     OW 7702   3.213   4.314   1.433
 2560SOL    HW1 7703   3.241   4.271   1.518
 2560SOL    HW2 7704   3.238   4.410   1.434
 2561SOL     OW 7705   2.784   4.227   0.899
 2561SOL    HW1 7706   2.759   4.218   0.803
 2561SOL    HW2 7707   2.832   4.145   0.930
 2562SOL     OW 7708   2.401   3.788   0.512
 2562SOL    HW1 7709   2.320   3.789   0.570
 2562SOL    HW2 7710   2.404   3.871   0.457
 2563SOL     OW 7711   2.797   3.960   0.480
 2563SOL    HW1 7712   2.749   4.001   0.402
 2563SOL    HW2 7713   2.896   3.958   0.461
 2564SOL     OW 7714   2.938   4.407   1.464
 2564SOL    HW1 7715   2.858   4.346   1.467
 2564SOL    HW2 7716   3.019   4.354   1.440
 2565SOL     OW 7717   2.894   4.273   0.016
 2565SOL    HW1 7718   2.853   4.355  -0.023
 2565SOL    HW2 7719   2.958   4.299   0.089
 2566SOL     OW 7720   1.940   4.280   1.386
 2566SOL    HW1 7721   2.032   4.279   1.345
 2566SOL    HW2 7722   1.934   4.354   1.453
 2567SOL     OW 7723   2.423   3.946   1.147
 2567SOL    HW1 7724   2.461   3.862   1.184
 2567SOL    HW2 7725   2.335   3.965   1.191
 2568SOL     OW 7726   2.728   4.178   0.642
 2568SOL    HW1 7727   2.696   4.250   0.580
 2568SOL    HW2 7728   2.752   4.097   0.589
 2569SOL     OW 7729   2.879   3.763   0.753
 2569SOL    HW1 7730   2.807   3.768   0.684
 2569SOL    HW2 7731   2.855   3.694   0.822
 2570SOL     OW 7732   3.291   4.897   0.867
 2570SOL    HW1 7733   3.236   4.813   0.860
 2570SOL    HW2 7734   3.317   4.926   0.775
 2571SOL     OW 7735   3.328   4.314   0.992
 2571SOL    HW1 7736   3.298   4.219   0.999
 2571SOL    HW2 7737   3.401   4.330   1.058
 2572SOL     OW 7738   3.719   4.557   0.377
 2572SOL    HW1 7739   3.761   4.493   0.441
 2572SOL    HW2 7740   3.681   4.506   0.299
 2573SOL     OW 7741   3.252   4.299   0.078
 2573SOL    HW1 7742   3.198   4.278   0.159
 2573SOL    HW2 7743   3.343   4.258   0.087
 2574SOL     OW 7744   2.389   3.980   0.328
 2574SOL    HW1 7745   2.416   3.921   0.253
 2574SOL    HW2 7746   2.389   4.075   0.297
 2575SOL     OW 7747   3.500   4.823   1.079
 2575SOL    HW1 7748   3.505   4.904   1.138
 2575SOL    HW2 7749   3.414   4.825   1.028
 2576SOL     OW 7750   2.777   3.813   1.402
 2576SOL    HW1 7751   2.802   3.793   1.307
 2576SOL    HW2 7752   2.849   3.869   1.444
 2577SOL     OW 7753   2.272   4.537   1.251
 2577SOL    HW1 7754   2.358   4.549   1.301
 2577SOL    HW2 7755   2.230   4.450   1.278
 2578SOL     OW 7756   3.136   4.110   1.262
 2578SOL    HW1 7757   3.157   4.184   1.326
 2578SOL    HW2 7758   3.047   4.127   1.219
 2579SOL     OW 7759   2.428   4.261   0.865
 2579SOL    HW1 7760   2.440   4.327   0.791
 2579SOL    HW2 7761   2.474   4.295   0.948
 2580SOL     OW 7762   3.444   4.363   0.472
 2580SOL    HW1 7763   3.413   4.424   0.545
 2580SOL    HW2 7764   3.494   4.415   0.403
 2581SOL     OW 7765   2.264   4.475   1.598
 2581SOL    HW1 7766   2.332   4.530   1.551
 2581SOL    HW2 7767   2.304   4.387   1.625
 2582SOL     OW 7768   3.449   4.503   1.670
 2582SOL    HW1 7769   3.357   4.541   1.665
 2582SOL    HW2 7770   3.509   4.550   1.605
 2583SOL     OW 7771   2.875   3.829   1.770
 2583SOL    HW1 7772   2.881   3.914   1.718
 2583SOL    HW2 7773   2.907   3.753   1.713
 2584SOL     OW 7774   2.366   3.774   1.740
 2584SOL    HW1 7775   2.324   3.717   1.670
 2584SOL    HW2 7776   2.300   3.843   1.772
 2585SOL     OW 7777   2.435   4.594   1.029
 2585SOL    HW1 7778   2.479   4.683   1.020
 2585SOL    HW2 7779   2.372   4.594   1.106
 2586SOL     OW 7780   3.222   4.586   1.045
 2586SOL    HW1 7781   3.147   4.586   0.979
 2586SOL    HW2 7782   3.259   4.494   1.054
 2587SOL     OW 7783   3.071   4.249   0.275
 2587SOL    HW1 7784   3.084   4.165   0.329
 2587SOL    HW2 7785   3.042   4.323   0.335
 2588SOL     OW 7786   2.169   3.937   1.231
 2588SOL    HW1 7787   2.146   3.974   1.321
 2588SOL    HW2 7788   2.139   3.842   1.225
 2589SOL     OW 7789   2.594   4.358   1.064
 2589SOL    HW1 7790   2.653   4.332   0.988
 2589SOL    HW2 7791   2.566   4.454   1.053
 2590SOL     OW 7792   3.590   4.659   1.854
 2590SOL    HW1 7793   3.544   4.652   1.765
 2590SOL    HW2 7794   3.528   4.703   1.920
 2591SOL     OW 7795   2.169   3.787   0.618
 2591SOL    HW1 7796   2.158   3.881   0.651
 2591SOL    HW2 7797   2.164   3.724   0.695
 2592SOL     OW 7798   3.484   4.091   0.374
 2592SOL    HW1 7799   3.486   4.015   0.438
 2592SOL    HW2 7800   3.436   4.168   0.414
 2593SOL     OW 7801   2.885   4.490   0.966
 2593SOL    HW1 7802   2.900   4.511   1.062
 2593SOL    HW2 7803   2.855   4.395   0.957
 2594SOL     OW 7804   2.212   4.622   1.804
 2594SOL    HW1 7805   2.288   4.666   1.852
 2594SOL    HW2 7806   2.247   4.575   1.722
 2595SOL     OW 7807   3.402   3.998   0.125
 2595SOL    HW1 7808   3.341   3.923   0.148
 2595SOL    HW2 7809   3.424   4.050   0.208
 2596SOL     OW 7810   3.165   4.562   0.042
 2596SOL    HW1 7811   3.199   4.469   0.057
 2596SOL    HW2 7812   3.183   4.589  -0.053
 2597SOL     OW 7813   2.181   4.534   0.949
 2597SOL    HW1 7814   2.274   4.570   0.954
 2597SOL    HW2 7815   2.175   4.449   1.001
 2598SOL     OW 7816   2.201   4.233   1.006
 2598SOL    HW1 7817   2.149   4.150   0.989
 2598SOL    HW2 7818   2.278   4.238   0.942
 2599SOL     OW 7819   3.000   4.104   1.678
 2599SOL    HW1 7820   2.955   4.167   1.742
 2599SOL    HW2 7821   3.093   4.135   1.661
 2600SOL     OW 7822   3.022   3.931   1.477
 2600SOL    HW1 7823   3.022   3.995   1.554
 2600SOL    HW2 7824   3.050   3.979   1.394
 2601SOL     OW 7825   2.864   4.520   1.238
 2601SOL    HW1 7826   2.905   4.488   1.324
 2601SOL    HW2 7827   2.768   4.493   1.235
 2602SOL     OW 7828   1.902   4.268   1.114
 2602SOL    HW1 7829   1.987   4.235   1.073
 2602SOL    HW2 7830   1.915   4.283   1.212
 2603SOL     OW 7831   2.051   4.244   1.722
 2603SOL    HW1 7832   2.110   4.204   1.652
 2603SOL    HW2 7833   1.993   4.315   1.681
 2604SOL     OW 7834   3.231   4.674   1.660
 2604SOL    HW1 7835   3.270   4.763   1.680
 2604SOL    HW2 7836   3.241   4.654   1.563
 2605SOL     OW 7837   2.677   4.296   0.325
 2605SOL    HW1 7838   2.684   4.207   0.279
 2605SOL    HW2 7839   2.583   4.330   0.317
 2606SOL     OW 7840   3.519   4.328   1.206
 2606SOL    HW1 7841   3.481   4.259   1.268
 2606SOL    HW2 7842   3.601   4.292   1.162
 2607SOL     OW 7843   2.533   4.188   1.269
 2607SOL    HW1 7844   2.499   4.099   1.239
 2607SOL    HW2 7845   2.559   4.242   1.189
 2608SOL     OW 7846   2.335   4.224   0.191
 2608SOL    HW1 7847   2.396   4.304   0.195
 2608SOL    HW2 7848   2.240   4.255   0.198
 2609SOL     OW 7849   2.021   4.861   1.466
 2609SOL    HW1 7850   2.043   4.800   1.542
 2609SOL    HW2 7851   2.031   4.812   1.380
 2610SOL     OW 7852   3.209   4.783   1.234
 2610SOL    HW1 7853   3.233   4.720   1.160
 2610SOL    HW2 7854   3.119   4.823   1.216
 2611SOL     OW 7855   3.164   4.579   0.309
 2611SOL    HW1 7856   3.078   4.548   0.351
 2611SOL    HW2 7857   3.160   4.565   0.210
 2612SOL     OW 7858   2.765   3.810   0.133
 2612SOL    HW1 7859   2.816   3.811   0.047
 2612SOL    HW2 7860   2.821   3.768   0.204
 2613SOL     OW 7861   3.588   3.859   0.523
 2613SOL    HW1 7862   3.661   3.842   0.456
 2613SOL    HW2 7863   3.557   3.772   0.561
 2614SOL     OW 7864   3.142   4.651   0.672
 2614SOL    HW1 7865   3.202   4.570   0.674
 2614SOL    HW2 7866   3.182   4.720   0.612
 2615SOL     OW 7867   3.703   3.899   0.963
 2615SOL    HW1 7868   3.742   3.814   0.927
 2615SOL    HW2 7869   3.605   3.901   0.944
 2616SOL     OW 7870   2.125   4.050   0.720
 2616SOL    HW1 7871   2.046   4.101   0.686
 2616SOL    HW2 7872   2.116   4.035   0.818
 2617SOL     OW 7873   2.778   4.634   0.291
 2617SOL    HW1 7874   2.841   4.672   0.223
 2617SOL    HW2 7875   2.818   4.551   0.330
 2618SOL     OW 7876   2.876   3.960   0.971
 2618SOL    HW1 7877   2.868   3.924   0.878
 2618SOL    HW2 7878   2.874   3.884   1.036
 2619SOL     OW 7879   3.571   4.109   1.381
 2619SOL    HW1 7880   3.644   4.178   1.385
 2619SOL    HW2 7881   3.599   4.034   1.322
 2620SOL     OW 7882   1.967   4.737   1.726
 2620SOL    HW1 7883   1.890   4.704   1.780
 2620SOL    HW2 7884   2.052   4.707   1.768
 2621SOL     OW 7885   2.534   3.927   1.489
 2621SOL    HW1 7886   2.624   3.911   1.449
 2621SOL    HW2 7887   2.542   3.932   1.588
 2622SOL     OW 7888   1.937   4.069   0.033
 2622SOL    HW1 7889   1.845   4.041   0.004
 2622SOL    HW2 7890   1.968   4.146  -0.023
 2623SOL     OW 7891   3.302   4.580   1.398
 2623SOL    HW1 7892   3.245   4.632   1.335
 2623SOL    HW2 7893   3.398   4.592   1.374
 2624SOL     OW 7894   1.934   3.890   0.318
 2624SOL    HW1 7895   1.917   3.973   0.264
 2624SOL    HW2 7896   2.024   3.853   0.296
 2625SOL     OW 7897   3.045   5.059   0.119
 2625SOL    HW1 7898   2.946   5.048   0.121
 2625SOL    HW2 7899   3.079   5.074   0.212
 2626SOL     OW 7900   2.475   4.566   1.431
 2626SOL    HW1 7901   2.531   4.647   1.414
 2626SOL    HW2 7902   2.534   4.486   1.434
 2627SOL     OW 7903   2.578   4.289   1.708
 2627SOL    HW1 7904   2.597   4.354   1.782
 2627SOL    HW2 7905   2.638   4.209   1.717
 2628SOL     OW 7906   3.536   4.607   1.254
 2628SOL    HW1 7907   3.509   4.518   1.217
 2628SOL    HW2 7908   3.537   4.675   1.181
 2629SOL     OW 7909   3.087   4.049   0.449
 2629SOL    HW1 7910   3.152   3.975   0.438
 2629SOL    HW2 7911   3.107   4.099   0.533
 2630SOL     OW 7912   2.456   4.469   0.652
 2630SOL    HW1 7913   2.506   4.554   0.633
 2630SOL    HW2 7914   2.368   4.471   0.604
 2631SOL     OW 7915   3.639   4.066   1.642
 2631SOL    HW1 7916   3.622   4.097   1.548
 2631SOL    HW2 7917   3.555   4.029   1.680
 2632SOL     OW 7918   3.592   4.658   1.517
 2632SOL    HW1 7919   3.630   4.749   1.532
 2632SOL    HW2 7920   3.584   4.641   1.418
 2633SOL     OW 7921   2.721   4.680   0.861
 2633SOL    HW1 7922   2.775   4.611   0.909
 2633SOL    HW2 7923   2.689   4.749   0.927
 2634SOL     OW 7924   2.945   4.708   0.087
 2634SOL    HW1 7925   2.922   4.761   0.005
 2634SOL    HW2 7926   3.026   4.652   0.068
 2635SOL     OW 7927   3.686   3.916   1.227
 2635SOL    HW1 7928   3.682   3.826   1.271
 2635SOL    HW2 7929   3.689   3.905   1.128
 2636SOL     OW 7930   2.290   4.148   0.520
 2636SOL    HW1 7931   2.320   4.076   0.458
 2636SOL    HW2 7932   2.251   4.108   0.603
 2637SOL     OW 7933   2.179   4.271   1.280
 2637SOL    HW1 7934   2.217   4.212   1.352
 2637SOL    HW2 7935   2.219   4.245   1.192
 2638SOL     OW 7936   3.286   3.938   1.112
 2638SOL    HW1 7937   3.338   3.873   1.167
 2638SOL    HW2 7938   3.237   4.001   1.173
 2639SOL     OW 7939   2.863   3.758   1.154
 2639SOL    HW1 7940   2.800   3.686   1.123
 2639SOL    HW2 7941   2.956   3.722   1.154
 2640SOL     OW 7942   3.214   3.776   0.168
 2640SOL    HW1 7943   3.249   3.735   0.084
 2640SOL    HW2 7944   3.124   3.738   0.188
 2641SOL     OW 7945   3.162   4.177   0.691
 2641SOL    HW1 7946   3.103   4.257   0.695
 2641SOL    HW2 7947   3.177   4.142   0.784
 2642SOL     OW 7948   3.455   3.945   0.882
 2642SOL    HW1 7949   3.371   3.944   0.936
 2642SOL    HW2 7950   3.457   4.028   0.826
 2643SOL     OW 7951   1.901   4.801   0.300
 2643SOL    HW1 7952   2.000   4.790   0.291
 2643SOL    HW2 7953   1.861   4.715   0.332
 2644SOL     OW 7954   2.092   4.352   1.975
 2644SOL    HW1 7955   1.999   4.350   2.012
 2644SOL    HW2 7956   2.093   4.313   1.883
 2645SOL     OW 7957   2.087   3.999   2.858
 2645SOL    HW1 7958   2.122   3.982   2.950
 2645SOL    HW2 7959   1.999   3.954   2.846
 2646SOL     OW 7960   1.881   4.092   2.509
 2646SOL    HW1 7961   1.799   4.135   2.548
 2646SOL    HW2 7962   1.853   4.019   2.446
 2647SOL     OW 7963   2.997   4.427   2.579
 2647SOL    HW1 7964   3.054   4.505   2.554
 2647SOL    HW2 7965   2.937   4.453   2.655
 2648SOL     OW 7966   3.617   4.331   2.093
 2648SOL    HW1 7967   3.605   4.318   1.994
 2648SOL    HW2 7968   3.587   4.250   2.142
 2649SOL     OW 7969   2.630   4.868   2.885
 2649SOL    HW1 7970   2.552   4.885   2.945
 2649SOL    HW2 7971   2.664   4.955   2.849
 2650SOL     OW 7972   2.712   4.522   3.685
 2650SOL    HW1 7973   2.708   4.598   3.750
 2650SOL    HW2 7974   2.734   4.558   3.594
 2651SOL     OW 7975   2.547   4.736   2.527
 2651SOL    HW1 7976   2.616   4.720   2.597
 2651SOL    HW2 7977   2.474   4.793   2.565
 2652SOL     OW 7978   2.300   4.116   3.361
 2652SOL    HW1 7979   2.382   4.060   3.370
 2652SOL    HW2 7980   2.219   4.058   3.365
 2653SOL     OW 7981   3.465   4.171   2.599
 2653SOL    HW1 7982   3.391   4.217   2.549
 2653SOL    HW2 7983   3.516   4.239   2.652
 2654SOL     OW 7984   2.102   4.815   2.748
 2654SOL    HW1 7985   2.116   4.731   2.800
 2654SOL    HW2 7986   2.047   4.879   2.803
 2655SOL     OW 7987   2.468   4.688   1.985
 2655SOL    HW1 7988   2.475   4.772   1.931
 2655SOL    HW2 7989   2.514   4.701   2.073
 2656SOL     OW 7990   3.456   3.838   3.342
 2656SOL    HW1 7991   3.438   3.905   3.270
 2656SOL    HW2 7992   3.453   3.884   3.431
 2657SOL     OW 7993   1.984   4.367   2.425
 2657SOL    HW1 7994   1.939   4.279   2.442
 2657SOL    HW2 7995   1.983   4.421   2.509
 2658SOL     OW 7996   3.551   4.646   2.474
 2658SOL    HW1 7997   3.646   4.617   2.482
 2658SOL    HW2 7998   3.543   4.711   2.399
 2659SOL     OW 7999   1.975   4.461   3.459
 2659SOL    HW1 8000   2.063   4.448   3.504
 2659SOL    HW2 8001   1.962   4.558   3.437
 2660SOL     OW 8002   2.671   3.728   2.364
 2660SOL    HW1 8003   2.711   3.819   2.355
 2660SOL    HW2 8004   2.571   3.736   2.370
 2661SOL     OW 8005   2.059   4.700   3.126
 2661SOL    HW1 8006   2.148   4.655   3.112
 2661SOL    HW2 8007   1.986   4.635   3.107
 2662SOL     OW 8008   3.387   4.723   2.052
 2662SOL    HW1 8009   3.324   4.647   2.065
 2662SOL    HW2 8010   3.435   4.741   2.138
 2663SOL     OW 8011   2.179   3.975   3.663
 2663SOL    HW1 8012   2.250   4.046   3.669
 2663SOL    HW2 8013   2.091   4.014   3.691
 2664SOL     OW 8014   2.460   4.453   2.132
 2664SOL    HW1 8015   2.484   4.522   2.064
 2664SOL    HW2 8016   2.382   4.486   2.186
 2665SOL     OW 8017   3.143   4.069   2.806
 2665SOL    HW1 8018   3.057   4.019   2.793
 2665SOL    HW2 8019   3.205   4.015   2.862
 2666SOL     OW 8020   2.669   4.329   3.327
 2666SOL    HW1 8021   2.622   4.326   3.416
 2666SOL    HW2 8022   2.618   4.274   3.261
 2667SOL     OW 8023   3.256   4.193   3.536
 2667SOL    HW1 8024   3.236   4.236   3.624
 2667SOL    HW2 8025   3.334   4.131   3.545
 2668SOL     OW 8026   2.835   4.614   3.434
 2668SOL    HW1 8027   2.881   4.530   3.405
 2668SOL    HW2 8028   2.779   4.648   3.359
 2669SOL     OW 8029   2.853   4.134   3.104
 2669SOL    HW1 8030   2.776   4.168   3.158
 2669SOL    HW2 8031   2.819   4.083   3.025
 2670SOL     OW 8032   2.903   4.425   2.291
 2670SOL    HW1 8033   2.929   4.421   2.387
 2670SOL    HW2 8034   2.818   4.374   2.277
 2671SOL     OW 8035   1.938   4.535   2.651
 2671SOL    HW1 8036   2.037   4.523   2.660
 2671SOL    HW2 8037   1.914   4.630   2.672
 2672SOL     OW 8038   2.727   4.072   2.057
 2672SOL    HW1 8039   2.786   4.135   2.008
 2672SOL    HW2 8040   2.746   3.978   2.028
 2673SOL     OW 8041   3.581   4.309   3.693
 2673SOL    HW1 8042   3.555   4.398   3.657
 2673SOL    HW2 8043   3.579   4.241   3.620
 2674SOL     OW 8044   2.412   3.920   2.747
 2674SOL    HW1 8045   2.407   3.915   2.847
 2674SOL    HW2 8046   2.414   4.016   2.718
 2675SOL     OW 8047   3.657   4.790   2.735
 2675SOL    HW1 8048   3.595   4.775   2.659
 2675SOL    HW2 8049   3.605   4.801   2.820
 2676SOL     OW 8050   3.320   4.459   2.590
 2676SOL    HW1 8051   3.315   4.394   2.665
 2676SOL    HW2 8052   3.400   4.518   2.603
 2677SOL     OW 8053   2.064   4.009   3.360
 2677SOL    HW1 8054   1.984   4.069   3.347
 2677SOL    HW2 8055   2.054   3.960   3.446
 2678SOL     OW 8056   3.262   3.831   2.288
 2678SOL    HW1 8057   3.238   3.794   2.198
 2678SOL    HW2 8058   3.361   3.847   2.292
 2679SOL     OW 8059   2.244   4.424   2.342
 2679SOL    HW1 8060   2.289   4.334   2.339
 2679SOL    HW2 8061   2.150   4.413   2.375
 2680SOL     OW 8062   3.409   3.946   3.591
 2680SOL    HW1 8063   3.404   3.983   3.683
 2680SOL    HW2 8064   3.337   3.877   3.579
 2681SOL     OW 8065   2.476   3.846   1.979
 2681SOL    HW1 8066   2.574   3.824   1.986
 2681SOL    HW2 8067   2.445   3.829   1.886
 2682SOL     OW 8068   2.643   3.988   3.611
 2682SOL    HW1 8069   2.710   3.927   3.654
 2682SOL    HW2 8070   2.570   4.007   3.676
 2683SOL     OW 8071   3.213   4.314   3.295
 2683SOL    HW1 8072   3.241   4.271   3.380
 2683SOL    HW2 8073   3.238   4.410   3.296
 2684SOL     OW 8074   2.784   4.227   2.761
 2684SOL    HW1 8075   2.759   4.218   2.665
 2684SOL    HW2 8076   2.832   4.145   2.792
 2685SOL     OW 8077   2.401   3.788   2.374
 2685SOL    HW1 8078   2.320   3.789   2.432
 2685SOL    HW2 8079   2.404   3.871   2.319
 2686SOL     OW 8080   2.159   3.759   2.033
 2686SOL    HW1 8081   2.208   3.843   2.012
 2686SOL    HW2 8082   2.221   3.694   2.078
 2687SOL     OW 8083   2.797   3.960   2.342
 2687SOL    HW1 8084   2.749   4.001   2.264
 2687SOL    HW2 8085   2.896   3.958   2.323
 2688SOL     OW 8086   2.938   4.407   3.326
 2688SOL    HW1 8087   2.858   4.346   3.329
 2688SOL    HW2 8088   3.019   4.354   3.302
 2689SOL     OW 8089   2.894   4.273   1.878
 2689SOL    HW1 8090   2.853   4.355   1.839
 2689SOL    HW2 8091   2.958   4.299   1.951
 2690SOL     OW 8092   1.940   4.280   3.248
 2690SOL    HW1 8093   2.032   4.279   3.207
 2690SOL    HW2 8094   1.934   4.354   3.315
 2691SOL     OW 8095   2.423   3.946   3.009
 2691SOL    HW1 8096   2.461   3.862   3.046
 2691SOL    HW2 8097   2.335   3.965   3.053
 2692SOL     OW 8098   2.728   4.178   2.504
 2692SOL    HW1 8099   2.696   4.250   2.442
 2692SOL    HW2 8100   2.752   4.097   2.451
 2693SOL     OW 8101   2.879   3.763   2.615
 2693SOL    HW1 8102   2.807   3.768   2.546
 2693SOL    HW2 8103   2.855   3.694   2.684
 2694SOL     OW 8104   3.291   4.897   2.729
 2694SOL    HW1 8105   3.236   4.813   2.722
 2694SOL    HW2 8106   3.317   4.926   2.637
 2695SOL     OW 8107   3.328   4.314   2.854
 2695SOL    HW1 8108   3.298   4.219   2.861
 2695SOL    HW2 8109   3.401   4.330   2.920
 2696SOL     OW 8110   3.719   4.557   2.239
 2696SOL    HW1 8111   3.761   4.493   2.303
 2696SOL    HW2 8112   3.681   4.506   2.161
 2697SOL     OW 8113   3.252   4.299   1.940
 2697SOL    HW1 8114   3.198   4.278   2.021
 2697SOL    HW2 8115   3.343   4.258   1.949
 2698SOL     OW 8116   2.389   3.980   2.190
 2698SOL    HW1 8117   2.416   3.921   2.115
 2698SOL    HW2 8118   2.389   4.075   2.159
 2699SOL     OW 8119   3.500   4.823   2.941
 2699SOL    HW1 8120   3.505   4.904   3.000
 2699SOL    HW2 8121   3.414   4.825   2.890
 2700SOL     OW 8122   2.777   3.813   3.264
 2700SOL    HW1 8123   2.802   3.793   3.169
 2700SOL    HW2 8124   2.849   3.869   3.306
 2701SOL     OW 8125   2.272   4.537   3.113
 2701SOL    HW1 8126   2.358   4.549   3.163
 2701SOL    HW2 8127   2.230   4.450   3.140
 2702SOL     OW 8128   3.136   4.110   3.124
 2702SOL    HW1 8129   3.157   4.184   3.188
 2702SOL    HW2 8130   3.047   4.127   3.081
 2703SOL     OW 8131   2.428   4.261   2.727
 2703SOL    HW1 8132   2.440   4.327   2.653
 2703SOL    HW2 8133   2.474   4.295   2.810
 2704SOL     OW 8134   3.444   4.363   2.334
 2704SOL    HW1 8135   3.413   4.424   2.407
 2704SOL    HW2 8136   3.494   4.415   2.265
 2705SOL     OW 8137   2.264   4.475   3.460
 2705SOL    HW1 8138   2.332   4.530   3.413
 2705SOL    HW2 8139   2.304   4.387   3.487
 2706SOL     OW 8140   3.449   4.503   3.532
 2706SOL    HW1 8141   3.357   4.541   3.527
 2706SOL    HW2 8142   3.509   4.550   3.467
 2707SOL     OW 8143   2.875   3.829   3.632
 2707SOL    HW1 8144   2.881   3.914   3.580
 2707SOL    HW2 8145   2.907   3.753   3.575
 2708SOL     OW 8146   2.366   3.774   3.602
 2708SOL    HW1 8147   2.324   3.717   3.532
 2708SOL    HW2 8148   2.300   3.843   3.634
 2709SOL     OW 8149   2.435   4.594   2.891
 2709SOL    HW1 8150   2.479   4.683   2.882
 2709SOL    HW2 8151   2.372   4.594   2.968
 2710SOL     OW 8152   3.222   4.586   2.907
 2710SOL    HW1 8153   3.147   4.586   2.841
 2710SOL    HW2 8154   3.259   4.494   2.916
 2711SOL     OW 8155   3.071   4.249   2.137
 2711SOL    HW1 8156   3.084   4.165   2.191
 2711SOL    HW2 8157   3.042   4.323   2.197
 2712SOL     OW 8158   2.169   3.937   3.093
 2712SOL    HW1 8159   2.146   3.974   3.183
 2712SOL    HW2 8160   2.139   3.842   3.087
 2713SOL     OW 8161   2.594   4.358   2.926
 2713SOL    HW1 8162   2.653   4.332   2.850
 2713SOL    HW2 8163   2.566   4.454   2.915
 2714SOL     OW 8164   3.590   4.659   3.716
 2714SOL    HW1 8165   3.544   4.652   3.627
 2714SOL    HW2 8166   3.528   4.703   3.782
 2715SOL     OW 8167   2.169   3.787   2.480
 2715SOL    HW1 8168   2.158   3.881   2.513
 2715SOL    HW2 8169   2.164   3.724   2.557
 2716SOL     OW 8170   3.484   4.091   2.236
 2716SOL    HW1 8171   3.486   4.015   2.300
 2716SOL    HW2 8172   3.436   4.168   2.276
 2717SOL     OW 8173   2.885   4.490   2.828
 2717SOL    HW1 8174   2.900   4.511   2.924
 2717SOL    HW2 8175   2.855   4.395   2.819
 2718SOL     OW 8176   2.212   4.622   3.666
 2718SOL    HW1 8177   2.288   4.666   3.714
 2718SOL    HW2 8178   2.247   4.575   3.584
 2719SOL     OW 8179   3.402   3.998   1.987
 2719SOL    HW1 8180   3.341   3.923   2.010
 2719SOL    HW2 8181   3.424   4.050   2.070
 2720SOL     OW 8182   3.165   4.562   1.904
 2720SOL    HW1 8183   3.199   4.469   1.919
 2720SOL    HW2 8184   3.183   4.589   1.809
 2721SOL     OW 8185   2.181   4.534   2.811
 2721SOL    HW1 8186   2.274   4.570   2.816
 2721SOL    HW2 8187   2.175   4.449   2.863
 2722SOL     OW 8188   2.201   4.233   2.868
 2722SOL    HW1 8189   2.149   4.150   2.851
 2722SOL    HW2 8190   2.278   4.238   2.804
 2723SOL     OW 8191   3.000   4.104   3.540
 2723SOL    HW1 8192   2.955   4.167   3.604
 2723SOL    HW2 8193   3.093   4.135   3.523
 2724SOL     OW 8194   3.022   3.931   3.339
 2724SOL    HW1 8195   3.022   3.995   3.416
 2724SOL    HW2 8196   3.050   3.979   3.256
 2725SOL     OW 8197   2.864   4.520   3.100
 2725SOL    HW1 8198   2.905   4.488   3.186
 2725SOL    HW2 8199   2.768   4.493   3.097
 2726SOL     OW 8200   1.902   4.268   2.976
 2726SOL    HW1 8201   1.987   4.235   2.935
 2726SOL    HW2 8202   1.915   4.283   3.074
 2727SOL     OW 8203   2.051   4.244   3.584
 2727SOL    HW1 8204   2.110   4.204   3.514
 2727SOL    HW2 8205   1.993   4.315   3.543
 2728SOL     OW 8206   3.231   4.674   3.522
 2728SOL    HW1 8207   3.270   4.763   3.542
 2728SOL    HW2 8208   3.241   4.654   3.425
 2729SOL     OW 8209   2.677   4.296   2.187
 2729SOL    HW1 8210   2.684   4.207   2.141
 2729SOL    HW2 8211   2.583   4.330   2.179
 2730SOL     OW 8212   3.519   4.328   3.068
 2730SOL    HW1 8213   3.481   4.259   3.130
 2730SOL    HW2 8214   3.601   4.292   3.024
 2731SOL     OW 8215   2.533   4.188   3.131
 2731SOL    HW1 8216   2.499   4.099   3.101
 2731SOL    HW2 8217   2.559   4.242   3.051
 2732SOL     OW 8218   2.335   4.224   2.053
 2732SOL    HW1 8219   2.396   4.304   2.057
 2732SOL    HW2 8220   2.240   4.255   2.060
 2733SOL     OW 8221   2.021   4.861   3.328
 2733SOL    HW1 8222   2.043   4.800   3.404
 2733SOL    HW2 8223   2.031   4.812   3.242
 2734SOL     OW 8224   3.209   4.783   3.096
 2734SOL    HW1 8225   3.233   4.720   3.022
 2734SOL    HW2 8226   3.119   4.823   3.078
 2735SOL     OW 8227   3.164   4.579   2.171
 2735SOL    HW1 8228   3.078   4.548   2.213
 2735SOL    HW2 8229   3.160   4.565   2.072
 2736SOL     OW 8230   3.588   3.859   2.385
 2736SOL    HW1 8231   3.661   3.842   2.318
 2736SOL    HW2 8232   3.557   3.772   2.423
 2737SOL     OW 8233   3.142   4.651   2.534
 2737SOL    HW1 8234   3.202   4.570   2.536
 2737SOL    HW2 8235   3.182   4.720   2.474
 2738SOL     OW 8236   3.703   3.899   2.825
 2738SOL    HW1 8237   3.742   3.814   2.789
 2738SOL    HW2 8238   3.605   3.901   2.806
 2739SOL     OW 8239   2.125   4.050   2.582
 2739SOL    HW1 8240   2.046   4.101   2.548
 2739SOL    HW2 8241   2.116   4.035   2.680
 2740SOL     OW 8242   2.778   4.634   2.153
 2740SOL    HW1 8243   2.841   4.672   2.085
 2740SOL    HW2 8244   2.818   4.551   2.192
 2741SOL     OW 8245   2.876   3.960   2.833
 2741SOL    HW1 8246   2.868   3.924   2.740
 2741SOL    HW2 8247   2.874   3.884   2.898
 2742SOL     OW 8248   3.571   4.109   3.243
 2742SOL    HW1 8249   3.644   4.178   3.247
 2742SOL    HW2 8250   3.599   4.034   3.184
 2743SOL     OW 8251   1.967   4.737   3.588
 2743SOL    HW1 8252   1.890   4.704   3.642
 2743SOL    HW2 8253   2.052   4.707   3.630
 2744SOL     OW 8254   2.534   3.927   3.351
 2744SOL    HW1 8255   2.624   3.911   3.311
 2744SOL    HW2 8256   2.542   3.932   3.450
 2745SOL     OW 8257   1.937   4.069   1.895
 2745SOL    HW1 8258   1.845   4.041   1.866
 2745SOL    HW2 8259   1.968   4.146   1.839
 2746SOL     OW 8260   3.302   4.580   3.260
 2746SOL    HW1 8261   3.245   4.632   3.197
 2746SOL    HW2 8262   3.398   4.592   3.236
 2747SOL     OW 8263   1.934   3.890   2.180
 2747SOL    HW1 8264   1.917   3.973   2.126
 2747SOL    HW2 8265   2.024   3.853   2.158
 2748SOL     OW 8266   3.045   5.059   1.981
 2748SOL    HW1 8267   2.946   5.048   1.983
 2748SOL    HW2 8268   3.079   5.074   2.074
 2749SOL     OW 8269   2.475   4.566   3.293
 2749SOL    HW1 8270   2.531   4.647   3.276
 2749SOL    HW2 8271   2.534   4.486   3.296
 2750SOL     OW 8272   2.578   4.289   3.570
 2750SOL    HW1 8273   2.597   4.354   3.644
 2750SOL    HW2 8274   2.638   4.209   3.579
 2751SOL     OW 8275   3.536   4.607   3.116
 2751SOL    HW1 8276   3.509   4.518   3.079
 2751SOL    HW2 8277   3.537   4.675   3.043
 2752SOL     OW 8278   3.087   4.049   2.311
 2752SOL    HW1 8279   3.152   3.975   2.300
 2752SOL    HW2 8280   3.107   4.099   2.395
 2753SOL     OW 8281   2.456   4.469   2.514
 2753SOL    HW1 8282   2.506   4.554   2.495
 2753SOL    HW2 8283   2.368   4.471   2.466
 2754SOL     OW 8284   3.639   4.066   3.504
 2754SOL    HW1 8285   3.622   4.097   3.410
 2754SOL    HW2 8286   3.555   4.029   3.542
 2755SOL     OW 8287   3.592   4.658   3.379
 2755SOL    HW1 8288   3.630   4.749   3.394
 2755SOL    HW2 8289   3.584   4.641   3.280
 2756SOL     OW 8290   2.721   4.680   2.723
 2756SOL    HW1 8291   2.775   4.611   2.771
 2756SOL    HW2 8292   2.689   4.749   2.789
 2757SOL     OW 8293   2.945   4.708   1.949
 2757SOL    HW1 8294   2.922   4.761   1.867
 2757SOL    HW2 8295   3.026   4.652   1.930
 2758SOL     OW 8296   3.686   3.916   3.089
 2758SOL    HW1 8297   3.682   3.826   3.133
 2758SOL    HW2 8298   3.689   3.905   2.990
 2759SOL     OW 8299   2.290   4.148   2.382
 2759SOL    HW1 8300   2.320   4.076   2.320
 2759SOL    HW2 8301   2.251   4.108   2.465
 2760SOL     OW 8302   2.179   4.271   3.142
 2760SOL    HW1 8303   2.217   4.212   3.214
 2760SOL    HW2 8304   2.219   4.245   3.054
 2761SOL     OW 8305   3.286   3.938   2.974
 2761SOL    HW1 8306   3.338   3.873   3.029
 2761SOL    HW2 8307   3.237   4.001   3.035
 2762SOL     OW 8308   2.863   3.758   3.016
 2762SOL    HW1 8309   2.800   3.686   2.985
 2762SOL    HW2 8310   2.956   3.722   3.016
 2763SOL     OW 8311   3.214   3.776   2.030
 2763SOL    HW1 8312   3.249   3.735   1.946
 2763SOL    HW2 8313   3.124   3.738   2.050
 2764SOL     OW 8314   3.162   4.177   2.553
 2764SOL    HW1 8315   3.103   4.257   2.557
 2764SOL    HW2 8316   3.177   4.142   2.646
 2765SOL     OW 8317   3.455   3.945   2.744
 2765SOL    HW1 8318   3.371   3.944   2.798
 2765SOL    HW2 8319   3.457   4.028   2.688
 2766SOL     OW 8320   1.901   4.801   2.162
 2766SOL    HW1 8321   2.000   4.790   2.153
 2766SOL    HW2 8322   1.861   4.715   2.194
 2767SOL     OW 8323   2.092   4.352   3.837
 2767SOL    HW1 8324   1.999   4.350   3.874
 2767SOL    HW2 8325   2.093   4.313   3.745
 2768SOL     OW 8326   2.087   3.999   4.720
 2768SOL    HW1 8327   2.122   3.982   4.812
 2768SOL    HW2 8328   1.999   3.954   4.708
 2769SOL     OW 8329   1.881   4.092   4.371
 2769SOL    HW1 8330   1.799   4.135   4.410
 2769SOL    HW2 8331   1.853   4.019   4.308
 2770SOL     OW 8332   2.997   4.427   4.441
 2770SOL    HW1 8333   3.054   4.505   4.416
 2770SOL    HW2 8334   2.937   4.453   4.517
 2771SOL     OW 8335   3.617   4.331   3.955
 2771SOL    HW1 8336   3.605   4.318   3.856
 2771SOL    HW2 8337   3.587   4.250   4.004
 2772SOL     OW 8338   2.547   4.736   4.389
 2772SOL    HW1 8339   2.616   4.720   4.459
 2772SOL    HW2 8340   2.474   4.793   4.427
 2773SOL     OW 8341   3.465   4.171   4.461
 2773SOL    HW1 8342   3.391   4.217   4.411
 2773SOL    HW2 8343   3.516   4.239   4.514
 2774SOL     OW 8344   2.102   4.815   4.610
 2774SOL    HW1 8345   2.116   4.731   4.662
 2774SOL    HW2 8346   2.047   4.879   4.665
 2775SOL     OW 8347   2.468   4.688   3.847
 2775SOL    HW1 8348   2.475   4.772   3.793
 2775SOL    HW2 8349   2.514   4.701   3.935
 2776SOL     OW 8350   1.984   4.367   4.287
 2776SOL    HW1 8351   1.939   4.279   4.304
 2776SOL    HW2 8352   1.983   4.421   4.371
 2777SOL     OW 8353   3.551   4.646   4.336
 2777SOL    HW1 8354   3.646   4.617   4.344
 2777SOL    HW2 8355   3.543   4.711   4.261
 2778SOL     OW 8356   2.671   3.728   4.226
 2778SOL    HW1 8357   2.711   3.819   4.217
 2778SOL    HW2 8358   2.571   3.736   4.232
 2779SOL     OW 8359   2.059   4.700   4.988
 2779SOL    HW1 8360   2.148   4.655   4.974
 2779SOL    HW2 8361   1.986   4.635   4.969
 2780SOL     OW 8362   3.387   4.723   3.914
 2780SOL    HW1 8363   3.324   4.647   3.927
 2780SOL    HW2 8364   3.435   4.741   4.000
 2781SOL     OW 8365   2.460   4.453   3.994
 2781SOL    HW1 8366   2.484   4.522   3.926
 2781SOL    HW2 8367   2.382   4.486   4.048
 2782SOL     OW 8368   3.143   4.069   4.668
 2782SOL    HW1 8369   3.057   4.019   4.655
 2782SOL    HW2 8370   3.205   4.015   4.724
 2783SOL     OW 8371   2.903   4.425   4.153
 2783SOL    HW1 8372   2.929   4.421   4.249
 2783SOL    HW2 8373   2.818   4.374   4.139
 2784SOL     OW 8374   1.938   4.535   4.513
 2784SOL    HW1 8375   2.037   4.523   4.522
 2784SOL    HW2 8376   1.914   4.630   4.534
 2785SOL     OW 8377   2.727   4.072   3.919
 2785SOL    HW1 8378   2.786   4.135   3.870
 2785SOL    HW2 8379   2.746   3.978   3.890
 2786SOL     OW 8380   2.412   3.920   4.609
 2786SOL    HW1 8381   2.407   3.915   4.709
 2786SOL    HW2 8382   2.414   4.016   4.580
 2787SOL     OW 8383   3.657   4.790   4.597
 2787SOL    HW1 8384   3.595   4.775   4.521
 2787SOL    HW2 8385   3.605   4.801   4.682
 2788SOL     OW 8386   3.320   4.459   4.452
 2788SOL    HW1 8387   3.315   4.394   4.527
 2788SOL    HW2 8388   3.400   4.518   4.465
 2789SOL     OW 8389   3.262   3.831   4.150
 2789SOL    HW1 8390   3.238   3.794   4.060
 2789SOL    HW2 8391   3.361   3.847   4.154
 2790SOL     OW 8392   2.244   4.424   4.204
 2790SOL    HW1 8393   2.289   4.334   4.201
 2790SOL    HW2 8394   2.150   4.413   4.237
 2791SOL     OW 8395   2.476   3.846   3.841
 2791SOL    HW1 8396   2.574   3.824   3.848
 2791SOL    HW2 8397   2.445   3.829   3.748
 2792SOL     OW 8398   2.784   4.227   4.623
 2792SOL    HW1 8399   2.759   4.218   4.527
 2792SOL    HW2 8400   2.832   4.145   4.654
 2793SOL     OW 8401   2.401   3.788   4.236
 2793SOL    HW1 8402   2.320   3.789   4.294
 2793SOL    HW2 8403   2.404   3.871   4.181
 2794SOL     OW 8404   2.159   3.759   3.895
 2794SOL    HW1 8405   2.208   3.843   3.874
 2794SOL    HW2 8406   2.221   3.694   3.940
 2795SOL     OW 8407   2.797   3.960   4.204
 2795SOL    HW1 8408   2.749   4.001   4.126
 2795SOL    HW2 8409   2.896   3.958   4.185
 2796SOL     OW 8410   2.894   4.273   3.740
 2796SOL    HW1 8411   2.853   4.355   3.701
 2796SOL    HW2 8412   2.958   4.299   3.813
 2797SOL     OW 8413   2.728   4.178   4.366
 2797SOL    HW1 8414   2.696   4.250   4.304
 2797SOL    HW2 8415   2.752   4.097   4.313
 2798SOL     OW 8416   2.879   3.763   4.477
 2798SOL    HW1 8417   2.807   3.768   4.408
 2798SOL    HW2 8418   2.855   3.694   4.546
 2799SOL     OW 8419   3.291   4.897   4.591
 2799SOL    HW1 8420   3.236   4.813   4.584
 2799SOL    HW2 8421   3.317   4.926   4.499
 2800SOL     OW 8422   3.328   4.314   4.716
 2800SOL    HW1 8423   3.298   4.219   4.723
 2800SOL    HW2 8424   3.401   4.330   4.782
 2801SOL     OW 8425   3.719   4.557   4.101
 2801SOL    HW1 8426   3.761   4.493   4.165
 2801SOL    HW2 8427   3.681   4.506   4.023
 2802SOL     OW 8428   3.252   4.299   3.802
 2802SOL    HW1 8429   3.198   4.278   3.883
 2802SOL    HW2 8430   3.343   4.258   3.811
 2803SOL     OW 8431   2.389   3.980   4.052
 2803SOL    HW1 8432   2.416   3.921   3.977
 2803SOL    HW2 8433   2.389   4.075   4.021
 2804SOL     OW 8434   3.500   4.823   4.803
 2804SOL    HW1 8435   3.505   4.904   4.862
 2804SOL    HW2 8436   3.414   4.825   4.752
 2805SOL     OW 8437   2.428   4.261   4.589
 2805SOL    HW1 8438   2.440   4.327   4.515
 2805SOL    HW2 8439   2.474   4.295   4.672
 2806SOL     OW 8440   3.444   4.363   4.196
 2806SOL    HW1 8441   3.413   4.424   4.269
 2806SOL    HW2 8442   3.494   4.415   4.127
 2807SOL     OW 8443   2.435   4.594   4.753
 2807SOL    HW1 8444   2.479   4.683   4.744
 2807SOL    HW2 8445   2.372   4.594   4.830
 2808SOL     OW 8446   3.071   4.249   3.999
 2808SOL    HW1 8447   3.084   4.165   4.053
 2808SOL    HW2 8448   3.042   4.323   4.059
 2809SOL     OW 8449   2.169   3.937   4.955
 2809SOL    HW1 8450   2.146   3.974   5.045
 2809SOL    HW2 8451   2.139   3.842   4.949
 2810SOL     OW 8452   2.594   4.358   4.788
 2810SOL    HW1 8453   2.653   4.332   4.712
 2810SOL    HW2 8454   2.566   4.454   4.777
 2811SOL     OW 8455   2.169   3.787   4.342
 2811SOL    HW1 8456   2.158   3.881   4.375
 2811SOL    HW2 8457   2.164   3.724   4.419
 2812SOL     OW 8458   3.484   4.091   4.098
 2812SOL    HW1 8459   3.486   4.015   4.162
 2812SOL    HW2 8460   3.436   4.168   4.138
 2813SOL     OW 8461   2.885   4.490   4.690
 2813SOL    HW1 8462   2.900   4.511   4.786
 2813SOL    HW2 8463   2.855   4.395   4.681
 2814SOL     OW 8464   3.402   3.998   3.849
 2814SOL    HW1 8465   3.341   3.923   3.872
 2814SOL    HW2 8466   3.424   4.050   3.932
 2815SOL     OW 8467   3.165   4.562   3.766
 2815SOL    HW1 8468   3.199   4.469   3.781
 2815SOL    HW2 8469   3.183   4.589   3.671
 2816SOL     OW 8470   2.181   4.534   4.673
 2816SOL    HW1 8471   2.274   4.570   4.678
 2816SOL    HW2 8472   2.175   4.449   4.725
 2817SOL     OW 8473   2.201   4.233   4.730
 2817SOL    HW1 8474   2.149   4.150   4.713
 2817SOL    HW2 8475   2.278   4.238   4.666
 2818SOL     OW 8476   2.864   4.520   4.962
 2818SOL    HW1 8477   2.905   4.488   5.048
 2818SOL    HW2 8478   2.768   4.493   4.959
 2819SOL     OW 8479   2.677   4.296   4.049
 2819SOL    HW1 8480   2.684   4.207   4.003
 2819SOL    HW2 8481   2.583   4.330   4.041
 2820SOL     OW 8482   2.533   4.188   4.993
 2820SOL    HW1 8483   2.499   4.099   4.963
 2820SOL    HW2 8484   2.559   4.242   4.913
 2821SOL     OW 8485   2.335   4.224   3.915
 2821SOL    HW1 8486   2.396   4.304   3.919
 2821SOL    HW2 8487   2.240   4.255   3.922
 2822SOL     OW 8488   3.164   4.579   4.033
 2822SOL    HW1 8489   3.078   4.548   4.075
 2822SOL    HW2 8490   3.160   4.565   3.934
 2823SOL     OW 8491   3.588   3.859   4.247
 2823SOL    HW1 8492   3.661   3.842   4.180
 2823SOL    HW2 8493   3.557   3.772   4.285
 2824SOL     OW 8494   3.142   4.651   4.396
 2824SOL    HW1 8495   3.202   4.570   4.398
 2824SOL    HW2 8496   3.182   4.720   4.336
 2825SOL     OW 8497   3.703   3.899   4.687
 2825SOL    HW1 8498   3.742   3.814   4.651
 2825SOL    HW2 8499   3.605   3.901   4.668
 2826SOL     OW 8500   2.125   4.050   4.444
 2826SOL    HW1 8501   2.046   4.101   4.410
 2826SOL    HW2 8502   2.116   4.035   4.542
 2827SOL     OW 8503   2.778   4.634   4.015
 2827SOL    HW1 8504   2.841   4.672   3.947
 2827SOL    HW2 8505   2.818   4.551   4.054
 2828SOL     OW 8506   2.876   3.960   4.695
 2828SOL    HW1 8507   2.868   3.924   4.602
 2828SOL    HW2 8508   2.874   3.884   4.760
 2829SOL     OW 8509   1.937   4.069   3.757
 2829SOL    HW1 8510   1.845   4.041   3.728
 2829SOL    HW2 8511   1.968   4.146   3.701
 2830SOL     OW 8512   1.934   3.890   4.042
 2830SOL    HW1 8513   1.917   3.973   3.988
 2830SOL    HW2 8514   2.024   3.853   4.020
 2831SOL     OW 8515   3.045   5.059   3.843
 2831SOL    HW1 8516   2.946   5.048   3.845
 2831SOL    HW2 8517   3.079   5.074   3.936
 2832SOL     OW 8518   3.536   4.607   4.978
 2832SOL    HW1 8519   3.509   4.518   4.941
 2832SOL    HW2 8520   3.537   4.675   4.905
 2833SOL     OW 8521   3.087   4.049   4.173
 2833SOL    HW1 8522   3.152   3.975   4.162
 2833SOL    HW2 8523   3.107   4.099   4.257
 2834SOL     OW 8524   2.456   4.469   4.376
 2834SOL    HW1 8525   2.506   4.554   4.357
 2834SOL    HW2 8526   2.368   4.471   4.328
 2835SOL     OW 8527   2.721   4.680   4.585
 2835SOL    HW1 8528   2.775   4.611   4.633
 2835SOL    HW2 8529   2.689   4.749   4.651
 2836SOL     OW 8530   2.945   4.708   3.811
 2836SOL    HW1 8531   2.922   4.761   3.729
 2836SOL    HW2 8532   3.026   4.652   3.792
 2837SOL     OW 8533   3.686   3.916   4.951
 2837SOL    HW1 8534   3.682   3.826   4.995
 2837SOL    HW2 8535   3.689   3.905   4.852
 2838SOL     OW 8536   2.290   4.148   4.244
 2838SOL    HW1 8537   2.320   4.076   4.182
 2838SOL    HW2 8538   2.251   4.108   4.327
 2839SOL     OW 8539   3.214   3.776   3.892
 2839SOL    HW1 8540   3.249   3.735   3.808
 2839SOL    HW2 8541   3.124   3.738   3.912
 2840SOL     OW 8542   3.162   4.177   4.415
 2840SOL    HW1 8543   3.103   4.257   4.419
 2840SOL    HW2 8544   3.177   4.142   4.508
 2841SOL     OW 8545   3.455   3.945   4.606
 2841SOL    HW1 8546   3.371   3.944   4.660
 2841SOL    HW2 8547   3.457   4.028   4.550
 2842SOL     OW 8548   1.901   4.801   4.024
 2842SOL    HW1 8549   2.000   4.790   4.015
 2842SOL    HW2 8550   1.861   4.715   4.056
 2843SOL     OW 8551   3.954   0.628   0.113
 2843SOL    HW1 8552   3.861   0.626   0.150
 2843SOL    HW2 8553   3.955   0.589   0.021
 2844SOL     OW 8554   3.949   0.275   0.996
 2844SOL    HW1 8555   3.984   0.258   1.088
 2844SOL    HW2 8556   3.861   0.230   0.984
 2845SOL     OW 8557   3.743   0.368   0.647
 2845SOL    HW1 8558   3.661   0.411   0.686
 2845SOL    HW2 8559   3.715   0.295   0.584
 2846SOL     OW 8560   4.293   1.275   1.165
 2846SOL    HW1 8561   4.200   1.268   1.128
 2846SOL    HW2 8562   4.304   1.364   1.209
 2847SOL     OW 8563   4.492   1.144   1.023
 2847SOL    HW1 8564   4.414   1.161   1.083
 2847SOL    HW2 8565   4.526   1.231   0.987
 2848SOL     OW 8566   4.574   0.798   1.823
 2848SOL    HW1 8567   4.570   0.874   1.888
 2848SOL    HW2 8568   4.596   0.834   1.732
 2849SOL     OW 8569   4.409   1.012   0.665
 2849SOL    HW1 8570   4.478   0.996   0.735
 2849SOL    HW2 8571   4.336   1.069   0.703
 2850SOL     OW 8572   4.410   1.161   1.803
 2850SOL    HW1 8573   4.470   1.240   1.817
 2850SOL    HW2 8574   4.324   1.192   1.762
 2851SOL     OW 8575   4.059   1.435   1.061
 2851SOL    HW1 8576   3.981   1.404   1.008
 2851SOL    HW2 8577   4.117   1.493   1.004
 2852SOL     OW 8578   4.162   0.392   1.499
 2852SOL    HW1 8579   4.244   0.336   1.508
 2852SOL    HW2 8580   4.081   0.334   1.503
 2853SOL     OW 8581   3.955   1.713   0.483
 2853SOL    HW1 8582   3.989   1.790   0.537
 2853SOL    HW2 8583   3.999   1.713   0.393
 2854SOL     OW 8584   4.851   1.341   1.690
 2854SOL    HW1 8585   4.898   1.341   1.778
 2854SOL    HW2 8586   4.803   1.254   1.679
 2855SOL     OW 8587   3.954   1.434   0.538
 2855SOL    HW1 8588   3.928   1.530   0.538
 2855SOL    HW2 8589   3.883   1.380   0.583
 2856SOL     OW 8590   3.964   1.091   0.886
 2856SOL    HW1 8591   3.978   1.007   0.938
 2856SOL    HW2 8592   3.909   1.155   0.941
 2857SOL     OW 8593   4.344   1.786   1.439
 2857SOL    HW1 8594   4.252   1.769   1.474
 2857SOL    HW2 8595   4.372   1.878   1.465
 2858SOL     OW 8596   4.330   0.964   0.123
 2858SOL    HW1 8597   4.337   1.048   0.069
 2858SOL    HW2 8598   4.376   0.977   0.211
 2859SOL     OW 8599   3.846   0.643   0.563
 2859SOL    HW1 8600   3.801   0.555   0.580
 2859SOL    HW2 8601   3.845   0.697   0.647
 2860SOL     OW 8602   3.751   1.596   0.117
 2860SOL    HW1 8603   3.732   1.500   0.138
 2860SOL    HW2 8604   3.718   1.654   0.192
 2861SOL     OW 8605   3.837   0.737   1.597
 2861SOL    HW1 8606   3.925   0.724   1.642
 2861SOL    HW2 8607   3.824   0.834   1.575
 2862SOL     OW 8608   4.337   1.365   0.726
 2862SOL    HW1 8609   4.288   1.278   0.735
 2862SOL    HW2 8610   4.314   1.408   0.639
 2863SOL     OW 8611   4.533   0.004   0.502
 2863SOL    HW1 8612   4.573   0.095   0.493
 2863SOL    HW2 8613   4.433   0.012   0.508
 2864SOL     OW 8614   3.921   0.976   1.264
 2864SOL    HW1 8615   4.010   0.931   1.250
 2864SOL    HW2 8616   3.848   0.911   1.245
 2865SOL     OW 8617   4.041   0.251   1.801
 2865SOL    HW1 8618   4.112   0.322   1.807
 2865SOL    HW2 8619   3.953   0.290   1.829
 2866SOL     OW 8620   4.322   0.729   0.270
 2866SOL    HW1 8621   4.346   0.798   0.202
 2866SOL    HW2 8622   4.244   0.762   0.324
 2867SOL     OW 8623   4.531   0.605   1.465
 2867SOL    HW1 8624   4.484   0.602   1.554
 2867SOL    HW2 8625   4.480   0.550   1.399
 2868SOL     OW 8626   4.697   0.890   1.572
 2868SOL    HW1 8627   4.743   0.806   1.543
 2868SOL    HW2 8628   4.641   0.924   1.497
 2869SOL     OW 8629   4.715   0.410   1.242
 2869SOL    HW1 8630   4.638   0.444   1.296
 2869SOL    HW2 8631   4.681   0.359   1.163
 2870SOL     OW 8632   4.765   0.701   0.429
 2870SOL    HW1 8633   4.791   0.697   0.525
 2870SOL    HW2 8634   4.680   0.650   0.415
 2871SOL     OW 8635   3.800   0.811   0.789
 2871SOL    HW1 8636   3.899   0.799   0.798
 2871SOL    HW2 8637   3.776   0.906   0.810
 2872SOL     OW 8638   3.854   1.821   1.571
 2872SOL    HW1 8639   3.844   1.806   1.670
 2872SOL    HW2 8640   3.768   1.857   1.535
 2873SOL     OW 8641   4.589   0.348   0.195
 2873SOL    HW1 8642   4.648   0.411   0.146
 2873SOL    HW2 8643   4.608   0.254   0.166
 2874SOL     OW 8644   4.274   0.196   0.885
 2874SOL    HW1 8645   4.269   0.191   0.985
 2874SOL    HW2 8646   4.276   0.292   0.856
 2875SOL     OW 8647   4.732   1.456   0.477
 2875SOL    HW1 8648   4.686   1.528   0.425
 2875SOL    HW2 8649   4.728   1.476   0.575
 2876SOL     OW 8650   4.075   1.801   0.853
 2876SOL    HW1 8651   4.125   1.715   0.859
 2876SOL    HW2 8652   4.140   1.878   0.850
 2877SOL     OW 8653   4.045   0.943   0.242
 2877SOL    HW1 8654   4.127   0.982   0.200
 2877SOL    HW2 8655   4.018   0.861   0.193
 2878SOL     OW 8656   4.185   1.266   1.727
 2878SOL    HW1 8657   4.135   1.267   1.641
 2878SOL    HW2 8658   4.122   1.248   1.803
 2879SOL     OW 8659   3.926   0.285   1.498
 2879SOL    HW1 8660   3.846   0.345   1.485
 2879SOL    HW2 8661   3.916   0.236   1.584
 2880SOL     OW 8662   4.188   1.743   0.323
 2880SOL    HW1 8663   4.221   1.782   0.409
 2880SOL    HW2 8664   4.264   1.736   0.258
 2881SOL     OW 8665   3.973   1.785   1.241
 2881SOL    HW1 8666   4.030   1.720   1.291
 2881SOL    HW2 8667   3.957   1.752   1.148
 2882SOL     OW 8668   4.664   1.698   0.904
 2882SOL    HW1 8669   4.744   1.641   0.925
 2882SOL    HW2 8670   4.615   1.658   0.827
 2883SOL     OW 8671   4.106   0.700   0.480
 2883SOL    HW1 8672   4.151   0.610   0.477
 2883SOL    HW2 8673   4.012   0.689   0.513
 2884SOL     OW 8674   4.338   0.122   0.117
 2884SOL    HW1 8675   4.436   0.100   0.124
 2884SOL    HW2 8676   4.307   0.105   0.024
 2885SOL     OW 8677   4.505   0.264   1.749
 2885SOL    HW1 8678   4.572   0.203   1.792
 2885SOL    HW2 8679   4.432   0.283   1.814
 2886SOL     OW 8680   4.612   1.514   1.195
 2886SOL    HW1 8681   4.589   1.489   1.101
 2886SOL    HW2 8682   4.673   1.445   1.234
 2887SOL     OW 8683   4.527   1.402   0.924
 2887SOL    HW1 8684   4.617   1.416   0.882
 2887SOL    HW2 8685   4.456   1.404   0.853
 2888SOL     OW 8686   4.646   0.503   0.899
 2888SOL    HW1 8687   4.621   0.494   0.803
 2888SOL    HW2 8688   4.694   0.421   0.930
 2889SOL     OW 8689   4.263   0.064   0.512
 2889SOL    HW1 8690   4.182   0.065   0.570
 2889SOL    HW2 8691   4.266   0.147   0.457
 2890SOL     OW 8692   5.158   1.188   0.041
 2890SOL    HW1 8693   5.190   1.112   0.098
 2890SOL    HW2 8694   5.066   1.215   0.071
 2891SOL     OW 8695   4.021   0.035   0.171
 2891SOL    HW1 8696   4.070   0.119   0.150
 2891SOL    HW2 8697   4.083  -0.030   0.216
 2892SOL     OW 8698   4.659   0.236   0.480
 2892SOL    HW1 8699   4.611   0.277   0.402
 2892SOL    HW2 8700   4.758   0.234   0.461
 2893SOL     OW 8701   4.951   1.570   0.793
 2893SOL    HW1 8702   4.972   1.644   0.728
 2893SOL    HW2 8703   5.019   1.570   0.866
 2894SOL     OW 8704   4.183   1.152   0.741
 2894SOL    HW1 8705   4.112   1.125   0.806
 2894SOL    HW2 8706   4.157   1.124   0.648
 2895SOL     OW 8707   4.756   0.549   0.016
 2895SOL    HW1 8708   4.715   0.631  -0.023
 2895SOL    HW2 8709   4.820   0.575   0.089
 2896SOL     OW 8710   3.802   0.556   1.386
 2896SOL    HW1 8711   3.894   0.555   1.345
 2896SOL    HW2 8712   3.796   0.630   1.453
 2897SOL     OW 8713   4.285   0.222   1.147
 2897SOL    HW1 8714   4.323   0.138   1.184
 2897SOL    HW2 8715   4.197   0.241   1.191
 2898SOL     OW 8716   4.590   0.454   0.642
 2898SOL    HW1 8717   4.558   0.526   0.580
 2898SOL    HW2 8718   4.614   0.373   0.589
 2899SOL     OW 8719   4.741   0.039   0.753
 2899SOL    HW1 8720   4.669   0.044   0.684
 2899SOL    HW2 8721   4.717  -0.030   0.822
 2900SOL     OW 8722   4.212   1.385   0.174
 2900SOL    HW1 8723   4.125   1.370   0.221
 2900SOL    HW2 8724   4.195   1.411   0.079
 2901SOL     OW 8725   4.251   0.256   0.328
 2901SOL    HW1 8726   4.278   0.197   0.253
 2901SOL    HW2 8727   4.251   0.351   0.297
 2902SOL     OW 8728   4.639   0.089   1.402
 2902SOL    HW1 8729   4.664   0.069   1.307
 2902SOL    HW2 8730   4.711   0.145   1.444
 2903SOL     OW 8731   4.704   1.116   1.719
 2903SOL    HW1 8732   4.605   1.122   1.729
 2903SOL    HW2 8733   4.727   1.036   1.663
 2904SOL     OW 8734   4.429   1.050   0.368
 2904SOL    HW1 8735   4.415   1.057   0.467
 2904SOL    HW2 8736   4.513   0.999   0.350
 2905SOL     OW 8737   4.134   0.813   1.251
 2905SOL    HW1 8738   4.220   0.825   1.301
 2905SOL    HW2 8739   4.092   0.726   1.278
 2906SOL     OW 8740   3.788   1.564   1.331
 2906SOL    HW1 8741   3.742   1.646   1.297
 2906SOL    HW2 8742   3.886   1.583   1.340
 2907SOL     OW 8743   4.091   1.100   0.501
 2907SOL    HW1 8744   4.084   1.183   0.445
 2907SOL    HW2 8745   4.095   1.020   0.441
 2908SOL     OW 8746   4.290   0.537   0.865
 2908SOL    HW1 8747   4.302   0.603   0.791
 2908SOL    HW2 8748   4.336   0.571   0.948
 2909SOL     OW 8749   4.078   1.510   1.329
 2909SOL    HW1 8750   4.057   1.466   1.242
 2909SOL    HW2 8751   4.175   1.536   1.332
 2910SOL     OW 8752   4.126   0.751   1.598
 2910SOL    HW1 8753   4.194   0.806   1.551
 2910SOL    HW2 8754   4.166   0.663   1.625
 2911SOL     OW 8755   4.737   0.105   1.770
 2911SOL    HW1 8756   4.743   0.190   1.718
 2911SOL    HW2 8757   4.769   0.029   1.713
 2912SOL     OW 8758   4.228   0.050   1.740
 2912SOL    HW1 8759   4.186  -0.007   1.670
 2912SOL    HW2 8760   4.162   0.119   1.772
 2913SOL     OW 8761   4.297   0.870   1.029
 2913SOL    HW1 8762   4.341   0.959   1.020
 2913SOL    HW2 8763   4.234   0.870   1.106
 2914SOL     OW 8764   4.933   0.525   0.275
 2914SOL    HW1 8765   4.946   0.441   0.329
 2914SOL    HW2 8766   4.904   0.599   0.335
 2915SOL     OW 8767   4.031   0.213   1.231
 2915SOL    HW1 8768   4.008   0.250   1.321
 2915SOL    HW2 8769   4.001   0.118   1.225
 2916SOL     OW 8770   3.761   1.310   1.282
 2916SOL    HW1 8771   3.814   1.261   1.350
 2916SOL    HW2 8772   3.783   1.408   1.287
 2917SOL     OW 8773   4.456   0.634   1.064
 2917SOL    HW1 8774   4.515   0.608   0.988
 2917SOL    HW2 8775   4.428   0.730   1.053
 2918SOL     OW 8776   4.031   0.063   0.618
 2918SOL    HW1 8777   4.020   0.157   0.651
 2918SOL    HW2 8778   4.026   0.000   0.695
 2919SOL     OW 8779   4.747   0.766   0.966
 2919SOL    HW1 8780   4.762   0.787   1.062
 2919SOL    HW2 8781   4.717   0.671   0.957
 2920SOL     OW 8782   4.704   1.573   1.700
 2920SOL    HW1 8783   4.684   1.617   1.612
 2920SOL    HW2 8784   4.743   1.482   1.684
 2921SOL     OW 8785   4.074   0.898   1.804
 2921SOL    HW1 8786   4.150   0.942   1.852
 2921SOL    HW2 8787   4.109   0.851   1.722
 2922SOL     OW 8788   4.792   1.333   0.849
 2922SOL    HW1 8789   4.799   1.249   0.794
 2922SOL    HW2 8790   4.854   1.402   0.813
 2923SOL     OW 8791   4.043   0.810   0.949
 2923SOL    HW1 8792   4.136   0.846   0.954
 2923SOL    HW2 8793   4.037   0.725   1.001
 2924SOL     OW 8794   4.063   0.509   1.006
 2924SOL    HW1 8795   4.011   0.426   0.989
 2924SOL    HW2 8796   4.140   0.514   0.942
 2925SOL     OW 8797   3.732   1.326   0.200
 2925SOL    HW1 8798   3.639   1.347   0.169
 2925SOL    HW2 8799   3.742   1.227   0.213
 2926SOL     OW 8800   3.812   1.801   0.927
 2926SOL    HW1 8801   3.770   1.715   0.900
 2926SOL    HW2 8802   3.906   1.804   0.893
 2927SOL     OW 8803   4.228   1.568   0.910
 2927SOL    HW1 8804   4.294   1.642   0.919
 2927SOL    HW2 8805   4.272   1.489   0.868
 2928SOL     OW 8806   4.726   0.796   1.238
 2928SOL    HW1 8807   4.767   0.764   1.324
 2928SOL    HW2 8808   4.630   0.769   1.235
 2929SOL     OW 8809   3.764   0.544   1.114
 2929SOL    HW1 8810   3.849   0.511   1.073
 2929SOL    HW2 8811   3.777   0.559   1.212
 2930SOL     OW 8812   3.913   0.520   1.722
 2930SOL    HW1 8813   3.972   0.480   1.652
 2930SOL    HW2 8814   3.855   0.591   1.681
 2931SOL     OW 8815   4.539   0.572   0.325
 2931SOL    HW1 8816   4.546   0.483   0.279
 2931SOL    HW2 8817   4.445   0.606   0.317
 2932SOL     OW 8818   3.976   1.564   1.744
 2932SOL    HW1 8819   3.946   1.621   1.820
 2932SOL    HW2 8820   3.969   1.467   1.770
 2933SOL     OW 8821   4.395   0.464   1.269
 2933SOL    HW1 8822   4.361   0.375   1.239
 2933SOL    HW2 8823   4.421   0.518   1.189
 2934SOL     OW 8824   4.654   1.678   1.465
 2934SOL    HW1 8825   4.630   1.660   1.370
 2934SOL    HW2 8826   4.684   1.772   1.475
 2935SOL     OW 8827   4.197   0.500   0.191
 2935SOL    HW1 8828   4.258   0.580   0.195
 2935SOL    HW2 8829   4.102   0.531   0.198
 2936SOL     OW 8830   3.883   1.137   1.466
 2936SOL    HW1 8831   3.905   1.076   1.542
 2936SOL    HW2 8832   3.893   1.088   1.380
 2937SOL     OW 8833   3.807   1.258   1.022
 2937SOL    HW1 8834   3.802   1.257   1.122
 2937SOL    HW2 8835   3.724   1.217   0.984
 2938SOL     OW 8836   4.412   1.662   1.716
 2938SOL    HW1 8837   4.356   1.743   1.725
 2938SOL    HW2 8838   4.464   1.666   1.630
 2939SOL     OW 8839   4.627   0.086   0.133
 2939SOL    HW1 8840   4.678   0.087   0.047
 2939SOL    HW2 8841   4.683   0.044   0.204
 2940SOL     OW 8842   3.854   1.794   1.851
 2940SOL    HW1 8843   3.813   1.720   1.904
 2940SOL    HW2 8844   3.918   1.845   1.909
 2941SOL     OW 8845   5.004   0.927   0.672
 2941SOL    HW1 8846   5.064   0.846   0.674
 2941SOL    HW2 8847   5.044   0.996   0.612
 2942SOL     OW 8848   4.554   1.273   1.422
 2942SOL    HW1 8849   4.549   1.306   1.517
 2942SOL    HW2 8850   4.468   1.292   1.376
 2943SOL     OW 8851   4.396   1.616   0.154
 2943SOL    HW1 8852   4.405   1.626   0.055
 2943SOL    HW2 8853   4.356   1.527   0.175
 2944SOL     OW 8854   3.987   0.326   0.720
 2944SOL    HW1 8855   3.908   0.377   0.686
 2944SOL    HW2 8856   3.978   0.311   0.818
 2945SOL     OW 8857   4.546   1.002   1.372
 2945SOL    HW1 8858   4.586   1.001   1.280
 2945SOL    HW2 8859   4.556   1.094   1.412
 2946SOL     OW 8860   4.640   0.910   0.291
 2946SOL    HW1 8861   4.703   0.948   0.223
 2946SOL    HW2 8862   4.680   0.827   0.330
 2947SOL     OW 8863   4.096   1.288   1.490
 2947SOL    HW1 8864   4.083   1.381   1.456
 2947SOL    HW2 8865   4.012   1.236   1.477
 2948SOL     OW 8866   4.763   1.098   0.696
 2948SOL    HW1 8867   4.693   1.051   0.750
 2948SOL    HW2 8868   4.822   1.030   0.653
 2949SOL     OW 8869   4.738   0.236   0.971
 2949SOL    HW1 8870   4.730   0.200   0.878
 2949SOL    HW2 8871   4.736   0.160   1.036
 2950SOL     OW 8872   4.314   1.487   0.491
 2950SOL    HW1 8873   4.356   1.429   0.421
 2950SOL    HW2 8874   4.270   1.566   0.447
 2951SOL     OW 8875   3.979   1.348   0.290
 2951SOL    HW1 8876   3.883   1.349   0.263
 2951SOL    HW2 8877   3.991   1.401   0.374
 2952SOL     OW 8878   3.829   1.013   1.726
 2952SOL    HW1 8879   3.752   0.980   1.780
 2952SOL    HW2 8880   3.914   0.983   1.768
 2953SOL     OW 8881   4.396   0.203   1.489
 2953SOL    HW1 8882   4.486   0.187   1.449
 2953SOL    HW2 8883   4.404   0.208   1.588
 2954SOL     OW 8884   3.799   0.345   0.033
 2954SOL    HW1 8885   3.707   0.317   0.004
 2954SOL    HW2 8886   3.830   0.422  -0.023
 2955SOL     OW 8887   3.796   0.166   0.318
 2955SOL    HW1 8888   3.779   0.249   0.264
 2955SOL    HW2 8889   3.886   0.129   0.296
 2956SOL     OW 8890   4.337   0.842   1.431
 2956SOL    HW1 8891   4.393   0.923   1.414
 2956SOL    HW2 8892   4.396   0.762   1.434
 2957SOL     OW 8893   4.440   0.565   1.708
 2957SOL    HW1 8894   4.459   0.630   1.782
 2957SOL    HW2 8895   4.500   0.485   1.717
 2958SOL     OW 8896   4.114   1.741   1.560
 2958SOL    HW1 8897   4.023   1.782   1.558
 2958SOL    HW2 8898   4.107   1.647   1.592
 2959SOL     OW 8899   4.949   0.325   0.449
 2959SOL    HW1 8900   5.014   0.251   0.438
 2959SOL    HW2 8901   4.969   0.375   0.533
 2960SOL     OW 8902   4.318   0.745   0.652
 2960SOL    HW1 8903   4.368   0.830   0.633
 2960SOL    HW2 8904   4.230   0.747   0.604
 2961SOL     OW 8905   4.583   1.374   0.016
 2961SOL    HW1 8906   4.537   1.389   0.104
 2961SOL    HW2 8907   4.627   1.459  -0.014
 2962SOL     OW 8908   4.385   1.790   0.953
 2962SOL    HW1 8909   4.339   1.878   0.940
 2962SOL    HW2 8910   4.484   1.802   0.946
 2963SOL     OW 8911   4.583   0.956   0.861
 2963SOL    HW1 8912   4.637   0.887   0.909
 2963SOL    HW2 8913   4.551   1.025   0.927
 2964SOL     OW 8914   4.807   0.984   0.087
 2964SOL    HW1 8915   4.784   1.037   0.005
 2964SOL    HW2 8916   4.888   0.928   0.068
 2965SOL     OW 8917   3.945   1.314   1.844
 2965SOL    HW1 8918   3.880   1.241   1.823
 2965SOL    HW2 8919   3.949   1.328   1.942
 2966SOL     OW 8920   3.803   1.240   0.653
 2966SOL    HW1 8921   3.802   1.193   0.741
 2966SOL    HW2 8922   3.885   1.212   0.602
 2967SOL     OW 8923   4.396   1.391   1.624
 2967SOL    HW1 8924   4.318   1.341   1.662
 2967SOL    HW2 8925   4.393   1.486   1.655
 2968SOL     OW 8926   4.152   0.424   0.520
 2968SOL    HW1 8927   4.182   0.352   0.458
 2968SOL    HW2 8928   4.113   0.384   0.603
 2969SOL     OW 8929   4.041   0.547   1.280
 2969SOL    HW1 8930   4.079   0.488   1.352
 2969SOL    HW2 8931   4.081   0.521   1.192
 2970SOL     OW 8932   4.536   1.586   0.687
 2970SOL    HW1 8933   4.568   1.596   0.593
 2970SOL    HW2 8934   4.457   1.524   0.689
 2971SOL     OW 8935   4.725   0.034   1.154
 2971SOL    HW1 8936   4.662  -0.038   1.123
 2971SOL    HW2 8937   4.818  -0.002   1.154
 2972SOL     OW 8938   4.494   1.330   0.301
 2972SOL    HW1 8939   4.448   1.243   0.318
 2972SOL    HW2 8940   4.585   1.327   0.342
 2973SOL     OW 8941   4.342   1.567   1.284
 2973SOL    HW1 8942   4.337   1.649   1.341
 2973SOL    HW2 8943   4.431   1.564   1.239
 2974SOL     OW 8944   3.763   1.077   0.300
 2974SOL    HW1 8945   3.862   1.066   0.291
 2974SOL    HW2 8946   3.723   0.991   0.332
 2975SOL     OW 8947   4.599   1.646   0.337
 2975SOL    HW1 8948   4.522   1.611   0.283
 2975SOL    HW2 8949   4.567   1.717   0.399
 2976SOL     OW 8950   3.954   0.628   1.975
 2976SOL    HW1 8951   3.861   0.626   2.012
 2976SOL    HW2 8952   3.955   0.589   1.883
 2977SOL     OW 8953   3.949   0.275   2.858
 2977SOL    HW1 8954   3.984   0.258   2.950
 2977SOL    HW2 8955   3.861   0.230   2.846
 2978SOL     OW 8956   3.743   0.368   2.509
 2978SOL    HW1 8957   3.661   0.411   2.548
 2978SOL    HW2 8958   3.715   0.295   2.446
 2979SOL     OW 8959   4.293   1.275   3.027
 2979SOL    HW1 8960   4.200   1.268   2.990
 2979SOL    HW2 8961   4.304   1.364   3.071
 2980SOL     OW 8962   4.492   1.144   2.885
 2980SOL    HW1 8963   4.414   1.161   2.945
 2980SOL    HW2 8964   4.526   1.231   2.849
 2981SOL     OW 8965   4.574   0.798   3.685
 2981SOL    HW1 8966   4.570   0.874   3.750
 2981SOL    HW2 8967   4.596   0.834   3.594
 2982SOL     OW 8968   4.409   1.012   2.527
 2982SOL    HW1 8969   4.478   0.996   2.597
 2982SOL    HW2 8970   4.336   1.069   2.565
 2983SOL     OW 8971   4.410   1.161   3.665
 2983SOL    HW1 8972   4.470   1.240   3.679
 2983SOL    HW2 8973   4.324   1.192   3.624
 2984SOL     OW 8974   4.059   1.435   2.923
 2984SOL    HW1 8975   3.981   1.404   2.870
 2984SOL    HW2 8976   4.117   1.493   2.866
 2985SOL     OW 8977   4.162   0.392   3.361
 2985SOL    HW1 8978   4.244   0.336   3.370
 2985SOL    HW2 8979   4.081   0.334   3.365
 2986SOL     OW 8980   3.955   1.713   2.345
 2986SOL    HW1 8981   3.989   1.790   2.399
 2986SOL    HW2 8982   3.999   1.713   2.255
 2987SOL     OW 8983   4.851   1.341   3.552
 2987SOL    HW1 8984   4.898   1.341   3.640
 2987SOL    HW2 8985   4.803   1.254   3.541
 2988SOL     OW 8986   3.954   1.434   2.400
 2988SOL    HW1 8987   3.928   1.530   2.400
 2988SOL    HW2 8988   3.883   1.380   2.445
 2989SOL     OW 8989   3.964   1.091   2.748
 2989SOL    HW1 8990   3.978   1.007   2.800
 2989SOL    HW2 8991   3.909   1.155   2.803
 2990SOL     OW 8992   4.344   1.786   3.301
 2990SOL    HW1 8993   4.252   1.769   3.336
 2990SOL    HW2 8994   4.372   1.878   3.327
 2991SOL     OW 8995   4.330   0.964   1.985
 2991SOL    HW1 8996   4.337   1.048   1.931
 2991SOL    HW2 8997   4.376   0.977   2.073
 2992SOL     OW 8998   3.846   0.643   2.425
 2992SOL    HW1 8999   3.801   0.555   2.442
 2992SOL    HW2 9000   3.845   0.697   2.509
 2993SOL     OW 9001   3.751   1.596   1.979
 2993SOL    HW1 9002   3.732   1.500   2.000
 2993SOL    HW2 9003   3.718   1.654   2.054
 2994SOL     OW 9004   3.837   0.737   3.459
 2994SOL    HW1 9005   3.925   0.724   3.504
 2994SOL    HW2 9006   3.824   0.834   3.437
 2995SOL     OW 9007   4.337   1.365   2.588
 2995SOL    HW1 9008   4.288   1.278   2.597
 2995SOL    HW2 9009   4.314   1.408   2.501
 2996SOL     OW 9010   4.533   0.004   2.364
 2996SOL    HW1 9011   4.573   0.095   2.355
 2996SOL    HW2 9012   4.433   0.012   2.370
 2997SOL     OW 9013   3.921   0.976   3.126
 2997SOL    HW1 9014   4.010   0.931   3.112
 2997SOL    HW2 9015   3.848   0.911   3.107
 2998SOL     OW 9016   4.041   0.251   3.663
 2998SOL    HW1 9017   4.112   0.322   3.669
 2998SOL    HW2 9018   3.953   0.290   3.691
 2999SOL     OW 9019   4.322   0.729   2.132
 2999SOL    HW1 9020   4.346   0.798   2.064
 2999SOL    HW2 9021   4.244   0.762   2.186
 3000SOL     OW 9022   4.531   0.605   3.327
 3000SOL    HW1 9023   4.484   0.602   3.416
 3000SOL    HW2 9024   4.480   0.550   3.261
 3001SOL     OW 9025   4.697   0.890   3.434
 3001SOL    HW1 9026   4.743   0.806   3.405
 3001SOL    HW2 9027   4.641   0.924   3.359
 3002SOL     OW 9028   4.715   0.410   3.104
 3002SOL    HW1 9029   4.638   0.444   3.158
 3002SOL    HW2 9030   4.681   0.359   3.025
 3003SOL     OW 9031   4.765   0.701   2.291
 3003SOL    HW1 9032   4.791   0.697   2.387
 3003SOL    HW2 9033   4.680   0.650   2.277
 3004SOL     OW 9034   3.800   0.811   2.651
 3004SOL    HW1 9035   3.899   0.799   2.660
 3004SOL    HW2 9036   3.776   0.906   2.672
 3005SOL     OW 9037   3.854   1.821   3.433
 3005SOL    HW1 9038   3.844   1.806   3.532
 3005SOL    HW2 9039   3.768   1.857   3.397
 3006SOL     OW 9040   4.589   0.348   2.057
 3006SOL    HW1 9041   4.648   0.411   2.008
 3006SOL    HW2 9042   4.608   0.254   2.028
 3007SOL     OW 9043   4.274   0.196   2.747
 3007SOL    HW1 9044   4.269   0.191   2.847
 3007SOL    HW2 9045   4.276   0.292   2.718
 3008SOL     OW 9046   4.732   1.456   2.339
 3008SOL    HW1 9047   4.686   1.528   2.287
 3008SOL    HW2 9048   4.728   1.476   2.437
 3009SOL     OW 9049   4.075   1.801   2.715
 3009SOL    HW1 9050   4.125   1.715   2.721
 3009SOL    HW2 9051   4.140   1.878   2.712
 3010SOL     OW 9052   4.045   0.943   2.104
 3010SOL    HW1 9053   4.127   0.982   2.062
 3010SOL    HW2 9054   4.018   0.861   2.055
 3011SOL     OW 9055   4.185   1.266   3.589
 3011SOL    HW1 9056   4.135   1.267   3.503
 3011SOL    HW2 9057   4.122   1.248   3.665
 3012SOL     OW 9058   3.926   0.285   3.360
 3012SOL    HW1 9059   3.846   0.345   3.347
 3012SOL    HW2 9060   3.916   0.236   3.446
 3013SOL     OW 9061   4.188   1.743   2.185
 3013SOL    HW1 9062   4.221   1.782   2.271
 3013SOL    HW2 9063   4.264   1.736   2.120
 3014SOL     OW 9064   3.973   1.785   3.103
 3014SOL    HW1 9065   4.030   1.720   3.153
 3014SOL    HW2 9066   3.957   1.752   3.010
 3015SOL     OW 9067   4.664   1.698   2.766
 3015SOL    HW1 9068   4.744   1.641   2.787
 3015SOL    HW2 9069   4.615   1.658   2.689
 3016SOL     OW 9070   4.106   0.700   2.342
 3016SOL    HW1 9071   4.151   0.610   2.339
 3016SOL    HW2 9072   4.012   0.689   2.375
 3017SOL     OW 9073   4.338   0.122   1.979
 3017SOL    HW1 9074   4.436   0.100   1.986
 3017SOL    HW2 9075   4.307   0.105   1.886
 3018SOL     OW 9076   4.505   0.264   3.611
 3018SOL    HW1 9077   4.572   0.203   3.654
 3018SOL    HW2 9078   4.432   0.283   3.676
 3019SOL     OW 9079   4.612   1.514   3.057
 3019SOL    HW1 9080   4.589   1.489   2.963
 3019SOL    HW2 9081   4.673   1.445   3.096
 3020SOL     OW 9082   4.527   1.402   2.786
 3020SOL    HW1 9083   4.617   1.416   2.744
 3020SOL    HW2 9084   4.456   1.404   2.715
 3021SOL     OW 9085   4.646   0.503   2.761
 3021SOL    HW1 9086   4.621   0.494   2.665
 3021SOL    HW2 9087   4.694   0.421   2.792
 3022SOL     OW 9088   4.263   0.064   2.374
 3022SOL    HW1 9089   4.182   0.065   2.432
 3022SOL    HW2 9090   4.266   0.147   2.319
 3023SOL     OW 9091   4.021   0.035   2.033
 3023SOL    HW1 9092   4.070   0.119   2.012
 3023SOL    HW2 9093   4.083  -0.030   2.078
 3024SOL     OW 9094   4.659   0.236   2.342
 3024SOL    HW1 9095   4.611   0.277   2.264
 3024SOL    HW2 9096   4.758   0.234   2.323
 3025SOL     OW 9097   4.951   1.570   2.655
 3025SOL    HW1 9098   4.972   1.644   2.590
 3025SOL    HW2 9099   5.019   1.570   2.728
 3026SOL     OW 9100   4.183   1.152   2.603
 3026SOL    HW1 9101   4.112   1.125   2.668
 3026SOL    HW2 9102   4.157   1.124   2.510
 3027SOL     OW 9103   4.756   0.549   1.878
 3027SOL    HW1 9104   4.715   0.631   1.839
 3027SOL    HW2 9105   4.820   0.575   1.951
 3028SOL     OW 9106   3.802   0.556   3.248
 3028SOL    HW1 9107   3.894   0.555   3.207
 3028SOL    HW2 9108   3.796   0.630   3.315
 3029SOL     OW 9109   4.285   0.222   3.009
 3029SOL    HW1 9110   4.323   0.138   3.046
 3029SOL    HW2 9111   4.197   0.241   3.053
 3030SOL     OW 9112   4.590   0.454   2.504
 3030SOL    HW1 9113   4.558   0.526   2.442
 3030SOL    HW2 9114   4.614   0.373   2.451
 3031SOL     OW 9115   4.741   0.039   2.615
 3031SOL    HW1 9116   4.669   0.044   2.546
 3031SOL    HW2 9117   4.717  -0.030   2.684
 3032SOL     OW 9118   4.212   1.385   2.036
 3032SOL    HW1 9119   4.125   1.370   2.083
 3032SOL    HW2 9120   4.195   1.411   1.941
 3033SOL     OW 9121   4.251   0.256   2.190
 3033SOL    HW1 9122   4.278   0.197   2.115
 3033SOL    HW2 9123   4.251   0.351   2.159
 3034SOL     OW 9124   4.639   0.089   3.264
 3034SOL    HW1 9125   4.664   0.069   3.169
 3034SOL    HW2 9126   4.711   0.145   3.306
 3035SOL     OW 9127   4.704   1.116   3.581
 3035SOL    HW1 9128   4.605   1.122   3.591
 3035SOL    HW2 9129   4.727   1.036   3.525
 3036SOL     OW 9130   4.429   1.050   2.230
 3036SOL    HW1 9131   4.415   1.057   2.329
 3036SOL    HW2 9132   4.513   0.999   2.212
 3037SOL     OW 9133   4.134   0.813   3.113
 3037SOL    HW1 9134   4.220   0.825   3.163
 3037SOL    HW2 9135   4.092   0.726   3.140
 3038SOL     OW 9136   3.788   1.564   3.193
 3038SOL    HW1 9137   3.742   1.646   3.159
 3038SOL    HW2 9138   3.886   1.583   3.202
 3039SOL     OW 9139   4.091   1.100   2.363
 3039SOL    HW1 9140   4.084   1.183   2.307
 3039SOL    HW2 9141   4.095   1.020   2.303
 3040SOL     OW 9142   4.290   0.537   2.727
 3040SOL    HW1 9143   4.302   0.603   2.653
 3040SOL    HW2 9144   4.336   0.571   2.810
 3041SOL     OW 9145   4.078   1.510   3.191
 3041SOL    HW1 9146   4.057   1.466   3.104
 3041SOL    HW2 9147   4.175   1.536   3.194
 3042SOL     OW 9148   4.126   0.751   3.460
 3042SOL    HW1 9149   4.194   0.806   3.413
 3042SOL    HW2 9150   4.166   0.663   3.487
 3043SOL     OW 9151   4.737   0.105   3.632
 3043SOL    HW1 9152   4.743   0.190   3.580
 3043SOL    HW2 9153   4.769   0.029   3.575
 3044SOL     OW 9154   4.228   0.050   3.602
 3044SOL    HW1 9155   4.186  -0.007   3.532
 3044SOL    HW2 9156   4.162   0.119   3.634
 3045SOL     OW 9157   4.297   0.870   2.891
 3045SOL    HW1 9158   4.341   0.959   2.882
 3045SOL    HW2 9159   4.234   0.870   2.968
 3046SOL     OW 9160   4.933   0.525   2.137
 3046SOL    HW1 9161   4.946   0.441   2.191
 3046SOL    HW2 9162   4.904   0.599   2.197
 3047SOL     OW 9163   4.031   0.213   3.093
 3047SOL    HW1 9164   4.008   0.250   3.183
 3047SOL    HW2 9165   4.001   0.118   3.087
 3048SOL     OW 9166   3.761   1.310   3.144
 3048SOL    HW1 9167   3.814   1.261   3.212
 3048SOL    HW2 9168   3.783   1.408   3.149
 3049SOL     OW 9169   4.456   0.634   2.926
 3049SOL    HW1 9170   4.515   0.608   2.850
 3049SOL    HW2 9171   4.428   0.730   2.915
 3050SOL     OW 9172   4.031   0.063   2.480
 3050SOL    HW1 9173   4.020   0.157   2.513
 3050SOL    HW2 9174   4.026   0.000   2.557
 3051SOL     OW 9175   4.747   0.766   2.828
 3051SOL    HW1 9176   4.762   0.787   2.924
 3051SOL    HW2 9177   4.717   0.671   2.819
 3052SOL     OW 9178   4.704   1.573   3.562
 3052SOL    HW1 9179   4.684   1.617   3.474
 3052SOL    HW2 9180   4.743   1.482   3.546
 3053SOL     OW 9181   4.074   0.898   3.666
 3053SOL    HW1 9182   4.150   0.942   3.714
 3053SOL    HW2 9183   4.109   0.851   3.584
 3054SOL     OW 9184   4.792   1.333   2.711
 3054SOL    HW1 9185   4.799   1.249   2.656
 3054SOL    HW2 9186   4.854   1.402   2.675
 3055SOL     OW 9187   4.043   0.810   2.811
 3055SOL    HW1 9188   4.136   0.846   2.816
 3055SOL    HW2 9189   4.037   0.725   2.863
 3056SOL     OW 9190   4.063   0.509   2.868
 3056SOL    HW1 9191   4.011   0.426   2.851
 3056SOL    HW2 9192   4.140   0.514   2.804
 3057SOL     OW 9193   3.732   1.326   2.062
 3057SOL    HW1 9194   3.639   1.347   2.031
 3057SOL    HW2 9195   3.742   1.227   2.075
 3058SOL     OW 9196   3.812   1.801   2.789
 3058SOL    HW1 9197   3.770   1.715   2.762
 3058SOL    HW2 9198   3.906   1.804   2.755
 3059SOL     OW 9199   4.228   1.568   2.772
 3059SOL    HW1 9200   4.294   1.642   2.781
 3059SOL    HW2 9201   4.272   1.489   2.730
 3060SOL     OW 9202   4.726   0.796   3.100
 3060SOL    HW1 9203   4.767   0.764   3.186
 3060SOL    HW2 9204   4.630   0.769   3.097
 3061SOL     OW 9205   3.764   0.544   2.976
 3061SOL    HW1 9206   3.849   0.511   2.935
 3061SOL    HW2 9207   3.777   0.559   3.074
 3062SOL     OW 9208   3.913   0.520   3.584
 3062SOL    HW1 9209   3.972   0.480   3.514
 3062SOL    HW2 9210   3.855   0.591   3.543
 3063SOL     OW 9211   4.539   0.572   2.187
 3063SOL    HW1 9212   4.546   0.483   2.141
 3063SOL    HW2 9213   4.445   0.606   2.179
 3064SOL     OW 9214   3.976   1.564   3.606
 3064SOL    HW1 9215   3.946   1.621   3.682
 3064SOL    HW2 9216   3.969   1.467   3.632
 3065SOL     OW 9217   4.395   0.464   3.131
 3065SOL    HW1 9218   4.361   0.375   3.101
 3065SOL    HW2 9219   4.421   0.518   3.051
 3066SOL     OW 9220   4.654   1.678   3.327
 3066SOL    HW1 9221   4.630   1.660   3.232
 3066SOL    HW2 9222   4.684   1.772   3.337
 3067SOL     OW 9223   4.197   0.500   2.053
 3067SOL    HW1 9224   4.258   0.580   2.057
 3067SOL    HW2 9225   4.102   0.531   2.060
 3068SOL     OW 9226   3.883   1.137   3.328
 3068SOL    HW1 9227   3.905   1.076   3.404
 3068SOL    HW2 9228   3.893   1.088   3.242
 3069SOL     OW 9229   3.807   1.258   2.884
 3069SOL    HW1 9230   3.802   1.257   2.984
 3069SOL    HW2 9231   3.724   1.217   2.846
 3070SOL     OW 9232   4.412   1.662   3.578
 3070SOL    HW1 9233   4.356   1.743   3.587
 3070SOL    HW2 9234   4.464   1.666   3.492
 3071SOL     OW 9235   3.854   1.794   3.713
 3071SOL    HW1 9236   3.813   1.720   3.766
 3071SOL    HW2 9237   3.918   1.845   3.771
 3072SOL     OW 9238   5.004   0.927   2.534
 3072SOL    HW1 9239   5.064   0.846   2.536
 3072SOL    HW2 9240   5.044   0.996   2.474
 3073SOL     OW 9241   4.554   1.273   3.284
 3073SOL    HW1 9242   4.549   1.306   3.379
 3073SOL    HW2 9243   4.468   1.292   3.238
 3074SOL     OW 9244   4.396   1.616   2.016
 3074SOL    HW1 9245   4.405   1.626   1.917
 3074SOL    HW2 9246   4.356   1.527   2.037
 3075SOL     OW 9247   3.987   0.326   2.582
 3075SOL    HW1 9248   3.908   0.377   2.548
 3075SOL    HW2 9249   3.978   0.311   2.680
 3076SOL     OW 9250   4.546   1.002   3.234
 3076SOL    HW1 9251   4.586   1.001   3.142
 3076SOL    HW2 9252   4.556   1.094   3.274
 3077SOL     OW 9253   4.640   0.910   2.153
 3077SOL    HW1 9254   4.703   0.948   2.085
 3077SOL    HW2 9255   4.680   0.827   2.192
 3078SOL     OW 9256   4.096   1.288   3.352
 3078SOL    HW1 9257   4.083   1.381   3.318
 3078SOL    HW2 9258   4.012   1.236   3.339
 3079SOL     OW 9259   4.763   1.098   2.558
 3079SOL    HW1 9260   4.693   1.051   2.612
 3079SOL    HW2 9261   4.822   1.030   2.515
 3080SOL     OW 9262   4.738   0.236   2.833
 3080SOL    HW1 9263   4.730   0.200   2.740
 3080SOL    HW2 9264   4.736   0.160   2.898
 3081SOL     OW 9265   4.314   1.487   2.353
 3081SOL    HW1 9266   4.356   1.429   2.283
 3081SOL    HW2 9267   4.270   1.566   2.309
 3082SOL     OW 9268   3.979   1.348   2.152
 3082SOL    HW1 9269   3.883   1.349   2.125
 3082SOL    HW2 9270   3.991   1.401   2.236
 3083SOL     OW 9271   3.829   1.013   3.588
 3083SOL    HW1 9272   3.752   0.980   3.642
 3083SOL    HW2 9273   3.914   0.983   3.630
 3084SOL     OW 9274   4.396   0.203   3.351
 3084SOL    HW1 9275   4.486   0.187   3.311
 3084SOL    HW2 9276   4.404   0.208   3.450
 3085SOL     OW 9277   3.799   0.345   1.895
 3085SOL    HW1 9278   3.707   0.317   1.866
 3085SOL    HW2 9279   3.830   0.422   1.839
 3086SOL     OW 9280   3.796   0.166   2.180
 3086SOL    HW1 9281   3.779   0.249   2.126
 3086SOL    HW2 9282   3.886   0.129   2.158
 3087SOL     OW 9283   4.337   0.842   3.293
 3087SOL    HW1 9284   4.393   0.923   3.276
 3087SOL    HW2 9285   4.396   0.762   3.296
 3088SOL     OW 9286   4.440   0.565   3.570
 3088SOL    HW1 9287   4.459   0.630   3.644
 3088SOL    HW2 9288   4.500   0.485   3.579
 3089SOL     OW 9289   4.114   1.741   3.422
 3089SOL    HW1 9290   4.023   1.782   3.420
 3089SOL    HW2 9291   4.107   1.647   3.454
 3090SOL     OW 9292   4.949   0.325   2.311
 3090SOL    HW1 9293   5.014   0.251   2.300
 3090SOL    HW2 9294   4.969   0.375   2.395
 3091SOL     OW 9295   4.318   0.745   2.514
 3091SOL    HW1 9296   4.368   0.830   2.495
 3091SOL    HW2 9297   4.230   0.747   2.466
 3092SOL     OW 9298   4.583   1.374   1.878
 3092SOL    HW1 9299   4.537   1.389   1.966
 3092SOL    HW2 9300   4.627   1.459   1.848
 3093SOL     OW 9301   4.385   1.790   2.815
 3093SOL    HW1 9302   4.339   1.878   2.802
 3093SOL    HW2 9303   4.484   1.802   2.808
 3094SOL     OW 9304   4.583   0.956   2.723
 3094SOL    HW1 9305   4.637   0.887   2.771
 3094SOL    HW2 9306   4.551   1.025   2.789
 3095SOL     OW 9307   3.945   1.314   3.706
 3095SOL    HW1 9308   3.880   1.241   3.685
 3095SOL    HW2 9309   3.949   1.328   3.804
 3096SOL     OW 9310   3.803   1.240   2.515
 3096SOL    HW1 9311   3.802   1.193   2.603
 3096SOL    HW2 9312   3.885   1.212   2.464
 3097SOL     OW 9313   4.396   1.391   3.486
 3097SOL    HW1 9314   4.318   1.341   3.524
 3097SOL    HW2 9315   4.393   1.486   3.517
 3098SOL     OW 9316   4.152   0.424   2.382
 3098SOL    HW1 9317   4.182   0.352   2.320
 3098SOL    HW2 9318   4.113   0.384   2.465
 3099SOL     OW 9319   4.041   0.547   3.142
 3099SOL    HW1 9320   4.079   0.488   3.214
 3099SOL    HW2 9321   4.081   0.521   3.054
 3100SOL     OW 9322   4.536   1.586   2.549
 3100SOL    HW1 9323   4.568   1.596   2.455
 3100SOL    HW2 9324   4.457   1.524   2.551
 3101SOL     OW 9325   4.725   0.034   3.016
 3101SOL    HW1 9326   4.662  -0.038   2.985
 3101SOL    HW2 9327   4.818  -0.002   3.016
 3102SOL     OW 9328   4.494   1.330   2.163
 3102SOL    HW1 9329   4.448   1.243   2.180
 3102SOL    HW2 9330   4.585   1.327   2.204
 3103SOL     OW 9331   4.342   1.567   3.146
 3103SOL    HW1 9332   4.337   1.649   3.203
 3103SOL    HW2 9333   4.431   1.564   3.101
 3104SOL     OW 9334   3.763   1.077   2.162
 3104SOL    HW1 9335   3.862   1.066   2.153
 3104SOL    HW2 9336   3.723   0.991   2.194
 3105SOL     OW 9337   4.599   1.646   2.199
 3105SOL    HW1 9338   4.522   1.611   2.145
 3105SOL    HW2 9339   4.567   1.717   2.261
 3106SOL     OW 9340   3.954   0.628   3.837
 3106SOL    HW1 9341   3.861   0.626   3.874
 3106SOL    HW2 9342   3.955   0.589   3.745
 3107SOL     OW 9343   3.949   0.275   4.720
 3107SOL    HW1 9344   3.984   0.258   4.812
 3107SOL    HW2 9345   3.861   0.230   4.708
 3108SOL     OW 9346   3.743   0.368   4.371
 3108SOL    HW1 9347   3.661   0.411   4.410
 3108SOL    HW2 9348   3.715   0.295   4.308
 3109SOL     OW 9349   4.492   1.144   4.747
 3109SOL    HW1 9350   4.414   1.161   4.807
 3109SOL    HW2 9351   4.526   1.231   4.711
 3110SOL     OW 9352   4.409   1.012   4.389
 3110SOL    HW1 9353   4.478   0.996   4.459
 3110SOL    HW2 9354   4.336   1.069   4.427
 3111SOL     OW 9355   4.059   1.435   4.785
 3111SOL    HW1 9356   3.981   1.404   4.732
 3111SOL    HW2 9357   4.117   1.493   4.728
 3112SOL     OW 9358   3.955   1.713   4.207
 3112SOL    HW1 9359   3.989   1.790   4.261
 3112SOL    HW2 9360   3.999   1.713   4.117
 3113SOL     OW 9361   3.954   1.434   4.262
 3113SOL    HW1 9362   3.928   1.530   4.262
 3113SOL    HW2 9363   3.883   1.380   4.307
 3114SOL     OW 9364   3.964   1.091   4.610
 3114SOL    HW1 9365   3.978   1.007   4.662
 3114SOL    HW2 9366   3.909   1.155   4.665
 3115SOL     OW 9367   4.330   0.964   3.847
 3115SOL    HW1 9368   4.337   1.048   3.793
 3115SOL    HW2 9369   4.376   0.977   3.935
 3116SOL     OW 9370   3.846   0.643   4.287
 3116SOL    HW1 9371   3.801   0.555   4.304
 3116SOL    HW2 9372   3.845   0.697   4.371
 3117SOL     OW 9373   3.751   1.596   3.841
 3117SOL    HW1 9374   3.732   1.500   3.862
 3117SOL    HW2 9375   3.718   1.654   3.916
 3118SOL     OW 9376   4.337   1.365   4.450
 3118SOL    HW1 9377   4.288   1.278   4.459
 3118SOL    HW2 9378   4.314   1.408   4.363
 3119SOL     OW 9379   4.533   0.004   4.226
 3119SOL    HW1 9380   4.573   0.095   4.217
 3119SOL    HW2 9381   4.433   0.012   4.232
 3120SOL     OW 9382   4.322   0.729   3.994
 3120SOL    HW1 9383   4.346   0.798   3.926
 3120SOL    HW2 9384   4.244   0.762   4.048
 3121SOL     OW 9385   4.765   0.701   4.153
 3121SOL    HW1 9386   4.791   0.697   4.249
 3121SOL    HW2 9387   4.680   0.650   4.139
 3122SOL     OW 9388   3.800   0.811   4.513
 3122SOL    HW1 9389   3.899   0.799   4.522
 3122SOL    HW2 9390   3.776   0.906   4.534
 3123SOL     OW 9391   4.589   0.348   3.919
 3123SOL    HW1 9392   4.648   0.411   3.870
 3123SOL    HW2 9393   4.608   0.254   3.890
 3124SOL     OW 9394   4.274   0.196   4.609
 3124SOL    HW1 9395   4.269   0.191   4.709
 3124SOL    HW2 9396   4.276   0.292   4.580
 3125SOL     OW 9397   4.732   1.456   4.201
 3125SOL    HW1 9398   4.686   1.528   4.149
 3125SOL    HW2 9399   4.728   1.476   4.299
 3126SOL     OW 9400   4.075   1.801   4.577
 3126SOL    HW1 9401   4.125   1.715   4.583
 3126SOL    HW2 9402   4.140   1.878   4.574
 3127SOL     OW 9403   4.045   0.943   3.966
 3127SOL    HW1 9404   4.127   0.982   3.924
 3127SOL    HW2 9405   4.018   0.861   3.917
 3128SOL     OW 9406   4.188   1.743   4.047
 3128SOL    HW1 9407   4.221   1.782   4.133
 3128SOL    HW2 9408   4.264   1.736   3.982
 3129SOL     OW 9409   3.973   1.785   4.965
 3129SOL    HW1 9410   4.030   1.720   5.015
 3129SOL    HW2 9411   3.957   1.752   4.872
 3130SOL     OW 9412   4.664   1.698   4.628
 3130SOL    HW1 9413   4.744   1.641   4.649
 3130SOL    HW2 9414   4.615   1.658   4.551
 3131SOL     OW 9415   4.106   0.700   4.204
 3131SOL    HW1 9416   4.151   0.610   4.201
 3131SOL    HW2 9417   4.012   0.689   4.237
 3132SOL     OW 9418   4.338   0.122   3.841
 3132SOL    HW1 9419   4.436   0.100   3.848
 3132SOL    HW2 9420   4.307   0.105   3.748
 3133SOL     OW 9421   4.527   1.402   4.648
 3133SOL    HW1 9422   4.617   1.416   4.606
 3133SOL    HW2 9423   4.456   1.404   4.577
 3134SOL     OW 9424   4.646   0.503   4.623
 3134SOL    HW1 9425   4.621   0.494   4.527
 3134SOL    HW2 9426   4.694   0.421   4.654
 3135SOL     OW 9427   4.263   0.064   4.236
 3135SOL    HW1 9428   4.182   0.065   4.294
 3135SOL    HW2 9429   4.266   0.147   4.181
 3136SOL     OW 9430   4.021   0.035   3.895
 3136SOL    HW1 9431   4.070   0.119   3.874
 3136SOL    HW2 9432   4.083  -0.030   3.940
 3137SOL     OW 9433   4.659   0.236   4.204
 3137SOL    HW1 9434   4.611   0.277   4.126
 3137SOL    HW2 9435   4.758   0.234   4.185
 3138SOL     OW 9436   4.951   1.570   4.517
 3138SOL    HW1 9437   4.972   1.644   4.452
 3138SOL    HW2 9438   5.019   1.570   4.590
 3139SOL     OW 9439   4.183   1.152   4.465
 3139SOL    HW1 9440   4.112   1.125   4.530
 3139SOL    HW2 9441   4.157   1.124   4.372
 3140SOL     OW 9442   4.756   0.549   3.740
 3140SOL    HW1 9443   4.715   0.631   3.701
 3140SOL    HW2 9444   4.820   0.575   3.813
 3141SOL     OW 9445   4.590   0.454   4.366
 3141SOL    HW1 9446   4.558   0.526   4.304
 3141SOL    HW2 9447   4.614   0.373   4.313
 3142SOL     OW 9448   4.741   0.039   4.477
 3142SOL    HW1 9449   4.669   0.044   4.408
 3142SOL    HW2 9450   4.717  -0.030   4.546
 3143SOL     OW 9451   4.212   1.385   3.898
 3143SOL    HW1 9452   4.125   1.370   3.945
 3143SOL    HW2 9453   4.195   1.411   3.803
 3144SOL     OW 9454   4.251   0.256   4.052
 3144SOL    HW1 9455   4.278   0.197   3.977
 3144SOL    HW2 9456   4.251   0.351   4.021
 3145SOL     OW 9457   4.429   1.050   4.092
 3145SOL    HW1 9458   4.415   1.057   4.191
 3145SOL    HW2 9459   4.513   0.999   4.074
 3146SOL     OW 9460   4.091   1.100   4.225
 3146SOL    HW1 9461   4.084   1.183   4.169
 3146SOL    HW2 9462   4.095   1.020   4.165
 3147SOL     OW 9463   4.290   0.537   4.589
 3147SOL    HW1 9464   4.302   0.603   4.515
 3147SOL    HW2 9465   4.336   0.571   4.672
 3148SOL     OW 9466   4.297   0.870   4.753
 3148SOL    HW1 9467   4.341   0.959   4.744
 3148SOL    HW2 9468   4.234   0.870   4.830
 3149SOL     OW 9469   4.933   0.525   3.999
 3149SOL    HW1 9470   4.946   0.441   4.053
 3149SOL    HW2 9471   4.904   0.599   4.059
 3150SOL     OW 9472   4.456   0.634   4.788
 3150SOL    HW1 9473   4.515   0.608   4.712
 3150SOL    HW2 9474   4.428   0.730   4.777
 3151SOL     OW 9475   4.031   0.063   4.342
 3151SOL    HW1 9476   4.020   0.157   4.375
 3151SOL    HW2 9477   4.026   0.000   4.419
 3152SOL     OW 9478   4.747   0.766   4.690
 3152SOL    HW1 9479   4.762   0.787   4.786
 3152SOL    HW2 9480   4.717   0.671   4.681
 3153SOL     OW 9481   4.792   1.333   4.573
 3153SOL    HW1 9482   4.799   1.249   4.518
 3153SOL    HW2 9483   4.854   1.402   4.537
 3154SOL     OW 9484   4.043   0.810   4.673
 3154SOL    HW1 9485   4.136   0.846   4.678
 3154SOL    HW2 9486   4.037   0.725   4.725
 3155SOL     OW 9487   4.063   0.509   4.730
 3155SOL    HW1 9488   4.011   0.426   4.713
 3155SOL    HW2 9489   4.140   0.514   4.666
 3156SOL     OW 9490   3.732   1.326   3.924
 3156SOL    HW1 9491   3.639   1.347   3.893
 3156SOL    HW2 9492   3.742   1.227   3.937
 3157SOL     OW 9493   3.812   1.801   4.651
 3157SOL    HW1 9494   3.770   1.715   4.624
 3157SOL    HW2 9495   3.906   1.804   4.617
 3158SOL     OW 9496   4.228   1.568   4.634
 3158SOL    HW1 9497   4.294   1.642   4.643
 3158SOL    HW2 9498   4.272   1.489   4.592
 3159SOL     OW 9499   4.726   0.796   4.962
 3159SOL    HW1 9500   4.767   0.764   5.048
 3159SOL    HW2 9501   4.630   0.769   4.959
 3160SOL     OW 9502   4.539   0.572   4.049
 3160SOL    HW1 9503   4.546   0.483   4.003
 3160SOL    HW2 9504   4.445   0.606   4.041
 3161SOL     OW 9505   4.395   0.464   4.993
 3161SOL    HW1 9506   4.361   0.375   4.963
 3161SOL    HW2 9507   4.421   0.518   4.913
 3162SOL     OW 9508   4.197   0.500   3.915
 3162SOL    HW1 9509   4.258   0.580   3.919
 3162SOL    HW2 9510   4.102   0.531   3.922
 3163SOL     OW 9511   3.807   1.258   4.746
 3163SOL    HW1 9512   3.802   1.257   4.846
 3163SOL    HW2 9513   3.724   1.217   4.708
 3164SOL     OW 9514   5.004   0.927   4.396
 3164SOL    HW1 9515   5.064   0.846   4.398
 3164SOL    HW2 9516   5.044   0.996   4.336
 3165SOL     OW 9517   4.396   1.616   3.878
 3165SOL    HW1 9518   4.405   1.626   3.779
 3165SOL    HW2 9519   4.356   1.527   3.899
 3166SOL     OW 9520   3.987   0.326   4.444
 3166SOL    HW1 9521   3.908   0.377   4.410
 3166SOL    HW2 9522   3.978   0.311   4.542
 3167SOL     OW 9523   4.640   0.910   4.015
 3167SOL    HW1 9524   4.703   0.948   3.947
 3167SOL    HW2 9525   4.680   0.827   4.054
 3168SOL     OW 9526   4.763   1.098   4.420
 3168SOL    HW1 9527   4.693   1.051   4.474
 3168SOL    HW2 9528   4.822   1.030   4.377
 3169SOL     OW 9529   4.738   0.236   4.695
 3169SOL    HW1 9530   4.730   0.200   4.602
 3169SOL    HW2 9531   4.736   0.160   4.760
 3170SOL     OW 9532   4.314   1.487   4.215
 3170SOL    HW1 9533   4.356   1.429   4.145
 3170SOL    HW2 9534   4.270   1.566   4.171
 3171SOL     OW 9535   3.979   1.348   4.014
 3171SOL    HW1 9536   3.883   1.349   3.987
 3171SOL    HW2 9537   3.991   1.401   4.098
 3172SOL     OW 9538   3.799   0.345   3.757
 3172SOL    HW1 9539   3.707   0.317   3.728
 3172SOL    HW2 9540   3.830   0.422   3.701
 3173SOL     OW 9541   3.796   0.166   4.042
 3173SOL    HW1 9542   3.779   0.249   3.988
 3173SOL    HW2 9543   3.886   0.129   4.020
 3174SOL     OW 9544   4.949   0.325   4.173
 3174SOL    HW1 9545   5.014   0.251   4.162
 3174SOL    HW2 9546   4.969   0.375   4.257
 3175SOL     OW 9547   4.318   0.745   4.376
 3175SOL    HW1 9548   4.368   0.830   4.357
 3175SOL    HW2 9549   4.230   0.747   4.328
 3176SOL     OW 9550   4.583   1.374   3.740
 3176SOL    HW1 9551   4.537   1.389   3.828
 3176SOL    HW2 9552   4.627   1.459   3.710
 3177SOL     OW 9553   4.385   1.790   4.677
 3177SOL    HW1 9554   4.339   1.878   4.664
 3177SOL    HW2 9555   4.484   1.802   4.670
 3178SOL     OW 9556   4.583   0.956   4.585
 3178SOL    HW1 9557   4.637   0.887   4.633
 3178SOL    HW2 9558   4.551   1.025   4.651
 3179SOL     OW 9559   3.803   1.240   4.377
 3179SOL    HW1 9560   3.802   1.193   4.465
 3179SOL    HW2 9561   3.885   1.212   4.326
 3180SOL     OW 9562   4.152   0.424   4.244
 3180SOL    HW1 9563   4.182   0.352   4.182
 3180SOL    HW2 9564   4.113   0.384   4.327
 3181SOL     OW 9565   4.536   1.586   4.411
 3181SOL    HW1 9566   4.568   1.596   4.317
 3181SOL    HW2 9567   4.457   1.524   4.413
 3182SOL     OW 9568   4.494   1.330   4.025
 3182SOL    HW1 9569   4.448   1.243   4.042
 3182SOL    HW2 9570   4.585   1.327   4.066
 3183SOL     OW 9571   3.763   1.077   4.024
 3183SOL    HW1 9572   3.862   1.066   4.015
 3183SOL    HW2 9573   3.723   0.991   4.056
 3184SOL     OW 9574   4.599   1.646   4.061
 3184SOL    HW1 9575   4.522   1.611   4.007
 3184SOL    HW2 9576   4.567   1.717   4.123
 3185SOL     OW 9577   3.954   2.490   0.113
 3185SOL    HW1 9578   3.861   2.488   0.150
 3185SOL    HW2 9579   3.955   2.451   0.021
 3186SOL     OW 9580   3.949   2.137   0.996
 3186SOL    HW1 9581   3.984   2.120   1.088
 3186SOL    HW2 9582   3.861   2.092   0.984
 3187SOL     OW 9583   3.743   2.230   0.647
 3187SOL    HW1 9584   3.661   2.273   0.686
 3187SOL    HW2 9585   3.715   2.157   0.584
 3188SOL     OW 9586   4.293   3.137   1.165
 3188SOL    HW1 9587   4.200   3.130   1.128
 3188SOL    HW2 9588   4.304   3.226   1.209
 3189SOL     OW 9589   4.492   3.006   1.023
 3189SOL    HW1 9590   4.414   3.023   1.083
 3189SOL    HW2 9591   4.526   3.093   0.987
 3190SOL     OW 9592   4.574   2.660   1.823
 3190SOL    HW1 9593   4.570   2.736   1.888
 3190SOL    HW2 9594   4.596   2.696   1.732
 3191SOL     OW 9595   4.409   2.874   0.665
 3191SOL    HW1 9596   4.478   2.858   0.735
 3191SOL    HW2 9597   4.336   2.931   0.703
 3192SOL     OW 9598   4.410   3.023   1.803
 3192SOL    HW1 9599   4.470   3.102   1.817
 3192SOL    HW2 9600   4.324   3.054   1.762
 3193SOL     OW 9601   4.059   3.297   1.061
 3193SOL    HW1 9602   3.981   3.266   1.008
 3193SOL    HW2 9603   4.117   3.355   1.004
 3194SOL     OW 9604   4.162   2.254   1.499
 3194SOL    HW1 9605   4.244   2.198   1.508
 3194SOL    HW2 9606   4.081   2.196   1.503
 3195SOL     OW 9607   3.955   3.575   0.483
 3195SOL    HW1 9608   3.989   3.652   0.537
 3195SOL    HW2 9609   3.999   3.575   0.393
 3196SOL     OW 9610   4.851   3.203   1.690
 3196SOL    HW1 9611   4.898   3.203   1.778
 3196SOL    HW2 9612   4.803   3.116   1.679
 3197SOL     OW 9613   3.954   3.296   0.538
 3197SOL    HW1 9614   3.928   3.392   0.538
 3197SOL    HW2 9615   3.883   3.242   0.583
 3198SOL     OW 9616   3.964   2.953   0.886
 3198SOL    HW1 9617   3.978   2.869   0.938
 3198SOL    HW2 9618   3.909   3.017   0.941
 3199SOL     OW 9619   4.344   3.648   1.439
 3199SOL    HW1 9620   4.252   3.631   1.474
 3199SOL    HW2 9621   4.372   3.740   1.465
 3200SOL     OW 9622   4.330   2.826   0.123
 3200SOL    HW1 9623   4.337   2.910   0.069
 3200SOL    HW2 9624   4.376   2.839   0.211
 3201SOL     OW 9625   3.846   2.505   0.563
 3201SOL    HW1 9626   3.801   2.417   0.580
 3201SOL    HW2 9627   3.845   2.559   0.647
 3202SOL     OW 9628   3.751   3.458   0.117
 3202SOL    HW1 9629   3.732   3.362   0.138
 3202SOL    HW2 9630   3.718   3.516   0.192
 3203SOL     OW 9631   3.837   2.599   1.597
 3203SOL    HW1 9632   3.925   2.586   1.642
 3203SOL    HW2 9633   3.824   2.696   1.575
 3204SOL     OW 9634   4.337   3.227   0.726
 3204SOL    HW1 9635   4.288   3.140   0.735
 3204SOL    HW2 9636   4.314   3.270   0.639
 3205SOL     OW 9637   4.533   1.866   0.502
 3205SOL    HW1 9638   4.573   1.957   0.493
 3205SOL    HW2 9639   4.433   1.874   0.508
 3206SOL     OW 9640   3.921   2.838   1.264
 3206SOL    HW1 9641   4.010   2.793   1.250
 3206SOL    HW2 9642   3.848   2.773   1.245
 3207SOL     OW 9643   4.041   2.113   1.801
 3207SOL    HW1 9644   4.112   2.184   1.807
 3207SOL    HW2 9645   3.953   2.152   1.829
 3208SOL     OW 9646   4.322   2.591   0.270
 3208SOL    HW1 9647   4.346   2.660   0.202
 3208SOL    HW2 9648   4.244   2.624   0.324
 3209SOL     OW 9649   4.531   2.467   1.465
 3209SOL    HW1 9650   4.484   2.464   1.554
 3209SOL    HW2 9651   4.480   2.412   1.399
 3210SOL     OW 9652   4.697   2.752   1.572
 3210SOL    HW1 9653   4.743   2.668   1.543
 3210SOL    HW2 9654   4.641   2.786   1.497
 3211SOL     OW 9655   4.715   2.272   1.242
 3211SOL    HW1 9656   4.638   2.306   1.296
 3211SOL    HW2 9657   4.681   2.221   1.163
 3212SOL     OW 9658   4.765   2.563   0.429
 3212SOL    HW1 9659   4.791   2.559   0.525
 3212SOL    HW2 9660   4.680   2.512   0.415
 3213SOL     OW 9661   3.800   2.673   0.789
 3213SOL    HW1 9662   3.899   2.661   0.798
 3213SOL    HW2 9663   3.776   2.768   0.810
 3214SOL     OW 9664   3.854   3.683   1.571
 3214SOL    HW1 9665   3.844   3.668   1.670
 3214SOL    HW2 9666   3.768   3.719   1.535
 3215SOL     OW 9667   4.589   2.210   0.195
 3215SOL    HW1 9668   4.648   2.273   0.146
 3215SOL    HW2 9669   4.608   2.116   0.166
 3216SOL     OW 9670   4.274   2.058   0.885
 3216SOL    HW1 9671   4.269   2.053   0.985
 3216SOL    HW2 9672   4.276   2.154   0.856
 3217SOL     OW 9673   4.732   3.318   0.477
 3217SOL    HW1 9674   4.686   3.390   0.425
 3217SOL    HW2 9675   4.728   3.338   0.575
 3218SOL     OW 9676   4.075   3.663   0.853
 3218SOL    HW1 9677   4.125   3.577   0.859
 3218SOL    HW2 9678   4.140   3.740   0.850
 3219SOL     OW 9679   4.045   2.805   0.242
 3219SOL    HW1 9680   4.127   2.844   0.200
 3219SOL    HW2 9681   4.018   2.723   0.193
 3220SOL     OW 9682   4.185   3.128   1.727
 3220SOL    HW1 9683   4.135   3.129   1.641
 3220SOL    HW2 9684   4.122   3.110   1.803
 3221SOL     OW 9685   3.926   2.147   1.498
 3221SOL    HW1 9686   3.846   2.207   1.485
 3221SOL    HW2 9687   3.916   2.098   1.584
 3222SOL     OW 9688   4.188   3.605   0.323
 3222SOL    HW1 9689   4.221   3.644   0.409
 3222SOL    HW2 9690   4.264   3.598   0.258
 3223SOL     OW 9691   3.973   3.647   1.241
 3223SOL    HW1 9692   4.030   3.582   1.291
 3223SOL    HW2 9693   3.957   3.614   1.148
 3224SOL     OW 9694   4.664   3.560   0.904
 3224SOL    HW1 9695   4.744   3.503   0.925
 3224SOL    HW2 9696   4.615   3.520   0.827
 3225SOL     OW 9697   4.106   2.562   0.480
 3225SOL    HW1 9698   4.151   2.472   0.477
 3225SOL    HW2 9699   4.012   2.551   0.513
 3226SOL     OW 9700   4.338   1.984   0.117
 3226SOL    HW1 9701   4.436   1.962   0.124
 3226SOL    HW2 9702   4.307   1.967   0.024
 3227SOL     OW 9703   4.505   2.126   1.749
 3227SOL    HW1 9704   4.572   2.065   1.792
 3227SOL    HW2 9705   4.432   2.145   1.814
 3228SOL     OW 9706   4.612   3.376   1.195
 3228SOL    HW1 9707   4.589   3.351   1.101
 3228SOL    HW2 9708   4.673   3.307   1.234
 3229SOL     OW 9709   4.527   3.264   0.924
 3229SOL    HW1 9710   4.617   3.278   0.882
 3229SOL    HW2 9711   4.456   3.266   0.853
 3230SOL     OW 9712   4.646   2.365   0.899
 3230SOL    HW1 9713   4.621   2.356   0.803
 3230SOL    HW2 9714   4.694   2.283   0.930
 3231SOL     OW 9715   4.263   1.926   0.512
 3231SOL    HW1 9716   4.182   1.927   0.570
 3231SOL    HW2 9717   4.266   2.009   0.457
 3232SOL     OW 9718   5.158   3.050   0.041
 3232SOL    HW1 9719   5.190   2.974   0.098
 3232SOL    HW2 9720   5.066   3.077   0.071
 3233SOL     OW 9721   4.659   2.098   0.480
 3233SOL    HW1 9722   4.611   2.139   0.402
 3233SOL    HW2 9723   4.758   2.096   0.461
 3234SOL     OW 9724   4.951   3.432   0.793
 3234SOL    HW1 9725   4.972   3.506   0.728
 3234SOL    HW2 9726   5.019   3.432   0.866
 3235SOL     OW 9727   4.183   3.014   0.741
 3235SOL    HW1 9728   4.112   2.987   0.806
 3235SOL    HW2 9729   4.157   2.986   0.648
 3236SOL     OW 9730   4.756   2.411   0.016
 3236SOL    HW1 9731   4.715   2.493  -0.023
 3236SOL    HW2 9732   4.820   2.437   0.089
 3237SOL     OW 9733   3.802   2.418   1.386
 3237SOL    HW1 9734   3.894   2.417   1.345
 3237SOL    HW2 9735   3.796   2.492   1.453
 3238SOL     OW 9736   4.285   2.084   1.147
 3238SOL    HW1 9737   4.323   2.000   1.184
 3238SOL    HW2 9738   4.197   2.103   1.191
 3239SOL     OW 9739   4.590   2.316   0.642
 3239SOL    HW1 9740   4.558   2.388   0.580
 3239SOL    HW2 9741   4.614   2.235   0.589
 3240SOL     OW 9742   4.741   1.901   0.753
 3240SOL    HW1 9743   4.669   1.906   0.684
 3240SOL    HW2 9744   4.717   1.832   0.822
 3241SOL     OW 9745   4.212   3.247   0.174
 3241SOL    HW1 9746   4.125   3.232   0.221
 3241SOL    HW2 9747   4.195   3.273   0.079
 3242SOL     OW 9748   4.251   2.118   0.328
 3242SOL    HW1 9749   4.278   2.059   0.253
 3242SOL    HW2 9750   4.251   2.213   0.297
 3243SOL     OW 9751   4.639   1.951   1.402
 3243SOL    HW1 9752   4.664   1.931   1.307
 3243SOL    HW2 9753   4.711   2.007   1.444
 3244SOL     OW 9754   4.704   2.978   1.719
 3244SOL    HW1 9755   4.605   2.984   1.729
 3244SOL    HW2 9756   4.727   2.898   1.663
 3245SOL     OW 9757   4.429   2.912   0.368
 3245SOL    HW1 9758   4.415   2.919   0.467
 3245SOL    HW2 9759   4.513   2.861   0.350
 3246SOL     OW 9760   4.134   2.675   1.251
 3246SOL    HW1 9761   4.220   2.687   1.301
 3246SOL    HW2 9762   4.092   2.588   1.278
 3247SOL     OW 9763   3.788   3.426   1.331
 3247SOL    HW1 9764   3.742   3.508   1.297
 3247SOL    HW2 9765   3.886   3.445   1.340
 3248SOL     OW 9766   4.091   2.962   0.501
 3248SOL    HW1 9767   4.084   3.045   0.445
 3248SOL    HW2 9768   4.095   2.882   0.441
 3249SOL     OW 9769   4.290   2.399   0.865
 3249SOL    HW1 9770   4.302   2.465   0.791
 3249SOL    HW2 9771   4.336   2.433   0.948
 3250SOL     OW 9772   4.078   3.372   1.329
 3250SOL    HW1 9773   4.057   3.328   1.242
 3250SOL    HW2 9774   4.175   3.398   1.332
 3251SOL     OW 9775   4.126   2.613   1.598
 3251SOL    HW1 9776   4.194   2.668   1.551
 3251SOL    HW2 9777   4.166   2.525   1.625
 3252SOL     OW 9778   4.737   1.967   1.770
 3252SOL    HW1 9779   4.743   2.052   1.718
 3252SOL    HW2 9780   4.769   1.891   1.713
 3253SOL     OW 9781   4.228   1.912   1.740
 3253SOL    HW1 9782   4.186   1.855   1.670
 3253SOL    HW2 9783   4.162   1.981   1.772
 3254SOL     OW 9784   4.297   2.732   1.029
 3254SOL    HW1 9785   4.341   2.821   1.020
 3254SOL    HW2 9786   4.234   2.732   1.106
 3255SOL     OW 9787   4.933   2.387   0.275
 3255SOL    HW1 9788   4.946   2.303   0.329
 3255SOL    HW2 9789   4.904   2.461   0.335
 3256SOL     OW 9790   4.031   2.075   1.231
 3256SOL    HW1 9791   4.008   2.112   1.321
 3256SOL    HW2 9792   4.001   1.980   1.225
 3257SOL     OW 9793   3.761   3.172   1.282
 3257SOL    HW1 9794   3.814   3.123   1.350
 3257SOL    HW2 9795   3.783   3.270   1.287
 3258SOL     OW 9796   4.456   2.496   1.064
 3258SOL    HW1 9797   4.515   2.470   0.988
 3258SOL    HW2 9798   4.428   2.592   1.053
 3259SOL     OW 9799   4.031   1.925   0.618
 3259SOL    HW1 9800   4.020   2.019   0.651
 3259SOL    HW2 9801   4.026   1.862   0.695
 3260SOL     OW 9802   4.747   2.628   0.966
 3260SOL    HW1 9803   4.762   2.649   1.062
 3260SOL    HW2 9804   4.717   2.533   0.957
 3261SOL     OW 9805   4.704   3.435   1.700
 3261SOL    HW1 9806   4.684   3.479   1.612
 3261SOL    HW2 9807   4.743   3.344   1.684
 3262SOL     OW 9808   4.074   2.760   1.804
 3262SOL    HW1 9809   4.150   2.804   1.852
 3262SOL    HW2 9810   4.109   2.713   1.722
 3263SOL     OW 9811   4.792   3.195   0.849
 3263SOL    HW1 9812   4.799   3.111   0.794
 3263SOL    HW2 9813   4.854   3.264   0.813
 3264SOL     OW 9814   4.043   2.672   0.949
 3264SOL    HW1 9815   4.136   2.708   0.954
 3264SOL    HW2 9816   4.037   2.587   1.001
 3265SOL     OW 9817   4.063   2.371   1.006
 3265SOL    HW1 9818   4.011   2.288   0.989
 3265SOL    HW2 9819   4.140   2.376   0.942
 3266SOL     OW 9820   3.732   3.188   0.200
 3266SOL    HW1 9821   3.639   3.209   0.169
 3266SOL    HW2 9822   3.742   3.089   0.213
 3267SOL     OW 9823   3.812   3.663   0.927
 3267SOL    HW1 9824   3.770   3.577   0.900
 3267SOL    HW2 9825   3.906   3.666   0.893
 3268SOL     OW 9826   4.228   3.430   0.910
 3268SOL    HW1 9827   4.294   3.504   0.919
 3268SOL    HW2 9828   4.272   3.351   0.868
 3269SOL     OW 9829   4.726   2.658   1.238
 3269SOL    HW1 9830   4.767   2.626   1.324
 3269SOL    HW2 9831   4.630   2.631   1.235
 3270SOL     OW 9832   3.764   2.406   1.114
 3270SOL    HW1 9833   3.849   2.373   1.073
 3270SOL    HW2 9834   3.777   2.421   1.212
 3271SOL     OW 9835   3.913   2.382   1.722
 3271SOL    HW1 9836   3.972   2.342   1.652
 3271SOL    HW2 9837   3.855   2.453   1.681
 3272SOL     OW 9838   4.539   2.434   0.325
 3272SOL    HW1 9839   4.546   2.345   0.279
 3272SOL    HW2 9840   4.445   2.468   0.317
 3273SOL     OW 9841   3.976   3.426   1.744
 3273SOL    HW1 9842   3.946   3.483   1.820
 3273SOL    HW2 9843   3.969   3.329   1.770
 3274SOL     OW 9844   4.395   2.326   1.269
 3274SOL    HW1 9845   4.361   2.237   1.239
 3274SOL    HW2 9846   4.421   2.380   1.189
 3275SOL     OW 9847   4.654   3.540   1.465
 3275SOL    HW1 9848   4.630   3.522   1.370
 3275SOL    HW2 9849   4.684   3.634   1.475
 3276SOL     OW 9850   4.197   2.362   0.191
 3276SOL    HW1 9851   4.258   2.442   0.195
 3276SOL    HW2 9852   4.102   2.393   0.198
 3277SOL     OW 9853   3.883   2.999   1.466
 3277SOL    HW1 9854   3.905   2.938   1.542
 3277SOL    HW2 9855   3.893   2.950   1.380
 3278SOL     OW 9856   3.807   3.120   1.022
 3278SOL    HW1 9857   3.802   3.119   1.122
 3278SOL    HW2 9858   3.724   3.079   0.984
 3279SOL     OW 9859   4.412   3.524   1.716
 3279SOL    HW1 9860   4.356   3.605   1.725
 3279SOL    HW2 9861   4.464   3.528   1.630
 3280SOL     OW 9862   4.627   1.948   0.133
 3280SOL    HW1 9863   4.678   1.949   0.047
 3280SOL    HW2 9864   4.683   1.906   0.204
 3281SOL     OW 9865   3.854   3.656   1.851
 3281SOL    HW1 9866   3.813   3.582   1.904
 3281SOL    HW2 9867   3.918   3.707   1.909
 3282SOL     OW 9868   5.004   2.789   0.672
 3282SOL    HW1 9869   5.064   2.708   0.674
 3282SOL    HW2 9870   5.044   2.858   0.612
 3283SOL     OW 9871   4.554   3.135   1.422
 3283SOL    HW1 9872   4.549   3.168   1.517
 3283SOL    HW2 9873   4.468   3.154   1.376
 3284SOL     OW 9874   4.396   3.478   0.154
 3284SOL    HW1 9875   4.405   3.488   0.055
 3284SOL    HW2 9876   4.356   3.389   0.175
 3285SOL     OW 9877   3.987   2.188   0.720
 3285SOL    HW1 9878   3.908   2.239   0.686
 3285SOL    HW2 9879   3.978   2.173   0.818
 3286SOL     OW 9880   4.546   2.864   1.372
 3286SOL    HW1 9881   4.586   2.863   1.280
 3286SOL    HW2 9882   4.556   2.956   1.412
 3287SOL     OW 9883   4.640   2.772   0.291
 3287SOL    HW1 9884   4.703   2.810   0.223
 3287SOL    HW2 9885   4.680   2.689   0.330
 3288SOL     OW 9886   4.096   3.150   1.490
 3288SOL    HW1 9887   4.083   3.243   1.456
 3288SOL    HW2 9888   4.012   3.098   1.477
 3289SOL     OW 9889   4.763   2.960   0.696
 3289SOL    HW1 9890   4.693   2.913   0.750
 3289SOL    HW2 9891   4.822   2.892   0.653
 3290SOL     OW 9892   4.738   2.098   0.971
 3290SOL    HW1 9893   4.730   2.062   0.878
 3290SOL    HW2 9894   4.736   2.022   1.036
 3291SOL     OW 9895   4.314   3.349   0.491
 3291SOL    HW1 9896   4.356   3.291   0.421
 3291SOL    HW2 9897   4.270   3.428   0.447
 3292SOL     OW 9898   3.979   3.210   0.290
 3292SOL    HW1 9899   3.883   3.211   0.263
 3292SOL    HW2 9900   3.991   3.263   0.374
 3293SOL     OW 9901   3.829   2.875   1.726
 3293SOL    HW1 9902   3.752   2.842   1.780
 3293SOL    HW2 9903   3.914   2.845   1.768
 3294SOL     OW 9904   4.396   2.065   1.489
 3294SOL    HW1 9905   4.486   2.049   1.449
 3294SOL    HW2 9906   4.404   2.070   1.588
 3295SOL     OW 9907   3.799   2.207   0.033
 3295SOL    HW1 9908   3.707   2.179   0.004
 3295SOL    HW2 9909   3.830   2.284  -0.023
 3296SOL     OW 9910   3.796   2.028   0.318
 3296SOL    HW1 9911   3.779   2.111   0.264
 3296SOL    HW2 9912   3.886   1.991   0.296
 3297SOL     OW 9913   4.337   2.704   1.431
 3297SOL    HW1 9914   4.393   2.785   1.414
 3297SOL    HW2 9915   4.396   2.624   1.434
 3298SOL     OW 9916   4.440   2.427   1.708
 3298SOL    HW1 9917   4.459   2.492   1.782
 3298SOL    HW2 9918   4.500   2.347   1.717
 3299SOL     OW 9919   4.114   3.603   1.560
 3299SOL    HW1 9920   4.023   3.644   1.558
 3299SOL    HW2 9921   4.107   3.509   1.592
 3300SOL     OW 9922   4.949   2.187   0.449
 3300SOL    HW1 9923   5.014   2.113   0.438
 3300SOL    HW2 9924   4.969   2.237   0.533
 3301SOL     OW 9925   4.318   2.607   0.652
 3301SOL    HW1 9926   4.368   2.692   0.633
 3301SOL    HW2 9927   4.230   2.609   0.604
 3302SOL     OW 9928   4.583   3.236   0.016
 3302SOL    HW1 9929   4.537   3.251   0.104
 3302SOL    HW2 9930   4.627   3.321  -0.014
 3303SOL     OW 9931   4.385   3.652   0.953
 3303SOL    HW1 9932   4.339   3.740   0.940
 3303SOL    HW2 9933   4.484   3.664   0.946
 3304SOL     OW 9934   4.583   2.818   0.861
 3304SOL    HW1 9935   4.637   2.749   0.909
 3304SOL    HW2 9936   4.551   2.887   0.927
 3305SOL     OW 9937   4.807   2.846   0.087
 3305SOL    HW1 9938   4.784   2.899   0.005
 3305SOL    HW2 9939   4.888   2.790   0.068
 3306SOL     OW 9940   3.945   3.176   1.844
 3306SOL    HW1 9941   3.880   3.103   1.823
 3306SOL    HW2 9942   3.949   3.190   1.942
 3307SOL     OW 9943   3.803   3.102   0.653
 3307SOL    HW1 9944   3.802   3.055   0.741
 3307SOL    HW2 9945   3.885   3.074   0.602
 3308SOL     OW 9946   4.396   3.253   1.624
 3308SOL    HW1 9947   4.318   3.203   1.662
 3308SOL    HW2 9948   4.393   3.348   1.655
 3309SOL     OW 9949   4.152   2.286   0.520
 3309SOL    HW1 9950   4.182   2.214   0.458
 3309SOL    HW2 9951   4.113   2.246   0.603
 3310SOL     OW 9952   4.041   2.409   1.280
 3310SOL    HW1 9953   4.079   2.350   1.352
 3310SOL    HW2 9954   4.081   2.383   1.192
 3311SOL     OW 9955   4.536   3.448   0.687
 3311SOL    HW1 9956   4.568   3.458   0.593
 3311SOL    HW2 9957   4.457   3.386   0.689
 3312SOL     OW 9958   4.725   1.896   1.154
 3312SOL    HW1 9959   4.662   1.824   1.123
 3312SOL    HW2 9960   4.818   1.860   1.154
 3313SOL     OW 9961   4.494   3.192   0.301
 3313SOL    HW1 9962   4.448   3.105   0.318
 3313SOL    HW2 9963   4.585   3.189   0.342
 3314SOL     OW 9964   4.342   3.429   1.284
 3314SOL    HW1 9965   4.337   3.511   1.341
 3314SOL    HW2 9966   4.431   3.426   1.239
 3315SOL     OW 9967   3.763   2.939   0.300
 3315SOL    HW1 9968   3.862   2.928   0.291
 3315SOL    HW2 9969   3.723   2.853   0.332
 3316SOL     OW 9970   4.599   3.508   0.337
 3316SOL    HW1 9971   4.522   3.473   0.283
 3316SOL    HW2 9972   4.567   3.579   0.399
 3317SOL     OW 9973   3.954   2.490   1.975
 3317SOL    HW1 9974   3.861   2.488   2.012
 3317SOL    HW2 9975   3.955   2.451   1.883
 3318SOL     OW 9976   3.949   2.137   2.858
 3318SOL    HW1 9977   3.984   2.120   2.950
 3318SOL    HW2 9978   3.861   2.092   2.846
 3319SOL     OW 9979   3.743   2.230   2.509
 3319SOL    HW1 9980   3.661   2.273   2.548
 3319SOL    HW2 9981   3.715   2.157   2.446
 3320SOL     OW 9982   4.293   3.137   3.027
 3320SOL    HW1 9983   4.200   3.130   2.990
 3320SOL    HW2 9984   4.304   3.226   3.071
 3321SOL     OW 9985   4.492   3.006   2.885
 3321SOL    HW1 9986   4.414   3.023   2.945
 3321SOL    HW2 9987   4.526   3.093   2.849
 3322SOL     OW 9988   4.574   2.660   3.685
 3322SOL    HW1 9989   4.570   2.736   3.750
 3322SOL    HW2 9990   4.596   2.696   3.594
 3323SOL     OW 9991   4.409   2.874   2.527
 3323SOL    HW1 9992   4.478   2.858   2.597
 3323SOL    HW2 9993   4.336   2.931   2.565
 3324SOL     OW 9994   4.410   3.023   3.665
 3324SOL    HW1 9995   4.470   3.102   3.679
 3324SOL    HW2 9996   4.324   3.054   3.624
 3325SOL     OW 9997   4.059   3.297   2.923
 3325SOL    HW1 9998   3.981   3.266   2.870
 3325SOL    HW2 9999   4.117   3.355   2.866
 3326SOL     OW10000   4.162   2.254   3.361
 3326SOL    HW110001   4.244   2.198   3.370
 3326SOL    HW210002   4.081   2.196   3.365
 3327SOL     OW10003   3.955   3.575   2.345
 3327SOL    HW110004   3.989   3.652   2.399
 3327SOL    HW210005   3.999   3.575   2.255
 3328SOL     OW10006   4.851   3.203   3.552
 3328SOL    HW110007   4.898   3.203   3.640
 3328SOL    HW210008   4.803   3.116   3.541
 3329SOL     OW10009   3.954   3.296   2.400
 3329SOL    HW110010   3.928   3.392   2.400
 3329SOL    HW210011   3.883   3.242   2.445
 3330SOL     OW10012   3.964   2.953   2.748
 3330SOL    HW110013   3.978   2.869   2.800
 3330SOL    HW210014   3.909   3.017   2.803
 3331SOL     OW10015   4.344   3.648   3.301
 3331SOL    HW110016   4.252   3.631   3.336
 3331SOL    HW210017   4.372   3.740   3.327
 3332SOL     OW10018   4.330   2.826   1.985
 3332SOL    HW110019   4.337   2.910   1.931
 3332SOL    HW210020   4.376   2.839   2.073
 3333SOL     OW10021   3.846   2.505   2.425
 3333SOL    HW110022   3.801   2.417   2.442
 3333SOL    HW210023   3.845   2.559   2.509
 3334SOL     OW10024   3.751   3.458   1.979
 3334SOL    HW110025   3.732   3.362   2.000
 3334SOL    HW210026   3.718   3.516   2.054
 3335SOL     OW10027   3.837   2.599   3.459
 3335SOL    HW110028   3.925   2.586   3.504
 3335SOL    HW210029   3.824   2.696   3.437
 3336SOL     OW10030   4.337   3.227   2.588
 3336SOL    HW110031   4.288   3.140   2.597
 3336SOL    HW210032   4.314   3.270   2.501
 3337SOL     OW10033   4.533   1.866   2.364
 3337SOL    HW110034   4.573   1.957   2.355
 3337SOL    HW210035   4.433   1.874   2.370
 3338SOL     OW10036   3.921   2.838   3.126
 3338SOL    HW110037   4.010   2.793   3.112
 3338SOL    HW210038   3.848   2.773   3.107
 3339SOL     OW10039   4.041   2.113   3.663
 3339SOL    HW110040   4.112   2.184   3.669
 3339SOL    HW210041   3.953   2.152   3.691
 3340SOL     OW10042   4.322   2.591   2.132
 3340SOL    HW110043   4.346   2.660   2.064
 3340SOL    HW210044   4.244   2.624   2.186
 3341SOL     OW10045   4.531   2.467   3.327
 3341SOL    HW110046   4.484   2.464   3.416
 3341SOL    HW210047   4.480   2.412   3.261
 3342SOL     OW10048   4.697   2.752   3.434
 3342SOL    HW110049   4.743   2.668   3.405
 3342SOL    HW210050   4.641   2.786   3.359
 3343SOL     OW10051   4.715   2.272   3.104
 3343SOL    HW110052   4.638   2.306   3.158
 3343SOL    HW210053   4.681   2.221   3.025
 3344SOL     OW10054   4.765   2.563   2.291
 3344SOL    HW110055   4.791   2.559   2.387
 3344SOL    HW210056   4.680   2.512   2.277
 3345SOL     OW10057   3.800   2.673   2.651
 3345SOL    HW110058   3.899   2.661   2.660
 3345SOL    HW210059   3.776   2.768   2.672
 3346SOL     OW10060   3.854   3.683   3.433
 3346SOL    HW110061   3.844   3.668   3.532
 3346SOL    HW210062   3.768   3.719   3.397
 3347SOL     OW10063   4.589   2.210   2.057
 3347SOL    HW110064   4.648   2.273   2.008
 3347SOL    HW210065   4.608   2.116   2.028
 3348SOL     OW10066   4.274   2.058   2.747
 3348SOL    HW110067   4.269   2.053   2.847
 3348SOL    HW210068   4.276   2.154   2.718
 3349SOL     OW10069   4.732   3.318   2.339
 3349SOL    HW110070   4.686   3.390   2.287
 3349SOL    HW210071   4.728   3.338   2.437
 3350SOL     OW10072   4.075   3.663   2.715
 3350SOL    HW110073   4.125   3.577   2.721
 3350SOL    HW210074   4.140   3.740   2.712
 3351SOL     OW10075   4.045   2.805   2.104
 3351SOL    HW110076   4.127   2.844   2.062
 3351SOL    HW210077   4.018   2.723   2.055
 3352SOL     OW10078   4.185   3.128   3.589
 3352SOL    HW110079   4.135   3.129   3.503
 3352SOL    HW210080   4.122   3.110   3.665
 3353SOL     OW10081   3.926   2.147   3.360
 3353SOL    HW110082   3.846   2.207   3.347
 3353SOL    HW210083   3.916   2.098   3.446
 3354SOL     OW10084   4.188   3.605   2.185
 3354SOL    HW110085   4.221   3.644   2.271
 3354SOL    HW210086   4.264   3.598   2.120
 3355SOL     OW10087   3.973   3.647   3.103
 3355SOL    HW110088   4.030   3.582   3.153
 3355SOL    HW210089   3.957   3.614   3.010
 3356SOL     OW10090   4.664   3.560   2.766
 3356SOL    HW110091   4.744   3.503   2.787
 3356SOL    HW210092   4.615   3.520   2.689
 3357SOL     OW10093   4.106   2.562   2.342
 3357SOL    HW110094   4.151   2.472   2.339
 3357SOL    HW210095   4.012   2.551   2.375
 3358SOL     OW10096   4.338   1.984   1.979
 3358SOL    HW110097   4.436   1.962   1.986
 3358SOL    HW210098   4.307   1.967   1.886
 3359SOL     OW10099   4.505   2.126   3.611
 3359SOL    HW110100   4.572   2.065   3.654
 3359SOL    HW210101   4.432   2.145   3.676
 3360SOL     OW10102   4.612   3.376   3.057
 3360SOL    HW110103   4.589   3.351   2.963
 3360SOL    HW210104   4.673   3.307   3.096
 3361SOL     OW10105   4.527   3.264   2.786
 3361SOL    HW110106   4.617   3.278   2.744
 3361SOL    HW210107   4.456   3.266   2.715
 3362SOL     OW10108   4.646   2.365   2.761
 3362SOL    HW110109   4.621   2.356   2.665
 3362SOL    HW210110   4.694   2.283   2.792
 3363SOL     OW10111   4.263   1.926   2.374
 3363SOL    HW110112   4.182   1.927   2.432
 3363SOL    HW210113   4.266   2.009   2.319
 3364SOL     OW10114   4.021   1.897   2.033
 3364SOL    HW110115   4.070   1.981   2.012
 3364SOL    HW210116   4.083   1.832   2.078
 3365SOL     OW10117   4.659   2.098   2.342
 3365SOL    HW110118   4.611   2.139   2.264
 3365SOL    HW210119   4.758   2.096   2.323
 3366SOL     OW10120   4.951   3.432   2.655
 3366SOL    HW110121   4.972   3.506   2.590
 3366SOL    HW210122   5.019   3.432   2.728
 3367SOL     OW10123   4.183   3.014   2.603
 3367SOL    HW110124   4.112   2.987   2.668
 3367SOL    HW210125   4.157   2.986   2.510
 3368SOL     OW10126   4.756   2.411   1.878
 3368SOL    HW110127   4.715   2.493   1.839
 3368SOL    HW210128   4.820   2.437   1.951
 3369SOL     OW10129   3.802   2.418   3.248
 3369SOL    HW110130   3.894   2.417   3.207
 3369SOL    HW210131   3.796   2.492   3.315
 3370SOL     OW10132   4.285   2.084   3.009
 3370SOL    HW110133   4.323   2.000   3.046
 3370SOL    HW210134   4.197   2.103   3.053
 3371SOL     OW10135   4.590   2.316   2.504
 3371SOL    HW110136   4.558   2.388   2.442
 3371SOL    HW210137   4.614   2.235   2.451
 3372SOL     OW10138   4.741   1.901   2.615
 3372SOL    HW110139   4.669   1.906   2.546
 3372SOL    HW210140   4.717   1.832   2.684
 3373SOL     OW10141   4.212   3.247   2.036
 3373SOL    HW110142   4.125   3.232   2.083
 3373SOL    HW210143   4.195   3.273   1.941
 3374SOL     OW10144   4.251   2.118   2.190
 3374SOL    HW110145   4.278   2.059   2.115
 3374SOL    HW210146   4.251   2.213   2.159
 3375SOL     OW10147   4.639   1.951   3.264
 3375SOL    HW110148   4.664   1.931   3.169
 3375SOL    HW210149   4.711   2.007   3.306
 3376SOL     OW10150   4.704   2.978   3.581
 3376SOL    HW110151   4.605   2.984   3.591
 3376SOL    HW210152   4.727   2.898   3.525
 3377SOL     OW10153   4.429   2.912   2.230
 3377SOL    HW110154   4.415   2.919   2.329
 3377SOL    HW210155   4.513   2.861   2.212
 3378SOL     OW10156   4.134   2.675   3.113
 3378SOL    HW110157   4.220   2.687   3.163
 3378SOL    HW210158   4.092   2.588   3.140
 3379SOL     OW10159   3.788   3.426   3.193
 3379SOL    HW110160   3.742   3.508   3.159
 3379SOL    HW210161   3.886   3.445   3.202
 3380SOL     OW10162   4.091   2.962   2.363
 3380SOL    HW110163   4.084   3.045   2.307
 3380SOL    HW210164   4.095   2.882   2.303
 3381SOL     OW10165   4.290   2.399   2.727
 3381SOL    HW110166   4.302   2.465   2.653
 3381SOL    HW210167   4.336   2.433   2.810
 3382SOL     OW10168   4.078   3.372   3.191
 3382SOL    HW110169   4.057   3.328   3.104
 3382SOL    HW210170   4.175   3.398   3.194
 3383SOL     OW10171   4.126   2.613   3.460
 3383SOL    HW110172   4.194   2.668   3.413
 3383SOL    HW210173   4.166   2.525   3.487
 3384SOL     OW10174   4.737   1.967   3.632
 3384SOL    HW110175   4.743   2.052   3.580
 3384SOL    HW210176   4.769   1.891   3.575
 3385SOL     OW10177   4.228   1.912   3.602
 3385SOL    HW110178   4.186   1.855   3.532
 3385SOL    HW210179   4.162   1.981   3.634
 3386SOL     OW10180   4.297   2.732   2.891
 3386SOL    HW110181   4.341   2.821   2.882
 3386SOL    HW210182   4.234   2.732   2.968
 3387SOL     OW10183   4.933   2.387   2.137
 3387SOL    HW110184   4.946   2.303   2.191
 3387SOL    HW210185   4.904   2.461   2.197
 3388SOL     OW10186   4.031   2.075   3.093
 3388SOL    HW110187   4.008   2.112   3.183
 3388SOL    HW210188   4.001   1.980   3.087
 3389SOL     OW10189   3.761   3.172   3.144
 3389SOL    HW110190   3.814   3.123   3.212
 3389SOL    HW210191   3.783   3.270   3.149
 3390SOL     OW10192   4.456   2.496   2.926
 3390SOL    HW110193   4.515   2.470   2.850
 3390SOL    HW210194   4.428   2.592   2.915
 3391SOL     OW10195   4.031   1.925   2.480
 3391SOL    HW110196   4.020   2.019   2.513
 3391SOL    HW210197   4.026   1.862   2.557
 3392SOL     OW10198   4.747   2.628   2.828
 3392SOL    HW110199   4.762   2.649   2.924
 3392SOL    HW210200   4.717   2.533   2.819
 3393SOL     OW10201   4.704   3.435   3.562
 3393SOL    HW110202   4.684   3.479   3.474
 3393SOL    HW210203   4.743   3.344   3.546
 3394SOL     OW10204   4.074   2.760   3.666
 3394SOL    HW110205   4.150   2.804   3.714
 3394SOL    HW210206   4.109   2.713   3.584
 3395SOL     OW10207   4.792   3.195   2.711
 3395SOL    HW110208   4.799   3.111   2.656
 3395SOL    HW210209   4.854   3.264   2.675
 3396SOL     OW10210   4.043   2.672   2.811
 3396SOL    HW110211   4.136   2.708   2.816
 3396SOL    HW210212   4.037   2.587   2.863
 3397SOL     OW10213   4.063   2.371   2.868
 3397SOL    HW110214   4.011   2.288   2.851
 3397SOL    HW210215   4.140   2.376   2.804
 3398SOL     OW10216   3.732   3.188   2.062
 3398SOL    HW110217   3.639   3.209   2.031
 3398SOL    HW210218   3.742   3.089   2.075
 3399SOL     OW10219   3.812   3.663   2.789
 3399SOL    HW110220   3.770   3.577   2.762
 3399SOL    HW210221   3.906   3.666   2.755
 3400SOL     OW10222   4.228   3.430   2.772
 3400SOL    HW110223   4.294   3.504   2.781
 3400SOL    HW210224   4.272   3.351   2.730
 3401SOL     OW10225   4.726   2.658   3.100
 3401SOL    HW110226   4.767   2.626   3.186
 3401SOL    HW210227   4.630   2.631   3.097
 3402SOL     OW10228   3.764   2.406   2.976
 3402SOL    HW110229   3.849   2.373   2.935
 3402SOL    HW210230   3.777   2.421   3.074
 3403SOL     OW10231   3.913   2.382   3.584
 3403SOL    HW110232   3.972   2.342   3.514
 3403SOL    HW210233   3.855   2.453   3.543
 3404SOL     OW10234   4.539   2.434   2.187
 3404SOL    HW110235   4.546   2.345   2.141
 3404SOL    HW210236   4.445   2.468   2.179
 3405SOL     OW10237   3.976   3.426   3.606
 3405SOL    HW110238   3.946   3.483   3.682
 3405SOL    HW210239   3.969   3.329   3.632
 3406SOL     OW10240   4.395   2.326   3.131
 3406SOL    HW110241   4.361   2.237   3.101
 3406SOL    HW210242   4.421   2.380   3.051
 3407SOL     OW10243   4.654   3.540   3.327
 3407SOL    HW110244   4.630   3.522   3.232
 3407SOL    HW210245   4.684   3.634   3.337
 3408SOL     OW10246   4.197   2.362   2.053
 3408SOL    HW110247   4.258   2.442   2.057
 3408SOL    HW210248   4.102   2.393   2.060
 3409SOL     OW10249   3.883   2.999   3.328
 3409SOL    HW110250   3.905   2.938   3.404
 3409SOL    HW210251   3.893   2.950   3.242
 3410SOL     OW10252   3.807   3.120   2.884
 3410SOL    HW110253   3.802   3.119   2.984
 3410SOL    HW210254   3.724   3.079   2.846
 3411SOL     OW10255   4.412   3.524   3.578
 3411SOL    HW110256   4.356   3.605   3.587
 3411SOL    HW210257   4.464   3.528   3.492
 3412SOL     OW10258   3.854   3.656   3.713
 3412SOL    HW110259   3.813   3.582   3.766
 3412SOL    HW210260   3.918   3.707   3.771
 3413SOL     OW10261   5.004   2.789   2.534
 3413SOL    HW110262   5.064   2.708   2.536
 3413SOL    HW210263   5.044   2.858   2.474
 3414SOL     OW10264   4.554   3.135   3.284
 3414SOL    HW110265   4.549   3.168   3.379
 3414SOL    HW210266   4.468   3.154   3.238
 3415SOL     OW10267   4.396   3.478   2.016
 3415SOL    HW110268   4.405   3.488   1.917
 3415SOL    HW210269   4.356   3.389   2.037
 3416SOL     OW10270   3.987   2.188   2.582
 3416SOL    HW110271   3.908   2.239   2.548
 3416SOL    HW210272   3.978   2.173   2.680
 3417SOL     OW10273   4.546   2.864   3.234
 3417SOL    HW110274   4.586   2.863   3.142
 3417SOL    HW210275   4.556   2.956   3.274
 3418SOL     OW10276   4.640   2.772   2.153
 3418SOL    HW110277   4.703   2.810   2.085
 3418SOL    HW210278   4.680   2.689   2.192
 3419SOL     OW10279   4.096   3.150   3.352
 3419SOL    HW110280   4.083   3.243   3.318
 3419SOL    HW210281   4.012   3.098   3.339
 3420SOL     OW10282   4.763   2.960   2.558
 3420SOL    HW110283   4.693   2.913   2.612
 3420SOL    HW210284   4.822   2.892   2.515
 3421SOL     OW10285   4.738   2.098   2.833
 3421SOL    HW110286   4.730   2.062   2.740
 3421SOL    HW210287   4.736   2.022   2.898
 3422SOL     OW10288   4.314   3.349   2.353
 3422SOL    HW110289   4.356   3.291   2.283
 3422SOL    HW210290   4.270   3.428   2.309
 3423SOL     OW10291   3.979   3.210   2.152
 3423SOL    HW110292   3.883   3.211   2.125
 3423SOL    HW210293   3.991   3.263   2.236
 3424SOL     OW10294   3.829   2.875   3.588
 3424SOL    HW110295   3.752   2.842   3.642
 3424SOL    HW210296   3.914   2.845   3.630
 3425SOL     OW10297   4.396   2.065   3.351
 3425SOL    HW110298   4.486   2.049   3.311
 3425SOL    HW210299   4.404   2.070   3.450
 3426SOL     OW10300   3.799   2.207   1.895
 3426SOL    HW110301   3.707   2.179   1.866
 3426SOL    HW210302   3.830   2.284   1.839
 3427SOL     OW10303   3.796   2.028   2.180
 3427SOL    HW110304   3.779   2.111   2.126
 3427SOL    HW210305   3.886   1.991   2.158
 3428SOL     OW10306   4.337   2.704   3.293
 3428SOL    HW110307   4.393   2.785   3.276
 3428SOL    HW210308   4.396   2.624   3.296
 3429SOL     OW10309   4.440   2.427   3.570
 3429SOL    HW110310   4.459   2.492   3.644
 3429SOL    HW210311   4.500   2.347   3.579
 3430SOL     OW10312   4.114   3.603   3.422
 3430SOL    HW110313   4.023   3.644   3.420
 3430SOL    HW210314   4.107   3.509   3.454
 3431SOL     OW10315   4.949   2.187   2.311
 3431SOL    HW110316   5.014   2.113   2.300
 3431SOL    HW210317   4.969   2.237   2.395
 3432SOL     OW10318   4.318   2.607   2.514
 3432SOL    HW110319   4.368   2.692   2.495
 3432SOL    HW210320   4.230   2.609   2.466
 3433SOL     OW10321   4.583   3.236   1.878
 3433SOL    HW110322   4.537   3.251   1.966
 3433SOL    HW210323   4.627   3.321   1.848
 3434SOL     OW10324   4.385   3.652   2.815
 3434SOL    HW110325   4.339   3.740   2.802
 3434SOL    HW210326   4.484   3.664   2.808
 3435SOL     OW10327   4.583   2.818   2.723
 3435SOL    HW110328   4.637   2.749   2.771
 3435SOL    HW210329   4.551   2.887   2.789
 3436SOL     OW10330   3.945   3.176   3.706
 3436SOL    HW110331   3.880   3.103   3.685
 3436SOL    HW210332   3.949   3.190   3.804
 3437SOL     OW10333   3.803   3.102   2.515
 3437SOL    HW110334   3.802   3.055   2.603
 3437SOL    HW210335   3.885   3.074   2.464
 3438SOL     OW10336   4.396   3.253   3.486
 3438SOL    HW110337   4.318   3.203   3.524
 3438SOL    HW210338   4.393   3.348   3.517
 3439SOL     OW10339   4.152   2.286   2.382
 3439SOL    HW110340   4.182   2.214   2.320
 3439SOL    HW210341   4.113   2.246   2.465
 3440SOL     OW10342   4.041   2.409   3.142
 3440SOL    HW110343   4.079   2.350   3.214
 3440SOL    HW210344   4.081   2.383   3.054
 3441SOL     OW10345   4.536   3.448   2.549
 3441SOL    HW110346   4.568   3.458   2.455
 3441SOL    HW210347   4.457   3.386   2.551
 3442SOL     OW10348   4.725   1.896   3.016
 3442SOL    HW110349   4.662   1.824   2.985
 3442SOL    HW210350   4.818   1.860   3.016
 3443SOL     OW10351   4.494   3.192   2.163
 3443SOL    HW110352   4.448   3.105   2.180
 3443SOL    HW210353   4.585   3.189   2.204
 3444SOL     OW10354   4.342   3.429   3.146
 3444SOL    HW110355   4.337   3.511   3.203
 3444SOL    HW210356   4.431   3.426   3.101
 3445SOL     OW10357   3.763   2.939   2.162
 3445SOL    HW110358   3.862   2.928   2.153
 3445SOL    HW210359   3.723   2.853   2.194
 3446SOL     OW10360   4.599   3.508   2.199
 3446SOL    HW110361   4.522   3.473   2.145
 3446SOL    HW210362   4.567   3.579   2.261
 3447SOL     OW10363   3.954   2.490   3.837
 3447SOL    HW110364   3.861   2.488   3.874
 3447SOL    HW210365   3.955   2.451   3.745
 3448SOL     OW10366   3.949   2.137   4.720
 3448SOL    HW110367   3.984   2.120   4.812
 3448SOL    HW210368   3.861   2.092   4.708
 3449SOL     OW10369   3.743   2.230   4.371
 3449SOL    HW110370   3.661   2.273   4.410
 3449SOL    HW210371   3.715   2.157   4.308
 3450SOL     OW10372   4.492   3.006   4.747
 3450SOL    HW110373   4.414   3.023   4.807
 3450SOL    HW210374   4.526   3.093   4.711
 3451SOL     OW10375   4.409   2.874   4.389
 3451SOL    HW110376   4.478   2.858   4.459
 3451SOL    HW210377   4.336   2.931   4.427
 3452SOL     OW10378   4.059   3.297   4.785
 3452SOL    HW110379   3.981   3.266   4.732
 3452SOL    HW210380   4.117   3.355   4.728
 3453SOL     OW10381   3.955   3.575   4.207
 3453SOL    HW110382   3.989   3.652   4.261
 3453SOL    HW210383   3.999   3.575   4.117
 3454SOL     OW10384   3.954   3.296   4.262
 3454SOL    HW110385   3.928   3.392   4.262
 3454SOL    HW210386   3.883   3.242   4.307
 3455SOL     OW10387   3.964   2.953   4.610
 3455SOL    HW110388   3.978   2.869   4.662
 3455SOL    HW210389   3.909   3.017   4.665
 3456SOL     OW10390   4.330   2.826   3.847
 3456SOL    HW110391   4.337   2.910   3.793
 3456SOL    HW210392   4.376   2.839   3.935
 3457SOL     OW10393   3.846   2.505   4.287
 3457SOL    HW110394   3.801   2.417   4.304
 3457SOL    HW210395   3.845   2.559   4.371
 3458SOL     OW10396   3.751   3.458   3.841
 3458SOL    HW110397   3.732   3.362   3.862
 3458SOL    HW210398   3.718   3.516   3.916
 3459SOL     OW10399   4.337   3.227   4.450
 3459SOL    HW110400   4.288   3.140   4.459
 3459SOL    HW210401   4.314   3.270   4.363
 3460SOL     OW10402   4.533   1.866   4.226
 3460SOL    HW110403   4.573   1.957   4.217
 3460SOL    HW210404   4.433   1.874   4.232
 3461SOL     OW10405   4.322   2.591   3.994
 3461SOL    HW110406   4.346   2.660   3.926
 3461SOL    HW210407   4.244   2.624   4.048
 3462SOL     OW10408   4.765   2.563   4.153
 3462SOL    HW110409   4.791   2.559   4.249
 3462SOL    HW210410   4.680   2.512   4.139
 3463SOL     OW10411   3.800   2.673   4.513
 3463SOL    HW110412   3.899   2.661   4.522
 3463SOL    HW210413   3.776   2.768   4.534
 3464SOL     OW10414   4.589   2.210   3.919
 3464SOL    HW110415   4.648   2.273   3.870
 3464SOL    HW210416   4.608   2.116   3.890
 3465SOL     OW10417   4.274   2.058   4.609
 3465SOL    HW110418   4.269   2.053   4.709
 3465SOL    HW210419   4.276   2.154   4.580
 3466SOL     OW10420   4.732   3.318   4.201
 3466SOL    HW110421   4.686   3.390   4.149
 3466SOL    HW210422   4.728   3.338   4.299
 3467SOL     OW10423   4.075   3.663   4.577
 3467SOL    HW110424   4.125   3.577   4.583
 3467SOL    HW210425   4.140   3.740   4.574
 3468SOL     OW10426   4.045   2.805   3.966
 3468SOL    HW110427   4.127   2.844   3.924
 3468SOL    HW210428   4.018   2.723   3.917
 3469SOL     OW10429   4.188   3.605   4.047
 3469SOL    HW110430   4.221   3.644   4.133
 3469SOL    HW210431   4.264   3.598   3.982
 3470SOL     OW10432   3.973   3.647   4.965
 3470SOL    HW110433   4.030   3.582   5.015
 3470SOL    HW210434   3.957   3.614   4.872
 3471SOL     OW10435   4.664   3.560   4.628
 3471SOL    HW110436   4.744   3.503   4.649
 3471SOL    HW210437   4.615   3.520   4.551
 3472SOL     OW10438   4.106   2.562   4.204
 3472SOL    HW110439   4.151   2.472   4.201
 3472SOL    HW210440   4.012   2.551   4.237
 3473SOL     OW10441   4.338   1.984   3.841
 3473SOL    HW110442   4.436   1.962   3.848
 3473SOL    HW210443   4.307   1.967   3.748
 3474SOL     OW10444   4.527   3.264   4.648
 3474SOL    HW110445   4.617   3.278   4.606
 3474SOL    HW210446   4.456   3.266   4.577
 3475SOL     OW10447   4.646   2.365   4.623
 3475SOL    HW110448   4.621   2.356   4.527
 3475SOL    HW210449   4.694   2.283   4.654
 3476SOL     OW10450   4.263   1.926   4.236
 3476SOL    HW110451   4.182   1.927   4.294
 3476SOL    HW210452   4.266   2.009   4.181
 3477SOL     OW10453   4.021   1.897   3.895
 3477SOL    HW110454   4.070   1.981   3.874
 3477SOL    HW210455   4.083   1.832   3.940
 3478SOL     OW10456   4.659   2.098   4.204
 3478SOL    HW110457   4.611   2.139   4.126
 3478SOL    HW210458   4.758   2.096   4.185
 3479SOL     OW10459   4.951   3.432   4.517
 3479SOL    HW110460   4.972   3.506   4.452
 3479SOL    HW210461   5.019   3.432   4.590
 3480SOL     OW10462   4.183   3.014   4.465
 3480SOL    HW110463   4.112   2.987   4.530
 3480SOL    HW210464   4.157   2.986   4.372
 3481SOL     OW10465   4.756   2.411   3.740
 3481SOL    HW110466   4.715   2.493   3.701
 3481SOL    HW210467   4.820   2.437   3.813
 3482SOL     OW10468   4.590   2.316   4.366
 3482SOL    HW110469   4.558   2.388   4.304
 3482SOL    HW210470   4.614   2.235   4.313
 3483SOL     OW10471   4.741   1.901   4.477
 3483SOL    HW110472   4.669   1.906   4.408
 3483SOL    HW210473   4.717   1.832   4.546
 3484SOL     OW10474   4.212   3.247   3.898
 3484SOL    HW110475   4.125   3.232   3.945
 3484SOL    HW210476   4.195   3.273   3.803
 3485SOL     OW10477   4.251   2.118   4.052
 3485SOL    HW110478   4.278   2.059   3.977
 3485SOL    HW210479   4.251   2.213   4.021
 3486SOL     OW10480   4.429   2.912   4.092
 3486SOL    HW110481   4.415   2.919   4.191
 3486SOL    HW210482   4.513   2.861   4.074
 3487SOL     OW10483   4.091   2.962   4.225
 3487SOL    HW110484   4.084   3.045   4.169
 3487SOL    HW210485   4.095   2.882   4.165
 3488SOL     OW10486   4.290   2.399   4.589
 3488SOL    HW110487   4.302   2.465   4.515
 3488SOL    HW210488   4.336   2.433   4.672
 3489SOL     OW10489   4.297   2.732   4.753
 3489SOL    HW110490   4.341   2.821   4.744
 3489SOL    HW210491   4.234   2.732   4.830
 3490SOL     OW10492   4.933   2.387   3.999
 3490SOL    HW110493   4.946   2.303   4.053
 3490SOL    HW210494   4.904   2.461   4.059
 3491SOL     OW10495   4.031   2.075   4.955
 3491SOL    HW110496   4.008   2.112   5.045
 3491SOL    HW210497   4.001   1.980   4.949
 3492SOL     OW10498   4.456   2.496   4.788
 3492SOL    HW110499   4.515   2.470   4.712
 3492SOL    HW210500   4.428   2.592   4.777
 3493SOL     OW10501   4.031   1.925   4.342
 3493SOL    HW110502   4.020   2.019   4.375
 3493SOL    HW210503   4.026   1.862   4.419
 3494SOL     OW10504   4.747   2.628   4.690
 3494SOL    HW110505   4.762   2.649   4.786
 3494SOL    HW210506   4.717   2.533   4.681
 3495SOL     OW10507   4.792   3.195   4.573
 3495SOL    HW110508   4.799   3.111   4.518
 3495SOL    HW210509   4.854   3.264   4.537
 3496SOL     OW10510   4.043   2.672   4.673
 3496SOL    HW110511   4.136   2.708   4.678
 3496SOL    HW210512   4.037   2.587   4.725
 3497SOL     OW10513   4.063   2.371   4.730
 3497SOL    HW110514   4.011   2.288   4.713
 3497SOL    HW210515   4.140   2.376   4.666
 3498SOL     OW10516   3.732   3.188   3.924
 3498SOL    HW110517   3.639   3.209   3.893
 3498SOL    HW210518   3.742   3.089   3.937
 3499SOL     OW10519   3.812   3.663   4.651
 3499SOL    HW110520   3.770   3.577   4.624
 3499SOL    HW210521   3.906   3.666   4.617
 3500SOL     OW10522   4.228   3.430   4.634
 3500SOL    HW110523   4.294   3.504   4.643
 3500SOL    HW210524   4.272   3.351   4.592
 3501SOL     OW10525   4.726   2.658   4.962
 3501SOL    HW110526   4.767   2.626   5.048
 3501SOL    HW210527   4.630   2.631   4.959
 3502SOL     OW10528   4.539   2.434   4.049
 3502SOL    HW110529   4.546   2.345   4.003
 3502SOL    HW210530   4.445   2.468   4.041
 3503SOL     OW10531   4.395   2.326   4.993
 3503SOL    HW110532   4.361   2.237   4.963
 3503SOL    HW210533   4.421   2.380   4.913
 3504SOL     OW10534   4.197   2.362   3.915
 3504SOL    HW110535   4.258   2.442   3.919
 3504SOL    HW210536   4.102   2.393   3.922
 3505SOL     OW10537   3.807   3.120   4.746
 3505SOL    HW110538   3.802   3.119   4.846
 3505SOL    HW210539   3.724   3.079   4.708
 3506SOL     OW10540   5.004   2.789   4.396
 3506SOL    HW110541   5.064   2.708   4.398
 3506SOL    HW210542   5.044   2.858   4.336
 3507SOL     OW10543   4.396   3.478   3.878
 3507SOL    HW110544   4.405   3.488   3.779
 3507SOL    HW210545   4.356   3.389   3.899
 3508SOL     OW10546   3.987   2.188   4.444
 3508SOL    HW110547   3.908   2.239   4.410
 3508SOL    HW210548   3.978   2.173   4.542
 3509SOL     OW10549   4.640   2.772   4.015
 3509SOL    HW110550   4.703   2.810   3.947
 3509SOL    HW210551   4.680   2.689   4.054
 3510SOL     OW10552   4.763   2.960   4.420
 3510SOL    HW110553   4.693   2.913   4.474
 3510SOL    HW210554   4.822   2.892   4.377
 3511SOL     OW10555   4.738   2.098   4.695
 3511SOL    HW110556   4.730   2.062   4.602
 3511SOL    HW210557   4.736   2.022   4.760
 3512SOL     OW10558   4.314   3.349   4.215
 3512SOL    HW110559   4.356   3.291   4.145
 3512SOL    HW210560   4.270   3.428   4.171
 3513SOL     OW10561   3.979   3.210   4.014
 3513SOL    HW110562   3.883   3.211   3.987
 3513SOL    HW210563   3.991   3.263   4.098
 3514SOL     OW10564   3.799   2.207   3.757
 3514SOL    HW110565   3.707   2.179   3.728
 3514SOL    HW210566   3.830   2.284   3.701
 3515SOL     OW10567   3.796   2.028   4.042
 3515SOL    HW110568   3.779   2.111   3.988
 3515SOL    HW210569   3.886   1.991   4.020
 3516SOL     OW10570   4.949   2.187   4.173
 3516SOL    HW110571   5.014   2.113   4.162
 3516SOL    HW210572   4.969   2.237   4.257
 3517SOL     OW10573   4.318   2.607   4.376
 3517SOL    HW110574   4.368   2.692   4.357
 3517SOL    HW210575   4.230   2.609   4.328
 3518SOL     OW10576   4.583   3.236   3.740
 3518SOL    HW110577   4.537   3.251   3.828
 3518SOL    HW210578   4.627   3.321   3.710
 3519SOL     OW10579   4.385   3.652   4.677
 3519SOL    HW110580   4.339   3.740   4.664
 3519SOL    HW210581   4.484   3.664   4.670
 3520SOL     OW10582   4.583   2.818   4.585
 3520SOL    HW110583   4.637   2.749   4.633
 3520SOL    HW210584   4.551   2.887   4.651
 3521SOL     OW10585   3.803   3.102   4.377
 3521SOL    HW110586   3.802   3.055   4.465
 3521SOL    HW210587   3.885   3.074   4.326
 3522SOL     OW10588   4.152   2.286   4.244
 3522SOL    HW110589   4.182   2.214   4.182
 3522SOL    HW210590   4.113   2.246   4.327
 3523SOL     OW10591   4.536   3.448   4.411
 3523SOL    HW110592   4.568   3.458   4.317
 3523SOL    HW210593   4.457   3.386   4.413
 3524SOL     OW10594   4.494   3.192   4.025
 3524SOL    HW110595   4.448   3.105   4.042
 3524SOL    HW210596   4.585   3.189   4.066
 3525SOL     OW10597   3.763   2.939   4.024
 3525SOL    HW110598   3.862   2.928   4.015
 3525SOL    HW210599   3.723   2.853   4.056
 3526SOL     OW10600   4.599   3.508   4.061
 3526SOL    HW110601   4.522   3.473   4.007
 3526SOL    HW210602   4.567   3.579   4.123
 3527SOL     OW10603   3.954   4.352   0.113
 3527SOL    HW110604   3.861   4.350   0.150
 3527SOL    HW210605   3.955   4.313   0.021
 3528SOL     OW10606   3.949   3.999   0.996
 3528SOL    HW110607   3.984   3.982   1.088
 3528SOL    HW210608   3.861   3.954   0.984
 3529SOL     OW10609   3.743   4.092   0.647
 3529SOL    HW110610   3.661   4.135   0.686
 3529SOL    HW210611   3.715   4.019   0.584
 3530SOL     OW10612   4.492   4.868   1.023
 3530SOL    HW110613   4.414   4.885   1.083
 3530SOL    HW210614   4.526   4.955   0.987
 3531SOL     OW10615   4.574   4.522   1.823
 3531SOL    HW110616   4.570   4.598   1.888
 3531SOL    HW210617   4.596   4.558   1.732
 3532SOL     OW10618   4.409   4.736   0.665
 3532SOL    HW110619   4.478   4.720   0.735
 3532SOL    HW210620   4.336   4.793   0.703
 3533SOL     OW10621   4.162   4.116   1.499
 3533SOL    HW110622   4.244   4.060   1.508
 3533SOL    HW210623   4.081   4.058   1.503
 3534SOL     OW10624   3.964   4.815   0.886
 3534SOL    HW110625   3.978   4.731   0.938
 3534SOL    HW210626   3.909   4.879   0.941
 3535SOL     OW10627   4.330   4.688   0.123
 3535SOL    HW110628   4.337   4.772   0.069
 3535SOL    HW210629   4.376   4.701   0.211
 3536SOL     OW10630   3.846   4.367   0.563
 3536SOL    HW110631   3.801   4.279   0.580
 3536SOL    HW210632   3.845   4.421   0.647
 3537SOL     OW10633   3.837   4.461   1.597
 3537SOL    HW110634   3.925   4.448   1.642
 3537SOL    HW210635   3.824   4.558   1.575
 3538SOL     OW10636   4.533   3.728   0.502
 3538SOL    HW110637   4.573   3.819   0.493
 3538SOL    HW210638   4.433   3.736   0.508
 3539SOL     OW10639   3.921   4.700   1.264
 3539SOL    HW110640   4.010   4.655   1.250
 3539SOL    HW210641   3.848   4.635   1.245
 3540SOL     OW10642   4.041   3.975   1.801
 3540SOL    HW110643   4.112   4.046   1.807
 3540SOL    HW210644   3.953   4.014   1.829
 3541SOL     OW10645   4.322   4.453   0.270
 3541SOL    HW110646   4.346   4.522   0.202
 3541SOL    HW210647   4.244   4.486   0.324
 3542SOL     OW10648   4.531   4.329   1.465
 3542SOL    HW110649   4.484   4.326   1.554
 3542SOL    HW210650   4.480   4.274   1.399
 3543SOL     OW10651   4.697   4.614   1.572
 3543SOL    HW110652   4.743   4.530   1.543
 3543SOL    HW210653   4.641   4.648   1.497
 3544SOL     OW10654   4.715   4.134   1.242
 3544SOL    HW110655   4.638   4.168   1.296
 3544SOL    HW210656   4.681   4.083   1.163
 3545SOL     OW10657   4.765   4.425   0.429
 3545SOL    HW110658   4.791   4.421   0.525
 3545SOL    HW210659   4.680   4.374   0.415
 3546SOL     OW10660   3.800   4.535   0.789
 3546SOL    HW110661   3.899   4.523   0.798
 3546SOL    HW210662   3.776   4.630   0.810
 3547SOL     OW10663   4.589   4.072   0.195
 3547SOL    HW110664   4.648   4.135   0.146
 3547SOL    HW210665   4.608   3.978   0.166
 3548SOL     OW10666   4.274   3.920   0.885
 3548SOL    HW110667   4.269   3.915   0.985
 3548SOL    HW210668   4.276   4.016   0.856
 3549SOL     OW10669   3.926   4.009   1.498
 3549SOL    HW110670   3.846   4.069   1.485
 3549SOL    HW210671   3.916   3.960   1.584
 3550SOL     OW10672   4.106   4.424   0.480
 3550SOL    HW110673   4.151   4.334   0.477
 3550SOL    HW210674   4.012   4.413   0.513
 3551SOL     OW10675   4.338   3.846   0.117
 3551SOL    HW110676   4.436   3.824   0.124
 3551SOL    HW210677   4.307   3.829   0.024
 3552SOL     OW10678   4.505   3.988   1.749
 3552SOL    HW110679   4.572   3.927   1.792
 3552SOL    HW210680   4.432   4.007   1.814
 3553SOL     OW10681   4.646   4.227   0.899
 3553SOL    HW110682   4.621   4.218   0.803
 3553SOL    HW210683   4.694   4.145   0.930
 3554SOL     OW10684   4.263   3.788   0.512
 3554SOL    HW110685   4.182   3.789   0.570
 3554SOL    HW210686   4.266   3.871   0.457
 3555SOL     OW10687   4.659   3.960   0.480
 3555SOL    HW110688   4.611   4.001   0.402
 3555SOL    HW210689   4.758   3.958   0.461
 3556SOL     OW10690   4.756   4.273   0.016
 3556SOL    HW110691   4.715   4.355  -0.023
 3556SOL    HW210692   4.820   4.299   0.089
 3557SOL     OW10693   3.802   4.280   1.386
 3557SOL    HW110694   3.894   4.279   1.345
 3557SOL    HW210695   3.796   4.354   1.453
 3558SOL     OW10696   4.285   3.946   1.147
 3558SOL    HW110697   4.323   3.862   1.184
 3558SOL    HW210698   4.197   3.965   1.191
 3559SOL     OW10699   4.590   4.178   0.642
 3559SOL    HW110700   4.558   4.250   0.580
 3559SOL    HW210701   4.614   4.097   0.589
 3560SOL     OW10702   4.741   3.763   0.753
 3560SOL    HW110703   4.669   3.768   0.684
 3560SOL    HW210704   4.717   3.694   0.822
 3561SOL     OW10705   4.251   3.980   0.328
 3561SOL    HW110706   4.278   3.921   0.253
 3561SOL    HW210707   4.251   4.075   0.297
 3562SOL     OW10708   4.639   3.813   1.402
 3562SOL    HW110709   4.664   3.793   1.307
 3562SOL    HW210710   4.711   3.869   1.444
 3563SOL     OW10711   4.134   4.537   1.251
 3563SOL    HW110712   4.220   4.549   1.301
 3563SOL    HW210713   4.092   4.450   1.278
 3564SOL     OW10714   4.290   4.261   0.865
 3564SOL    HW110715   4.302   4.327   0.791
 3564SOL    HW210716   4.336   4.295   0.948
 3565SOL     OW10717   4.126   4.475   1.598
 3565SOL    HW110718   4.194   4.530   1.551
 3565SOL    HW210719   4.166   4.387   1.625
 3566SOL     OW10720   4.737   3.829   1.770
 3566SOL    HW110721   4.743   3.914   1.718
 3566SOL    HW210722   4.769   3.753   1.713
 3567SOL     OW10723   4.228   3.774   1.740
 3567SOL    HW110724   4.186   3.717   1.670
 3567SOL    HW210725   4.162   3.843   1.772
 3568SOL     OW10726   4.297   4.594   1.029
 3568SOL    HW110727   4.341   4.683   1.020
 3568SOL    HW210728   4.234   4.594   1.106
 3569SOL     OW10729   4.933   4.249   0.275
 3569SOL    HW110730   4.946   4.165   0.329
 3569SOL    HW210731   4.904   4.323   0.335
 3570SOL     OW10732   4.031   3.937   1.231
 3570SOL    HW110733   4.008   3.974   1.321
 3570SOL    HW210734   4.001   3.842   1.225
 3571SOL     OW10735   4.456   4.358   1.064
 3571SOL    HW110736   4.515   4.332   0.988
 3571SOL    HW210737   4.428   4.454   1.053
 3572SOL     OW10738   4.031   3.787   0.618
 3572SOL    HW110739   4.020   3.881   0.651
 3572SOL    HW210740   4.026   3.724   0.695
 3573SOL     OW10741   4.747   4.490   0.966
 3573SOL    HW110742   4.762   4.511   1.062
 3573SOL    HW210743   4.717   4.395   0.957
 3574SOL     OW10744   4.074   4.622   1.804
 3574SOL    HW110745   4.150   4.666   1.852
 3574SOL    HW210746   4.109   4.575   1.722
 3575SOL     OW10747   4.043   4.534   0.949
 3575SOL    HW110748   4.136   4.570   0.954
 3575SOL    HW210749   4.037   4.449   1.001
 3576SOL     OW10750   4.063   4.233   1.006
 3576SOL    HW110751   4.011   4.150   0.989
 3576SOL    HW210752   4.140   4.238   0.942
 3577SOL     OW10753   4.726   4.520   1.238
 3577SOL    HW110754   4.767   4.488   1.324
 3577SOL    HW210755   4.630   4.493   1.235
 3578SOL     OW10756   3.764   4.268   1.114
 3578SOL    HW110757   3.849   4.235   1.073
 3578SOL    HW210758   3.777   4.283   1.212
 3579SOL     OW10759   3.913   4.244   1.722
 3579SOL    HW110760   3.972   4.204   1.652
 3579SOL    HW210761   3.855   4.315   1.681
 3580SOL     OW10762   4.539   4.296   0.325
 3580SOL    HW110763   4.546   4.207   0.279
 3580SOL    HW210764   4.445   4.330   0.317
 3581SOL     OW10765   4.395   4.188   1.269
 3581SOL    HW110766   4.361   4.099   1.239
 3581SOL    HW210767   4.421   4.242   1.189
 3582SOL     OW10768   4.197   4.224   0.191
 3582SOL    HW110769   4.258   4.304   0.195
 3582SOL    HW210770   4.102   4.255   0.198
 3583SOL     OW10771   3.883   4.861   1.466
 3583SOL    HW110772   3.905   4.800   1.542
 3583SOL    HW210773   3.893   4.812   1.380
 3584SOL     OW10774   4.627   3.810   0.133
 3584SOL    HW110775   4.678   3.811   0.047
 3584SOL    HW210776   4.683   3.768   0.204
 3585SOL     OW10777   5.004   4.651   0.672
 3585SOL    HW110778   5.064   4.570   0.674
 3585SOL    HW210779   5.044   4.720   0.612
 3586SOL     OW10780   3.987   4.050   0.720
 3586SOL    HW110781   3.908   4.101   0.686
 3586SOL    HW210782   3.978   4.035   0.818
 3587SOL     OW10783   4.640   4.634   0.291
 3587SOL    HW110784   4.703   4.672   0.223
 3587SOL    HW210785   4.680   4.551   0.330
 3588SOL     OW10786   4.738   3.960   0.971
 3588SOL    HW110787   4.730   3.924   0.878
 3588SOL    HW210788   4.736   3.884   1.036
 3589SOL     OW10789   3.829   4.737   1.726
 3589SOL    HW110790   3.752   4.704   1.780
 3589SOL    HW210791   3.914   4.707   1.768
 3590SOL     OW10792   4.396   3.927   1.489
 3590SOL    HW110793   4.486   3.911   1.449
 3590SOL    HW210794   4.404   3.932   1.588
 3591SOL     OW10795   3.799   4.069   0.033
 3591SOL    HW110796   3.707   4.041   0.004
 3591SOL    HW210797   3.830   4.146  -0.023
 3592SOL     OW10798   3.796   3.890   0.318
 3592SOL    HW110799   3.779   3.973   0.264
 3592SOL    HW210800   3.886   3.853   0.296
 3593SOL     OW10801   4.337   4.566   1.431
 3593SOL    HW110802   4.393   4.647   1.414
 3593SOL    HW210803   4.396   4.486   1.434
 3594SOL     OW10804   4.440   4.289   1.708
 3594SOL    HW110805   4.459   4.354   1.782
 3594SOL    HW210806   4.500   4.209   1.717
 3595SOL     OW10807   4.949   4.049   0.449
 3595SOL    HW110808   5.014   3.975   0.438
 3595SOL    HW210809   4.969   4.099   0.533
 3596SOL     OW10810   4.318   4.469   0.652
 3596SOL    HW110811   4.368   4.554   0.633
 3596SOL    HW210812   4.230   4.471   0.604
 3597SOL     OW10813   4.583   4.680   0.861
 3597SOL    HW110814   4.637   4.611   0.909
 3597SOL    HW210815   4.551   4.749   0.927
 3598SOL     OW10816   4.152   4.148   0.520
 3598SOL    HW110817   4.182   4.076   0.458
 3598SOL    HW210818   4.113   4.108   0.603
 3599SOL     OW10819   4.041   4.271   1.280
 3599SOL    HW110820   4.079   4.212   1.352
 3599SOL    HW210821   4.081   4.245   1.192
 3600SOL     OW10822   4.725   3.758   1.154
 3600SOL    HW110823   4.662   3.686   1.123
 3600SOL    HW210824   4.818   3.722   1.154
 3601SOL     OW10825   3.763   4.801   0.300
 3601SOL    HW110826   3.862   4.790   0.291
 3601SOL    HW210827   3.723   4.715   0.332
 3602SOL     OW10828   3.954   4.352   1.975
 3602SOL    HW110829   3.861   4.350   2.012
 3602SOL    HW210830   3.955   4.313   1.883
 3603SOL     OW10831   3.949   3.999   2.858
 3603SOL    HW110832   3.984   3.982   2.950
 3603SOL    HW210833   3.861   3.954   2.846
 3604SOL     OW10834   3.743   4.092   2.509
 3604SOL    HW110835   3.661   4.135   2.548
 3604SOL    HW210836   3.715   4.019   2.446
 3605SOL     OW10837   4.492   4.868   2.885
 3605SOL    HW110838   4.414   4.885   2.945
 3605SOL    HW210839   4.526   4.955   2.849
 3606SOL     OW10840   4.574   4.522   3.685
 3606SOL    HW110841   4.570   4.598   3.750
 3606SOL    HW210842   4.596   4.558   3.594
 3607SOL     OW10843   4.409   4.736   2.527
 3607SOL    HW110844   4.478   4.720   2.597
 3607SOL    HW210845   4.336   4.793   2.565
 3608SOL     OW10846   4.162   4.116   3.361
 3608SOL    HW110847   4.244   4.060   3.370
 3608SOL    HW210848   4.081   4.058   3.365
 3609SOL     OW10849   3.964   4.815   2.748
 3609SOL    HW110850   3.978   4.731   2.800
 3609SOL    HW210851   3.909   4.879   2.803
 3610SOL     OW10852   4.330   4.688   1.985
 3610SOL    HW110853   4.337   4.772   1.931
 3610SOL    HW210854   4.376   4.701   2.073
 3611SOL     OW10855   3.846   4.367   2.425
 3611SOL    HW110856   3.801   4.279   2.442
 3611SOL    HW210857   3.845   4.421   2.509
 3612SOL     OW10858   3.837   4.461   3.459
 3612SOL    HW110859   3.925   4.448   3.504
 3612SOL    HW210860   3.824   4.558   3.437
 3613SOL     OW10861   4.533   3.728   2.364
 3613SOL    HW110862   4.573   3.819   2.355
 3613SOL    HW210863   4.433   3.736   2.370
 3614SOL     OW10864   3.921   4.700   3.126
 3614SOL    HW110865   4.010   4.655   3.112
 3614SOL    HW210866   3.848   4.635   3.107
 3615SOL     OW10867   4.041   3.975   3.663
 3615SOL    HW110868   4.112   4.046   3.669
 3615SOL    HW210869   3.953   4.014   3.691
 3616SOL     OW10870   4.322   4.453   2.132
 3616SOL    HW110871   4.346   4.522   2.064
 3616SOL    HW210872   4.244   4.486   2.186
 3617SOL     OW10873   4.531   4.329   3.327
 3617SOL    HW110874   4.484   4.326   3.416
 3617SOL    HW210875   4.480   4.274   3.261
 3618SOL     OW10876   4.697   4.614   3.434
 3618SOL    HW110877   4.743   4.530   3.405
 3618SOL    HW210878   4.641   4.648   3.359
 3619SOL     OW10879   4.715   4.134   3.104
 3619SOL    HW110880   4.638   4.168   3.158
 3619SOL    HW210881   4.681   4.083   3.025
 3620SOL     OW10882   4.765   4.425   2.291
 3620SOL    HW110883   4.791   4.421   2.387
 3620SOL    HW210884   4.680   4.374   2.277
 3621SOL     OW10885   3.800   4.535   2.651
 3621SOL    HW110886   3.899   4.523   2.660
 3621SOL    HW210887   3.776   4.630   2.672
 3622SOL     OW10888   4.589   4.072   2.057
 3622SOL    HW110889   4.648   4.135   2.008
 3622SOL    HW210890   4.608   3.978   2.028
 3623SOL     OW10891   4.274   3.920   2.747
 3623SOL    HW110892   4.269   3.915   2.847
 3623SOL    HW210893   4.276   4.016   2.718
 3624SOL     OW10894   3.926   4.009   3.360
 3624SOL    HW110895   3.846   4.069   3.347
 3624SOL    HW210896   3.916   3.960   3.446
 3625SOL     OW10897   4.106   4.424   2.342
 3625SOL    HW110898   4.151   4.334   2.339
 3625SOL    HW210899   4.012   4.413   2.375
 3626SOL     OW10900   4.338   3.846   1.979
 3626SOL    HW110901   4.436   3.824   1.986
 3626SOL    HW210902   4.307   3.829   1.886
 3627SOL     OW10903   4.505   3.988   3.611
 3627SOL    HW110904   4.572   3.927   3.654
 3627SOL    HW210905   4.432   4.007   3.676
 3628SOL     OW10906   4.646   4.227   2.761
 3628SOL    HW110907   4.621   4.218   2.665
 3628SOL    HW210908   4.694   4.145   2.792
 3629SOL     OW10909   4.263   3.788   2.374
 3629SOL    HW110910   4.182   3.789   2.432
 3629SOL    HW210911   4.266   3.871   2.319
 3630SOL     OW10912   4.021   3.759   2.033
 3630SOL    HW110913   4.070   3.843   2.012
 3630SOL    HW210914   4.083   3.694   2.078
 3631SOL     OW10915   4.659   3.960   2.342
 3631SOL    HW110916   4.611   4.001   2.264
 3631SOL    HW210917   4.758   3.958   2.323
 3632SOL     OW10918   4.756   4.273   1.878
 3632SOL    HW110919   4.715   4.355   1.839
 3632SOL    HW210920   4.820   4.299   1.951
 3633SOL     OW10921   3.802   4.280   3.248
 3633SOL    HW110922   3.894   4.279   3.207
 3633SOL    HW210923   3.796   4.354   3.315
 3634SOL     OW10924   4.285   3.946   3.009
 3634SOL    HW110925   4.323   3.862   3.046
 3634SOL    HW210926   4.197   3.965   3.053
 3635SOL     OW10927   4.590   4.178   2.504
 3635SOL    HW110928   4.558   4.250   2.442
 3635SOL    HW210929   4.614   4.097   2.451
 3636SOL     OW10930   4.741   3.763   2.615
 3636SOL    HW110931   4.669   3.768   2.546
 3636SOL    HW210932   4.717   3.694   2.684
 3637SOL     OW10933   4.251   3.980   2.190
 3637SOL    HW110934   4.278   3.921   2.115
 3637SOL    HW210935   4.251   4.075   2.159
 3638SOL     OW10936   4.639   3.813   3.264
 3638SOL    HW110937   4.664   3.793   3.169
 3638SOL    HW210938   4.711   3.869   3.306
 3639SOL     OW10939   4.134   4.537   3.113
 3639SOL    HW110940   4.220   4.549   3.163
 3639SOL    HW210941   4.092   4.450   3.140
 3640SOL     OW10942   4.290   4.261   2.727
 3640SOL    HW110943   4.302   4.327   2.653
 3640SOL    HW210944   4.336   4.295   2.810
 3641SOL     OW10945   4.126   4.475   3.460
 3641SOL    HW110946   4.194   4.530   3.413
 3641SOL    HW210947   4.166   4.387   3.487
 3642SOL     OW10948   4.737   3.829   3.632
 3642SOL    HW110949   4.743   3.914   3.580
 3642SOL    HW210950   4.769   3.753   3.575
 3643SOL     OW10951   4.228   3.774   3.602
 3643SOL    HW110952   4.186   3.717   3.532
 3643SOL    HW210953   4.162   3.843   3.634
 3644SOL     OW10954   4.297   4.594   2.891
 3644SOL    HW110955   4.341   4.683   2.882
 3644SOL    HW210956   4.234   4.594   2.968
 3645SOL     OW10957   4.933   4.249   2.137
 3645SOL    HW110958   4.946   4.165   2.191
 3645SOL    HW210959   4.904   4.323   2.197
 3646SOL     OW10960   4.031   3.937   3.093
 3646SOL    HW110961   4.008   3.974   3.183
 3646SOL    HW210962   4.001   3.842   3.087
 3647SOL     OW10963   4.456   4.358   2.926
 3647SOL    HW110964   4.515   4.332   2.850
 3647SOL    HW210965   4.428   4.454   2.915
 3648SOL     OW10966   4.031   3.787   2.480
 3648SOL    HW110967   4.020   3.881   2.513
 3648SOL    HW210968   4.026   3.724   2.557
 3649SOL     OW10969   4.747   4.490   2.828
 3649SOL    HW110970   4.762   4.511   2.924
 3649SOL    HW210971   4.717   4.395   2.819
 3650SOL     OW10972   4.074   4.622   3.666
 3650SOL    HW110973   4.150   4.666   3.714
 3650SOL    HW210974   4.109   4.575   3.584
 3651SOL     OW10975   4.043   4.534   2.811
 3651SOL    HW110976   4.136   4.570   2.816
 3651SOL    HW210977   4.037   4.449   2.863
 3652SOL     OW10978   4.063   4.233   2.868
 3652SOL    HW110979   4.011   4.150   2.851
 3652SOL    HW210980   4.140   4.238   2.804
 3653SOL     OW10981   4.726   4.520   3.100
 3653SOL    HW110982   4.767   4.488   3.186
 3653SOL    HW210983   4.630   4.493   3.097
 3654SOL     OW10984   3.764   4.268   2.976
 3654SOL    HW110985   3.849   4.235   2.935
 3654SOL    HW210986   3.777   4.283   3.074
 3655SOL     OW10987   3.913   4.244   3.584
 3655SOL    HW110988   3.972   4.204   3.514
 3655SOL    HW210989   3.855   4.315   3.543
 3656SOL     OW10990   4.539   4.296   2.187
 3656SOL    HW110991   4.546   4.207   2.141
 3656SOL    HW210992   4.445   4.330   2.179
 3657SOL     OW10993   4.395   4.188   3.131
 3657SOL    HW110994   4.361   4.099   3.101
 3657SOL    HW210995   4.421   4.242   3.051
 3658SOL     OW10996   4.197   4.224   2.053
 3658SOL    HW110997   4.258   4.304   2.057
 3658SOL    HW210998   4.102   4.255   2.060
 3659SOL     OW10999   3.883   4.861   3.328
 3659SOL    HW111000   3.905   4.800   3.404
 3659SOL    HW211001   3.893   4.812   3.242
 3660SOL     OW11002   5.026   4.579   2.171
 3660SOL    HW111003   4.940   4.548   2.213
 3660SOL    HW211004   5.022   4.565   2.072
 3661SOL     OW11005   5.004   4.651   2.534
 3661SOL    HW111006   5.064   4.570   2.536
 3661SOL    HW211007   5.044   4.720   2.474
 3662SOL     OW11008   3.987   4.050   2.582
 3662SOL    HW111009   3.908   4.101   2.548
 3662SOL    HW211010   3.978   4.035   2.680
 3663SOL     OW11011   4.640   4.634   2.153
 3663SOL    HW111012   4.703   4.672   2.085
 3663SOL    HW211013   4.680   4.551   2.192
 3664SOL     OW11014   4.738   3.960   2.833
 3664SOL    HW111015   4.730   3.924   2.740
 3664SOL    HW211016   4.736   3.884   2.898
 3665SOL     OW11017   3.829   4.737   3.588
 3665SOL    HW111018   3.752   4.704   3.642
 3665SOL    HW211019   3.914   4.707   3.630
 3666SOL     OW11020   4.396   3.927   3.351
 3666SOL    HW111021   4.486   3.911   3.311
 3666SOL    HW211022   4.404   3.932   3.450
 3667SOL     OW11023   3.799   4.069   1.895
 3667SOL    HW111024   3.707   4.041   1.866
 3667SOL    HW211025   3.830   4.146   1.839
 3668SOL     OW11026   3.796   3.890   2.180
 3668SOL    HW111027   3.779   3.973   2.126
 3668SOL    HW211028   3.886   3.853   2.158
 3669SOL     OW11029   4.337   4.566   3.293
 3669SOL    HW111030   4.393   4.647   3.276
 3669SOL    HW211031   4.396   4.486   3.296
 3670SOL     OW11032   4.440   4.289   3.570
 3670SOL    HW111033   4.459   4.354   3.644
 3670SOL    HW211034   4.500   4.209   3.579
 3671SOL     OW11035   4.949   4.049   2.311
 3671SOL    HW111036   5.014   3.975   2.300
 3671SOL    HW211037   4.969   4.099   2.395
 3672SOL     OW11038   4.318   4.469   2.514
 3672SOL    HW111039   4.368   4.554   2.495
 3672SOL    HW211040   4.230   4.471   2.466
 3673SOL     OW11041   4.583   4.680   2.723
 3673SOL    HW111042   4.637   4.611   2.771
 3673SOL    HW211043   4.551   4.749   2.789
 3674SOL     OW11044   4.152   4.148   2.382
 3674SOL    HW111045   4.182   4.076   2.320
 3674SOL    HW211046   4.113   4.108   2.465
 3675SOL     OW11047   4.041   4.271   3.142
 3675SOL    HW111048   4.079   4.212   3.214
 3675SOL    HW211049   4.081   4.245   3.054
 3676SOL     OW11050   4.725   3.758   3.016
 3676SOL    HW111051   4.662   3.686   2.985
 3676SOL    HW211052   4.818   3.722   3.016
 3677SOL     OW11053   3.763   4.801   2.162
 3677SOL    HW111054   3.862   4.790   2.153
 3677SOL    HW211055   3.723   4.715   2.194
 3678SOL     OW11056   3.954   4.352   3.837
 3678SOL    HW111057   3.861   4.350   3.874
 3678SOL    HW211058   3.955   4.313   3.745
 3679SOL     OW11059   3.949   3.999   4.720
 3679SOL    HW111060   3.984   3.982   4.812
 3679SOL    HW211061   3.861   3.954   4.708
 3680SOL     OW11062   3.743   4.092   4.371
 3680SOL    HW111063   3.661   4.135   4.410
 3680SOL    HW211064   3.715   4.019   4.308
 3681SOL     OW11065   4.409   4.736   4.389
 3681SOL    HW111066   4.478   4.720   4.459
 3681SOL    HW211067   4.336   4.793   4.427
 3682SOL     OW11068   3.964   4.815   4.610
 3682SOL    HW111069   3.978   4.731   4.662
 3682SOL    HW211070   3.909   4.879   4.665
 3683SOL     OW11071   4.330   4.688   3.847
 3683SOL    HW111072   4.337   4.772   3.793
 3683SOL    HW211073   4.376   4.701   3.935
 3684SOL     OW11074   3.846   4.367   4.287
 3684SOL    HW111075   3.801   4.279   4.304
 3684SOL    HW211076   3.845   4.421   4.371
 3685SOL     OW11077   4.533   3.728   4.226
 3685SOL    HW111078   4.573   3.819   4.217
 3685SOL    HW211079   4.433   3.736   4.232
 3686SOL     OW11080   3.921   4.700   4.988
 3686SOL    HW111081   4.010   4.655   4.974
 3686SOL    HW211082   3.848   4.635   4.969
 3687SOL     OW11083   4.322   4.453   3.994
 3687SOL    HW111084   4.346   4.522   3.926
 3687SOL    HW211085   4.244   4.486   4.048
 3688SOL     OW11086   4.765   4.425   4.153
 3688SOL    HW111087   4.791   4.421   4.249
 3688SOL    HW211088   4.680   4.374   4.139
 3689SOL     OW11089   3.800   4.535   4.513
 3689SOL    HW111090   3.899   4.523   4.522
 3689SOL    HW211091   3.776   4.630   4.534
 3690SOL     OW11092   4.589   4.072   3.919
 3690SOL    HW111093   4.648   4.135   3.870
 3690SOL    HW211094   4.608   3.978   3.890
 3691SOL     OW11095   4.274   3.920   4.609
 3691SOL    HW111096   4.269   3.915   4.709
 3691SOL    HW211097   4.276   4.016   4.580
 3692SOL     OW11098   4.106   4.424   4.204
 3692SOL    HW111099   4.151   4.334   4.201
 3692SOL    HW211100   4.012   4.413   4.237
 3693SOL     OW11101   4.338   3.846   3.841
 3693SOL    HW111102   4.436   3.824   3.848
 3693SOL    HW211103   4.307   3.829   3.748
 3694SOL     OW11104   4.646   4.227   4.623
 3694SOL    HW111105   4.621   4.218   4.527
 3694SOL    HW211106   4.694   4.145   4.654
 3695SOL     OW11107   4.263   3.788   4.236
 3695SOL    HW111108   4.182   3.789   4.294
 3695SOL    HW211109   4.266   3.871   4.181
 3696SOL     OW11110   4.021   3.759   3.895
 3696SOL    HW111111   4.070   3.843   3.874
 3696SOL    HW211112   4.083   3.694   3.940
 3697SOL     OW11113   4.659   3.960   4.204
 3697SOL    HW111114   4.611   4.001   4.126
 3697SOL    HW211115   4.758   3.958   4.185
 3698SOL     OW11116   4.756   4.273   3.740
 3698SOL    HW111117   4.715   4.355   3.701
 3698SOL    HW211118   4.820   4.299   3.813
 3699SOL     OW11119   4.590   4.178   4.366
 3699SOL    HW111120   4.558   4.250   4.304
 3699SOL    HW211121   4.614   4.097   4.313
 3700SOL     OW11122   4.741   3.763   4.477
 3700SOL    HW111123   4.669   3.768   4.408
 3700SOL    HW211124   4.717   3.694   4.546
 3701SOL     OW11125   4.251   3.980   4.052
 3701SOL    HW111126   4.278   3.921   3.977
 3701SOL    HW211127   4.251   4.075   4.021
 3702SOL     OW11128   4.290   4.261   4.589
 3702SOL    HW111129   4.302   4.327   4.515
 3702SOL    HW211130   4.336   4.295   4.672
 3703SOL     OW11131   4.297   4.594   4.753
 3703SOL    HW111132   4.341   4.683   4.744
 3703SOL    HW211133   4.234   4.594   4.830
 3704SOL     OW11134   4.933   4.249   3.999
 3704SOL    HW111135   4.946   4.165   4.053
 3704SOL    HW211136   4.904   4.323   4.059
 3705SOL     OW11137   4.031   3.937   4.955
 3705SOL    HW111138   4.008   3.974   5.045
 3705SOL    HW211139   4.001   3.842   4.949
 3706SOL     OW11140   4.456   4.358   4.788
 3706SOL    HW111141   4.515   4.332   4.712
 3706SOL    HW211142   4.428   4.454   4.777
 3707SOL     OW11143   4.031   3.787   4.342
 3707SOL    HW111144   4.020   3.881   4.375
 3707SOL    HW211145   4.026   3.724   4.419
 3708SOL     OW11146   4.747   4.490   4.690
 3708SOL    HW111147   4.762   4.511   4.786
 3708SOL    HW211148   4.717   4.395   4.681
 3709SOL     OW11149   4.043   4.534   4.673
 3709SOL    HW111150   4.136   4.570   4.678
 3709SOL    HW211151   4.037   4.449   4.725
 3710SOL     OW11152   4.063   4.233   4.730
 3710SOL    HW111153   4.011   4.150   4.713
 3710SOL    HW211154   4.140   4.238   4.666
 3711SOL     OW11155   4.726   4.520   4.962
 3711SOL    HW111156   4.767   4.488   5.048
 3711SOL    HW211157   4.630   4.493   4.959
 3712SOL     OW11158   4.539   4.296   4.049
 3712SOL    HW111159   4.546   4.207   4.003
 3712SOL    HW211160   4.445   4.330   4.041
 3713SOL     OW11161   4.395   4.188   4.993
 3713SOL    HW111162   4.361   4.099   4.963
 3713SOL    HW211163   4.421   4.242   4.913
 3714SOL     OW11164   4.197   4.224   3.915
 3714SOL    HW111165   4.258   4.304   3.919
 3714SOL    HW211166   4.102   4.255   3.922
 3715SOL     OW11167   5.026   4.579   4.033
 3715SOL    HW111168   4.940   4.548   4.075
 3715SOL    HW211169   5.022   4.565   3.934
 3716SOL     OW11170   5.004   4.651   4.396
 3716SOL    HW111171   5.064   4.570   4.398
 3716SOL    HW211172   5.044   4.720   4.336
 3717SOL     OW11173   3.987   4.050   4.444
 3717SOL    HW111174   3.908   4.101   4.410
 3717SOL    HW211175   3.978   4.035   4.542
 3718SOL     OW11176   4.640   4.634   4.015
 3718SOL    HW111177   4.703   4.672   3.947
 3718SOL    HW211178   4.680   4.551   4.054
 3719SOL     OW11179   4.738   3.960   4.695
 3719SOL    HW111180   4.730   3.924   4.602
 3719SOL    HW211181   4.736   3.884   4.760
 3720SOL     OW11182   3.799   4.069   3.757
 3720SOL    HW111183   3.707   4.041   3.728
 3720SOL    HW211184   3.830   4.146   3.701
 3721SOL     OW11185   3.796   3.890   4.042
 3721SOL    HW111186   3.779   3.973   3.988
 3721SOL    HW211187   3.886   3.853   4.020
 3722SOL     OW11188   4.949   4.049   4.173
 3722SOL    HW111189   5.014   3.975   4.162
 3722SOL    HW211190   4.969   4.099   4.257
 3723SOL     OW11191   4.318   4.469   4.376
 3723SOL    HW111192   4.368   4.554   4.357
 3723SOL    HW211193   4.230   4.471   4.328
 3724SOL     OW11194   4.583   4.680   4.585
 3724SOL    HW111195   4.637   4.611   4.633
 3724SOL    HW211196   4.551   4.749   4.651
 3725SOL     OW11197   4.152   4.148   4.244
 3725SOL    HW111198   4.182   4.076   4.182
 3725SOL    HW211199   4.113   4.108   4.327
 3726SOL     OW11200   3.763   4.801   4.024
 3726SOL    HW111201   3.862   4.790   4.015
 3726SOL    HW211202   3.723   4.715   4.056
   4.83683   4.83683   4.83683
