mobley_7364468_GMX.gro created by acpype (v: 2023.10.27) on Wed May 20 23:57:03 2026
 24
    1  MOL   C1    1   0.189  -0.132   0.220
    1  MOL   C2    2   0.105  -0.152   0.117
    1  MOL   C3    3   0.269  -0.007   0.229
    1  MOL   C4    4   0.089  -0.054   0.004
    1  MOL   C5    5   0.247   0.101   0.125
    1  MOL   C6    6   0.208   0.044  -0.012
    1  MOL   C7    7   0.020  -0.276   0.109
    1  MOL   C8    8   0.328  -0.028  -0.076
    1  MOL   C9    9   0.166   0.159  -0.105
    1  MOL   O1   10   0.345   0.008   0.325
    1  MOL   H1   11   0.202  -0.202   0.301
    1  MOL   H2   12   0.074  -0.108  -0.090
    1  MOL   H3   13  -0.004   0.003   0.022
    1  MOL   H4   14   0.169   0.168   0.164
    1  MOL   H5   15   0.340   0.159   0.117
    1  MOL   H6   16  -0.086  -0.248   0.106
    1  MOL   H7   17   0.035  -0.342   0.196
    1  MOL   H8   18   0.044  -0.333   0.019
    1  MOL   H9   19   0.413   0.040  -0.089
    1  MOL  H10   20   0.363  -0.113  -0.016
    1  MOL  H11   21   0.302  -0.068  -0.175
    1  MOL  H12   22   0.249   0.230  -0.119
    1  MOL  H13   23   0.137   0.122  -0.204
    1  MOL  H14   24   0.081   0.215  -0.064
    9.97800    11.43600    10.56200
