%VERSION  VERSION_STAMP = V0001.000  DATE = 05/20/26  23:57:05                  
%FLAG TITLE                                                                     
%FORMAT(20a4)                                                                   
CUP08034_AM1BCC_v1_0                                                            
%FLAG POINTERS                                                                  
%FORMAT(10I8)                                                                   
      24       5      14      10      30      15      51      24       0       0
     134       1      10      15      24      11      21      18       8       0
       0       0       0       0       0       0       0       0      24       0
       0
%FLAG ATOM_NAME                                                                 
%FORMAT(20a4)                                                                   
C1  C2  C3  C4  C5  C6  C7  C8  C9  O1  H1  H2  H3  H4  H5  H6  H7  H8  H9  H10 
H11 H12 H13 H14 
%FLAG CHARGE                                                                    
%FORMAT(5E16.8)                                                                 
 -4.77788706E+00 -7.36180920E-01  1.03739554E+01 -9.87648660E-01 -3.19619142E+00
 -8.01781200E-01 -1.34662797E+00 -1.65094038E+00 -1.65094038E+00 -9.80541963E+00
  2.71512270E+00  1.06053786E+00  1.06053786E+00  1.32476121E+00  1.32476121E+00
  9.23870610E-01  9.23870610E-01  9.23870610E-01  7.11271036E-01  7.11271036E-01
  7.11271036E-01  7.11271036E-01  7.11271036E-01  7.11271036E-01
%FLAG ATOMIC_NUMBER                                                             
%FORMAT(10I8)                                                                   
       6       6       6       6       6       6       6       6       6       8
       1       1       1       1       1       1       1       1       1       1
       1       1       1       1
%FLAG MASS                                                                      
%FORMAT(5E16.8)                                                                 
  1.20100000E+01  1.20100000E+01  1.20100000E+01  1.20100000E+01  1.20100000E+01
  1.20100000E+01  1.20100000E+01  1.20100000E+01  1.20100000E+01  1.60000000E+01
  1.00800000E+00  1.00800000E+00  1.00800000E+00  1.00800000E+00  1.00800000E+00
  1.00800000E+00  1.00800000E+00  1.00800000E+00  1.00800000E+00  1.00800000E+00
  1.00800000E+00  1.00800000E+00  1.00800000E+00  1.00800000E+00
%FLAG ATOM_TYPE_INDEX                                                           
%FORMAT(10I8)                                                                   
       1       1       1       2       2       2       2       2       2       3
       4       5       5       5       5       5       5       5       5       5
       5       5       5       5
%FLAG NUMBER_EXCLUDED_ATOMS                                                     
%FORMAT(10I8)                                                                   
      15      14      10      19      15      14       6      11      10       3
       1       1       1       1       1       2       1       1       2       1
       1       2       1       1
%FLAG NONBONDED_PARM_INDEX                                                      
%FORMAT(10I8)                                                                   
       1       2       4       7      11       2       3       5       8      12
       4       5       6       9      13       7       8       9      10      14
      11      12      13      14      15
%FLAG RESIDUE_LABEL                                                             
%FORMAT(20a4)                                                                   
MOL 
%FLAG RESIDUE_POINTER                                                           
%FORMAT(10I8)                                                                   
       1
%FLAG BOND_FORCE_CONSTANT                                                       
%FORMAT(5E16.8)                                                                 
  4.24300000E+02  2.67760000E+02  3.57590000E+02  2.44960000E+02  2.48400000E+02
  2.33630000E+02  5.90600000E+02  2.26810000E+02  3.42750000E+02  2.23800000E+02
  3.45250000E+02
%FLAG BOND_EQUIL_VALUE                                                          
%FORMAT(5E16.8)                                                                 
  1.34570000E+00  1.48480000E+00  1.08800000E+00  1.51330000E+00  1.50880000E+00
  1.52870000E+00  1.21900000E+00  1.53840000E+00  1.09790000E+00  1.54280000E+00
  1.09620000E+00
%FLAG ANGLE_FORCE_CONSTANT                                                      
%FORMAT(5E16.8)                                                                 
  6.12000000E+01  6.06000000E+01  6.00600000E+01  7.79900000E+01  6.21100000E+01
  4.62400000E+01  6.05700000E+01  4.39000000E+01  4.37600000E+01  4.33100000E+01
  6.02700000E+01  4.38400000E+01  5.97700000E+01  6.01800000E+01  5.99900000E+01
  7.65600000E+01  4.32300000E+01  4.28900000E+01  6.06000000E+01  3.59300000E+01
  3.58000000E+01
%FLAG ANGLE_EQUIL_VALUE                                                         
%FORMAT(5E16.8)                                                                 
  2.14064725E+00  2.19178541E+00  2.02720080E+00  2.15094469E+00  2.12930260E+00
  2.09439600E+00  1.94447215E+00  1.90782022E+00  1.93120765E+00  2.03173865E+00
  1.94482122E+00  1.87919681E+00  2.03697464E+00  1.93836350E+00  1.94482122E+00
  2.13523672E+00  1.91026369E+00  1.93085858E+00  1.90031530E+00  1.86087085E+00
  1.88024401E+00
%FLAG DIHEDRAL_FORCE_CONSTANT                                                   
%FORMAT(5E16.8)                                                                 
  0.00000000E+00  0.00000000E+00  2.90000000E+00  2.17500000E+00  1.55555556E-01
  6.65000000E+00  4.60000000E-01  4.00000000E-02  0.00000000E+00  1.50000000E-01
  1.30000000E-01  1.17400000E+01  1.10000000E-01  8.00000000E-02  4.03000000E+00
  3.66000000E+00  1.10000000E+00  1.05000000E+01
%FLAG DIHEDRAL_PERIODICITY                                                      
%FORMAT(5E16.8)                                                                 
  2.00000000E+00  2.00000000E+00  2.00000000E+00  2.00000000E+00  3.00000000E+00
  2.00000000E+00  1.00000000E+00  2.00000000E+00  3.00000000E+00  3.00000000E+00
  3.00000000E+00  1.00000000E+00  2.00000000E+00  3.00000000E+00  1.00000000E+00
  2.00000000E+00  2.00000000E+00  2.00000000E+00
%FLAG DIHEDRAL_PHASE                                                            
%FORMAT(5E16.8)                                                                 
  0.00000000E+00  3.14159400E+00  0.00000000E+00  3.14159400E+00  0.00000000E+00
  3.14159400E+00  3.14159400E+00  0.00000000E+00  0.00000000E+00  0.00000000E+00
  0.00000000E+00  0.00000000E+00  0.00000000E+00  3.14159400E+00  0.00000000E+00
  3.14159400E+00  3.14159400E+00  3.14159400E+00
%FLAG SCEE_SCALE_FACTOR                                                         
%FORMAT(5E16.8)                                                                 
  1.20000000E+00  1.20000000E+00  1.20000000E+00  1.20000000E+00  1.20000000E+00
  1.20000000E+00  1.20000000E+00  1.20000000E+00  1.20000000E+00  1.20000000E+00
  1.20000000E+00  1.20000000E+00  1.20000000E+00  1.20000000E+00  1.20000000E+00
  1.20000000E+00  0.00000000E+00  0.00000000E+00
%FLAG SCNB_SCALE_FACTOR                                                         
%FORMAT(5E16.8)                                                                 
  2.00000000E+00  2.00000000E+00  2.00000000E+00  2.00000000E+00  2.00000000E+00
  2.00000000E+00  2.00000000E+00  2.00000000E+00  2.00000000E+00  2.00000000E+00
  2.00000000E+00  2.00000000E+00  2.00000000E+00  2.00000000E+00  2.00000000E+00
  2.00000000E+00  0.00000000E+00  0.00000000E+00
%FLAG SOLTY                                                                     
%FORMAT(5E16.8)                                                                 
  0.00000000E+00  0.00000000E+00  0.00000000E+00  0.00000000E+00  0.00000000E+00
  0.00000000E+00  0.00000000E+00  0.00000000E+00
%FLAG LENNARD_JONES_ACOEF                                                       
%FORMAT(5E16.8)                                                                 
  6.96551276E+05  8.43969952E+05  1.02073671E+06  5.17507491E+05  6.30925504E+05
  3.76435470E+05  7.52549148E+04  9.27554496E+04  5.27277400E+04  6.90855956E+03
  8.12662403E+04  1.00235148E+05  5.68021765E+04  7.41026906E+03  7.94617769E+03
%FLAG LENNARD_JONES_BCOEF                                                       
%FORMAT(5E16.8)                                                                 
  5.24668528E+02  5.90251928E+02  6.63431737E+02  4.98871431E+02  5.62969425E+02
  4.69350655E+02  1.09570372E+02  1.24325688E+02  1.01173582E+02  2.10929191E+01
  1.21392023E+02  1.37787728E+02  1.11953944E+02  2.32899892E+01  2.57122925E+01
%FLAG BONDS_INC_HYDROGEN                                                        
%FORMAT(10I8)                                                                   
       0      30       3       9      33       9       9      36       9      12
      39       9      12      42       9      18      45      11      18      48
      11      18      51      11      21      54      11      21      57      11
      21      60      11      24      63      11      24      66      11      24
      69      11
%FLAG BONDS_WITHOUT_HYDROGEN                                                    
%FORMAT(10I8)                                                                   
       0       3       1       0       6       2       3       9       4       3
      18       5       6      12       6       6      27       7       9      15
       8      12      15       8      15      21      10      15      24      10
%FLAG ANGLES_INC_HYDROGEN                                                       
%FORMAT(10I8)                                                                   
       3       0      30       6       3       9      33       8       3       9
      36       8       3      18      45       9       3      18      48       9
       3      18      51       9       6       0      30      10       6      12
      39      12       6      12      42      12      15       9      33      17
      15       9      36      17      15      12      39      17      15      12
      42      17      15      21      54      18      15      21      57      18
      15      21      60      18      15      24      63      18      15      24
      66      18      15      24      69      18      33       9      36      20
      39      12      42      20      45      18      48      21      45      18
      51      21      48      18      51      21      54      21      57      21
      54      21      60      21      57      21      60      21      63      24
      66      21      63      24      69      21      66      24      69      21
%FLAG ANGLES_WITHOUT_HYDROGEN                                                   
%FORMAT(10I8)                                                                   
       0       3       9       1       0       3      18       2       0       6
      12       3       0       6      27       4       3       0       6       5
       3       9      15       7       6      12      15      11       9       3
      18      13       9      15      12      14       9      15      21      15
       9      15      24      15      12       6      27      16      12      15
      21      15      12      15      24      15      21      15      24      19
%FLAG DIHEDRALS_INC_HYDROGEN                                                    
%FORMAT(10I8)                                                                   
       0       3       9      33       1       0       3       9      36       1
       0       3      18      45       1       0       3      18      48       1
       0       3      18      51       1       0       6      12      39       2
       0       6      12      42       2      30       0       3       9       6
       9       3      18      45      10       9       3      18      48      10
       9       3      18      51      10       9      15      12      39      11
       9      15      12      42      11       9      15      21      54      11
       9      15      21      57      11       9      15      21      60      11
       9      15      24      63      11       9      15      24      66      11
       9      15      24      69      11      30       0       6      12       4
      12      15       9      33      11      12      15       9      36      11
      12      15      21      54      11      12      15      21      57      11
      12      15      21      60      11      12      15      24      63      11
      12      15      24      66      11      12      15      24      69      11
      30       0       3      18       6      18       3       9      33      10
      18       3       9      36      10      21      15       9      33      11
      21      15       9      36      11      21      15      12      39      11
      21      15      12      42      11      21      15      24      63      11
      21      15      24      66      11      21      15      24      69      11
      24      15       9      33      11      24      15       9      36      11
      24      15      12      39      11      24      15      12      42      11
      24      15      21      54      11      24      15      21      57      11
      24      15      21      60      11      30       0       6      27       4
      27       6      12      39      15      27       6     -12      39      16
      27       6      12      42      15      27       6     -12      42      16
      30       0      -3      -6      17
%FLAG DIHEDRALS_WITHOUT_HYDROGEN                                                
%FORMAT(10I8)                                                                   
       0       3       9      15       1       0       6     -12      15       2
       3       0       6      12       3       3       0       6      27       4
       3       9     -15      12       5       3       9      15      21       5
       3       9      15      24       5       6       0       3       9       6
       6       0       3      18       6       6      12     -15       9       7
       6      12     -15       9       8       6      12     -15       9       9
       6      12      15      21       7       6      12     -15      21       8
       6      12     -15      21       9       6      12      15      24       7
       6      12     -15      24       8       6      12     -15      24       9
      15       9       3      18       1      15      12       6      27      12
      15      12      -6      27      13      15      12      -6      27      14
       0       3      -9     -18      17      12       0      -6     -27      18
%FLAG EXCLUDED_ATOMS_LIST                                                       
%FORMAT(10I8)                                                                   
       2       3       4       5       6       7      10      11      12      13
      14      15      16      17      18       3       4       5       6       7
       8       9      10      11      12      13      16      17      18       4
       5       6       7       8       9      10      11      14      15       5
       6       7       8       9      11      12      13      14      15      16
      17      18      19      20      21      22      23      24       6       8
       9      10      11      12      13      14      15      19      20      21
      22      23      24       7       8       9      10      12      13      14
      15      19      20      21      22      23      24      11      12      13
      16      17      18       9      12      13      14      15      19      20
      21      22      23      24      12      13      14      15      19      20
      21      22      23      24      11      14      15       0      13       0
      15       0      17      18      18       0      20      21      21       0
      23      24      24       0
%FLAG HBOND_ACOEF                                                               
%FORMAT(5E16.8)                                                                 

%FLAG HBOND_BCOEF                                                               
%FORMAT(5E16.8)                                                                 

%FLAG HBCUT                                                                     
%FORMAT(5E16.8)                                                                 

%FLAG AMBER_ATOM_TYPE                                                           
%FORMAT(20a4)                                                                   
ce  c2  c   c6  c6  c6  c3  c3  c3  o   ha  hc  hc  hc  hc  hc  hc  hc  hc  hc  
hc  hc  hc  hc  
%FLAG TREE_CHAIN_CLASSIFICATION                                                 
%FORMAT(20a4)                                                                   
BLA BLA BLA BLA BLA BLA BLA BLA BLA BLA BLA BLA BLA BLA BLA BLA BLA BLA BLA BLA 
BLA BLA BLA BLA 
%FLAG JOIN_ARRAY                                                                
%FORMAT(10I8)                                                                   
       0       0       0       0       0       0       0       0       0       0
       0       0       0       0       0       0       0       0       0       0
       0       0       0       0
%FLAG IROTAT                                                                    
%FORMAT(10I8)                                                                   
       0       0       0       0       0       0       0       0       0       0
       0       0       0       0       0       0       0       0       0       0
       0       0       0       0
%FLAG RADIUS_SET                                                                
%FORMAT(1a80)                                                                   
modified Bondi radii (mbondi)                                                   
%FLAG RADII                                                                     
%FORMAT(5E16.8)                                                                 
  1.70000000E+00  1.70000000E+00  1.70000000E+00  1.70000000E+00  1.70000000E+00
  1.70000000E+00  1.70000000E+00  1.70000000E+00  1.70000000E+00  1.50000000E+00
  1.30000000E+00  1.30000000E+00  1.30000000E+00  1.30000000E+00  1.30000000E+00
  1.30000000E+00  1.30000000E+00  1.30000000E+00  1.30000000E+00  1.30000000E+00
  1.30000000E+00  1.30000000E+00  1.30000000E+00  1.30000000E+00
%FLAG SCREEN                                                                    
%FORMAT(5E16.8)                                                                 
  7.20000000E-01  7.20000000E-01  7.20000000E-01  7.20000000E-01  7.20000000E-01
  7.20000000E-01  7.20000000E-01  7.20000000E-01  7.20000000E-01  8.50000000E-01
  8.50000000E-01  8.50000000E-01  8.50000000E-01  8.50000000E-01  8.50000000E-01
  8.50000000E-01  8.50000000E-01  8.50000000E-01  8.50000000E-01  8.50000000E-01
  8.50000000E-01  8.50000000E-01  8.50000000E-01  8.50000000E-01
%FLAG IPOL                                                                      
%FORMAT(1I8)                                                                    
       0
