; mobley_7364468_GMX_OPLS.itp created by acpype (v: 2023.10.27) on Wed May 20 23:57:03 2026

; For OPLS atomtypes manual fine tuning
; AC_at:OPLS_at:OPLScode: Possible_Alternatives (see ffoplsaa.atp and ffoplsaanb.itp)
; ce:x:opls_x: []
; c2:CR:opls_509: ['510']
; c:C:opls_235: ['271']
; c6:x:opls_x: []
; c3:CT:opls_135: ['136', '137', '149', '157', '158', '206', '209', '210', '223B', '224B', '245', '246', '274', '283', '284', '285', '292', '292B', '293B', '296', '307', '308', '505']
; o:O:opls_236: ['272']
; ha:HA:opls_146: []
; hc:HC:opls_140: []

[ moleculetype ]
;name            nrexcl
 mobley_7364468   3

[ atoms ]
;   nr  type  resi  res  atom  cgnr     charge      mass       ; qtot   bond_type
     1 opls_x     1   MOL    C1    1    -0.262200      0.00000 ; qtot -0.262  x   
     2 opls_509     1   MOL    C2    2    -0.040400     12.01100 ; qtot -0.303  CR  
     3 opls_235     1   MOL    C3    3     0.572302     12.01100 ; qtot  0.270  C   
     4 opls_x     1   MOL    C4    4    -0.054200      0.00000 ; qtot  0.216  x   
     5 opls_x     1   MOL    C5    5    -0.175400      0.00000 ; qtot  0.040  x   
     6 opls_x     1   MOL    C6    6    -0.044000      0.00000 ; qtot -0.004  x   
     7 opls_135     1   MOL    C7    7    -0.073900     12.01100 ; qtot -0.078  CT  
     8 opls_135     1   MOL    C8    8    -0.090600     12.01100 ; qtot -0.168  CT  
     9 opls_135     1   MOL    C9    9    -0.090600     12.01100 ; qtot -0.259  CT  
    10 opls_236     1   MOL    O1   10    -0.538100     15.99940 ; qtot -0.797  O   
    11 opls_146     1   MOL    H1   11     0.149000      1.00800 ; qtot -0.648  HA  
    12 opls_140     1   MOL    H2   12     0.058200      1.00800 ; qtot -0.590  HC  
    13 opls_140     1   MOL    H3   13     0.058200      1.00800 ; qtot -0.532  HC  
    14 opls_140     1   MOL    H4   14     0.072700      1.00800 ; qtot -0.459  HC  
    15 opls_140     1   MOL    H5   15     0.072700      1.00800 ; qtot -0.386  HC  
    16 opls_140     1   MOL    H6   16     0.050700      1.00800 ; qtot -0.336  HC  
    17 opls_140     1   MOL    H7   17     0.050700      1.00800 ; qtot -0.285  HC  
    18 opls_140     1   MOL    H8   18     0.050700      1.00800 ; qtot -0.234  HC  
    19 opls_140     1   MOL    H9   19     0.039033      1.00800 ; qtot -0.195  HC  
    20 opls_140     1   MOL   H10   20     0.039033      1.00800 ; qtot -0.156  HC  
    21 opls_140     1   MOL   H11   21     0.039033      1.00800 ; qtot -0.117  HC  
    22 opls_140     1   MOL   H12   22     0.039033      1.00800 ; qtot -0.078  HC  
    23 opls_140     1   MOL   H13   23     0.039033      1.00800 ; qtot -0.039  HC  
    24 opls_140     1   MOL   H14   24     0.039033      1.00800 ; qtot  0.000  HC  

[ bonds ]
;   ai     aj funct   r             k
     1      2   1 ;    1.3457e-01    3.5505e+05 ;     C1 - C2          x - CR    
     1      3   1 ;    1.4848e-01    2.2406e+05 ;     C1 - C3          x - C     
     1     11   1 ;    1.0880e-01    2.9923e+05 ;     C1 - H1          x - HA    
     2      4   1 ;    1.5133e-01    2.0498e+05 ;     C2 - C4         CR - x     
     2      7   1 ;    1.5088e-01    2.0786e+05 ;     C2 - C7         CR - CT    
     3      5   1 ;    1.5287e-01    1.9550e+05 ;     C3 - C5          C - x     
     3     10   1 ;    1.2190e-01    4.9421e+05 ;     C3 - O1          C - O     
     4      6   1 ;    1.5384e-01    1.8979e+05 ;     C4 - C6          x - x     
     4     12   1 ;    1.0979e-01    2.8681e+05 ;     C4 - H2          x - HC    
     4     13   1 ;    1.0979e-01    2.8681e+05 ;     C4 - H3          x - HC    
     5      6   1 ;    1.5384e-01    1.8979e+05 ;     C5 - C6          x - x     
     5     14   1 ;    1.0979e-01    2.8681e+05 ;     C5 - H4          x - HC    
     5     15   1 ;    1.0979e-01    2.8681e+05 ;     C5 - H5          x - HC    
     6      8   1 ;    1.5428e-01    1.8728e+05 ;     C6 - C8          x - CT    
     6      9   1 ;    1.5428e-01    1.8728e+05 ;     C6 - C9          x - CT    
     7     16   1 ;    1.0962e-01    2.8891e+05 ;     C7 - H6         CT - HC    
     7     17   1 ;    1.0962e-01    2.8891e+05 ;     C7 - H7         CT - HC    
     7     18   1 ;    1.0962e-01    2.8891e+05 ;     C7 - H8         CT - HC    
     8     19   1 ;    1.0962e-01    2.8891e+05 ;     C8 - H9         CT - HC    
     8     20   1 ;    1.0962e-01    2.8891e+05 ;     C8 - H10        CT - HC    
     8     21   1 ;    1.0962e-01    2.8891e+05 ;     C8 - H11        CT - HC    
     9     22   1 ;    1.0962e-01    2.8891e+05 ;     C9 - H12        CT - HC    
     9     23   1 ;    1.0962e-01    2.8891e+05 ;     C9 - H13        CT - HC    
     9     24   1 ;    1.0962e-01    2.8891e+05 ;     C9 - H14        CT - HC    

[ pairs ]
;   ai     aj    funct
     1      6      1 ;     C1 - C6    
     1     12      1 ;     C1 - H2    
     1     13      1 ;     C1 - H3    
     1     14      1 ;     C1 - H4    
     1     15      1 ;     C1 - H5    
     1     16      1 ;     C1 - H6    
     1     17      1 ;     C1 - H7    
     1     18      1 ;     C1 - H8    
     2      5      1 ;     C2 - C5    
     2      8      1 ;     C2 - C8    
     2      9      1 ;     C2 - C9    
     2     10      1 ;     C2 - O1    
     3      4      1 ;     C3 - C4    
     3      7      1 ;     C3 - C7    
     3      8      1 ;     C3 - C8    
     3      9      1 ;     C3 - C9    
     4     14      1 ;     C4 - H4    
     4     15      1 ;     C4 - H5    
     4     16      1 ;     C4 - H6    
     4     17      1 ;     C4 - H7    
     4     18      1 ;     C4 - H8    
     4     19      1 ;     C4 - H9    
     4     20      1 ;     C4 - H10   
     4     21      1 ;     C4 - H11   
     4     22      1 ;     C4 - H12   
     4     23      1 ;     C4 - H13   
     4     24      1 ;     C4 - H14   
     5     12      1 ;     C5 - H2    
     5     13      1 ;     C5 - H3    
     5     19      1 ;     C5 - H9    
     5     20      1 ;     C5 - H10   
     5     21      1 ;     C5 - H11   
     5     22      1 ;     C5 - H12   
     5     23      1 ;     C5 - H13   
     5     24      1 ;     C5 - H14   
     6      7      1 ;     C6 - C7    
     6     10      1 ;     C6 - O1    
     7     12      1 ;     C7 - H2    
     7     13      1 ;     C7 - H3    
     8     12      1 ;     C8 - H2    
     8     13      1 ;     C8 - H3    
     8     14      1 ;     C8 - H4    
     8     15      1 ;     C8 - H5    
     8     22      1 ;     C8 - H12   
     8     23      1 ;     C8 - H13   
     8     24      1 ;     C8 - H14   
     9     12      1 ;     C9 - H2    
     9     13      1 ;     C9 - H3    
     9     14      1 ;     C9 - H4    
     9     15      1 ;     C9 - H5    
     9     19      1 ;     C9 - H9    
     9     20      1 ;     C9 - H10   
     9     21      1 ;     C9 - H11   
    10     14      1 ;     O1 - H4    
    10     15      1 ;     O1 - H5    
    11      4      1 ;     H1 - C4    
    11      5      1 ;     H1 - C5    
    11      7      1 ;     H1 - C7    
    11     10      1 ;     H1 - O1    

[ angles ]
;   ai     aj     ak    funct   theta         cth
     1      2      4      1 ;    1.2265e+02    5.1212e+02 ;     C1 - C2   - C4        x -   CR - x   
     1      2      7      1 ;    1.2558e+02    5.0710e+02 ;     C1 - C2   - C7        x -   CR - CT  
     1      3      5      1 ;    1.1615e+02    5.0258e+02 ;     C1 - C3   - C5        x -    C - x   
     1      3     10      1 ;    1.2324e+02    6.5262e+02 ;     C1 - C3   - O1        x -    C - O   
     2      1      3      1 ;    1.2200e+02    5.1974e+02 ;     C2 - C1   - C3       CR -    x - C   
     2      1     11      1 ;    1.2000e+02    3.8694e+02 ;     C2 - C1   - H1       CR -    x - HA  
     2      4      6      1 ;    1.1141e+02    5.0685e+02 ;     C2 - C4   - C6       CR -    x - x   
     2      4     12      1 ;    1.0931e+02    3.6736e+02 ;     C2 - C4   - H2       CR -    x - HC  
     2      4     13      1 ;    1.0931e+02    3.6736e+02 ;     C2 - C4   - H3       CR -    x - HC  
     2      7     16      1 ;    1.1065e+02    3.6618e+02 ;     C2 - C7   - H6       CR -   CT - HC  
     2      7     17      1 ;    1.1065e+02    3.6618e+02 ;     C2 - C7   - H7       CR -   CT - HC  
     2      7     18      1 ;    1.1065e+02    3.6618e+02 ;     C2 - C7   - H8       CR -   CT - HC  
     3      1     11      1 ;    1.1641e+02    3.6242e+02 ;     C3 - C1   - H1        C -    x - HA  
     3      5      6      1 ;    1.1143e+02    5.0434e+02 ;     C3 - C5   - C6        C -    x - x   
     3      5     14      1 ;    1.0767e+02    3.6685e+02 ;     C3 - C5   - H4        C -    x - HC  
     3      5     15      1 ;    1.0767e+02    3.6685e+02 ;     C3 - C5   - H5        C -    x - HC  
     4      2      7      1 ;    1.1671e+02    5.0016e+02 ;     C4 - C2   - C7        x -   CR - CT  
     4      6      5      1 ;    1.1106e+02    5.0359e+02 ;     C4 - C6   - C5        x -    x - x   
     4      6      8      1 ;    1.1143e+02    5.0200e+02 ;     C4 - C6   - C8        x -    x - CT  
     4      6      9      1 ;    1.1143e+02    5.0200e+02 ;     C4 - C6   - C9        x -    x - CT  
     5      3     10      1 ;    1.2234e+02    6.4065e+02 ;     C5 - C3   - O1        x -    C - O   
     5      6      8      1 ;    1.1143e+02    5.0200e+02 ;     C5 - C6   - C8        x -    x - CT  
     5      6      9      1 ;    1.1143e+02    5.0200e+02 ;     C5 - C6   - C9        x -    x - CT  
     6      4     12      1 ;    1.0945e+02    3.6175e+02 ;     C6 - C4   - H2        x -    x - HC  
     6      4     13      1 ;    1.0945e+02    3.6175e+02 ;     C6 - C4   - H3        x -    x - HC  
     6      5     14      1 ;    1.0945e+02    3.6175e+02 ;     C6 - C5   - H4        x -    x - HC  
     6      5     15      1 ;    1.0945e+02    3.6175e+02 ;     C6 - C5   - H5        x -    x - HC  
     6      8     19      1 ;    1.1063e+02    3.5890e+02 ;     C6 - C8   - H9        x -   CT - HC  
     6      8     20      1 ;    1.1063e+02    3.5890e+02 ;     C6 - C8   - H10       x -   CT - HC  
     6      8     21      1 ;    1.1063e+02    3.5890e+02 ;     C6 - C8   - H11       x -   CT - HC  
     6      9     22      1 ;    1.1063e+02    3.5890e+02 ;     C6 - C9   - H12       x -   CT - HC  
     6      9     23      1 ;    1.1063e+02    3.5890e+02 ;     C6 - C9   - H13       x -   CT - HC  
     6      9     24      1 ;    1.1063e+02    3.5890e+02 ;     C6 - C9   - H14       x -   CT - HC  
     8      6      9      1 ;    1.0888e+02    5.0710e+02 ;     C8 - C6   - C9       CT -    x - CT  
    12      4     13      1 ;    1.0662e+02    3.0066e+02 ;     H2 - C4   - H3       HC -    x - HC  
    14      5     15      1 ;    1.0662e+02    3.0066e+02 ;     H4 - C5   - H5       HC -    x - HC  
    16      7     17      1 ;    1.0773e+02    2.9957e+02 ;     H6 - C7   - H7       HC -   CT - HC  
    16      7     18      1 ;    1.0773e+02    2.9957e+02 ;     H6 - C7   - H8       HC -   CT - HC  
    17      7     18      1 ;    1.0773e+02    2.9957e+02 ;     H7 - C7   - H8       HC -   CT - HC  
    19      8     20      1 ;    1.0773e+02    2.9957e+02 ;     H9 - C8   - H10      HC -   CT - HC  
    19      8     21      1 ;    1.0773e+02    2.9957e+02 ;     H9 - C8   - H11      HC -   CT - HC  
    20      8     21      1 ;    1.0773e+02    2.9957e+02 ;    H10 - C8   - H11      HC -   CT - HC  
    22      9     23      1 ;    1.0773e+02    2.9957e+02 ;    H12 - C9   - H13      HC -   CT - HC  
    22      9     24      1 ;    1.0773e+02    2.9957e+02 ;    H12 - C9   - H14      HC -   CT - HC  
    23      9     24      1 ;    1.0773e+02    2.9957e+02 ;    H13 - C9   - H14      HC -   CT - HC  

[ dihedrals ] ; propers
; for gromacs 4.5 or higher, using funct 9
;    i      j      k      l   func   phase     kd      pn
     1      2      4      6      9 ;     0.00   0.00000   0 ;     C1-    C2-    C4-    C6
     1      2      4     12      9 ;     0.00   0.00000   0 ;     C1-    C2-    C4-    H2
     1      2      4     13      9 ;     0.00   0.00000   0 ;     C1-    C2-    C4-    H3
     1      2      7     16      9 ;     0.00   0.00000   0 ;     C1-    C2-    C7-    H6
     1      2      7     17      9 ;     0.00   0.00000   0 ;     C1-    C2-    C7-    H7
     1      2      7     18      9 ;     0.00   0.00000   0 ;     C1-    C2-    C7-    H8
     1      3      5      6      9 ;   180.00   0.00000   2 ;     C1-    C3-    C5-    C6
     1      3      5     14      9 ;   180.00   0.00000   2 ;     C1-    C3-    C5-    H4
     1      3      5     15      9 ;   180.00   0.00000   2 ;     C1-    C3-    C5-    H5
     2      1      3      5      9 ;     0.00  12.13360   2 ;     C2-    C1-    C3-    C5
     2      1      3     10      9 ;   180.00   9.10020   2 ;     C2-    C1-    C3-    O1
     2      4      6      5      9 ;     0.00   0.65084   3 ;     C2-    C4-    C6-    C5
     2      4      6      8      9 ;     0.00   0.65084   3 ;     C2-    C4-    C6-    C8
     2      4      6      9      9 ;     0.00   0.65084   3 ;     C2-    C4-    C6-    C9
     3      1      2      4      9 ;   180.00  27.82360   2 ;     C3-    C1-    C2-    C4
     3      1      2      7      9 ;   180.00  27.82360   2 ;     C3-    C1-    C2-    C7
     3      5      6      4      9 ;     0.00   0.00000   0 ;     C3-    C5-    C6-    C4
     3      5      6      4      9 ;     0.00   0.16736   2 ;     C3-    C5-    C6-    C4
     3      5      6      4      9 ;   180.00   1.92464   1 ;     C3-    C5-    C6-    C4
     3      5      6      8      9 ;     0.00   0.00000   0 ;     C3-    C5-    C6-    C8
     3      5      6      8      9 ;     0.00   0.16736   2 ;     C3-    C5-    C6-    C8
     3      5      6      8      9 ;   180.00   1.92464   1 ;     C3-    C5-    C6-    C8
     3      5      6      9      9 ;     0.00   0.00000   0 ;     C3-    C5-    C6-    C9
     3      5      6      9      9 ;     0.00   0.16736   2 ;     C3-    C5-    C6-    C9
     3      5      6      9      9 ;   180.00   1.92464   1 ;     C3-    C5-    C6-    C9
     4      2      7     16      9 ;     0.00   0.62760   3 ;     C4-    C2-    C7-    H6
     4      2      7     17      9 ;     0.00   0.62760   3 ;     C4-    C2-    C7-    H7
     4      2      7     18      9 ;     0.00   0.62760   3 ;     C4-    C2-    C7-    H8
     4      6      5     14      9 ;     0.00   0.54392   3 ;     C4-    C6-    C5-    H4
     4      6      5     15      9 ;     0.00   0.54392   3 ;     C4-    C6-    C5-    H5
     4      6      8     19      9 ;     0.00   0.54392   3 ;     C4-    C6-    C8-    H9
     4      6      8     20      9 ;     0.00   0.54392   3 ;     C4-    C6-    C8-   H10
     4      6      8     21      9 ;     0.00   0.54392   3 ;     C4-    C6-    C8-   H11
     4      6      9     22      9 ;     0.00   0.54392   3 ;     C4-    C6-    C9-   H12
     4      6      9     23      9 ;     0.00   0.54392   3 ;     C4-    C6-    C9-   H13
     4      6      9     24      9 ;     0.00   0.54392   3 ;     C4-    C6-    C9-   H14
     5      6      4     12      9 ;     0.00   0.54392   3 ;     C5-    C6-    C4-    H2
     5      6      4     13      9 ;     0.00   0.54392   3 ;     C5-    C6-    C4-    H3
     5      6      8     19      9 ;     0.00   0.54392   3 ;     C5-    C6-    C8-    H9
     5      6      8     20      9 ;     0.00   0.54392   3 ;     C5-    C6-    C8-   H10
     5      6      8     21      9 ;     0.00   0.54392   3 ;     C5-    C6-    C8-   H11
     5      6      9     22      9 ;     0.00   0.54392   3 ;     C5-    C6-    C9-   H12
     5      6      9     23      9 ;     0.00   0.54392   3 ;     C5-    C6-    C9-   H13
     5      6      9     24      9 ;     0.00   0.54392   3 ;     C5-    C6-    C9-   H14
     6      4      2      7      9 ;     0.00   0.00000   0 ;     C6-    C4-    C2-    C7
     6      5      3     10      9 ;     0.00   0.46024   2 ;     C6-    C5-    C3-    O1
     6      5      3     10      9 ;     0.00  49.12016   1 ;     C6-    C5-    C3-    O1
     6      5      3     10      9 ;   180.00   0.33472   3 ;     C6-    C5-    C3-    O1
     7      2      4     12      9 ;     0.00   0.62760   3 ;     C7-    C2-    C4-    H2
     7      2      4     13      9 ;     0.00   0.62760   3 ;     C7-    C2-    C4-    H3
     8      6      4     12      9 ;     0.00   0.54392   3 ;     C8-    C6-    C4-    H2
     8      6      4     13      9 ;     0.00   0.54392   3 ;     C8-    C6-    C4-    H3
     8      6      5     14      9 ;     0.00   0.54392   3 ;     C8-    C6-    C5-    H4
     8      6      5     15      9 ;     0.00   0.54392   3 ;     C8-    C6-    C5-    H5
     8      6      9     22      9 ;     0.00   0.54392   3 ;     C8-    C6-    C9-   H12
     8      6      9     23      9 ;     0.00   0.54392   3 ;     C8-    C6-    C9-   H13
     8      6      9     24      9 ;     0.00   0.54392   3 ;     C8-    C6-    C9-   H14
     9      6      4     12      9 ;     0.00   0.54392   3 ;     C9-    C6-    C4-    H2
     9      6      4     13      9 ;     0.00   0.54392   3 ;     C9-    C6-    C4-    H3
     9      6      5     14      9 ;     0.00   0.54392   3 ;     C9-    C6-    C5-    H4
     9      6      5     15      9 ;     0.00   0.54392   3 ;     C9-    C6-    C5-    H5
     9      6      8     19      9 ;     0.00   0.54392   3 ;     C9-    C6-    C8-    H9
     9      6      8     20      9 ;     0.00   0.54392   3 ;     C9-    C6-    C8-   H10
     9      6      8     21      9 ;     0.00   0.54392   3 ;     C9-    C6-    C8-   H11
    10      3      5     14      9 ;     0.00  16.86152   1 ;     O1-    C3-    C5-    H4
    10      3      5     14      9 ;   180.00  15.31344   2 ;     O1-    C3-    C5-    H4
    10      3      5     15      9 ;     0.00  16.86152   1 ;     O1-    C3-    C5-    H5
    10      3      5     15      9 ;   180.00  15.31344   2 ;     O1-    C3-    C5-    H5
    11      1      2      4      9 ;   180.00  27.82360   2 ;     H1-    C1-    C2-    C4
    11      1      2      7      9 ;   180.00  27.82360   2 ;     H1-    C1-    C2-    C7
    11      1      3      5      9 ;   180.00   9.10020   2 ;     H1-    C1-    C3-    C5
    11      1      3     10      9 ;   180.00   9.10020   2 ;     H1-    C1-    C3-    O1

[ dihedrals ] ; impropers
; treated as propers in GROMACS to use correct AMBER analytical function
;    i      j      k      l   func   phase     kd      pn
     1      2      4      7      4 ;   180.00   4.60240   2 ;     C1-    C2-    C4-    C7
     5      1      3     10      4 ;   180.00  43.93200   2 ;     C5-    C1-    C3-    O1
    11      1      2      3      4 ;   180.00   4.60240   2 ;     H1-    C1-    C2-    C3
