CUP08034_AM1BCC_v1_0
    24
   1.8910000  -1.3160000   2.1960000   1.0490000  -1.5220000   1.1710000
   2.6870000  -0.0680000   2.2940000   0.8860000  -0.5350000   0.0400000
   2.4730000   1.0100000   1.2540000   2.0780000   0.4380000  -0.1190000
   0.1980000  -2.7570000   1.0930000   3.2820000  -0.2830000  -0.7620000
   1.6640000   1.5930000  -1.0480000   3.4510000   0.0840000   3.2450000
   2.0190000  -2.0220000   3.0090000   0.7420000  -1.0790000  -0.9030000
  -0.0400000   0.0270000   0.2210000   1.6920000   1.6780000   1.6380000
   3.3980000   1.5920000   1.1680000  -0.8620000  -2.4850000   1.0600000
   0.3460000  -3.4150000   1.9550000   0.4390000  -3.3290000   0.1910000
   4.1270000   0.4030000  -0.8910000   3.6330000  -1.1270000  -0.1600000
   3.0210000  -0.6750000  -1.7520000   2.4870000   2.3030000  -1.1890000
   1.3710000   1.2200000  -2.0360000   0.8140000   2.1490000  -0.6370000
