mobley_3006808_GMX.gro created by acpype (v: 2023.10.27) on Wed May 20 23:56:25 2026
    9
    1MOL     C1    1   2.162   2.168   2.175
    1MOL     C2    2   2.219   2.285   2.250
    1MOL     O1    3   2.266   2.105   2.102
    1MOL     F1    4   2.316   2.245   2.336
    1MOL     F2    5   2.124   2.348   2.323
    1MOL     F3    6   2.274   2.376   2.166
    1MOL     H1    7   2.119   2.095   2.244
    1MOL     H2    8   2.085   2.201   2.105
    1MOL     H3    9   2.278   2.016   2.140
   4.40918   4.40918   4.40918
