mobley_7913234_GMX.gro created by acpype (v: 2023.10.27) on Wed May 20 23:46:05 2026
12409
    1MOL     C1    1   2.376   2.881   2.308
    1MOL     C2    2   2.651   2.168   2.713
    1MOL     C3    3   2.407   2.809   2.438
    1MOL     C4    4   2.453   2.665   2.413
    1MOL     C5    5   2.489   2.594   2.543
    1MOL     C6    6   2.567   2.390   2.630
    1MOL     C7    7   2.615   2.251   2.591
    1MOL     O1    8   2.731   2.265   2.508
    1MOL     O2    9   2.532   2.462   2.513
    1MOL     H1   10   2.298   2.828   2.252
    1MOL     H2   11   2.341   2.983   2.327
    1MOL     H3   12   2.465   2.886   2.246
    1MOL     H4   13   2.728   2.219   2.773
    1MOL     H5   14   2.564   2.151   2.776
    1MOL     H6   15   2.693   2.071   2.684
    1MOL     H7   16   2.485   2.864   2.492
    1MOL     H8   17   2.318   2.808   2.502
    1MOL     H9   18   2.375   2.609   2.361
    1MOL    H10   19   2.540   2.665   2.346
    1MOL    H11   20   2.570   2.646   2.595
    1MOL    H12   21   2.402   2.588   2.609
    1MOL    H13   22   2.478   2.385   2.694
    1MOL    H14   23   2.646   2.446   2.682
    1MOL    H15   24   2.538   2.201   2.531
    1MOL    H16   25   2.757   2.175   2.483
    2SOL     OW   26   0.230   0.628   0.113
    2SOL    HW1   27   0.137   0.626   0.150
    2SOL    HW2   28   0.231   0.589   0.021
    3SOL     OW   29   0.225   0.275   0.996
    3SOL    HW1   30   0.260   0.258   1.088
    3SOL    HW2   31   0.137   0.230   0.984
    4SOL     OW   32   0.019   0.368   0.647
    4SOL    HW1   33  -0.063   0.411   0.686
    4SOL    HW2   34  -0.009   0.295   0.584
    5SOL     OW   35   0.569   1.275   1.165
    5SOL    HW1   36   0.476   1.268   1.128
    5SOL    HW2   37   0.580   1.364   1.209
    6SOL     OW   38   1.555   1.511   0.703
    6SOL    HW1   39   1.498   1.495   0.784
    6SOL    HW2   40   1.496   1.521   0.623
    7SOL     OW   41   1.135   0.703   0.717
    7SOL    HW1   42   1.192   0.781   0.692
    7SOL    HW2   43   1.075   0.729   0.793
    8SOL     OW   44   1.755   0.607   0.231
    8SOL    HW1   45   1.743   0.594   0.132
    8SOL    HW2   46   1.725   0.526   0.280
    9SOL     OW   47   0.768   1.144   1.023
    9SOL    HW1   48   0.690   1.161   1.083
    9SOL    HW2   49   0.802   1.231   0.987
   10SOL     OW   50   0.850   0.798   1.823
   10SOL    HW1   51   0.846   0.874   1.888
   10SOL    HW2   52   0.872   0.834   1.732
   11SOL     OW   53   0.685   1.012   0.665
   11SOL    HW1   54   0.754   0.996   0.735
   11SOL    HW2   55   0.612   1.069   0.703
   12SOL     OW   56   0.686   1.161   1.803
   12SOL    HW1   57   0.746   1.240   1.817
   12SOL    HW2   58   0.600   1.192   1.762
   13SOL     OW   59   0.335   1.435   1.061
   13SOL    HW1   60   0.257   1.404   1.008
   13SOL    HW2   61   0.393   1.493   1.004
   14SOL     OW   62   1.460   1.505   1.339
   14SOL    HW1   63   1.484   1.599   1.365
   14SOL    HW2   64   1.444   1.451   1.421
   15SOL     OW   65   0.438   0.392   1.499
   15SOL    HW1   66   0.520   0.336   1.508
   15SOL    HW2   67   0.357   0.334   1.503
   16SOL     OW   68   1.603   0.447   0.737
   16SOL    HW1   69   1.529   0.493   0.687
   16SOL    HW2   70   1.654   0.515   0.790
   17SOL     OW   71   0.231   1.713   0.483
   17SOL    HW1   72   0.265   1.790   0.537
   17SOL    HW2   73   0.275   1.713   0.393
   18SOL     OW   74   1.127   1.341   1.690
   18SOL    HW1   75   1.174   1.341   1.778
   18SOL    HW2   76   1.079   1.254   1.679
   19SOL     OW   77   0.230   1.434   0.538
   19SOL    HW1   78   0.204   1.530   0.538
   19SOL    HW2   79   0.159   1.380   0.583
   20SOL     OW   80   0.240   1.091   0.886
   20SOL    HW1   81   0.254   1.007   0.938
   20SOL    HW2   82   0.185   1.155   0.941
   21SOL     OW   83   0.620   1.786   1.439
   21SOL    HW1   84   0.528   1.769   1.474
   21SOL    HW2   85   0.648   1.878   1.465
   22SOL     OW   86   0.606   0.964   0.123
   22SOL    HW1   87   0.613   1.048   0.069
   22SOL    HW2   88   0.652   0.977   0.211
   23SOL     OW   89   1.594   0.114   1.480
   23SOL    HW1   90   1.576   0.181   1.408
   23SOL    HW2   91   1.591   0.160   1.569
   24SOL     OW   92   0.122   0.643   0.563
   24SOL    HW1   93   0.077   0.555   0.580
   24SOL    HW2   94   0.121   0.697   0.647
   25SOL     OW   95   1.842   1.767   0.359
   25SOL    HW1   96   1.896   1.738   0.439
   25SOL    HW2   97   1.872   1.857   0.330
   26SOL     OW   98   0.027   1.596   0.117
   26SOL    HW1   99   0.008   1.500   0.138
   26SOL    HW2  100  -0.006   1.654   0.192
   27SOL     OW  101   1.689   0.922   0.612
   27SOL    HW1  102   1.784   0.893   0.620
   27SOL    HW2  103   1.681   0.987   0.537
   28SOL     OW  104   1.641   1.108   0.432
   28SOL    HW1  105   1.727   1.110   0.380
   28SOL    HW2  106   1.655   1.155   0.520
   29SOL     OW  107   0.113   0.737   1.597
   29SOL    HW1  108   0.201   0.724   1.642
   29SOL    HW2  109   0.100   0.834   1.575
   30SOL     OW  110   0.613   1.365   0.726
   30SOL    HW1  111   0.564   1.278   0.735
   30SOL    HW2  112   0.590   1.408   0.639
   31SOL     OW  113   1.293   1.228   1.423
   31SOL    HW1  114   1.330   1.155   1.365
   31SOL    HW2  115   1.345   1.233   1.508
   32SOL     OW  116   0.809   0.004   0.502
   32SOL    HW1  117   0.849   0.095   0.493
   32SOL    HW2  118   0.709   0.012   0.508
   33SOL     OW  119   0.197   0.976   1.264
   33SOL    HW1  120   0.286   0.931   1.250
   33SOL    HW2  121   0.124   0.911   1.245
   34SOL     OW  122   1.525   0.999   0.190
   34SOL    HW1  123   1.462   0.923   0.203
   34SOL    HW2  124   1.573   1.017   0.276
   35SOL     OW  125   1.187   1.792   1.616
   35SOL    HW1  126   1.211   1.852   1.540
   35SOL    HW2  127   1.194   1.697   1.586
   36SOL     OW  128   0.317   0.251   1.801
   36SOL    HW1  129   0.388   0.322   1.807
   36SOL    HW2  130   0.229   0.290   1.829
   37SOL     OW  131   1.466   1.417   0.953
   37SOL    HW1  132   1.407   1.423   1.033
   37SOL    HW2  133   1.451   1.329   0.907
   38SOL     OW  134   1.667   1.714   0.572
   38SOL    HW1  135   1.626   1.691   0.484
   38SOL    HW2  136   1.649   1.640   0.637
   39SOL     OW  137   0.598   0.729   0.270
   39SOL    HW1  138   0.622   0.798   0.202
   39SOL    HW2  139   0.520   0.762   0.324
   40SOL     OW  140   1.281   0.345   0.944
   40SOL    HW1  141   1.195   0.295   0.931
   40SOL    HW2  142   1.343   0.291   1.000
   41SOL     OW  143   1.576   1.662   0.307
   41SOL    HW1  144   1.665   1.708   0.310
   41SOL    HW2  145   1.555   1.638   0.212
   42SOL     OW  146   0.807   0.605   1.465
   42SOL    HW1  147   0.760   0.602   1.554
   42SOL    HW2  148   0.756   0.550   1.399
   43SOL     OW  149   1.394   0.469   1.674
   43SOL    HW1  150   1.374   0.512   1.762
   43SOL    HW2  151   1.472   0.407   1.683
   44SOL     OW  152   0.973   0.890   1.572
   44SOL    HW1  153   1.019   0.806   1.543
   44SOL    HW2  154   0.917   0.924   1.497
   45SOL     OW  155   0.991   0.410   1.242
   45SOL    HW1  156   0.914   0.444   1.296
   45SOL    HW2  157   0.957   0.359   1.163
   46SOL     OW  158   1.041   0.701   0.429
   46SOL    HW1  159   1.067   0.697   0.525
   46SOL    HW2  160   0.956   0.650   0.415
   47SOL     OW  161   0.076   0.811   0.789
   47SOL    HW1  162   0.175   0.799   0.798
   47SOL    HW2  163   0.052   0.906   0.810
   48SOL     OW  164   0.130   1.821   1.571
   48SOL    HW1  165   0.120   1.806   1.670
   48SOL    HW2  166   0.044   1.857   1.535
   49SOL     OW  167   0.865   0.348   0.195
   49SOL    HW1  168   0.924   0.411   0.146
   49SOL    HW2  169   0.884   0.254   0.166
   50SOL     OW  170   1.719   0.585   1.831
   50SOL    HW1  171   1.693   0.674   1.795
   50SOL    HW2  172   1.717   0.517   1.758
   51SOL     OW  173   1.362   1.144   0.545
   51SOL    HW1  174   1.445   1.115   0.497
   51SOL    HW2  175   1.313   1.211   0.489
   52SOL     OW  176   0.550   0.196   0.885
   52SOL    HW1  177   0.545   0.191   0.985
   52SOL    HW2  178   0.552   0.292   0.856
   53SOL     OW  179   1.008   1.456   0.477
   53SOL    HW1  180   0.962   1.528   0.425
   53SOL    HW2  181   1.004   1.476   0.575
   54SOL     OW  182   0.351   1.801   0.853
   54SOL    HW1  183   0.401   1.715   0.859
   54SOL    HW2  184   0.416   1.878   0.850
   55SOL     OW  185   1.795   1.066   0.873
   55SOL    HW1  186   1.733   1.051   0.797
   55SOL    HW2  187   1.743   1.077   0.958
   56SOL     OW  188   1.227   1.550   1.506
   56SOL    HW1  189   1.233   1.473   1.570
   56SOL    HW2  190   1.175   1.524   1.426
   57SOL     OW  191   0.321   0.943   0.242
   57SOL    HW1  192   0.403   0.982   0.200
   57SOL    HW2  193   0.294   0.861   0.193
   58SOL     OW  194   1.458   0.735   0.728
   58SOL    HW1  195   1.453   0.670   0.803
   58SOL    HW2  196   1.538   0.794   0.741
   59SOL     OW  197   0.461   1.266   1.727
   59SOL    HW1  198   0.411   1.267   1.641
   59SOL    HW2  199   0.398   1.248   1.803
   60SOL     OW  200   1.111   1.776   0.237
   60SOL    HW1  201   1.051   1.714   0.287
   60SOL    HW2  202   1.142   1.732   0.152
   61SOL     OW  203   0.202   0.285   1.498
   61SOL    HW1  204   0.122   0.345   1.485
   61SOL    HW2  205   0.192   0.236   1.584
   62SOL     OW  206   1.632   1.377   0.081
   62SOL    HW1  207   1.600   1.471   0.071
   62SOL    HW2  208   1.556   1.314   0.069
   63SOL     OW  209   0.464   1.743   0.323
   63SOL    HW1  210   0.497   1.782   0.409
   63SOL    HW2  211   0.540   1.736   0.258
   64SOL     OW  212   1.400   0.107   0.426
   64SOL    HW1  213   1.376   0.070   0.336
   64SOL    HW2  214   1.499   0.123   0.430
   65SOL     OW  215   0.249   1.785   1.241
   65SOL    HW1  216   0.306   1.720   1.291
   65SOL    HW2  217   0.233   1.752   1.148
   66SOL     OW  218   0.940   1.698   0.904
   66SOL    HW1  219   1.020   1.641   0.925
   66SOL    HW2  220   0.891   1.658   0.827
   67SOL     OW  221   0.382   0.700   0.480
   67SOL    HW1  222   0.427   0.610   0.477
   67SOL    HW2  223   0.288   0.689   0.513
   68SOL     OW  224   1.547   0.222   1.729
   68SOL    HW1  225   1.542   0.259   1.821
   68SOL    HW2  226   1.475   0.153   1.717
   69SOL     OW  227   0.614   0.122   0.117
   69SOL    HW1  228   0.712   0.100   0.124
   69SOL    HW2  229   0.583   0.105   0.024
   70SOL     OW  230   0.781   0.264   1.749
   70SOL    HW1  231   0.848   0.203   1.792
   70SOL    HW2  232   0.708   0.283   1.814
   71SOL     OW  233   0.888   1.514   1.195
   71SOL    HW1  234   0.865   1.489   1.101
   71SOL    HW2  235   0.949   1.445   1.234
   72SOL     OW  236   1.351   0.590   1.433
   72SOL    HW1  237   1.379   0.547   1.518
   72SOL    HW2  238   1.376   0.686   1.434
   73SOL     OW  239   0.803   1.402   0.924
   73SOL    HW1  240   0.893   1.416   0.882
   73SOL    HW2  241   0.732   1.404   0.853
   74SOL     OW  242   0.922   0.503   0.899
   74SOL    HW1  243   0.897   0.494   0.803
   74SOL    HW2  244   0.970   0.421   0.930
   75SOL     OW  245   0.539   0.064   0.512
   75SOL    HW1  246   0.458   0.065   0.570
   75SOL    HW2  247   0.542   0.147   0.457
   76SOL     OW  248   1.434   1.188   0.041
   76SOL    HW1  249   1.466   1.112   0.098
   76SOL    HW2  250   1.342   1.215   0.071
   77SOL     OW  251   0.297   0.035   0.171
   77SOL    HW1  252   0.346   0.119   0.150
   77SOL    HW2  253   0.359  -0.030   0.216
   78SOL     OW  254   0.935   0.236   0.480
   78SOL    HW1  255   0.887   0.277   0.402
   78SOL    HW2  256   1.034   0.234   0.461
   79SOL     OW  257   1.076   0.683   1.464
   79SOL    HW1  258   0.996   0.622   1.467
   79SOL    HW2  259   1.157   0.630   1.440
   80SOL     OW  260   1.227   1.570   0.793
   80SOL    HW1  261   1.248   1.644   0.728
   80SOL    HW2  262   1.295   1.570   0.866
   81SOL     OW  263   0.459   1.152   0.741
   81SOL    HW1  264   0.388   1.125   0.806
   81SOL    HW2  265   0.433   1.124   0.648
   82SOL     OW  266   1.271   1.797   0.591
   82SOL    HW1  267   1.315   1.861   0.527
   82SOL    HW2  268   1.221   1.849   0.661
   83SOL     OW  269   1.032   0.549   0.016
   83SOL    HW1  270   0.991   0.631  -0.023
   83SOL    HW2  271   1.096   0.575   0.089
   84SOL     OW  272   0.078   0.556   1.386
   84SOL    HW1  273   0.170   0.555   1.345
   84SOL    HW2  274   0.072   0.630   1.453
   85SOL     OW  275   0.561   0.222   1.147
   85SOL    HW1  276   0.599   0.138   1.184
   85SOL    HW2  277   0.473   0.241   1.191
   86SOL     OW  278   0.866   0.454   0.642
   86SOL    HW1  279   0.834   0.526   0.580
   86SOL    HW2  280   0.890   0.373   0.589
   87SOL     OW  281   1.017   0.039   0.753
   87SOL    HW1  282   0.945   0.044   0.684
   87SOL    HW2  283   0.993  -0.030   0.822
   88SOL     OW  284   1.429   1.173   0.867
   88SOL    HW1  285   1.374   1.089   0.860
   88SOL    HW2  286   1.455   1.202   0.775
   89SOL     OW  287   1.466   0.590   0.992
   89SOL    HW1  288   1.436   0.495   0.999
   89SOL    HW2  289   1.539   0.606   1.058
   90SOL     OW  290   1.857   0.833   0.377
   90SOL    HW1  291   1.899   0.769   0.441
   90SOL    HW2  292   1.819   0.782   0.299
   91SOL     OW  293   0.488   1.385   0.174
   91SOL    HW1  294   0.401   1.370   0.221
   91SOL    HW2  295   0.471   1.411   0.079
   92SOL     OW  296   1.664   1.280   0.657
   92SOL    HW1  297   1.763   1.288   0.671
   92SOL    HW2  298   1.619   1.364   0.688
   93SOL     OW  299   1.390   0.575   0.078
   93SOL    HW1  300   1.336   0.554   0.159
   93SOL    HW2  301   1.481   0.534   0.087
   94SOL     OW  302   0.527   0.256   0.328
   94SOL    HW1  303   0.554   0.197   0.253
   94SOL    HW2  304   0.527   0.351   0.297
   95SOL     OW  305   1.754   1.223   1.588
   95SOL    HW1  306   1.845   1.184   1.575
   95SOL    HW2  307   1.762   1.319   1.612
   96SOL     OW  308   1.064   1.347   1.340
   96SOL    HW1  309   0.984   1.324   1.395
   96SOL    HW2  310   1.147   1.321   1.389
   97SOL     OW  311   1.592   1.629   1.625
   97SOL    HW1  312   1.619   1.663   1.535
   97SOL    HW2  313   1.671   1.591   1.671
   98SOL     OW  314   1.111   1.195   1.100
   98SOL    HW1  315   1.071   1.239   1.181
   98SOL    HW2  316   1.070   1.232   1.017
   99SOL     OW  317   1.638   1.099   1.079
   99SOL    HW1  318   1.643   1.180   1.138
   99SOL    HW2  319   1.552   1.101   1.028
  100SOL     OW  320   0.915   0.089   1.402
  100SOL    HW1  321   0.940   0.069   1.307
  100SOL    HW2  322   0.987   0.145   1.444
  101SOL     OW  323   0.980   1.116   1.719
  101SOL    HW1  324   0.881   1.122   1.729
  101SOL    HW2  325   1.003   1.036   1.663
  102SOL     OW  326   0.705   1.050   0.368
  102SOL    HW1  327   0.691   1.057   0.467
  102SOL    HW2  328   0.789   0.999   0.350
  103SOL     OW  329   0.410   0.813   1.251
  103SOL    HW1  330   0.496   0.825   1.301
  103SOL    HW2  331   0.368   0.726   1.278
  104SOL     OW  332   1.274   0.386   1.262
  104SOL    HW1  333   1.295   0.460   1.326
  104SOL    HW2  334   1.185   0.403   1.219
  105SOL     OW  335   0.064   1.564   1.331
  105SOL    HW1  336   0.018   1.646   1.297
  105SOL    HW2  337   0.162   1.583   1.340
  106SOL     OW  338   0.367   1.100   0.501
  106SOL    HW1  339   0.360   1.183   0.445
  106SOL    HW2  340   0.371   1.020   0.441
  107SOL     OW  341   0.566   0.537   0.865
  107SOL    HW1  342   0.578   0.603   0.791
  107SOL    HW2  343   0.612   0.571   0.948
  108SOL     OW  344   1.252   1.348   0.388
  108SOL    HW1  345   1.302   1.425   0.428
  108SOL    HW2  346   1.157   1.350   0.420
  109SOL     OW  347   1.272   1.445   1.142
  109SOL    HW1  348   1.319   1.458   1.229
  109SOL    HW2  349   1.206   1.371   1.151
  110SOL     OW  350   1.582   0.639   0.472
  110SOL    HW1  351   1.551   0.700   0.545
  110SOL    HW2  352   1.632   0.691   0.403
  111SOL     OW  353   0.354   1.510   1.329
  111SOL    HW1  354   0.333   1.466   1.242
  111SOL    HW2  355   0.451   1.536   1.332
  112SOL     OW  356   0.402   0.751   1.598
  112SOL    HW1  357   0.470   0.806   1.551
  112SOL    HW2  358   0.442   0.663   1.625
  113SOL     OW  359   1.587   0.779   1.670
  113SOL    HW1  360   1.495   0.817   1.665
  113SOL    HW2  361   1.647   0.826   1.605
  114SOL     OW  362   1.013   0.105   1.770
  114SOL    HW1  363   1.019   0.190   1.718
  114SOL    HW2  364   1.045   0.029   1.713
  115SOL     OW  365   0.504   0.050   1.740
  115SOL    HW1  366   0.462  -0.007   1.670
  115SOL    HW2  367   0.438   0.119   1.772
  116SOL     OW  368   0.573   0.870   1.029
  116SOL    HW1  369   0.617   0.959   1.020
  116SOL    HW2  370   0.510   0.870   1.106
  117SOL     OW  371   1.360   0.862   1.045
  117SOL    HW1  372   1.285   0.862   0.979
  117SOL    HW2  373   1.397   0.770   1.054
  118SOL     OW  374   1.209   0.525   0.275
  118SOL    HW1  375   1.222   0.441   0.329
  118SOL    HW2  376   1.180   0.599   0.335
  119SOL     OW  377   0.307   0.213   1.231
  119SOL    HW1  378   0.284   0.250   1.321
  119SOL    HW2  379   0.277   0.118   1.225
  120SOL     OW  380   0.037   1.310   1.282
  120SOL    HW1  381   0.090   1.261   1.350
  120SOL    HW2  382   0.059   1.408   1.287
  121SOL     OW  383   0.732   0.634   1.064
  121SOL    HW1  384   0.791   0.608   0.988
  121SOL    HW2  385   0.704   0.730   1.053
  122SOL     OW  386   1.728   0.935   1.854
  122SOL    HW1  387   1.682   0.928   1.765
  122SOL    HW2  388   1.666   0.979   1.920
  123SOL     OW  389   0.307   0.063   0.618
  123SOL    HW1  390   0.296   0.157   0.651
  123SOL    HW2  391   0.302   0.000   0.695
  124SOL     OW  392   1.622   0.367   0.374
  124SOL    HW1  393   1.624   0.291   0.438
  124SOL    HW2  394   1.574   0.444   0.414
  125SOL     OW  395   1.023   0.766   0.966
  125SOL    HW1  396   1.038   0.787   1.062
  125SOL    HW2  397   0.993   0.671   0.957
  126SOL     OW  398   0.980   1.573   1.700
  126SOL    HW1  399   0.960   1.617   1.612
  126SOL    HW2  400   1.019   1.482   1.684
  127SOL     OW  401   1.859   1.518   1.605
  127SOL    HW1  402   1.873   1.545   1.510
  127SOL    HW2  403   1.942   1.540   1.658
  128SOL     OW  404   0.350   0.898   1.804
  128SOL    HW1  405   0.426   0.942   1.852
  128SOL    HW2  406   0.385   0.851   1.722
  129SOL     OW  407   1.540   0.274   0.125
  129SOL    HW1  408   1.479   0.199   0.148
  129SOL    HW2  409   1.562   0.326   0.208
  130SOL     OW  410   1.303   0.838   0.042
  130SOL    HW1  411   1.337   0.745   0.057
  130SOL    HW2  412   1.321   0.865  -0.053
  131SOL     OW  413   1.068   1.333   0.849
  131SOL    HW1  414   1.075   1.249   0.794
  131SOL    HW2  415   1.130   1.402   0.813
  132SOL     OW  416   0.319   0.810   0.949
  132SOL    HW1  417   0.412   0.846   0.954
  132SOL    HW2  418   0.313   0.725   1.001
  133SOL     OW  419   0.339   0.509   1.006
  133SOL    HW1  420   0.287   0.426   0.989
  133SOL    HW2  421   0.416   0.514   0.942
  134SOL     OW  422   1.138   0.380   1.678
  134SOL    HW1  423   1.093   0.443   1.742
  134SOL    HW2  424   1.231   0.411   1.661
  135SOL     OW  425   1.160   0.207   1.477
  135SOL    HW1  426   1.160   0.271   1.554
  135SOL    HW2  427   1.188   0.255   1.394
  136SOL     OW  428   0.008   1.326   0.200
  136SOL    HW1  429  -0.085   1.347   0.169
  136SOL    HW2  430   0.018   1.227   0.213
  137SOL     OW  431   0.088   1.801   0.927
  137SOL    HW1  432   0.046   1.715   0.900
  137SOL    HW2  433   0.182   1.804   0.893
  138SOL     OW  434   0.504   1.568   0.910
  138SOL    HW1  435   0.570   1.642   0.919
  138SOL    HW2  436   0.548   1.489   0.868
  139SOL     OW  437   1.002   0.796   1.238
  139SOL    HW1  438   1.043   0.764   1.324
  139SOL    HW2  439   0.906   0.769   1.235
  140SOL     OW  440   0.040   0.544   1.114
  140SOL    HW1  441   0.125   0.511   1.073
  140SOL    HW2  442   0.053   0.559   1.212
  141SOL     OW  443   0.189   0.520   1.722
  141SOL    HW1  444   0.248   0.480   1.652
  141SOL    HW2  445   0.131   0.591   1.681
  142SOL     OW  446   1.369   0.950   1.660
  142SOL    HW1  447   1.408   1.039   1.680
  142SOL    HW2  448   1.379   0.930   1.563
  143SOL     OW  449   0.815   0.572   0.325
  143SOL    HW1  450   0.822   0.483   0.279
  143SOL    HW2  451   0.721   0.606   0.317
  144SOL     OW  452   1.657   0.604   1.206
  144SOL    HW1  453   1.619   0.535   1.268
  144SOL    HW2  454   1.739   0.568   1.162
  145SOL     OW  455   0.252   1.564   1.744
  145SOL    HW1  456   0.222   1.621   1.820
  145SOL    HW2  457   0.245   1.467   1.770
  146SOL     OW  458   0.671   0.464   1.269
  146SOL    HW1  459   0.637   0.375   1.239
  146SOL    HW2  460   0.697   0.518   1.189
  147SOL     OW  461   0.930   1.678   1.465
  147SOL    HW1  462   0.906   1.660   1.370
  147SOL    HW2  463   0.960   1.772   1.475
  148SOL     OW  464   0.473   0.500   0.191
  148SOL    HW1  465   0.534   0.580   0.195
  148SOL    HW2  466   0.378   0.531   0.198
  149SOL     OW  467   0.159   1.137   1.466
  149SOL    HW1  468   0.181   1.076   1.542
  149SOL    HW2  469   0.169   1.088   1.380
  150SOL     OW  470   1.347   1.059   1.234
  150SOL    HW1  471   1.371   0.996   1.160
  150SOL    HW2  472   1.257   1.099   1.216
  151SOL     OW  473   1.302   0.855   0.309
  151SOL    HW1  474   1.216   0.824   0.351
  151SOL    HW2  475   1.298   0.841   0.210
  152SOL     OW  476   1.759   1.747   1.154
  152SOL    HW1  477   1.820   1.777   1.081
  152SOL    HW2  478   1.721   1.658   1.132
  153SOL     OW  479   1.252   1.731   1.128
  153SOL    HW1  480   1.336   1.736   1.074
  153SOL    HW2  481   1.229   1.635   1.146
  154SOL     OW  482   0.083   1.258   1.022
  154SOL    HW1  483   0.078   1.257   1.122
  154SOL    HW2  484   0.000   1.217   0.984
  155SOL     OW  485   0.688   1.662   1.716
  155SOL    HW1  486   0.632   1.743   1.725
  155SOL    HW2  487   0.740   1.666   1.630
  156SOL     OW  488   0.903   0.086   0.133
  156SOL    HW1  489   0.954   0.087   0.047
  156SOL    HW2  490   0.959   0.044   0.204
  157SOL     OW  491   1.726   0.135   0.523
  157SOL    HW1  492   1.799   0.118   0.456
  157SOL    HW2  493   1.695   0.048   0.561
  158SOL     OW  494   1.388   1.573   0.477
  158SOL    HW1  495   1.455   1.585   0.403
  158SOL    HW2  496   1.348   1.662   0.500
  159SOL     OW  497   0.130   1.794   1.851
  159SOL    HW1  498   0.089   1.720   1.904
  159SOL    HW2  499   0.194   1.845   1.909
  160SOL     OW  500   1.280   0.927   0.672
  160SOL    HW1  501   1.340   0.846   0.674
  160SOL    HW2  502   1.320   0.996   0.612
  161SOL     OW  503   0.830   1.273   1.422
  161SOL    HW1  504   0.825   1.306   1.517
  161SOL    HW2  505   0.744   1.292   1.376
  162SOL     OW  506   0.672   1.616   0.154
  162SOL    HW1  507   0.681   1.626   0.055
  162SOL    HW2  508   0.632   1.527   0.175
  163SOL     OW  509   1.650   1.720   1.394
  163SOL    HW1  510   1.703   1.730   1.310
  163SOL    HW2  511   1.623   1.810   1.428
  164SOL     OW  512   1.841   0.175   0.963
  164SOL    HW1  513   1.880   0.090   0.927
  164SOL    HW2  514   1.743   0.177   0.944
  165SOL     OW  515   0.263   0.326   0.720
  165SOL    HW1  516   0.184   0.377   0.686
  165SOL    HW2  517   0.254   0.311   0.818
  166SOL     OW  518   1.194   1.612   0.031
  166SOL    HW1  519   1.200   1.519   0.068
  166SOL    HW2  520   1.135   1.612  -0.049
  167SOL     OW  521   0.822   1.002   1.372
  167SOL    HW1  522   0.862   1.001   1.280
  167SOL    HW2  523   0.832   1.094   1.412
  168SOL     OW  524   0.916   0.910   0.291
  168SOL    HW1  525   0.979   0.948   0.223
  168SOL    HW2  526   0.956   0.827   0.330
  169SOL     OW  527   1.504   1.607   0.044
  169SOL    HW1  528   1.412   1.644   0.051
  169SOL    HW2  529   1.542   1.627  -0.046
  170SOL     OW  530   0.372   1.288   1.490
  170SOL    HW1  531   0.359   1.381   1.456
  170SOL    HW2  532   0.288   1.236   1.477
  171SOL     OW  533   1.614   1.292   1.289
  171SOL    HW1  534   1.674   1.295   1.369
  171SOL    HW2  535   1.539   1.356   1.302
  172SOL     OW  536   1.039   1.098   0.696
  172SOL    HW1  537   0.969   1.051   0.750
  172SOL    HW2  538   1.098   1.030   0.653
  173SOL     OW  539   1.014   0.236   0.971
  173SOL    HW1  540   1.006   0.200   0.878
  173SOL    HW2  541   1.012   0.160   1.036
  174SOL     OW  542   0.590   1.487   0.491
  174SOL    HW1  543   0.632   1.429   0.421
  174SOL    HW2  544   0.546   1.566   0.447
  175SOL     OW  545   1.709   0.385   1.381
  175SOL    HW1  546   1.782   0.454   1.385
  175SOL    HW2  547   1.737   0.310   1.322
  176SOL     OW  548   0.255   1.348   0.290
  176SOL    HW1  549   0.159   1.349   0.263
  176SOL    HW2  550   0.267   1.401   0.374
  177SOL     OW  551   0.105   1.013   1.726
  177SOL    HW1  552   0.028   0.980   1.780
  177SOL    HW2  553   0.190   0.983   1.768
  178SOL     OW  554   0.672   0.203   1.489
  178SOL    HW1  555   0.762   0.187   1.449
  178SOL    HW2  556   0.680   0.208   1.588
  179SOL     OW  557   0.075   0.345   0.033
  179SOL    HW1  558  -0.017   0.317   0.004
  179SOL    HW2  559   0.106   0.422  -0.023
  180SOL     OW  560   1.440   0.856   1.398
  180SOL    HW1  561   1.383   0.908   1.335
  180SOL    HW2  562   1.536   0.868   1.374
  181SOL     OW  563   0.072   0.166   0.318
  181SOL    HW1  564   0.055   0.249   0.264
  181SOL    HW2  565   0.162   0.129   0.296
  182SOL     OW  566   1.183   1.335   0.119
  182SOL    HW1  567   1.084   1.324   0.121
  182SOL    HW2  568   1.217   1.350   0.212
  183SOL     OW  569   0.613   0.842   1.431
  183SOL    HW1  570   0.669   0.923   1.414
  183SOL    HW2  571   0.672   0.762   1.434
  184SOL     OW  572   1.493   1.767   0.959
  184SOL    HW1  573   1.526   1.831   0.890
  184SOL    HW2  574   1.559   1.761   1.034
  185SOL     OW  575   0.716   0.565   1.708
  185SOL    HW1  576   0.735   0.630   1.782
  185SOL    HW2  577   0.776   0.485   1.717
  186SOL     OW  578   1.450   1.220   1.633
  186SOL    HW1  579   1.441   1.210   1.732
  186SOL    HW2  580   1.546   1.213   1.607
  187SOL     OW  581   0.390   1.741   1.560
  187SOL    HW1  582   0.299   1.782   1.558
  187SOL    HW2  583   0.383   1.647   1.592
  188SOL     OW  584   1.674   0.883   1.254
  188SOL    HW1  585   1.647   0.794   1.217
  188SOL    HW2  586   1.675   0.951   1.181
  189SOL     OW  587   1.225   0.325   0.449
  189SOL    HW1  588   1.290   0.251   0.438
  189SOL    HW2  589   1.245   0.375   0.533
  190SOL     OW  590   0.594   0.745   0.652
  190SOL    HW1  591   0.644   0.830   0.633
  190SOL    HW2  592   0.506   0.747   0.604
  191SOL     OW  593   1.777   0.342   1.642
  191SOL    HW1  594   1.760   0.373   1.548
  191SOL    HW2  595   1.693   0.305   1.680
  192SOL     OW  596   1.730   0.934   1.517
  192SOL    HW1  597   1.768   1.025   1.532
  192SOL    HW2  598   1.722   0.917   1.418
  193SOL     OW  599   0.859   1.374   0.016
  193SOL    HW1  600   0.813   1.389   0.104
  193SOL    HW2  601   0.903   1.459  -0.014
  194SOL     OW  602   0.661   1.790   0.953
  194SOL    HW1  603   0.615   1.878   0.940
  194SOL    HW2  604   0.760   1.802   0.946
  195SOL     OW  605   0.859   0.956   0.861
  195SOL    HW1  606   0.913   0.887   0.909
  195SOL    HW2  607   0.827   1.025   0.927
  196SOL     OW  608   1.083   0.984   0.087
  196SOL    HW1  609   1.060   1.037   0.005
  196SOL    HW2  610   1.164   0.928   0.068
  197SOL     OW  611   1.861   1.569   0.851
  197SOL    HW1  612   1.790   1.557   0.781
  197SOL    HW2  613   1.862   1.490   0.911
  198SOL     OW  614   0.221   1.314   1.844
  198SOL    HW1  615   0.156   1.241   1.823
  198SOL    HW2  616   0.225   1.328   1.942
  199SOL     OW  617   0.079   1.240   0.653
  199SOL    HW1  618   0.078   1.193   0.741
  199SOL    HW2  619   0.161   1.212   0.602
  200SOL     OW  620   0.672   1.391   1.624
  200SOL    HW1  621   0.594   1.341   1.662
  200SOL    HW2  622   0.669   1.486   1.655
  201SOL     OW  623   1.824   0.192   1.227
  201SOL    HW1  624   1.820   0.102   1.271
  201SOL    HW2  625   1.827   0.181   1.128
  202SOL     OW  626   0.428   0.424   0.520
  202SOL    HW1  627   0.458   0.352   0.458
  202SOL    HW2  628   0.389   0.384   0.603
  203SOL     OW  629   1.705   1.487   1.104
  203SOL    HW1  630   1.612   1.462   1.077
  203SOL    HW2  631   1.731   1.437   1.186
  204SOL     OW  632   0.317   0.547   1.280
  204SOL    HW1  633   0.355   0.488   1.352
  204SOL    HW2  634   0.357   0.521   1.192
  205SOL     OW  635   0.812   1.586   0.687
  205SOL    HW1  636   0.844   1.596   0.593
  205SOL    HW2  637   0.733   1.524   0.689
  206SOL     OW  638   1.424   0.214   1.112
  206SOL    HW1  639   1.476   0.149   1.167
  206SOL    HW2  640   1.375   0.277   1.173
  207SOL     OW  641   1.001   0.034   1.154
  207SOL    HW1  642   0.938  -0.038   1.123
  207SOL    HW2  643   1.094  -0.002   1.154
  208SOL     OW  644   0.770   1.330   0.301
  208SOL    HW1  645   0.724   1.243   0.318
  208SOL    HW2  646   0.861   1.327   0.342
  209SOL     OW  647   0.618   1.567   1.284
  209SOL    HW1  648   0.613   1.649   1.341
  209SOL    HW2  649   0.707   1.564   1.239
  210SOL     OW  650   1.352   0.052   0.168
  210SOL    HW1  651   1.387   0.011   0.084
  210SOL    HW2  652   1.262   0.014   0.188
  211SOL     OW  653   1.300   0.453   0.691
  211SOL    HW1  654   1.241   0.533   0.695
  211SOL    HW2  655   1.315   0.418   0.784
  212SOL     OW  656   1.593   0.221   0.882
  212SOL    HW1  657   1.509   0.220   0.936
  212SOL    HW2  658   1.595   0.304   0.826
  213SOL     OW  659   0.039   1.077   0.300
  213SOL    HW1  660   0.138   1.066   0.291
  213SOL    HW2  661  -0.001   0.991   0.332
  214SOL     OW  662   0.875   1.646   0.337
  214SOL    HW1  663   0.798   1.611   0.283
  214SOL    HW2  664   0.843   1.717   0.399
  215SOL     OW  665   0.230   0.628   1.975
  215SOL    HW1  666   0.137   0.626   2.012
  215SOL    HW2  667   0.231   0.589   1.883
  216SOL     OW  668   0.225   0.275   2.858
  216SOL    HW1  669   0.260   0.258   2.950
  216SOL    HW2  670   0.137   0.230   2.846
  217SOL     OW  671   0.019   0.368   2.509
  217SOL    HW1  672  -0.063   0.411   2.548
  217SOL    HW2  673  -0.009   0.295   2.446
  218SOL     OW  674   0.569   1.275   3.027
  218SOL    HW1  675   0.476   1.268   2.990
  218SOL    HW2  676   0.580   1.364   3.071
  219SOL     OW  677   1.555   1.511   2.565
  219SOL    HW1  678   1.498   1.495   2.646
  219SOL    HW2  679   1.496   1.521   2.485
  220SOL     OW  680   1.135   0.703   2.579
  220SOL    HW1  681   1.192   0.781   2.554
  220SOL    HW2  682   1.075   0.729   2.655
  221SOL     OW  683   1.755   0.607   2.093
  221SOL    HW1  684   1.743   0.594   1.994
  221SOL    HW2  685   1.725   0.526   2.142
  222SOL     OW  686   0.768   1.144   2.885
  222SOL    HW1  687   0.690   1.161   2.945
  222SOL    HW2  688   0.802   1.231   2.849
  223SOL     OW  689   0.850   0.798   3.685
  223SOL    HW1  690   0.846   0.874   3.750
  223SOL    HW2  691   0.872   0.834   3.594
  224SOL     OW  692   0.685   1.012   2.527
  224SOL    HW1  693   0.754   0.996   2.597
  224SOL    HW2  694   0.612   1.069   2.565
  225SOL     OW  695   0.686   1.161   3.665
  225SOL    HW1  696   0.746   1.240   3.679
  225SOL    HW2  697   0.600   1.192   3.624
  226SOL     OW  698   0.335   1.435   2.923
  226SOL    HW1  699   0.257   1.404   2.870
  226SOL    HW2  700   0.393   1.493   2.866
  227SOL     OW  701   1.460   1.505   3.201
  227SOL    HW1  702   1.484   1.599   3.227
  227SOL    HW2  703   1.444   1.451   3.283
  228SOL     OW  704   0.438   0.392   3.361
  228SOL    HW1  705   0.520   0.336   3.370
  228SOL    HW2  706   0.357   0.334   3.365
  229SOL     OW  707   1.603   0.447   2.599
  229SOL    HW1  708   1.529   0.493   2.549
  229SOL    HW2  709   1.654   0.515   2.652
  230SOL     OW  710   0.231   1.713   2.345
  230SOL    HW1  711   0.265   1.790   2.399
  230SOL    HW2  712   0.275   1.713   2.255
  231SOL     OW  713   1.127   1.341   3.552
  231SOL    HW1  714   1.174   1.341   3.640
  231SOL    HW2  715   1.079   1.254   3.541
  232SOL     OW  716   0.230   1.434   2.400
  232SOL    HW1  717   0.204   1.530   2.400
  232SOL    HW2  718   0.159   1.380   2.445
  233SOL     OW  719   0.240   1.091   2.748
  233SOL    HW1  720   0.254   1.007   2.800
  233SOL    HW2  721   0.185   1.155   2.803
  234SOL     OW  722   0.620   1.786   3.301
  234SOL    HW1  723   0.528   1.769   3.336
  234SOL    HW2  724   0.648   1.878   3.327
  235SOL     OW  725   0.606   0.964   1.985
  235SOL    HW1  726   0.613   1.048   1.931
  235SOL    HW2  727   0.652   0.977   2.073
  236SOL     OW  728   1.594   0.114   3.342
  236SOL    HW1  729   1.576   0.181   3.270
  236SOL    HW2  730   1.591   0.160   3.431
  237SOL     OW  731   0.122   0.643   2.425
  237SOL    HW1  732   0.077   0.555   2.442
  237SOL    HW2  733   0.121   0.697   2.509
  238SOL     OW  734   1.842   1.767   2.221
  238SOL    HW1  735   1.896   1.738   2.301
  238SOL    HW2  736   1.872   1.857   2.192
  239SOL     OW  737   0.027   1.596   1.979
  239SOL    HW1  738   0.008   1.500   2.000
  239SOL    HW2  739  -0.006   1.654   2.054
  240SOL     OW  740   1.689   0.922   2.474
  240SOL    HW1  741   1.784   0.893   2.482
  240SOL    HW2  742   1.681   0.987   2.399
  241SOL     OW  743   1.641   1.108   2.294
  241SOL    HW1  744   1.727   1.110   2.242
  241SOL    HW2  745   1.655   1.155   2.382
  242SOL     OW  746   0.113   0.737   3.459
  242SOL    HW1  747   0.201   0.724   3.504
  242SOL    HW2  748   0.100   0.834   3.437
  243SOL     OW  749   0.613   1.365   2.588
  243SOL    HW1  750   0.564   1.278   2.597
  243SOL    HW2  751   0.590   1.408   2.501
  244SOL     OW  752   1.293   1.228   3.285
  244SOL    HW1  753   1.330   1.155   3.227
  244SOL    HW2  754   1.345   1.233   3.370
  245SOL     OW  755   0.809   0.004   2.364
  245SOL    HW1  756   0.849   0.095   2.355
  245SOL    HW2  757   0.709   0.012   2.370
  246SOL     OW  758   0.197   0.976   3.126
  246SOL    HW1  759   0.286   0.931   3.112
  246SOL    HW2  760   0.124   0.911   3.107
  247SOL     OW  761   1.525   0.999   2.052
  247SOL    HW1  762   1.462   0.923   2.065
  247SOL    HW2  763   1.573   1.017   2.138
  248SOL     OW  764   1.187   1.792   3.478
  248SOL    HW1  765   1.211   1.852   3.402
  248SOL    HW2  766   1.194   1.697   3.448
  249SOL     OW  767   0.317   0.251   3.663
  249SOL    HW1  768   0.388   0.322   3.669
  249SOL    HW2  769   0.229   0.290   3.691
  250SOL     OW  770   1.466   1.417   2.815
  250SOL    HW1  771   1.407   1.423   2.895
  250SOL    HW2  772   1.451   1.329   2.769
  251SOL     OW  773   1.667   1.714   2.434
  251SOL    HW1  774   1.626   1.691   2.346
  251SOL    HW2  775   1.649   1.640   2.499
  252SOL     OW  776   0.598   0.729   2.132
  252SOL    HW1  777   0.622   0.798   2.064
  252SOL    HW2  778   0.520   0.762   2.186
  253SOL     OW  779   1.281   0.345   2.806
  253SOL    HW1  780   1.195   0.295   2.793
  253SOL    HW2  781   1.343   0.291   2.862
  254SOL     OW  782   1.576   1.662   2.169
  254SOL    HW1  783   1.665   1.708   2.172
  254SOL    HW2  784   1.555   1.638   2.074
  255SOL     OW  785   0.807   0.605   3.327
  255SOL    HW1  786   0.760   0.602   3.416
  255SOL    HW2  787   0.756   0.550   3.261
  256SOL     OW  788   1.394   0.469   3.536
  256SOL    HW1  789   1.374   0.512   3.624
  256SOL    HW2  790   1.472   0.407   3.545
  257SOL     OW  791   0.973   0.890   3.434
  257SOL    HW1  792   1.019   0.806   3.405
  257SOL    HW2  793   0.917   0.924   3.359
  258SOL     OW  794   0.991   0.410   3.104
  258SOL    HW1  795   0.914   0.444   3.158
  258SOL    HW2  796   0.957   0.359   3.025
  259SOL     OW  797   1.041   0.701   2.291
  259SOL    HW1  798   1.067   0.697   2.387
  259SOL    HW2  799   0.956   0.650   2.277
  260SOL     OW  800   0.076   0.811   2.651
  260SOL    HW1  801   0.175   0.799   2.660
  260SOL    HW2  802   0.052   0.906   2.672
  261SOL     OW  803   0.130   1.821   3.433
  261SOL    HW1  804   0.120   1.806   3.532
  261SOL    HW2  805   0.044   1.857   3.397
  262SOL     OW  806   0.865   0.348   2.057
  262SOL    HW1  807   0.924   0.411   2.008
  262SOL    HW2  808   0.884   0.254   2.028
  263SOL     OW  809   1.719   0.585   3.693
  263SOL    HW1  810   1.693   0.674   3.657
  263SOL    HW2  811   1.717   0.517   3.620
  264SOL     OW  812   1.362   1.144   2.407
  264SOL    HW1  813   1.445   1.115   2.359
  264SOL    HW2  814   1.313   1.211   2.351
  265SOL     OW  815   0.550   0.196   2.747
  265SOL    HW1  816   0.545   0.191   2.847
  265SOL    HW2  817   0.552   0.292   2.718
  266SOL     OW  818   1.008   1.456   2.339
  266SOL    HW1  819   0.962   1.528   2.287
  266SOL    HW2  820   1.004   1.476   2.437
  267SOL     OW  821   0.351   1.801   2.715
  267SOL    HW1  822   0.401   1.715   2.721
  267SOL    HW2  823   0.416   1.878   2.712
  268SOL     OW  824   1.795   1.066   2.735
  268SOL    HW1  825   1.733   1.051   2.659
  268SOL    HW2  826   1.743   1.077   2.820
  269SOL     OW  827   1.227   1.550   3.368
  269SOL    HW1  828   1.233   1.473   3.432
  269SOL    HW2  829   1.175   1.524   3.288
  270SOL     OW  830   0.321   0.943   2.104
  270SOL    HW1  831   0.403   0.982   2.062
  270SOL    HW2  832   0.294   0.861   2.055
  271SOL     OW  833   1.458   0.735   2.590
  271SOL    HW1  834   1.453   0.670   2.665
  271SOL    HW2  835   1.538   0.794   2.603
  272SOL     OW  836   0.461   1.266   3.589
  272SOL    HW1  837   0.411   1.267   3.503
  272SOL    HW2  838   0.398   1.248   3.665
  273SOL     OW  839   1.111   1.776   2.099
  273SOL    HW1  840   1.051   1.714   2.149
  273SOL    HW2  841   1.142   1.732   2.014
  274SOL     OW  842   0.202   0.285   3.360
  274SOL    HW1  843   0.122   0.345   3.347
  274SOL    HW2  844   0.192   0.236   3.446
  275SOL     OW  845   1.632   1.377   1.943
  275SOL    HW1  846   1.600   1.471   1.933
  275SOL    HW2  847   1.556   1.314   1.931
  276SOL     OW  848   0.464   1.743   2.185
  276SOL    HW1  849   0.497   1.782   2.271
  276SOL    HW2  850   0.540   1.736   2.120
  277SOL     OW  851   1.400   0.107   2.288
  277SOL    HW1  852   1.376   0.070   2.198
  277SOL    HW2  853   1.499   0.123   2.292
  278SOL     OW  854   0.249   1.785   3.103
  278SOL    HW1  855   0.306   1.720   3.153
  278SOL    HW2  856   0.233   1.752   3.010
  279SOL     OW  857   0.940   1.698   2.766
  279SOL    HW1  858   1.020   1.641   2.787
  279SOL    HW2  859   0.891   1.658   2.689
  280SOL     OW  860   0.382   0.700   2.342
  280SOL    HW1  861   0.427   0.610   2.339
  280SOL    HW2  862   0.288   0.689   2.375
  281SOL     OW  863   1.547   0.222   3.591
  281SOL    HW1  864   1.542   0.259   3.683
  281SOL    HW2  865   1.475   0.153   3.579
  282SOL     OW  866   0.614   0.122   1.979
  282SOL    HW1  867   0.712   0.100   1.986
  282SOL    HW2  868   0.583   0.105   1.886
  283SOL     OW  869   0.781   0.264   3.611
  283SOL    HW1  870   0.848   0.203   3.654
  283SOL    HW2  871   0.708   0.283   3.676
  284SOL     OW  872   0.888   1.514   3.057
  284SOL    HW1  873   0.865   1.489   2.963
  284SOL    HW2  874   0.949   1.445   3.096
  285SOL     OW  875   1.351   0.590   3.295
  285SOL    HW1  876   1.379   0.547   3.380
  285SOL    HW2  877   1.376   0.686   3.296
  286SOL     OW  878   0.803   1.402   2.786
  286SOL    HW1  879   0.893   1.416   2.744
  286SOL    HW2  880   0.732   1.404   2.715
  287SOL     OW  881   0.922   0.503   2.761
  287SOL    HW1  882   0.897   0.494   2.665
  287SOL    HW2  883   0.970   0.421   2.792
  288SOL     OW  884   0.539   0.064   2.374
  288SOL    HW1  885   0.458   0.065   2.432
  288SOL    HW2  886   0.542   0.147   2.319
  289SOL     OW  887   1.434   1.188   1.903
  289SOL    HW1  888   1.466   1.112   1.960
  289SOL    HW2  889   1.342   1.215   1.933
  290SOL     OW  890   0.297   0.035   2.033
  290SOL    HW1  891   0.346   0.119   2.012
  290SOL    HW2  892   0.359  -0.030   2.078
  291SOL     OW  893   0.935   0.236   2.342
  291SOL    HW1  894   0.887   0.277   2.264
  291SOL    HW2  895   1.034   0.234   2.323
  292SOL     OW  896   1.076   0.683   3.326
  292SOL    HW1  897   0.996   0.622   3.329
  292SOL    HW2  898   1.157   0.630   3.302
  293SOL     OW  899   1.227   1.570   2.655
  293SOL    HW1  900   1.248   1.644   2.590
  293SOL    HW2  901   1.295   1.570   2.728
  294SOL     OW  902   0.459   1.152   2.603
  294SOL    HW1  903   0.388   1.125   2.668
  294SOL    HW2  904   0.433   1.124   2.510
  295SOL     OW  905   1.271   1.797   2.453
  295SOL    HW1  906   1.315   1.861   2.389
  295SOL    HW2  907   1.221   1.849   2.523
  296SOL     OW  908   1.032   0.549   1.878
  296SOL    HW1  909   0.991   0.631   1.839
  296SOL    HW2  910   1.096   0.575   1.951
  297SOL     OW  911   0.078   0.556   3.248
  297SOL    HW1  912   0.170   0.555   3.207
  297SOL    HW2  913   0.072   0.630   3.315
  298SOL     OW  914   0.561   0.222   3.009
  298SOL    HW1  915   0.599   0.138   3.046
  298SOL    HW2  916   0.473   0.241   3.053
  299SOL     OW  917   0.866   0.454   2.504
  299SOL    HW1  918   0.834   0.526   2.442
  299SOL    HW2  919   0.890   0.373   2.451
  300SOL     OW  920   1.017   0.039   2.615
  300SOL    HW1  921   0.945   0.044   2.546
  300SOL    HW2  922   0.993  -0.030   2.684
  301SOL     OW  923   1.429   1.173   2.729
  301SOL    HW1  924   1.374   1.089   2.722
  301SOL    HW2  925   1.455   1.202   2.637
  302SOL     OW  926   1.466   0.590   2.854
  302SOL    HW1  927   1.436   0.495   2.861
  302SOL    HW2  928   1.539   0.606   2.920
  303SOL     OW  929   1.857   0.833   2.239
  303SOL    HW1  930   1.899   0.769   2.303
  303SOL    HW2  931   1.819   0.782   2.161
  304SOL     OW  932   0.488   1.385   2.036
  304SOL    HW1  933   0.401   1.370   2.083
  304SOL    HW2  934   0.471   1.411   1.941
  305SOL     OW  935   1.664   1.280   2.519
  305SOL    HW1  936   1.763   1.288   2.533
  305SOL    HW2  937   1.619   1.364   2.550
  306SOL     OW  938   1.390   0.575   1.940
  306SOL    HW1  939   1.336   0.554   2.021
  306SOL    HW2  940   1.481   0.534   1.949
  307SOL     OW  941   0.527   0.256   2.190
  307SOL    HW1  942   0.554   0.197   2.115
  307SOL    HW2  943   0.527   0.351   2.159
  308SOL     OW  944   1.754   1.223   3.450
  308SOL    HW1  945   1.845   1.184   3.437
  308SOL    HW2  946   1.762   1.319   3.474
  309SOL     OW  947   1.064   1.347   3.202
  309SOL    HW1  948   0.984   1.324   3.257
  309SOL    HW2  949   1.147   1.321   3.251
  310SOL     OW  950   1.592   1.629   3.487
  310SOL    HW1  951   1.619   1.663   3.397
  310SOL    HW2  952   1.671   1.591   3.533
  311SOL     OW  953   1.111   1.195   2.962
  311SOL    HW1  954   1.071   1.239   3.043
  311SOL    HW2  955   1.070   1.232   2.879
  312SOL     OW  956   1.638   1.099   2.941
  312SOL    HW1  957   1.643   1.180   3.000
  312SOL    HW2  958   1.552   1.101   2.890
  313SOL     OW  959   0.915   0.089   3.264
  313SOL    HW1  960   0.940   0.069   3.169
  313SOL    HW2  961   0.987   0.145   3.306
  314SOL     OW  962   0.980   1.116   3.581
  314SOL    HW1  963   0.881   1.122   3.591
  314SOL    HW2  964   1.003   1.036   3.525
  315SOL     OW  965   0.705   1.050   2.230
  315SOL    HW1  966   0.691   1.057   2.329
  315SOL    HW2  967   0.789   0.999   2.212
  316SOL     OW  968   0.410   0.813   3.113
  316SOL    HW1  969   0.496   0.825   3.163
  316SOL    HW2  970   0.368   0.726   3.140
  317SOL     OW  971   1.274   0.386   3.124
  317SOL    HW1  972   1.295   0.460   3.188
  317SOL    HW2  973   1.185   0.403   3.081
  318SOL     OW  974   0.064   1.564   3.193
  318SOL    HW1  975   0.018   1.646   3.159
  318SOL    HW2  976   0.162   1.583   3.202
  319SOL     OW  977   0.367   1.100   2.363
  319SOL    HW1  978   0.360   1.183   2.307
  319SOL    HW2  979   0.371   1.020   2.303
  320SOL     OW  980   0.566   0.537   2.727
  320SOL    HW1  981   0.578   0.603   2.653
  320SOL    HW2  982   0.612   0.571   2.810
  321SOL     OW  983   1.252   1.348   2.250
  321SOL    HW1  984   1.302   1.425   2.290
  321SOL    HW2  985   1.157   1.350   2.282
  322SOL     OW  986   1.272   1.445   3.004
  322SOL    HW1  987   1.319   1.458   3.091
  322SOL    HW2  988   1.206   1.371   3.013
  323SOL     OW  989   1.582   0.639   2.334
  323SOL    HW1  990   1.551   0.700   2.407
  323SOL    HW2  991   1.632   0.691   2.265
  324SOL     OW  992   0.354   1.510   3.191
  324SOL    HW1  993   0.333   1.466   3.104
  324SOL    HW2  994   0.451   1.536   3.194
  325SOL     OW  995   0.402   0.751   3.460
  325SOL    HW1  996   0.470   0.806   3.413
  325SOL    HW2  997   0.442   0.663   3.487
  326SOL     OW  998   1.587   0.779   3.532
  326SOL    HW1  999   1.495   0.817   3.527
  326SOL    HW2 1000   1.647   0.826   3.467
  327SOL     OW 1001   1.013   0.105   3.632
  327SOL    HW1 1002   1.019   0.190   3.580
  327SOL    HW2 1003   1.045   0.029   3.575
  328SOL     OW 1004   0.504   0.050   3.602
  328SOL    HW1 1005   0.462  -0.007   3.532
  328SOL    HW2 1006   0.438   0.119   3.634
  329SOL     OW 1007   0.573   0.870   2.891
  329SOL    HW1 1008   0.617   0.959   2.882
  329SOL    HW2 1009   0.510   0.870   2.968
  330SOL     OW 1010   1.360   0.862   2.907
  330SOL    HW1 1011   1.285   0.862   2.841
  330SOL    HW2 1012   1.397   0.770   2.916
  331SOL     OW 1013   1.209   0.525   2.137
  331SOL    HW1 1014   1.222   0.441   2.191
  331SOL    HW2 1015   1.180   0.599   2.197
  332SOL     OW 1016   0.307   0.213   3.093
  332SOL    HW1 1017   0.284   0.250   3.183
  332SOL    HW2 1018   0.277   0.118   3.087
  333SOL     OW 1019   0.037   1.310   3.144
  333SOL    HW1 1020   0.090   1.261   3.212
  333SOL    HW2 1021   0.059   1.408   3.149
  334SOL     OW 1022   0.732   0.634   2.926
  334SOL    HW1 1023   0.791   0.608   2.850
  334SOL    HW2 1024   0.704   0.730   2.915
  335SOL     OW 1025   1.728   0.935   3.716
  335SOL    HW1 1026   1.682   0.928   3.627
  335SOL    HW2 1027   1.666   0.979   3.782
  336SOL     OW 1028   0.307   0.063   2.480
  336SOL    HW1 1029   0.296   0.157   2.513
  336SOL    HW2 1030   0.302   0.000   2.557
  337SOL     OW 1031   1.622   0.367   2.236
  337SOL    HW1 1032   1.624   0.291   2.300
  337SOL    HW2 1033   1.574   0.444   2.276
  338SOL     OW 1034   1.023   0.766   2.828
  338SOL    HW1 1035   1.038   0.787   2.924
  338SOL    HW2 1036   0.993   0.671   2.819
  339SOL     OW 1037   0.980   1.573   3.562
  339SOL    HW1 1038   0.960   1.617   3.474
  339SOL    HW2 1039   1.019   1.482   3.546
  340SOL     OW 1040   1.859   1.518   3.467
  340SOL    HW1 1041   1.873   1.545   3.372
  340SOL    HW2 1042   1.942   1.540   3.520
  341SOL     OW 1043   0.350   0.898   3.666
  341SOL    HW1 1044   0.426   0.942   3.714
  341SOL    HW2 1045   0.385   0.851   3.584
  342SOL     OW 1046   1.540   0.274   1.987
  342SOL    HW1 1047   1.479   0.199   2.010
  342SOL    HW2 1048   1.562   0.326   2.070
  343SOL     OW 1049   1.303   0.838   1.904
  343SOL    HW1 1050   1.337   0.745   1.919
  343SOL    HW2 1051   1.321   0.865   1.809
  344SOL     OW 1052   1.068   1.333   2.711
  344SOL    HW1 1053   1.075   1.249   2.656
  344SOL    HW2 1054   1.130   1.402   2.675
  345SOL     OW 1055   0.319   0.810   2.811
  345SOL    HW1 1056   0.412   0.846   2.816
  345SOL    HW2 1057   0.313   0.725   2.863
  346SOL     OW 1058   0.339   0.509   2.868
  346SOL    HW1 1059   0.287   0.426   2.851
  346SOL    HW2 1060   0.416   0.514   2.804
  347SOL     OW 1061   1.138   0.380   3.540
  347SOL    HW1 1062   1.093   0.443   3.604
  347SOL    HW2 1063   1.231   0.411   3.523
  348SOL     OW 1064   1.160   0.207   3.339
  348SOL    HW1 1065   1.160   0.271   3.416
  348SOL    HW2 1066   1.188   0.255   3.256
  349SOL     OW 1067   0.008   1.326   2.062
  349SOL    HW1 1068  -0.085   1.347   2.031
  349SOL    HW2 1069   0.018   1.227   2.075
  350SOL     OW 1070   0.088   1.801   2.789
  350SOL    HW1 1071   0.046   1.715   2.762
  350SOL    HW2 1072   0.182   1.804   2.755
  351SOL     OW 1073   0.504   1.568   2.772
  351SOL    HW1 1074   0.570   1.642   2.781
  351SOL    HW2 1075   0.548   1.489   2.730
  352SOL     OW 1076   1.002   0.796   3.100
  352SOL    HW1 1077   1.043   0.764   3.186
  352SOL    HW2 1078   0.906   0.769   3.097
  353SOL     OW 1079   0.040   0.544   2.976
  353SOL    HW1 1080   0.125   0.511   2.935
  353SOL    HW2 1081   0.053   0.559   3.074
  354SOL     OW 1082   0.189   0.520   3.584
  354SOL    HW1 1083   0.248   0.480   3.514
  354SOL    HW2 1084   0.131   0.591   3.543
  355SOL     OW 1085   1.369   0.950   3.522
  355SOL    HW1 1086   1.408   1.039   3.542
  355SOL    HW2 1087   1.379   0.930   3.425
  356SOL     OW 1088   0.815   0.572   2.187
  356SOL    HW1 1089   0.822   0.483   2.141
  356SOL    HW2 1090   0.721   0.606   2.179
  357SOL     OW 1091   1.657   0.604   3.068
  357SOL    HW1 1092   1.619   0.535   3.130
  357SOL    HW2 1093   1.739   0.568   3.024
  358SOL     OW 1094   0.252   1.564   3.606
  358SOL    HW1 1095   0.222   1.621   3.682
  358SOL    HW2 1096   0.245   1.467   3.632
  359SOL     OW 1097   0.671   0.464   3.131
  359SOL    HW1 1098   0.637   0.375   3.101
  359SOL    HW2 1099   0.697   0.518   3.051
  360SOL     OW 1100   0.930   1.678   3.327
  360SOL    HW1 1101   0.906   1.660   3.232
  360SOL    HW2 1102   0.960   1.772   3.337
  361SOL     OW 1103   0.473   0.500   2.053
  361SOL    HW1 1104   0.534   0.580   2.057
  361SOL    HW2 1105   0.378   0.531   2.060
  362SOL     OW 1106   0.159   1.137   3.328
  362SOL    HW1 1107   0.181   1.076   3.404
  362SOL    HW2 1108   0.169   1.088   3.242
  363SOL     OW 1109   1.347   1.059   3.096
  363SOL    HW1 1110   1.371   0.996   3.022
  363SOL    HW2 1111   1.257   1.099   3.078
  364SOL     OW 1112   1.302   0.855   2.171
  364SOL    HW1 1113   1.216   0.824   2.213
  364SOL    HW2 1114   1.298   0.841   2.072
  365SOL     OW 1115   1.759   1.747   3.016
  365SOL    HW1 1116   1.820   1.777   2.943
  365SOL    HW2 1117   1.721   1.658   2.994
  366SOL     OW 1118   1.252   1.731   2.990
  366SOL    HW1 1119   1.336   1.736   2.936
  366SOL    HW2 1120   1.229   1.635   3.008
  367SOL     OW 1121   0.083   1.258   2.884
  367SOL    HW1 1122   0.078   1.257   2.984
  367SOL    HW2 1123   0.000   1.217   2.846
  368SOL     OW 1124   0.688   1.662   3.578
  368SOL    HW1 1125   0.632   1.743   3.587
  368SOL    HW2 1126   0.740   1.666   3.492
  369SOL     OW 1127   1.726   0.135   2.385
  369SOL    HW1 1128   1.799   0.118   2.318
  369SOL    HW2 1129   1.695   0.048   2.423
  370SOL     OW 1130   1.388   1.573   2.339
  370SOL    HW1 1131   1.455   1.585   2.265
  370SOL    HW2 1132   1.348   1.662   2.362
  371SOL     OW 1133   0.130   1.794   3.713
  371SOL    HW1 1134   0.089   1.720   3.766
  371SOL    HW2 1135   0.194   1.845   3.771
  372SOL     OW 1136   1.280   0.927   2.534
  372SOL    HW1 1137   1.340   0.846   2.536
  372SOL    HW2 1138   1.320   0.996   2.474
  373SOL     OW 1139   0.830   1.273   3.284
  373SOL    HW1 1140   0.825   1.306   3.379
  373SOL    HW2 1141   0.744   1.292   3.238
  374SOL     OW 1142   0.672   1.616   2.016
  374SOL    HW1 1143   0.681   1.626   1.917
  374SOL    HW2 1144   0.632   1.527   2.037
  375SOL     OW 1145   1.650   1.720   3.256
  375SOL    HW1 1146   1.703   1.730   3.172
  375SOL    HW2 1147   1.623   1.810   3.290
  376SOL     OW 1148   1.841   0.175   2.825
  376SOL    HW1 1149   1.880   0.090   2.789
  376SOL    HW2 1150   1.743   0.177   2.806
  377SOL     OW 1151   0.263   0.326   2.582
  377SOL    HW1 1152   0.184   0.377   2.548
  377SOL    HW2 1153   0.254   0.311   2.680
  378SOL     OW 1154   1.194   1.612   1.893
  378SOL    HW1 1155   1.200   1.519   1.930
  378SOL    HW2 1156   1.135   1.612   1.813
  379SOL     OW 1157   0.822   1.002   3.234
  379SOL    HW1 1158   0.862   1.001   3.142
  379SOL    HW2 1159   0.832   1.094   3.274
  380SOL     OW 1160   0.916   0.910   2.153
  380SOL    HW1 1161   0.979   0.948   2.085
  380SOL    HW2 1162   0.956   0.827   2.192
  381SOL     OW 1163   1.504   1.607   1.906
  381SOL    HW1 1164   1.412   1.644   1.913
  381SOL    HW2 1165   1.542   1.627   1.816
  382SOL     OW 1166   0.372   1.288   3.352
  382SOL    HW1 1167   0.359   1.381   3.318
  382SOL    HW2 1168   0.288   1.236   3.339
  383SOL     OW 1169   1.614   1.292   3.151
  383SOL    HW1 1170   1.674   1.295   3.231
  383SOL    HW2 1171   1.539   1.356   3.164
  384SOL     OW 1172   1.039   1.098   2.558
  384SOL    HW1 1173   0.969   1.051   2.612
  384SOL    HW2 1174   1.098   1.030   2.515
  385SOL     OW 1175   1.014   0.236   2.833
  385SOL    HW1 1176   1.006   0.200   2.740
  385SOL    HW2 1177   1.012   0.160   2.898
  386SOL     OW 1178   0.590   1.487   2.353
  386SOL    HW1 1179   0.632   1.429   2.283
  386SOL    HW2 1180   0.546   1.566   2.309
  387SOL     OW 1181   1.709   0.385   3.243
  387SOL    HW1 1182   1.782   0.454   3.247
  387SOL    HW2 1183   1.737   0.310   3.184
  388SOL     OW 1184   0.255   1.348   2.152
  388SOL    HW1 1185   0.159   1.349   2.125
  388SOL    HW2 1186   0.267   1.401   2.236
  389SOL     OW 1187   0.105   1.013   3.588
  389SOL    HW1 1188   0.028   0.980   3.642
  389SOL    HW2 1189   0.190   0.983   3.630
  390SOL     OW 1190   0.672   0.203   3.351
  390SOL    HW1 1191   0.762   0.187   3.311
  390SOL    HW2 1192   0.680   0.208   3.450
  391SOL     OW 1193   0.075   0.345   1.895
  391SOL    HW1 1194  -0.017   0.317   1.866
  391SOL    HW2 1195   0.106   0.422   1.839
  392SOL     OW 1196   1.440   0.856   3.260
  392SOL    HW1 1197   1.383   0.908   3.197
  392SOL    HW2 1198   1.536   0.868   3.236
  393SOL     OW 1199   0.072   0.166   2.180
  393SOL    HW1 1200   0.055   0.249   2.126
  393SOL    HW2 1201   0.162   0.129   2.158
  394SOL     OW 1202   1.183   1.335   1.981
  394SOL    HW1 1203   1.084   1.324   1.983
  394SOL    HW2 1204   1.217   1.350   2.074
  395SOL     OW 1205   0.613   0.842   3.293
  395SOL    HW1 1206   0.669   0.923   3.276
  395SOL    HW2 1207   0.672   0.762   3.296
  396SOL     OW 1208   1.493   1.767   2.821
  396SOL    HW1 1209   1.526   1.831   2.752
  396SOL    HW2 1210   1.559   1.761   2.896
  397SOL     OW 1211   0.716   0.565   3.570
  397SOL    HW1 1212   0.735   0.630   3.644
  397SOL    HW2 1213   0.776   0.485   3.579
  398SOL     OW 1214   1.450   1.220   3.495
  398SOL    HW1 1215   1.441   1.210   3.594
  398SOL    HW2 1216   1.546   1.213   3.469
  399SOL     OW 1217   0.390   1.741   3.422
  399SOL    HW1 1218   0.299   1.782   3.420
  399SOL    HW2 1219   0.383   1.647   3.454
  400SOL     OW 1220   1.674   0.883   3.116
  400SOL    HW1 1221   1.647   0.794   3.079
  400SOL    HW2 1222   1.675   0.951   3.043
  401SOL     OW 1223   1.225   0.325   2.311
  401SOL    HW1 1224   1.290   0.251   2.300
  401SOL    HW2 1225   1.245   0.375   2.395
  402SOL     OW 1226   0.594   0.745   2.514
  402SOL    HW1 1227   0.644   0.830   2.495
  402SOL    HW2 1228   0.506   0.747   2.466
  403SOL     OW 1229   1.777   0.342   3.504
  403SOL    HW1 1230   1.760   0.373   3.410
  403SOL    HW2 1231   1.693   0.305   3.542
  404SOL     OW 1232   1.730   0.934   3.379
  404SOL    HW1 1233   1.768   1.025   3.394
  404SOL    HW2 1234   1.722   0.917   3.280
  405SOL     OW 1235   0.859   1.374   1.878
  405SOL    HW1 1236   0.813   1.389   1.966
  405SOL    HW2 1237   0.903   1.459   1.848
  406SOL     OW 1238   0.661   1.790   2.815
  406SOL    HW1 1239   0.615   1.878   2.802
  406SOL    HW2 1240   0.760   1.802   2.808
  407SOL     OW 1241   0.859   0.956   2.723
  407SOL    HW1 1242   0.913   0.887   2.771
  407SOL    HW2 1243   0.827   1.025   2.789
  408SOL     OW 1244   1.083   0.984   1.949
  408SOL    HW1 1245   1.060   1.037   1.867
  408SOL    HW2 1246   1.164   0.928   1.930
  409SOL     OW 1247   1.861   1.569   2.713
  409SOL    HW1 1248   1.790   1.557   2.643
  409SOL    HW2 1249   1.862   1.490   2.773
  410SOL     OW 1250   0.221   1.314   3.706
  410SOL    HW1 1251   0.156   1.241   3.685
  410SOL    HW2 1252   0.225   1.328   3.804
  411SOL     OW 1253   0.079   1.240   2.515
  411SOL    HW1 1254   0.078   1.193   2.603
  411SOL    HW2 1255   0.161   1.212   2.464
  412SOL     OW 1256   0.672   1.391   3.486
  412SOL    HW1 1257   0.594   1.341   3.524
  412SOL    HW2 1258   0.669   1.486   3.517
  413SOL     OW 1259   1.824   0.192   3.089
  413SOL    HW1 1260   1.820   0.102   3.133
  413SOL    HW2 1261   1.827   0.181   2.990
  414SOL     OW 1262   0.428   0.424   2.382
  414SOL    HW1 1263   0.458   0.352   2.320
  414SOL    HW2 1264   0.389   0.384   2.465
  415SOL     OW 1265   1.705   1.487   2.966
  415SOL    HW1 1266   1.612   1.462   2.939
  415SOL    HW2 1267   1.731   1.437   3.048
  416SOL     OW 1268   0.317   0.547   3.142
  416SOL    HW1 1269   0.355   0.488   3.214
  416SOL    HW2 1270   0.357   0.521   3.054
  417SOL     OW 1271   0.812   1.586   2.549
  417SOL    HW1 1272   0.844   1.596   2.455
  417SOL    HW2 1273   0.733   1.524   2.551
  418SOL     OW 1274   1.424   0.214   2.974
  418SOL    HW1 1275   1.476   0.149   3.029
  418SOL    HW2 1276   1.375   0.277   3.035
  419SOL     OW 1277   1.001   0.034   3.016
  419SOL    HW1 1278   0.938  -0.038   2.985
  419SOL    HW2 1279   1.094  -0.002   3.016
  420SOL     OW 1280   0.770   1.330   2.163
  420SOL    HW1 1281   0.724   1.243   2.180
  420SOL    HW2 1282   0.861   1.327   2.204
  421SOL     OW 1283   0.618   1.567   3.146
  421SOL    HW1 1284   0.613   1.649   3.203
  421SOL    HW2 1285   0.707   1.564   3.101
  422SOL     OW 1286   1.352   0.052   2.030
  422SOL    HW1 1287   1.387   0.011   1.946
  422SOL    HW2 1288   1.262   0.014   2.050
  423SOL     OW 1289   1.300   0.453   2.553
  423SOL    HW1 1290   1.241   0.533   2.557
  423SOL    HW2 1291   1.315   0.418   2.646
  424SOL     OW 1292   1.593   0.221   2.744
  424SOL    HW1 1293   1.509   0.220   2.798
  424SOL    HW2 1294   1.595   0.304   2.688
  425SOL     OW 1295   0.039   1.077   2.162
  425SOL    HW1 1296   0.138   1.066   2.153
  425SOL    HW2 1297  -0.001   0.991   2.194
  426SOL     OW 1298   0.875   1.646   2.199
  426SOL    HW1 1299   0.798   1.611   2.145
  426SOL    HW2 1300   0.843   1.717   2.261
  427SOL     OW 1301   0.230   0.628   3.837
  427SOL    HW1 1302   0.137   0.626   3.874
  427SOL    HW2 1303   0.231   0.589   3.745
  428SOL     OW 1304   0.225   0.275   4.720
  428SOL    HW1 1305   0.260   0.258   4.812
  428SOL    HW2 1306   0.137   0.230   4.708
  429SOL     OW 1307   0.019   0.368   4.371
  429SOL    HW1 1308  -0.063   0.411   4.410
  429SOL    HW2 1309  -0.009   0.295   4.308
  430SOL     OW 1310   0.569   1.275   4.889
  430SOL    HW1 1311   0.476   1.268   4.852
  430SOL    HW2 1312   0.580   1.364   4.933
  431SOL     OW 1313   1.555   1.511   4.427
  431SOL    HW1 1314   1.498   1.495   4.508
  431SOL    HW2 1315   1.496   1.521   4.347
  432SOL     OW 1316   1.135   0.703   4.441
  432SOL    HW1 1317   1.192   0.781   4.416
  432SOL    HW2 1318   1.075   0.729   4.517
  433SOL     OW 1319   1.755   0.607   3.955
  433SOL    HW1 1320   1.743   0.594   3.856
  433SOL    HW2 1321   1.725   0.526   4.004
  434SOL     OW 1322   0.768   1.144   4.747
  434SOL    HW1 1323   0.690   1.161   4.807
  434SOL    HW2 1324   0.802   1.231   4.711
  435SOL     OW 1325   0.685   1.012   4.389
  435SOL    HW1 1326   0.754   0.996   4.459
  435SOL    HW2 1327   0.612   1.069   4.427
  436SOL     OW 1328   0.335   1.435   4.785
  436SOL    HW1 1329   0.257   1.404   4.732
  436SOL    HW2 1330   0.393   1.493   4.728
  437SOL     OW 1331   1.603   0.447   4.461
  437SOL    HW1 1332   1.529   0.493   4.411
  437SOL    HW2 1333   1.654   0.515   4.514
  438SOL     OW 1334   0.231   1.713   4.207
  438SOL    HW1 1335   0.265   1.790   4.261
  438SOL    HW2 1336   0.275   1.713   4.117
  439SOL     OW 1337   0.230   1.434   4.262
  439SOL    HW1 1338   0.204   1.530   4.262
  439SOL    HW2 1339   0.159   1.380   4.307
  440SOL     OW 1340   0.240   1.091   4.610
  440SOL    HW1 1341   0.254   1.007   4.662
  440SOL    HW2 1342   0.185   1.155   4.665
  441SOL     OW 1343   0.606   0.964   3.847
  441SOL    HW1 1344   0.613   1.048   3.793
  441SOL    HW2 1345   0.652   0.977   3.935
  442SOL     OW 1346   0.122   0.643   4.287
  442SOL    HW1 1347   0.077   0.555   4.304
  442SOL    HW2 1348   0.121   0.697   4.371
  443SOL     OW 1349   1.842   1.767   4.083
  443SOL    HW1 1350   1.896   1.738   4.163
  443SOL    HW2 1351   1.872   1.857   4.054
  444SOL     OW 1352   0.027   1.596   3.841
  444SOL    HW1 1353   0.008   1.500   3.862
  444SOL    HW2 1354  -0.006   1.654   3.916
  445SOL     OW 1355   1.689   0.922   4.336
  445SOL    HW1 1356   1.784   0.893   4.344
  445SOL    HW2 1357   1.681   0.987   4.261
  446SOL     OW 1358   1.641   1.108   4.156
  446SOL    HW1 1359   1.727   1.110   4.104
  446SOL    HW2 1360   1.655   1.155   4.244
  447SOL     OW 1361   0.113   0.737   5.321
  447SOL    HW1 1362   0.201   0.724   5.366
  447SOL    HW2 1363   0.100   0.834   5.299
  448SOL     OW 1364   0.613   1.365   4.450
  448SOL    HW1 1365   0.564   1.278   4.459
  448SOL    HW2 1366   0.590   1.408   4.363
  449SOL     OW 1367   0.809   0.004   4.226
  449SOL    HW1 1368   0.849   0.095   4.217
  449SOL    HW2 1369   0.709   0.012   4.232
  450SOL     OW 1370   0.197   0.976   4.988
  450SOL    HW1 1371   0.286   0.931   4.974
  450SOL    HW2 1372   0.124   0.911   4.969
  451SOL     OW 1373   1.525   0.999   3.914
  451SOL    HW1 1374   1.462   0.923   3.927
  451SOL    HW2 1375   1.573   1.017   4.000
  452SOL     OW 1376   1.466   1.417   4.677
  452SOL    HW1 1377   1.407   1.423   4.757
  452SOL    HW2 1378   1.451   1.329   4.631
  453SOL     OW 1379   1.667   1.714   4.296
  453SOL    HW1 1380   1.626   1.691   4.208
  453SOL    HW2 1381   1.649   1.640   4.361
  454SOL     OW 1382   0.598   0.729   3.994
  454SOL    HW1 1383   0.622   0.798   3.926
  454SOL    HW2 1384   0.520   0.762   4.048
  455SOL     OW 1385   1.281   0.345   4.668
  455SOL    HW1 1386   1.195   0.295   4.655
  455SOL    HW2 1387   1.343   0.291   4.724
  456SOL     OW 1388   1.576   1.662   4.031
  456SOL    HW1 1389   1.665   1.708   4.034
  456SOL    HW2 1390   1.555   1.638   3.936
  457SOL     OW 1391   1.041   0.701   4.153
  457SOL    HW1 1392   1.067   0.697   4.249
  457SOL    HW2 1393   0.956   0.650   4.139
  458SOL     OW 1394   0.076   0.811   4.513
  458SOL    HW1 1395   0.175   0.799   4.522
  458SOL    HW2 1396   0.052   0.906   4.534
  459SOL     OW 1397   0.130   1.821   5.295
  459SOL    HW1 1398   0.120   1.806   5.394
  459SOL    HW2 1399   0.044   1.857   5.259
  460SOL     OW 1400   0.865   0.348   3.919
  460SOL    HW1 1401   0.924   0.411   3.870
  460SOL    HW2 1402   0.884   0.254   3.890
  461SOL     OW 1403   1.362   1.144   4.269
  461SOL    HW1 1404   1.445   1.115   4.221
  461SOL    HW2 1405   1.313   1.211   4.213
  462SOL     OW 1406   0.550   0.196   4.609
  462SOL    HW1 1407   0.545   0.191   4.709
  462SOL    HW2 1408   0.552   0.292   4.580
  463SOL     OW 1409   1.008   1.456   4.201
  463SOL    HW1 1410   0.962   1.528   4.149
  463SOL    HW2 1411   1.004   1.476   4.299
  464SOL     OW 1412   0.351   1.801   4.577
  464SOL    HW1 1413   0.401   1.715   4.583
  464SOL    HW2 1414   0.416   1.878   4.574
  465SOL     OW 1415   1.795   1.066   4.597
  465SOL    HW1 1416   1.733   1.051   4.521
  465SOL    HW2 1417   1.743   1.077   4.682
  466SOL     OW 1418   0.321   0.943   3.966
  466SOL    HW1 1419   0.403   0.982   3.924
  466SOL    HW2 1420   0.294   0.861   3.917
  467SOL     OW 1421   1.458   0.735   4.452
  467SOL    HW1 1422   1.453   0.670   4.527
  467SOL    HW2 1423   1.538   0.794   4.465
  468SOL     OW 1424   1.111   1.776   3.961
  468SOL    HW1 1425   1.051   1.714   4.011
  468SOL    HW2 1426   1.142   1.732   3.876
  469SOL     OW 1427   1.632   1.377   3.805
  469SOL    HW1 1428   1.600   1.471   3.795
  469SOL    HW2 1429   1.556   1.314   3.793
  470SOL     OW 1430   0.464   1.743   4.047
  470SOL    HW1 1431   0.497   1.782   4.133
  470SOL    HW2 1432   0.540   1.736   3.982
  471SOL     OW 1433   1.400   0.107   4.150
  471SOL    HW1 1434   1.376   0.070   4.060
  471SOL    HW2 1435   1.499   0.123   4.154
  472SOL     OW 1436   0.249   1.785   4.965
  472SOL    HW1 1437   0.306   1.720   5.015
  472SOL    HW2 1438   0.233   1.752   4.872
  473SOL     OW 1439   0.940   1.698   4.628
  473SOL    HW1 1440   1.020   1.641   4.649
  473SOL    HW2 1441   0.891   1.658   4.551
  474SOL     OW 1442   0.382   0.700   4.204
  474SOL    HW1 1443   0.427   0.610   4.201
  474SOL    HW2 1444   0.288   0.689   4.237
  475SOL     OW 1445   0.614   0.122   3.841
  475SOL    HW1 1446   0.712   0.100   3.848
  475SOL    HW2 1447   0.583   0.105   3.748
  476SOL     OW 1448   0.803   1.402   4.648
  476SOL    HW1 1449   0.893   1.416   4.606
  476SOL    HW2 1450   0.732   1.404   4.577
  477SOL     OW 1451   0.922   0.503   4.623
  477SOL    HW1 1452   0.897   0.494   4.527
  477SOL    HW2 1453   0.970   0.421   4.654
  478SOL     OW 1454   0.539   0.064   4.236
  478SOL    HW1 1455   0.458   0.065   4.294
  478SOL    HW2 1456   0.542   0.147   4.181
  479SOL     OW 1457   1.434   1.188   3.765
  479SOL    HW1 1458   1.466   1.112   3.822
  479SOL    HW2 1459   1.342   1.215   3.795
  480SOL     OW 1460   0.297   0.035   3.895
  480SOL    HW1 1461   0.346   0.119   3.874
  480SOL    HW2 1462   0.359  -0.030   3.940
  481SOL     OW 1463   0.935   0.236   4.204
  481SOL    HW1 1464   0.887   0.277   4.126
  481SOL    HW2 1465   1.034   0.234   4.185
  482SOL     OW 1466   1.227   1.570   4.517
  482SOL    HW1 1467   1.248   1.644   4.452
  482SOL    HW2 1468   1.295   1.570   4.590
  483SOL     OW 1469   0.459   1.152   4.465
  483SOL    HW1 1470   0.388   1.125   4.530
  483SOL    HW2 1471   0.433   1.124   4.372
  484SOL     OW 1472   1.271   1.797   4.315
  484SOL    HW1 1473   1.315   1.861   4.251
  484SOL    HW2 1474   1.221   1.849   4.385
  485SOL     OW 1475   1.032   0.549   3.740
  485SOL    HW1 1476   0.991   0.631   3.701
  485SOL    HW2 1477   1.096   0.575   3.813
  486SOL     OW 1478   0.561   0.222   4.871
  486SOL    HW1 1479   0.599   0.138   4.908
  486SOL    HW2 1480   0.473   0.241   4.915
  487SOL     OW 1481   0.866   0.454   4.366
  487SOL    HW1 1482   0.834   0.526   4.304
  487SOL    HW2 1483   0.890   0.373   4.313
  488SOL     OW 1484   1.017   0.039   4.477
  488SOL    HW1 1485   0.945   0.044   4.408
  488SOL    HW2 1486   0.993  -0.030   4.546
  489SOL     OW 1487   1.429   1.173   4.591
  489SOL    HW1 1488   1.374   1.089   4.584
  489SOL    HW2 1489   1.455   1.202   4.499
  490SOL     OW 1490   1.466   0.590   4.716
  490SOL    HW1 1491   1.436   0.495   4.723
  490SOL    HW2 1492   1.539   0.606   4.782
  491SOL     OW 1493   1.857   0.833   4.101
  491SOL    HW1 1494   1.899   0.769   4.165
  491SOL    HW2 1495   1.819   0.782   4.023
  492SOL     OW 1496   0.488   1.385   3.898
  492SOL    HW1 1497   0.401   1.370   3.945
  492SOL    HW2 1498   0.471   1.411   3.803
  493SOL     OW 1499   1.664   1.280   4.381
  493SOL    HW1 1500   1.763   1.288   4.395
  493SOL    HW2 1501   1.619   1.364   4.412
  494SOL     OW 1502   1.390   0.575   3.802
  494SOL    HW1 1503   1.336   0.554   3.883
  494SOL    HW2 1504   1.481   0.534   3.811
  495SOL     OW 1505   0.527   0.256   4.052
  495SOL    HW1 1506   0.554   0.197   3.977
  495SOL    HW2 1507   0.527   0.351   4.021
  496SOL     OW 1508   1.111   1.195   4.824
  496SOL    HW1 1509   1.071   1.239   4.905
  496SOL    HW2 1510   1.070   1.232   4.741
  497SOL     OW 1511   1.638   1.099   4.803
  497SOL    HW1 1512   1.643   1.180   4.862
  497SOL    HW2 1513   1.552   1.101   4.752
  498SOL     OW 1514   0.705   1.050   4.092
  498SOL    HW1 1515   0.691   1.057   4.191
  498SOL    HW2 1516   0.789   0.999   4.074
  499SOL     OW 1517   0.410   0.813   4.975
  499SOL    HW1 1518   0.496   0.825   5.025
  499SOL    HW2 1519   0.368   0.726   5.002
  500SOL     OW 1520   1.274   0.386   4.986
  500SOL    HW1 1521   1.295   0.460   5.050
  500SOL    HW2 1522   1.185   0.403   4.943
  501SOL     OW 1523   0.367   1.100   4.225
  501SOL    HW1 1524   0.360   1.183   4.169
  501SOL    HW2 1525   0.371   1.020   4.165
  502SOL     OW 1526   0.566   0.537   4.589
  502SOL    HW1 1527   0.578   0.603   4.515
  502SOL    HW2 1528   0.612   0.571   4.672
  503SOL     OW 1529   1.252   1.348   4.112
  503SOL    HW1 1530   1.302   1.425   4.152
  503SOL    HW2 1531   1.157   1.350   4.144
  504SOL     OW 1532   1.272   1.445   4.866
  504SOL    HW1 1533   1.319   1.458   4.953
  504SOL    HW2 1534   1.206   1.371   4.875
  505SOL     OW 1535   1.582   0.639   4.196
  505SOL    HW1 1536   1.551   0.700   4.269
  505SOL    HW2 1537   1.632   0.691   4.127
  506SOL     OW 1538   0.354   1.510   5.053
  506SOL    HW1 1539   0.333   1.466   4.966
  506SOL    HW2 1540   0.451   1.536   5.056
  507SOL     OW 1541   0.573   0.870   4.753
  507SOL    HW1 1542   0.617   0.959   4.744
  507SOL    HW2 1543   0.510   0.870   4.830
  508SOL     OW 1544   1.360   0.862   4.769
  508SOL    HW1 1545   1.285   0.862   4.703
  508SOL    HW2 1546   1.397   0.770   4.778
  509SOL     OW 1547   1.209   0.525   3.999
  509SOL    HW1 1548   1.222   0.441   4.053
  509SOL    HW2 1549   1.180   0.599   4.059
  510SOL     OW 1550   0.307   0.213   4.955
  510SOL    HW1 1551   0.284   0.250   5.045
  510SOL    HW2 1552   0.277   0.118   4.949
  511SOL     OW 1553   0.037   1.310   5.006
  511SOL    HW1 1554   0.090   1.261   5.074
  511SOL    HW2 1555   0.059   1.408   5.011
  512SOL     OW 1556   0.732   0.634   4.788
  512SOL    HW1 1557   0.791   0.608   4.712
  512SOL    HW2 1558   0.704   0.730   4.777
  513SOL     OW 1559   0.307   0.063   4.342
  513SOL    HW1 1560   0.296   0.157   4.375
  513SOL    HW2 1561   0.302   0.000   4.419
  514SOL     OW 1562   1.622   0.367   4.098
  514SOL    HW1 1563   1.624   0.291   4.162
  514SOL    HW2 1564   1.574   0.444   4.138
  515SOL     OW 1565   1.023   0.766   4.690
  515SOL    HW1 1566   1.038   0.787   4.786
  515SOL    HW2 1567   0.993   0.671   4.681
  516SOL     OW 1568   1.540   0.274   3.849
  516SOL    HW1 1569   1.479   0.199   3.872
  516SOL    HW2 1570   1.562   0.326   3.932
  517SOL     OW 1571   1.303   0.838   3.766
  517SOL    HW1 1572   1.337   0.745   3.781
  517SOL    HW2 1573   1.321   0.865   3.671
  518SOL     OW 1574   1.068   1.333   4.573
  518SOL    HW1 1575   1.075   1.249   4.518
  518SOL    HW2 1576   1.130   1.402   4.537
  519SOL     OW 1577   0.319   0.810   4.673
  519SOL    HW1 1578   0.412   0.846   4.678
  519SOL    HW2 1579   0.313   0.725   4.725
  520SOL     OW 1580   0.339   0.509   4.730
  520SOL    HW1 1581   0.287   0.426   4.713
  520SOL    HW2 1582   0.416   0.514   4.666
  521SOL     OW 1583   1.160   0.207   5.201
  521SOL    HW1 1584   1.160   0.271   5.278
  521SOL    HW2 1585   1.188   0.255   5.118
  522SOL     OW 1586   0.008   1.326   3.924
  522SOL    HW1 1587  -0.085   1.347   3.893
  522SOL    HW2 1588   0.018   1.227   3.937
  523SOL     OW 1589   0.088   1.801   4.651
  523SOL    HW1 1590   0.046   1.715   4.624
  523SOL    HW2 1591   0.182   1.804   4.617
  524SOL     OW 1592   0.504   1.568   4.634
  524SOL    HW1 1593   0.570   1.642   4.643
  524SOL    HW2 1594   0.548   1.489   4.592
  525SOL     OW 1595   1.002   0.796   4.962
  525SOL    HW1 1596   1.043   0.764   5.048
  525SOL    HW2 1597   0.906   0.769   4.959
  526SOL     OW 1598   0.040   0.544   4.838
  526SOL    HW1 1599   0.125   0.511   4.797
  526SOL    HW2 1600   0.053   0.559   4.936
  527SOL     OW 1601   0.815   0.572   4.049
  527SOL    HW1 1602   0.822   0.483   4.003
  527SOL    HW2 1603   0.721   0.606   4.041
  528SOL     OW 1604   1.657   0.604   4.930
  528SOL    HW1 1605   1.619   0.535   4.992
  528SOL    HW2 1606   1.739   0.568   4.886
  529SOL     OW 1607   0.671   0.464   4.993
  529SOL    HW1 1608   0.637   0.375   4.963
  529SOL    HW2 1609   0.697   0.518   4.913
  530SOL     OW 1610   0.930   1.678   5.189
  530SOL    HW1 1611   0.906   1.660   5.094
  530SOL    HW2 1612   0.960   1.772   5.199
  531SOL     OW 1613   0.473   0.500   3.915
  531SOL    HW1 1614   0.534   0.580   3.919
  531SOL    HW2 1615   0.378   0.531   3.922
  532SOL     OW 1616   1.347   1.059   4.958
  532SOL    HW1 1617   1.371   0.996   4.884
  532SOL    HW2 1618   1.257   1.099   4.940
  533SOL     OW 1619   1.302   0.855   4.033
  533SOL    HW1 1620   1.216   0.824   4.075
  533SOL    HW2 1621   1.298   0.841   3.934
  534SOL     OW 1622   1.759   1.747   4.878
  534SOL    HW1 1623   1.820   1.777   4.805
  534SOL    HW2 1624   1.721   1.658   4.856
  535SOL     OW 1625   1.252   1.731   4.852
  535SOL    HW1 1626   1.336   1.736   4.798
  535SOL    HW2 1627   1.229   1.635   4.870
  536SOL     OW 1628   0.083   1.258   4.746
  536SOL    HW1 1629   0.078   1.257   4.846
  536SOL    HW2 1630   0.000   1.217   4.708
  537SOL     OW 1631   1.726   0.135   4.247
  537SOL    HW1 1632   1.799   0.118   4.180
  537SOL    HW2 1633   1.695   0.048   4.285
  538SOL     OW 1634   1.388   1.573   4.201
  538SOL    HW1 1635   1.455   1.585   4.127
  538SOL    HW2 1636   1.348   1.662   4.224
  539SOL     OW 1637   1.280   0.927   4.396
  539SOL    HW1 1638   1.340   0.846   4.398
  539SOL    HW2 1639   1.320   0.996   4.336
  540SOL     OW 1640   0.672   1.616   3.878
  540SOL    HW1 1641   0.681   1.626   3.779
  540SOL    HW2 1642   0.632   1.527   3.899
  541SOL     OW 1643   1.650   1.720   5.118
  541SOL    HW1 1644   1.703   1.730   5.034
  541SOL    HW2 1645   1.623   1.810   5.152
  542SOL     OW 1646   1.841   0.175   4.687
  542SOL    HW1 1647   1.880   0.090   4.651
  542SOL    HW2 1648   1.743   0.177   4.668
  543SOL     OW 1649   0.263   0.326   4.444
  543SOL    HW1 1650   0.184   0.377   4.410
  543SOL    HW2 1651   0.254   0.311   4.542
  544SOL     OW 1652   1.194   1.612   3.755
  544SOL    HW1 1653   1.200   1.519   3.792
  544SOL    HW2 1654   1.135   1.612   3.675
  545SOL     OW 1655   0.822   1.002   5.096
  545SOL    HW1 1656   0.862   1.001   5.004
  545SOL    HW2 1657   0.832   1.094   5.136
  546SOL     OW 1658   0.916   0.910   4.015
  546SOL    HW1 1659   0.979   0.948   3.947
  546SOL    HW2 1660   0.956   0.827   4.054
  547SOL     OW 1661   1.504   1.607   3.768
  547SOL    HW1 1662   1.412   1.644   3.775
  547SOL    HW2 1663   1.542   1.627   3.678
  548SOL     OW 1664   1.039   1.098   4.420
  548SOL    HW1 1665   0.969   1.051   4.474
  548SOL    HW2 1666   1.098   1.030   4.377
  549SOL     OW 1667   1.014   0.236   4.695
  549SOL    HW1 1668   1.006   0.200   4.602
  549SOL    HW2 1669   1.012   0.160   4.760
  550SOL     OW 1670   0.590   1.487   4.215
  550SOL    HW1 1671   0.632   1.429   4.145
  550SOL    HW2 1672   0.546   1.566   4.171
  551SOL     OW 1673   1.709   0.385   5.105
  551SOL    HW1 1674   1.782   0.454   5.109
  551SOL    HW2 1675   1.737   0.310   5.046
  552SOL     OW 1676   0.255   1.348   4.014
  552SOL    HW1 1677   0.159   1.349   3.987
  552SOL    HW2 1678   0.267   1.401   4.098
  553SOL     OW 1679   0.075   0.345   3.757
  553SOL    HW1 1680  -0.017   0.317   3.728
  553SOL    HW2 1681   0.106   0.422   3.701
  554SOL     OW 1682   0.072   0.166   4.042
  554SOL    HW1 1683   0.055   0.249   3.988
  554SOL    HW2 1684   0.162   0.129   4.020
  555SOL     OW 1685   1.183   1.335   3.843
  555SOL    HW1 1686   1.084   1.324   3.845
  555SOL    HW2 1687   1.217   1.350   3.936
  556SOL     OW 1688   1.493   1.767   4.683
  556SOL    HW1 1689   1.526   1.831   4.614
  556SOL    HW2 1690   1.559   1.761   4.758
  557SOL     OW 1691   1.674   0.883   4.978
  557SOL    HW1 1692   1.647   0.794   4.941
  557SOL    HW2 1693   1.675   0.951   4.905
  558SOL     OW 1694   1.225   0.325   4.173
  558SOL    HW1 1695   1.290   0.251   4.162
  558SOL    HW2 1696   1.245   0.375   4.257
  559SOL     OW 1697   0.594   0.745   4.376
  559SOL    HW1 1698   0.644   0.830   4.357
  559SOL    HW2 1699   0.506   0.747   4.328
  560SOL     OW 1700   1.730   0.934   5.241
  560SOL    HW1 1701   1.768   1.025   5.256
  560SOL    HW2 1702   1.722   0.917   5.142
  561SOL     OW 1703   0.859   1.374   3.740
  561SOL    HW1 1704   0.813   1.389   3.828
  561SOL    HW2 1705   0.903   1.459   3.710
  562SOL     OW 1706   0.661   1.790   4.677
  562SOL    HW1 1707   0.615   1.878   4.664
  562SOL    HW2 1708   0.760   1.802   4.670
  563SOL     OW 1709   0.859   0.956   4.585
  563SOL    HW1 1710   0.913   0.887   4.633
  563SOL    HW2 1711   0.827   1.025   4.651
  564SOL     OW 1712   1.083   0.984   3.811
  564SOL    HW1 1713   1.060   1.037   3.729
  564SOL    HW2 1714   1.164   0.928   3.792
  565SOL     OW 1715   1.861   1.569   4.575
  565SOL    HW1 1716   1.790   1.557   4.505
  565SOL    HW2 1717   1.862   1.490   4.635
  566SOL     OW 1718   0.079   1.240   4.377
  566SOL    HW1 1719   0.078   1.193   4.465
  566SOL    HW2 1720   0.161   1.212   4.326
  567SOL     OW 1721   1.824   0.192   4.951
  567SOL    HW1 1722   1.820   0.102   4.995
  567SOL    HW2 1723   1.827   0.181   4.852
  568SOL     OW 1724   0.428   0.424   4.244
  568SOL    HW1 1725   0.458   0.352   4.182
  568SOL    HW2 1726   0.389   0.384   4.327
  569SOL     OW 1727   1.705   1.487   4.828
  569SOL    HW1 1728   1.612   1.462   4.801
  569SOL    HW2 1729   1.731   1.437   4.910
  570SOL     OW 1730   0.812   1.586   4.411
  570SOL    HW1 1731   0.844   1.596   4.317
  570SOL    HW2 1732   0.733   1.524   4.413
  571SOL     OW 1733   1.424   0.214   4.836
  571SOL    HW1 1734   1.476   0.149   4.891
  571SOL    HW2 1735   1.375   0.277   4.897
  572SOL     OW 1736   1.001   0.034   4.878
  572SOL    HW1 1737   0.938  -0.038   4.847
  572SOL    HW2 1738   1.094  -0.002   4.878
  573SOL     OW 1739   0.770   1.330   4.025
  573SOL    HW1 1740   0.724   1.243   4.042
  573SOL    HW2 1741   0.861   1.327   4.066
  574SOL     OW 1742   1.352   0.052   3.892
  574SOL    HW1 1743   1.387   0.011   3.808
  574SOL    HW2 1744   1.262   0.014   3.912
  575SOL     OW 1745   1.300   0.453   4.415
  575SOL    HW1 1746   1.241   0.533   4.419
  575SOL    HW2 1747   1.315   0.418   4.508
  576SOL     OW 1748   1.593   0.221   4.606
  576SOL    HW1 1749   1.509   0.220   4.660
  576SOL    HW2 1750   1.595   0.304   4.550
  577SOL     OW 1751   0.039   1.077   4.024
  577SOL    HW1 1752   0.138   1.066   4.015
  577SOL    HW2 1753  -0.001   0.991   4.056
  578SOL     OW 1754   0.875   1.646   4.061
  578SOL    HW1 1755   0.798   1.611   4.007
  578SOL    HW2 1756   0.843   1.717   4.123
  579SOL     OW 1757   0.230   2.490   0.113
  579SOL    HW1 1758   0.137   2.488   0.150
  579SOL    HW2 1759   0.231   2.451   0.021
  580SOL     OW 1760   0.225   2.137   0.996
  580SOL    HW1 1761   0.260   2.120   1.088
  580SOL    HW2 1762   0.137   2.092   0.984
  581SOL     OW 1763   0.019   2.230   0.647
  581SOL    HW1 1764  -0.063   2.273   0.686
  581SOL    HW2 1765  -0.009   2.157   0.584
  582SOL     OW 1766   0.569   3.137   1.165
  582SOL    HW1 1767   0.476   3.130   1.128
  582SOL    HW2 1768   0.580   3.226   1.209
  583SOL     OW 1769   1.555   3.373   0.703
  583SOL    HW1 1770   1.498   3.357   0.784
  583SOL    HW2 1771   1.496   3.383   0.623
  584SOL     OW 1772   1.135   2.565   0.717
  584SOL    HW1 1773   1.192   2.643   0.692
  584SOL    HW2 1774   1.075   2.591   0.793
  585SOL     OW 1775   1.755   2.469   0.231
  585SOL    HW1 1776   1.743   2.456   0.132
  585SOL    HW2 1777   1.725   2.388   0.280
  586SOL     OW 1778   0.768   3.006   1.023
  586SOL    HW1 1779   0.690   3.023   1.083
  586SOL    HW2 1780   0.802   3.093   0.987
  587SOL     OW 1781   0.850   2.660   1.823
  587SOL    HW1 1782   0.846   2.736   1.888
  587SOL    HW2 1783   0.872   2.696   1.732
  588SOL     OW 1784   0.685   2.874   0.665
  588SOL    HW1 1785   0.754   2.858   0.735
  588SOL    HW2 1786   0.612   2.931   0.703
  589SOL     OW 1787   0.686   3.023   1.803
  589SOL    HW1 1788   0.746   3.102   1.817
  589SOL    HW2 1789   0.600   3.054   1.762
  590SOL     OW 1790   0.335   3.297   1.061
  590SOL    HW1 1791   0.257   3.266   1.008
  590SOL    HW2 1792   0.393   3.355   1.004
  591SOL     OW 1793   1.460   3.367   1.339
  591SOL    HW1 1794   1.484   3.461   1.365
  591SOL    HW2 1795   1.444   3.313   1.421
  592SOL     OW 1796   0.438   2.254   1.499
  592SOL    HW1 1797   0.520   2.198   1.508
  592SOL    HW2 1798   0.357   2.196   1.503
  593SOL     OW 1799   1.603   2.309   0.737
  593SOL    HW1 1800   1.529   2.355   0.687
  593SOL    HW2 1801   1.654   2.377   0.790
  594SOL     OW 1802   0.231   3.575   0.483
  594SOL    HW1 1803   0.265   3.652   0.537
  594SOL    HW2 1804   0.275   3.575   0.393
  595SOL     OW 1805   1.127   3.203   1.690
  595SOL    HW1 1806   1.174   3.203   1.778
  595SOL    HW2 1807   1.079   3.116   1.679
  596SOL     OW 1808   0.230   3.296   0.538
  596SOL    HW1 1809   0.204   3.392   0.538
  596SOL    HW2 1810   0.159   3.242   0.583
  597SOL     OW 1811   0.240   2.953   0.886
  597SOL    HW1 1812   0.254   2.869   0.938
  597SOL    HW2 1813   0.185   3.017   0.941
  598SOL     OW 1814   0.620   3.648   1.439
  598SOL    HW1 1815   0.528   3.631   1.474
  598SOL    HW2 1816   0.648   3.740   1.465
  599SOL     OW 1817   0.606   2.826   0.123
  599SOL    HW1 1818   0.613   2.910   0.069
  599SOL    HW2 1819   0.652   2.839   0.211
  600SOL     OW 1820   1.594   1.976   1.480
  600SOL    HW1 1821   1.576   2.043   1.408
  600SOL    HW2 1822   1.591   2.022   1.569
  601SOL     OW 1823   0.122   2.505   0.563
  601SOL    HW1 1824   0.077   2.417   0.580
  601SOL    HW2 1825   0.121   2.559   0.647
  602SOL     OW 1826   1.842   3.629   0.359
  602SOL    HW1 1827   1.896   3.600   0.439
  602SOL    HW2 1828   1.872   3.719   0.330
  603SOL     OW 1829   0.027   3.458   0.117
  603SOL    HW1 1830   0.008   3.362   0.138
  603SOL    HW2 1831  -0.006   3.516   0.192
  604SOL     OW 1832   1.689   2.784   0.612
  604SOL    HW1 1833   1.784   2.755   0.620
  604SOL    HW2 1834   1.681   2.849   0.537
  605SOL     OW 1835   1.641   2.970   0.432
  605SOL    HW1 1836   1.727   2.972   0.380
  605SOL    HW2 1837   1.655   3.017   0.520
  606SOL     OW 1838   0.113   2.599   1.597
  606SOL    HW1 1839   0.201   2.586   1.642
  606SOL    HW2 1840   0.100   2.696   1.575
  607SOL     OW 1841   0.613   3.227   0.726
  607SOL    HW1 1842   0.564   3.140   0.735
  607SOL    HW2 1843   0.590   3.270   0.639
  608SOL     OW 1844   1.293   3.090   1.423
  608SOL    HW1 1845   1.330   3.017   1.365
  608SOL    HW2 1846   1.345   3.095   1.508
  609SOL     OW 1847   0.809   1.866   0.502
  609SOL    HW1 1848   0.849   1.957   0.493
  609SOL    HW2 1849   0.709   1.874   0.508
  610SOL     OW 1850   0.197   2.838   1.264
  610SOL    HW1 1851   0.286   2.793   1.250
  610SOL    HW2 1852   0.124   2.773   1.245
  611SOL     OW 1853   1.525   2.861   0.190
  611SOL    HW1 1854   1.462   2.785   0.203
  611SOL    HW2 1855   1.573   2.879   0.276
  612SOL     OW 1856   1.187   3.654   1.616
  612SOL    HW1 1857   1.211   3.714   1.540
  612SOL    HW2 1858   1.194   3.559   1.586
  613SOL     OW 1859   0.317   2.113   1.801
  613SOL    HW1 1860   0.388   2.184   1.807
  613SOL    HW2 1861   0.229   2.152   1.829
  614SOL     OW 1862   1.466   3.279   0.953
  614SOL    HW1 1863   1.407   3.285   1.033
  614SOL    HW2 1864   1.451   3.191   0.907
  615SOL     OW 1865   1.667   3.576   0.572
  615SOL    HW1 1866   1.626   3.553   0.484
  615SOL    HW2 1867   1.649   3.502   0.637
  616SOL     OW 1868   0.598   2.591   0.270
  616SOL    HW1 1869   0.622   2.660   0.202
  616SOL    HW2 1870   0.520   2.624   0.324
  617SOL     OW 1871   1.281   2.207   0.944
  617SOL    HW1 1872   1.195   2.157   0.931
  617SOL    HW2 1873   1.343   2.153   1.000
  618SOL     OW 1874   1.576   3.524   0.307
  618SOL    HW1 1875   1.665   3.570   0.310
  618SOL    HW2 1876   1.555   3.500   0.212
  619SOL     OW 1877   0.807   2.467   1.465
  619SOL    HW1 1878   0.760   2.464   1.554
  619SOL    HW2 1879   0.756   2.412   1.399
  620SOL     OW 1880   1.394   2.331   1.674
  620SOL    HW1 1881   1.374   2.374   1.762
  620SOL    HW2 1882   1.472   2.269   1.683
  621SOL     OW 1883   0.973   2.752   1.572
  621SOL    HW1 1884   1.019   2.668   1.543
  621SOL    HW2 1885   0.917   2.786   1.497
  622SOL     OW 1886   0.991   2.272   1.242
  622SOL    HW1 1887   0.914   2.306   1.296
  622SOL    HW2 1888   0.957   2.221   1.163
  623SOL     OW 1889   1.041   2.563   0.429
  623SOL    HW1 1890   1.067   2.559   0.525
  623SOL    HW2 1891   0.956   2.512   0.415
  624SOL     OW 1892   0.076   2.673   0.789
  624SOL    HW1 1893   0.175   2.661   0.798
  624SOL    HW2 1894   0.052   2.768   0.810
  625SOL     OW 1895   0.130   3.683   1.571
  625SOL    HW1 1896   0.120   3.668   1.670
  625SOL    HW2 1897   0.044   3.719   1.535
  626SOL     OW 1898   0.865   2.210   0.195
  626SOL    HW1 1899   0.924   2.273   0.146
  626SOL    HW2 1900   0.884   2.116   0.166
  627SOL     OW 1901   1.719   2.447   1.831
  627SOL    HW1 1902   1.693   2.536   1.795
  627SOL    HW2 1903   1.717   2.379   1.758
  628SOL     OW 1904   1.362   3.006   0.545
  628SOL    HW1 1905   1.445   2.977   0.497
  628SOL    HW2 1906   1.313   3.073   0.489
  629SOL     OW 1907   0.550   2.058   0.885
  629SOL    HW1 1908   0.545   2.053   0.985
  629SOL    HW2 1909   0.552   2.154   0.856
  630SOL     OW 1910   1.008   3.318   0.477
  630SOL    HW1 1911   0.962   3.390   0.425
  630SOL    HW2 1912   1.004   3.338   0.575
  631SOL     OW 1913   0.351   3.663   0.853
  631SOL    HW1 1914   0.401   3.577   0.859
  631SOL    HW2 1915   0.416   3.740   0.850
  632SOL     OW 1916   1.795   2.928   0.873
  632SOL    HW1 1917   1.733   2.913   0.797
  632SOL    HW2 1918   1.743   2.939   0.958
  633SOL     OW 1919   1.227   3.412   1.506
  633SOL    HW1 1920   1.233   3.335   1.570
  633SOL    HW2 1921   1.175   3.386   1.426
  634SOL     OW 1922   0.321   2.805   0.242
  634SOL    HW1 1923   0.403   2.844   0.200
  634SOL    HW2 1924   0.294   2.723   0.193
  635SOL     OW 1925   1.458   2.597   0.728
  635SOL    HW1 1926   1.453   2.532   0.803
  635SOL    HW2 1927   1.538   2.656   0.741
  636SOL     OW 1928   0.461   3.128   1.727
  636SOL    HW1 1929   0.411   3.129   1.641
  636SOL    HW2 1930   0.398   3.110   1.803
  637SOL     OW 1931   1.111   3.638   0.237
  637SOL    HW1 1932   1.051   3.576   0.287
  637SOL    HW2 1933   1.142   3.594   0.152
  638SOL     OW 1934   0.202   2.147   1.498
  638SOL    HW1 1935   0.122   2.207   1.485
  638SOL    HW2 1936   0.192   2.098   1.584
  639SOL     OW 1937   1.632   3.239   0.081
  639SOL    HW1 1938   1.600   3.333   0.071
  639SOL    HW2 1939   1.556   3.176   0.069
  640SOL     OW 1940   0.464   3.605   0.323
  640SOL    HW1 1941   0.497   3.644   0.409
  640SOL    HW2 1942   0.540   3.598   0.258
  641SOL     OW 1943   1.400   1.969   0.426
  641SOL    HW1 1944   1.376   1.932   0.336
  641SOL    HW2 1945   1.499   1.985   0.430
  642SOL     OW 1946   0.249   3.647   1.241
  642SOL    HW1 1947   0.306   3.582   1.291
  642SOL    HW2 1948   0.233   3.614   1.148
  643SOL     OW 1949   0.940   3.560   0.904
  643SOL    HW1 1950   1.020   3.503   0.925
  643SOL    HW2 1951   0.891   3.520   0.827
  644SOL     OW 1952   0.382   2.562   0.480
  644SOL    HW1 1953   0.427   2.472   0.477
  644SOL    HW2 1954   0.288   2.551   0.513
  645SOL     OW 1955   1.547   2.084   1.729
  645SOL    HW1 1956   1.542   2.121   1.821
  645SOL    HW2 1957   1.475   2.015   1.717
  646SOL     OW 1958   0.614   1.984   0.117
  646SOL    HW1 1959   0.712   1.962   0.124
  646SOL    HW2 1960   0.583   1.967   0.024
  647SOL     OW 1961   0.781   2.126   1.749
  647SOL    HW1 1962   0.848   2.065   1.792
  647SOL    HW2 1963   0.708   2.145   1.814
  648SOL     OW 1964   0.888   3.376   1.195
  648SOL    HW1 1965   0.865   3.351   1.101
  648SOL    HW2 1966   0.949   3.307   1.234
  649SOL     OW 1967   1.351   2.452   1.433
  649SOL    HW1 1968   1.379   2.409   1.518
  649SOL    HW2 1969   1.376   2.548   1.434
  650SOL     OW 1970   0.803   3.264   0.924
  650SOL    HW1 1971   0.893   3.278   0.882
  650SOL    HW2 1972   0.732   3.266   0.853
  651SOL     OW 1973   0.922   2.365   0.899
  651SOL    HW1 1974   0.897   2.356   0.803
  651SOL    HW2 1975   0.970   2.283   0.930
  652SOL     OW 1976   0.539   1.926   0.512
  652SOL    HW1 1977   0.458   1.927   0.570
  652SOL    HW2 1978   0.542   2.009   0.457
  653SOL     OW 1979   1.434   3.050   0.041
  653SOL    HW1 1980   1.466   2.974   0.098
  653SOL    HW2 1981   1.342   3.077   0.071
  654SOL     OW 1982   0.297   1.897   0.171
  654SOL    HW1 1983   0.346   1.981   0.150
  654SOL    HW2 1984   0.359   1.832   0.216
  655SOL     OW 1985   0.935   2.098   0.480
  655SOL    HW1 1986   0.887   2.139   0.402
  655SOL    HW2 1987   1.034   2.096   0.461
  656SOL     OW 1988   1.076   2.545   1.464
  656SOL    HW1 1989   0.996   2.484   1.467
  656SOL    HW2 1990   1.157   2.492   1.440
  657SOL     OW 1991   1.227   3.432   0.793
  657SOL    HW1 1992   1.248   3.506   0.728
  657SOL    HW2 1993   1.295   3.432   0.866
  658SOL     OW 1994   0.459   3.014   0.741
  658SOL    HW1 1995   0.388   2.987   0.806
  658SOL    HW2 1996   0.433   2.986   0.648
  659SOL     OW 1997   1.271   3.659   0.591
  659SOL    HW1 1998   1.315   3.723   0.527
  659SOL    HW2 1999   1.221   3.711   0.661
  660SOL     OW 2000   1.032   2.411   0.016
  660SOL    HW1 2001   0.991   2.493  -0.023
  660SOL    HW2 2002   1.096   2.437   0.089
  661SOL     OW 2003   0.078   2.418   1.386
  661SOL    HW1 2004   0.170   2.417   1.345
  661SOL    HW2 2005   0.072   2.492   1.453
  662SOL     OW 2006   0.561   2.084   1.147
  662SOL    HW1 2007   0.599   2.000   1.184
  662SOL    HW2 2008   0.473   2.103   1.191
  663SOL     OW 2009   0.866   2.316   0.642
  663SOL    HW1 2010   0.834   2.388   0.580
  663SOL    HW2 2011   0.890   2.235   0.589
  664SOL     OW 2012   1.017   1.901   0.753
  664SOL    HW1 2013   0.945   1.906   0.684
  664SOL    HW2 2014   0.993   1.832   0.822
  665SOL     OW 2015   1.429   3.035   0.867
  665SOL    HW1 2016   1.374   2.951   0.860
  665SOL    HW2 2017   1.455   3.064   0.775
  666SOL     OW 2018   1.466   2.452   0.992
  666SOL    HW1 2019   1.436   2.357   0.999
  666SOL    HW2 2020   1.539   2.468   1.058
  667SOL     OW 2021   1.857   2.695   0.377
  667SOL    HW1 2022   1.899   2.631   0.441
  667SOL    HW2 2023   1.819   2.644   0.299
  668SOL     OW 2024   0.488   3.247   0.174
  668SOL    HW1 2025   0.401   3.232   0.221
  668SOL    HW2 2026   0.471   3.273   0.079
  669SOL     OW 2027   1.664   3.142   0.657
  669SOL    HW1 2028   1.763   3.150   0.671
  669SOL    HW2 2029   1.619   3.226   0.688
  670SOL     OW 2030   1.390   2.437   0.078
  670SOL    HW1 2031   1.336   2.416   0.159
  670SOL    HW2 2032   1.481   2.396   0.087
  671SOL     OW 2033   0.527   2.118   0.328
  671SOL    HW1 2034   0.554   2.059   0.253
  671SOL    HW2 2035   0.527   2.213   0.297
  672SOL     OW 2036   1.754   3.085   1.588
  672SOL    HW1 2037   1.845   3.046   1.575
  672SOL    HW2 2038   1.762   3.181   1.612
  673SOL     OW 2039   1.064   3.209   1.340
  673SOL    HW1 2040   0.984   3.186   1.395
  673SOL    HW2 2041   1.147   3.183   1.389
  674SOL     OW 2042   1.592   3.491   1.625
  674SOL    HW1 2043   1.619   3.525   1.535
  674SOL    HW2 2044   1.671   3.453   1.671
  675SOL     OW 2045   1.111   3.057   1.100
  675SOL    HW1 2046   1.071   3.101   1.181
  675SOL    HW2 2047   1.070   3.094   1.017
  676SOL     OW 2048   1.638   2.961   1.079
  676SOL    HW1 2049   1.643   3.042   1.138
  676SOL    HW2 2050   1.552   2.963   1.028
  677SOL     OW 2051   0.915   1.951   1.402
  677SOL    HW1 2052   0.940   1.931   1.307
  677SOL    HW2 2053   0.987   2.007   1.444
  678SOL     OW 2054   0.980   2.978   1.719
  678SOL    HW1 2055   0.881   2.984   1.729
  678SOL    HW2 2056   1.003   2.898   1.663
  679SOL     OW 2057   0.705   2.912   0.368
  679SOL    HW1 2058   0.691   2.919   0.467
  679SOL    HW2 2059   0.789   2.861   0.350
  680SOL     OW 2060   0.410   2.675   1.251
  680SOL    HW1 2061   0.496   2.687   1.301
  680SOL    HW2 2062   0.368   2.588   1.278
  681SOL     OW 2063   1.274   2.248   1.262
  681SOL    HW1 2064   1.295   2.322   1.326
  681SOL    HW2 2065   1.185   2.265   1.219
  682SOL     OW 2066   0.064   3.426   1.331
  682SOL    HW1 2067   0.018   3.508   1.297
  682SOL    HW2 2068   0.162   3.445   1.340
  683SOL     OW 2069   0.367   2.962   0.501
  683SOL    HW1 2070   0.360   3.045   0.445
  683SOL    HW2 2071   0.371   2.882   0.441
  684SOL     OW 2072   0.566   2.399   0.865
  684SOL    HW1 2073   0.578   2.465   0.791
  684SOL    HW2 2074   0.612   2.433   0.948
  685SOL     OW 2075   1.252   3.210   0.388
  685SOL    HW1 2076   1.302   3.287   0.428
  685SOL    HW2 2077   1.157   3.212   0.420
  686SOL     OW 2078   1.272   3.307   1.142
  686SOL    HW1 2079   1.319   3.320   1.229
  686SOL    HW2 2080   1.206   3.233   1.151
  687SOL     OW 2081   1.582   2.501   0.472
  687SOL    HW1 2082   1.551   2.562   0.545
  687SOL    HW2 2083   1.632   2.553   0.403
  688SOL     OW 2084   0.354   3.372   1.329
  688SOL    HW1 2085   0.333   3.328   1.242
  688SOL    HW2 2086   0.451   3.398   1.332
  689SOL     OW 2087   0.402   2.613   1.598
  689SOL    HW1 2088   0.470   2.668   1.551
  689SOL    HW2 2089   0.442   2.525   1.625
  690SOL     OW 2090   1.587   2.641   1.670
  690SOL    HW1 2091   1.495   2.679   1.665
  690SOL    HW2 2092   1.647   2.688   1.605
  691SOL     OW 2093   1.013   1.967   1.770
  691SOL    HW1 2094   1.019   2.052   1.718
  691SOL    HW2 2095   1.045   1.891   1.713
  692SOL     OW 2096   0.504   1.912   1.740
  692SOL    HW1 2097   0.462   1.855   1.670
  692SOL    HW2 2098   0.438   1.981   1.772
  693SOL     OW 2099   0.573   2.732   1.029
  693SOL    HW1 2100   0.617   2.821   1.020
  693SOL    HW2 2101   0.510   2.732   1.106
  694SOL     OW 2102   1.360   2.724   1.045
  694SOL    HW1 2103   1.285   2.724   0.979
  694SOL    HW2 2104   1.397   2.632   1.054
  695SOL     OW 2105   1.209   2.387   0.275
  695SOL    HW1 2106   1.222   2.303   0.329
  695SOL    HW2 2107   1.180   2.461   0.335
  696SOL     OW 2108   0.307   2.075   1.231
  696SOL    HW1 2109   0.284   2.112   1.321
  696SOL    HW2 2110   0.277   1.980   1.225
  697SOL     OW 2111   0.037   3.172   1.282
  697SOL    HW1 2112   0.090   3.123   1.350
  697SOL    HW2 2113   0.059   3.270   1.287
  698SOL     OW 2114   0.732   2.496   1.064
  698SOL    HW1 2115   0.791   2.470   0.988
  698SOL    HW2 2116   0.704   2.592   1.053
  699SOL     OW 2117   1.728   2.797   1.854
  699SOL    HW1 2118   1.682   2.790   1.765
  699SOL    HW2 2119   1.666   2.841   1.920
  700SOL     OW 2120   0.307   1.925   0.618
  700SOL    HW1 2121   0.296   2.019   0.651
  700SOL    HW2 2122   0.302   1.862   0.695
  701SOL     OW 2123   1.622   2.229   0.374
  701SOL    HW1 2124   1.624   2.153   0.438
  701SOL    HW2 2125   1.574   2.306   0.414
  702SOL     OW 2126   1.023   2.628   0.966
  702SOL    HW1 2127   1.038   2.649   1.062
  702SOL    HW2 2128   0.993   2.533   0.957
  703SOL     OW 2129   0.980   3.435   1.700
  703SOL    HW1 2130   0.960   3.479   1.612
  703SOL    HW2 2131   1.019   3.344   1.684
  704SOL     OW 2132   1.859   3.380   1.605
  704SOL    HW1 2133   1.873   3.407   1.510
  704SOL    HW2 2134   1.942   3.402   1.658
  705SOL     OW 2135   0.350   2.760   1.804
  705SOL    HW1 2136   0.426   2.804   1.852
  705SOL    HW2 2137   0.385   2.713   1.722
  706SOL     OW 2138   1.540   2.136   0.125
  706SOL    HW1 2139   1.479   2.061   0.148
  706SOL    HW2 2140   1.562   2.188   0.208
  707SOL     OW 2141   1.303   2.700   0.042
  707SOL    HW1 2142   1.337   2.607   0.057
  707SOL    HW2 2143   1.321   2.727  -0.053
  708SOL     OW 2144   1.068   3.195   0.849
  708SOL    HW1 2145   1.075   3.111   0.794
  708SOL    HW2 2146   1.130   3.264   0.813
  709SOL     OW 2147   0.319   2.672   0.949
  709SOL    HW1 2148   0.412   2.708   0.954
  709SOL    HW2 2149   0.313   2.587   1.001
  710SOL     OW 2150   0.339   2.371   1.006
  710SOL    HW1 2151   0.287   2.288   0.989
  710SOL    HW2 2152   0.416   2.376   0.942
  711SOL     OW 2153   1.138   2.242   1.678
  711SOL    HW1 2154   1.093   2.305   1.742
  711SOL    HW2 2155   1.231   2.273   1.661
  712SOL     OW 2156   1.160   2.069   1.477
  712SOL    HW1 2157   1.160   2.133   1.554
  712SOL    HW2 2158   1.188   2.117   1.394
  713SOL     OW 2159   0.008   3.188   0.200
  713SOL    HW1 2160  -0.085   3.209   0.169
  713SOL    HW2 2161   0.018   3.089   0.213
  714SOL     OW 2162   0.088   3.663   0.927
  714SOL    HW1 2163   0.046   3.577   0.900
  714SOL    HW2 2164   0.182   3.666   0.893
  715SOL     OW 2165   0.504   3.430   0.910
  715SOL    HW1 2166   0.570   3.504   0.919
  715SOL    HW2 2167   0.548   3.351   0.868
  716SOL     OW 2168   1.002   2.658   1.238
  716SOL    HW1 2169   1.043   2.626   1.324
  716SOL    HW2 2170   0.906   2.631   1.235
  717SOL     OW 2171   0.040   2.406   1.114
  717SOL    HW1 2172   0.125   2.373   1.073
  717SOL    HW2 2173   0.053   2.421   1.212
  718SOL     OW 2174   0.189   2.382   1.722
  718SOL    HW1 2175   0.248   2.342   1.652
  718SOL    HW2 2176   0.131   2.453   1.681
  719SOL     OW 2177   1.369   2.812   1.660
  719SOL    HW1 2178   1.408   2.901   1.680
  719SOL    HW2 2179   1.379   2.792   1.563
  720SOL     OW 2180   0.815   2.434   0.325
  720SOL    HW1 2181   0.822   2.345   0.279
  720SOL    HW2 2182   0.721   2.468   0.317
  721SOL     OW 2183   1.657   2.466   1.206
  721SOL    HW1 2184   1.619   2.397   1.268
  721SOL    HW2 2185   1.739   2.430   1.162
  722SOL     OW 2186   0.252   3.426   1.744
  722SOL    HW1 2187   0.222   3.483   1.820
  722SOL    HW2 2188   0.245   3.329   1.770
  723SOL     OW 2189   0.671   2.326   1.269
  723SOL    HW1 2190   0.637   2.237   1.239
  723SOL    HW2 2191   0.697   2.380   1.189
  724SOL     OW 2192   0.930   3.540   1.465
  724SOL    HW1 2193   0.906   3.522   1.370
  724SOL    HW2 2194   0.960   3.634   1.475
  725SOL     OW 2195   0.473   2.362   0.191
  725SOL    HW1 2196   0.534   2.442   0.195
  725SOL    HW2 2197   0.378   2.393   0.198
  726SOL     OW 2198   0.159   2.999   1.466
  726SOL    HW1 2199   0.181   2.938   1.542
  726SOL    HW2 2200   0.169   2.950   1.380
  727SOL     OW 2201   1.347   2.921   1.234
  727SOL    HW1 2202   1.371   2.858   1.160
  727SOL    HW2 2203   1.257   2.961   1.216
  728SOL     OW 2204   1.302   2.717   0.309
  728SOL    HW1 2205   1.216   2.686   0.351
  728SOL    HW2 2206   1.298   2.703   0.210
  729SOL     OW 2207   1.759   3.609   1.154
  729SOL    HW1 2208   1.820   3.639   1.081
  729SOL    HW2 2209   1.721   3.520   1.132
  730SOL     OW 2210   1.252   3.593   1.128
  730SOL    HW1 2211   1.336   3.598   1.074
  730SOL    HW2 2212   1.229   3.497   1.146
  731SOL     OW 2213   0.083   3.120   1.022
  731SOL    HW1 2214   0.078   3.119   1.122
  731SOL    HW2 2215   0.000   3.079   0.984
  732SOL     OW 2216   0.688   3.524   1.716
  732SOL    HW1 2217   0.632   3.605   1.725
  732SOL    HW2 2218   0.740   3.528   1.630
  733SOL     OW 2219   0.903   1.948   0.133
  733SOL    HW1 2220   0.954   1.949   0.047
  733SOL    HW2 2221   0.959   1.906   0.204
  734SOL     OW 2222   1.726   1.997   0.523
  734SOL    HW1 2223   1.799   1.980   0.456
  734SOL    HW2 2224   1.695   1.910   0.561
  735SOL     OW 2225   1.388   3.435   0.477
  735SOL    HW1 2226   1.455   3.447   0.403
  735SOL    HW2 2227   1.348   3.524   0.500
  736SOL     OW 2228   0.130   3.656   1.851
  736SOL    HW1 2229   0.089   3.582   1.904
  736SOL    HW2 2230   0.194   3.707   1.909
  737SOL     OW 2231   1.280   2.789   0.672
  737SOL    HW1 2232   1.340   2.708   0.674
  737SOL    HW2 2233   1.320   2.858   0.612
  738SOL     OW 2234   0.830   3.135   1.422
  738SOL    HW1 2235   0.825   3.168   1.517
  738SOL    HW2 2236   0.744   3.154   1.376
  739SOL     OW 2237   0.672   3.478   0.154
  739SOL    HW1 2238   0.681   3.488   0.055
  739SOL    HW2 2239   0.632   3.389   0.175
  740SOL     OW 2240   1.650   3.582   1.394
  740SOL    HW1 2241   1.703   3.592   1.310
  740SOL    HW2 2242   1.623   3.672   1.428
  741SOL     OW 2243   1.841   2.037   0.963
  741SOL    HW1 2244   1.880   1.952   0.927
  741SOL    HW2 2245   1.743   2.039   0.944
  742SOL     OW 2246   0.263   2.188   0.720
  742SOL    HW1 2247   0.184   2.239   0.686
  742SOL    HW2 2248   0.254   2.173   0.818
  743SOL     OW 2249   1.194   3.474   0.031
  743SOL    HW1 2250   1.200   3.381   0.068
  743SOL    HW2 2251   1.135   3.474  -0.049
  744SOL     OW 2252   0.822   2.864   1.372
  744SOL    HW1 2253   0.862   2.863   1.280
  744SOL    HW2 2254   0.832   2.956   1.412
  745SOL     OW 2255   0.916   2.772   0.291
  745SOL    HW1 2256   0.979   2.810   0.223
  745SOL    HW2 2257   0.956   2.689   0.330
  746SOL     OW 2258   1.504   3.469   0.044
  746SOL    HW1 2259   1.412   3.506   0.051
  746SOL    HW2 2260   1.542   3.489  -0.046
  747SOL     OW 2261   0.372   3.150   1.490
  747SOL    HW1 2262   0.359   3.243   1.456
  747SOL    HW2 2263   0.288   3.098   1.477
  748SOL     OW 2264   1.614   3.154   1.289
  748SOL    HW1 2265   1.674   3.157   1.369
  748SOL    HW2 2266   1.539   3.218   1.302
  749SOL     OW 2267   1.039   2.960   0.696
  749SOL    HW1 2268   0.969   2.913   0.750
  749SOL    HW2 2269   1.098   2.892   0.653
  750SOL     OW 2270   1.014   2.098   0.971
  750SOL    HW1 2271   1.006   2.062   0.878
  750SOL    HW2 2272   1.012   2.022   1.036
  751SOL     OW 2273   0.590   3.349   0.491
  751SOL    HW1 2274   0.632   3.291   0.421
  751SOL    HW2 2275   0.546   3.428   0.447
  752SOL     OW 2276   1.709   2.247   1.381
  752SOL    HW1 2277   1.782   2.316   1.385
  752SOL    HW2 2278   1.737   2.172   1.322
  753SOL     OW 2279   0.255   3.210   0.290
  753SOL    HW1 2280   0.159   3.211   0.263
  753SOL    HW2 2281   0.267   3.263   0.374
  754SOL     OW 2282   0.105   2.875   1.726
  754SOL    HW1 2283   0.028   2.842   1.780
  754SOL    HW2 2284   0.190   2.845   1.768
  755SOL     OW 2285   0.672   2.065   1.489
  755SOL    HW1 2286   0.762   2.049   1.449
  755SOL    HW2 2287   0.680   2.070   1.588
  756SOL     OW 2288   0.075   2.207   0.033
  756SOL    HW1 2289  -0.017   2.179   0.004
  756SOL    HW2 2290   0.106   2.284  -0.023
  757SOL     OW 2291   1.440   2.718   1.398
  757SOL    HW1 2292   1.383   2.770   1.335
  757SOL    HW2 2293   1.536   2.730   1.374
  758SOL     OW 2294   0.072   2.028   0.318
  758SOL    HW1 2295   0.055   2.111   0.264
  758SOL    HW2 2296   0.162   1.991   0.296
  759SOL     OW 2297   1.183   3.197   0.119
  759SOL    HW1 2298   1.084   3.186   0.121
  759SOL    HW2 2299   1.217   3.212   0.212
  760SOL     OW 2300   0.613   2.704   1.431
  760SOL    HW1 2301   0.669   2.785   1.414
  760SOL    HW2 2302   0.672   2.624   1.434
  761SOL     OW 2303   1.493   3.629   0.959
  761SOL    HW1 2304   1.526   3.693   0.890
  761SOL    HW2 2305   1.559   3.623   1.034
  762SOL     OW 2306   0.716   2.427   1.708
  762SOL    HW1 2307   0.735   2.492   1.782
  762SOL    HW2 2308   0.776   2.347   1.717
  763SOL     OW 2309   1.450   3.082   1.633
  763SOL    HW1 2310   1.441   3.072   1.732
  763SOL    HW2 2311   1.546   3.075   1.607
  764SOL     OW 2312   0.390   3.603   1.560
  764SOL    HW1 2313   0.299   3.644   1.558
  764SOL    HW2 2314   0.383   3.509   1.592
  765SOL     OW 2315   1.674   2.745   1.254
  765SOL    HW1 2316   1.647   2.656   1.217
  765SOL    HW2 2317   1.675   2.813   1.181
  766SOL     OW 2318   1.225   2.187   0.449
  766SOL    HW1 2319   1.290   2.113   0.438
  766SOL    HW2 2320   1.245   2.237   0.533
  767SOL     OW 2321   0.594   2.607   0.652
  767SOL    HW1 2322   0.644   2.692   0.633
  767SOL    HW2 2323   0.506   2.609   0.604
  768SOL     OW 2324   1.777   2.204   1.642
  768SOL    HW1 2325   1.760   2.235   1.548
  768SOL    HW2 2326   1.693   2.167   1.680
  769SOL     OW 2327   1.730   2.796   1.517
  769SOL    HW1 2328   1.768   2.887   1.532
  769SOL    HW2 2329   1.722   2.779   1.418
  770SOL     OW 2330   0.859   3.236   0.016
  770SOL    HW1 2331   0.813   3.251   0.104
  770SOL    HW2 2332   0.903   3.321  -0.014
  771SOL     OW 2333   0.661   3.652   0.953
  771SOL    HW1 2334   0.615   3.740   0.940
  771SOL    HW2 2335   0.760   3.664   0.946
  772SOL     OW 2336   0.859   2.818   0.861
  772SOL    HW1 2337   0.913   2.749   0.909
  772SOL    HW2 2338   0.827   2.887   0.927
  773SOL     OW 2339   1.083   2.846   0.087
  773SOL    HW1 2340   1.060   2.899   0.005
  773SOL    HW2 2341   1.164   2.790   0.068
  774SOL     OW 2342   1.861   3.431   0.851
  774SOL    HW1 2343   1.790   3.419   0.781
  774SOL    HW2 2344   1.862   3.352   0.911
  775SOL     OW 2345   0.221   3.176   1.844
  775SOL    HW1 2346   0.156   3.103   1.823
  775SOL    HW2 2347   0.225   3.190   1.942
  776SOL     OW 2348   0.079   3.102   0.653
  776SOL    HW1 2349   0.078   3.055   0.741
  776SOL    HW2 2350   0.161   3.074   0.602
  777SOL     OW 2351   0.672   3.253   1.624
  777SOL    HW1 2352   0.594   3.203   1.662
  777SOL    HW2 2353   0.669   3.348   1.655
  778SOL     OW 2354   1.824   2.054   1.227
  778SOL    HW1 2355   1.820   1.964   1.271
  778SOL    HW2 2356   1.827   2.043   1.128
  779SOL     OW 2357   0.428   2.286   0.520
  779SOL    HW1 2358   0.458   2.214   0.458
  779SOL    HW2 2359   0.389   2.246   0.603
  780SOL     OW 2360   1.705   3.349   1.104
  780SOL    HW1 2361   1.612   3.324   1.077
  780SOL    HW2 2362   1.731   3.299   1.186
  781SOL     OW 2363   0.317   2.409   1.280
  781SOL    HW1 2364   0.355   2.350   1.352
  781SOL    HW2 2365   0.357   2.383   1.192
  782SOL     OW 2366   0.812   3.448   0.687
  782SOL    HW1 2367   0.844   3.458   0.593
  782SOL    HW2 2368   0.733   3.386   0.689
  783SOL     OW 2369   1.424   2.076   1.112
  783SOL    HW1 2370   1.476   2.011   1.167
  783SOL    HW2 2371   1.375   2.139   1.173
  784SOL     OW 2372   1.001   1.896   1.154
  784SOL    HW1 2373   0.938   1.824   1.123
  784SOL    HW2 2374   1.094   1.860   1.154
  785SOL     OW 2375   0.770   3.192   0.301
  785SOL    HW1 2376   0.724   3.105   0.318
  785SOL    HW2 2377   0.861   3.189   0.342
  786SOL     OW 2378   0.618   3.429   1.284
  786SOL    HW1 2379   0.613   3.511   1.341
  786SOL    HW2 2380   0.707   3.426   1.239
  787SOL     OW 2381   1.352   1.914   0.168
  787SOL    HW1 2382   1.387   1.873   0.084
  787SOL    HW2 2383   1.262   1.876   0.188
  788SOL     OW 2384   1.300   2.315   0.691
  788SOL    HW1 2385   1.241   2.395   0.695
  788SOL    HW2 2386   1.315   2.280   0.784
  789SOL     OW 2387   1.593   2.083   0.882
  789SOL    HW1 2388   1.509   2.082   0.936
  789SOL    HW2 2389   1.595   2.166   0.826
  790SOL     OW 2390   0.039   2.939   0.300
  790SOL    HW1 2391   0.138   2.928   0.291
  790SOL    HW2 2392  -0.001   2.853   0.332
  791SOL     OW 2393   0.875   3.508   0.337
  791SOL    HW1 2394   0.798   3.473   0.283
  791SOL    HW2 2395   0.843   3.579   0.399
  792SOL     OW 2396   0.230   2.490   1.975
  792SOL    HW1 2397   0.137   2.488   2.012
  792SOL    HW2 2398   0.231   2.451   1.883
  793SOL     OW 2399   0.225   2.137   2.858
  793SOL    HW1 2400   0.260   2.120   2.950
  793SOL    HW2 2401   0.137   2.092   2.846
  794SOL     OW 2402   0.019   2.230   2.509
  794SOL    HW1 2403  -0.063   2.273   2.548
  794SOL    HW2 2404  -0.009   2.157   2.446
  795SOL     OW 2405   0.569   3.137   3.027
  795SOL    HW1 2406   0.476   3.130   2.990
  795SOL    HW2 2407   0.580   3.226   3.071
  796SOL     OW 2408   1.555   3.373   2.565
  796SOL    HW1 2409   1.498   3.357   2.646
  796SOL    HW2 2410   1.496   3.383   2.485
  797SOL     OW 2411   1.135   2.565   2.579
  797SOL    HW1 2412   1.192   2.643   2.554
  797SOL    HW2 2413   1.075   2.591   2.655
  798SOL     OW 2414   1.755   2.469   2.093
  798SOL    HW1 2415   1.743   2.456   1.994
  798SOL    HW2 2416   1.725   2.388   2.142
  799SOL     OW 2417   0.768   3.006   2.885
  799SOL    HW1 2418   0.690   3.023   2.945
  799SOL    HW2 2419   0.802   3.093   2.849
  800SOL     OW 2420   0.850   2.660   3.685
  800SOL    HW1 2421   0.846   2.736   3.750
  800SOL    HW2 2422   0.872   2.696   3.594
  801SOL     OW 2423   0.685   2.874   2.527
  801SOL    HW1 2424   0.754   2.858   2.597
  801SOL    HW2 2425   0.612   2.931   2.565
  802SOL     OW 2426   0.686   3.023   3.665
  802SOL    HW1 2427   0.746   3.102   3.679
  802SOL    HW2 2428   0.600   3.054   3.624
  803SOL     OW 2429   0.335   3.297   2.923
  803SOL    HW1 2430   0.257   3.266   2.870
  803SOL    HW2 2431   0.393   3.355   2.866
  804SOL     OW 2432   1.460   3.367   3.201
  804SOL    HW1 2433   1.484   3.461   3.227
  804SOL    HW2 2434   1.444   3.313   3.283
  805SOL     OW 2435   0.438   2.254   3.361
  805SOL    HW1 2436   0.520   2.198   3.370
  805SOL    HW2 2437   0.357   2.196   3.365
  806SOL     OW 2438   1.603   2.309   2.599
  806SOL    HW1 2439   1.529   2.355   2.549
  806SOL    HW2 2440   1.654   2.377   2.652
  807SOL     OW 2441   0.231   3.575   2.345
  807SOL    HW1 2442   0.265   3.652   2.399
  807SOL    HW2 2443   0.275   3.575   2.255
  808SOL     OW 2444   1.127   3.203   3.552
  808SOL    HW1 2445   1.174   3.203   3.640
  808SOL    HW2 2446   1.079   3.116   3.541
  809SOL     OW 2447   0.230   3.296   2.400
  809SOL    HW1 2448   0.204   3.392   2.400
  809SOL    HW2 2449   0.159   3.242   2.445
  810SOL     OW 2450   0.240   2.953   2.748
  810SOL    HW1 2451   0.254   2.869   2.800
  810SOL    HW2 2452   0.185   3.017   2.803
  811SOL     OW 2453   0.620   3.648   3.301
  811SOL    HW1 2454   0.528   3.631   3.336
  811SOL    HW2 2455   0.648   3.740   3.327
  812SOL     OW 2456   0.606   2.826   1.985
  812SOL    HW1 2457   0.613   2.910   1.931
  812SOL    HW2 2458   0.652   2.839   2.073
  813SOL     OW 2459   1.594   1.976   3.342
  813SOL    HW1 2460   1.576   2.043   3.270
  813SOL    HW2 2461   1.591   2.022   3.431
  814SOL     OW 2462   0.122   2.505   2.425
  814SOL    HW1 2463   0.077   2.417   2.442
  814SOL    HW2 2464   0.121   2.559   2.509
  815SOL     OW 2465   1.842   3.629   2.221
  815SOL    HW1 2466   1.896   3.600   2.301
  815SOL    HW2 2467   1.872   3.719   2.192
  816SOL     OW 2468   0.027   3.458   1.979
  816SOL    HW1 2469   0.008   3.362   2.000
  816SOL    HW2 2470  -0.006   3.516   2.054
  817SOL     OW 2471   1.689   2.784   2.474
  817SOL    HW1 2472   1.784   2.755   2.482
  817SOL    HW2 2473   1.681   2.849   2.399
  818SOL     OW 2474   1.641   2.970   2.294
  818SOL    HW1 2475   1.727   2.972   2.242
  818SOL    HW2 2476   1.655   3.017   2.382
  819SOL     OW 2477   0.113   2.599   3.459
  819SOL    HW1 2478   0.201   2.586   3.504
  819SOL    HW2 2479   0.100   2.696   3.437
  820SOL     OW 2480   0.613   3.227   2.588
  820SOL    HW1 2481   0.564   3.140   2.597
  820SOL    HW2 2482   0.590   3.270   2.501
  821SOL     OW 2483   1.293   3.090   3.285
  821SOL    HW1 2484   1.330   3.017   3.227
  821SOL    HW2 2485   1.345   3.095   3.370
  822SOL     OW 2486   0.809   1.866   2.364
  822SOL    HW1 2487   0.849   1.957   2.355
  822SOL    HW2 2488   0.709   1.874   2.370
  823SOL     OW 2489   0.197   2.838   3.126
  823SOL    HW1 2490   0.286   2.793   3.112
  823SOL    HW2 2491   0.124   2.773   3.107
  824SOL     OW 2492   1.525   2.861   2.052
  824SOL    HW1 2493   1.462   2.785   2.065
  824SOL    HW2 2494   1.573   2.879   2.138
  825SOL     OW 2495   1.187   3.654   3.478
  825SOL    HW1 2496   1.211   3.714   3.402
  825SOL    HW2 2497   1.194   3.559   3.448
  826SOL     OW 2498   0.317   2.113   3.663
  826SOL    HW1 2499   0.388   2.184   3.669
  826SOL    HW2 2500   0.229   2.152   3.691
  827SOL     OW 2501   1.466   3.279   2.815
  827SOL    HW1 2502   1.407   3.285   2.895
  827SOL    HW2 2503   1.451   3.191   2.769
  828SOL     OW 2504   1.667   3.576   2.434
  828SOL    HW1 2505   1.626   3.553   2.346
  828SOL    HW2 2506   1.649   3.502   2.499
  829SOL     OW 2507   0.598   2.591   2.132
  829SOL    HW1 2508   0.622   2.660   2.064
  829SOL    HW2 2509   0.520   2.624   2.186
  830SOL     OW 2510   1.281   2.207   2.806
  830SOL    HW1 2511   1.195   2.157   2.793
  830SOL    HW2 2512   1.343   2.153   2.862
  831SOL     OW 2513   1.576   3.524   2.169
  831SOL    HW1 2514   1.665   3.570   2.172
  831SOL    HW2 2515   1.555   3.500   2.074
  832SOL     OW 2516   0.807   2.467   3.327
  832SOL    HW1 2517   0.760   2.464   3.416
  832SOL    HW2 2518   0.756   2.412   3.261
  833SOL     OW 2519   1.394   2.331   3.536
  833SOL    HW1 2520   1.374   2.374   3.624
  833SOL    HW2 2521   1.472   2.269   3.545
  834SOL     OW 2522   0.973   2.752   3.434
  834SOL    HW1 2523   1.019   2.668   3.405
  834SOL    HW2 2524   0.917   2.786   3.359
  835SOL     OW 2525   0.991   2.272   3.104
  835SOL    HW1 2526   0.914   2.306   3.158
  835SOL    HW2 2527   0.957   2.221   3.025
  836SOL     OW 2528   1.041   2.563   2.291
  836SOL    HW1 2529   1.067   2.559   2.387
  836SOL    HW2 2530   0.956   2.512   2.277
  837SOL     OW 2531   0.076   2.673   2.651
  837SOL    HW1 2532   0.175   2.661   2.660
  837SOL    HW2 2533   0.052   2.768   2.672
  838SOL     OW 2534   0.130   3.683   3.433
  838SOL    HW1 2535   0.120   3.668   3.532
  838SOL    HW2 2536   0.044   3.719   3.397
  839SOL     OW 2537   0.865   2.210   2.057
  839SOL    HW1 2538   0.924   2.273   2.008
  839SOL    HW2 2539   0.884   2.116   2.028
  840SOL     OW 2540   1.719   2.447   3.693
  840SOL    HW1 2541   1.693   2.536   3.657
  840SOL    HW2 2542   1.717   2.379   3.620
  841SOL     OW 2543   1.362   3.006   2.407
  841SOL    HW1 2544   1.445   2.977   2.359
  841SOL    HW2 2545   1.313   3.073   2.351
  842SOL     OW 2546   0.550   2.058   2.747
  842SOL    HW1 2547   0.545   2.053   2.847
  842SOL    HW2 2548   0.552   2.154   2.718
  843SOL     OW 2549   1.008   3.318   2.339
  843SOL    HW1 2550   0.962   3.390   2.287
  843SOL    HW2 2551   1.004   3.338   2.437
  844SOL     OW 2552   0.351   3.663   2.715
  844SOL    HW1 2553   0.401   3.577   2.721
  844SOL    HW2 2554   0.416   3.740   2.712
  845SOL     OW 2555   1.795   2.928   2.735
  845SOL    HW1 2556   1.733   2.913   2.659
  845SOL    HW2 2557   1.743   2.939   2.820
  846SOL     OW 2558   1.227   3.412   3.368
  846SOL    HW1 2559   1.233   3.335   3.432
  846SOL    HW2 2560   1.175   3.386   3.288
  847SOL     OW 2561   0.321   2.805   2.104
  847SOL    HW1 2562   0.403   2.844   2.062
  847SOL    HW2 2563   0.294   2.723   2.055
  848SOL     OW 2564   1.458   2.597   2.590
  848SOL    HW1 2565   1.453   2.532   2.665
  848SOL    HW2 2566   1.538   2.656   2.603
  849SOL     OW 2567   0.461   3.128   3.589
  849SOL    HW1 2568   0.411   3.129   3.503
  849SOL    HW2 2569   0.398   3.110   3.665
  850SOL     OW 2570   1.111   3.638   2.099
  850SOL    HW1 2571   1.051   3.576   2.149
  850SOL    HW2 2572   1.142   3.594   2.014
  851SOL     OW 2573   0.202   2.147   3.360
  851SOL    HW1 2574   0.122   2.207   3.347
  851SOL    HW2 2575   0.192   2.098   3.446
  852SOL     OW 2576   1.632   3.239   1.943
  852SOL    HW1 2577   1.600   3.333   1.933
  852SOL    HW2 2578   1.556   3.176   1.931
  853SOL     OW 2579   0.464   3.605   2.185
  853SOL    HW1 2580   0.497   3.644   2.271
  853SOL    HW2 2581   0.540   3.598   2.120
  854SOL     OW 2582   1.400   1.969   2.288
  854SOL    HW1 2583   1.376   1.932   2.198
  854SOL    HW2 2584   1.499   1.985   2.292
  855SOL     OW 2585   0.249   3.647   3.103
  855SOL    HW1 2586   0.306   3.582   3.153
  855SOL    HW2 2587   0.233   3.614   3.010
  856SOL     OW 2588   0.940   3.560   2.766
  856SOL    HW1 2589   1.020   3.503   2.787
  856SOL    HW2 2590   0.891   3.520   2.689
  857SOL     OW 2591   0.382   2.562   2.342
  857SOL    HW1 2592   0.427   2.472   2.339
  857SOL    HW2 2593   0.288   2.551   2.375
  858SOL     OW 2594   1.547   2.084   3.591
  858SOL    HW1 2595   1.542   2.121   3.683
  858SOL    HW2 2596   1.475   2.015   3.579
  859SOL     OW 2597   0.614   1.984   1.979
  859SOL    HW1 2598   0.712   1.962   1.986
  859SOL    HW2 2599   0.583   1.967   1.886
  860SOL     OW 2600   0.781   2.126   3.611
  860SOL    HW1 2601   0.848   2.065   3.654
  860SOL    HW2 2602   0.708   2.145   3.676
  861SOL     OW 2603   0.888   3.376   3.057
  861SOL    HW1 2604   0.865   3.351   2.963
  861SOL    HW2 2605   0.949   3.307   3.096
  862SOL     OW 2606   1.351   2.452   3.295
  862SOL    HW1 2607   1.379   2.409   3.380
  862SOL    HW2 2608   1.376   2.548   3.296
  863SOL     OW 2609   0.803   3.264   2.786
  863SOL    HW1 2610   0.893   3.278   2.744
  863SOL    HW2 2611   0.732   3.266   2.715
  864SOL     OW 2612   0.922   2.365   2.761
  864SOL    HW1 2613   0.897   2.356   2.665
  864SOL    HW2 2614   0.970   2.283   2.792
  865SOL     OW 2615   0.539   1.926   2.374
  865SOL    HW1 2616   0.458   1.927   2.432
  865SOL    HW2 2617   0.542   2.009   2.319
  866SOL     OW 2618   1.434   3.050   1.903
  866SOL    HW1 2619   1.466   2.974   1.960
  866SOL    HW2 2620   1.342   3.077   1.933
  867SOL     OW 2621   0.297   1.897   2.033
  867SOL    HW1 2622   0.346   1.981   2.012
  867SOL    HW2 2623   0.359   1.832   2.078
  868SOL     OW 2624   0.935   2.098   2.342
  868SOL    HW1 2625   0.887   2.139   2.264
  868SOL    HW2 2626   1.034   2.096   2.323
  869SOL     OW 2627   1.076   2.545   3.326
  869SOL    HW1 2628   0.996   2.484   3.329
  869SOL    HW2 2629   1.157   2.492   3.302
  870SOL     OW 2630   1.227   3.432   2.655
  870SOL    HW1 2631   1.248   3.506   2.590
  870SOL    HW2 2632   1.295   3.432   2.728
  871SOL     OW 2633   0.459   3.014   2.603
  871SOL    HW1 2634   0.388   2.987   2.668
  871SOL    HW2 2635   0.433   2.986   2.510
  872SOL     OW 2636   1.271   3.659   2.453
  872SOL    HW1 2637   1.315   3.723   2.389
  872SOL    HW2 2638   1.221   3.711   2.523
  873SOL     OW 2639   1.032   2.411   1.878
  873SOL    HW1 2640   0.991   2.493   1.839
  873SOL    HW2 2641   1.096   2.437   1.951
  874SOL     OW 2642   0.078   2.418   3.248
  874SOL    HW1 2643   0.170   2.417   3.207
  874SOL    HW2 2644   0.072   2.492   3.315
  875SOL     OW 2645   0.561   2.084   3.009
  875SOL    HW1 2646   0.599   2.000   3.046
  875SOL    HW2 2647   0.473   2.103   3.053
  876SOL     OW 2648   0.866   2.316   2.504
  876SOL    HW1 2649   0.834   2.388   2.442
  876SOL    HW2 2650   0.890   2.235   2.451
  877SOL     OW 2651   1.017   1.901   2.615
  877SOL    HW1 2652   0.945   1.906   2.546
  877SOL    HW2 2653   0.993   1.832   2.684
  878SOL     OW 2654   1.429   3.035   2.729
  878SOL    HW1 2655   1.374   2.951   2.722
  878SOL    HW2 2656   1.455   3.064   2.637
  879SOL     OW 2657   1.466   2.452   2.854
  879SOL    HW1 2658   1.436   2.357   2.861
  879SOL    HW2 2659   1.539   2.468   2.920
  880SOL     OW 2660   1.857   2.695   2.239
  880SOL    HW1 2661   1.899   2.631   2.303
  880SOL    HW2 2662   1.819   2.644   2.161
  881SOL     OW 2663   0.488   3.247   2.036
  881SOL    HW1 2664   0.401   3.232   2.083
  881SOL    HW2 2665   0.471   3.273   1.941
  882SOL     OW 2666   1.664   3.142   2.519
  882SOL    HW1 2667   1.763   3.150   2.533
  882SOL    HW2 2668   1.619   3.226   2.550
  883SOL     OW 2669   1.390   2.437   1.940
  883SOL    HW1 2670   1.336   2.416   2.021
  883SOL    HW2 2671   1.481   2.396   1.949
  884SOL     OW 2672   0.527   2.118   2.190
  884SOL    HW1 2673   0.554   2.059   2.115
  884SOL    HW2 2674   0.527   2.213   2.159
  885SOL     OW 2675   1.754   3.085   3.450
  885SOL    HW1 2676   1.845   3.046   3.437
  885SOL    HW2 2677   1.762   3.181   3.474
  886SOL     OW 2678   1.064   3.209   3.202
  886SOL    HW1 2679   0.984   3.186   3.257
  886SOL    HW2 2680   1.147   3.183   3.251
  887SOL     OW 2681   1.592   3.491   3.487
  887SOL    HW1 2682   1.619   3.525   3.397
  887SOL    HW2 2683   1.671   3.453   3.533
  888SOL     OW 2684   1.111   3.057   2.962
  888SOL    HW1 2685   1.071   3.101   3.043
  888SOL    HW2 2686   1.070   3.094   2.879
  889SOL     OW 2687   1.638   2.961   2.941
  889SOL    HW1 2688   1.643   3.042   3.000
  889SOL    HW2 2689   1.552   2.963   2.890
  890SOL     OW 2690   0.915   1.951   3.264
  890SOL    HW1 2691   0.940   1.931   3.169
  890SOL    HW2 2692   0.987   2.007   3.306
  891SOL     OW 2693   0.980   2.978   3.581
  891SOL    HW1 2694   0.881   2.984   3.591
  891SOL    HW2 2695   1.003   2.898   3.525
  892SOL     OW 2696   0.705   2.912   2.230
  892SOL    HW1 2697   0.691   2.919   2.329
  892SOL    HW2 2698   0.789   2.861   2.212
  893SOL     OW 2699   0.410   2.675   3.113
  893SOL    HW1 2700   0.496   2.687   3.163
  893SOL    HW2 2701   0.368   2.588   3.140
  894SOL     OW 2702   1.274   2.248   3.124
  894SOL    HW1 2703   1.295   2.322   3.188
  894SOL    HW2 2704   1.185   2.265   3.081
  895SOL     OW 2705   0.064   3.426   3.193
  895SOL    HW1 2706   0.018   3.508   3.159
  895SOL    HW2 2707   0.162   3.445   3.202
  896SOL     OW 2708   0.367   2.962   2.363
  896SOL    HW1 2709   0.360   3.045   2.307
  896SOL    HW2 2710   0.371   2.882   2.303
  897SOL     OW 2711   0.566   2.399   2.727
  897SOL    HW1 2712   0.578   2.465   2.653
  897SOL    HW2 2713   0.612   2.433   2.810
  898SOL     OW 2714   1.252   3.210   2.250
  898SOL    HW1 2715   1.302   3.287   2.290
  898SOL    HW2 2716   1.157   3.212   2.282
  899SOL     OW 2717   1.272   3.307   3.004
  899SOL    HW1 2718   1.319   3.320   3.091
  899SOL    HW2 2719   1.206   3.233   3.013
  900SOL     OW 2720   1.582   2.501   2.334
  900SOL    HW1 2721   1.551   2.562   2.407
  900SOL    HW2 2722   1.632   2.553   2.265
  901SOL     OW 2723   0.354   3.372   3.191
  901SOL    HW1 2724   0.333   3.328   3.104
  901SOL    HW2 2725   0.451   3.398   3.194
  902SOL     OW 2726   0.402   2.613   3.460
  902SOL    HW1 2727   0.470   2.668   3.413
  902SOL    HW2 2728   0.442   2.525   3.487
  903SOL     OW 2729   1.587   2.641   3.532
  903SOL    HW1 2730   1.495   2.679   3.527
  903SOL    HW2 2731   1.647   2.688   3.467
  904SOL     OW 2732   1.013   1.967   3.632
  904SOL    HW1 2733   1.019   2.052   3.580
  904SOL    HW2 2734   1.045   1.891   3.575
  905SOL     OW 2735   0.504   1.912   3.602
  905SOL    HW1 2736   0.462   1.855   3.532
  905SOL    HW2 2737   0.438   1.981   3.634
  906SOL     OW 2738   0.573   2.732   2.891
  906SOL    HW1 2739   0.617   2.821   2.882
  906SOL    HW2 2740   0.510   2.732   2.968
  907SOL     OW 2741   1.360   2.724   2.907
  907SOL    HW1 2742   1.285   2.724   2.841
  907SOL    HW2 2743   1.397   2.632   2.916
  908SOL     OW 2744   1.209   2.387   2.137
  908SOL    HW1 2745   1.222   2.303   2.191
  908SOL    HW2 2746   1.180   2.461   2.197
  909SOL     OW 2747   0.307   2.075   3.093
  909SOL    HW1 2748   0.284   2.112   3.183
  909SOL    HW2 2749   0.277   1.980   3.087
  910SOL     OW 2750   0.037   3.172   3.144
  910SOL    HW1 2751   0.090   3.123   3.212
  910SOL    HW2 2752   0.059   3.270   3.149
  911SOL     OW 2753   0.732   2.496   2.926
  911SOL    HW1 2754   0.791   2.470   2.850
  911SOL    HW2 2755   0.704   2.592   2.915
  912SOL     OW 2756   1.728   2.797   3.716
  912SOL    HW1 2757   1.682   2.790   3.627
  912SOL    HW2 2758   1.666   2.841   3.782
  913SOL     OW 2759   0.307   1.925   2.480
  913SOL    HW1 2760   0.296   2.019   2.513
  913SOL    HW2 2761   0.302   1.862   2.557
  914SOL     OW 2762   1.622   2.229   2.236
  914SOL    HW1 2763   1.624   2.153   2.300
  914SOL    HW2 2764   1.574   2.306   2.276
  915SOL     OW 2765   1.023   2.628   2.828
  915SOL    HW1 2766   1.038   2.649   2.924
  915SOL    HW2 2767   0.993   2.533   2.819
  916SOL     OW 2768   0.980   3.435   3.562
  916SOL    HW1 2769   0.960   3.479   3.474
  916SOL    HW2 2770   1.019   3.344   3.546
  917SOL     OW 2771   1.859   3.380   3.467
  917SOL    HW1 2772   1.873   3.407   3.372
  917SOL    HW2 2773   1.942   3.402   3.520
  918SOL     OW 2774   0.350   2.760   3.666
  918SOL    HW1 2775   0.426   2.804   3.714
  918SOL    HW2 2776   0.385   2.713   3.584
  919SOL     OW 2777   1.540   2.136   1.987
  919SOL    HW1 2778   1.479   2.061   2.010
  919SOL    HW2 2779   1.562   2.188   2.070
  920SOL     OW 2780   1.303   2.700   1.904
  920SOL    HW1 2781   1.337   2.607   1.919
  920SOL    HW2 2782   1.321   2.727   1.809
  921SOL     OW 2783   1.068   3.195   2.711
  921SOL    HW1 2784   1.075   3.111   2.656
  921SOL    HW2 2785   1.130   3.264   2.675
  922SOL     OW 2786   0.319   2.672   2.811
  922SOL    HW1 2787   0.412   2.708   2.816
  922SOL    HW2 2788   0.313   2.587   2.863
  923SOL     OW 2789   0.339   2.371   2.868
  923SOL    HW1 2790   0.287   2.288   2.851
  923SOL    HW2 2791   0.416   2.376   2.804
  924SOL     OW 2792   1.138   2.242   3.540
  924SOL    HW1 2793   1.093   2.305   3.604
  924SOL    HW2 2794   1.231   2.273   3.523
  925SOL     OW 2795   1.160   2.069   3.339
  925SOL    HW1 2796   1.160   2.133   3.416
  925SOL    HW2 2797   1.188   2.117   3.256
  926SOL     OW 2798   0.008   3.188   2.062
  926SOL    HW1 2799  -0.085   3.209   2.031
  926SOL    HW2 2800   0.018   3.089   2.075
  927SOL     OW 2801   0.088   3.663   2.789
  927SOL    HW1 2802   0.046   3.577   2.762
  927SOL    HW2 2803   0.182   3.666   2.755
  928SOL     OW 2804   0.504   3.430   2.772
  928SOL    HW1 2805   0.570   3.504   2.781
  928SOL    HW2 2806   0.548   3.351   2.730
  929SOL     OW 2807   1.002   2.658   3.100
  929SOL    HW1 2808   1.043   2.626   3.186
  929SOL    HW2 2809   0.906   2.631   3.097
  930SOL     OW 2810   0.040   2.406   2.976
  930SOL    HW1 2811   0.125   2.373   2.935
  930SOL    HW2 2812   0.053   2.421   3.074
  931SOL     OW 2813   0.189   2.382   3.584
  931SOL    HW1 2814   0.248   2.342   3.514
  931SOL    HW2 2815   0.131   2.453   3.543
  932SOL     OW 2816   1.369   2.812   3.522
  932SOL    HW1 2817   1.408   2.901   3.542
  932SOL    HW2 2818   1.379   2.792   3.425
  933SOL     OW 2819   0.815   2.434   2.187
  933SOL    HW1 2820   0.822   2.345   2.141
  933SOL    HW2 2821   0.721   2.468   2.179
  934SOL     OW 2822   1.657   2.466   3.068
  934SOL    HW1 2823   1.619   2.397   3.130
  934SOL    HW2 2824   1.739   2.430   3.024
  935SOL     OW 2825   0.252   3.426   3.606
  935SOL    HW1 2826   0.222   3.483   3.682
  935SOL    HW2 2827   0.245   3.329   3.632
  936SOL     OW 2828   0.671   2.326   3.131
  936SOL    HW1 2829   0.637   2.237   3.101
  936SOL    HW2 2830   0.697   2.380   3.051
  937SOL     OW 2831   0.930   3.540   3.327
  937SOL    HW1 2832   0.906   3.522   3.232
  937SOL    HW2 2833   0.960   3.634   3.337
  938SOL     OW 2834   0.473   2.362   2.053
  938SOL    HW1 2835   0.534   2.442   2.057
  938SOL    HW2 2836   0.378   2.393   2.060
  939SOL     OW 2837   0.159   2.999   3.328
  939SOL    HW1 2838   0.181   2.938   3.404
  939SOL    HW2 2839   0.169   2.950   3.242
  940SOL     OW 2840   1.347   2.921   3.096
  940SOL    HW1 2841   1.371   2.858   3.022
  940SOL    HW2 2842   1.257   2.961   3.078
  941SOL     OW 2843   1.302   2.717   2.171
  941SOL    HW1 2844   1.216   2.686   2.213
  941SOL    HW2 2845   1.298   2.703   2.072
  942SOL     OW 2846   1.759   3.609   3.016
  942SOL    HW1 2847   1.820   3.639   2.943
  942SOL    HW2 2848   1.721   3.520   2.994
  943SOL     OW 2849   1.252   3.593   2.990
  943SOL    HW1 2850   1.336   3.598   2.936
  943SOL    HW2 2851   1.229   3.497   3.008
  944SOL     OW 2852   0.083   3.120   2.884
  944SOL    HW1 2853   0.078   3.119   2.984
  944SOL    HW2 2854   0.000   3.079   2.846
  945SOL     OW 2855   0.688   3.524   3.578
  945SOL    HW1 2856   0.632   3.605   3.587
  945SOL    HW2 2857   0.740   3.528   3.492
  946SOL     OW 2858   1.726   1.997   2.385
  946SOL    HW1 2859   1.799   1.980   2.318
  946SOL    HW2 2860   1.695   1.910   2.423
  947SOL     OW 2861   1.388   3.435   2.339
  947SOL    HW1 2862   1.455   3.447   2.265
  947SOL    HW2 2863   1.348   3.524   2.362
  948SOL     OW 2864   0.130   3.656   3.713
  948SOL    HW1 2865   0.089   3.582   3.766
  948SOL    HW2 2866   0.194   3.707   3.771
  949SOL     OW 2867   1.280   2.789   2.534
  949SOL    HW1 2868   1.340   2.708   2.536
  949SOL    HW2 2869   1.320   2.858   2.474
  950SOL     OW 2870   0.830   3.135   3.284
  950SOL    HW1 2871   0.825   3.168   3.379
  950SOL    HW2 2872   0.744   3.154   3.238
  951SOL     OW 2873   0.672   3.478   2.016
  951SOL    HW1 2874   0.681   3.488   1.917
  951SOL    HW2 2875   0.632   3.389   2.037
  952SOL     OW 2876   1.650   3.582   3.256
  952SOL    HW1 2877   1.703   3.592   3.172
  952SOL    HW2 2878   1.623   3.672   3.290
  953SOL     OW 2879   1.841   2.037   2.825
  953SOL    HW1 2880   1.880   1.952   2.789
  953SOL    HW2 2881   1.743   2.039   2.806
  954SOL     OW 2882   0.263   2.188   2.582
  954SOL    HW1 2883   0.184   2.239   2.548
  954SOL    HW2 2884   0.254   2.173   2.680
  955SOL     OW 2885   1.194   3.474   1.893
  955SOL    HW1 2886   1.200   3.381   1.930
  955SOL    HW2 2887   1.135   3.474   1.813
  956SOL     OW 2888   0.822   2.864   3.234
  956SOL    HW1 2889   0.862   2.863   3.142
  956SOL    HW2 2890   0.832   2.956   3.274
  957SOL     OW 2891   0.916   2.772   2.153
  957SOL    HW1 2892   0.979   2.810   2.085
  957SOL    HW2 2893   0.956   2.689   2.192
  958SOL     OW 2894   1.504   3.469   1.906
  958SOL    HW1 2895   1.412   3.506   1.913
  958SOL    HW2 2896   1.542   3.489   1.816
  959SOL     OW 2897   0.372   3.150   3.352
  959SOL    HW1 2898   0.359   3.243   3.318
  959SOL    HW2 2899   0.288   3.098   3.339
  960SOL     OW 2900   1.614   3.154   3.151
  960SOL    HW1 2901   1.674   3.157   3.231
  960SOL    HW2 2902   1.539   3.218   3.164
  961SOL     OW 2903   1.039   2.960   2.558
  961SOL    HW1 2904   0.969   2.913   2.612
  961SOL    HW2 2905   1.098   2.892   2.515
  962SOL     OW 2906   1.014   2.098   2.833
  962SOL    HW1 2907   1.006   2.062   2.740
  962SOL    HW2 2908   1.012   2.022   2.898
  963SOL     OW 2909   0.590   3.349   2.353
  963SOL    HW1 2910   0.632   3.291   2.283
  963SOL    HW2 2911   0.546   3.428   2.309
  964SOL     OW 2912   1.709   2.247   3.243
  964SOL    HW1 2913   1.782   2.316   3.247
  964SOL    HW2 2914   1.737   2.172   3.184
  965SOL     OW 2915   0.255   3.210   2.152
  965SOL    HW1 2916   0.159   3.211   2.125
  965SOL    HW2 2917   0.267   3.263   2.236
  966SOL     OW 2918   0.105   2.875   3.588
  966SOL    HW1 2919   0.028   2.842   3.642
  966SOL    HW2 2920   0.190   2.845   3.630
  967SOL     OW 2921   0.672   2.065   3.351
  967SOL    HW1 2922   0.762   2.049   3.311
  967SOL    HW2 2923   0.680   2.070   3.450
  968SOL     OW 2924   0.075   2.207   1.895
  968SOL    HW1 2925  -0.017   2.179   1.866
  968SOL    HW2 2926   0.106   2.284   1.839
  969SOL     OW 2927   1.440   2.718   3.260
  969SOL    HW1 2928   1.383   2.770   3.197
  969SOL    HW2 2929   1.536   2.730   3.236
  970SOL     OW 2930   0.072   2.028   2.180
  970SOL    HW1 2931   0.055   2.111   2.126
  970SOL    HW2 2932   0.162   1.991   2.158
  971SOL     OW 2933   1.183   3.197   1.981
  971SOL    HW1 2934   1.084   3.186   1.983
  971SOL    HW2 2935   1.217   3.212   2.074
  972SOL     OW 2936   0.613   2.704   3.293
  972SOL    HW1 2937   0.669   2.785   3.276
  972SOL    HW2 2938   0.672   2.624   3.296
  973SOL     OW 2939   1.493   3.629   2.821
  973SOL    HW1 2940   1.526   3.693   2.752
  973SOL    HW2 2941   1.559   3.623   2.896
  974SOL     OW 2942   0.716   2.427   3.570
  974SOL    HW1 2943   0.735   2.492   3.644
  974SOL    HW2 2944   0.776   2.347   3.579
  975SOL     OW 2945   1.450   3.082   3.495
  975SOL    HW1 2946   1.441   3.072   3.594
  975SOL    HW2 2947   1.546   3.075   3.469
  976SOL     OW 2948   0.390   3.603   3.422
  976SOL    HW1 2949   0.299   3.644   3.420
  976SOL    HW2 2950   0.383   3.509   3.454
  977SOL     OW 2951   1.674   2.745   3.116
  977SOL    HW1 2952   1.647   2.656   3.079
  977SOL    HW2 2953   1.675   2.813   3.043
  978SOL     OW 2954   1.225   2.187   2.311
  978SOL    HW1 2955   1.290   2.113   2.300
  978SOL    HW2 2956   1.245   2.237   2.395
  979SOL     OW 2957   0.594   2.607   2.514
  979SOL    HW1 2958   0.644   2.692   2.495
  979SOL    HW2 2959   0.506   2.609   2.466
  980SOL     OW 2960   1.777   2.204   3.504
  980SOL    HW1 2961   1.760   2.235   3.410
  980SOL    HW2 2962   1.693   2.167   3.542
  981SOL     OW 2963   1.730   2.796   3.379
  981SOL    HW1 2964   1.768   2.887   3.394
  981SOL    HW2 2965   1.722   2.779   3.280
  982SOL     OW 2966   0.859   3.236   1.878
  982SOL    HW1 2967   0.813   3.251   1.966
  982SOL    HW2 2968   0.903   3.321   1.848
  983SOL     OW 2969   0.661   3.652   2.815
  983SOL    HW1 2970   0.615   3.740   2.802
  983SOL    HW2 2971   0.760   3.664   2.808
  984SOL     OW 2972   0.859   2.818   2.723
  984SOL    HW1 2973   0.913   2.749   2.771
  984SOL    HW2 2974   0.827   2.887   2.789
  985SOL     OW 2975   1.083   2.846   1.949
  985SOL    HW1 2976   1.060   2.899   1.867
  985SOL    HW2 2977   1.164   2.790   1.930
  986SOL     OW 2978   1.861   3.431   2.713
  986SOL    HW1 2979   1.790   3.419   2.643
  986SOL    HW2 2980   1.862   3.352   2.773
  987SOL     OW 2981   0.221   3.176   3.706
  987SOL    HW1 2982   0.156   3.103   3.685
  987SOL    HW2 2983   0.225   3.190   3.804
  988SOL     OW 2984   0.079   3.102   2.515
  988SOL    HW1 2985   0.078   3.055   2.603
  988SOL    HW2 2986   0.161   3.074   2.464
  989SOL     OW 2987   0.672   3.253   3.486
  989SOL    HW1 2988   0.594   3.203   3.524
  989SOL    HW2 2989   0.669   3.348   3.517
  990SOL     OW 2990   1.824   2.054   3.089
  990SOL    HW1 2991   1.820   1.964   3.133
  990SOL    HW2 2992   1.827   2.043   2.990
  991SOL     OW 2993   0.428   2.286   2.382
  991SOL    HW1 2994   0.458   2.214   2.320
  991SOL    HW2 2995   0.389   2.246   2.465
  992SOL     OW 2996   1.705   3.349   2.966
  992SOL    HW1 2997   1.612   3.324   2.939
  992SOL    HW2 2998   1.731   3.299   3.048
  993SOL     OW 2999   0.317   2.409   3.142
  993SOL    HW1 3000   0.355   2.350   3.214
  993SOL    HW2 3001   0.357   2.383   3.054
  994SOL     OW 3002   0.812   3.448   2.549
  994SOL    HW1 3003   0.844   3.458   2.455
  994SOL    HW2 3004   0.733   3.386   2.551
  995SOL     OW 3005   1.424   2.076   2.974
  995SOL    HW1 3006   1.476   2.011   3.029
  995SOL    HW2 3007   1.375   2.139   3.035
  996SOL     OW 3008   1.001   1.896   3.016
  996SOL    HW1 3009   0.938   1.824   2.985
  996SOL    HW2 3010   1.094   1.860   3.016
  997SOL     OW 3011   0.770   3.192   2.163
  997SOL    HW1 3012   0.724   3.105   2.180
  997SOL    HW2 3013   0.861   3.189   2.204
  998SOL     OW 3014   0.618   3.429   3.146
  998SOL    HW1 3015   0.613   3.511   3.203
  998SOL    HW2 3016   0.707   3.426   3.101
  999SOL     OW 3017   1.352   1.914   2.030
  999SOL    HW1 3018   1.387   1.873   1.946
  999SOL    HW2 3019   1.262   1.876   2.050
 1000SOL     OW 3020   1.300   2.315   2.553
 1000SOL    HW1 3021   1.241   2.395   2.557
 1000SOL    HW2 3022   1.315   2.280   2.646
 1001SOL     OW 3023   1.593   2.083   2.744
 1001SOL    HW1 3024   1.509   2.082   2.798
 1001SOL    HW2 3025   1.595   2.166   2.688
 1002SOL     OW 3026   0.039   2.939   2.162
 1002SOL    HW1 3027   0.138   2.928   2.153
 1002SOL    HW2 3028  -0.001   2.853   2.194
 1003SOL     OW 3029   0.875   3.508   2.199
 1003SOL    HW1 3030   0.798   3.473   2.145
 1003SOL    HW2 3031   0.843   3.579   2.261
 1004SOL     OW 3032   0.230   2.490   3.837
 1004SOL    HW1 3033   0.137   2.488   3.874
 1004SOL    HW2 3034   0.231   2.451   3.745
 1005SOL     OW 3035   0.225   2.137   4.720
 1005SOL    HW1 3036   0.260   2.120   4.812
 1005SOL    HW2 3037   0.137   2.092   4.708
 1006SOL     OW 3038   0.019   2.230   4.371
 1006SOL    HW1 3039  -0.063   2.273   4.410
 1006SOL    HW2 3040  -0.009   2.157   4.308
 1007SOL     OW 3041   0.569   3.137   4.889
 1007SOL    HW1 3042   0.476   3.130   4.852
 1007SOL    HW2 3043   0.580   3.226   4.933
 1008SOL     OW 3044   1.555   3.373   4.427
 1008SOL    HW1 3045   1.498   3.357   4.508
 1008SOL    HW2 3046   1.496   3.383   4.347
 1009SOL     OW 3047   1.135   2.565   4.441
 1009SOL    HW1 3048   1.192   2.643   4.416
 1009SOL    HW2 3049   1.075   2.591   4.517
 1010SOL     OW 3050   1.755   2.469   3.955
 1010SOL    HW1 3051   1.743   2.456   3.856
 1010SOL    HW2 3052   1.725   2.388   4.004
 1011SOL     OW 3053   0.768   3.006   4.747
 1011SOL    HW1 3054   0.690   3.023   4.807
 1011SOL    HW2 3055   0.802   3.093   4.711
 1012SOL     OW 3056   0.685   2.874   4.389
 1012SOL    HW1 3057   0.754   2.858   4.459
 1012SOL    HW2 3058   0.612   2.931   4.427
 1013SOL     OW 3059   0.335   3.297   4.785
 1013SOL    HW1 3060   0.257   3.266   4.732
 1013SOL    HW2 3061   0.393   3.355   4.728
 1014SOL     OW 3062   1.603   2.309   4.461
 1014SOL    HW1 3063   1.529   2.355   4.411
 1014SOL    HW2 3064   1.654   2.377   4.514
 1015SOL     OW 3065   0.231   3.575   4.207
 1015SOL    HW1 3066   0.265   3.652   4.261
 1015SOL    HW2 3067   0.275   3.575   4.117
 1016SOL     OW 3068   0.230   3.296   4.262
 1016SOL    HW1 3069   0.204   3.392   4.262
 1016SOL    HW2 3070   0.159   3.242   4.307
 1017SOL     OW 3071   0.240   2.953   4.610
 1017SOL    HW1 3072   0.254   2.869   4.662
 1017SOL    HW2 3073   0.185   3.017   4.665
 1018SOL     OW 3074   0.606   2.826   3.847
 1018SOL    HW1 3075   0.613   2.910   3.793
 1018SOL    HW2 3076   0.652   2.839   3.935
 1019SOL     OW 3077   0.122   2.505   4.287
 1019SOL    HW1 3078   0.077   2.417   4.304
 1019SOL    HW2 3079   0.121   2.559   4.371
 1020SOL     OW 3080   1.842   3.629   4.083
 1020SOL    HW1 3081   1.896   3.600   4.163
 1020SOL    HW2 3082   1.872   3.719   4.054
 1021SOL     OW 3083   0.027   3.458   3.841
 1021SOL    HW1 3084   0.008   3.362   3.862
 1021SOL    HW2 3085  -0.006   3.516   3.916
 1022SOL     OW 3086   1.689   2.784   4.336
 1022SOL    HW1 3087   1.784   2.755   4.344
 1022SOL    HW2 3088   1.681   2.849   4.261
 1023SOL     OW 3089   1.641   2.970   4.156
 1023SOL    HW1 3090   1.727   2.972   4.104
 1023SOL    HW2 3091   1.655   3.017   4.244
 1024SOL     OW 3092   0.113   2.599   5.321
 1024SOL    HW1 3093   0.201   2.586   5.366
 1024SOL    HW2 3094   0.100   2.696   5.299
 1025SOL     OW 3095   0.613   3.227   4.450
 1025SOL    HW1 3096   0.564   3.140   4.459
 1025SOL    HW2 3097   0.590   3.270   4.363
 1026SOL     OW 3098   0.809   1.866   4.226
 1026SOL    HW1 3099   0.849   1.957   4.217
 1026SOL    HW2 3100   0.709   1.874   4.232
 1027SOL     OW 3101   0.197   2.838   4.988
 1027SOL    HW1 3102   0.286   2.793   4.974
 1027SOL    HW2 3103   0.124   2.773   4.969
 1028SOL     OW 3104   1.525   2.861   3.914
 1028SOL    HW1 3105   1.462   2.785   3.927
 1028SOL    HW2 3106   1.573   2.879   4.000
 1029SOL     OW 3107   1.466   3.279   4.677
 1029SOL    HW1 3108   1.407   3.285   4.757
 1029SOL    HW2 3109   1.451   3.191   4.631
 1030SOL     OW 3110   1.667   3.576   4.296
 1030SOL    HW1 3111   1.626   3.553   4.208
 1030SOL    HW2 3112   1.649   3.502   4.361
 1031SOL     OW 3113   0.598   2.591   3.994
 1031SOL    HW1 3114   0.622   2.660   3.926
 1031SOL    HW2 3115   0.520   2.624   4.048
 1032SOL     OW 3116   1.281   2.207   4.668
 1032SOL    HW1 3117   1.195   2.157   4.655
 1032SOL    HW2 3118   1.343   2.153   4.724
 1033SOL     OW 3119   1.576   3.524   4.031
 1033SOL    HW1 3120   1.665   3.570   4.034
 1033SOL    HW2 3121   1.555   3.500   3.936
 1034SOL     OW 3122   1.041   2.563   4.153
 1034SOL    HW1 3123   1.067   2.559   4.249
 1034SOL    HW2 3124   0.956   2.512   4.139
 1035SOL     OW 3125   0.076   2.673   4.513
 1035SOL    HW1 3126   0.175   2.661   4.522
 1035SOL    HW2 3127   0.052   2.768   4.534
 1036SOL     OW 3128   0.130   3.683   5.295
 1036SOL    HW1 3129   0.120   3.668   5.394
 1036SOL    HW2 3130   0.044   3.719   5.259
 1037SOL     OW 3131   0.865   2.210   3.919
 1037SOL    HW1 3132   0.924   2.273   3.870
 1037SOL    HW2 3133   0.884   2.116   3.890
 1038SOL     OW 3134   1.362   3.006   4.269
 1038SOL    HW1 3135   1.445   2.977   4.221
 1038SOL    HW2 3136   1.313   3.073   4.213
 1039SOL     OW 3137   0.550   2.058   4.609
 1039SOL    HW1 3138   0.545   2.053   4.709
 1039SOL    HW2 3139   0.552   2.154   4.580
 1040SOL     OW 3140   1.008   3.318   4.201
 1040SOL    HW1 3141   0.962   3.390   4.149
 1040SOL    HW2 3142   1.004   3.338   4.299
 1041SOL     OW 3143   0.351   3.663   4.577
 1041SOL    HW1 3144   0.401   3.577   4.583
 1041SOL    HW2 3145   0.416   3.740   4.574
 1042SOL     OW 3146   1.795   2.928   4.597
 1042SOL    HW1 3147   1.733   2.913   4.521
 1042SOL    HW2 3148   1.743   2.939   4.682
 1043SOL     OW 3149   0.321   2.805   3.966
 1043SOL    HW1 3150   0.403   2.844   3.924
 1043SOL    HW2 3151   0.294   2.723   3.917
 1044SOL     OW 3152   1.458   2.597   4.452
 1044SOL    HW1 3153   1.453   2.532   4.527
 1044SOL    HW2 3154   1.538   2.656   4.465
 1045SOL     OW 3155   1.111   3.638   3.961
 1045SOL    HW1 3156   1.051   3.576   4.011
 1045SOL    HW2 3157   1.142   3.594   3.876
 1046SOL     OW 3158   1.632   3.239   3.805
 1046SOL    HW1 3159   1.600   3.333   3.795
 1046SOL    HW2 3160   1.556   3.176   3.793
 1047SOL     OW 3161   0.464   3.605   4.047
 1047SOL    HW1 3162   0.497   3.644   4.133
 1047SOL    HW2 3163   0.540   3.598   3.982
 1048SOL     OW 3164   1.400   1.969   4.150
 1048SOL    HW1 3165   1.376   1.932   4.060
 1048SOL    HW2 3166   1.499   1.985   4.154
 1049SOL     OW 3167   0.249   3.647   4.965
 1049SOL    HW1 3168   0.306   3.582   5.015
 1049SOL    HW2 3169   0.233   3.614   4.872
 1050SOL     OW 3170   0.940   3.560   4.628
 1050SOL    HW1 3171   1.020   3.503   4.649
 1050SOL    HW2 3172   0.891   3.520   4.551
 1051SOL     OW 3173   0.382   2.562   4.204
 1051SOL    HW1 3174   0.427   2.472   4.201
 1051SOL    HW2 3175   0.288   2.551   4.237
 1052SOL     OW 3176   0.614   1.984   3.841
 1052SOL    HW1 3177   0.712   1.962   3.848
 1052SOL    HW2 3178   0.583   1.967   3.748
 1053SOL     OW 3179   0.803   3.264   4.648
 1053SOL    HW1 3180   0.893   3.278   4.606
 1053SOL    HW2 3181   0.732   3.266   4.577
 1054SOL     OW 3182   0.922   2.365   4.623
 1054SOL    HW1 3183   0.897   2.356   4.527
 1054SOL    HW2 3184   0.970   2.283   4.654
 1055SOL     OW 3185   0.539   1.926   4.236
 1055SOL    HW1 3186   0.458   1.927   4.294
 1055SOL    HW2 3187   0.542   2.009   4.181
 1056SOL     OW 3188   1.434   3.050   3.765
 1056SOL    HW1 3189   1.466   2.974   3.822
 1056SOL    HW2 3190   1.342   3.077   3.795
 1057SOL     OW 3191   0.297   1.897   3.895
 1057SOL    HW1 3192   0.346   1.981   3.874
 1057SOL    HW2 3193   0.359   1.832   3.940
 1058SOL     OW 3194   0.935   2.098   4.204
 1058SOL    HW1 3195   0.887   2.139   4.126
 1058SOL    HW2 3196   1.034   2.096   4.185
 1059SOL     OW 3197   1.227   3.432   4.517
 1059SOL    HW1 3198   1.248   3.506   4.452
 1059SOL    HW2 3199   1.295   3.432   4.590
 1060SOL     OW 3200   0.459   3.014   4.465
 1060SOL    HW1 3201   0.388   2.987   4.530
 1060SOL    HW2 3202   0.433   2.986   4.372
 1061SOL     OW 3203   1.271   3.659   4.315
 1061SOL    HW1 3204   1.315   3.723   4.251
 1061SOL    HW2 3205   1.221   3.711   4.385
 1062SOL     OW 3206   1.032   2.411   3.740
 1062SOL    HW1 3207   0.991   2.493   3.701
 1062SOL    HW2 3208   1.096   2.437   3.813
 1063SOL     OW 3209   0.561   2.084   4.871
 1063SOL    HW1 3210   0.599   2.000   4.908
 1063SOL    HW2 3211   0.473   2.103   4.915
 1064SOL     OW 3212   0.866   2.316   4.366
 1064SOL    HW1 3213   0.834   2.388   4.304
 1064SOL    HW2 3214   0.890   2.235   4.313
 1065SOL     OW 3215   1.017   1.901   4.477
 1065SOL    HW1 3216   0.945   1.906   4.408
 1065SOL    HW2 3217   0.993   1.832   4.546
 1066SOL     OW 3218   1.429   3.035   4.591
 1066SOL    HW1 3219   1.374   2.951   4.584
 1066SOL    HW2 3220   1.455   3.064   4.499
 1067SOL     OW 3221   1.466   2.452   4.716
 1067SOL    HW1 3222   1.436   2.357   4.723
 1067SOL    HW2 3223   1.539   2.468   4.782
 1068SOL     OW 3224   1.857   2.695   4.101
 1068SOL    HW1 3225   1.899   2.631   4.165
 1068SOL    HW2 3226   1.819   2.644   4.023
 1069SOL     OW 3227   0.488   3.247   3.898
 1069SOL    HW1 3228   0.401   3.232   3.945
 1069SOL    HW2 3229   0.471   3.273   3.803
 1070SOL     OW 3230   1.664   3.142   4.381
 1070SOL    HW1 3231   1.763   3.150   4.395
 1070SOL    HW2 3232   1.619   3.226   4.412
 1071SOL     OW 3233   1.390   2.437   3.802
 1071SOL    HW1 3234   1.336   2.416   3.883
 1071SOL    HW2 3235   1.481   2.396   3.811
 1072SOL     OW 3236   0.527   2.118   4.052
 1072SOL    HW1 3237   0.554   2.059   3.977
 1072SOL    HW2 3238   0.527   2.213   4.021
 1073SOL     OW 3239   1.111   3.057   4.824
 1073SOL    HW1 3240   1.071   3.101   4.905
 1073SOL    HW2 3241   1.070   3.094   4.741
 1074SOL     OW 3242   1.638   2.961   4.803
 1074SOL    HW1 3243   1.643   3.042   4.862
 1074SOL    HW2 3244   1.552   2.963   4.752
 1075SOL     OW 3245   0.705   2.912   4.092
 1075SOL    HW1 3246   0.691   2.919   4.191
 1075SOL    HW2 3247   0.789   2.861   4.074
 1076SOL     OW 3248   0.410   2.675   4.975
 1076SOL    HW1 3249   0.496   2.687   5.025
 1076SOL    HW2 3250   0.368   2.588   5.002
 1077SOL     OW 3251   1.274   2.248   4.986
 1077SOL    HW1 3252   1.295   2.322   5.050
 1077SOL    HW2 3253   1.185   2.265   4.943
 1078SOL     OW 3254   0.367   2.962   4.225
 1078SOL    HW1 3255   0.360   3.045   4.169
 1078SOL    HW2 3256   0.371   2.882   4.165
 1079SOL     OW 3257   0.566   2.399   4.589
 1079SOL    HW1 3258   0.578   2.465   4.515
 1079SOL    HW2 3259   0.612   2.433   4.672
 1080SOL     OW 3260   1.252   3.210   4.112
 1080SOL    HW1 3261   1.302   3.287   4.152
 1080SOL    HW2 3262   1.157   3.212   4.144
 1081SOL     OW 3263   1.272   3.307   4.866
 1081SOL    HW1 3264   1.319   3.320   4.953
 1081SOL    HW2 3265   1.206   3.233   4.875
 1082SOL     OW 3266   1.582   2.501   4.196
 1082SOL    HW1 3267   1.551   2.562   4.269
 1082SOL    HW2 3268   1.632   2.553   4.127
 1083SOL     OW 3269   0.354   3.372   5.053
 1083SOL    HW1 3270   0.333   3.328   4.966
 1083SOL    HW2 3271   0.451   3.398   5.056
 1084SOL     OW 3272   0.573   2.732   4.753
 1084SOL    HW1 3273   0.617   2.821   4.744
 1084SOL    HW2 3274   0.510   2.732   4.830
 1085SOL     OW 3275   1.360   2.724   4.769
 1085SOL    HW1 3276   1.285   2.724   4.703
 1085SOL    HW2 3277   1.397   2.632   4.778
 1086SOL     OW 3278   1.209   2.387   3.999
 1086SOL    HW1 3279   1.222   2.303   4.053
 1086SOL    HW2 3280   1.180   2.461   4.059
 1087SOL     OW 3281   0.307   2.075   4.955
 1087SOL    HW1 3282   0.284   2.112   5.045
 1087SOL    HW2 3283   0.277   1.980   4.949
 1088SOL     OW 3284   0.037   3.172   5.006
 1088SOL    HW1 3285   0.090   3.123   5.074
 1088SOL    HW2 3286   0.059   3.270   5.011
 1089SOL     OW 3287   0.732   2.496   4.788
 1089SOL    HW1 3288   0.791   2.470   4.712
 1089SOL    HW2 3289   0.704   2.592   4.777
 1090SOL     OW 3290   0.307   1.925   4.342
 1090SOL    HW1 3291   0.296   2.019   4.375
 1090SOL    HW2 3292   0.302   1.862   4.419
 1091SOL     OW 3293   1.622   2.229   4.098
 1091SOL    HW1 3294   1.624   2.153   4.162
 1091SOL    HW2 3295   1.574   2.306   4.138
 1092SOL     OW 3296   1.023   2.628   4.690
 1092SOL    HW1 3297   1.038   2.649   4.786
 1092SOL    HW2 3298   0.993   2.533   4.681
 1093SOL     OW 3299   1.540   2.136   3.849
 1093SOL    HW1 3300   1.479   2.061   3.872
 1093SOL    HW2 3301   1.562   2.188   3.932
 1094SOL     OW 3302   1.303   2.700   3.766
 1094SOL    HW1 3303   1.337   2.607   3.781
 1094SOL    HW2 3304   1.321   2.727   3.671
 1095SOL     OW 3305   1.068   3.195   4.573
 1095SOL    HW1 3306   1.075   3.111   4.518
 1095SOL    HW2 3307   1.130   3.264   4.537
 1096SOL     OW 3308   0.319   2.672   4.673
 1096SOL    HW1 3309   0.412   2.708   4.678
 1096SOL    HW2 3310   0.313   2.587   4.725
 1097SOL     OW 3311   0.339   2.371   4.730
 1097SOL    HW1 3312   0.287   2.288   4.713
 1097SOL    HW2 3313   0.416   2.376   4.666
 1098SOL     OW 3314   1.160   2.069   5.201
 1098SOL    HW1 3315   1.160   2.133   5.278
 1098SOL    HW2 3316   1.188   2.117   5.118
 1099SOL     OW 3317   0.008   3.188   3.924
 1099SOL    HW1 3318  -0.085   3.209   3.893
 1099SOL    HW2 3319   0.018   3.089   3.937
 1100SOL     OW 3320   0.088   3.663   4.651
 1100SOL    HW1 3321   0.046   3.577   4.624
 1100SOL    HW2 3322   0.182   3.666   4.617
 1101SOL     OW 3323   0.504   3.430   4.634
 1101SOL    HW1 3324   0.570   3.504   4.643
 1101SOL    HW2 3325   0.548   3.351   4.592
 1102SOL     OW 3326   1.002   2.658   4.962
 1102SOL    HW1 3327   1.043   2.626   5.048
 1102SOL    HW2 3328   0.906   2.631   4.959
 1103SOL     OW 3329   0.040   2.406   4.838
 1103SOL    HW1 3330   0.125   2.373   4.797
 1103SOL    HW2 3331   0.053   2.421   4.936
 1104SOL     OW 3332   0.815   2.434   4.049
 1104SOL    HW1 3333   0.822   2.345   4.003
 1104SOL    HW2 3334   0.721   2.468   4.041
 1105SOL     OW 3335   1.657   2.466   4.930
 1105SOL    HW1 3336   1.619   2.397   4.992
 1105SOL    HW2 3337   1.739   2.430   4.886
 1106SOL     OW 3338   0.671   2.326   4.993
 1106SOL    HW1 3339   0.637   2.237   4.963
 1106SOL    HW2 3340   0.697   2.380   4.913
 1107SOL     OW 3341   0.930   3.540   5.189
 1107SOL    HW1 3342   0.906   3.522   5.094
 1107SOL    HW2 3343   0.960   3.634   5.199
 1108SOL     OW 3344   0.473   2.362   3.915
 1108SOL    HW1 3345   0.534   2.442   3.919
 1108SOL    HW2 3346   0.378   2.393   3.922
 1109SOL     OW 3347   1.347   2.921   4.958
 1109SOL    HW1 3348   1.371   2.858   4.884
 1109SOL    HW2 3349   1.257   2.961   4.940
 1110SOL     OW 3350   1.302   2.717   4.033
 1110SOL    HW1 3351   1.216   2.686   4.075
 1110SOL    HW2 3352   1.298   2.703   3.934
 1111SOL     OW 3353   1.759   3.609   4.878
 1111SOL    HW1 3354   1.820   3.639   4.805
 1111SOL    HW2 3355   1.721   3.520   4.856
 1112SOL     OW 3356   1.252   3.593   4.852
 1112SOL    HW1 3357   1.336   3.598   4.798
 1112SOL    HW2 3358   1.229   3.497   4.870
 1113SOL     OW 3359   0.083   3.120   4.746
 1113SOL    HW1 3360   0.078   3.119   4.846
 1113SOL    HW2 3361   0.000   3.079   4.708
 1114SOL     OW 3362   1.726   1.997   4.247
 1114SOL    HW1 3363   1.799   1.980   4.180
 1114SOL    HW2 3364   1.695   1.910   4.285
 1115SOL     OW 3365   1.388   3.435   4.201
 1115SOL    HW1 3366   1.455   3.447   4.127
 1115SOL    HW2 3367   1.348   3.524   4.224
 1116SOL     OW 3368   1.280   2.789   4.396
 1116SOL    HW1 3369   1.340   2.708   4.398
 1116SOL    HW2 3370   1.320   2.858   4.336
 1117SOL     OW 3371   0.672   3.478   3.878
 1117SOL    HW1 3372   0.681   3.488   3.779
 1117SOL    HW2 3373   0.632   3.389   3.899
 1118SOL     OW 3374   1.650   3.582   5.118
 1118SOL    HW1 3375   1.703   3.592   5.034
 1118SOL    HW2 3376   1.623   3.672   5.152
 1119SOL     OW 3377   1.841   2.037   4.687
 1119SOL    HW1 3378   1.880   1.952   4.651
 1119SOL    HW2 3379   1.743   2.039   4.668
 1120SOL     OW 3380   0.263   2.188   4.444
 1120SOL    HW1 3381   0.184   2.239   4.410
 1120SOL    HW2 3382   0.254   2.173   4.542
 1121SOL     OW 3383   1.194   3.474   3.755
 1121SOL    HW1 3384   1.200   3.381   3.792
 1121SOL    HW2 3385   1.135   3.474   3.675
 1122SOL     OW 3386   0.822   2.864   5.096
 1122SOL    HW1 3387   0.862   2.863   5.004
 1122SOL    HW2 3388   0.832   2.956   5.136
 1123SOL     OW 3389   0.916   2.772   4.015
 1123SOL    HW1 3390   0.979   2.810   3.947
 1123SOL    HW2 3391   0.956   2.689   4.054
 1124SOL     OW 3392   1.504   3.469   3.768
 1124SOL    HW1 3393   1.412   3.506   3.775
 1124SOL    HW2 3394   1.542   3.489   3.678
 1125SOL     OW 3395   1.039   2.960   4.420
 1125SOL    HW1 3396   0.969   2.913   4.474
 1125SOL    HW2 3397   1.098   2.892   4.377
 1126SOL     OW 3398   1.014   2.098   4.695
 1126SOL    HW1 3399   1.006   2.062   4.602
 1126SOL    HW2 3400   1.012   2.022   4.760
 1127SOL     OW 3401   0.590   3.349   4.215
 1127SOL    HW1 3402   0.632   3.291   4.145
 1127SOL    HW2 3403   0.546   3.428   4.171
 1128SOL     OW 3404   1.709   2.247   5.105
 1128SOL    HW1 3405   1.782   2.316   5.109
 1128SOL    HW2 3406   1.737   2.172   5.046
 1129SOL     OW 3407   0.255   3.210   4.014
 1129SOL    HW1 3408   0.159   3.211   3.987
 1129SOL    HW2 3409   0.267   3.263   4.098
 1130SOL     OW 3410   0.075   2.207   3.757
 1130SOL    HW1 3411  -0.017   2.179   3.728
 1130SOL    HW2 3412   0.106   2.284   3.701
 1131SOL     OW 3413   0.072   2.028   4.042
 1131SOL    HW1 3414   0.055   2.111   3.988
 1131SOL    HW2 3415   0.162   1.991   4.020
 1132SOL     OW 3416   1.183   3.197   3.843
 1132SOL    HW1 3417   1.084   3.186   3.845
 1132SOL    HW2 3418   1.217   3.212   3.936
 1133SOL     OW 3419   1.493   3.629   4.683
 1133SOL    HW1 3420   1.526   3.693   4.614
 1133SOL    HW2 3421   1.559   3.623   4.758
 1134SOL     OW 3422   1.674   2.745   4.978
 1134SOL    HW1 3423   1.647   2.656   4.941
 1134SOL    HW2 3424   1.675   2.813   4.905
 1135SOL     OW 3425   1.225   2.187   4.173
 1135SOL    HW1 3426   1.290   2.113   4.162
 1135SOL    HW2 3427   1.245   2.237   4.257
 1136SOL     OW 3428   0.594   2.607   4.376
 1136SOL    HW1 3429   0.644   2.692   4.357
 1136SOL    HW2 3430   0.506   2.609   4.328
 1137SOL     OW 3431   1.730   2.796   5.241
 1137SOL    HW1 3432   1.768   2.887   5.256
 1137SOL    HW2 3433   1.722   2.779   5.142
 1138SOL     OW 3434   0.859   3.236   3.740
 1138SOL    HW1 3435   0.813   3.251   3.828
 1138SOL    HW2 3436   0.903   3.321   3.710
 1139SOL     OW 3437   0.661   3.652   4.677
 1139SOL    HW1 3438   0.615   3.740   4.664
 1139SOL    HW2 3439   0.760   3.664   4.670
 1140SOL     OW 3440   0.859   2.818   4.585
 1140SOL    HW1 3441   0.913   2.749   4.633
 1140SOL    HW2 3442   0.827   2.887   4.651
 1141SOL     OW 3443   1.083   2.846   3.811
 1141SOL    HW1 3444   1.060   2.899   3.729
 1141SOL    HW2 3445   1.164   2.790   3.792
 1142SOL     OW 3446   1.861   3.431   4.575
 1142SOL    HW1 3447   1.790   3.419   4.505
 1142SOL    HW2 3448   1.862   3.352   4.635
 1143SOL     OW 3449   0.079   3.102   4.377
 1143SOL    HW1 3450   0.078   3.055   4.465
 1143SOL    HW2 3451   0.161   3.074   4.326
 1144SOL     OW 3452   1.824   2.054   4.951
 1144SOL    HW1 3453   1.820   1.964   4.995
 1144SOL    HW2 3454   1.827   2.043   4.852
 1145SOL     OW 3455   0.428   2.286   4.244
 1145SOL    HW1 3456   0.458   2.214   4.182
 1145SOL    HW2 3457   0.389   2.246   4.327
 1146SOL     OW 3458   1.705   3.349   4.828
 1146SOL    HW1 3459   1.612   3.324   4.801
 1146SOL    HW2 3460   1.731   3.299   4.910
 1147SOL     OW 3461   0.812   3.448   4.411
 1147SOL    HW1 3462   0.844   3.458   4.317
 1147SOL    HW2 3463   0.733   3.386   4.413
 1148SOL     OW 3464   1.424   2.076   4.836
 1148SOL    HW1 3465   1.476   2.011   4.891
 1148SOL    HW2 3466   1.375   2.139   4.897
 1149SOL     OW 3467   1.001   1.896   4.878
 1149SOL    HW1 3468   0.938   1.824   4.847
 1149SOL    HW2 3469   1.094   1.860   4.878
 1150SOL     OW 3470   0.770   3.192   4.025
 1150SOL    HW1 3471   0.724   3.105   4.042
 1150SOL    HW2 3472   0.861   3.189   4.066
 1151SOL     OW 3473   1.352   1.914   3.892
 1151SOL    HW1 3474   1.387   1.873   3.808
 1151SOL    HW2 3475   1.262   1.876   3.912
 1152SOL     OW 3476   1.300   2.315   4.415
 1152SOL    HW1 3477   1.241   2.395   4.419
 1152SOL    HW2 3478   1.315   2.280   4.508
 1153SOL     OW 3479   1.593   2.083   4.606
 1153SOL    HW1 3480   1.509   2.082   4.660
 1153SOL    HW2 3481   1.595   2.166   4.550
 1154SOL     OW 3482   0.039   2.939   4.024
 1154SOL    HW1 3483   0.138   2.928   4.015
 1154SOL    HW2 3484  -0.001   2.853   4.056
 1155SOL     OW 3485   0.875   3.508   4.061
 1155SOL    HW1 3486   0.798   3.473   4.007
 1155SOL    HW2 3487   0.843   3.579   4.123
 1156SOL     OW 3488   0.230   4.352   0.113
 1156SOL    HW1 3489   0.137   4.350   0.150
 1156SOL    HW2 3490   0.231   4.313   0.021
 1157SOL     OW 3491   0.225   3.999   0.996
 1157SOL    HW1 3492   0.260   3.982   1.088
 1157SOL    HW2 3493   0.137   3.954   0.984
 1158SOL     OW 3494   0.019   4.092   0.647
 1158SOL    HW1 3495  -0.063   4.135   0.686
 1158SOL    HW2 3496  -0.009   4.019   0.584
 1159SOL     OW 3497   1.135   4.427   0.717
 1159SOL    HW1 3498   1.192   4.505   0.692
 1159SOL    HW2 3499   1.075   4.453   0.793
 1160SOL     OW 3500   1.755   4.331   0.231
 1160SOL    HW1 3501   1.743   4.318   0.132
 1160SOL    HW2 3502   1.725   4.250   0.280
 1161SOL     OW 3503   0.768   4.868   1.023
 1161SOL    HW1 3504   0.690   4.885   1.083
 1161SOL    HW2 3505   0.802   4.955   0.987
 1162SOL     OW 3506   0.850   4.522   1.823
 1162SOL    HW1 3507   0.846   4.598   1.888
 1162SOL    HW2 3508   0.872   4.558   1.732
 1163SOL     OW 3509   0.685   4.736   0.665
 1163SOL    HW1 3510   0.754   4.720   0.735
 1163SOL    HW2 3511   0.612   4.793   0.703
 1164SOL     OW 3512   0.686   4.885   1.803
 1164SOL    HW1 3513   0.746   4.964   1.817
 1164SOL    HW2 3514   0.600   4.916   1.762
 1165SOL     OW 3515   0.335   5.159   1.061
 1165SOL    HW1 3516   0.257   5.128   1.008
 1165SOL    HW2 3517   0.393   5.217   1.004
 1166SOL     OW 3518   0.438   4.116   1.499
 1166SOL    HW1 3519   0.520   4.060   1.508
 1166SOL    HW2 3520   0.357   4.058   1.503
 1167SOL     OW 3521   1.603   4.171   0.737
 1167SOL    HW1 3522   1.529   4.217   0.687
 1167SOL    HW2 3523   1.654   4.239   0.790
 1168SOL     OW 3524   0.240   4.815   0.886
 1168SOL    HW1 3525   0.254   4.731   0.938
 1168SOL    HW2 3526   0.185   4.879   0.941
 1169SOL     OW 3527   0.606   4.688   0.123
 1169SOL    HW1 3528   0.613   4.772   0.069
 1169SOL    HW2 3529   0.652   4.701   0.211
 1170SOL     OW 3530   1.594   3.838   1.480
 1170SOL    HW1 3531   1.576   3.905   1.408
 1170SOL    HW2 3532   1.591   3.884   1.569
 1171SOL     OW 3533   0.122   4.367   0.563
 1171SOL    HW1 3534   0.077   4.279   0.580
 1171SOL    HW2 3535   0.121   4.421   0.647
 1172SOL     OW 3536   1.689   4.646   0.612
 1172SOL    HW1 3537   1.784   4.617   0.620
 1172SOL    HW2 3538   1.681   4.711   0.537
 1173SOL     OW 3539   1.641   4.832   0.432
 1173SOL    HW1 3540   1.727   4.834   0.380
 1173SOL    HW2 3541   1.655   4.879   0.520
 1174SOL     OW 3542   0.113   4.461   1.597
 1174SOL    HW1 3543   0.201   4.448   1.642
 1174SOL    HW2 3544   0.100   4.558   1.575
 1175SOL     OW 3545   1.293   4.952   1.423
 1175SOL    HW1 3546   1.330   4.879   1.365
 1175SOL    HW2 3547   1.345   4.957   1.508
 1176SOL     OW 3548   0.809   3.728   0.502
 1176SOL    HW1 3549   0.849   3.819   0.493
 1176SOL    HW2 3550   0.709   3.736   0.508
 1177SOL     OW 3551   0.197   4.700   1.264
 1177SOL    HW1 3552   0.286   4.655   1.250
 1177SOL    HW2 3553   0.124   4.635   1.245
 1178SOL     OW 3554   1.525   4.723   0.190
 1178SOL    HW1 3555   1.462   4.647   0.203
 1178SOL    HW2 3556   1.573   4.741   0.276
 1179SOL     OW 3557   0.317   3.975   1.801
 1179SOL    HW1 3558   0.388   4.046   1.807
 1179SOL    HW2 3559   0.229   4.014   1.829
 1180SOL     OW 3560   0.598   4.453   0.270
 1180SOL    HW1 3561   0.622   4.522   0.202
 1180SOL    HW2 3562   0.520   4.486   0.324
 1181SOL     OW 3563   1.281   4.069   0.944
 1181SOL    HW1 3564   1.195   4.019   0.931
 1181SOL    HW2 3565   1.343   4.015   1.000
 1182SOL     OW 3566   0.807   4.329   1.465
 1182SOL    HW1 3567   0.760   4.326   1.554
 1182SOL    HW2 3568   0.756   4.274   1.399
 1183SOL     OW 3569   1.394   4.193   1.674
 1183SOL    HW1 3570   1.374   4.236   1.762
 1183SOL    HW2 3571   1.472   4.131   1.683
 1184SOL     OW 3572   0.973   4.614   1.572
 1184SOL    HW1 3573   1.019   4.530   1.543
 1184SOL    HW2 3574   0.917   4.648   1.497
 1185SOL     OW 3575   0.991   4.134   1.242
 1185SOL    HW1 3576   0.914   4.168   1.296
 1185SOL    HW2 3577   0.957   4.083   1.163
 1186SOL     OW 3578   1.041   4.425   0.429
 1186SOL    HW1 3579   1.067   4.421   0.525
 1186SOL    HW2 3580   0.956   4.374   0.415
 1187SOL     OW 3581   0.076   4.535   0.789
 1187SOL    HW1 3582   0.175   4.523   0.798
 1187SOL    HW2 3583   0.052   4.630   0.810
 1188SOL     OW 3584   0.865   4.072   0.195
 1188SOL    HW1 3585   0.924   4.135   0.146
 1188SOL    HW2 3586   0.884   3.978   0.166
 1189SOL     OW 3587   1.719   4.309   1.831
 1189SOL    HW1 3588   1.693   4.398   1.795
 1189SOL    HW2 3589   1.717   4.241   1.758
 1190SOL     OW 3590   1.362   4.868   0.545
 1190SOL    HW1 3591   1.445   4.839   0.497
 1190SOL    HW2 3592   1.313   4.935   0.489
 1191SOL     OW 3593   0.550   3.920   0.885
 1191SOL    HW1 3594   0.545   3.915   0.985
 1191SOL    HW2 3595   0.552   4.016   0.856
 1192SOL     OW 3596   1.795   4.790   0.873
 1192SOL    HW1 3597   1.733   4.775   0.797
 1192SOL    HW2 3598   1.743   4.801   0.958
 1193SOL     OW 3599   0.321   4.667   0.242
 1193SOL    HW1 3600   0.403   4.706   0.200
 1193SOL    HW2 3601   0.294   4.585   0.193
 1194SOL     OW 3602   1.458   4.459   0.728
 1194SOL    HW1 3603   1.453   4.394   0.803
 1194SOL    HW2 3604   1.538   4.518   0.741
 1195SOL     OW 3605   0.202   4.009   1.498
 1195SOL    HW1 3606   0.122   4.069   1.485
 1195SOL    HW2 3607   0.192   3.960   1.584
 1196SOL     OW 3608   1.400   3.831   0.426
 1196SOL    HW1 3609   1.376   3.794   0.336
 1196SOL    HW2 3610   1.499   3.847   0.430
 1197SOL     OW 3611   0.382   4.424   0.480
 1197SOL    HW1 3612   0.427   4.334   0.477
 1197SOL    HW2 3613   0.288   4.413   0.513
 1198SOL     OW 3614   1.547   3.946   1.729
 1198SOL    HW1 3615   1.542   3.983   1.821
 1198SOL    HW2 3616   1.475   3.877   1.717
 1199SOL     OW 3617   0.614   3.846   0.117
 1199SOL    HW1 3618   0.712   3.824   0.124
 1199SOL    HW2 3619   0.583   3.829   0.024
 1200SOL     OW 3620   0.781   3.988   1.749
 1200SOL    HW1 3621   0.848   3.927   1.792
 1200SOL    HW2 3622   0.708   4.007   1.814
 1201SOL     OW 3623   1.351   4.314   1.433
 1201SOL    HW1 3624   1.379   4.271   1.518
 1201SOL    HW2 3625   1.376   4.410   1.434
 1202SOL     OW 3626   0.803   5.126   0.924
 1202SOL    HW1 3627   0.893   5.140   0.882
 1202SOL    HW2 3628   0.732   5.128   0.853
 1203SOL     OW 3629   0.922   4.227   0.899
 1203SOL    HW1 3630   0.897   4.218   0.803
 1203SOL    HW2 3631   0.970   4.145   0.930
 1204SOL     OW 3632   0.539   3.788   0.512
 1204SOL    HW1 3633   0.458   3.789   0.570
 1204SOL    HW2 3634   0.542   3.871   0.457
 1205SOL     OW 3635   0.297   3.759   0.171
 1205SOL    HW1 3636   0.346   3.843   0.150
 1205SOL    HW2 3637   0.359   3.694   0.216
 1206SOL     OW 3638   0.935   3.960   0.480
 1206SOL    HW1 3639   0.887   4.001   0.402
 1206SOL    HW2 3640   1.034   3.958   0.461
 1207SOL     OW 3641   1.076   4.407   1.464
 1207SOL    HW1 3642   0.996   4.346   1.467
 1207SOL    HW2 3643   1.157   4.354   1.440
 1208SOL     OW 3644   0.459   4.876   0.741
 1208SOL    HW1 3645   0.388   4.849   0.806
 1208SOL    HW2 3646   0.433   4.848   0.648
 1209SOL     OW 3647   1.032   4.273   0.016
 1209SOL    HW1 3648   0.991   4.355  -0.023
 1209SOL    HW2 3649   1.096   4.299   0.089
 1210SOL     OW 3650   0.078   4.280   1.386
 1210SOL    HW1 3651   0.170   4.279   1.345
 1210SOL    HW2 3652   0.072   4.354   1.453
 1211SOL     OW 3653   0.561   3.946   1.147
 1211SOL    HW1 3654   0.599   3.862   1.184
 1211SOL    HW2 3655   0.473   3.965   1.191
 1212SOL     OW 3656   0.866   4.178   0.642
 1212SOL    HW1 3657   0.834   4.250   0.580
 1212SOL    HW2 3658   0.890   4.097   0.589
 1213SOL     OW 3659   1.017   3.763   0.753
 1213SOL    HW1 3660   0.945   3.768   0.684
 1213SOL    HW2 3661   0.993   3.694   0.822
 1214SOL     OW 3662   1.429   4.897   0.867
 1214SOL    HW1 3663   1.374   4.813   0.860
 1214SOL    HW2 3664   1.455   4.926   0.775
 1215SOL     OW 3665   1.466   4.314   0.992
 1215SOL    HW1 3666   1.436   4.219   0.999
 1215SOL    HW2 3667   1.539   4.330   1.058
 1216SOL     OW 3668   1.857   4.557   0.377
 1216SOL    HW1 3669   1.899   4.493   0.441
 1216SOL    HW2 3670   1.819   4.506   0.299
 1217SOL     OW 3671   1.390   4.299   0.078
 1217SOL    HW1 3672   1.336   4.278   0.159
 1217SOL    HW2 3673   1.481   4.258   0.087
 1218SOL     OW 3674   0.527   3.980   0.328
 1218SOL    HW1 3675   0.554   3.921   0.253
 1218SOL    HW2 3676   0.527   4.075   0.297
 1219SOL     OW 3677   1.754   4.947   1.588
 1219SOL    HW1 3678   1.845   4.908   1.575
 1219SOL    HW2 3679   1.762   5.043   1.612
 1220SOL     OW 3680   1.638   4.823   1.079
 1220SOL    HW1 3681   1.643   4.904   1.138
 1220SOL    HW2 3682   1.552   4.825   1.028
 1221SOL     OW 3683   0.915   3.813   1.402
 1221SOL    HW1 3684   0.940   3.793   1.307
 1221SOL    HW2 3685   0.987   3.869   1.444
 1222SOL     OW 3686   0.980   4.840   1.719
 1222SOL    HW1 3687   0.881   4.846   1.729
 1222SOL    HW2 3688   1.003   4.760   1.663
 1223SOL     OW 3689   0.705   4.774   0.368
 1223SOL    HW1 3690   0.691   4.781   0.467
 1223SOL    HW2 3691   0.789   4.723   0.350
 1224SOL     OW 3692   0.410   4.537   1.251
 1224SOL    HW1 3693   0.496   4.549   1.301
 1224SOL    HW2 3694   0.368   4.450   1.278
 1225SOL     OW 3695   1.274   4.110   1.262
 1225SOL    HW1 3696   1.295   4.184   1.326
 1225SOL    HW2 3697   1.185   4.127   1.219
 1226SOL     OW 3698   0.367   4.824   0.501
 1226SOL    HW1 3699   0.360   4.907   0.445
 1226SOL    HW2 3700   0.371   4.744   0.441
 1227SOL     OW 3701   0.566   4.261   0.865
 1227SOL    HW1 3702   0.578   4.327   0.791
 1227SOL    HW2 3703   0.612   4.295   0.948
 1228SOL     OW 3704   1.582   4.363   0.472
 1228SOL    HW1 3705   1.551   4.424   0.545
 1228SOL    HW2 3706   1.632   4.415   0.403
 1229SOL     OW 3707   0.402   4.475   1.598
 1229SOL    HW1 3708   0.470   4.530   1.551
 1229SOL    HW2 3709   0.442   4.387   1.625
 1230SOL     OW 3710   1.587   4.503   1.670
 1230SOL    HW1 3711   1.495   4.541   1.665
 1230SOL    HW2 3712   1.647   4.550   1.605
 1231SOL     OW 3713   1.013   3.829   1.770
 1231SOL    HW1 3714   1.019   3.914   1.718
 1231SOL    HW2 3715   1.045   3.753   1.713
 1232SOL     OW 3716   0.504   3.774   1.740
 1232SOL    HW1 3717   0.462   3.717   1.670
 1232SOL    HW2 3718   0.438   3.843   1.772
 1233SOL     OW 3719   0.573   4.594   1.029
 1233SOL    HW1 3720   0.617   4.683   1.020
 1233SOL    HW2 3721   0.510   4.594   1.106
 1234SOL     OW 3722   1.360   4.586   1.045
 1234SOL    HW1 3723   1.285   4.586   0.979
 1234SOL    HW2 3724   1.397   4.494   1.054
 1235SOL     OW 3725   1.209   4.249   0.275
 1235SOL    HW1 3726   1.222   4.165   0.329
 1235SOL    HW2 3727   1.180   4.323   0.335
 1236SOL     OW 3728   0.307   3.937   1.231
 1236SOL    HW1 3729   0.284   3.974   1.321
 1236SOL    HW2 3730   0.277   3.842   1.225
 1237SOL     OW 3731   0.037   5.034   1.282
 1237SOL    HW1 3732   0.090   4.985   1.350
 1237SOL    HW2 3733   0.059   5.132   1.287
 1238SOL     OW 3734   0.732   4.358   1.064
 1238SOL    HW1 3735   0.791   4.332   0.988
 1238SOL    HW2 3736   0.704   4.454   1.053
 1239SOL     OW 3737   1.728   4.659   1.854
 1239SOL    HW1 3738   1.682   4.652   1.765
 1239SOL    HW2 3739   1.666   4.703   1.920
 1240SOL     OW 3740   0.307   3.787   0.618
 1240SOL    HW1 3741   0.296   3.881   0.651
 1240SOL    HW2 3742   0.302   3.724   0.695
 1241SOL     OW 3743   1.622   4.091   0.374
 1241SOL    HW1 3744   1.624   4.015   0.438
 1241SOL    HW2 3745   1.574   4.168   0.414
 1242SOL     OW 3746   1.023   4.490   0.966
 1242SOL    HW1 3747   1.038   4.511   1.062
 1242SOL    HW2 3748   0.993   4.395   0.957
 1243SOL     OW 3749   0.350   4.622   1.804
 1243SOL    HW1 3750   0.426   4.666   1.852
 1243SOL    HW2 3751   0.385   4.575   1.722
 1244SOL     OW 3752   1.540   3.998   0.125
 1244SOL    HW1 3753   1.479   3.923   0.148
 1244SOL    HW2 3754   1.562   4.050   0.208
 1245SOL     OW 3755   1.303   4.562   0.042
 1245SOL    HW1 3756   1.337   4.469   0.057
 1245SOL    HW2 3757   1.321   4.589  -0.053
 1246SOL     OW 3758   0.319   4.534   0.949
 1246SOL    HW1 3759   0.412   4.570   0.954
 1246SOL    HW2 3760   0.313   4.449   1.001
 1247SOL     OW 3761   0.339   4.233   1.006
 1247SOL    HW1 3762   0.287   4.150   0.989
 1247SOL    HW2 3763   0.416   4.238   0.942
 1248SOL     OW 3764   1.138   4.104   1.678
 1248SOL    HW1 3765   1.093   4.167   1.742
 1248SOL    HW2 3766   1.231   4.135   1.661
 1249SOL     OW 3767   1.160   3.931   1.477
 1249SOL    HW1 3768   1.160   3.995   1.554
 1249SOL    HW2 3769   1.188   3.979   1.394
 1250SOL     OW 3770   0.008   5.050   0.200
 1250SOL    HW1 3771  -0.085   5.071   0.169
 1250SOL    HW2 3772   0.018   4.951   0.213
 1251SOL     OW 3773   1.002   4.520   1.238
 1251SOL    HW1 3774   1.043   4.488   1.324
 1251SOL    HW2 3775   0.906   4.493   1.235
 1252SOL     OW 3776   0.040   4.268   1.114
 1252SOL    HW1 3777   0.125   4.235   1.073
 1252SOL    HW2 3778   0.053   4.283   1.212
 1253SOL     OW 3779   0.189   4.244   1.722
 1253SOL    HW1 3780   0.248   4.204   1.652
 1253SOL    HW2 3781   0.131   4.315   1.681
 1254SOL     OW 3782   1.369   4.674   1.660
 1254SOL    HW1 3783   1.408   4.763   1.680
 1254SOL    HW2 3784   1.379   4.654   1.563
 1255SOL     OW 3785   0.815   4.296   0.325
 1255SOL    HW1 3786   0.822   4.207   0.279
 1255SOL    HW2 3787   0.721   4.330   0.317
 1256SOL     OW 3788   1.657   4.328   1.206
 1256SOL    HW1 3789   1.619   4.259   1.268
 1256SOL    HW2 3790   1.739   4.292   1.162
 1257SOL     OW 3791   0.671   4.188   1.269
 1257SOL    HW1 3792   0.637   4.099   1.239
 1257SOL    HW2 3793   0.697   4.242   1.189
 1258SOL     OW 3794   0.473   4.224   0.191
 1258SOL    HW1 3795   0.534   4.304   0.195
 1258SOL    HW2 3796   0.378   4.255   0.198
 1259SOL     OW 3797   0.159   4.861   1.466
 1259SOL    HW1 3798   0.181   4.800   1.542
 1259SOL    HW2 3799   0.169   4.812   1.380
 1260SOL     OW 3800   1.347   4.783   1.234
 1260SOL    HW1 3801   1.371   4.720   1.160
 1260SOL    HW2 3802   1.257   4.823   1.216
 1261SOL     OW 3803   1.302   4.579   0.309
 1261SOL    HW1 3804   1.216   4.548   0.351
 1261SOL    HW2 3805   1.298   4.565   0.210
 1262SOL     OW 3806   0.083   4.982   1.022
 1262SOL    HW1 3807   0.078   4.981   1.122
 1262SOL    HW2 3808   0.000   4.941   0.984
 1263SOL     OW 3809   0.903   3.810   0.133
 1263SOL    HW1 3810   0.954   3.811   0.047
 1263SOL    HW2 3811   0.959   3.768   0.204
 1264SOL     OW 3812   1.726   3.859   0.523
 1264SOL    HW1 3813   1.799   3.842   0.456
 1264SOL    HW2 3814   1.695   3.772   0.561
 1265SOL     OW 3815   1.280   4.651   0.672
 1265SOL    HW1 3816   1.340   4.570   0.674
 1265SOL    HW2 3817   1.320   4.720   0.612
 1266SOL     OW 3818   1.841   3.899   0.963
 1266SOL    HW1 3819   1.880   3.814   0.927
 1266SOL    HW2 3820   1.743   3.901   0.944
 1267SOL     OW 3821   0.263   4.050   0.720
 1267SOL    HW1 3822   0.184   4.101   0.686
 1267SOL    HW2 3823   0.254   4.035   0.818
 1268SOL     OW 3824   0.822   4.726   1.372
 1268SOL    HW1 3825   0.862   4.725   1.280
 1268SOL    HW2 3826   0.832   4.818   1.412
 1269SOL     OW 3827   0.916   4.634   0.291
 1269SOL    HW1 3828   0.979   4.672   0.223
 1269SOL    HW2 3829   0.956   4.551   0.330
 1270SOL     OW 3830   0.372   5.012   1.490
 1270SOL    HW1 3831   0.359   5.105   1.456
 1270SOL    HW2 3832   0.288   4.960   1.477
 1271SOL     OW 3833   1.614   5.016   1.289
 1271SOL    HW1 3834   1.674   5.019   1.369
 1271SOL    HW2 3835   1.539   5.080   1.302
 1272SOL     OW 3836   1.039   4.822   0.696
 1272SOL    HW1 3837   0.969   4.775   0.750
 1272SOL    HW2 3838   1.098   4.754   0.653
 1273SOL     OW 3839   1.014   3.960   0.971
 1273SOL    HW1 3840   1.006   3.924   0.878
 1273SOL    HW2 3841   1.012   3.884   1.036
 1274SOL     OW 3842   1.709   4.109   1.381
 1274SOL    HW1 3843   1.782   4.178   1.385
 1274SOL    HW2 3844   1.737   4.034   1.322
 1275SOL     OW 3845   0.105   4.737   1.726
 1275SOL    HW1 3846   0.028   4.704   1.780
 1275SOL    HW2 3847   0.190   4.707   1.768
 1276SOL     OW 3848   0.672   3.927   1.489
 1276SOL    HW1 3849   0.762   3.911   1.449
 1276SOL    HW2 3850   0.680   3.932   1.588
 1277SOL     OW 3851   0.075   4.069   0.033
 1277SOL    HW1 3852  -0.017   4.041   0.004
 1277SOL    HW2 3853   0.106   4.146  -0.023
 1278SOL     OW 3854   1.440   4.580   1.398
 1278SOL    HW1 3855   1.383   4.632   1.335
 1278SOL    HW2 3856   1.536   4.592   1.374
 1279SOL     OW 3857   0.072   3.890   0.318
 1279SOL    HW1 3858   0.055   3.973   0.264
 1279SOL    HW2 3859   0.162   3.853   0.296
 1280SOL     OW 3860   0.613   4.566   1.431
 1280SOL    HW1 3861   0.669   4.647   1.414
 1280SOL    HW2 3862   0.672   4.486   1.434
 1281SOL     OW 3863   0.716   4.289   1.708
 1281SOL    HW1 3864   0.735   4.354   1.782
 1281SOL    HW2 3865   0.776   4.209   1.717
 1282SOL     OW 3866   1.450   4.944   1.633
 1282SOL    HW1 3867   1.441   4.934   1.732
 1282SOL    HW2 3868   1.546   4.937   1.607
 1283SOL     OW 3869   1.674   4.607   1.254
 1283SOL    HW1 3870   1.647   4.518   1.217
 1283SOL    HW2 3871   1.675   4.675   1.181
 1284SOL     OW 3872   1.225   4.049   0.449
 1284SOL    HW1 3873   1.290   3.975   0.438
 1284SOL    HW2 3874   1.245   4.099   0.533
 1285SOL     OW 3875   0.594   4.469   0.652
 1285SOL    HW1 3876   0.644   4.554   0.633
 1285SOL    HW2 3877   0.506   4.471   0.604
 1286SOL     OW 3878   1.777   4.066   1.642
 1286SOL    HW1 3879   1.760   4.097   1.548
 1286SOL    HW2 3880   1.693   4.029   1.680
 1287SOL     OW 3881   1.730   4.658   1.517
 1287SOL    HW1 3882   1.768   4.749   1.532
 1287SOL    HW2 3883   1.722   4.641   1.418
 1288SOL     OW 3884   0.859   4.680   0.861
 1288SOL    HW1 3885   0.913   4.611   0.909
 1288SOL    HW2 3886   0.827   4.749   0.927
 1289SOL     OW 3887   1.083   4.708   0.087
 1289SOL    HW1 3888   1.060   4.761   0.005
 1289SOL    HW2 3889   1.164   4.652   0.068
 1290SOL     OW 3890   0.079   4.964   0.653
 1290SOL    HW1 3891   0.078   4.917   0.741
 1290SOL    HW2 3892   0.161   4.936   0.602
 1291SOL     OW 3893   1.824   3.916   1.227
 1291SOL    HW1 3894   1.820   3.826   1.271
 1291SOL    HW2 3895   1.827   3.905   1.128
 1292SOL     OW 3896   0.428   4.148   0.520
 1292SOL    HW1 3897   0.458   4.076   0.458
 1292SOL    HW2 3898   0.389   4.108   0.603
 1293SOL     OW 3899   0.317   4.271   1.280
 1293SOL    HW1 3900   0.355   4.212   1.352
 1293SOL    HW2 3901   0.357   4.245   1.192
 1294SOL     OW 3902   1.424   3.938   1.112
 1294SOL    HW1 3903   1.476   3.873   1.167
 1294SOL    HW2 3904   1.375   4.001   1.173
 1295SOL     OW 3905   1.001   3.758   1.154
 1295SOL    HW1 3906   0.938   3.686   1.123
 1295SOL    HW2 3907   1.094   3.722   1.154
 1296SOL     OW 3908   0.770   5.054   0.301
 1296SOL    HW1 3909   0.724   4.967   0.318
 1296SOL    HW2 3910   0.861   5.051   0.342
 1297SOL     OW 3911   1.352   3.776   0.168
 1297SOL    HW1 3912   1.387   3.735   0.084
 1297SOL    HW2 3913   1.262   3.738   0.188
 1298SOL     OW 3914   1.300   4.177   0.691
 1298SOL    HW1 3915   1.241   4.257   0.695
 1298SOL    HW2 3916   1.315   4.142   0.784
 1299SOL     OW 3917   1.593   3.945   0.882
 1299SOL    HW1 3918   1.509   3.944   0.936
 1299SOL    HW2 3919   1.595   4.028   0.826
 1300SOL     OW 3920   0.039   4.801   0.300
 1300SOL    HW1 3921   0.138   4.790   0.291
 1300SOL    HW2 3922  -0.001   4.715   0.332
 1301SOL     OW 3923   0.230   4.352   1.975
 1301SOL    HW1 3924   0.137   4.350   2.012
 1301SOL    HW2 3925   0.231   4.313   1.883
 1302SOL     OW 3926   0.225   3.999   2.858
 1302SOL    HW1 3927   0.260   3.982   2.950
 1302SOL    HW2 3928   0.137   3.954   2.846
 1303SOL     OW 3929   0.019   4.092   2.509
 1303SOL    HW1 3930  -0.063   4.135   2.548
 1303SOL    HW2 3931  -0.009   4.019   2.446
 1304SOL     OW 3932   1.135   4.427   2.579
 1304SOL    HW1 3933   1.192   4.505   2.554
 1304SOL    HW2 3934   1.075   4.453   2.655
 1305SOL     OW 3935   1.755   4.331   2.093
 1305SOL    HW1 3936   1.743   4.318   1.994
 1305SOL    HW2 3937   1.725   4.250   2.142
 1306SOL     OW 3938   0.768   4.868   2.885
 1306SOL    HW1 3939   0.690   4.885   2.945
 1306SOL    HW2 3940   0.802   4.955   2.849
 1307SOL     OW 3941   0.850   4.522   3.685
 1307SOL    HW1 3942   0.846   4.598   3.750
 1307SOL    HW2 3943   0.872   4.558   3.594
 1308SOL     OW 3944   0.685   4.736   2.527
 1308SOL    HW1 3945   0.754   4.720   2.597
 1308SOL    HW2 3946   0.612   4.793   2.565
 1309SOL     OW 3947   0.686   4.885   3.665
 1309SOL    HW1 3948   0.746   4.964   3.679
 1309SOL    HW2 3949   0.600   4.916   3.624
 1310SOL     OW 3950   0.335   5.159   2.923
 1310SOL    HW1 3951   0.257   5.128   2.870
 1310SOL    HW2 3952   0.393   5.217   2.866
 1311SOL     OW 3953   0.438   4.116   3.361
 1311SOL    HW1 3954   0.520   4.060   3.370
 1311SOL    HW2 3955   0.357   4.058   3.365
 1312SOL     OW 3956   1.603   4.171   2.599
 1312SOL    HW1 3957   1.529   4.217   2.549
 1312SOL    HW2 3958   1.654   4.239   2.652
 1313SOL     OW 3959   0.240   4.815   2.748
 1313SOL    HW1 3960   0.254   4.731   2.800
 1313SOL    HW2 3961   0.185   4.879   2.803
 1314SOL     OW 3962   0.606   4.688   1.985
 1314SOL    HW1 3963   0.613   4.772   1.931
 1314SOL    HW2 3964   0.652   4.701   2.073
 1315SOL     OW 3965   1.594   3.838   3.342
 1315SOL    HW1 3966   1.576   3.905   3.270
 1315SOL    HW2 3967   1.591   3.884   3.431
 1316SOL     OW 3968   0.122   4.367   2.425
 1316SOL    HW1 3969   0.077   4.279   2.442
 1316SOL    HW2 3970   0.121   4.421   2.509
 1317SOL     OW 3971   1.689   4.646   2.474
 1317SOL    HW1 3972   1.784   4.617   2.482
 1317SOL    HW2 3973   1.681   4.711   2.399
 1318SOL     OW 3974   1.641   4.832   2.294
 1318SOL    HW1 3975   1.727   4.834   2.242
 1318SOL    HW2 3976   1.655   4.879   2.382
 1319SOL     OW 3977   0.113   4.461   3.459
 1319SOL    HW1 3978   0.201   4.448   3.504
 1319SOL    HW2 3979   0.100   4.558   3.437
 1320SOL     OW 3980   1.293   4.952   3.285
 1320SOL    HW1 3981   1.330   4.879   3.227
 1320SOL    HW2 3982   1.345   4.957   3.370
 1321SOL     OW 3983   0.809   3.728   2.364
 1321SOL    HW1 3984   0.849   3.819   2.355
 1321SOL    HW2 3985   0.709   3.736   2.370
 1322SOL     OW 3986   0.197   4.700   3.126
 1322SOL    HW1 3987   0.286   4.655   3.112
 1322SOL    HW2 3988   0.124   4.635   3.107
 1323SOL     OW 3989   1.525   4.723   2.052
 1323SOL    HW1 3990   1.462   4.647   2.065
 1323SOL    HW2 3991   1.573   4.741   2.138
 1324SOL     OW 3992   0.317   3.975   3.663
 1324SOL    HW1 3993   0.388   4.046   3.669
 1324SOL    HW2 3994   0.229   4.014   3.691
 1325SOL     OW 3995   0.598   4.453   2.132
 1325SOL    HW1 3996   0.622   4.522   2.064
 1325SOL    HW2 3997   0.520   4.486   2.186
 1326SOL     OW 3998   1.281   4.069   2.806
 1326SOL    HW1 3999   1.195   4.019   2.793
 1326SOL    HW2 4000   1.343   4.015   2.862
 1327SOL     OW 4001   0.807   4.329   3.327
 1327SOL    HW1 4002   0.760   4.326   3.416
 1327SOL    HW2 4003   0.756   4.274   3.261
 1328SOL     OW 4004   1.394   4.193   3.536
 1328SOL    HW1 4005   1.374   4.236   3.624
 1328SOL    HW2 4006   1.472   4.131   3.545
 1329SOL     OW 4007   0.973   4.614   3.434
 1329SOL    HW1 4008   1.019   4.530   3.405
 1329SOL    HW2 4009   0.917   4.648   3.359
 1330SOL     OW 4010   0.991   4.134   3.104
 1330SOL    HW1 4011   0.914   4.168   3.158
 1330SOL    HW2 4012   0.957   4.083   3.025
 1331SOL     OW 4013   1.041   4.425   2.291
 1331SOL    HW1 4014   1.067   4.421   2.387
 1331SOL    HW2 4015   0.956   4.374   2.277
 1332SOL     OW 4016   0.076   4.535   2.651
 1332SOL    HW1 4017   0.175   4.523   2.660
 1332SOL    HW2 4018   0.052   4.630   2.672
 1333SOL     OW 4019   0.865   4.072   2.057
 1333SOL    HW1 4020   0.924   4.135   2.008
 1333SOL    HW2 4021   0.884   3.978   2.028
 1334SOL     OW 4022   1.719   4.309   3.693
 1334SOL    HW1 4023   1.693   4.398   3.657
 1334SOL    HW2 4024   1.717   4.241   3.620
 1335SOL     OW 4025   1.362   4.868   2.407
 1335SOL    HW1 4026   1.445   4.839   2.359
 1335SOL    HW2 4027   1.313   4.935   2.351
 1336SOL     OW 4028   0.550   3.920   2.747
 1336SOL    HW1 4029   0.545   3.915   2.847
 1336SOL    HW2 4030   0.552   4.016   2.718
 1337SOL     OW 4031   1.795   4.790   2.735
 1337SOL    HW1 4032   1.733   4.775   2.659
 1337SOL    HW2 4033   1.743   4.801   2.820
 1338SOL     OW 4034   0.321   4.667   2.104
 1338SOL    HW1 4035   0.403   4.706   2.062
 1338SOL    HW2 4036   0.294   4.585   2.055
 1339SOL     OW 4037   1.458   4.459   2.590
 1339SOL    HW1 4038   1.453   4.394   2.665
 1339SOL    HW2 4039   1.538   4.518   2.603
 1340SOL     OW 4040   0.202   4.009   3.360
 1340SOL    HW1 4041   0.122   4.069   3.347
 1340SOL    HW2 4042   0.192   3.960   3.446
 1341SOL     OW 4043   1.400   3.831   2.288
 1341SOL    HW1 4044   1.376   3.794   2.198
 1341SOL    HW2 4045   1.499   3.847   2.292
 1342SOL     OW 4046   0.382   4.424   2.342
 1342SOL    HW1 4047   0.427   4.334   2.339
 1342SOL    HW2 4048   0.288   4.413   2.375
 1343SOL     OW 4049   1.547   3.946   3.591
 1343SOL    HW1 4050   1.542   3.983   3.683
 1343SOL    HW2 4051   1.475   3.877   3.579
 1344SOL     OW 4052   0.614   3.846   1.979
 1344SOL    HW1 4053   0.712   3.824   1.986
 1344SOL    HW2 4054   0.583   3.829   1.886
 1345SOL     OW 4055   0.781   3.988   3.611
 1345SOL    HW1 4056   0.848   3.927   3.654
 1345SOL    HW2 4057   0.708   4.007   3.676
 1346SOL     OW 4058   1.351   4.314   3.295
 1346SOL    HW1 4059   1.379   4.271   3.380
 1346SOL    HW2 4060   1.376   4.410   3.296
 1347SOL     OW 4061   0.803   5.126   2.786
 1347SOL    HW1 4062   0.893   5.140   2.744
 1347SOL    HW2 4063   0.732   5.128   2.715
 1348SOL     OW 4064   0.922   4.227   2.761
 1348SOL    HW1 4065   0.897   4.218   2.665
 1348SOL    HW2 4066   0.970   4.145   2.792
 1349SOL     OW 4067   0.539   3.788   2.374
 1349SOL    HW1 4068   0.458   3.789   2.432
 1349SOL    HW2 4069   0.542   3.871   2.319
 1350SOL     OW 4070   0.297   3.759   2.033
 1350SOL    HW1 4071   0.346   3.843   2.012
 1350SOL    HW2 4072   0.359   3.694   2.078
 1351SOL     OW 4073   0.935   3.960   2.342
 1351SOL    HW1 4074   0.887   4.001   2.264
 1351SOL    HW2 4075   1.034   3.958   2.323
 1352SOL     OW 4076   1.076   4.407   3.326
 1352SOL    HW1 4077   0.996   4.346   3.329
 1352SOL    HW2 4078   1.157   4.354   3.302
 1353SOL     OW 4079   0.459   4.876   2.603
 1353SOL    HW1 4080   0.388   4.849   2.668
 1353SOL    HW2 4081   0.433   4.848   2.510
 1354SOL     OW 4082   1.032   4.273   1.878
 1354SOL    HW1 4083   0.991   4.355   1.839
 1354SOL    HW2 4084   1.096   4.299   1.951
 1355SOL     OW 4085   0.078   4.280   3.248
 1355SOL    HW1 4086   0.170   4.279   3.207
 1355SOL    HW2 4087   0.072   4.354   3.315
 1356SOL     OW 4088   0.561   3.946   3.009
 1356SOL    HW1 4089   0.599   3.862   3.046
 1356SOL    HW2 4090   0.473   3.965   3.053
 1357SOL     OW 4091   0.866   4.178   2.504
 1357SOL    HW1 4092   0.834   4.250   2.442
 1357SOL    HW2 4093   0.890   4.097   2.451
 1358SOL     OW 4094   1.017   3.763   2.615
 1358SOL    HW1 4095   0.945   3.768   2.546
 1358SOL    HW2 4096   0.993   3.694   2.684
 1359SOL     OW 4097   1.429   4.897   2.729
 1359SOL    HW1 4098   1.374   4.813   2.722
 1359SOL    HW2 4099   1.455   4.926   2.637
 1360SOL     OW 4100   1.466   4.314   2.854
 1360SOL    HW1 4101   1.436   4.219   2.861
 1360SOL    HW2 4102   1.539   4.330   2.920
 1361SOL     OW 4103   1.857   4.557   2.239
 1361SOL    HW1 4104   1.899   4.493   2.303
 1361SOL    HW2 4105   1.819   4.506   2.161
 1362SOL     OW 4106   1.390   4.299   1.940
 1362SOL    HW1 4107   1.336   4.278   2.021
 1362SOL    HW2 4108   1.481   4.258   1.949
 1363SOL     OW 4109   0.527   3.980   2.190
 1363SOL    HW1 4110   0.554   3.921   2.115
 1363SOL    HW2 4111   0.527   4.075   2.159
 1364SOL     OW 4112   1.754   4.947   3.450
 1364SOL    HW1 4113   1.845   4.908   3.437
 1364SOL    HW2 4114   1.762   5.043   3.474
 1365SOL     OW 4115   1.638   4.823   2.941
 1365SOL    HW1 4116   1.643   4.904   3.000
 1365SOL    HW2 4117   1.552   4.825   2.890
 1366SOL     OW 4118   0.915   3.813   3.264
 1366SOL    HW1 4119   0.940   3.793   3.169
 1366SOL    HW2 4120   0.987   3.869   3.306
 1367SOL     OW 4121   0.980   4.840   3.581
 1367SOL    HW1 4122   0.881   4.846   3.591
 1367SOL    HW2 4123   1.003   4.760   3.525
 1368SOL     OW 4124   0.705   4.774   2.230
 1368SOL    HW1 4125   0.691   4.781   2.329
 1368SOL    HW2 4126   0.789   4.723   2.212
 1369SOL     OW 4127   0.410   4.537   3.113
 1369SOL    HW1 4128   0.496   4.549   3.163
 1369SOL    HW2 4129   0.368   4.450   3.140
 1370SOL     OW 4130   1.274   4.110   3.124
 1370SOL    HW1 4131   1.295   4.184   3.188
 1370SOL    HW2 4132   1.185   4.127   3.081
 1371SOL     OW 4133   0.367   4.824   2.363
 1371SOL    HW1 4134   0.360   4.907   2.307
 1371SOL    HW2 4135   0.371   4.744   2.303
 1372SOL     OW 4136   0.566   4.261   2.727
 1372SOL    HW1 4137   0.578   4.327   2.653
 1372SOL    HW2 4138   0.612   4.295   2.810
 1373SOL     OW 4139   1.582   4.363   2.334
 1373SOL    HW1 4140   1.551   4.424   2.407
 1373SOL    HW2 4141   1.632   4.415   2.265
 1374SOL     OW 4142   0.402   4.475   3.460
 1374SOL    HW1 4143   0.470   4.530   3.413
 1374SOL    HW2 4144   0.442   4.387   3.487
 1375SOL     OW 4145   1.587   4.503   3.532
 1375SOL    HW1 4146   1.495   4.541   3.527
 1375SOL    HW2 4147   1.647   4.550   3.467
 1376SOL     OW 4148   1.013   3.829   3.632
 1376SOL    HW1 4149   1.019   3.914   3.580
 1376SOL    HW2 4150   1.045   3.753   3.575
 1377SOL     OW 4151   0.504   3.774   3.602
 1377SOL    HW1 4152   0.462   3.717   3.532
 1377SOL    HW2 4153   0.438   3.843   3.634
 1378SOL     OW 4154   0.573   4.594   2.891
 1378SOL    HW1 4155   0.617   4.683   2.882
 1378SOL    HW2 4156   0.510   4.594   2.968
 1379SOL     OW 4157   1.360   4.586   2.907
 1379SOL    HW1 4158   1.285   4.586   2.841
 1379SOL    HW2 4159   1.397   4.494   2.916
 1380SOL     OW 4160   1.209   4.249   2.137
 1380SOL    HW1 4161   1.222   4.165   2.191
 1380SOL    HW2 4162   1.180   4.323   2.197
 1381SOL     OW 4163   0.307   3.937   3.093
 1381SOL    HW1 4164   0.284   3.974   3.183
 1381SOL    HW2 4165   0.277   3.842   3.087
 1382SOL     OW 4166   0.037   5.034   3.144
 1382SOL    HW1 4167   0.090   4.985   3.212
 1382SOL    HW2 4168   0.059   5.132   3.149
 1383SOL     OW 4169   0.732   4.358   2.926
 1383SOL    HW1 4170   0.791   4.332   2.850
 1383SOL    HW2 4171   0.704   4.454   2.915
 1384SOL     OW 4172   1.728   4.659   3.716
 1384SOL    HW1 4173   1.682   4.652   3.627
 1384SOL    HW2 4174   1.666   4.703   3.782
 1385SOL     OW 4175   0.307   3.787   2.480
 1385SOL    HW1 4176   0.296   3.881   2.513
 1385SOL    HW2 4177   0.302   3.724   2.557
 1386SOL     OW 4178   1.622   4.091   2.236
 1386SOL    HW1 4179   1.624   4.015   2.300
 1386SOL    HW2 4180   1.574   4.168   2.276
 1387SOL     OW 4181   1.023   4.490   2.828
 1387SOL    HW1 4182   1.038   4.511   2.924
 1387SOL    HW2 4183   0.993   4.395   2.819
 1388SOL     OW 4184   0.350   4.622   3.666
 1388SOL    HW1 4185   0.426   4.666   3.714
 1388SOL    HW2 4186   0.385   4.575   3.584
 1389SOL     OW 4187   1.540   3.998   1.987
 1389SOL    HW1 4188   1.479   3.923   2.010
 1389SOL    HW2 4189   1.562   4.050   2.070
 1390SOL     OW 4190   1.303   4.562   1.904
 1390SOL    HW1 4191   1.337   4.469   1.919
 1390SOL    HW2 4192   1.321   4.589   1.809
 1391SOL     OW 4193   0.319   4.534   2.811
 1391SOL    HW1 4194   0.412   4.570   2.816
 1391SOL    HW2 4195   0.313   4.449   2.863
 1392SOL     OW 4196   0.339   4.233   2.868
 1392SOL    HW1 4197   0.287   4.150   2.851
 1392SOL    HW2 4198   0.416   4.238   2.804
 1393SOL     OW 4199   1.138   4.104   3.540
 1393SOL    HW1 4200   1.093   4.167   3.604
 1393SOL    HW2 4201   1.231   4.135   3.523
 1394SOL     OW 4202   1.160   3.931   3.339
 1394SOL    HW1 4203   1.160   3.995   3.416
 1394SOL    HW2 4204   1.188   3.979   3.256
 1395SOL     OW 4205   0.008   5.050   2.062
 1395SOL    HW1 4206  -0.085   5.071   2.031
 1395SOL    HW2 4207   0.018   4.951   2.075
 1396SOL     OW 4208   1.002   4.520   3.100
 1396SOL    HW1 4209   1.043   4.488   3.186
 1396SOL    HW2 4210   0.906   4.493   3.097
 1397SOL     OW 4211   0.040   4.268   2.976
 1397SOL    HW1 4212   0.125   4.235   2.935
 1397SOL    HW2 4213   0.053   4.283   3.074
 1398SOL     OW 4214   0.189   4.244   3.584
 1398SOL    HW1 4215   0.248   4.204   3.514
 1398SOL    HW2 4216   0.131   4.315   3.543
 1399SOL     OW 4217   1.369   4.674   3.522
 1399SOL    HW1 4218   1.408   4.763   3.542
 1399SOL    HW2 4219   1.379   4.654   3.425
 1400SOL     OW 4220   0.815   4.296   2.187
 1400SOL    HW1 4221   0.822   4.207   2.141
 1400SOL    HW2 4222   0.721   4.330   2.179
 1401SOL     OW 4223   1.657   4.328   3.068
 1401SOL    HW1 4224   1.619   4.259   3.130
 1401SOL    HW2 4225   1.739   4.292   3.024
 1402SOL     OW 4226   0.671   4.188   3.131
 1402SOL    HW1 4227   0.637   4.099   3.101
 1402SOL    HW2 4228   0.697   4.242   3.051
 1403SOL     OW 4229   0.473   4.224   2.053
 1403SOL    HW1 4230   0.534   4.304   2.057
 1403SOL    HW2 4231   0.378   4.255   2.060
 1404SOL     OW 4232   0.159   4.861   3.328
 1404SOL    HW1 4233   0.181   4.800   3.404
 1404SOL    HW2 4234   0.169   4.812   3.242
 1405SOL     OW 4235   1.347   4.783   3.096
 1405SOL    HW1 4236   1.371   4.720   3.022
 1405SOL    HW2 4237   1.257   4.823   3.078
 1406SOL     OW 4238   1.302   4.579   2.171
 1406SOL    HW1 4239   1.216   4.548   2.213
 1406SOL    HW2 4240   1.298   4.565   2.072
 1407SOL     OW 4241   0.083   4.982   2.884
 1407SOL    HW1 4242   0.078   4.981   2.984
 1407SOL    HW2 4243   0.000   4.941   2.846
 1408SOL     OW 4244   1.726   3.859   2.385
 1408SOL    HW1 4245   1.799   3.842   2.318
 1408SOL    HW2 4246   1.695   3.772   2.423
 1409SOL     OW 4247   1.280   4.651   2.534
 1409SOL    HW1 4248   1.340   4.570   2.536
 1409SOL    HW2 4249   1.320   4.720   2.474
 1410SOL     OW 4250   1.841   3.899   2.825
 1410SOL    HW1 4251   1.880   3.814   2.789
 1410SOL    HW2 4252   1.743   3.901   2.806
 1411SOL     OW 4253   0.263   4.050   2.582
 1411SOL    HW1 4254   0.184   4.101   2.548
 1411SOL    HW2 4255   0.254   4.035   2.680
 1412SOL     OW 4256   1.194   5.336   1.893
 1412SOL    HW1 4257   1.200   5.243   1.930
 1412SOL    HW2 4258   1.135   5.336   1.813
 1413SOL     OW 4259   0.822   4.726   3.234
 1413SOL    HW1 4260   0.862   4.725   3.142
 1413SOL    HW2 4261   0.832   4.818   3.274
 1414SOL     OW 4262   0.916   4.634   2.153
 1414SOL    HW1 4263   0.979   4.672   2.085
 1414SOL    HW2 4264   0.956   4.551   2.192
 1415SOL     OW 4265   0.372   5.012   3.352
 1415SOL    HW1 4266   0.359   5.105   3.318
 1415SOL    HW2 4267   0.288   4.960   3.339
 1416SOL     OW 4268   1.614   5.016   3.151
 1416SOL    HW1 4269   1.674   5.019   3.231
 1416SOL    HW2 4270   1.539   5.080   3.164
 1417SOL     OW 4271   1.039   4.822   2.558
 1417SOL    HW1 4272   0.969   4.775   2.612
 1417SOL    HW2 4273   1.098   4.754   2.515
 1418SOL     OW 4274   1.014   3.960   2.833
 1418SOL    HW1 4275   1.006   3.924   2.740
 1418SOL    HW2 4276   1.012   3.884   2.898
 1419SOL     OW 4277   1.709   4.109   3.243
 1419SOL    HW1 4278   1.782   4.178   3.247
 1419SOL    HW2 4279   1.737   4.034   3.184
 1420SOL     OW 4280   0.105   4.737   3.588
 1420SOL    HW1 4281   0.028   4.704   3.642
 1420SOL    HW2 4282   0.190   4.707   3.630
 1421SOL     OW 4283   0.672   3.927   3.351
 1421SOL    HW1 4284   0.762   3.911   3.311
 1421SOL    HW2 4285   0.680   3.932   3.450
 1422SOL     OW 4286   0.075   4.069   1.895
 1422SOL    HW1 4287  -0.017   4.041   1.866
 1422SOL    HW2 4288   0.106   4.146   1.839
 1423SOL     OW 4289   1.440   4.580   3.260
 1423SOL    HW1 4290   1.383   4.632   3.197
 1423SOL    HW2 4291   1.536   4.592   3.236
 1424SOL     OW 4292   0.072   3.890   2.180
 1424SOL    HW1 4293   0.055   3.973   2.126
 1424SOL    HW2 4294   0.162   3.853   2.158
 1425SOL     OW 4295   0.613   4.566   3.293
 1425SOL    HW1 4296   0.669   4.647   3.276
 1425SOL    HW2 4297   0.672   4.486   3.296
 1426SOL     OW 4298   0.716   4.289   3.570
 1426SOL    HW1 4299   0.735   4.354   3.644
 1426SOL    HW2 4300   0.776   4.209   3.579
 1427SOL     OW 4301   1.450   4.944   3.495
 1427SOL    HW1 4302   1.441   4.934   3.594
 1427SOL    HW2 4303   1.546   4.937   3.469
 1428SOL     OW 4304   1.674   4.607   3.116
 1428SOL    HW1 4305   1.647   4.518   3.079
 1428SOL    HW2 4306   1.675   4.675   3.043
 1429SOL     OW 4307   1.225   4.049   2.311
 1429SOL    HW1 4308   1.290   3.975   2.300
 1429SOL    HW2 4309   1.245   4.099   2.395
 1430SOL     OW 4310   0.594   4.469   2.514
 1430SOL    HW1 4311   0.644   4.554   2.495
 1430SOL    HW2 4312   0.506   4.471   2.466
 1431SOL     OW 4313   1.777   4.066   3.504
 1431SOL    HW1 4314   1.760   4.097   3.410
 1431SOL    HW2 4315   1.693   4.029   3.542
 1432SOL     OW 4316   1.730   4.658   3.379
 1432SOL    HW1 4317   1.768   4.749   3.394
 1432SOL    HW2 4318   1.722   4.641   3.280
 1433SOL     OW 4319   0.859   4.680   2.723
 1433SOL    HW1 4320   0.913   4.611   2.771
 1433SOL    HW2 4321   0.827   4.749   2.789
 1434SOL     OW 4322   1.083   4.708   1.949
 1434SOL    HW1 4323   1.060   4.761   1.867
 1434SOL    HW2 4324   1.164   4.652   1.930
 1435SOL     OW 4325   0.079   4.964   2.515
 1435SOL    HW1 4326   0.078   4.917   2.603
 1435SOL    HW2 4327   0.161   4.936   2.464
 1436SOL     OW 4328   1.824   3.916   3.089
 1436SOL    HW1 4329   1.820   3.826   3.133
 1436SOL    HW2 4330   1.827   3.905   2.990
 1437SOL     OW 4331   0.428   4.148   2.382
 1437SOL    HW1 4332   0.458   4.076   2.320
 1437SOL    HW2 4333   0.389   4.108   2.465
 1438SOL     OW 4334   0.317   4.271   3.142
 1438SOL    HW1 4335   0.355   4.212   3.214
 1438SOL    HW2 4336   0.357   4.245   3.054
 1439SOL     OW 4337   1.424   3.938   2.974
 1439SOL    HW1 4338   1.476   3.873   3.029
 1439SOL    HW2 4339   1.375   4.001   3.035
 1440SOL     OW 4340   1.001   3.758   3.016
 1440SOL    HW1 4341   0.938   3.686   2.985
 1440SOL    HW2 4342   1.094   3.722   3.016
 1441SOL     OW 4343   0.770   5.054   2.163
 1441SOL    HW1 4344   0.724   4.967   2.180
 1441SOL    HW2 4345   0.861   5.051   2.204
 1442SOL     OW 4346   1.352   3.776   2.030
 1442SOL    HW1 4347   1.387   3.735   1.946
 1442SOL    HW2 4348   1.262   3.738   2.050
 1443SOL     OW 4349   1.300   4.177   2.553
 1443SOL    HW1 4350   1.241   4.257   2.557
 1443SOL    HW2 4351   1.315   4.142   2.646
 1444SOL     OW 4352   1.593   3.945   2.744
 1444SOL    HW1 4353   1.509   3.944   2.798
 1444SOL    HW2 4354   1.595   4.028   2.688
 1445SOL     OW 4355   0.039   4.801   2.162
 1445SOL    HW1 4356   0.138   4.790   2.153
 1445SOL    HW2 4357  -0.001   4.715   2.194
 1446SOL     OW 4358   0.230   4.352   3.837
 1446SOL    HW1 4359   0.137   4.350   3.874
 1446SOL    HW2 4360   0.231   4.313   3.745
 1447SOL     OW 4361   0.225   3.999   4.720
 1447SOL    HW1 4362   0.260   3.982   4.812
 1447SOL    HW2 4363   0.137   3.954   4.708
 1448SOL     OW 4364   0.019   4.092   4.371
 1448SOL    HW1 4365  -0.063   4.135   4.410
 1448SOL    HW2 4366  -0.009   4.019   4.308
 1449SOL     OW 4367   1.135   4.427   4.441
 1449SOL    HW1 4368   1.192   4.505   4.416
 1449SOL    HW2 4369   1.075   4.453   4.517
 1450SOL     OW 4370   1.755   4.331   3.955
 1450SOL    HW1 4371   1.743   4.318   3.856
 1450SOL    HW2 4372   1.725   4.250   4.004
 1451SOL     OW 4373   0.768   4.868   4.747
 1451SOL    HW1 4374   0.690   4.885   4.807
 1451SOL    HW2 4375   0.802   4.955   4.711
 1452SOL     OW 4376   0.685   4.736   4.389
 1452SOL    HW1 4377   0.754   4.720   4.459
 1452SOL    HW2 4378   0.612   4.793   4.427
 1453SOL     OW 4379   0.335   5.159   4.785
 1453SOL    HW1 4380   0.257   5.128   4.732
 1453SOL    HW2 4381   0.393   5.217   4.728
 1454SOL     OW 4382   1.603   4.171   4.461
 1454SOL    HW1 4383   1.529   4.217   4.411
 1454SOL    HW2 4384   1.654   4.239   4.514
 1455SOL     OW 4385   0.240   4.815   4.610
 1455SOL    HW1 4386   0.254   4.731   4.662
 1455SOL    HW2 4387   0.185   4.879   4.665
 1456SOL     OW 4388   0.606   4.688   3.847
 1456SOL    HW1 4389   0.613   4.772   3.793
 1456SOL    HW2 4390   0.652   4.701   3.935
 1457SOL     OW 4391   0.122   4.367   4.287
 1457SOL    HW1 4392   0.077   4.279   4.304
 1457SOL    HW2 4393   0.121   4.421   4.371
 1458SOL     OW 4394   1.689   4.646   4.336
 1458SOL    HW1 4395   1.784   4.617   4.344
 1458SOL    HW2 4396   1.681   4.711   4.261
 1459SOL     OW 4397   1.641   4.832   4.156
 1459SOL    HW1 4398   1.727   4.834   4.104
 1459SOL    HW2 4399   1.655   4.879   4.244
 1460SOL     OW 4400   0.113   4.461   5.321
 1460SOL    HW1 4401   0.201   4.448   5.366
 1460SOL    HW2 4402   0.100   4.558   5.299
 1461SOL     OW 4403   0.809   3.728   4.226
 1461SOL    HW1 4404   0.849   3.819   4.217
 1461SOL    HW2 4405   0.709   3.736   4.232
 1462SOL     OW 4406   0.197   4.700   4.988
 1462SOL    HW1 4407   0.286   4.655   4.974
 1462SOL    HW2 4408   0.124   4.635   4.969
 1463SOL     OW 4409   1.525   4.723   3.914
 1463SOL    HW1 4410   1.462   4.647   3.927
 1463SOL    HW2 4411   1.573   4.741   4.000
 1464SOL     OW 4412   0.598   4.453   3.994
 1464SOL    HW1 4413   0.622   4.522   3.926
 1464SOL    HW2 4414   0.520   4.486   4.048
 1465SOL     OW 4415   1.281   4.069   4.668
 1465SOL    HW1 4416   1.195   4.019   4.655
 1465SOL    HW2 4417   1.343   4.015   4.724
 1466SOL     OW 4418   1.041   4.425   4.153
 1466SOL    HW1 4419   1.067   4.421   4.249
 1466SOL    HW2 4420   0.956   4.374   4.139
 1467SOL     OW 4421   0.076   4.535   4.513
 1467SOL    HW1 4422   0.175   4.523   4.522
 1467SOL    HW2 4423   0.052   4.630   4.534
 1468SOL     OW 4424   0.865   4.072   3.919
 1468SOL    HW1 4425   0.924   4.135   3.870
 1468SOL    HW2 4426   0.884   3.978   3.890
 1469SOL     OW 4427   1.362   4.868   4.269
 1469SOL    HW1 4428   1.445   4.839   4.221
 1469SOL    HW2 4429   1.313   4.935   4.213
 1470SOL     OW 4430   0.550   3.920   4.609
 1470SOL    HW1 4431   0.545   3.915   4.709
 1470SOL    HW2 4432   0.552   4.016   4.580
 1471SOL     OW 4433   1.795   4.790   4.597
 1471SOL    HW1 4434   1.733   4.775   4.521
 1471SOL    HW2 4435   1.743   4.801   4.682
 1472SOL     OW 4436   0.321   4.667   3.966
 1472SOL    HW1 4437   0.403   4.706   3.924
 1472SOL    HW2 4438   0.294   4.585   3.917
 1473SOL     OW 4439   1.458   4.459   4.452
 1473SOL    HW1 4440   1.453   4.394   4.527
 1473SOL    HW2 4441   1.538   4.518   4.465
 1474SOL     OW 4442   1.400   3.831   4.150
 1474SOL    HW1 4443   1.376   3.794   4.060
 1474SOL    HW2 4444   1.499   3.847   4.154
 1475SOL     OW 4445   0.382   4.424   4.204
 1475SOL    HW1 4446   0.427   4.334   4.201
 1475SOL    HW2 4447   0.288   4.413   4.237
 1476SOL     OW 4448   0.614   3.846   3.841
 1476SOL    HW1 4449   0.712   3.824   3.848
 1476SOL    HW2 4450   0.583   3.829   3.748
 1477SOL     OW 4451   0.803   5.126   4.648
 1477SOL    HW1 4452   0.893   5.140   4.606
 1477SOL    HW2 4453   0.732   5.128   4.577
 1478SOL     OW 4454   0.922   4.227   4.623
 1478SOL    HW1 4455   0.897   4.218   4.527
 1478SOL    HW2 4456   0.970   4.145   4.654
 1479SOL     OW 4457   0.539   3.788   4.236
 1479SOL    HW1 4458   0.458   3.789   4.294
 1479SOL    HW2 4459   0.542   3.871   4.181
 1480SOL     OW 4460   0.297   3.759   3.895
 1480SOL    HW1 4461   0.346   3.843   3.874
 1480SOL    HW2 4462   0.359   3.694   3.940
 1481SOL     OW 4463   0.935   3.960   4.204
 1481SOL    HW1 4464   0.887   4.001   4.126
 1481SOL    HW2 4465   1.034   3.958   4.185
 1482SOL     OW 4466   0.459   4.876   4.465
 1482SOL    HW1 4467   0.388   4.849   4.530
 1482SOL    HW2 4468   0.433   4.848   4.372
 1483SOL     OW 4469   1.032   4.273   3.740
 1483SOL    HW1 4470   0.991   4.355   3.701
 1483SOL    HW2 4471   1.096   4.299   3.813
 1484SOL     OW 4472   0.561   3.946   4.871
 1484SOL    HW1 4473   0.599   3.862   4.908
 1484SOL    HW2 4474   0.473   3.965   4.915
 1485SOL     OW 4475   0.866   4.178   4.366
 1485SOL    HW1 4476   0.834   4.250   4.304
 1485SOL    HW2 4477   0.890   4.097   4.313
 1486SOL     OW 4478   1.017   3.763   4.477
 1486SOL    HW1 4479   0.945   3.768   4.408
 1486SOL    HW2 4480   0.993   3.694   4.546
 1487SOL     OW 4481   1.429   4.897   4.591
 1487SOL    HW1 4482   1.374   4.813   4.584
 1487SOL    HW2 4483   1.455   4.926   4.499
 1488SOL     OW 4484   1.466   4.314   4.716
 1488SOL    HW1 4485   1.436   4.219   4.723
 1488SOL    HW2 4486   1.539   4.330   4.782
 1489SOL     OW 4487   1.857   4.557   4.101
 1489SOL    HW1 4488   1.899   4.493   4.165
 1489SOL    HW2 4489   1.819   4.506   4.023
 1490SOL     OW 4490   1.390   4.299   3.802
 1490SOL    HW1 4491   1.336   4.278   3.883
 1490SOL    HW2 4492   1.481   4.258   3.811
 1491SOL     OW 4493   0.527   3.980   4.052
 1491SOL    HW1 4494   0.554   3.921   3.977
 1491SOL    HW2 4495   0.527   4.075   4.021
 1492SOL     OW 4496   1.638   4.823   4.803
 1492SOL    HW1 4497   1.643   4.904   4.862
 1492SOL    HW2 4498   1.552   4.825   4.752
 1493SOL     OW 4499   0.705   4.774   4.092
 1493SOL    HW1 4500   0.691   4.781   4.191
 1493SOL    HW2 4501   0.789   4.723   4.074
 1494SOL     OW 4502   0.410   4.537   4.975
 1494SOL    HW1 4503   0.496   4.549   5.025
 1494SOL    HW2 4504   0.368   4.450   5.002
 1495SOL     OW 4505   1.274   4.110   4.986
 1495SOL    HW1 4506   1.295   4.184   5.050
 1495SOL    HW2 4507   1.185   4.127   4.943
 1496SOL     OW 4508   0.367   4.824   4.225
 1496SOL    HW1 4509   0.360   4.907   4.169
 1496SOL    HW2 4510   0.371   4.744   4.165
 1497SOL     OW 4511   0.566   4.261   4.589
 1497SOL    HW1 4512   0.578   4.327   4.515
 1497SOL    HW2 4513   0.612   4.295   4.672
 1498SOL     OW 4514   1.582   4.363   4.196
 1498SOL    HW1 4515   1.551   4.424   4.269
 1498SOL    HW2 4516   1.632   4.415   4.127
 1499SOL     OW 4517   0.573   4.594   4.753
 1499SOL    HW1 4518   0.617   4.683   4.744
 1499SOL    HW2 4519   0.510   4.594   4.830
 1500SOL     OW 4520   1.360   4.586   4.769
 1500SOL    HW1 4521   1.285   4.586   4.703
 1500SOL    HW2 4522   1.397   4.494   4.778
 1501SOL     OW 4523   1.209   4.249   3.999
 1501SOL    HW1 4524   1.222   4.165   4.053
 1501SOL    HW2 4525   1.180   4.323   4.059
 1502SOL     OW 4526   0.307   3.937   4.955
 1502SOL    HW1 4527   0.284   3.974   5.045
 1502SOL    HW2 4528   0.277   3.842   4.949
 1503SOL     OW 4529   0.037   5.034   5.006
 1503SOL    HW1 4530   0.090   4.985   5.074
 1503SOL    HW2 4531   0.059   5.132   5.011
 1504SOL     OW 4532   0.732   4.358   4.788
 1504SOL    HW1 4533   0.791   4.332   4.712
 1504SOL    HW2 4534   0.704   4.454   4.777
 1505SOL     OW 4535   0.307   3.787   4.342
 1505SOL    HW1 4536   0.296   3.881   4.375
 1505SOL    HW2 4537   0.302   3.724   4.419
 1506SOL     OW 4538   1.622   4.091   4.098
 1506SOL    HW1 4539   1.624   4.015   4.162
 1506SOL    HW2 4540   1.574   4.168   4.138
 1507SOL     OW 4541   1.023   4.490   4.690
 1507SOL    HW1 4542   1.038   4.511   4.786
 1507SOL    HW2 4543   0.993   4.395   4.681
 1508SOL     OW 4544   1.540   3.998   3.849
 1508SOL    HW1 4545   1.479   3.923   3.872
 1508SOL    HW2 4546   1.562   4.050   3.932
 1509SOL     OW 4547   1.303   4.562   3.766
 1509SOL    HW1 4548   1.337   4.469   3.781
 1509SOL    HW2 4549   1.321   4.589   3.671
 1510SOL     OW 4550   0.319   4.534   4.673
 1510SOL    HW1 4551   0.412   4.570   4.678
 1510SOL    HW2 4552   0.313   4.449   4.725
 1511SOL     OW 4553   0.339   4.233   4.730
 1511SOL    HW1 4554   0.287   4.150   4.713
 1511SOL    HW2 4555   0.416   4.238   4.666
 1512SOL     OW 4556   1.160   3.931   5.201
 1512SOL    HW1 4557   1.160   3.995   5.278
 1512SOL    HW2 4558   1.188   3.979   5.118
 1513SOL     OW 4559   0.008   5.050   3.924
 1513SOL    HW1 4560  -0.085   5.071   3.893
 1513SOL    HW2 4561   0.018   4.951   3.937
 1514SOL     OW 4562   1.002   4.520   4.962
 1514SOL    HW1 4563   1.043   4.488   5.048
 1514SOL    HW2 4564   0.906   4.493   4.959
 1515SOL     OW 4565   0.040   4.268   4.838
 1515SOL    HW1 4566   0.125   4.235   4.797
 1515SOL    HW2 4567   0.053   4.283   4.936
 1516SOL     OW 4568   0.815   4.296   4.049
 1516SOL    HW1 4569   0.822   4.207   4.003
 1516SOL    HW2 4570   0.721   4.330   4.041
 1517SOL     OW 4571   1.657   4.328   4.930
 1517SOL    HW1 4572   1.619   4.259   4.992
 1517SOL    HW2 4573   1.739   4.292   4.886
 1518SOL     OW 4574   0.671   4.188   4.993
 1518SOL    HW1 4575   0.637   4.099   4.963
 1518SOL    HW2 4576   0.697   4.242   4.913
 1519SOL     OW 4577   0.473   4.224   3.915
 1519SOL    HW1 4578   0.534   4.304   3.919
 1519SOL    HW2 4579   0.378   4.255   3.922
 1520SOL     OW 4580   1.347   4.783   4.958
 1520SOL    HW1 4581   1.371   4.720   4.884
 1520SOL    HW2 4582   1.257   4.823   4.940
 1521SOL     OW 4583   1.302   4.579   4.033
 1521SOL    HW1 4584   1.216   4.548   4.075
 1521SOL    HW2 4585   1.298   4.565   3.934
 1522SOL     OW 4586   0.083   4.982   4.746
 1522SOL    HW1 4587   0.078   4.981   4.846
 1522SOL    HW2 4588   0.000   4.941   4.708
 1523SOL     OW 4589   1.726   3.859   4.247
 1523SOL    HW1 4590   1.799   3.842   4.180
 1523SOL    HW2 4591   1.695   3.772   4.285
 1524SOL     OW 4592   1.280   4.651   4.396
 1524SOL    HW1 4593   1.340   4.570   4.398
 1524SOL    HW2 4594   1.320   4.720   4.336
 1525SOL     OW 4595   1.841   3.899   4.687
 1525SOL    HW1 4596   1.880   3.814   4.651
 1525SOL    HW2 4597   1.743   3.901   4.668
 1526SOL     OW 4598   0.263   4.050   4.444
 1526SOL    HW1 4599   0.184   4.101   4.410
 1526SOL    HW2 4600   0.254   4.035   4.542
 1527SOL     OW 4601   1.194   5.336   3.755
 1527SOL    HW1 4602   1.200   5.243   3.792
 1527SOL    HW2 4603   1.135   5.336   3.675
 1528SOL     OW 4604   0.822   4.726   5.096
 1528SOL    HW1 4605   0.862   4.725   5.004
 1528SOL    HW2 4606   0.832   4.818   5.136
 1529SOL     OW 4607   0.916   4.634   4.015
 1529SOL    HW1 4608   0.979   4.672   3.947
 1529SOL    HW2 4609   0.956   4.551   4.054
 1530SOL     OW 4610   1.614   5.016   5.013
 1530SOL    HW1 4611   1.674   5.019   5.093
 1530SOL    HW2 4612   1.539   5.080   5.026
 1531SOL     OW 4613   1.039   4.822   4.420
 1531SOL    HW1 4614   0.969   4.775   4.474
 1531SOL    HW2 4615   1.098   4.754   4.377
 1532SOL     OW 4616   1.014   3.960   4.695
 1532SOL    HW1 4617   1.006   3.924   4.602
 1532SOL    HW2 4618   1.012   3.884   4.760
 1533SOL     OW 4619   1.709   4.109   5.105
 1533SOL    HW1 4620   1.782   4.178   5.109
 1533SOL    HW2 4621   1.737   4.034   5.046
 1534SOL     OW 4622   0.075   4.069   3.757
 1534SOL    HW1 4623  -0.017   4.041   3.728
 1534SOL    HW2 4624   0.106   4.146   3.701
 1535SOL     OW 4625   0.072   3.890   4.042
 1535SOL    HW1 4626   0.055   3.973   3.988
 1535SOL    HW2 4627   0.162   3.853   4.020
 1536SOL     OW 4628   1.674   4.607   4.978
 1536SOL    HW1 4629   1.647   4.518   4.941
 1536SOL    HW2 4630   1.675   4.675   4.905
 1537SOL     OW 4631   1.225   4.049   4.173
 1537SOL    HW1 4632   1.290   3.975   4.162
 1537SOL    HW2 4633   1.245   4.099   4.257
 1538SOL     OW 4634   0.594   4.469   4.376
 1538SOL    HW1 4635   0.644   4.554   4.357
 1538SOL    HW2 4636   0.506   4.471   4.328
 1539SOL     OW 4637   1.730   4.658   5.241
 1539SOL    HW1 4638   1.768   4.749   5.256
 1539SOL    HW2 4639   1.722   4.641   5.142
 1540SOL     OW 4640   0.859   4.680   4.585
 1540SOL    HW1 4641   0.913   4.611   4.633
 1540SOL    HW2 4642   0.827   4.749   4.651
 1541SOL     OW 4643   1.083   4.708   3.811
 1541SOL    HW1 4644   1.060   4.761   3.729
 1541SOL    HW2 4645   1.164   4.652   3.792
 1542SOL     OW 4646   0.079   4.964   4.377
 1542SOL    HW1 4647   0.078   4.917   4.465
 1542SOL    HW2 4648   0.161   4.936   4.326
 1543SOL     OW 4649   1.824   3.916   4.951
 1543SOL    HW1 4650   1.820   3.826   4.995
 1543SOL    HW2 4651   1.827   3.905   4.852
 1544SOL     OW 4652   0.428   4.148   4.244
 1544SOL    HW1 4653   0.458   4.076   4.182
 1544SOL    HW2 4654   0.389   4.108   4.327
 1545SOL     OW 4655   1.424   3.938   4.836
 1545SOL    HW1 4656   1.476   3.873   4.891
 1545SOL    HW2 4657   1.375   4.001   4.897
 1546SOL     OW 4658   1.001   3.758   4.878
 1546SOL    HW1 4659   0.938   3.686   4.847
 1546SOL    HW2 4660   1.094   3.722   4.878
 1547SOL     OW 4661   0.770   5.054   4.025
 1547SOL    HW1 4662   0.724   4.967   4.042
 1547SOL    HW2 4663   0.861   5.051   4.066
 1548SOL     OW 4664   1.352   3.776   3.892
 1548SOL    HW1 4665   1.387   3.735   3.808
 1548SOL    HW2 4666   1.262   3.738   3.912
 1549SOL     OW 4667   1.300   4.177   4.415
 1549SOL    HW1 4668   1.241   4.257   4.419
 1549SOL    HW2 4669   1.315   4.142   4.508
 1550SOL     OW 4670   1.593   3.945   4.606
 1550SOL    HW1 4671   1.509   3.944   4.660
 1550SOL    HW2 4672   1.595   4.028   4.550
 1551SOL     OW 4673   0.039   4.801   4.024
 1551SOL    HW1 4674   0.138   4.790   4.015
 1551SOL    HW2 4675  -0.001   4.715   4.056
 1552SOL     OW 4676   2.092   0.628   0.113
 1552SOL    HW1 4677   1.999   0.626   0.150
 1552SOL    HW2 4678   2.093   0.589   0.021
 1553SOL     OW 4679   2.087   0.275   0.996
 1553SOL    HW1 4680   2.122   0.258   1.088
 1553SOL    HW2 4681   1.999   0.230   0.984
 1554SOL     OW 4682   1.881   0.368   0.647
 1554SOL    HW1 4683   1.799   0.411   0.686
 1554SOL    HW2 4684   1.853   0.295   0.584
 1555SOL     OW 4685   2.431   1.275   1.165
 1555SOL    HW1 4686   2.338   1.268   1.128
 1555SOL    HW2 4687   2.442   1.364   1.209
 1556SOL     OW 4688   3.417   1.511   0.703
 1556SOL    HW1 4689   3.360   1.495   0.784
 1556SOL    HW2 4690   3.358   1.521   0.623
 1557SOL     OW 4691   2.997   0.703   0.717
 1557SOL    HW1 4692   3.054   0.781   0.692
 1557SOL    HW2 4693   2.937   0.729   0.793
 1558SOL     OW 4694   3.617   0.607   0.231
 1558SOL    HW1 4695   3.605   0.594   0.132
 1558SOL    HW2 4696   3.587   0.526   0.280
 1559SOL     OW 4697   2.630   1.144   1.023
 1559SOL    HW1 4698   2.552   1.161   1.083
 1559SOL    HW2 4699   2.664   1.231   0.987
 1560SOL     OW 4700   2.712   0.798   1.823
 1560SOL    HW1 4701   2.708   0.874   1.888
 1560SOL    HW2 4702   2.734   0.834   1.732
 1561SOL     OW 4703   2.547   1.012   0.665
 1561SOL    HW1 4704   2.616   0.996   0.735
 1561SOL    HW2 4705   2.474   1.069   0.703
 1562SOL     OW 4706   2.548   1.161   1.803
 1562SOL    HW1 4707   2.608   1.240   1.817
 1562SOL    HW2 4708   2.462   1.192   1.762
 1563SOL     OW 4709   2.197   1.435   1.061
 1563SOL    HW1 4710   2.119   1.404   1.008
 1563SOL    HW2 4711   2.255   1.493   1.004
 1564SOL     OW 4712   3.322   1.505   1.339
 1564SOL    HW1 4713   3.346   1.599   1.365
 1564SOL    HW2 4714   3.306   1.451   1.421
 1565SOL     OW 4715   2.300   0.392   1.499
 1565SOL    HW1 4716   2.382   0.336   1.508
 1565SOL    HW2 4717   2.219   0.334   1.503
 1566SOL     OW 4718   3.465   0.447   0.737
 1566SOL    HW1 4719   3.391   0.493   0.687
 1566SOL    HW2 4720   3.516   0.515   0.790
 1567SOL     OW 4721   2.093   1.713   0.483
 1567SOL    HW1 4722   2.127   1.790   0.537
 1567SOL    HW2 4723   2.137   1.713   0.393
 1568SOL     OW 4724   2.989   1.341   1.690
 1568SOL    HW1 4725   3.036   1.341   1.778
 1568SOL    HW2 4726   2.941   1.254   1.679
 1569SOL     OW 4727   2.092   1.434   0.538
 1569SOL    HW1 4728   2.066   1.530   0.538
 1569SOL    HW2 4729   2.021   1.380   0.583
 1570SOL     OW 4730   2.102   1.091   0.886
 1570SOL    HW1 4731   2.116   1.007   0.938
 1570SOL    HW2 4732   2.047   1.155   0.941
 1571SOL     OW 4733   2.482   1.786   1.439
 1571SOL    HW1 4734   2.390   1.769   1.474
 1571SOL    HW2 4735   2.510   1.878   1.465
 1572SOL     OW 4736   2.468   0.964   0.123
 1572SOL    HW1 4737   2.475   1.048   0.069
 1572SOL    HW2 4738   2.514   0.977   0.211
 1573SOL     OW 4739   3.456   0.114   1.480
 1573SOL    HW1 4740   3.438   0.181   1.408
 1573SOL    HW2 4741   3.453   0.160   1.569
 1574SOL     OW 4742   1.984   0.643   0.563
 1574SOL    HW1 4743   1.939   0.555   0.580
 1574SOL    HW2 4744   1.983   0.697   0.647
 1575SOL     OW 4745   3.704   1.767   0.359
 1575SOL    HW1 4746   3.758   1.738   0.439
 1575SOL    HW2 4747   3.734   1.857   0.330
 1576SOL     OW 4748   1.889   1.596   0.117
 1576SOL    HW1 4749   1.870   1.500   0.138
 1576SOL    HW2 4750   1.856   1.654   0.192
 1577SOL     OW 4751   3.551   0.922   0.612
 1577SOL    HW1 4752   3.646   0.893   0.620
 1577SOL    HW2 4753   3.543   0.987   0.537
 1578SOL     OW 4754   3.503   1.108   0.432
 1578SOL    HW1 4755   3.589   1.110   0.380
 1578SOL    HW2 4756   3.517   1.155   0.520
 1579SOL     OW 4757   1.975   0.737   1.597
 1579SOL    HW1 4758   2.063   0.724   1.642
 1579SOL    HW2 4759   1.962   0.834   1.575
 1580SOL     OW 4760   2.475   1.365   0.726
 1580SOL    HW1 4761   2.426   1.278   0.735
 1580SOL    HW2 4762   2.452   1.408   0.639
 1581SOL     OW 4763   3.155   1.228   1.423
 1581SOL    HW1 4764   3.192   1.155   1.365
 1581SOL    HW2 4765   3.207   1.233   1.508
 1582SOL     OW 4766   2.671   0.004   0.502
 1582SOL    HW1 4767   2.711   0.095   0.493
 1582SOL    HW2 4768   2.571   0.012   0.508
 1583SOL     OW 4769   2.059   0.976   1.264
 1583SOL    HW1 4770   2.148   0.931   1.250
 1583SOL    HW2 4771   1.986   0.911   1.245
 1584SOL     OW 4772   3.387   0.999   0.190
 1584SOL    HW1 4773   3.324   0.923   0.203
 1584SOL    HW2 4774   3.435   1.017   0.276
 1585SOL     OW 4775   3.049   1.792   1.616
 1585SOL    HW1 4776   3.073   1.852   1.540
 1585SOL    HW2 4777   3.056   1.697   1.586
 1586SOL     OW 4778   2.179   0.251   1.801
 1586SOL    HW1 4779   2.250   0.322   1.807
 1586SOL    HW2 4780   2.091   0.290   1.829
 1587SOL     OW 4781   3.328   1.417   0.953
 1587SOL    HW1 4782   3.269   1.423   1.033
 1587SOL    HW2 4783   3.313   1.329   0.907
 1588SOL     OW 4784   3.529   1.714   0.572
 1588SOL    HW1 4785   3.488   1.691   0.484
 1588SOL    HW2 4786   3.511   1.640   0.637
 1589SOL     OW 4787   2.460   0.729   0.270
 1589SOL    HW1 4788   2.484   0.798   0.202
 1589SOL    HW2 4789   2.382   0.762   0.324
 1590SOL     OW 4790   3.143   0.345   0.944
 1590SOL    HW1 4791   3.057   0.295   0.931
 1590SOL    HW2 4792   3.205   0.291   1.000
 1591SOL     OW 4793   3.438   1.662   0.307
 1591SOL    HW1 4794   3.527   1.708   0.310
 1591SOL    HW2 4795   3.417   1.638   0.212
 1592SOL     OW 4796   2.669   0.605   1.465
 1592SOL    HW1 4797   2.622   0.602   1.554
 1592SOL    HW2 4798   2.618   0.550   1.399
 1593SOL     OW 4799   3.256   0.469   1.674
 1593SOL    HW1 4800   3.236   0.512   1.762
 1593SOL    HW2 4801   3.334   0.407   1.683
 1594SOL     OW 4802   2.835   0.890   1.572
 1594SOL    HW1 4803   2.881   0.806   1.543
 1594SOL    HW2 4804   2.779   0.924   1.497
 1595SOL     OW 4805   2.853   0.410   1.242
 1595SOL    HW1 4806   2.776   0.444   1.296
 1595SOL    HW2 4807   2.819   0.359   1.163
 1596SOL     OW 4808   2.903   0.701   0.429
 1596SOL    HW1 4809   2.929   0.697   0.525
 1596SOL    HW2 4810   2.818   0.650   0.415
 1597SOL     OW 4811   1.938   0.811   0.789
 1597SOL    HW1 4812   2.037   0.799   0.798
 1597SOL    HW2 4813   1.914   0.906   0.810
 1598SOL     OW 4814   1.992   1.821   1.571
 1598SOL    HW1 4815   1.982   1.806   1.670
 1598SOL    HW2 4816   1.906   1.857   1.535
 1599SOL     OW 4817   2.727   0.348   0.195
 1599SOL    HW1 4818   2.786   0.411   0.146
 1599SOL    HW2 4819   2.746   0.254   0.166
 1600SOL     OW 4820   3.581   0.585   1.831
 1600SOL    HW1 4821   3.555   0.674   1.795
 1600SOL    HW2 4822   3.579   0.517   1.758
 1601SOL     OW 4823   3.224   1.144   0.545
 1601SOL    HW1 4824   3.307   1.115   0.497
 1601SOL    HW2 4825   3.175   1.211   0.489
 1602SOL     OW 4826   2.412   0.196   0.885
 1602SOL    HW1 4827   2.407   0.191   0.985
 1602SOL    HW2 4828   2.414   0.292   0.856
 1603SOL     OW 4829   2.870   1.456   0.477
 1603SOL    HW1 4830   2.824   1.528   0.425
 1603SOL    HW2 4831   2.866   1.476   0.575
 1604SOL     OW 4832   2.213   1.801   0.853
 1604SOL    HW1 4833   2.263   1.715   0.859
 1604SOL    HW2 4834   2.278   1.878   0.850
 1605SOL     OW 4835   3.657   1.066   0.873
 1605SOL    HW1 4836   3.595   1.051   0.797
 1605SOL    HW2 4837   3.605   1.077   0.958
 1606SOL     OW 4838   3.089   1.550   1.506
 1606SOL    HW1 4839   3.095   1.473   1.570
 1606SOL    HW2 4840   3.037   1.524   1.426
 1607SOL     OW 4841   2.183   0.943   0.242
 1607SOL    HW1 4842   2.265   0.982   0.200
 1607SOL    HW2 4843   2.156   0.861   0.193
 1608SOL     OW 4844   3.320   0.735   0.728
 1608SOL    HW1 4845   3.315   0.670   0.803
 1608SOL    HW2 4846   3.400   0.794   0.741
 1609SOL     OW 4847   2.323   1.266   1.727
 1609SOL    HW1 4848   2.273   1.267   1.641
 1609SOL    HW2 4849   2.260   1.248   1.803
 1610SOL     OW 4850   2.973   1.776   0.237
 1610SOL    HW1 4851   2.913   1.714   0.287
 1610SOL    HW2 4852   3.004   1.732   0.152
 1611SOL     OW 4853   2.064   0.285   1.498
 1611SOL    HW1 4854   1.984   0.345   1.485
 1611SOL    HW2 4855   2.054   0.236   1.584
 1612SOL     OW 4856   3.494   1.377   0.081
 1612SOL    HW1 4857   3.462   1.471   0.071
 1612SOL    HW2 4858   3.418   1.314   0.069
 1613SOL     OW 4859   2.326   1.743   0.323
 1613SOL    HW1 4860   2.359   1.782   0.409
 1613SOL    HW2 4861   2.402   1.736   0.258
 1614SOL     OW 4862   3.262   0.107   0.426
 1614SOL    HW1 4863   3.238   0.070   0.336
 1614SOL    HW2 4864   3.361   0.123   0.430
 1615SOL     OW 4865   2.111   1.785   1.241
 1615SOL    HW1 4866   2.168   1.720   1.291
 1615SOL    HW2 4867   2.095   1.752   1.148
 1616SOL     OW 4868   2.802   1.698   0.904
 1616SOL    HW1 4869   2.882   1.641   0.925
 1616SOL    HW2 4870   2.753   1.658   0.827
 1617SOL     OW 4871   2.244   0.700   0.480
 1617SOL    HW1 4872   2.289   0.610   0.477
 1617SOL    HW2 4873   2.150   0.689   0.513
 1618SOL     OW 4874   3.409   0.222   1.729
 1618SOL    HW1 4875   3.404   0.259   1.821
 1618SOL    HW2 4876   3.337   0.153   1.717
 1619SOL     OW 4877   2.476   0.122   0.117
 1619SOL    HW1 4878   2.574   0.100   0.124
 1619SOL    HW2 4879   2.445   0.105   0.024
 1620SOL     OW 4880   2.643   0.264   1.749
 1620SOL    HW1 4881   2.710   0.203   1.792
 1620SOL    HW2 4882   2.570   0.283   1.814
 1621SOL     OW 4883   2.750   1.514   1.195
 1621SOL    HW1 4884   2.727   1.489   1.101
 1621SOL    HW2 4885   2.811   1.445   1.234
 1622SOL     OW 4886   3.213   0.590   1.433
 1622SOL    HW1 4887   3.241   0.547   1.518
 1622SOL    HW2 4888   3.238   0.686   1.434
 1623SOL     OW 4889   2.665   1.402   0.924
 1623SOL    HW1 4890   2.755   1.416   0.882
 1623SOL    HW2 4891   2.594   1.404   0.853
 1624SOL     OW 4892   2.784   0.503   0.899
 1624SOL    HW1 4893   2.759   0.494   0.803
 1624SOL    HW2 4894   2.832   0.421   0.930
 1625SOL     OW 4895   2.401   0.064   0.512
 1625SOL    HW1 4896   2.320   0.065   0.570
 1625SOL    HW2 4897   2.404   0.147   0.457
 1626SOL     OW 4898   3.296   1.188   0.041
 1626SOL    HW1 4899   3.328   1.112   0.098
 1626SOL    HW2 4900   3.204   1.215   0.071
 1627SOL     OW 4901   2.159   0.035   0.171
 1627SOL    HW1 4902   2.208   0.119   0.150
 1627SOL    HW2 4903   2.221  -0.030   0.216
 1628SOL     OW 4904   2.797   0.236   0.480
 1628SOL    HW1 4905   2.749   0.277   0.402
 1628SOL    HW2 4906   2.896   0.234   0.461
 1629SOL     OW 4907   2.938   0.683   1.464
 1629SOL    HW1 4908   2.858   0.622   1.467
 1629SOL    HW2 4909   3.019   0.630   1.440
 1630SOL     OW 4910   3.089   1.570   0.793
 1630SOL    HW1 4911   3.110   1.644   0.728
 1630SOL    HW2 4912   3.157   1.570   0.866
 1631SOL     OW 4913   2.321   1.152   0.741
 1631SOL    HW1 4914   2.250   1.125   0.806
 1631SOL    HW2 4915   2.295   1.124   0.648
 1632SOL     OW 4916   3.133   1.797   0.591
 1632SOL    HW1 4917   3.177   1.861   0.527
 1632SOL    HW2 4918   3.083   1.849   0.661
 1633SOL     OW 4919   2.894   0.549   0.016
 1633SOL    HW1 4920   2.853   0.631  -0.023
 1633SOL    HW2 4921   2.958   0.575   0.089
 1634SOL     OW 4922   1.940   0.556   1.386
 1634SOL    HW1 4923   2.032   0.555   1.345
 1634SOL    HW2 4924   1.934   0.630   1.453
 1635SOL     OW 4925   2.423   0.222   1.147
 1635SOL    HW1 4926   2.461   0.138   1.184
 1635SOL    HW2 4927   2.335   0.241   1.191
 1636SOL     OW 4928   2.728   0.454   0.642
 1636SOL    HW1 4929   2.696   0.526   0.580
 1636SOL    HW2 4930   2.752   0.373   0.589
 1637SOL     OW 4931   2.879   0.039   0.753
 1637SOL    HW1 4932   2.807   0.044   0.684
 1637SOL    HW2 4933   2.855  -0.030   0.822
 1638SOL     OW 4934   3.291   1.173   0.867
 1638SOL    HW1 4935   3.236   1.089   0.860
 1638SOL    HW2 4936   3.317   1.202   0.775
 1639SOL     OW 4937   3.328   0.590   0.992
 1639SOL    HW1 4938   3.298   0.495   0.999
 1639SOL    HW2 4939   3.401   0.606   1.058
 1640SOL     OW 4940   3.719   0.833   0.377
 1640SOL    HW1 4941   3.761   0.769   0.441
 1640SOL    HW2 4942   3.681   0.782   0.299
 1641SOL     OW 4943   2.350   1.385   0.174
 1641SOL    HW1 4944   2.263   1.370   0.221
 1641SOL    HW2 4945   2.333   1.411   0.079
 1642SOL     OW 4946   3.526   1.280   0.657
 1642SOL    HW1 4947   3.625   1.288   0.671
 1642SOL    HW2 4948   3.481   1.364   0.688
 1643SOL     OW 4949   3.252   0.575   0.078
 1643SOL    HW1 4950   3.198   0.554   0.159
 1643SOL    HW2 4951   3.343   0.534   0.087
 1644SOL     OW 4952   2.389   0.256   0.328
 1644SOL    HW1 4953   2.416   0.197   0.253
 1644SOL    HW2 4954   2.389   0.351   0.297
 1645SOL     OW 4955   3.616   1.223   1.588
 1645SOL    HW1 4956   3.707   1.184   1.575
 1645SOL    HW2 4957   3.624   1.319   1.612
 1646SOL     OW 4958   2.926   1.347   1.340
 1646SOL    HW1 4959   2.846   1.324   1.395
 1646SOL    HW2 4960   3.009   1.321   1.389
 1647SOL     OW 4961   3.454   1.629   1.625
 1647SOL    HW1 4962   3.481   1.663   1.535
 1647SOL    HW2 4963   3.533   1.591   1.671
 1648SOL     OW 4964   2.973   1.195   1.100
 1648SOL    HW1 4965   2.933   1.239   1.181
 1648SOL    HW2 4966   2.932   1.232   1.017
 1649SOL     OW 4967   3.500   1.099   1.079
 1649SOL    HW1 4968   3.505   1.180   1.138
 1649SOL    HW2 4969   3.414   1.101   1.028
 1650SOL     OW 4970   2.777   0.089   1.402
 1650SOL    HW1 4971   2.802   0.069   1.307
 1650SOL    HW2 4972   2.849   0.145   1.444
 1651SOL     OW 4973   2.842   1.116   1.719
 1651SOL    HW1 4974   2.743   1.122   1.729
 1651SOL    HW2 4975   2.865   1.036   1.663
 1652SOL     OW 4976   2.567   1.050   0.368
 1652SOL    HW1 4977   2.553   1.057   0.467
 1652SOL    HW2 4978   2.651   0.999   0.350
 1653SOL     OW 4979   2.272   0.813   1.251
 1653SOL    HW1 4980   2.358   0.825   1.301
 1653SOL    HW2 4981   2.230   0.726   1.278
 1654SOL     OW 4982   3.136   0.386   1.262
 1654SOL    HW1 4983   3.157   0.460   1.326
 1654SOL    HW2 4984   3.047   0.403   1.219
 1655SOL     OW 4985   1.926   1.564   1.331
 1655SOL    HW1 4986   1.880   1.646   1.297
 1655SOL    HW2 4987   2.024   1.583   1.340
 1656SOL     OW 4988   2.229   1.100   0.501
 1656SOL    HW1 4989   2.222   1.183   0.445
 1656SOL    HW2 4990   2.233   1.020   0.441
 1657SOL     OW 4991   2.428   0.537   0.865
 1657SOL    HW1 4992   2.440   0.603   0.791
 1657SOL    HW2 4993   2.474   0.571   0.948
 1658SOL     OW 4994   3.114   1.348   0.388
 1658SOL    HW1 4995   3.164   1.425   0.428
 1658SOL    HW2 4996   3.019   1.350   0.420
 1659SOL     OW 4997   3.134   1.445   1.142
 1659SOL    HW1 4998   3.181   1.458   1.229
 1659SOL    HW2 4999   3.068   1.371   1.151
 1660SOL     OW 5000   3.444   0.639   0.472
 1660SOL    HW1 5001   3.413   0.700   0.545
 1660SOL    HW2 5002   3.494   0.691   0.403
 1661SOL     OW 5003   2.216   1.510   1.329
 1661SOL    HW1 5004   2.195   1.466   1.242
 1661SOL    HW2 5005   2.313   1.536   1.332
 1662SOL     OW 5006   2.264   0.751   1.598
 1662SOL    HW1 5007   2.332   0.806   1.551
 1662SOL    HW2 5008   2.304   0.663   1.625
 1663SOL     OW 5009   3.449   0.779   1.670
 1663SOL    HW1 5010   3.357   0.817   1.665
 1663SOL    HW2 5011   3.509   0.826   1.605
 1664SOL     OW 5012   2.875   0.105   1.770
 1664SOL    HW1 5013   2.881   0.190   1.718
 1664SOL    HW2 5014   2.907   0.029   1.713
 1665SOL     OW 5015   2.366   0.050   1.740
 1665SOL    HW1 5016   2.324  -0.007   1.670
 1665SOL    HW2 5017   2.300   0.119   1.772
 1666SOL     OW 5018   2.435   0.870   1.029
 1666SOL    HW1 5019   2.479   0.959   1.020
 1666SOL    HW2 5020   2.372   0.870   1.106
 1667SOL     OW 5021   3.222   0.862   1.045
 1667SOL    HW1 5022   3.147   0.862   0.979
 1667SOL    HW2 5023   3.259   0.770   1.054
 1668SOL     OW 5024   3.071   0.525   0.275
 1668SOL    HW1 5025   3.084   0.441   0.329
 1668SOL    HW2 5026   3.042   0.599   0.335
 1669SOL     OW 5027   2.169   0.213   1.231
 1669SOL    HW1 5028   2.146   0.250   1.321
 1669SOL    HW2 5029   2.139   0.118   1.225
 1670SOL     OW 5030   1.899   1.310   1.282
 1670SOL    HW1 5031   1.952   1.261   1.350
 1670SOL    HW2 5032   1.921   1.408   1.287
 1671SOL     OW 5033   2.594   0.634   1.064
 1671SOL    HW1 5034   2.653   0.608   0.988
 1671SOL    HW2 5035   2.566   0.730   1.053
 1672SOL     OW 5036   3.590   0.935   1.854
 1672SOL    HW1 5037   3.544   0.928   1.765
 1672SOL    HW2 5038   3.528   0.979   1.920
 1673SOL     OW 5039   2.169   0.063   0.618
 1673SOL    HW1 5040   2.158   0.157   0.651
 1673SOL    HW2 5041   2.164   0.000   0.695
 1674SOL     OW 5042   3.484   0.367   0.374
 1674SOL    HW1 5043   3.486   0.291   0.438
 1674SOL    HW2 5044   3.436   0.444   0.414
 1675SOL     OW 5045   2.885   0.766   0.966
 1675SOL    HW1 5046   2.900   0.787   1.062
 1675SOL    HW2 5047   2.855   0.671   0.957
 1676SOL     OW 5048   2.842   1.573   1.700
 1676SOL    HW1 5049   2.822   1.617   1.612
 1676SOL    HW2 5050   2.881   1.482   1.684
 1677SOL     OW 5051   3.721   1.518   1.605
 1677SOL    HW1 5052   3.735   1.545   1.510
 1677SOL    HW2 5053   3.804   1.540   1.658
 1678SOL     OW 5054   2.212   0.898   1.804
 1678SOL    HW1 5055   2.288   0.942   1.852
 1678SOL    HW2 5056   2.247   0.851   1.722
 1679SOL     OW 5057   3.402   0.274   0.125
 1679SOL    HW1 5058   3.341   0.199   0.148
 1679SOL    HW2 5059   3.424   0.326   0.208
 1680SOL     OW 5060   3.165   0.838   0.042
 1680SOL    HW1 5061   3.199   0.745   0.057
 1680SOL    HW2 5062   3.183   0.865  -0.053
 1681SOL     OW 5063   2.930   1.333   0.849
 1681SOL    HW1 5064   2.937   1.249   0.794
 1681SOL    HW2 5065   2.992   1.402   0.813
 1682SOL     OW 5066   2.181   0.810   0.949
 1682SOL    HW1 5067   2.274   0.846   0.954
 1682SOL    HW2 5068   2.175   0.725   1.001
 1683SOL     OW 5069   2.201   0.509   1.006
 1683SOL    HW1 5070   2.149   0.426   0.989
 1683SOL    HW2 5071   2.278   0.514   0.942
 1684SOL     OW 5072   3.000   0.380   1.678
 1684SOL    HW1 5073   2.955   0.443   1.742
 1684SOL    HW2 5074   3.093   0.411   1.661
 1685SOL     OW 5075   3.022   0.207   1.477
 1685SOL    HW1 5076   3.022   0.271   1.554
 1685SOL    HW2 5077   3.050   0.255   1.394
 1686SOL     OW 5078   1.950   1.801   0.927
 1686SOL    HW1 5079   1.908   1.715   0.900
 1686SOL    HW2 5080   2.044   1.804   0.893
 1687SOL     OW 5081   2.366   1.568   0.910
 1687SOL    HW1 5082   2.432   1.642   0.919
 1687SOL    HW2 5083   2.410   1.489   0.868
 1688SOL     OW 5084   2.864   0.796   1.238
 1688SOL    HW1 5085   2.905   0.764   1.324
 1688SOL    HW2 5086   2.768   0.769   1.235
 1689SOL     OW 5087   1.902   0.544   1.114
 1689SOL    HW1 5088   1.987   0.511   1.073
 1689SOL    HW2 5089   1.915   0.559   1.212
 1690SOL     OW 5090   2.051   0.520   1.722
 1690SOL    HW1 5091   2.110   0.480   1.652
 1690SOL    HW2 5092   1.993   0.591   1.681
 1691SOL     OW 5093   3.231   0.950   1.660
 1691SOL    HW1 5094   3.270   1.039   1.680
 1691SOL    HW2 5095   3.241   0.930   1.563
 1692SOL     OW 5096   2.677   0.572   0.325
 1692SOL    HW1 5097   2.684   0.483   0.279
 1692SOL    HW2 5098   2.583   0.606   0.317
 1693SOL     OW 5099   3.519   0.604   1.206
 1693SOL    HW1 5100   3.481   0.535   1.268
 1693SOL    HW2 5101   3.601   0.568   1.162
 1694SOL     OW 5102   2.114   1.564   1.744
 1694SOL    HW1 5103   2.084   1.621   1.820
 1694SOL    HW2 5104   2.107   1.467   1.770
 1695SOL     OW 5105   2.533   0.464   1.269
 1695SOL    HW1 5106   2.499   0.375   1.239
 1695SOL    HW2 5107   2.559   0.518   1.189
 1696SOL     OW 5108   2.792   1.678   1.465
 1696SOL    HW1 5109   2.768   1.660   1.370
 1696SOL    HW2 5110   2.822   1.772   1.475
 1697SOL     OW 5111   2.335   0.500   0.191
 1697SOL    HW1 5112   2.396   0.580   0.195
 1697SOL    HW2 5113   2.240   0.531   0.198
 1698SOL     OW 5114   2.021   1.137   1.466
 1698SOL    HW1 5115   2.043   1.076   1.542
 1698SOL    HW2 5116   2.031   1.088   1.380
 1699SOL     OW 5117   3.209   1.059   1.234
 1699SOL    HW1 5118   3.233   0.996   1.160
 1699SOL    HW2 5119   3.119   1.099   1.216
 1700SOL     OW 5120   3.164   0.855   0.309
 1700SOL    HW1 5121   3.078   0.824   0.351
 1700SOL    HW2 5122   3.160   0.841   0.210
 1701SOL     OW 5123   3.621   1.747   1.154
 1701SOL    HW1 5124   3.682   1.777   1.081
 1701SOL    HW2 5125   3.583   1.658   1.132
 1702SOL     OW 5126   3.114   1.731   1.128
 1702SOL    HW1 5127   3.198   1.736   1.074
 1702SOL    HW2 5128   3.091   1.635   1.146
 1703SOL     OW 5129   1.945   1.258   1.022
 1703SOL    HW1 5130   1.940   1.257   1.122
 1703SOL    HW2 5131   1.862   1.217   0.984
 1704SOL     OW 5132   2.550   1.662   1.716
 1704SOL    HW1 5133   2.494   1.743   1.725
 1704SOL    HW2 5134   2.602   1.666   1.630
 1705SOL     OW 5135   2.765   0.086   0.133
 1705SOL    HW1 5136   2.816   0.087   0.047
 1705SOL    HW2 5137   2.821   0.044   0.204
 1706SOL     OW 5138   3.588   0.135   0.523
 1706SOL    HW1 5139   3.661   0.118   0.456
 1706SOL    HW2 5140   3.557   0.048   0.561
 1707SOL     OW 5141   3.250   1.573   0.477
 1707SOL    HW1 5142   3.317   1.585   0.403
 1707SOL    HW2 5143   3.210   1.662   0.500
 1708SOL     OW 5144   1.992   1.794   1.851
 1708SOL    HW1 5145   1.951   1.720   1.904
 1708SOL    HW2 5146   2.056   1.845   1.909
 1709SOL     OW 5147   3.142   0.927   0.672
 1709SOL    HW1 5148   3.202   0.846   0.674
 1709SOL    HW2 5149   3.182   0.996   0.612
 1710SOL     OW 5150   2.692   1.273   1.422
 1710SOL    HW1 5151   2.687   1.306   1.517
 1710SOL    HW2 5152   2.606   1.292   1.376
 1711SOL     OW 5153   2.534   1.616   0.154
 1711SOL    HW1 5154   2.543   1.626   0.055
 1711SOL    HW2 5155   2.494   1.527   0.175
 1712SOL     OW 5156   3.512   1.720   1.394
 1712SOL    HW1 5157   3.565   1.730   1.310
 1712SOL    HW2 5158   3.485   1.810   1.428
 1713SOL     OW 5159   3.703   0.175   0.963
 1713SOL    HW1 5160   3.742   0.090   0.927
 1713SOL    HW2 5161   3.605   0.177   0.944
 1714SOL     OW 5162   2.125   0.326   0.720
 1714SOL    HW1 5163   2.046   0.377   0.686
 1714SOL    HW2 5164   2.116   0.311   0.818
 1715SOL     OW 5165   3.056   1.612   0.031
 1715SOL    HW1 5166   3.062   1.519   0.068
 1715SOL    HW2 5167   2.997   1.612  -0.049
 1716SOL     OW 5168   2.684   1.002   1.372
 1716SOL    HW1 5169   2.724   1.001   1.280
 1716SOL    HW2 5170   2.694   1.094   1.412
 1717SOL     OW 5171   2.778   0.910   0.291
 1717SOL    HW1 5172   2.841   0.948   0.223
 1717SOL    HW2 5173   2.818   0.827   0.330
 1718SOL     OW 5174   3.366   1.607   0.044
 1718SOL    HW1 5175   3.274   1.644   0.051
 1718SOL    HW2 5176   3.404   1.627  -0.046
 1719SOL     OW 5177   2.234   1.288   1.490
 1719SOL    HW1 5178   2.221   1.381   1.456
 1719SOL    HW2 5179   2.150   1.236   1.477
 1720SOL     OW 5180   3.476   1.292   1.289
 1720SOL    HW1 5181   3.536   1.295   1.369
 1720SOL    HW2 5182   3.401   1.356   1.302
 1721SOL     OW 5183   2.901   1.098   0.696
 1721SOL    HW1 5184   2.831   1.051   0.750
 1721SOL    HW2 5185   2.960   1.030   0.653
 1722SOL     OW 5186   2.876   0.236   0.971
 1722SOL    HW1 5187   2.868   0.200   0.878
 1722SOL    HW2 5188   2.874   0.160   1.036
 1723SOL     OW 5189   2.452   1.487   0.491
 1723SOL    HW1 5190   2.494   1.429   0.421
 1723SOL    HW2 5191   2.408   1.566   0.447
 1724SOL     OW 5192   3.571   0.385   1.381
 1724SOL    HW1 5193   3.644   0.454   1.385
 1724SOL    HW2 5194   3.599   0.310   1.322
 1725SOL     OW 5195   2.117   1.348   0.290
 1725SOL    HW1 5196   2.021   1.349   0.263
 1725SOL    HW2 5197   2.129   1.401   0.374
 1726SOL     OW 5198   1.967   1.013   1.726
 1726SOL    HW1 5199   1.890   0.980   1.780
 1726SOL    HW2 5200   2.052   0.983   1.768
 1727SOL     OW 5201   2.534   0.203   1.489
 1727SOL    HW1 5202   2.624   0.187   1.449
 1727SOL    HW2 5203   2.542   0.208   1.588
 1728SOL     OW 5204   3.302   0.856   1.398
 1728SOL    HW1 5205   3.245   0.908   1.335
 1728SOL    HW2 5206   3.398   0.868   1.374
 1729SOL     OW 5207   1.934   0.166   0.318
 1729SOL    HW1 5208   1.917   0.249   0.264
 1729SOL    HW2 5209   2.024   0.129   0.296
 1730SOL     OW 5210   3.045   1.335   0.119
 1730SOL    HW1 5211   2.946   1.324   0.121
 1730SOL    HW2 5212   3.079   1.350   0.212
 1731SOL     OW 5213   2.475   0.842   1.431
 1731SOL    HW1 5214   2.531   0.923   1.414
 1731SOL    HW2 5215   2.534   0.762   1.434
 1732SOL     OW 5216   3.355   1.767   0.959
 1732SOL    HW1 5217   3.388   1.831   0.890
 1732SOL    HW2 5218   3.421   1.761   1.034
 1733SOL     OW 5219   2.578   0.565   1.708
 1733SOL    HW1 5220   2.597   0.630   1.782
 1733SOL    HW2 5221   2.638   0.485   1.717
 1734SOL     OW 5222   3.312   1.220   1.633
 1734SOL    HW1 5223   3.303   1.210   1.732
 1734SOL    HW2 5224   3.408   1.213   1.607
 1735SOL     OW 5225   2.252   1.741   1.560
 1735SOL    HW1 5226   2.161   1.782   1.558
 1735SOL    HW2 5227   2.245   1.647   1.592
 1736SOL     OW 5228   3.536   0.883   1.254
 1736SOL    HW1 5229   3.509   0.794   1.217
 1736SOL    HW2 5230   3.537   0.951   1.181
 1737SOL     OW 5231   3.087   0.325   0.449
 1737SOL    HW1 5232   3.152   0.251   0.438
 1737SOL    HW2 5233   3.107   0.375   0.533
 1738SOL     OW 5234   2.456   0.745   0.652
 1738SOL    HW1 5235   2.506   0.830   0.633
 1738SOL    HW2 5236   2.368   0.747   0.604
 1739SOL     OW 5237   3.639   0.342   1.642
 1739SOL    HW1 5238   3.622   0.373   1.548
 1739SOL    HW2 5239   3.555   0.305   1.680
 1740SOL     OW 5240   3.592   0.934   1.517
 1740SOL    HW1 5241   3.630   1.025   1.532
 1740SOL    HW2 5242   3.584   0.917   1.418
 1741SOL     OW 5243   2.721   1.374   0.016
 1741SOL    HW1 5244   2.675   1.389   0.104
 1741SOL    HW2 5245   2.765   1.459  -0.014
 1742SOL     OW 5246   2.523   1.790   0.953
 1742SOL    HW1 5247   2.477   1.878   0.940
 1742SOL    HW2 5248   2.622   1.802   0.946
 1743SOL     OW 5249   2.721   0.956   0.861
 1743SOL    HW1 5250   2.775   0.887   0.909
 1743SOL    HW2 5251   2.689   1.025   0.927
 1744SOL     OW 5252   2.945   0.984   0.087
 1744SOL    HW1 5253   2.922   1.037   0.005
 1744SOL    HW2 5254   3.026   0.928   0.068
 1745SOL     OW 5255   3.723   1.569   0.851
 1745SOL    HW1 5256   3.652   1.557   0.781
 1745SOL    HW2 5257   3.724   1.490   0.911
 1746SOL     OW 5258   2.083   1.314   1.844
 1746SOL    HW1 5259   2.018   1.241   1.823
 1746SOL    HW2 5260   2.087   1.328   1.942
 1747SOL     OW 5261   1.941   1.240   0.653
 1747SOL    HW1 5262   1.940   1.193   0.741
 1747SOL    HW2 5263   2.023   1.212   0.602
 1748SOL     OW 5264   2.534   1.391   1.624
 1748SOL    HW1 5265   2.456   1.341   1.662
 1748SOL    HW2 5266   2.531   1.486   1.655
 1749SOL     OW 5267   3.686   0.192   1.227
 1749SOL    HW1 5268   3.682   0.102   1.271
 1749SOL    HW2 5269   3.689   0.181   1.128
 1750SOL     OW 5270   2.290   0.424   0.520
 1750SOL    HW1 5271   2.320   0.352   0.458
 1750SOL    HW2 5272   2.251   0.384   0.603
 1751SOL     OW 5273   3.567   1.487   1.104
 1751SOL    HW1 5274   3.474   1.462   1.077
 1751SOL    HW2 5275   3.593   1.437   1.186
 1752SOL     OW 5276   2.179   0.547   1.280
 1752SOL    HW1 5277   2.217   0.488   1.352
 1752SOL    HW2 5278   2.219   0.521   1.192
 1753SOL     OW 5279   2.674   1.586   0.687
 1753SOL    HW1 5280   2.706   1.596   0.593
 1753SOL    HW2 5281   2.595   1.524   0.689
 1754SOL     OW 5282   3.286   0.214   1.112
 1754SOL    HW1 5283   3.338   0.149   1.167
 1754SOL    HW2 5284   3.237   0.277   1.173
 1755SOL     OW 5285   2.863   0.034   1.154
 1755SOL    HW1 5286   2.800  -0.038   1.123
 1755SOL    HW2 5287   2.956  -0.002   1.154
 1756SOL     OW 5288   2.632   1.330   0.301
 1756SOL    HW1 5289   2.586   1.243   0.318
 1756SOL    HW2 5290   2.723   1.327   0.342
 1757SOL     OW 5291   2.480   1.567   1.284
 1757SOL    HW1 5292   2.475   1.649   1.341
 1757SOL    HW2 5293   2.569   1.564   1.239
 1758SOL     OW 5294   3.214   0.052   0.168
 1758SOL    HW1 5295   3.249   0.011   0.084
 1758SOL    HW2 5296   3.124   0.014   0.188
 1759SOL     OW 5297   3.162   0.453   0.691
 1759SOL    HW1 5298   3.103   0.533   0.695
 1759SOL    HW2 5299   3.177   0.418   0.784
 1760SOL     OW 5300   3.455   0.221   0.882
 1760SOL    HW1 5301   3.371   0.220   0.936
 1760SOL    HW2 5302   3.457   0.304   0.826
 1761SOL     OW 5303   1.901   1.077   0.300
 1761SOL    HW1 5304   2.000   1.066   0.291
 1761SOL    HW2 5305   1.861   0.991   0.332
 1762SOL     OW 5306   2.737   1.646   0.337
 1762SOL    HW1 5307   2.660   1.611   0.283
 1762SOL    HW2 5308   2.705   1.717   0.399
 1763SOL     OW 5309   2.092   0.628   1.975
 1763SOL    HW1 5310   1.999   0.626   2.012
 1763SOL    HW2 5311   2.093   0.589   1.883
 1764SOL     OW 5312   2.087   0.275   2.858
 1764SOL    HW1 5313   2.122   0.258   2.950
 1764SOL    HW2 5314   1.999   0.230   2.846
 1765SOL     OW 5315   1.881   0.368   2.509
 1765SOL    HW1 5316   1.799   0.411   2.548
 1765SOL    HW2 5317   1.853   0.295   2.446
 1766SOL     OW 5318   2.431   1.275   3.027
 1766SOL    HW1 5319   2.338   1.268   2.990
 1766SOL    HW2 5320   2.442   1.364   3.071
 1767SOL     OW 5321   3.417   1.511   2.565
 1767SOL    HW1 5322   3.360   1.495   2.646
 1767SOL    HW2 5323   3.358   1.521   2.485
 1768SOL     OW 5324   2.997   0.703   2.579
 1768SOL    HW1 5325   3.054   0.781   2.554
 1768SOL    HW2 5326   2.937   0.729   2.655
 1769SOL     OW 5327   3.617   0.607   2.093
 1769SOL    HW1 5328   3.605   0.594   1.994
 1769SOL    HW2 5329   3.587   0.526   2.142
 1770SOL     OW 5330   2.630   1.144   2.885
 1770SOL    HW1 5331   2.552   1.161   2.945
 1770SOL    HW2 5332   2.664   1.231   2.849
 1771SOL     OW 5333   2.712   0.798   3.685
 1771SOL    HW1 5334   2.708   0.874   3.750
 1771SOL    HW2 5335   2.734   0.834   3.594
 1772SOL     OW 5336   2.547   1.012   2.527
 1772SOL    HW1 5337   2.616   0.996   2.597
 1772SOL    HW2 5338   2.474   1.069   2.565
 1773SOL     OW 5339   2.548   1.161   3.665
 1773SOL    HW1 5340   2.608   1.240   3.679
 1773SOL    HW2 5341   2.462   1.192   3.624
 1774SOL     OW 5342   2.197   1.435   2.923
 1774SOL    HW1 5343   2.119   1.404   2.870
 1774SOL    HW2 5344   2.255   1.493   2.866
 1775SOL     OW 5345   3.322   1.505   3.201
 1775SOL    HW1 5346   3.346   1.599   3.227
 1775SOL    HW2 5347   3.306   1.451   3.283
 1776SOL     OW 5348   2.300   0.392   3.361
 1776SOL    HW1 5349   2.382   0.336   3.370
 1776SOL    HW2 5350   2.219   0.334   3.365
 1777SOL     OW 5351   3.465   0.447   2.599
 1777SOL    HW1 5352   3.391   0.493   2.549
 1777SOL    HW2 5353   3.516   0.515   2.652
 1778SOL     OW 5354   2.093   1.713   2.345
 1778SOL    HW1 5355   2.127   1.790   2.399
 1778SOL    HW2 5356   2.137   1.713   2.255
 1779SOL     OW 5357   2.989   1.341   3.552
 1779SOL    HW1 5358   3.036   1.341   3.640
 1779SOL    HW2 5359   2.941   1.254   3.541
 1780SOL     OW 5360   2.092   1.434   2.400
 1780SOL    HW1 5361   2.066   1.530   2.400
 1780SOL    HW2 5362   2.021   1.380   2.445
 1781SOL     OW 5363   2.102   1.091   2.748
 1781SOL    HW1 5364   2.116   1.007   2.800
 1781SOL    HW2 5365   2.047   1.155   2.803
 1782SOL     OW 5366   2.482   1.786   3.301
 1782SOL    HW1 5367   2.390   1.769   3.336
 1782SOL    HW2 5368   2.510   1.878   3.327
 1783SOL     OW 5369   2.468   0.964   1.985
 1783SOL    HW1 5370   2.475   1.048   1.931
 1783SOL    HW2 5371   2.514   0.977   2.073
 1784SOL     OW 5372   3.456   0.114   3.342
 1784SOL    HW1 5373   3.438   0.181   3.270
 1784SOL    HW2 5374   3.453   0.160   3.431
 1785SOL     OW 5375   1.984   0.643   2.425
 1785SOL    HW1 5376   1.939   0.555   2.442
 1785SOL    HW2 5377   1.983   0.697   2.509
 1786SOL     OW 5378   3.704   1.767   2.221
 1786SOL    HW1 5379   3.758   1.738   2.301
 1786SOL    HW2 5380   3.734   1.857   2.192
 1787SOL     OW 5381   1.889   1.596   1.979
 1787SOL    HW1 5382   1.870   1.500   2.000
 1787SOL    HW2 5383   1.856   1.654   2.054
 1788SOL     OW 5384   3.551   0.922   2.474
 1788SOL    HW1 5385   3.646   0.893   2.482
 1788SOL    HW2 5386   3.543   0.987   2.399
 1789SOL     OW 5387   3.503   1.108   2.294
 1789SOL    HW1 5388   3.589   1.110   2.242
 1789SOL    HW2 5389   3.517   1.155   2.382
 1790SOL     OW 5390   1.975   0.737   3.459
 1790SOL    HW1 5391   2.063   0.724   3.504
 1790SOL    HW2 5392   1.962   0.834   3.437
 1791SOL     OW 5393   2.475   1.365   2.588
 1791SOL    HW1 5394   2.426   1.278   2.597
 1791SOL    HW2 5395   2.452   1.408   2.501
 1792SOL     OW 5396   3.155   1.228   3.285
 1792SOL    HW1 5397   3.192   1.155   3.227
 1792SOL    HW2 5398   3.207   1.233   3.370
 1793SOL     OW 5399   2.671   0.004   2.364
 1793SOL    HW1 5400   2.711   0.095   2.355
 1793SOL    HW2 5401   2.571   0.012   2.370
 1794SOL     OW 5402   2.059   0.976   3.126
 1794SOL    HW1 5403   2.148   0.931   3.112
 1794SOL    HW2 5404   1.986   0.911   3.107
 1795SOL     OW 5405   3.387   0.999   2.052
 1795SOL    HW1 5406   3.324   0.923   2.065
 1795SOL    HW2 5407   3.435   1.017   2.138
 1796SOL     OW 5408   3.049   1.792   3.478
 1796SOL    HW1 5409   3.073   1.852   3.402
 1796SOL    HW2 5410   3.056   1.697   3.448
 1797SOL     OW 5411   2.179   0.251   3.663
 1797SOL    HW1 5412   2.250   0.322   3.669
 1797SOL    HW2 5413   2.091   0.290   3.691
 1798SOL     OW 5414   3.328   1.417   2.815
 1798SOL    HW1 5415   3.269   1.423   2.895
 1798SOL    HW2 5416   3.313   1.329   2.769
 1799SOL     OW 5417   3.529   1.714   2.434
 1799SOL    HW1 5418   3.488   1.691   2.346
 1799SOL    HW2 5419   3.511   1.640   2.499
 1800SOL     OW 5420   2.460   0.729   2.132
 1800SOL    HW1 5421   2.484   0.798   2.064
 1800SOL    HW2 5422   2.382   0.762   2.186
 1801SOL     OW 5423   3.143   0.345   2.806
 1801SOL    HW1 5424   3.057   0.295   2.793
 1801SOL    HW2 5425   3.205   0.291   2.862
 1802SOL     OW 5426   3.438   1.662   2.169
 1802SOL    HW1 5427   3.527   1.708   2.172
 1802SOL    HW2 5428   3.417   1.638   2.074
 1803SOL     OW 5429   2.669   0.605   3.327
 1803SOL    HW1 5430   2.622   0.602   3.416
 1803SOL    HW2 5431   2.618   0.550   3.261
 1804SOL     OW 5432   3.256   0.469   3.536
 1804SOL    HW1 5433   3.236   0.512   3.624
 1804SOL    HW2 5434   3.334   0.407   3.545
 1805SOL     OW 5435   2.835   0.890   3.434
 1805SOL    HW1 5436   2.881   0.806   3.405
 1805SOL    HW2 5437   2.779   0.924   3.359
 1806SOL     OW 5438   2.853   0.410   3.104
 1806SOL    HW1 5439   2.776   0.444   3.158
 1806SOL    HW2 5440   2.819   0.359   3.025
 1807SOL     OW 5441   2.903   0.701   2.291
 1807SOL    HW1 5442   2.929   0.697   2.387
 1807SOL    HW2 5443   2.818   0.650   2.277
 1808SOL     OW 5444   1.938   0.811   2.651
 1808SOL    HW1 5445   2.037   0.799   2.660
 1808SOL    HW2 5446   1.914   0.906   2.672
 1809SOL     OW 5447   1.992   1.821   3.433
 1809SOL    HW1 5448   1.982   1.806   3.532
 1809SOL    HW2 5449   1.906   1.857   3.397
 1810SOL     OW 5450   2.727   0.348   2.057
 1810SOL    HW1 5451   2.786   0.411   2.008
 1810SOL    HW2 5452   2.746   0.254   2.028
 1811SOL     OW 5453   3.581   0.585   3.693
 1811SOL    HW1 5454   3.555   0.674   3.657
 1811SOL    HW2 5455   3.579   0.517   3.620
 1812SOL     OW 5456   3.224   1.144   2.407
 1812SOL    HW1 5457   3.307   1.115   2.359
 1812SOL    HW2 5458   3.175   1.211   2.351
 1813SOL     OW 5459   2.412   0.196   2.747
 1813SOL    HW1 5460   2.407   0.191   2.847
 1813SOL    HW2 5461   2.414   0.292   2.718
 1814SOL     OW 5462   2.870   1.456   2.339
 1814SOL    HW1 5463   2.824   1.528   2.287
 1814SOL    HW2 5464   2.866   1.476   2.437
 1815SOL     OW 5465   2.213   1.801   2.715
 1815SOL    HW1 5466   2.263   1.715   2.721
 1815SOL    HW2 5467   2.278   1.878   2.712
 1816SOL     OW 5468   3.657   1.066   2.735
 1816SOL    HW1 5469   3.595   1.051   2.659
 1816SOL    HW2 5470   3.605   1.077   2.820
 1817SOL     OW 5471   3.089   1.550   3.368
 1817SOL    HW1 5472   3.095   1.473   3.432
 1817SOL    HW2 5473   3.037   1.524   3.288
 1818SOL     OW 5474   2.183   0.943   2.104
 1818SOL    HW1 5475   2.265   0.982   2.062
 1818SOL    HW2 5476   2.156   0.861   2.055
 1819SOL     OW 5477   3.320   0.735   2.590
 1819SOL    HW1 5478   3.315   0.670   2.665
 1819SOL    HW2 5479   3.400   0.794   2.603
 1820SOL     OW 5480   2.323   1.266   3.589
 1820SOL    HW1 5481   2.273   1.267   3.503
 1820SOL    HW2 5482   2.260   1.248   3.665
 1821SOL     OW 5483   2.973   1.776   2.099
 1821SOL    HW1 5484   2.913   1.714   2.149
 1821SOL    HW2 5485   3.004   1.732   2.014
 1822SOL     OW 5486   2.064   0.285   3.360
 1822SOL    HW1 5487   1.984   0.345   3.347
 1822SOL    HW2 5488   2.054   0.236   3.446
 1823SOL     OW 5489   3.494   1.377   1.943
 1823SOL    HW1 5490   3.462   1.471   1.933
 1823SOL    HW2 5491   3.418   1.314   1.931
 1824SOL     OW 5492   2.326   1.743   2.185
 1824SOL    HW1 5493   2.359   1.782   2.271
 1824SOL    HW2 5494   2.402   1.736   2.120
 1825SOL     OW 5495   3.262   0.107   2.288
 1825SOL    HW1 5496   3.238   0.070   2.198
 1825SOL    HW2 5497   3.361   0.123   2.292
 1826SOL     OW 5498   2.111   1.785   3.103
 1826SOL    HW1 5499   2.168   1.720   3.153
 1826SOL    HW2 5500   2.095   1.752   3.010
 1827SOL     OW 5501   2.802   1.698   2.766
 1827SOL    HW1 5502   2.882   1.641   2.787
 1827SOL    HW2 5503   2.753   1.658   2.689
 1828SOL     OW 5504   2.244   0.700   2.342
 1828SOL    HW1 5505   2.289   0.610   2.339
 1828SOL    HW2 5506   2.150   0.689   2.375
 1829SOL     OW 5507   3.409   0.222   3.591
 1829SOL    HW1 5508   3.404   0.259   3.683
 1829SOL    HW2 5509   3.337   0.153   3.579
 1830SOL     OW 5510   2.476   0.122   1.979
 1830SOL    HW1 5511   2.574   0.100   1.986
 1830SOL    HW2 5512   2.445   0.105   1.886
 1831SOL     OW 5513   2.643   0.264   3.611
 1831SOL    HW1 5514   2.710   0.203   3.654
 1831SOL    HW2 5515   2.570   0.283   3.676
 1832SOL     OW 5516   2.750   1.514   3.057
 1832SOL    HW1 5517   2.727   1.489   2.963
 1832SOL    HW2 5518   2.811   1.445   3.096
 1833SOL     OW 5519   3.213   0.590   3.295
 1833SOL    HW1 5520   3.241   0.547   3.380
 1833SOL    HW2 5521   3.238   0.686   3.296
 1834SOL     OW 5522   2.665   1.402   2.786
 1834SOL    HW1 5523   2.755   1.416   2.744
 1834SOL    HW2 5524   2.594   1.404   2.715
 1835SOL     OW 5525   2.784   0.503   2.761
 1835SOL    HW1 5526   2.759   0.494   2.665
 1835SOL    HW2 5527   2.832   0.421   2.792
 1836SOL     OW 5528   2.401   0.064   2.374
 1836SOL    HW1 5529   2.320   0.065   2.432
 1836SOL    HW2 5530   2.404   0.147   2.319
 1837SOL     OW 5531   3.296   1.188   1.903
 1837SOL    HW1 5532   3.328   1.112   1.960
 1837SOL    HW2 5533   3.204   1.215   1.933
 1838SOL     OW 5534   2.159   0.035   2.033
 1838SOL    HW1 5535   2.208   0.119   2.012
 1838SOL    HW2 5536   2.221  -0.030   2.078
 1839SOL     OW 5537   2.797   0.236   2.342
 1839SOL    HW1 5538   2.749   0.277   2.264
 1839SOL    HW2 5539   2.896   0.234   2.323
 1840SOL     OW 5540   2.938   0.683   3.326
 1840SOL    HW1 5541   2.858   0.622   3.329
 1840SOL    HW2 5542   3.019   0.630   3.302
 1841SOL     OW 5543   3.089   1.570   2.655
 1841SOL    HW1 5544   3.110   1.644   2.590
 1841SOL    HW2 5545   3.157   1.570   2.728
 1842SOL     OW 5546   2.321   1.152   2.603
 1842SOL    HW1 5547   2.250   1.125   2.668
 1842SOL    HW2 5548   2.295   1.124   2.510
 1843SOL     OW 5549   3.133   1.797   2.453
 1843SOL    HW1 5550   3.177   1.861   2.389
 1843SOL    HW2 5551   3.083   1.849   2.523
 1844SOL     OW 5552   2.894   0.549   1.878
 1844SOL    HW1 5553   2.853   0.631   1.839
 1844SOL    HW2 5554   2.958   0.575   1.951
 1845SOL     OW 5555   1.940   0.556   3.248
 1845SOL    HW1 5556   2.032   0.555   3.207
 1845SOL    HW2 5557   1.934   0.630   3.315
 1846SOL     OW 5558   2.423   0.222   3.009
 1846SOL    HW1 5559   2.461   0.138   3.046
 1846SOL    HW2 5560   2.335   0.241   3.053
 1847SOL     OW 5561   2.728   0.454   2.504
 1847SOL    HW1 5562   2.696   0.526   2.442
 1847SOL    HW2 5563   2.752   0.373   2.451
 1848SOL     OW 5564   2.879   0.039   2.615
 1848SOL    HW1 5565   2.807   0.044   2.546
 1848SOL    HW2 5566   2.855  -0.030   2.684
 1849SOL     OW 5567   3.291   1.173   2.729
 1849SOL    HW1 5568   3.236   1.089   2.722
 1849SOL    HW2 5569   3.317   1.202   2.637
 1850SOL     OW 5570   3.328   0.590   2.854
 1850SOL    HW1 5571   3.298   0.495   2.861
 1850SOL    HW2 5572   3.401   0.606   2.920
 1851SOL     OW 5573   3.719   0.833   2.239
 1851SOL    HW1 5574   3.761   0.769   2.303
 1851SOL    HW2 5575   3.681   0.782   2.161
 1852SOL     OW 5576   2.350   1.385   2.036
 1852SOL    HW1 5577   2.263   1.370   2.083
 1852SOL    HW2 5578   2.333   1.411   1.941
 1853SOL     OW 5579   3.526   1.280   2.519
 1853SOL    HW1 5580   3.625   1.288   2.533
 1853SOL    HW2 5581   3.481   1.364   2.550
 1854SOL     OW 5582   3.252   0.575   1.940
 1854SOL    HW1 5583   3.198   0.554   2.021
 1854SOL    HW2 5584   3.343   0.534   1.949
 1855SOL     OW 5585   2.389   0.256   2.190
 1855SOL    HW1 5586   2.416   0.197   2.115
 1855SOL    HW2 5587   2.389   0.351   2.159
 1856SOL     OW 5588   3.616   1.223   3.450
 1856SOL    HW1 5589   3.707   1.184   3.437
 1856SOL    HW2 5590   3.624   1.319   3.474
 1857SOL     OW 5591   2.926   1.347   3.202
 1857SOL    HW1 5592   2.846   1.324   3.257
 1857SOL    HW2 5593   3.009   1.321   3.251
 1858SOL     OW 5594   3.454   1.629   3.487
 1858SOL    HW1 5595   3.481   1.663   3.397
 1858SOL    HW2 5596   3.533   1.591   3.533
 1859SOL     OW 5597   2.973   1.195   2.962
 1859SOL    HW1 5598   2.933   1.239   3.043
 1859SOL    HW2 5599   2.932   1.232   2.879
 1860SOL     OW 5600   3.500   1.099   2.941
 1860SOL    HW1 5601   3.505   1.180   3.000
 1860SOL    HW2 5602   3.414   1.101   2.890
 1861SOL     OW 5603   2.777   0.089   3.264
 1861SOL    HW1 5604   2.802   0.069   3.169
 1861SOL    HW2 5605   2.849   0.145   3.306
 1862SOL     OW 5606   2.842   1.116   3.581
 1862SOL    HW1 5607   2.743   1.122   3.591
 1862SOL    HW2 5608   2.865   1.036   3.525
 1863SOL     OW 5609   2.567   1.050   2.230
 1863SOL    HW1 5610   2.553   1.057   2.329
 1863SOL    HW2 5611   2.651   0.999   2.212
 1864SOL     OW 5612   2.272   0.813   3.113
 1864SOL    HW1 5613   2.358   0.825   3.163
 1864SOL    HW2 5614   2.230   0.726   3.140
 1865SOL     OW 5615   3.136   0.386   3.124
 1865SOL    HW1 5616   3.157   0.460   3.188
 1865SOL    HW2 5617   3.047   0.403   3.081
 1866SOL     OW 5618   1.926   1.564   3.193
 1866SOL    HW1 5619   1.880   1.646   3.159
 1866SOL    HW2 5620   2.024   1.583   3.202
 1867SOL     OW 5621   2.229   1.100   2.363
 1867SOL    HW1 5622   2.222   1.183   2.307
 1867SOL    HW2 5623   2.233   1.020   2.303
 1868SOL     OW 5624   2.428   0.537   2.727
 1868SOL    HW1 5625   2.440   0.603   2.653
 1868SOL    HW2 5626   2.474   0.571   2.810
 1869SOL     OW 5627   3.114   1.348   2.250
 1869SOL    HW1 5628   3.164   1.425   2.290
 1869SOL    HW2 5629   3.019   1.350   2.282
 1870SOL     OW 5630   3.134   1.445   3.004
 1870SOL    HW1 5631   3.181   1.458   3.091
 1870SOL    HW2 5632   3.068   1.371   3.013
 1871SOL     OW 5633   3.444   0.639   2.334
 1871SOL    HW1 5634   3.413   0.700   2.407
 1871SOL    HW2 5635   3.494   0.691   2.265
 1872SOL     OW 5636   2.216   1.510   3.191
 1872SOL    HW1 5637   2.195   1.466   3.104
 1872SOL    HW2 5638   2.313   1.536   3.194
 1873SOL     OW 5639   2.264   0.751   3.460
 1873SOL    HW1 5640   2.332   0.806   3.413
 1873SOL    HW2 5641   2.304   0.663   3.487
 1874SOL     OW 5642   3.449   0.779   3.532
 1874SOL    HW1 5643   3.357   0.817   3.527
 1874SOL    HW2 5644   3.509   0.826   3.467
 1875SOL     OW 5645   2.875   0.105   3.632
 1875SOL    HW1 5646   2.881   0.190   3.580
 1875SOL    HW2 5647   2.907   0.029   3.575
 1876SOL     OW 5648   2.366   0.050   3.602
 1876SOL    HW1 5649   2.324  -0.007   3.532
 1876SOL    HW2 5650   2.300   0.119   3.634
 1877SOL     OW 5651   2.435   0.870   2.891
 1877SOL    HW1 5652   2.479   0.959   2.882
 1877SOL    HW2 5653   2.372   0.870   2.968
 1878SOL     OW 5654   3.222   0.862   2.907
 1878SOL    HW1 5655   3.147   0.862   2.841
 1878SOL    HW2 5656   3.259   0.770   2.916
 1879SOL     OW 5657   3.071   0.525   2.137
 1879SOL    HW1 5658   3.084   0.441   2.191
 1879SOL    HW2 5659   3.042   0.599   2.197
 1880SOL     OW 5660   2.169   0.213   3.093
 1880SOL    HW1 5661   2.146   0.250   3.183
 1880SOL    HW2 5662   2.139   0.118   3.087
 1881SOL     OW 5663   1.899   1.310   3.144
 1881SOL    HW1 5664   1.952   1.261   3.212
 1881SOL    HW2 5665   1.921   1.408   3.149
 1882SOL     OW 5666   2.594   0.634   2.926
 1882SOL    HW1 5667   2.653   0.608   2.850
 1882SOL    HW2 5668   2.566   0.730   2.915
 1883SOL     OW 5669   3.590   0.935   3.716
 1883SOL    HW1 5670   3.544   0.928   3.627
 1883SOL    HW2 5671   3.528   0.979   3.782
 1884SOL     OW 5672   2.169   0.063   2.480
 1884SOL    HW1 5673   2.158   0.157   2.513
 1884SOL    HW2 5674   2.164   0.000   2.557
 1885SOL     OW 5675   3.484   0.367   2.236
 1885SOL    HW1 5676   3.486   0.291   2.300
 1885SOL    HW2 5677   3.436   0.444   2.276
 1886SOL     OW 5678   2.885   0.766   2.828
 1886SOL    HW1 5679   2.900   0.787   2.924
 1886SOL    HW2 5680   2.855   0.671   2.819
 1887SOL     OW 5681   2.842   1.573   3.562
 1887SOL    HW1 5682   2.822   1.617   3.474
 1887SOL    HW2 5683   2.881   1.482   3.546
 1888SOL     OW 5684   3.721   1.518   3.467
 1888SOL    HW1 5685   3.735   1.545   3.372
 1888SOL    HW2 5686   3.804   1.540   3.520
 1889SOL     OW 5687   2.212   0.898   3.666
 1889SOL    HW1 5688   2.288   0.942   3.714
 1889SOL    HW2 5689   2.247   0.851   3.584
 1890SOL     OW 5690   3.402   0.274   1.987
 1890SOL    HW1 5691   3.341   0.199   2.010
 1890SOL    HW2 5692   3.424   0.326   2.070
 1891SOL     OW 5693   3.165   0.838   1.904
 1891SOL    HW1 5694   3.199   0.745   1.919
 1891SOL    HW2 5695   3.183   0.865   1.809
 1892SOL     OW 5696   2.930   1.333   2.711
 1892SOL    HW1 5697   2.937   1.249   2.656
 1892SOL    HW2 5698   2.992   1.402   2.675
 1893SOL     OW 5699   2.181   0.810   2.811
 1893SOL    HW1 5700   2.274   0.846   2.816
 1893SOL    HW2 5701   2.175   0.725   2.863
 1894SOL     OW 5702   2.201   0.509   2.868
 1894SOL    HW1 5703   2.149   0.426   2.851
 1894SOL    HW2 5704   2.278   0.514   2.804
 1895SOL     OW 5705   3.000   0.380   3.540
 1895SOL    HW1 5706   2.955   0.443   3.604
 1895SOL    HW2 5707   3.093   0.411   3.523
 1896SOL     OW 5708   3.022   0.207   3.339
 1896SOL    HW1 5709   3.022   0.271   3.416
 1896SOL    HW2 5710   3.050   0.255   3.256
 1897SOL     OW 5711   1.870   1.326   2.062
 1897SOL    HW1 5712   1.777   1.347   2.031
 1897SOL    HW2 5713   1.880   1.227   2.075
 1898SOL     OW 5714   1.950   1.801   2.789
 1898SOL    HW1 5715   1.908   1.715   2.762
 1898SOL    HW2 5716   2.044   1.804   2.755
 1899SOL     OW 5717   2.366   1.568   2.772
 1899SOL    HW1 5718   2.432   1.642   2.781
 1899SOL    HW2 5719   2.410   1.489   2.730
 1900SOL     OW 5720   2.864   0.796   3.100
 1900SOL    HW1 5721   2.905   0.764   3.186
 1900SOL    HW2 5722   2.768   0.769   3.097
 1901SOL     OW 5723   1.902   0.544   2.976
 1901SOL    HW1 5724   1.987   0.511   2.935
 1901SOL    HW2 5725   1.915   0.559   3.074
 1902SOL     OW 5726   2.051   0.520   3.584
 1902SOL    HW1 5727   2.110   0.480   3.514
 1902SOL    HW2 5728   1.993   0.591   3.543
 1903SOL     OW 5729   3.231   0.950   3.522
 1903SOL    HW1 5730   3.270   1.039   3.542
 1903SOL    HW2 5731   3.241   0.930   3.425
 1904SOL     OW 5732   2.677   0.572   2.187
 1904SOL    HW1 5733   2.684   0.483   2.141
 1904SOL    HW2 5734   2.583   0.606   2.179
 1905SOL     OW 5735   3.519   0.604   3.068
 1905SOL    HW1 5736   3.481   0.535   3.130
 1905SOL    HW2 5737   3.601   0.568   3.024
 1906SOL     OW 5738   2.114   1.564   3.606
 1906SOL    HW1 5739   2.084   1.621   3.682
 1906SOL    HW2 5740   2.107   1.467   3.632
 1907SOL     OW 5741   2.533   0.464   3.131
 1907SOL    HW1 5742   2.499   0.375   3.101
 1907SOL    HW2 5743   2.559   0.518   3.051
 1908SOL     OW 5744   2.792   1.678   3.327
 1908SOL    HW1 5745   2.768   1.660   3.232
 1908SOL    HW2 5746   2.822   1.772   3.337
 1909SOL     OW 5747   2.335   0.500   2.053
 1909SOL    HW1 5748   2.396   0.580   2.057
 1909SOL    HW2 5749   2.240   0.531   2.060
 1910SOL     OW 5750   2.021   1.137   3.328
 1910SOL    HW1 5751   2.043   1.076   3.404
 1910SOL    HW2 5752   2.031   1.088   3.242
 1911SOL     OW 5753   3.209   1.059   3.096
 1911SOL    HW1 5754   3.233   0.996   3.022
 1911SOL    HW2 5755   3.119   1.099   3.078
 1912SOL     OW 5756   3.164   0.855   2.171
 1912SOL    HW1 5757   3.078   0.824   2.213
 1912SOL    HW2 5758   3.160   0.841   2.072
 1913SOL     OW 5759   3.621   1.747   3.016
 1913SOL    HW1 5760   3.682   1.777   2.943
 1913SOL    HW2 5761   3.583   1.658   2.994
 1914SOL     OW 5762   3.114   1.731   2.990
 1914SOL    HW1 5763   3.198   1.736   2.936
 1914SOL    HW2 5764   3.091   1.635   3.008
 1915SOL     OW 5765   1.945   1.258   2.884
 1915SOL    HW1 5766   1.940   1.257   2.984
 1915SOL    HW2 5767   1.862   1.217   2.846
 1916SOL     OW 5768   2.550   1.662   3.578
 1916SOL    HW1 5769   2.494   1.743   3.587
 1916SOL    HW2 5770   2.602   1.666   3.492
 1917SOL     OW 5771   3.588   0.135   2.385
 1917SOL    HW1 5772   3.661   0.118   2.318
 1917SOL    HW2 5773   3.557   0.048   2.423
 1918SOL     OW 5774   3.250   1.573   2.339
 1918SOL    HW1 5775   3.317   1.585   2.265
 1918SOL    HW2 5776   3.210   1.662   2.362
 1919SOL     OW 5777   1.992   1.794   3.713
 1919SOL    HW1 5778   1.951   1.720   3.766
 1919SOL    HW2 5779   2.056   1.845   3.771
 1920SOL     OW 5780   3.142   0.927   2.534
 1920SOL    HW1 5781   3.202   0.846   2.536
 1920SOL    HW2 5782   3.182   0.996   2.474
 1921SOL     OW 5783   2.692   1.273   3.284
 1921SOL    HW1 5784   2.687   1.306   3.379
 1921SOL    HW2 5785   2.606   1.292   3.238
 1922SOL     OW 5786   2.534   1.616   2.016
 1922SOL    HW1 5787   2.543   1.626   1.917
 1922SOL    HW2 5788   2.494   1.527   2.037
 1923SOL     OW 5789   3.512   1.720   3.256
 1923SOL    HW1 5790   3.565   1.730   3.172
 1923SOL    HW2 5791   3.485   1.810   3.290
 1924SOL     OW 5792   3.703   0.175   2.825
 1924SOL    HW1 5793   3.742   0.090   2.789
 1924SOL    HW2 5794   3.605   0.177   2.806
 1925SOL     OW 5795   2.125   0.326   2.582
 1925SOL    HW1 5796   2.046   0.377   2.548
 1925SOL    HW2 5797   2.116   0.311   2.680
 1926SOL     OW 5798   3.056   1.612   1.893
 1926SOL    HW1 5799   3.062   1.519   1.930
 1926SOL    HW2 5800   2.997   1.612   1.813
 1927SOL     OW 5801   2.684   1.002   3.234
 1927SOL    HW1 5802   2.724   1.001   3.142
 1927SOL    HW2 5803   2.694   1.094   3.274
 1928SOL     OW 5804   2.778   0.910   2.153
 1928SOL    HW1 5805   2.841   0.948   2.085
 1928SOL    HW2 5806   2.818   0.827   2.192
 1929SOL     OW 5807   3.366   1.607   1.906
 1929SOL    HW1 5808   3.274   1.644   1.913
 1929SOL    HW2 5809   3.404   1.627   1.816
 1930SOL     OW 5810   2.234   1.288   3.352
 1930SOL    HW1 5811   2.221   1.381   3.318
 1930SOL    HW2 5812   2.150   1.236   3.339
 1931SOL     OW 5813   3.476   1.292   3.151
 1931SOL    HW1 5814   3.536   1.295   3.231
 1931SOL    HW2 5815   3.401   1.356   3.164
 1932SOL     OW 5816   2.901   1.098   2.558
 1932SOL    HW1 5817   2.831   1.051   2.612
 1932SOL    HW2 5818   2.960   1.030   2.515
 1933SOL     OW 5819   2.876   0.236   2.833
 1933SOL    HW1 5820   2.868   0.200   2.740
 1933SOL    HW2 5821   2.874   0.160   2.898
 1934SOL     OW 5822   2.452   1.487   2.353
 1934SOL    HW1 5823   2.494   1.429   2.283
 1934SOL    HW2 5824   2.408   1.566   2.309
 1935SOL     OW 5825   3.571   0.385   3.243
 1935SOL    HW1 5826   3.644   0.454   3.247
 1935SOL    HW2 5827   3.599   0.310   3.184
 1936SOL     OW 5828   2.117   1.348   2.152
 1936SOL    HW1 5829   2.021   1.349   2.125
 1936SOL    HW2 5830   2.129   1.401   2.236
 1937SOL     OW 5831   1.967   1.013   3.588
 1937SOL    HW1 5832   1.890   0.980   3.642
 1937SOL    HW2 5833   2.052   0.983   3.630
 1938SOL     OW 5834   2.534   0.203   3.351
 1938SOL    HW1 5835   2.624   0.187   3.311
 1938SOL    HW2 5836   2.542   0.208   3.450
 1939SOL     OW 5837   1.937   0.345   1.895
 1939SOL    HW1 5838   1.845   0.317   1.866
 1939SOL    HW2 5839   1.968   0.422   1.839
 1940SOL     OW 5840   3.302   0.856   3.260
 1940SOL    HW1 5841   3.245   0.908   3.197
 1940SOL    HW2 5842   3.398   0.868   3.236
 1941SOL     OW 5843   1.934   0.166   2.180
 1941SOL    HW1 5844   1.917   0.249   2.126
 1941SOL    HW2 5845   2.024   0.129   2.158
 1942SOL     OW 5846   3.045   1.335   1.981
 1942SOL    HW1 5847   2.946   1.324   1.983
 1942SOL    HW2 5848   3.079   1.350   2.074
 1943SOL     OW 5849   2.475   0.842   3.293
 1943SOL    HW1 5850   2.531   0.923   3.276
 1943SOL    HW2 5851   2.534   0.762   3.296
 1944SOL     OW 5852   3.355   1.767   2.821
 1944SOL    HW1 5853   3.388   1.831   2.752
 1944SOL    HW2 5854   3.421   1.761   2.896
 1945SOL     OW 5855   2.578   0.565   3.570
 1945SOL    HW1 5856   2.597   0.630   3.644
 1945SOL    HW2 5857   2.638   0.485   3.579
 1946SOL     OW 5858   3.312   1.220   3.495
 1946SOL    HW1 5859   3.303   1.210   3.594
 1946SOL    HW2 5860   3.408   1.213   3.469
 1947SOL     OW 5861   2.252   1.741   3.422
 1947SOL    HW1 5862   2.161   1.782   3.420
 1947SOL    HW2 5863   2.245   1.647   3.454
 1948SOL     OW 5864   3.536   0.883   3.116
 1948SOL    HW1 5865   3.509   0.794   3.079
 1948SOL    HW2 5866   3.537   0.951   3.043
 1949SOL     OW 5867   3.087   0.325   2.311
 1949SOL    HW1 5868   3.152   0.251   2.300
 1949SOL    HW2 5869   3.107   0.375   2.395
 1950SOL     OW 5870   2.456   0.745   2.514
 1950SOL    HW1 5871   2.506   0.830   2.495
 1950SOL    HW2 5872   2.368   0.747   2.466
 1951SOL     OW 5873   3.639   0.342   3.504
 1951SOL    HW1 5874   3.622   0.373   3.410
 1951SOL    HW2 5875   3.555   0.305   3.542
 1952SOL     OW 5876   3.592   0.934   3.379
 1952SOL    HW1 5877   3.630   1.025   3.394
 1952SOL    HW2 5878   3.584   0.917   3.280
 1953SOL     OW 5879   2.721   1.374   1.878
 1953SOL    HW1 5880   2.675   1.389   1.966
 1953SOL    HW2 5881   2.765   1.459   1.848
 1954SOL     OW 5882   2.523   1.790   2.815
 1954SOL    HW1 5883   2.477   1.878   2.802
 1954SOL    HW2 5884   2.622   1.802   2.808
 1955SOL     OW 5885   2.721   0.956   2.723
 1955SOL    HW1 5886   2.775   0.887   2.771
 1955SOL    HW2 5887   2.689   1.025   2.789
 1956SOL     OW 5888   2.945   0.984   1.949
 1956SOL    HW1 5889   2.922   1.037   1.867
 1956SOL    HW2 5890   3.026   0.928   1.930
 1957SOL     OW 5891   3.723   1.569   2.713
 1957SOL    HW1 5892   3.652   1.557   2.643
 1957SOL    HW2 5893   3.724   1.490   2.773
 1958SOL     OW 5894   2.083   1.314   3.706
 1958SOL    HW1 5895   2.018   1.241   3.685
 1958SOL    HW2 5896   2.087   1.328   3.804
 1959SOL     OW 5897   1.941   1.240   2.515
 1959SOL    HW1 5898   1.940   1.193   2.603
 1959SOL    HW2 5899   2.023   1.212   2.464
 1960SOL     OW 5900   2.534   1.391   3.486
 1960SOL    HW1 5901   2.456   1.341   3.524
 1960SOL    HW2 5902   2.531   1.486   3.517
 1961SOL     OW 5903   3.686   0.192   3.089
 1961SOL    HW1 5904   3.682   0.102   3.133
 1961SOL    HW2 5905   3.689   0.181   2.990
 1962SOL     OW 5906   2.290   0.424   2.382
 1962SOL    HW1 5907   2.320   0.352   2.320
 1962SOL    HW2 5908   2.251   0.384   2.465
 1963SOL     OW 5909   3.567   1.487   2.966
 1963SOL    HW1 5910   3.474   1.462   2.939
 1963SOL    HW2 5911   3.593   1.437   3.048
 1964SOL     OW 5912   2.179   0.547   3.142
 1964SOL    HW1 5913   2.217   0.488   3.214
 1964SOL    HW2 5914   2.219   0.521   3.054
 1965SOL     OW 5915   2.674   1.586   2.549
 1965SOL    HW1 5916   2.706   1.596   2.455
 1965SOL    HW2 5917   2.595   1.524   2.551
 1966SOL     OW 5918   3.286   0.214   2.974
 1966SOL    HW1 5919   3.338   0.149   3.029
 1966SOL    HW2 5920   3.237   0.277   3.035
 1967SOL     OW 5921   2.863   0.034   3.016
 1967SOL    HW1 5922   2.800  -0.038   2.985
 1967SOL    HW2 5923   2.956  -0.002   3.016
 1968SOL     OW 5924   2.632   1.330   2.163
 1968SOL    HW1 5925   2.586   1.243   2.180
 1968SOL    HW2 5926   2.723   1.327   2.204
 1969SOL     OW 5927   2.480   1.567   3.146
 1969SOL    HW1 5928   2.475   1.649   3.203
 1969SOL    HW2 5929   2.569   1.564   3.101
 1970SOL     OW 5930   3.214   0.052   2.030
 1970SOL    HW1 5931   3.249   0.011   1.946
 1970SOL    HW2 5932   3.124   0.014   2.050
 1971SOL     OW 5933   3.162   0.453   2.553
 1971SOL    HW1 5934   3.103   0.533   2.557
 1971SOL    HW2 5935   3.177   0.418   2.646
 1972SOL     OW 5936   3.455   0.221   2.744
 1972SOL    HW1 5937   3.371   0.220   2.798
 1972SOL    HW2 5938   3.457   0.304   2.688
 1973SOL     OW 5939   1.901   1.077   2.162
 1973SOL    HW1 5940   2.000   1.066   2.153
 1973SOL    HW2 5941   1.861   0.991   2.194
 1974SOL     OW 5942   2.737   1.646   2.199
 1974SOL    HW1 5943   2.660   1.611   2.145
 1974SOL    HW2 5944   2.705   1.717   2.261
 1975SOL     OW 5945   2.092   0.628   3.837
 1975SOL    HW1 5946   1.999   0.626   3.874
 1975SOL    HW2 5947   2.093   0.589   3.745
 1976SOL     OW 5948   2.087   0.275   4.720
 1976SOL    HW1 5949   2.122   0.258   4.812
 1976SOL    HW2 5950   1.999   0.230   4.708
 1977SOL     OW 5951   1.881   0.368   4.371
 1977SOL    HW1 5952   1.799   0.411   4.410
 1977SOL    HW2 5953   1.853   0.295   4.308
 1978SOL     OW 5954   2.431   1.275   4.889
 1978SOL    HW1 5955   2.338   1.268   4.852
 1978SOL    HW2 5956   2.442   1.364   4.933
 1979SOL     OW 5957   3.417   1.511   4.427
 1979SOL    HW1 5958   3.360   1.495   4.508
 1979SOL    HW2 5959   3.358   1.521   4.347
 1980SOL     OW 5960   2.997   0.703   4.441
 1980SOL    HW1 5961   3.054   0.781   4.416
 1980SOL    HW2 5962   2.937   0.729   4.517
 1981SOL     OW 5963   3.617   0.607   3.955
 1981SOL    HW1 5964   3.605   0.594   3.856
 1981SOL    HW2 5965   3.587   0.526   4.004
 1982SOL     OW 5966   2.630   1.144   4.747
 1982SOL    HW1 5967   2.552   1.161   4.807
 1982SOL    HW2 5968   2.664   1.231   4.711
 1983SOL     OW 5969   2.547   1.012   4.389
 1983SOL    HW1 5970   2.616   0.996   4.459
 1983SOL    HW2 5971   2.474   1.069   4.427
 1984SOL     OW 5972   2.197   1.435   4.785
 1984SOL    HW1 5973   2.119   1.404   4.732
 1984SOL    HW2 5974   2.255   1.493   4.728
 1985SOL     OW 5975   3.465   0.447   4.461
 1985SOL    HW1 5976   3.391   0.493   4.411
 1985SOL    HW2 5977   3.516   0.515   4.514
 1986SOL     OW 5978   2.093   1.713   4.207
 1986SOL    HW1 5979   2.127   1.790   4.261
 1986SOL    HW2 5980   2.137   1.713   4.117
 1987SOL     OW 5981   2.092   1.434   4.262
 1987SOL    HW1 5982   2.066   1.530   4.262
 1987SOL    HW2 5983   2.021   1.380   4.307
 1988SOL     OW 5984   2.102   1.091   4.610
 1988SOL    HW1 5985   2.116   1.007   4.662
 1988SOL    HW2 5986   2.047   1.155   4.665
 1989SOL     OW 5987   2.468   0.964   3.847
 1989SOL    HW1 5988   2.475   1.048   3.793
 1989SOL    HW2 5989   2.514   0.977   3.935
 1990SOL     OW 5990   1.984   0.643   4.287
 1990SOL    HW1 5991   1.939   0.555   4.304
 1990SOL    HW2 5992   1.983   0.697   4.371
 1991SOL     OW 5993   3.704   1.767   4.083
 1991SOL    HW1 5994   3.758   1.738   4.163
 1991SOL    HW2 5995   3.734   1.857   4.054
 1992SOL     OW 5996   1.889   1.596   3.841
 1992SOL    HW1 5997   1.870   1.500   3.862
 1992SOL    HW2 5998   1.856   1.654   3.916
 1993SOL     OW 5999   3.551   0.922   4.336
 1993SOL    HW1 6000   3.646   0.893   4.344
 1993SOL    HW2 6001   3.543   0.987   4.261
 1994SOL     OW 6002   3.503   1.108   4.156
 1994SOL    HW1 6003   3.589   1.110   4.104
 1994SOL    HW2 6004   3.517   1.155   4.244
 1995SOL     OW 6005   1.975   0.737   5.321
 1995SOL    HW1 6006   2.063   0.724   5.366
 1995SOL    HW2 6007   1.962   0.834   5.299
 1996SOL     OW 6008   2.475   1.365   4.450
 1996SOL    HW1 6009   2.426   1.278   4.459
 1996SOL    HW2 6010   2.452   1.408   4.363
 1997SOL     OW 6011   2.671   0.004   4.226
 1997SOL    HW1 6012   2.711   0.095   4.217
 1997SOL    HW2 6013   2.571   0.012   4.232
 1998SOL     OW 6014   2.059   0.976   4.988
 1998SOL    HW1 6015   2.148   0.931   4.974
 1998SOL    HW2 6016   1.986   0.911   4.969
 1999SOL     OW 6017   3.387   0.999   3.914
 1999SOL    HW1 6018   3.324   0.923   3.927
 1999SOL    HW2 6019   3.435   1.017   4.000
 2000SOL     OW 6020   3.328   1.417   4.677
 2000SOL    HW1 6021   3.269   1.423   4.757
 2000SOL    HW2 6022   3.313   1.329   4.631
 2001SOL     OW 6023   3.529   1.714   4.296
 2001SOL    HW1 6024   3.488   1.691   4.208
 2001SOL    HW2 6025   3.511   1.640   4.361
 2002SOL     OW 6026   2.460   0.729   3.994
 2002SOL    HW1 6027   2.484   0.798   3.926
 2002SOL    HW2 6028   2.382   0.762   4.048
 2003SOL     OW 6029   3.143   0.345   4.668
 2003SOL    HW1 6030   3.057   0.295   4.655
 2003SOL    HW2 6031   3.205   0.291   4.724
 2004SOL     OW 6032   3.438   1.662   4.031
 2004SOL    HW1 6033   3.527   1.708   4.034
 2004SOL    HW2 6034   3.417   1.638   3.936
 2005SOL     OW 6035   2.903   0.701   4.153
 2005SOL    HW1 6036   2.929   0.697   4.249
 2005SOL    HW2 6037   2.818   0.650   4.139
 2006SOL     OW 6038   1.938   0.811   4.513
 2006SOL    HW1 6039   2.037   0.799   4.522
 2006SOL    HW2 6040   1.914   0.906   4.534
 2007SOL     OW 6041   2.727   0.348   3.919
 2007SOL    HW1 6042   2.786   0.411   3.870
 2007SOL    HW2 6043   2.746   0.254   3.890
 2008SOL     OW 6044   3.224   1.144   4.269
 2008SOL    HW1 6045   3.307   1.115   4.221
 2008SOL    HW2 6046   3.175   1.211   4.213
 2009SOL     OW 6047   2.412   0.196   4.609
 2009SOL    HW1 6048   2.407   0.191   4.709
 2009SOL    HW2 6049   2.414   0.292   4.580
 2010SOL     OW 6050   2.870   1.456   4.201
 2010SOL    HW1 6051   2.824   1.528   4.149
 2010SOL    HW2 6052   2.866   1.476   4.299
 2011SOL     OW 6053   2.213   1.801   4.577
 2011SOL    HW1 6054   2.263   1.715   4.583
 2011SOL    HW2 6055   2.278   1.878   4.574
 2012SOL     OW 6056   3.657   1.066   4.597
 2012SOL    HW1 6057   3.595   1.051   4.521
 2012SOL    HW2 6058   3.605   1.077   4.682
 2013SOL     OW 6059   2.183   0.943   3.966
 2013SOL    HW1 6060   2.265   0.982   3.924
 2013SOL    HW2 6061   2.156   0.861   3.917
 2014SOL     OW 6062   3.320   0.735   4.452
 2014SOL    HW1 6063   3.315   0.670   4.527
 2014SOL    HW2 6064   3.400   0.794   4.465
 2015SOL     OW 6065   2.973   1.776   3.961
 2015SOL    HW1 6066   2.913   1.714   4.011
 2015SOL    HW2 6067   3.004   1.732   3.876
 2016SOL     OW 6068   3.494   1.377   3.805
 2016SOL    HW1 6069   3.462   1.471   3.795
 2016SOL    HW2 6070   3.418   1.314   3.793
 2017SOL     OW 6071   2.326   1.743   4.047
 2017SOL    HW1 6072   2.359   1.782   4.133
 2017SOL    HW2 6073   2.402   1.736   3.982
 2018SOL     OW 6074   3.262   0.107   4.150
 2018SOL    HW1 6075   3.238   0.070   4.060
 2018SOL    HW2 6076   3.361   0.123   4.154
 2019SOL     OW 6077   2.111   1.785   4.965
 2019SOL    HW1 6078   2.168   1.720   5.015
 2019SOL    HW2 6079   2.095   1.752   4.872
 2020SOL     OW 6080   2.802   1.698   4.628
 2020SOL    HW1 6081   2.882   1.641   4.649
 2020SOL    HW2 6082   2.753   1.658   4.551
 2021SOL     OW 6083   2.244   0.700   4.204
 2021SOL    HW1 6084   2.289   0.610   4.201
 2021SOL    HW2 6085   2.150   0.689   4.237
 2022SOL     OW 6086   2.476   0.122   3.841
 2022SOL    HW1 6087   2.574   0.100   3.848
 2022SOL    HW2 6088   2.445   0.105   3.748
 2023SOL     OW 6089   2.665   1.402   4.648
 2023SOL    HW1 6090   2.755   1.416   4.606
 2023SOL    HW2 6091   2.594   1.404   4.577
 2024SOL     OW 6092   2.784   0.503   4.623
 2024SOL    HW1 6093   2.759   0.494   4.527
 2024SOL    HW2 6094   2.832   0.421   4.654
 2025SOL     OW 6095   2.401   0.064   4.236
 2025SOL    HW1 6096   2.320   0.065   4.294
 2025SOL    HW2 6097   2.404   0.147   4.181
 2026SOL     OW 6098   3.296   1.188   3.765
 2026SOL    HW1 6099   3.328   1.112   3.822
 2026SOL    HW2 6100   3.204   1.215   3.795
 2027SOL     OW 6101   2.159   0.035   3.895
 2027SOL    HW1 6102   2.208   0.119   3.874
 2027SOL    HW2 6103   2.221  -0.030   3.940
 2028SOL     OW 6104   2.797   0.236   4.204
 2028SOL    HW1 6105   2.749   0.277   4.126
 2028SOL    HW2 6106   2.896   0.234   4.185
 2029SOL     OW 6107   3.089   1.570   4.517
 2029SOL    HW1 6108   3.110   1.644   4.452
 2029SOL    HW2 6109   3.157   1.570   4.590
 2030SOL     OW 6110   2.321   1.152   4.465
 2030SOL    HW1 6111   2.250   1.125   4.530
 2030SOL    HW2 6112   2.295   1.124   4.372
 2031SOL     OW 6113   3.133   1.797   4.315
 2031SOL    HW1 6114   3.177   1.861   4.251
 2031SOL    HW2 6115   3.083   1.849   4.385
 2032SOL     OW 6116   2.894   0.549   3.740
 2032SOL    HW1 6117   2.853   0.631   3.701
 2032SOL    HW2 6118   2.958   0.575   3.813
 2033SOL     OW 6119   2.423   0.222   4.871
 2033SOL    HW1 6120   2.461   0.138   4.908
 2033SOL    HW2 6121   2.335   0.241   4.915
 2034SOL     OW 6122   2.728   0.454   4.366
 2034SOL    HW1 6123   2.696   0.526   4.304
 2034SOL    HW2 6124   2.752   0.373   4.313
 2035SOL     OW 6125   2.879   0.039   4.477
 2035SOL    HW1 6126   2.807   0.044   4.408
 2035SOL    HW2 6127   2.855  -0.030   4.546
 2036SOL     OW 6128   3.291   1.173   4.591
 2036SOL    HW1 6129   3.236   1.089   4.584
 2036SOL    HW2 6130   3.317   1.202   4.499
 2037SOL     OW 6131   3.328   0.590   4.716
 2037SOL    HW1 6132   3.298   0.495   4.723
 2037SOL    HW2 6133   3.401   0.606   4.782
 2038SOL     OW 6134   3.719   0.833   4.101
 2038SOL    HW1 6135   3.761   0.769   4.165
 2038SOL    HW2 6136   3.681   0.782   4.023
 2039SOL     OW 6137   2.350   1.385   3.898
 2039SOL    HW1 6138   2.263   1.370   3.945
 2039SOL    HW2 6139   2.333   1.411   3.803
 2040SOL     OW 6140   3.526   1.280   4.381
 2040SOL    HW1 6141   3.625   1.288   4.395
 2040SOL    HW2 6142   3.481   1.364   4.412
 2041SOL     OW 6143   3.252   0.575   3.802
 2041SOL    HW1 6144   3.198   0.554   3.883
 2041SOL    HW2 6145   3.343   0.534   3.811
 2042SOL     OW 6146   2.389   0.256   4.052
 2042SOL    HW1 6147   2.416   0.197   3.977
 2042SOL    HW2 6148   2.389   0.351   4.021
 2043SOL     OW 6149   2.973   1.195   4.824
 2043SOL    HW1 6150   2.933   1.239   4.905
 2043SOL    HW2 6151   2.932   1.232   4.741
 2044SOL     OW 6152   3.500   1.099   4.803
 2044SOL    HW1 6153   3.505   1.180   4.862
 2044SOL    HW2 6154   3.414   1.101   4.752
 2045SOL     OW 6155   2.567   1.050   4.092
 2045SOL    HW1 6156   2.553   1.057   4.191
 2045SOL    HW2 6157   2.651   0.999   4.074
 2046SOL     OW 6158   2.272   0.813   4.975
 2046SOL    HW1 6159   2.358   0.825   5.025
 2046SOL    HW2 6160   2.230   0.726   5.002
 2047SOL     OW 6161   3.136   0.386   4.986
 2047SOL    HW1 6162   3.157   0.460   5.050
 2047SOL    HW2 6163   3.047   0.403   4.943
 2048SOL     OW 6164   2.229   1.100   4.225
 2048SOL    HW1 6165   2.222   1.183   4.169
 2048SOL    HW2 6166   2.233   1.020   4.165
 2049SOL     OW 6167   2.428   0.537   4.589
 2049SOL    HW1 6168   2.440   0.603   4.515
 2049SOL    HW2 6169   2.474   0.571   4.672
 2050SOL     OW 6170   3.114   1.348   4.112
 2050SOL    HW1 6171   3.164   1.425   4.152
 2050SOL    HW2 6172   3.019   1.350   4.144
 2051SOL     OW 6173   3.134   1.445   4.866
 2051SOL    HW1 6174   3.181   1.458   4.953
 2051SOL    HW2 6175   3.068   1.371   4.875
 2052SOL     OW 6176   3.444   0.639   4.196
 2052SOL    HW1 6177   3.413   0.700   4.269
 2052SOL    HW2 6178   3.494   0.691   4.127
 2053SOL     OW 6179   2.216   1.510   5.053
 2053SOL    HW1 6180   2.195   1.466   4.966
 2053SOL    HW2 6181   2.313   1.536   5.056
 2054SOL     OW 6182   2.435   0.870   4.753
 2054SOL    HW1 6183   2.479   0.959   4.744
 2054SOL    HW2 6184   2.372   0.870   4.830
 2055SOL     OW 6185   3.222   0.862   4.769
 2055SOL    HW1 6186   3.147   0.862   4.703
 2055SOL    HW2 6187   3.259   0.770   4.778
 2056SOL     OW 6188   3.071   0.525   3.999
 2056SOL    HW1 6189   3.084   0.441   4.053
 2056SOL    HW2 6190   3.042   0.599   4.059
 2057SOL     OW 6191   2.169   0.213   4.955
 2057SOL    HW1 6192   2.146   0.250   5.045
 2057SOL    HW2 6193   2.139   0.118   4.949
 2058SOL     OW 6194   1.899   1.310   5.006
 2058SOL    HW1 6195   1.952   1.261   5.074
 2058SOL    HW2 6196   1.921   1.408   5.011
 2059SOL     OW 6197   2.594   0.634   4.788
 2059SOL    HW1 6198   2.653   0.608   4.712
 2059SOL    HW2 6199   2.566   0.730   4.777
 2060SOL     OW 6200   2.169   0.063   4.342
 2060SOL    HW1 6201   2.158   0.157   4.375
 2060SOL    HW2 6202   2.164   0.000   4.419
 2061SOL     OW 6203   3.484   0.367   4.098
 2061SOL    HW1 6204   3.486   0.291   4.162
 2061SOL    HW2 6205   3.436   0.444   4.138
 2062SOL     OW 6206   2.885   0.766   4.690
 2062SOL    HW1 6207   2.900   0.787   4.786
 2062SOL    HW2 6208   2.855   0.671   4.681
 2063SOL     OW 6209   3.402   0.274   3.849
 2063SOL    HW1 6210   3.341   0.199   3.872
 2063SOL    HW2 6211   3.424   0.326   3.932
 2064SOL     OW 6212   3.165   0.838   3.766
 2064SOL    HW1 6213   3.199   0.745   3.781
 2064SOL    HW2 6214   3.183   0.865   3.671
 2065SOL     OW 6215   2.930   1.333   4.573
 2065SOL    HW1 6216   2.937   1.249   4.518
 2065SOL    HW2 6217   2.992   1.402   4.537
 2066SOL     OW 6218   2.181   0.810   4.673
 2066SOL    HW1 6219   2.274   0.846   4.678
 2066SOL    HW2 6220   2.175   0.725   4.725
 2067SOL     OW 6221   2.201   0.509   4.730
 2067SOL    HW1 6222   2.149   0.426   4.713
 2067SOL    HW2 6223   2.278   0.514   4.666
 2068SOL     OW 6224   3.022   0.207   5.201
 2068SOL    HW1 6225   3.022   0.271   5.278
 2068SOL    HW2 6226   3.050   0.255   5.118
 2069SOL     OW 6227   1.870   1.326   3.924
 2069SOL    HW1 6228   1.777   1.347   3.893
 2069SOL    HW2 6229   1.880   1.227   3.937
 2070SOL     OW 6230   1.950   1.801   4.651
 2070SOL    HW1 6231   1.908   1.715   4.624
 2070SOL    HW2 6232   2.044   1.804   4.617
 2071SOL     OW 6233   2.366   1.568   4.634
 2071SOL    HW1 6234   2.432   1.642   4.643
 2071SOL    HW2 6235   2.410   1.489   4.592
 2072SOL     OW 6236   2.864   0.796   4.962
 2072SOL    HW1 6237   2.905   0.764   5.048
 2072SOL    HW2 6238   2.768   0.769   4.959
 2073SOL     OW 6239   1.902   0.544   4.838
 2073SOL    HW1 6240   1.987   0.511   4.797
 2073SOL    HW2 6241   1.915   0.559   4.936
 2074SOL     OW 6242   2.677   0.572   4.049
 2074SOL    HW1 6243   2.684   0.483   4.003
 2074SOL    HW2 6244   2.583   0.606   4.041
 2075SOL     OW 6245   3.519   0.604   4.930
 2075SOL    HW1 6246   3.481   0.535   4.992
 2075SOL    HW2 6247   3.601   0.568   4.886
 2076SOL     OW 6248   2.533   0.464   4.993
 2076SOL    HW1 6249   2.499   0.375   4.963
 2076SOL    HW2 6250   2.559   0.518   4.913
 2077SOL     OW 6251   2.792   1.678   5.189
 2077SOL    HW1 6252   2.768   1.660   5.094
 2077SOL    HW2 6253   2.822   1.772   5.199
 2078SOL     OW 6254   2.335   0.500   3.915
 2078SOL    HW1 6255   2.396   0.580   3.919
 2078SOL    HW2 6256   2.240   0.531   3.922
 2079SOL     OW 6257   3.209   1.059   4.958
 2079SOL    HW1 6258   3.233   0.996   4.884
 2079SOL    HW2 6259   3.119   1.099   4.940
 2080SOL     OW 6260   3.164   0.855   4.033
 2080SOL    HW1 6261   3.078   0.824   4.075
 2080SOL    HW2 6262   3.160   0.841   3.934
 2081SOL     OW 6263   3.621   1.747   4.878
 2081SOL    HW1 6264   3.682   1.777   4.805
 2081SOL    HW2 6265   3.583   1.658   4.856
 2082SOL     OW 6266   3.114   1.731   4.852
 2082SOL    HW1 6267   3.198   1.736   4.798
 2082SOL    HW2 6268   3.091   1.635   4.870
 2083SOL     OW 6269   1.945   1.258   4.746
 2083SOL    HW1 6270   1.940   1.257   4.846
 2083SOL    HW2 6271   1.862   1.217   4.708
 2084SOL     OW 6272   3.588   0.135   4.247
 2084SOL    HW1 6273   3.661   0.118   4.180
 2084SOL    HW2 6274   3.557   0.048   4.285
 2085SOL     OW 6275   3.250   1.573   4.201
 2085SOL    HW1 6276   3.317   1.585   4.127
 2085SOL    HW2 6277   3.210   1.662   4.224
 2086SOL     OW 6278   3.142   0.927   4.396
 2086SOL    HW1 6279   3.202   0.846   4.398
 2086SOL    HW2 6280   3.182   0.996   4.336
 2087SOL     OW 6281   2.534   1.616   3.878
 2087SOL    HW1 6282   2.543   1.626   3.779
 2087SOL    HW2 6283   2.494   1.527   3.899
 2088SOL     OW 6284   3.512   1.720   5.118
 2088SOL    HW1 6285   3.565   1.730   5.034
 2088SOL    HW2 6286   3.485   1.810   5.152
 2089SOL     OW 6287   3.703   0.175   4.687
 2089SOL    HW1 6288   3.742   0.090   4.651
 2089SOL    HW2 6289   3.605   0.177   4.668
 2090SOL     OW 6290   2.125   0.326   4.444
 2090SOL    HW1 6291   2.046   0.377   4.410
 2090SOL    HW2 6292   2.116   0.311   4.542
 2091SOL     OW 6293   3.056   1.612   3.755
 2091SOL    HW1 6294   3.062   1.519   3.792
 2091SOL    HW2 6295   2.997   1.612   3.675
 2092SOL     OW 6296   2.684   1.002   5.096
 2092SOL    HW1 6297   2.724   1.001   5.004
 2092SOL    HW2 6298   2.694   1.094   5.136
 2093SOL     OW 6299   2.778   0.910   4.015
 2093SOL    HW1 6300   2.841   0.948   3.947
 2093SOL    HW2 6301   2.818   0.827   4.054
 2094SOL     OW 6302   3.366   1.607   3.768
 2094SOL    HW1 6303   3.274   1.644   3.775
 2094SOL    HW2 6304   3.404   1.627   3.678
 2095SOL     OW 6305   2.901   1.098   4.420
 2095SOL    HW1 6306   2.831   1.051   4.474
 2095SOL    HW2 6307   2.960   1.030   4.377
 2096SOL     OW 6308   2.876   0.236   4.695
 2096SOL    HW1 6309   2.868   0.200   4.602
 2096SOL    HW2 6310   2.874   0.160   4.760
 2097SOL     OW 6311   2.452   1.487   4.215
 2097SOL    HW1 6312   2.494   1.429   4.145
 2097SOL    HW2 6313   2.408   1.566   4.171
 2098SOL     OW 6314   3.571   0.385   5.105
 2098SOL    HW1 6315   3.644   0.454   5.109
 2098SOL    HW2 6316   3.599   0.310   5.046
 2099SOL     OW 6317   2.117   1.348   4.014
 2099SOL    HW1 6318   2.021   1.349   3.987
 2099SOL    HW2 6319   2.129   1.401   4.098
 2100SOL     OW 6320   1.937   0.345   3.757
 2100SOL    HW1 6321   1.845   0.317   3.728
 2100SOL    HW2 6322   1.968   0.422   3.701
 2101SOL     OW 6323   1.934   0.166   4.042
 2101SOL    HW1 6324   1.917   0.249   3.988
 2101SOL    HW2 6325   2.024   0.129   4.020
 2102SOL     OW 6326   3.045   1.335   3.843
 2102SOL    HW1 6327   2.946   1.324   3.845
 2102SOL    HW2 6328   3.079   1.350   3.936
 2103SOL     OW 6329   3.355   1.767   4.683
 2103SOL    HW1 6330   3.388   1.831   4.614
 2103SOL    HW2 6331   3.421   1.761   4.758
 2104SOL     OW 6332   3.536   0.883   4.978
 2104SOL    HW1 6333   3.509   0.794   4.941
 2104SOL    HW2 6334   3.537   0.951   4.905
 2105SOL     OW 6335   3.087   0.325   4.173
 2105SOL    HW1 6336   3.152   0.251   4.162
 2105SOL    HW2 6337   3.107   0.375   4.257
 2106SOL     OW 6338   2.456   0.745   4.376
 2106SOL    HW1 6339   2.506   0.830   4.357
 2106SOL    HW2 6340   2.368   0.747   4.328
 2107SOL     OW 6341   3.592   0.934   5.241
 2107SOL    HW1 6342   3.630   1.025   5.256
 2107SOL    HW2 6343   3.584   0.917   5.142
 2108SOL     OW 6344   2.721   1.374   3.740
 2108SOL    HW1 6345   2.675   1.389   3.828
 2108SOL    HW2 6346   2.765   1.459   3.710
 2109SOL     OW 6347   2.523   1.790   4.677
 2109SOL    HW1 6348   2.477   1.878   4.664
 2109SOL    HW2 6349   2.622   1.802   4.670
 2110SOL     OW 6350   2.721   0.956   4.585
 2110SOL    HW1 6351   2.775   0.887   4.633
 2110SOL    HW2 6352   2.689   1.025   4.651
 2111SOL     OW 6353   2.945   0.984   3.811
 2111SOL    HW1 6354   2.922   1.037   3.729
 2111SOL    HW2 6355   3.026   0.928   3.792
 2112SOL     OW 6356   3.723   1.569   4.575
 2112SOL    HW1 6357   3.652   1.557   4.505
 2112SOL    HW2 6358   3.724   1.490   4.635
 2113SOL     OW 6359   1.941   1.240   4.377
 2113SOL    HW1 6360   1.940   1.193   4.465
 2113SOL    HW2 6361   2.023   1.212   4.326
 2114SOL     OW 6362   3.686   0.192   4.951
 2114SOL    HW1 6363   3.682   0.102   4.995
 2114SOL    HW2 6364   3.689   0.181   4.852
 2115SOL     OW 6365   2.290   0.424   4.244
 2115SOL    HW1 6366   2.320   0.352   4.182
 2115SOL    HW2 6367   2.251   0.384   4.327
 2116SOL     OW 6368   3.567   1.487   4.828
 2116SOL    HW1 6369   3.474   1.462   4.801
 2116SOL    HW2 6370   3.593   1.437   4.910
 2117SOL     OW 6371   2.674   1.586   4.411
 2117SOL    HW1 6372   2.706   1.596   4.317
 2117SOL    HW2 6373   2.595   1.524   4.413
 2118SOL     OW 6374   3.286   0.214   4.836
 2118SOL    HW1 6375   3.338   0.149   4.891
 2118SOL    HW2 6376   3.237   0.277   4.897
 2119SOL     OW 6377   2.863   0.034   4.878
 2119SOL    HW1 6378   2.800  -0.038   4.847
 2119SOL    HW2 6379   2.956  -0.002   4.878
 2120SOL     OW 6380   2.632   1.330   4.025
 2120SOL    HW1 6381   2.586   1.243   4.042
 2120SOL    HW2 6382   2.723   1.327   4.066
 2121SOL     OW 6383   3.214   0.052   3.892
 2121SOL    HW1 6384   3.249   0.011   3.808
 2121SOL    HW2 6385   3.124   0.014   3.912
 2122SOL     OW 6386   3.162   0.453   4.415
 2122SOL    HW1 6387   3.103   0.533   4.419
 2122SOL    HW2 6388   3.177   0.418   4.508
 2123SOL     OW 6389   3.455   0.221   4.606
 2123SOL    HW1 6390   3.371   0.220   4.660
 2123SOL    HW2 6391   3.457   0.304   4.550
 2124SOL     OW 6392   1.901   1.077   4.024
 2124SOL    HW1 6393   2.000   1.066   4.015
 2124SOL    HW2 6394   1.861   0.991   4.056
 2125SOL     OW 6395   2.737   1.646   4.061
 2125SOL    HW1 6396   2.660   1.611   4.007
 2125SOL    HW2 6397   2.705   1.717   4.123
 2126SOL     OW 6398   2.092   2.490   0.113
 2126SOL    HW1 6399   1.999   2.488   0.150
 2126SOL    HW2 6400   2.093   2.451   0.021
 2127SOL     OW 6401   2.087   2.137   0.996
 2127SOL    HW1 6402   2.122   2.120   1.088
 2127SOL    HW2 6403   1.999   2.092   0.984
 2128SOL     OW 6404   1.881   2.230   0.647
 2128SOL    HW1 6405   1.799   2.273   0.686
 2128SOL    HW2 6406   1.853   2.157   0.584
 2129SOL     OW 6407   2.431   3.137   1.165
 2129SOL    HW1 6408   2.338   3.130   1.128
 2129SOL    HW2 6409   2.442   3.226   1.209
 2130SOL     OW 6410   3.417   3.373   0.703
 2130SOL    HW1 6411   3.360   3.357   0.784
 2130SOL    HW2 6412   3.358   3.383   0.623
 2131SOL     OW 6413   2.997   2.565   0.717
 2131SOL    HW1 6414   3.054   2.643   0.692
 2131SOL    HW2 6415   2.937   2.591   0.793
 2132SOL     OW 6416   3.617   2.469   0.231
 2132SOL    HW1 6417   3.605   2.456   0.132
 2132SOL    HW2 6418   3.587   2.388   0.280
 2133SOL     OW 6419   2.630   3.006   1.023
 2133SOL    HW1 6420   2.552   3.023   1.083
 2133SOL    HW2 6421   2.664   3.093   0.987
 2134SOL     OW 6422   2.712   2.660   1.823
 2134SOL    HW1 6423   2.708   2.736   1.888
 2134SOL    HW2 6424   2.734   2.696   1.732
 2135SOL     OW 6425   2.547   2.874   0.665
 2135SOL    HW1 6426   2.616   2.858   0.735
 2135SOL    HW2 6427   2.474   2.931   0.703
 2136SOL     OW 6428   2.548   3.023   1.803
 2136SOL    HW1 6429   2.608   3.102   1.817
 2136SOL    HW2 6430   2.462   3.054   1.762
 2137SOL     OW 6431   2.197   3.297   1.061
 2137SOL    HW1 6432   2.119   3.266   1.008
 2137SOL    HW2 6433   2.255   3.355   1.004
 2138SOL     OW 6434   3.322   3.367   1.339
 2138SOL    HW1 6435   3.346   3.461   1.365
 2138SOL    HW2 6436   3.306   3.313   1.421
 2139SOL     OW 6437   2.300   2.254   1.499
 2139SOL    HW1 6438   2.382   2.198   1.508
 2139SOL    HW2 6439   2.219   2.196   1.503
 2140SOL     OW 6440   3.465   2.309   0.737
 2140SOL    HW1 6441   3.391   2.355   0.687
 2140SOL    HW2 6442   3.516   2.377   0.790
 2141SOL     OW 6443   2.093   3.575   0.483
 2141SOL    HW1 6444   2.127   3.652   0.537
 2141SOL    HW2 6445   2.137   3.575   0.393
 2142SOL     OW 6446   2.989   3.203   1.690
 2142SOL    HW1 6447   3.036   3.203   1.778
 2142SOL    HW2 6448   2.941   3.116   1.679
 2143SOL     OW 6449   2.092   3.296   0.538
 2143SOL    HW1 6450   2.066   3.392   0.538
 2143SOL    HW2 6451   2.021   3.242   0.583
 2144SOL     OW 6452   2.102   2.953   0.886
 2144SOL    HW1 6453   2.116   2.869   0.938
 2144SOL    HW2 6454   2.047   3.017   0.941
 2145SOL     OW 6455   2.482   3.648   1.439
 2145SOL    HW1 6456   2.390   3.631   1.474
 2145SOL    HW2 6457   2.510   3.740   1.465
 2146SOL     OW 6458   2.468   2.826   0.123
 2146SOL    HW1 6459   2.475   2.910   0.069
 2146SOL    HW2 6460   2.514   2.839   0.211
 2147SOL     OW 6461   3.456   1.976   1.480
 2147SOL    HW1 6462   3.438   2.043   1.408
 2147SOL    HW2 6463   3.453   2.022   1.569
 2148SOL     OW 6464   1.984   2.505   0.563
 2148SOL    HW1 6465   1.939   2.417   0.580
 2148SOL    HW2 6466   1.983   2.559   0.647
 2149SOL     OW 6467   3.704   3.629   0.359
 2149SOL    HW1 6468   3.758   3.600   0.439
 2149SOL    HW2 6469   3.734   3.719   0.330
 2150SOL     OW 6470   1.889   3.458   0.117
 2150SOL    HW1 6471   1.870   3.362   0.138
 2150SOL    HW2 6472   1.856   3.516   0.192
 2151SOL     OW 6473   3.551   2.784   0.612
 2151SOL    HW1 6474   3.646   2.755   0.620
 2151SOL    HW2 6475   3.543   2.849   0.537
 2152SOL     OW 6476   3.503   2.970   0.432
 2152SOL    HW1 6477   3.589   2.972   0.380
 2152SOL    HW2 6478   3.517   3.017   0.520
 2153SOL     OW 6479   1.975   2.599   1.597
 2153SOL    HW1 6480   2.063   2.586   1.642
 2153SOL    HW2 6481   1.962   2.696   1.575
 2154SOL     OW 6482   2.475   3.227   0.726
 2154SOL    HW1 6483   2.426   3.140   0.735
 2154SOL    HW2 6484   2.452   3.270   0.639
 2155SOL     OW 6485   3.155   3.090   1.423
 2155SOL    HW1 6486   3.192   3.017   1.365
 2155SOL    HW2 6487   3.207   3.095   1.508
 2156SOL     OW 6488   2.671   1.866   0.502
 2156SOL    HW1 6489   2.711   1.957   0.493
 2156SOL    HW2 6490   2.571   1.874   0.508
 2157SOL     OW 6491   2.059   2.838   1.264
 2157SOL    HW1 6492   2.148   2.793   1.250
 2157SOL    HW2 6493   1.986   2.773   1.245
 2158SOL     OW 6494   3.387   2.861   0.190
 2158SOL    HW1 6495   3.324   2.785   0.203
 2158SOL    HW2 6496   3.435   2.879   0.276
 2159SOL     OW 6497   3.049   3.654   1.616
 2159SOL    HW1 6498   3.073   3.714   1.540
 2159SOL    HW2 6499   3.056   3.559   1.586
 2160SOL     OW 6500   2.179   2.113   1.801
 2160SOL    HW1 6501   2.250   2.184   1.807
 2160SOL    HW2 6502   2.091   2.152   1.829
 2161SOL     OW 6503   3.328   3.279   0.953
 2161SOL    HW1 6504   3.269   3.285   1.033
 2161SOL    HW2 6505   3.313   3.191   0.907
 2162SOL     OW 6506   3.529   3.576   0.572
 2162SOL    HW1 6507   3.488   3.553   0.484
 2162SOL    HW2 6508   3.511   3.502   0.637
 2163SOL     OW 6509   2.460   2.591   0.270
 2163SOL    HW1 6510   2.484   2.660   0.202
 2163SOL    HW2 6511   2.382   2.624   0.324
 2164SOL     OW 6512   3.143   2.207   0.944
 2164SOL    HW1 6513   3.057   2.157   0.931
 2164SOL    HW2 6514   3.205   2.153   1.000
 2165SOL     OW 6515   3.438   3.524   0.307
 2165SOL    HW1 6516   3.527   3.570   0.310
 2165SOL    HW2 6517   3.417   3.500   0.212
 2166SOL     OW 6518   2.669   2.467   1.465
 2166SOL    HW1 6519   2.622   2.464   1.554
 2166SOL    HW2 6520   2.618   2.412   1.399
 2167SOL     OW 6521   3.256   2.331   1.674
 2167SOL    HW1 6522   3.236   2.374   1.762
 2167SOL    HW2 6523   3.334   2.269   1.683
 2168SOL     OW 6524   2.835   2.752   1.572
 2168SOL    HW1 6525   2.881   2.668   1.543
 2168SOL    HW2 6526   2.779   2.786   1.497
 2169SOL     OW 6527   2.853   2.272   1.242
 2169SOL    HW1 6528   2.776   2.306   1.296
 2169SOL    HW2 6529   2.819   2.221   1.163
 2170SOL     OW 6530   2.903   2.563   0.429
 2170SOL    HW1 6531   2.929   2.559   0.525
 2170SOL    HW2 6532   2.818   2.512   0.415
 2171SOL     OW 6533   1.938   2.673   0.789
 2171SOL    HW1 6534   2.037   2.661   0.798
 2171SOL    HW2 6535   1.914   2.768   0.810
 2172SOL     OW 6536   1.992   3.683   1.571
 2172SOL    HW1 6537   1.982   3.668   1.670
 2172SOL    HW2 6538   1.906   3.719   1.535
 2173SOL     OW 6539   2.727   2.210   0.195
 2173SOL    HW1 6540   2.786   2.273   0.146
 2173SOL    HW2 6541   2.746   2.116   0.166
 2174SOL     OW 6542   3.581   2.447   1.831
 2174SOL    HW1 6543   3.555   2.536   1.795
 2174SOL    HW2 6544   3.579   2.379   1.758
 2175SOL     OW 6545   3.224   3.006   0.545
 2175SOL    HW1 6546   3.307   2.977   0.497
 2175SOL    HW2 6547   3.175   3.073   0.489
 2176SOL     OW 6548   2.412   2.058   0.885
 2176SOL    HW1 6549   2.407   2.053   0.985
 2176SOL    HW2 6550   2.414   2.154   0.856
 2177SOL     OW 6551   2.870   3.318   0.477
 2177SOL    HW1 6552   2.824   3.390   0.425
 2177SOL    HW2 6553   2.866   3.338   0.575
 2178SOL     OW 6554   2.213   3.663   0.853
 2178SOL    HW1 6555   2.263   3.577   0.859
 2178SOL    HW2 6556   2.278   3.740   0.850
 2179SOL     OW 6557   3.657   2.928   0.873
 2179SOL    HW1 6558   3.595   2.913   0.797
 2179SOL    HW2 6559   3.605   2.939   0.958
 2180SOL     OW 6560   3.089   3.412   1.506
 2180SOL    HW1 6561   3.095   3.335   1.570
 2180SOL    HW2 6562   3.037   3.386   1.426
 2181SOL     OW 6563   2.183   2.805   0.242
 2181SOL    HW1 6564   2.265   2.844   0.200
 2181SOL    HW2 6565   2.156   2.723   0.193
 2182SOL     OW 6566   3.320   2.597   0.728
 2182SOL    HW1 6567   3.315   2.532   0.803
 2182SOL    HW2 6568   3.400   2.656   0.741
 2183SOL     OW 6569   2.323   3.128   1.727
 2183SOL    HW1 6570   2.273   3.129   1.641
 2183SOL    HW2 6571   2.260   3.110   1.803
 2184SOL     OW 6572   2.973   3.638   0.237
 2184SOL    HW1 6573   2.913   3.576   0.287
 2184SOL    HW2 6574   3.004   3.594   0.152
 2185SOL     OW 6575   2.064   2.147   1.498
 2185SOL    HW1 6576   1.984   2.207   1.485
 2185SOL    HW2 6577   2.054   2.098   1.584
 2186SOL     OW 6578   3.494   3.239   0.081
 2186SOL    HW1 6579   3.462   3.333   0.071
 2186SOL    HW2 6580   3.418   3.176   0.069
 2187SOL     OW 6581   2.326   3.605   0.323
 2187SOL    HW1 6582   2.359   3.644   0.409
 2187SOL    HW2 6583   2.402   3.598   0.258
 2188SOL     OW 6584   3.262   1.969   0.426
 2188SOL    HW1 6585   3.238   1.932   0.336
 2188SOL    HW2 6586   3.361   1.985   0.430
 2189SOL     OW 6587   2.111   3.647   1.241
 2189SOL    HW1 6588   2.168   3.582   1.291
 2189SOL    HW2 6589   2.095   3.614   1.148
 2190SOL     OW 6590   2.802   3.560   0.904
 2190SOL    HW1 6591   2.882   3.503   0.925
 2190SOL    HW2 6592   2.753   3.520   0.827
 2191SOL     OW 6593   2.244   2.562   0.480
 2191SOL    HW1 6594   2.289   2.472   0.477
 2191SOL    HW2 6595   2.150   2.551   0.513
 2192SOL     OW 6596   3.409   2.084   1.729
 2192SOL    HW1 6597   3.404   2.121   1.821
 2192SOL    HW2 6598   3.337   2.015   1.717
 2193SOL     OW 6599   2.476   1.984   0.117
 2193SOL    HW1 6600   2.574   1.962   0.124
 2193SOL    HW2 6601   2.445   1.967   0.024
 2194SOL     OW 6602   2.643   2.126   1.749
 2194SOL    HW1 6603   2.710   2.065   1.792
 2194SOL    HW2 6604   2.570   2.145   1.814
 2195SOL     OW 6605   2.750   3.376   1.195
 2195SOL    HW1 6606   2.727   3.351   1.101
 2195SOL    HW2 6607   2.811   3.307   1.234
 2196SOL     OW 6608   3.213   2.452   1.433
 2196SOL    HW1 6609   3.241   2.409   1.518
 2196SOL    HW2 6610   3.238   2.548   1.434
 2197SOL     OW 6611   2.665   3.264   0.924
 2197SOL    HW1 6612   2.755   3.278   0.882
 2197SOL    HW2 6613   2.594   3.266   0.853
 2198SOL     OW 6614   2.784   2.365   0.899
 2198SOL    HW1 6615   2.759   2.356   0.803
 2198SOL    HW2 6616   2.832   2.283   0.930
 2199SOL     OW 6617   2.401   1.926   0.512
 2199SOL    HW1 6618   2.320   1.927   0.570
 2199SOL    HW2 6619   2.404   2.009   0.457
 2200SOL     OW 6620   3.296   3.050   0.041
 2200SOL    HW1 6621   3.328   2.974   0.098
 2200SOL    HW2 6622   3.204   3.077   0.071
 2201SOL     OW 6623   2.159   1.897   0.171
 2201SOL    HW1 6624   2.208   1.981   0.150
 2201SOL    HW2 6625   2.221   1.832   0.216
 2202SOL     OW 6626   2.797   2.098   0.480
 2202SOL    HW1 6627   2.749   2.139   0.402
 2202SOL    HW2 6628   2.896   2.096   0.461
 2203SOL     OW 6629   2.938   2.545   1.464
 2203SOL    HW1 6630   2.858   2.484   1.467
 2203SOL    HW2 6631   3.019   2.492   1.440
 2204SOL     OW 6632   3.089   3.432   0.793
 2204SOL    HW1 6633   3.110   3.506   0.728
 2204SOL    HW2 6634   3.157   3.432   0.866
 2205SOL     OW 6635   2.321   3.014   0.741
 2205SOL    HW1 6636   2.250   2.987   0.806
 2205SOL    HW2 6637   2.295   2.986   0.648
 2206SOL     OW 6638   3.133   3.659   0.591
 2206SOL    HW1 6639   3.177   3.723   0.527
 2206SOL    HW2 6640   3.083   3.711   0.661
 2207SOL     OW 6641   2.894   2.411   0.016
 2207SOL    HW1 6642   2.853   2.493  -0.023
 2207SOL    HW2 6643   2.958   2.437   0.089
 2208SOL     OW 6644   1.940   2.418   1.386
 2208SOL    HW1 6645   2.032   2.417   1.345
 2208SOL    HW2 6646   1.934   2.492   1.453
 2209SOL     OW 6647   2.423   2.084   1.147
 2209SOL    HW1 6648   2.461   2.000   1.184
 2209SOL    HW2 6649   2.335   2.103   1.191
 2210SOL     OW 6650   2.728   2.316   0.642
 2210SOL    HW1 6651   2.696   2.388   0.580
 2210SOL    HW2 6652   2.752   2.235   0.589
 2211SOL     OW 6653   2.879   1.901   0.753
 2211SOL    HW1 6654   2.807   1.906   0.684
 2211SOL    HW2 6655   2.855   1.832   0.822
 2212SOL     OW 6656   3.291   3.035   0.867
 2212SOL    HW1 6657   3.236   2.951   0.860
 2212SOL    HW2 6658   3.317   3.064   0.775
 2213SOL     OW 6659   3.328   2.452   0.992
 2213SOL    HW1 6660   3.298   2.357   0.999
 2213SOL    HW2 6661   3.401   2.468   1.058
 2214SOL     OW 6662   3.719   2.695   0.377
 2214SOL    HW1 6663   3.761   2.631   0.441
 2214SOL    HW2 6664   3.681   2.644   0.299
 2215SOL     OW 6665   2.350   3.247   0.174
 2215SOL    HW1 6666   2.263   3.232   0.221
 2215SOL    HW2 6667   2.333   3.273   0.079
 2216SOL     OW 6668   3.526   3.142   0.657
 2216SOL    HW1 6669   3.625   3.150   0.671
 2216SOL    HW2 6670   3.481   3.226   0.688
 2217SOL     OW 6671   3.252   2.437   0.078
 2217SOL    HW1 6672   3.198   2.416   0.159
 2217SOL    HW2 6673   3.343   2.396   0.087
 2218SOL     OW 6674   2.389   2.118   0.328
 2218SOL    HW1 6675   2.416   2.059   0.253
 2218SOL    HW2 6676   2.389   2.213   0.297
 2219SOL     OW 6677   3.616   3.085   1.588
 2219SOL    HW1 6678   3.707   3.046   1.575
 2219SOL    HW2 6679   3.624   3.181   1.612
 2220SOL     OW 6680   2.926   3.209   1.340
 2220SOL    HW1 6681   2.846   3.186   1.395
 2220SOL    HW2 6682   3.009   3.183   1.389
 2221SOL     OW 6683   3.454   3.491   1.625
 2221SOL    HW1 6684   3.481   3.525   1.535
 2221SOL    HW2 6685   3.533   3.453   1.671
 2222SOL     OW 6686   2.973   3.057   1.100
 2222SOL    HW1 6687   2.933   3.101   1.181
 2222SOL    HW2 6688   2.932   3.094   1.017
 2223SOL     OW 6689   3.500   2.961   1.079
 2223SOL    HW1 6690   3.505   3.042   1.138
 2223SOL    HW2 6691   3.414   2.963   1.028
 2224SOL     OW 6692   2.777   1.951   1.402
 2224SOL    HW1 6693   2.802   1.931   1.307
 2224SOL    HW2 6694   2.849   2.007   1.444
 2225SOL     OW 6695   2.842   2.978   1.719
 2225SOL    HW1 6696   2.743   2.984   1.729
 2225SOL    HW2 6697   2.865   2.898   1.663
 2226SOL     OW 6698   2.567   2.912   0.368
 2226SOL    HW1 6699   2.553   2.919   0.467
 2226SOL    HW2 6700   2.651   2.861   0.350
 2227SOL     OW 6701   2.272   2.675   1.251
 2227SOL    HW1 6702   2.358   2.687   1.301
 2227SOL    HW2 6703   2.230   2.588   1.278
 2228SOL     OW 6704   3.136   2.248   1.262
 2228SOL    HW1 6705   3.157   2.322   1.326
 2228SOL    HW2 6706   3.047   2.265   1.219
 2229SOL     OW 6707   1.926   3.426   1.331
 2229SOL    HW1 6708   1.880   3.508   1.297
 2229SOL    HW2 6709   2.024   3.445   1.340
 2230SOL     OW 6710   2.229   2.962   0.501
 2230SOL    HW1 6711   2.222   3.045   0.445
 2230SOL    HW2 6712   2.233   2.882   0.441
 2231SOL     OW 6713   2.428   2.399   0.865
 2231SOL    HW1 6714   2.440   2.465   0.791
 2231SOL    HW2 6715   2.474   2.433   0.948
 2232SOL     OW 6716   3.114   3.210   0.388
 2232SOL    HW1 6717   3.164   3.287   0.428
 2232SOL    HW2 6718   3.019   3.212   0.420
 2233SOL     OW 6719   3.134   3.307   1.142
 2233SOL    HW1 6720   3.181   3.320   1.229
 2233SOL    HW2 6721   3.068   3.233   1.151
 2234SOL     OW 6722   3.444   2.501   0.472
 2234SOL    HW1 6723   3.413   2.562   0.545
 2234SOL    HW2 6724   3.494   2.553   0.403
 2235SOL     OW 6725   2.216   3.372   1.329
 2235SOL    HW1 6726   2.195   3.328   1.242
 2235SOL    HW2 6727   2.313   3.398   1.332
 2236SOL     OW 6728   2.264   2.613   1.598
 2236SOL    HW1 6729   2.332   2.668   1.551
 2236SOL    HW2 6730   2.304   2.525   1.625
 2237SOL     OW 6731   3.449   2.641   1.670
 2237SOL    HW1 6732   3.357   2.679   1.665
 2237SOL    HW2 6733   3.509   2.688   1.605
 2238SOL     OW 6734   2.875   1.967   1.770
 2238SOL    HW1 6735   2.881   2.052   1.718
 2238SOL    HW2 6736   2.907   1.891   1.713
 2239SOL     OW 6737   2.366   1.912   1.740
 2239SOL    HW1 6738   2.324   1.855   1.670
 2239SOL    HW2 6739   2.300   1.981   1.772
 2240SOL     OW 6740   2.435   2.732   1.029
 2240SOL    HW1 6741   2.479   2.821   1.020
 2240SOL    HW2 6742   2.372   2.732   1.106
 2241SOL     OW 6743   3.222   2.724   1.045
 2241SOL    HW1 6744   3.147   2.724   0.979
 2241SOL    HW2 6745   3.259   2.632   1.054
 2242SOL     OW 6746   3.071   2.387   0.275
 2242SOL    HW1 6747   3.084   2.303   0.329
 2242SOL    HW2 6748   3.042   2.461   0.335
 2243SOL     OW 6749   2.169   2.075   1.231
 2243SOL    HW1 6750   2.146   2.112   1.321
 2243SOL    HW2 6751   2.139   1.980   1.225
 2244SOL     OW 6752   1.899   3.172   1.282
 2244SOL    HW1 6753   1.952   3.123   1.350
 2244SOL    HW2 6754   1.921   3.270   1.287
 2245SOL     OW 6755   2.594   2.496   1.064
 2245SOL    HW1 6756   2.653   2.470   0.988
 2245SOL    HW2 6757   2.566   2.592   1.053
 2246SOL     OW 6758   3.590   2.797   1.854
 2246SOL    HW1 6759   3.544   2.790   1.765
 2246SOL    HW2 6760   3.528   2.841   1.920
 2247SOL     OW 6761   2.169   1.925   0.618
 2247SOL    HW1 6762   2.158   2.019   0.651
 2247SOL    HW2 6763   2.164   1.862   0.695
 2248SOL     OW 6764   3.484   2.229   0.374
 2248SOL    HW1 6765   3.486   2.153   0.438
 2248SOL    HW2 6766   3.436   2.306   0.414
 2249SOL     OW 6767   2.885   2.628   0.966
 2249SOL    HW1 6768   2.900   2.649   1.062
 2249SOL    HW2 6769   2.855   2.533   0.957
 2250SOL     OW 6770   2.842   3.435   1.700
 2250SOL    HW1 6771   2.822   3.479   1.612
 2250SOL    HW2 6772   2.881   3.344   1.684
 2251SOL     OW 6773   3.721   3.380   1.605
 2251SOL    HW1 6774   3.735   3.407   1.510
 2251SOL    HW2 6775   3.804   3.402   1.658
 2252SOL     OW 6776   2.212   2.760   1.804
 2252SOL    HW1 6777   2.288   2.804   1.852
 2252SOL    HW2 6778   2.247   2.713   1.722
 2253SOL     OW 6779   3.402   2.136   0.125
 2253SOL    HW1 6780   3.341   2.061   0.148
 2253SOL    HW2 6781   3.424   2.188   0.208
 2254SOL     OW 6782   3.165   2.700   0.042
 2254SOL    HW1 6783   3.199   2.607   0.057
 2254SOL    HW2 6784   3.183   2.727  -0.053
 2255SOL     OW 6785   2.930   3.195   0.849
 2255SOL    HW1 6786   2.937   3.111   0.794
 2255SOL    HW2 6787   2.992   3.264   0.813
 2256SOL     OW 6788   2.181   2.672   0.949
 2256SOL    HW1 6789   2.274   2.708   0.954
 2256SOL    HW2 6790   2.175   2.587   1.001
 2257SOL     OW 6791   2.201   2.371   1.006
 2257SOL    HW1 6792   2.149   2.288   0.989
 2257SOL    HW2 6793   2.278   2.376   0.942
 2258SOL     OW 6794   3.000   2.242   1.678
 2258SOL    HW1 6795   2.955   2.305   1.742
 2258SOL    HW2 6796   3.093   2.273   1.661
 2259SOL     OW 6797   3.022   2.069   1.477
 2259SOL    HW1 6798   3.022   2.133   1.554
 2259SOL    HW2 6799   3.050   2.117   1.394
 2260SOL     OW 6800   1.950   3.663   0.927
 2260SOL    HW1 6801   1.908   3.577   0.900
 2260SOL    HW2 6802   2.044   3.666   0.893
 2261SOL     OW 6803   2.366   3.430   0.910
 2261SOL    HW1 6804   2.432   3.504   0.919
 2261SOL    HW2 6805   2.410   3.351   0.868
 2262SOL     OW 6806   2.864   2.658   1.238
 2262SOL    HW1 6807   2.905   2.626   1.324
 2262SOL    HW2 6808   2.768   2.631   1.235
 2263SOL     OW 6809   1.902   2.406   1.114
 2263SOL    HW1 6810   1.987   2.373   1.073
 2263SOL    HW2 6811   1.915   2.421   1.212
 2264SOL     OW 6812   2.051   2.382   1.722
 2264SOL    HW1 6813   2.110   2.342   1.652
 2264SOL    HW2 6814   1.993   2.453   1.681
 2265SOL     OW 6815   3.231   2.812   1.660
 2265SOL    HW1 6816   3.270   2.901   1.680
 2265SOL    HW2 6817   3.241   2.792   1.563
 2266SOL     OW 6818   2.677   2.434   0.325
 2266SOL    HW1 6819   2.684   2.345   0.279
 2266SOL    HW2 6820   2.583   2.468   0.317
 2267SOL     OW 6821   3.519   2.466   1.206
 2267SOL    HW1 6822   3.481   2.397   1.268
 2267SOL    HW2 6823   3.601   2.430   1.162
 2268SOL     OW 6824   2.114   3.426   1.744
 2268SOL    HW1 6825   2.084   3.483   1.820
 2268SOL    HW2 6826   2.107   3.329   1.770
 2269SOL     OW 6827   2.533   2.326   1.269
 2269SOL    HW1 6828   2.499   2.237   1.239
 2269SOL    HW2 6829   2.559   2.380   1.189
 2270SOL     OW 6830   2.792   3.540   1.465
 2270SOL    HW1 6831   2.768   3.522   1.370
 2270SOL    HW2 6832   2.822   3.634   1.475
 2271SOL     OW 6833   2.335   2.362   0.191
 2271SOL    HW1 6834   2.396   2.442   0.195
 2271SOL    HW2 6835   2.240   2.393   0.198
 2272SOL     OW 6836   2.021   2.999   1.466
 2272SOL    HW1 6837   2.043   2.938   1.542
 2272SOL    HW2 6838   2.031   2.950   1.380
 2273SOL     OW 6839   3.209   2.921   1.234
 2273SOL    HW1 6840   3.233   2.858   1.160
 2273SOL    HW2 6841   3.119   2.961   1.216
 2274SOL     OW 6842   3.164   2.717   0.309
 2274SOL    HW1 6843   3.078   2.686   0.351
 2274SOL    HW2 6844   3.160   2.703   0.210
 2275SOL     OW 6845   3.621   3.609   1.154
 2275SOL    HW1 6846   3.682   3.639   1.081
 2275SOL    HW2 6847   3.583   3.520   1.132
 2276SOL     OW 6848   3.114   3.593   1.128
 2276SOL    HW1 6849   3.198   3.598   1.074
 2276SOL    HW2 6850   3.091   3.497   1.146
 2277SOL     OW 6851   1.945   3.120   1.022
 2277SOL    HW1 6852   1.940   3.119   1.122
 2277SOL    HW2 6853   1.862   3.079   0.984
 2278SOL     OW 6854   2.550   3.524   1.716
 2278SOL    HW1 6855   2.494   3.605   1.725
 2278SOL    HW2 6856   2.602   3.528   1.630
 2279SOL     OW 6857   2.765   1.948   0.133
 2279SOL    HW1 6858   2.816   1.949   0.047
 2279SOL    HW2 6859   2.821   1.906   0.204
 2280SOL     OW 6860   3.588   1.997   0.523
 2280SOL    HW1 6861   3.661   1.980   0.456
 2280SOL    HW2 6862   3.557   1.910   0.561
 2281SOL     OW 6863   3.250   3.435   0.477
 2281SOL    HW1 6864   3.317   3.447   0.403
 2281SOL    HW2 6865   3.210   3.524   0.500
 2282SOL     OW 6866   1.992   3.656   1.851
 2282SOL    HW1 6867   1.951   3.582   1.904
 2282SOL    HW2 6868   2.056   3.707   1.909
 2283SOL     OW 6869   3.142   2.789   0.672
 2283SOL    HW1 6870   3.202   2.708   0.674
 2283SOL    HW2 6871   3.182   2.858   0.612
 2284SOL     OW 6872   2.692   3.135   1.422
 2284SOL    HW1 6873   2.687   3.168   1.517
 2284SOL    HW2 6874   2.606   3.154   1.376
 2285SOL     OW 6875   2.534   3.478   0.154
 2285SOL    HW1 6876   2.543   3.488   0.055
 2285SOL    HW2 6877   2.494   3.389   0.175
 2286SOL     OW 6878   3.512   3.582   1.394
 2286SOL    HW1 6879   3.565   3.592   1.310
 2286SOL    HW2 6880   3.485   3.672   1.428
 2287SOL     OW 6881   3.703   2.037   0.963
 2287SOL    HW1 6882   3.742   1.952   0.927
 2287SOL    HW2 6883   3.605   2.039   0.944
 2288SOL     OW 6884   2.125   2.188   0.720
 2288SOL    HW1 6885   2.046   2.239   0.686
 2288SOL    HW2 6886   2.116   2.173   0.818
 2289SOL     OW 6887   3.056   3.474   0.031
 2289SOL    HW1 6888   3.062   3.381   0.068
 2289SOL    HW2 6889   2.997   3.474  -0.049
 2290SOL     OW 6890   2.684   2.864   1.372
 2290SOL    HW1 6891   2.724   2.863   1.280
 2290SOL    HW2 6892   2.694   2.956   1.412
 2291SOL     OW 6893   2.778   2.772   0.291
 2291SOL    HW1 6894   2.841   2.810   0.223
 2291SOL    HW2 6895   2.818   2.689   0.330
 2292SOL     OW 6896   3.366   3.469   0.044
 2292SOL    HW1 6897   3.274   3.506   0.051
 2292SOL    HW2 6898   3.404   3.489  -0.046
 2293SOL     OW 6899   2.234   3.150   1.490
 2293SOL    HW1 6900   2.221   3.243   1.456
 2293SOL    HW2 6901   2.150   3.098   1.477
 2294SOL     OW 6902   3.476   3.154   1.289
 2294SOL    HW1 6903   3.536   3.157   1.369
 2294SOL    HW2 6904   3.401   3.218   1.302
 2295SOL     OW 6905   2.901   2.960   0.696
 2295SOL    HW1 6906   2.831   2.913   0.750
 2295SOL    HW2 6907   2.960   2.892   0.653
 2296SOL     OW 6908   2.876   2.098   0.971
 2296SOL    HW1 6909   2.868   2.062   0.878
 2296SOL    HW2 6910   2.874   2.022   1.036
 2297SOL     OW 6911   2.452   3.349   0.491
 2297SOL    HW1 6912   2.494   3.291   0.421
 2297SOL    HW2 6913   2.408   3.428   0.447
 2298SOL     OW 6914   3.571   2.247   1.381
 2298SOL    HW1 6915   3.644   2.316   1.385
 2298SOL    HW2 6916   3.599   2.172   1.322
 2299SOL     OW 6917   2.117   3.210   0.290
 2299SOL    HW1 6918   2.021   3.211   0.263
 2299SOL    HW2 6919   2.129   3.263   0.374
 2300SOL     OW 6920   1.967   2.875   1.726
 2300SOL    HW1 6921   1.890   2.842   1.780
 2300SOL    HW2 6922   2.052   2.845   1.768
 2301SOL     OW 6923   2.534   2.065   1.489
 2301SOL    HW1 6924   2.624   2.049   1.449
 2301SOL    HW2 6925   2.542   2.070   1.588
 2302SOL     OW 6926   3.302   2.718   1.398
 2302SOL    HW1 6927   3.245   2.770   1.335
 2302SOL    HW2 6928   3.398   2.730   1.374
 2303SOL     OW 6929   1.934   2.028   0.318
 2303SOL    HW1 6930   1.917   2.111   0.264
 2303SOL    HW2 6931   2.024   1.991   0.296
 2304SOL     OW 6932   3.045   3.197   0.119
 2304SOL    HW1 6933   2.946   3.186   0.121
 2304SOL    HW2 6934   3.079   3.212   0.212
 2305SOL     OW 6935   2.475   2.704   1.431
 2305SOL    HW1 6936   2.531   2.785   1.414
 2305SOL    HW2 6937   2.534   2.624   1.434
 2306SOL     OW 6938   3.355   3.629   0.959
 2306SOL    HW1 6939   3.388   3.693   0.890
 2306SOL    HW2 6940   3.421   3.623   1.034
 2307SOL     OW 6941   2.578   2.427   1.708
 2307SOL    HW1 6942   2.597   2.492   1.782
 2307SOL    HW2 6943   2.638   2.347   1.717
 2308SOL     OW 6944   3.312   3.082   1.633
 2308SOL    HW1 6945   3.303   3.072   1.732
 2308SOL    HW2 6946   3.408   3.075   1.607
 2309SOL     OW 6947   2.252   3.603   1.560
 2309SOL    HW1 6948   2.161   3.644   1.558
 2309SOL    HW2 6949   2.245   3.509   1.592
 2310SOL     OW 6950   3.536   2.745   1.254
 2310SOL    HW1 6951   3.509   2.656   1.217
 2310SOL    HW2 6952   3.537   2.813   1.181
 2311SOL     OW 6953   3.087   2.187   0.449
 2311SOL    HW1 6954   3.152   2.113   0.438
 2311SOL    HW2 6955   3.107   2.237   0.533
 2312SOL     OW 6956   2.456   2.607   0.652
 2312SOL    HW1 6957   2.506   2.692   0.633
 2312SOL    HW2 6958   2.368   2.609   0.604
 2313SOL     OW 6959   3.639   2.204   1.642
 2313SOL    HW1 6960   3.622   2.235   1.548
 2313SOL    HW2 6961   3.555   2.167   1.680
 2314SOL     OW 6962   3.592   2.796   1.517
 2314SOL    HW1 6963   3.630   2.887   1.532
 2314SOL    HW2 6964   3.584   2.779   1.418
 2315SOL     OW 6965   2.721   3.236   0.016
 2315SOL    HW1 6966   2.675   3.251   0.104
 2315SOL    HW2 6967   2.765   3.321  -0.014
 2316SOL     OW 6968   2.523   3.652   0.953
 2316SOL    HW1 6969   2.477   3.740   0.940
 2316SOL    HW2 6970   2.622   3.664   0.946
 2317SOL     OW 6971   2.721   2.818   0.861
 2317SOL    HW1 6972   2.775   2.749   0.909
 2317SOL    HW2 6973   2.689   2.887   0.927
 2318SOL     OW 6974   2.945   2.846   0.087
 2318SOL    HW1 6975   2.922   2.899   0.005
 2318SOL    HW2 6976   3.026   2.790   0.068
 2319SOL     OW 6977   3.723   3.431   0.851
 2319SOL    HW1 6978   3.652   3.419   0.781
 2319SOL    HW2 6979   3.724   3.352   0.911
 2320SOL     OW 6980   2.083   3.176   1.844
 2320SOL    HW1 6981   2.018   3.103   1.823
 2320SOL    HW2 6982   2.087   3.190   1.942
 2321SOL     OW 6983   1.941   3.102   0.653
 2321SOL    HW1 6984   1.940   3.055   0.741
 2321SOL    HW2 6985   2.023   3.074   0.602
 2322SOL     OW 6986   2.534   3.253   1.624
 2322SOL    HW1 6987   2.456   3.203   1.662
 2322SOL    HW2 6988   2.531   3.348   1.655
 2323SOL     OW 6989   3.686   2.054   1.227
 2323SOL    HW1 6990   3.682   1.964   1.271
 2323SOL    HW2 6991   3.689   2.043   1.128
 2324SOL     OW 6992   2.290   2.286   0.520
 2324SOL    HW1 6993   2.320   2.214   0.458
 2324SOL    HW2 6994   2.251   2.246   0.603
 2325SOL     OW 6995   3.567   3.349   1.104
 2325SOL    HW1 6996   3.474   3.324   1.077
 2325SOL    HW2 6997   3.593   3.299   1.186
 2326SOL     OW 6998   2.179   2.409   1.280
 2326SOL    HW1 6999   2.217   2.350   1.352
 2326SOL    HW2 7000   2.219   2.383   1.192
 2327SOL     OW 7001   2.674   3.448   0.687
 2327SOL    HW1 7002   2.706   3.458   0.593
 2327SOL    HW2 7003   2.595   3.386   0.689
 2328SOL     OW 7004   3.286   2.076   1.112
 2328SOL    HW1 7005   3.338   2.011   1.167
 2328SOL    HW2 7006   3.237   2.139   1.173
 2329SOL     OW 7007   2.863   1.896   1.154
 2329SOL    HW1 7008   2.800   1.824   1.123
 2329SOL    HW2 7009   2.956   1.860   1.154
 2330SOL     OW 7010   2.632   3.192   0.301
 2330SOL    HW1 7011   2.586   3.105   0.318
 2330SOL    HW2 7012   2.723   3.189   0.342
 2331SOL     OW 7013   2.480   3.429   1.284
 2331SOL    HW1 7014   2.475   3.511   1.341
 2331SOL    HW2 7015   2.569   3.426   1.239
 2332SOL     OW 7016   3.214   1.914   0.168
 2332SOL    HW1 7017   3.249   1.873   0.084
 2332SOL    HW2 7018   3.124   1.876   0.188
 2333SOL     OW 7019   3.162   2.315   0.691
 2333SOL    HW1 7020   3.103   2.395   0.695
 2333SOL    HW2 7021   3.177   2.280   0.784
 2334SOL     OW 7022   3.455   2.083   0.882
 2334SOL    HW1 7023   3.371   2.082   0.936
 2334SOL    HW2 7024   3.457   2.166   0.826
 2335SOL     OW 7025   1.901   2.939   0.300
 2335SOL    HW1 7026   2.000   2.928   0.291
 2335SOL    HW2 7027   1.861   2.853   0.332
 2336SOL     OW 7028   2.737   3.508   0.337
 2336SOL    HW1 7029   2.660   3.473   0.283
 2336SOL    HW2 7030   2.705   3.579   0.399
 2337SOL     OW 7031   2.092   2.490   1.975
 2337SOL    HW1 7032   1.999   2.488   2.012
 2337SOL    HW2 7033   2.093   2.451   1.883
 2338SOL     OW 7034   2.087   2.137   2.858
 2338SOL    HW1 7035   2.122   2.120   2.950
 2338SOL    HW2 7036   1.999   2.092   2.846
 2339SOL     OW 7037   1.881   2.230   2.509
 2339SOL    HW1 7038   1.799   2.273   2.548
 2339SOL    HW2 7039   1.853   2.157   2.446
 2340SOL     OW 7040   2.431   3.137   3.027
 2340SOL    HW1 7041   2.338   3.130   2.990
 2340SOL    HW2 7042   2.442   3.226   3.071
 2341SOL     OW 7043   3.417   3.373   2.565
 2341SOL    HW1 7044   3.360   3.357   2.646
 2341SOL    HW2 7045   3.358   3.383   2.485
 2342SOL     OW 7046   2.997   2.565   2.579
 2342SOL    HW1 7047   3.054   2.643   2.554
 2342SOL    HW2 7048   2.937   2.591   2.655
 2343SOL     OW 7049   3.617   2.469   2.093
 2343SOL    HW1 7050   3.605   2.456   1.994
 2343SOL    HW2 7051   3.587   2.388   2.142
 2344SOL     OW 7052   2.630   3.006   2.885
 2344SOL    HW1 7053   2.552   3.023   2.945
 2344SOL    HW2 7054   2.664   3.093   2.849
 2345SOL     OW 7055   2.712   2.660   3.685
 2345SOL    HW1 7056   2.708   2.736   3.750
 2345SOL    HW2 7057   2.734   2.696   3.594
 2346SOL     OW 7058   2.548   3.023   3.665
 2346SOL    HW1 7059   2.608   3.102   3.679
 2346SOL    HW2 7060   2.462   3.054   3.624
 2347SOL     OW 7061   2.197   3.297   2.923
 2347SOL    HW1 7062   2.119   3.266   2.870
 2347SOL    HW2 7063   2.255   3.355   2.866
 2348SOL     OW 7064   3.322   3.367   3.201
 2348SOL    HW1 7065   3.346   3.461   3.227
 2348SOL    HW2 7066   3.306   3.313   3.283
 2349SOL     OW 7067   2.300   2.254   3.361
 2349SOL    HW1 7068   2.382   2.198   3.370
 2349SOL    HW2 7069   2.219   2.196   3.365
 2350SOL     OW 7070   3.465   2.309   2.599
 2350SOL    HW1 7071   3.391   2.355   2.549
 2350SOL    HW2 7072   3.516   2.377   2.652
 2351SOL     OW 7073   2.093   3.575   2.345
 2351SOL    HW1 7074   2.127   3.652   2.399
 2351SOL    HW2 7075   2.137   3.575   2.255
 2352SOL     OW 7076   2.989   3.203   3.552
 2352SOL    HW1 7077   3.036   3.203   3.640
 2352SOL    HW2 7078   2.941   3.116   3.541
 2353SOL     OW 7079   2.092   3.296   2.400
 2353SOL    HW1 7080   2.066   3.392   2.400
 2353SOL    HW2 7081   2.021   3.242   2.445
 2354SOL     OW 7082   2.102   2.953   2.748
 2354SOL    HW1 7083   2.116   2.869   2.800
 2354SOL    HW2 7084   2.047   3.017   2.803
 2355SOL     OW 7085   2.482   3.648   3.301
 2355SOL    HW1 7086   2.390   3.631   3.336
 2355SOL    HW2 7087   2.510   3.740   3.327
 2356SOL     OW 7088   2.468   2.826   1.985
 2356SOL    HW1 7089   2.475   2.910   1.931
 2356SOL    HW2 7090   2.514   2.839   2.073
 2357SOL     OW 7091   3.456   1.976   3.342
 2357SOL    HW1 7092   3.438   2.043   3.270
 2357SOL    HW2 7093   3.453   2.022   3.431
 2358SOL     OW 7094   1.984   2.505   2.425
 2358SOL    HW1 7095   1.939   2.417   2.442
 2358SOL    HW2 7096   1.983   2.559   2.509
 2359SOL     OW 7097   3.704   3.629   2.221
 2359SOL    HW1 7098   3.758   3.600   2.301
 2359SOL    HW2 7099   3.734   3.719   2.192
 2360SOL     OW 7100   1.889   3.458   1.979
 2360SOL    HW1 7101   1.870   3.362   2.000
 2360SOL    HW2 7102   1.856   3.516   2.054
 2361SOL     OW 7103   3.551   2.784   2.474
 2361SOL    HW1 7104   3.646   2.755   2.482
 2361SOL    HW2 7105   3.543   2.849   2.399
 2362SOL     OW 7106   3.503   2.970   2.294
 2362SOL    HW1 7107   3.589   2.972   2.242
 2362SOL    HW2 7108   3.517   3.017   2.382
 2363SOL     OW 7109   1.975   2.599   3.459
 2363SOL    HW1 7110   2.063   2.586   3.504
 2363SOL    HW2 7111   1.962   2.696   3.437
 2364SOL     OW 7112   2.475   3.227   2.588
 2364SOL    HW1 7113   2.426   3.140   2.597
 2364SOL    HW2 7114   2.452   3.270   2.501
 2365SOL     OW 7115   3.155   3.090   3.285
 2365SOL    HW1 7116   3.192   3.017   3.227
 2365SOL    HW2 7117   3.207   3.095   3.370
 2366SOL     OW 7118   2.671   1.866   2.364
 2366SOL    HW1 7119   2.711   1.957   2.355
 2366SOL    HW2 7120   2.571   1.874   2.370
 2367SOL     OW 7121   2.059   2.838   3.126
 2367SOL    HW1 7122   2.148   2.793   3.112
 2367SOL    HW2 7123   1.986   2.773   3.107
 2368SOL     OW 7124   3.387   2.861   2.052
 2368SOL    HW1 7125   3.324   2.785   2.065
 2368SOL    HW2 7126   3.435   2.879   2.138
 2369SOL     OW 7127   3.049   3.654   3.478
 2369SOL    HW1 7128   3.073   3.714   3.402
 2369SOL    HW2 7129   3.056   3.559   3.448
 2370SOL     OW 7130   2.179   2.113   3.663
 2370SOL    HW1 7131   2.250   2.184   3.669
 2370SOL    HW2 7132   2.091   2.152   3.691
 2371SOL     OW 7133   3.328   3.279   2.815
 2371SOL    HW1 7134   3.269   3.285   2.895
 2371SOL    HW2 7135   3.313   3.191   2.769
 2372SOL     OW 7136   3.529   3.576   2.434
 2372SOL    HW1 7137   3.488   3.553   2.346
 2372SOL    HW2 7138   3.511   3.502   2.499
 2373SOL     OW 7139   2.460   2.591   2.132
 2373SOL    HW1 7140   2.484   2.660   2.064
 2373SOL    HW2 7141   2.382   2.624   2.186
 2374SOL     OW 7142   3.143   2.207   2.806
 2374SOL    HW1 7143   3.057   2.157   2.793
 2374SOL    HW2 7144   3.205   2.153   2.862
 2375SOL     OW 7145   3.438   3.524   2.169
 2375SOL    HW1 7146   3.527   3.570   2.172
 2375SOL    HW2 7147   3.417   3.500   2.074
 2376SOL     OW 7148   2.669   2.467   3.327
 2376SOL    HW1 7149   2.622   2.464   3.416
 2376SOL    HW2 7150   2.618   2.412   3.261
 2377SOL     OW 7151   3.256   2.331   3.536
 2377SOL    HW1 7152   3.236   2.374   3.624
 2377SOL    HW2 7153   3.334   2.269   3.545
 2378SOL     OW 7154   2.835   2.752   3.434
 2378SOL    HW1 7155   2.881   2.668   3.405
 2378SOL    HW2 7156   2.779   2.786   3.359
 2379SOL     OW 7157   2.853   2.272   3.104
 2379SOL    HW1 7158   2.776   2.306   3.158
 2379SOL    HW2 7159   2.819   2.221   3.025
 2380SOL     OW 7160   2.903   2.563   2.291
 2380SOL    HW1 7161   2.929   2.559   2.387
 2380SOL    HW2 7162   2.818   2.512   2.277
 2381SOL     OW 7163   1.938   2.673   2.651
 2381SOL    HW1 7164   2.037   2.661   2.660
 2381SOL    HW2 7165   1.914   2.768   2.672
 2382SOL     OW 7166   1.992   3.683   3.433
 2382SOL    HW1 7167   1.982   3.668   3.532
 2382SOL    HW2 7168   1.906   3.719   3.397
 2383SOL     OW 7169   2.727   2.210   2.057
 2383SOL    HW1 7170   2.786   2.273   2.008
 2383SOL    HW2 7171   2.746   2.116   2.028
 2384SOL     OW 7172   3.581   2.447   3.693
 2384SOL    HW1 7173   3.555   2.536   3.657
 2384SOL    HW2 7174   3.579   2.379   3.620
 2385SOL     OW 7175   3.224   3.006   2.407
 2385SOL    HW1 7176   3.307   2.977   2.359
 2385SOL    HW2 7177   3.175   3.073   2.351
 2386SOL     OW 7178   2.412   2.058   2.747
 2386SOL    HW1 7179   2.407   2.053   2.847
 2386SOL    HW2 7180   2.414   2.154   2.718
 2387SOL     OW 7181   2.870   3.318   2.339
 2387SOL    HW1 7182   2.824   3.390   2.287
 2387SOL    HW2 7183   2.866   3.338   2.437
 2388SOL     OW 7184   2.213   3.663   2.715
 2388SOL    HW1 7185   2.263   3.577   2.721
 2388SOL    HW2 7186   2.278   3.740   2.712
 2389SOL     OW 7187   3.657   2.928   2.735
 2389SOL    HW1 7188   3.595   2.913   2.659
 2389SOL    HW2 7189   3.605   2.939   2.820
 2390SOL     OW 7190   3.089   3.412   3.368
 2390SOL    HW1 7191   3.095   3.335   3.432
 2390SOL    HW2 7192   3.037   3.386   3.288
 2391SOL     OW 7193   2.183   2.805   2.104
 2391SOL    HW1 7194   2.265   2.844   2.062
 2391SOL    HW2 7195   2.156   2.723   2.055
 2392SOL     OW 7196   3.320   2.597   2.590
 2392SOL    HW1 7197   3.315   2.532   2.665
 2392SOL    HW2 7198   3.400   2.656   2.603
 2393SOL     OW 7199   2.323   3.128   3.589
 2393SOL    HW1 7200   2.273   3.129   3.503
 2393SOL    HW2 7201   2.260   3.110   3.665
 2394SOL     OW 7202   2.973   3.638   2.099
 2394SOL    HW1 7203   2.913   3.576   2.149
 2394SOL    HW2 7204   3.004   3.594   2.014
 2395SOL     OW 7205   2.064   2.147   3.360
 2395SOL    HW1 7206   1.984   2.207   3.347
 2395SOL    HW2 7207   2.054   2.098   3.446
 2396SOL     OW 7208   3.494   3.239   1.943
 2396SOL    HW1 7209   3.462   3.333   1.933
 2396SOL    HW2 7210   3.418   3.176   1.931
 2397SOL     OW 7211   2.326   3.605   2.185
 2397SOL    HW1 7212   2.359   3.644   2.271
 2397SOL    HW2 7213   2.402   3.598   2.120
 2398SOL     OW 7214   3.262   1.969   2.288
 2398SOL    HW1 7215   3.238   1.932   2.198
 2398SOL    HW2 7216   3.361   1.985   2.292
 2399SOL     OW 7217   2.111   3.647   3.103
 2399SOL    HW1 7218   2.168   3.582   3.153
 2399SOL    HW2 7219   2.095   3.614   3.010
 2400SOL     OW 7220   2.802   3.560   2.766
 2400SOL    HW1 7221   2.882   3.503   2.787
 2400SOL    HW2 7222   2.753   3.520   2.689
 2401SOL     OW 7223   3.409   2.084   3.591
 2401SOL    HW1 7224   3.404   2.121   3.683
 2401SOL    HW2 7225   3.337   2.015   3.579
 2402SOL     OW 7226   2.476   1.984   1.979
 2402SOL    HW1 7227   2.574   1.962   1.986
 2402SOL    HW2 7228   2.445   1.967   1.886
 2403SOL     OW 7229   2.643   2.126   3.611
 2403SOL    HW1 7230   2.710   2.065   3.654
 2403SOL    HW2 7231   2.570   2.145   3.676
 2404SOL     OW 7232   2.750   3.376   3.057
 2404SOL    HW1 7233   2.727   3.351   2.963
 2404SOL    HW2 7234   2.811   3.307   3.096
 2405SOL     OW 7235   3.213   2.452   3.295
 2405SOL    HW1 7236   3.241   2.409   3.380
 2405SOL    HW2 7237   3.238   2.548   3.296
 2406SOL     OW 7238   2.665   3.264   2.786
 2406SOL    HW1 7239   2.755   3.278   2.744
 2406SOL    HW2 7240   2.594   3.266   2.715
 2407SOL     OW 7241   2.401   1.926   2.374
 2407SOL    HW1 7242   2.320   1.927   2.432
 2407SOL    HW2 7243   2.404   2.009   2.319
 2408SOL     OW 7244   3.296   3.050   1.903
 2408SOL    HW1 7245   3.328   2.974   1.960
 2408SOL    HW2 7246   3.204   3.077   1.933
 2409SOL     OW 7247   2.159   1.897   2.033
 2409SOL    HW1 7248   2.208   1.981   2.012
 2409SOL    HW2 7249   2.221   1.832   2.078
 2410SOL     OW 7250   2.797   2.098   2.342
 2410SOL    HW1 7251   2.749   2.139   2.264
 2410SOL    HW2 7252   2.896   2.096   2.323
 2411SOL     OW 7253   2.938   2.545   3.326
 2411SOL    HW1 7254   2.858   2.484   3.329
 2411SOL    HW2 7255   3.019   2.492   3.302
 2412SOL     OW 7256   3.089   3.432   2.655
 2412SOL    HW1 7257   3.110   3.506   2.590
 2412SOL    HW2 7258   3.157   3.432   2.728
 2413SOL     OW 7259   2.321   3.014   2.603
 2413SOL    HW1 7260   2.250   2.987   2.668
 2413SOL    HW2 7261   2.295   2.986   2.510
 2414SOL     OW 7262   3.133   3.659   2.453
 2414SOL    HW1 7263   3.177   3.723   2.389
 2414SOL    HW2 7264   3.083   3.711   2.523
 2415SOL     OW 7265   2.894   2.411   1.878
 2415SOL    HW1 7266   2.853   2.493   1.839
 2415SOL    HW2 7267   2.958   2.437   1.951
 2416SOL     OW 7268   1.940   2.418   3.248
 2416SOL    HW1 7269   2.032   2.417   3.207
 2416SOL    HW2 7270   1.934   2.492   3.315
 2417SOL     OW 7271   2.423   2.084   3.009
 2417SOL    HW1 7272   2.461   2.000   3.046
 2417SOL    HW2 7273   2.335   2.103   3.053
 2418SOL     OW 7274   2.879   1.901   2.615
 2418SOL    HW1 7275   2.807   1.906   2.546
 2418SOL    HW2 7276   2.855   1.832   2.684
 2419SOL     OW 7277   3.291   3.035   2.729
 2419SOL    HW1 7278   3.236   2.951   2.722
 2419SOL    HW2 7279   3.317   3.064   2.637
 2420SOL     OW 7280   3.328   2.452   2.854
 2420SOL    HW1 7281   3.298   2.357   2.861
 2420SOL    HW2 7282   3.401   2.468   2.920
 2421SOL     OW 7283   3.719   2.695   2.239
 2421SOL    HW1 7284   3.761   2.631   2.303
 2421SOL    HW2 7285   3.681   2.644   2.161
 2422SOL     OW 7286   2.350   3.247   2.036
 2422SOL    HW1 7287   2.263   3.232   2.083
 2422SOL    HW2 7288   2.333   3.273   1.941
 2423SOL     OW 7289   3.526   3.142   2.519
 2423SOL    HW1 7290   3.625   3.150   2.533
 2423SOL    HW2 7291   3.481   3.226   2.550
 2424SOL     OW 7292   3.252   2.437   1.940
 2424SOL    HW1 7293   3.198   2.416   2.021
 2424SOL    HW2 7294   3.343   2.396   1.949
 2425SOL     OW 7295   2.389   2.118   2.190
 2425SOL    HW1 7296   2.416   2.059   2.115
 2425SOL    HW2 7297   2.389   2.213   2.159
 2426SOL     OW 7298   3.616   3.085   3.450
 2426SOL    HW1 7299   3.707   3.046   3.437
 2426SOL    HW2 7300   3.624   3.181   3.474
 2427SOL     OW 7301   2.926   3.209   3.202
 2427SOL    HW1 7302   2.846   3.186   3.257
 2427SOL    HW2 7303   3.009   3.183   3.251
 2428SOL     OW 7304   3.454   3.491   3.487
 2428SOL    HW1 7305   3.481   3.525   3.397
 2428SOL    HW2 7306   3.533   3.453   3.533
 2429SOL     OW 7307   2.973   3.057   2.962
 2429SOL    HW1 7308   2.933   3.101   3.043
 2429SOL    HW2 7309   2.932   3.094   2.879
 2430SOL     OW 7310   3.500   2.961   2.941
 2430SOL    HW1 7311   3.505   3.042   3.000
 2430SOL    HW2 7312   3.414   2.963   2.890
 2431SOL     OW 7313   2.777   1.951   3.264
 2431SOL    HW1 7314   2.802   1.931   3.169
 2431SOL    HW2 7315   2.849   2.007   3.306
 2432SOL     OW 7316   2.842   2.978   3.581
 2432SOL    HW1 7317   2.743   2.984   3.591
 2432SOL    HW2 7318   2.865   2.898   3.525
 2433SOL     OW 7319   2.272   2.675   3.113
 2433SOL    HW1 7320   2.358   2.687   3.163
 2433SOL    HW2 7321   2.230   2.588   3.140
 2434SOL     OW 7322   3.136   2.248   3.124
 2434SOL    HW1 7323   3.157   2.322   3.188
 2434SOL    HW2 7324   3.047   2.265   3.081
 2435SOL     OW 7325   1.926   3.426   3.193
 2435SOL    HW1 7326   1.880   3.508   3.159
 2435SOL    HW2 7327   2.024   3.445   3.202
 2436SOL     OW 7328   3.114   3.210   2.250
 2436SOL    HW1 7329   3.164   3.287   2.290
 2436SOL    HW2 7330   3.019   3.212   2.282
 2437SOL     OW 7331   3.134   3.307   3.004
 2437SOL    HW1 7332   3.181   3.320   3.091
 2437SOL    HW2 7333   3.068   3.233   3.013
 2438SOL     OW 7334   3.444   2.501   2.334
 2438SOL    HW1 7335   3.413   2.562   2.407
 2438SOL    HW2 7336   3.494   2.553   2.265
 2439SOL     OW 7337   2.216   3.372   3.191
 2439SOL    HW1 7338   2.195   3.328   3.104
 2439SOL    HW2 7339   2.313   3.398   3.194
 2440SOL     OW 7340   2.264   2.613   3.460
 2440SOL    HW1 7341   2.332   2.668   3.413
 2440SOL    HW2 7342   2.304   2.525   3.487
 2441SOL     OW 7343   3.449   2.641   3.532
 2441SOL    HW1 7344   3.357   2.679   3.527
 2441SOL    HW2 7345   3.509   2.688   3.467
 2442SOL     OW 7346   2.875   1.967   3.632
 2442SOL    HW1 7347   2.881   2.052   3.580
 2442SOL    HW2 7348   2.907   1.891   3.575
 2443SOL     OW 7349   2.366   1.912   3.602
 2443SOL    HW1 7350   2.324   1.855   3.532
 2443SOL    HW2 7351   2.300   1.981   3.634
 2444SOL     OW 7352   2.435   2.732   2.891
 2444SOL    HW1 7353   2.479   2.821   2.882
 2444SOL    HW2 7354   2.372   2.732   2.968
 2445SOL     OW 7355   3.222   2.724   2.907
 2445SOL    HW1 7356   3.147   2.724   2.841
 2445SOL    HW2 7357   3.259   2.632   2.916
 2446SOL     OW 7358   3.071   2.387   2.137
 2446SOL    HW1 7359   3.084   2.303   2.191
 2446SOL    HW2 7360   3.042   2.461   2.197
 2447SOL     OW 7361   2.169   2.075   3.093
 2447SOL    HW1 7362   2.146   2.112   3.183
 2447SOL    HW2 7363   2.139   1.980   3.087
 2448SOL     OW 7364   1.899   3.172   3.144
 2448SOL    HW1 7365   1.952   3.123   3.212
 2448SOL    HW2 7366   1.921   3.270   3.149
 2449SOL     OW 7367   2.594   2.496   2.926
 2449SOL    HW1 7368   2.653   2.470   2.850
 2449SOL    HW2 7369   2.566   2.592   2.915
 2450SOL     OW 7370   3.590   2.797   3.716
 2450SOL    HW1 7371   3.544   2.790   3.627
 2450SOL    HW2 7372   3.528   2.841   3.782
 2451SOL     OW 7373   2.169   1.925   2.480
 2451SOL    HW1 7374   2.158   2.019   2.513
 2451SOL    HW2 7375   2.164   1.862   2.557
 2452SOL     OW 7376   3.484   2.229   2.236
 2452SOL    HW1 7377   3.486   2.153   2.300
 2452SOL    HW2 7378   3.436   2.306   2.276
 2453SOL     OW 7379   2.885   2.628   2.828
 2453SOL    HW1 7380   2.900   2.649   2.924
 2453SOL    HW2 7381   2.855   2.533   2.819
 2454SOL     OW 7382   2.842   3.435   3.562
 2454SOL    HW1 7383   2.822   3.479   3.474
 2454SOL    HW2 7384   2.881   3.344   3.546
 2455SOL     OW 7385   3.721   3.380   3.467
 2455SOL    HW1 7386   3.735   3.407   3.372
 2455SOL    HW2 7387   3.804   3.402   3.520
 2456SOL     OW 7388   2.212   2.760   3.666
 2456SOL    HW1 7389   2.288   2.804   3.714
 2456SOL    HW2 7390   2.247   2.713   3.584
 2457SOL     OW 7391   3.402   2.136   1.987
 2457SOL    HW1 7392   3.341   2.061   2.010
 2457SOL    HW2 7393   3.424   2.188   2.070
 2458SOL     OW 7394   3.165   2.700   1.904
 2458SOL    HW1 7395   3.199   2.607   1.919
 2458SOL    HW2 7396   3.183   2.727   1.809
 2459SOL     OW 7397   2.930   3.195   2.711
 2459SOL    HW1 7398   2.937   3.111   2.656
 2459SOL    HW2 7399   2.992   3.264   2.675
 2460SOL     OW 7400   2.181   2.672   2.811
 2460SOL    HW1 7401   2.274   2.708   2.816
 2460SOL    HW2 7402   2.175   2.587   2.863
 2461SOL     OW 7403   2.201   2.371   2.868
 2461SOL    HW1 7404   2.149   2.288   2.851
 2461SOL    HW2 7405   2.278   2.376   2.804
 2462SOL     OW 7406   3.000   2.242   3.540
 2462SOL    HW1 7407   2.955   2.305   3.604
 2462SOL    HW2 7408   3.093   2.273   3.523
 2463SOL     OW 7409   3.022   2.069   3.339
 2463SOL    HW1 7410   3.022   2.133   3.416
 2463SOL    HW2 7411   3.050   2.117   3.256
 2464SOL     OW 7412   1.870   3.188   2.062
 2464SOL    HW1 7413   1.777   3.209   2.031
 2464SOL    HW2 7414   1.880   3.089   2.075
 2465SOL     OW 7415   1.950   3.663   2.789
 2465SOL    HW1 7416   1.908   3.577   2.762
 2465SOL    HW2 7417   2.044   3.666   2.755
 2466SOL     OW 7418   2.366   3.430   2.772
 2466SOL    HW1 7419   2.432   3.504   2.781
 2466SOL    HW2 7420   2.410   3.351   2.730
 2467SOL     OW 7421   2.864   2.658   3.100
 2467SOL    HW1 7422   2.905   2.626   3.186
 2467SOL    HW2 7423   2.768   2.631   3.097
 2468SOL     OW 7424   1.902   2.406   2.976
 2468SOL    HW1 7425   1.987   2.373   2.935
 2468SOL    HW2 7426   1.915   2.421   3.074
 2469SOL     OW 7427   2.051   2.382   3.584
 2469SOL    HW1 7428   2.110   2.342   3.514
 2469SOL    HW2 7429   1.993   2.453   3.543
 2470SOL     OW 7430   3.231   2.812   3.522
 2470SOL    HW1 7431   3.270   2.901   3.542
 2470SOL    HW2 7432   3.241   2.792   3.425
 2471SOL     OW 7433   2.677   2.434   2.187
 2471SOL    HW1 7434   2.684   2.345   2.141
 2471SOL    HW2 7435   2.583   2.468   2.179
 2472SOL     OW 7436   3.519   2.466   3.068
 2472SOL    HW1 7437   3.481   2.397   3.130
 2472SOL    HW2 7438   3.601   2.430   3.024
 2473SOL     OW 7439   2.114   3.426   3.606
 2473SOL    HW1 7440   2.084   3.483   3.682
 2473SOL    HW2 7441   2.107   3.329   3.632
 2474SOL     OW 7442   2.533   2.326   3.131
 2474SOL    HW1 7443   2.499   2.237   3.101
 2474SOL    HW2 7444   2.559   2.380   3.051
 2475SOL     OW 7445   2.792   3.540   3.327
 2475SOL    HW1 7446   2.768   3.522   3.232
 2475SOL    HW2 7447   2.822   3.634   3.337
 2476SOL     OW 7448   2.335   2.362   2.053
 2476SOL    HW1 7449   2.396   2.442   2.057
 2476SOL    HW2 7450   2.240   2.393   2.060
 2477SOL     OW 7451   2.021   2.999   3.328
 2477SOL    HW1 7452   2.043   2.938   3.404
 2477SOL    HW2 7453   2.031   2.950   3.242
 2478SOL     OW 7454   3.209   2.921   3.096
 2478SOL    HW1 7455   3.233   2.858   3.022
 2478SOL    HW2 7456   3.119   2.961   3.078
 2479SOL     OW 7457   3.164   2.717   2.171
 2479SOL    HW1 7458   3.078   2.686   2.213
 2479SOL    HW2 7459   3.160   2.703   2.072
 2480SOL     OW 7460   3.621   3.609   3.016
 2480SOL    HW1 7461   3.682   3.639   2.943
 2480SOL    HW2 7462   3.583   3.520   2.994
 2481SOL     OW 7463   3.114   3.593   2.990
 2481SOL    HW1 7464   3.198   3.598   2.936
 2481SOL    HW2 7465   3.091   3.497   3.008
 2482SOL     OW 7466   1.945   3.120   2.884
 2482SOL    HW1 7467   1.940   3.119   2.984
 2482SOL    HW2 7468   1.862   3.079   2.846
 2483SOL     OW 7469   2.550   3.524   3.578
 2483SOL    HW1 7470   2.494   3.605   3.587
 2483SOL    HW2 7471   2.602   3.528   3.492
 2484SOL     OW 7472   3.588   1.997   2.385
 2484SOL    HW1 7473   3.661   1.980   2.318
 2484SOL    HW2 7474   3.557   1.910   2.423
 2485SOL     OW 7475   3.250   3.435   2.339
 2485SOL    HW1 7476   3.317   3.447   2.265
 2485SOL    HW2 7477   3.210   3.524   2.362
 2486SOL     OW 7478   1.992   3.656   3.713
 2486SOL    HW1 7479   1.951   3.582   3.766
 2486SOL    HW2 7480   2.056   3.707   3.771
 2487SOL     OW 7481   3.142   2.789   2.534
 2487SOL    HW1 7482   3.202   2.708   2.536
 2487SOL    HW2 7483   3.182   2.858   2.474
 2488SOL     OW 7484   2.692   3.135   3.284
 2488SOL    HW1 7485   2.687   3.168   3.379
 2488SOL    HW2 7486   2.606   3.154   3.238
 2489SOL     OW 7487   2.534   3.478   2.016
 2489SOL    HW1 7488   2.543   3.488   1.917
 2489SOL    HW2 7489   2.494   3.389   2.037
 2490SOL     OW 7490   3.512   3.582   3.256
 2490SOL    HW1 7491   3.565   3.592   3.172
 2490SOL    HW2 7492   3.485   3.672   3.290
 2491SOL     OW 7493   3.703   2.037   2.825
 2491SOL    HW1 7494   3.742   1.952   2.789
 2491SOL    HW2 7495   3.605   2.039   2.806
 2492SOL     OW 7496   2.125   2.188   2.582
 2492SOL    HW1 7497   2.046   2.239   2.548
 2492SOL    HW2 7498   2.116   2.173   2.680
 2493SOL     OW 7499   3.056   3.474   1.893
 2493SOL    HW1 7500   3.062   3.381   1.930
 2493SOL    HW2 7501   2.997   3.474   1.813
 2494SOL     OW 7502   2.684   2.864   3.234
 2494SOL    HW1 7503   2.724   2.863   3.142
 2494SOL    HW2 7504   2.694   2.956   3.274
 2495SOL     OW 7505   2.778   2.772   2.153
 2495SOL    HW1 7506   2.841   2.810   2.085
 2495SOL    HW2 7507   2.818   2.689   2.192
 2496SOL     OW 7508   3.366   3.469   1.906
 2496SOL    HW1 7509   3.274   3.506   1.913
 2496SOL    HW2 7510   3.404   3.489   1.816
 2497SOL     OW 7511   2.234   3.150   3.352
 2497SOL    HW1 7512   2.221   3.243   3.318
 2497SOL    HW2 7513   2.150   3.098   3.339
 2498SOL     OW 7514   3.476   3.154   3.151
 2498SOL    HW1 7515   3.536   3.157   3.231
 2498SOL    HW2 7516   3.401   3.218   3.164
 2499SOL     OW 7517   2.901   2.960   2.558
 2499SOL    HW1 7518   2.831   2.913   2.612
 2499SOL    HW2 7519   2.960   2.892   2.515
 2500SOL     OW 7520   2.876   2.098   2.833
 2500SOL    HW1 7521   2.868   2.062   2.740
 2500SOL    HW2 7522   2.874   2.022   2.898
 2501SOL     OW 7523   2.452   3.349   2.353
 2501SOL    HW1 7524   2.494   3.291   2.283
 2501SOL    HW2 7525   2.408   3.428   2.309
 2502SOL     OW 7526   3.571   2.247   3.243
 2502SOL    HW1 7527   3.644   2.316   3.247
 2502SOL    HW2 7528   3.599   2.172   3.184
 2503SOL     OW 7529   2.117   3.210   2.152
 2503SOL    HW1 7530   2.021   3.211   2.125
 2503SOL    HW2 7531   2.129   3.263   2.236
 2504SOL     OW 7532   1.967   2.875   3.588
 2504SOL    HW1 7533   1.890   2.842   3.642
 2504SOL    HW2 7534   2.052   2.845   3.630
 2505SOL     OW 7535   2.534   2.065   3.351
 2505SOL    HW1 7536   2.624   2.049   3.311
 2505SOL    HW2 7537   2.542   2.070   3.450
 2506SOL     OW 7538   1.937   2.207   1.895
 2506SOL    HW1 7539   1.845   2.179   1.866
 2506SOL    HW2 7540   1.968   2.284   1.839
 2507SOL     OW 7541   3.302   2.718   3.260
 2507SOL    HW1 7542   3.245   2.770   3.197
 2507SOL    HW2 7543   3.398   2.730   3.236
 2508SOL     OW 7544   1.934   2.028   2.180
 2508SOL    HW1 7545   1.917   2.111   2.126
 2508SOL    HW2 7546   2.024   1.991   2.158
 2509SOL     OW 7547   3.045   3.197   1.981
 2509SOL    HW1 7548   2.946   3.186   1.983
 2509SOL    HW2 7549   3.079   3.212   2.074
 2510SOL     OW 7550   2.475   2.704   3.293
 2510SOL    HW1 7551   2.531   2.785   3.276
 2510SOL    HW2 7552   2.534   2.624   3.296
 2511SOL     OW 7553   3.355   3.629   2.821
 2511SOL    HW1 7554   3.388   3.693   2.752
 2511SOL    HW2 7555   3.421   3.623   2.896
 2512SOL     OW 7556   2.578   2.427   3.570
 2512SOL    HW1 7557   2.597   2.492   3.644
 2512SOL    HW2 7558   2.638   2.347   3.579
 2513SOL     OW 7559   3.312   3.082   3.495
 2513SOL    HW1 7560   3.303   3.072   3.594
 2513SOL    HW2 7561   3.408   3.075   3.469
 2514SOL     OW 7562   2.252   3.603   3.422
 2514SOL    HW1 7563   2.161   3.644   3.420
 2514SOL    HW2 7564   2.245   3.509   3.454
 2515SOL     OW 7565   3.536   2.745   3.116
 2515SOL    HW1 7566   3.509   2.656   3.079
 2515SOL    HW2 7567   3.537   2.813   3.043
 2516SOL     OW 7568   3.087   2.187   2.311
 2516SOL    HW1 7569   3.152   2.113   2.300
 2516SOL    HW2 7570   3.107   2.237   2.395
 2517SOL     OW 7571   3.639   2.204   3.504
 2517SOL    HW1 7572   3.622   2.235   3.410
 2517SOL    HW2 7573   3.555   2.167   3.542
 2518SOL     OW 7574   3.592   2.796   3.379
 2518SOL    HW1 7575   3.630   2.887   3.394
 2518SOL    HW2 7576   3.584   2.779   3.280
 2519SOL     OW 7577   2.721   3.236   1.878
 2519SOL    HW1 7578   2.675   3.251   1.966
 2519SOL    HW2 7579   2.765   3.321   1.848
 2520SOL     OW 7580   2.523   3.652   2.815
 2520SOL    HW1 7581   2.477   3.740   2.802
 2520SOL    HW2 7582   2.622   3.664   2.808
 2521SOL     OW 7583   2.721   2.818   2.723
 2521SOL    HW1 7584   2.775   2.749   2.771
 2521SOL    HW2 7585   2.689   2.887   2.789
 2522SOL     OW 7586   2.945   2.846   1.949
 2522SOL    HW1 7587   2.922   2.899   1.867
 2522SOL    HW2 7588   3.026   2.790   1.930
 2523SOL     OW 7589   3.723   3.431   2.713
 2523SOL    HW1 7590   3.652   3.419   2.643
 2523SOL    HW2 7591   3.724   3.352   2.773
 2524SOL     OW 7592   2.083   3.176   3.706
 2524SOL    HW1 7593   2.018   3.103   3.685
 2524SOL    HW2 7594   2.087   3.190   3.804
 2525SOL     OW 7595   1.941   3.102   2.515
 2525SOL    HW1 7596   1.940   3.055   2.603
 2525SOL    HW2 7597   2.023   3.074   2.464
 2526SOL     OW 7598   2.534   3.253   3.486
 2526SOL    HW1 7599   2.456   3.203   3.524
 2526SOL    HW2 7600   2.531   3.348   3.517
 2527SOL     OW 7601   3.686   2.054   3.089
 2527SOL    HW1 7602   3.682   1.964   3.133
 2527SOL    HW2 7603   3.689   2.043   2.990
 2528SOL     OW 7604   2.290   2.286   2.382
 2528SOL    HW1 7605   2.320   2.214   2.320
 2528SOL    HW2 7606   2.251   2.246   2.465
 2529SOL     OW 7607   3.567   3.349   2.966
 2529SOL    HW1 7608   3.474   3.324   2.939
 2529SOL    HW2 7609   3.593   3.299   3.048
 2530SOL     OW 7610   2.179   2.409   3.142
 2530SOL    HW1 7611   2.217   2.350   3.214
 2530SOL    HW2 7612   2.219   2.383   3.054
 2531SOL     OW 7613   2.674   3.448   2.549
 2531SOL    HW1 7614   2.706   3.458   2.455
 2531SOL    HW2 7615   2.595   3.386   2.551
 2532SOL     OW 7616   3.286   2.076   2.974
 2532SOL    HW1 7617   3.338   2.011   3.029
 2532SOL    HW2 7618   3.237   2.139   3.035
 2533SOL     OW 7619   2.863   1.896   3.016
 2533SOL    HW1 7620   2.800   1.824   2.985
 2533SOL    HW2 7621   2.956   1.860   3.016
 2534SOL     OW 7622   2.632   3.192   2.163
 2534SOL    HW1 7623   2.586   3.105   2.180
 2534SOL    HW2 7624   2.723   3.189   2.204
 2535SOL     OW 7625   2.480   3.429   3.146
 2535SOL    HW1 7626   2.475   3.511   3.203
 2535SOL    HW2 7627   2.569   3.426   3.101
 2536SOL     OW 7628   3.214   1.914   2.030
 2536SOL    HW1 7629   3.249   1.873   1.946
 2536SOL    HW2 7630   3.124   1.876   2.050
 2537SOL     OW 7631   3.162   2.315   2.553
 2537SOL    HW1 7632   3.103   2.395   2.557
 2537SOL    HW2 7633   3.177   2.280   2.646
 2538SOL     OW 7634   3.455   2.083   2.744
 2538SOL    HW1 7635   3.371   2.082   2.798
 2538SOL    HW2 7636   3.457   2.166   2.688
 2539SOL     OW 7637   1.901   2.939   2.162
 2539SOL    HW1 7638   2.000   2.928   2.153
 2539SOL    HW2 7639   1.861   2.853   2.194
 2540SOL     OW 7640   2.737   3.508   2.199
 2540SOL    HW1 7641   2.660   3.473   2.145
 2540SOL    HW2 7642   2.705   3.579   2.261
 2541SOL     OW 7643   2.092   2.490   3.837
 2541SOL    HW1 7644   1.999   2.488   3.874
 2541SOL    HW2 7645   2.093   2.451   3.745
 2542SOL     OW 7646   2.087   2.137   4.720
 2542SOL    HW1 7647   2.122   2.120   4.812
 2542SOL    HW2 7648   1.999   2.092   4.708
 2543SOL     OW 7649   1.881   2.230   4.371
 2543SOL    HW1 7650   1.799   2.273   4.410
 2543SOL    HW2 7651   1.853   2.157   4.308
 2544SOL     OW 7652   2.431   3.137   4.889
 2544SOL    HW1 7653   2.338   3.130   4.852
 2544SOL    HW2 7654   2.442   3.226   4.933
 2545SOL     OW 7655   3.417   3.373   4.427
 2545SOL    HW1 7656   3.360   3.357   4.508
 2545SOL    HW2 7657   3.358   3.383   4.347
 2546SOL     OW 7658   2.997   2.565   4.441
 2546SOL    HW1 7659   3.054   2.643   4.416
 2546SOL    HW2 7660   2.937   2.591   4.517
 2547SOL     OW 7661   3.617   2.469   3.955
 2547SOL    HW1 7662   3.605   2.456   3.856
 2547SOL    HW2 7663   3.587   2.388   4.004
 2548SOL     OW 7664   2.630   3.006   4.747
 2548SOL    HW1 7665   2.552   3.023   4.807
 2548SOL    HW2 7666   2.664   3.093   4.711
 2549SOL     OW 7667   2.547   2.874   4.389
 2549SOL    HW1 7668   2.616   2.858   4.459
 2549SOL    HW2 7669   2.474   2.931   4.427
 2550SOL     OW 7670   2.197   3.297   4.785
 2550SOL    HW1 7671   2.119   3.266   4.732
 2550SOL    HW2 7672   2.255   3.355   4.728
 2551SOL     OW 7673   3.465   2.309   4.461
 2551SOL    HW1 7674   3.391   2.355   4.411
 2551SOL    HW2 7675   3.516   2.377   4.514
 2552SOL     OW 7676   2.093   3.575   4.207
 2552SOL    HW1 7677   2.127   3.652   4.261
 2552SOL    HW2 7678   2.137   3.575   4.117
 2553SOL     OW 7679   2.092   3.296   4.262
 2553SOL    HW1 7680   2.066   3.392   4.262
 2553SOL    HW2 7681   2.021   3.242   4.307
 2554SOL     OW 7682   2.102   2.953   4.610
 2554SOL    HW1 7683   2.116   2.869   4.662
 2554SOL    HW2 7684   2.047   3.017   4.665
 2555SOL     OW 7685   2.468   2.826   3.847
 2555SOL    HW1 7686   2.475   2.910   3.793
 2555SOL    HW2 7687   2.514   2.839   3.935
 2556SOL     OW 7688   1.984   2.505   4.287
 2556SOL    HW1 7689   1.939   2.417   4.304
 2556SOL    HW2 7690   1.983   2.559   4.371
 2557SOL     OW 7691   3.704   3.629   4.083
 2557SOL    HW1 7692   3.758   3.600   4.163
 2557SOL    HW2 7693   3.734   3.719   4.054
 2558SOL     OW 7694   1.889   3.458   3.841
 2558SOL    HW1 7695   1.870   3.362   3.862
 2558SOL    HW2 7696   1.856   3.516   3.916
 2559SOL     OW 7697   3.551   2.784   4.336
 2559SOL    HW1 7698   3.646   2.755   4.344
 2559SOL    HW2 7699   3.543   2.849   4.261
 2560SOL     OW 7700   3.503   2.970   4.156
 2560SOL    HW1 7701   3.589   2.972   4.104
 2560SOL    HW2 7702   3.517   3.017   4.244
 2561SOL     OW 7703   1.975   2.599   5.321
 2561SOL    HW1 7704   2.063   2.586   5.366
 2561SOL    HW2 7705   1.962   2.696   5.299
 2562SOL     OW 7706   2.475   3.227   4.450
 2562SOL    HW1 7707   2.426   3.140   4.459
 2562SOL    HW2 7708   2.452   3.270   4.363
 2563SOL     OW 7709   2.671   1.866   4.226
 2563SOL    HW1 7710   2.711   1.957   4.217
 2563SOL    HW2 7711   2.571   1.874   4.232
 2564SOL     OW 7712   2.059   2.838   4.988
 2564SOL    HW1 7713   2.148   2.793   4.974
 2564SOL    HW2 7714   1.986   2.773   4.969
 2565SOL     OW 7715   3.387   2.861   3.914
 2565SOL    HW1 7716   3.324   2.785   3.927
 2565SOL    HW2 7717   3.435   2.879   4.000
 2566SOL     OW 7718   3.328   3.279   4.677
 2566SOL    HW1 7719   3.269   3.285   4.757
 2566SOL    HW2 7720   3.313   3.191   4.631
 2567SOL     OW 7721   3.529   3.576   4.296
 2567SOL    HW1 7722   3.488   3.553   4.208
 2567SOL    HW2 7723   3.511   3.502   4.361
 2568SOL     OW 7724   2.460   2.591   3.994
 2568SOL    HW1 7725   2.484   2.660   3.926
 2568SOL    HW2 7726   2.382   2.624   4.048
 2569SOL     OW 7727   3.143   2.207   4.668
 2569SOL    HW1 7728   3.057   2.157   4.655
 2569SOL    HW2 7729   3.205   2.153   4.724
 2570SOL     OW 7730   3.438   3.524   4.031
 2570SOL    HW1 7731   3.527   3.570   4.034
 2570SOL    HW2 7732   3.417   3.500   3.936
 2571SOL     OW 7733   2.903   2.563   4.153
 2571SOL    HW1 7734   2.929   2.559   4.249
 2571SOL    HW2 7735   2.818   2.512   4.139
 2572SOL     OW 7736   1.938   2.673   4.513
 2572SOL    HW1 7737   2.037   2.661   4.522
 2572SOL    HW2 7738   1.914   2.768   4.534
 2573SOL     OW 7739   2.727   2.210   3.919
 2573SOL    HW1 7740   2.786   2.273   3.870
 2573SOL    HW2 7741   2.746   2.116   3.890
 2574SOL     OW 7742   3.224   3.006   4.269
 2574SOL    HW1 7743   3.307   2.977   4.221
 2574SOL    HW2 7744   3.175   3.073   4.213
 2575SOL     OW 7745   2.412   2.058   4.609
 2575SOL    HW1 7746   2.407   2.053   4.709
 2575SOL    HW2 7747   2.414   2.154   4.580
 2576SOL     OW 7748   2.870   3.318   4.201
 2576SOL    HW1 7749   2.824   3.390   4.149
 2576SOL    HW2 7750   2.866   3.338   4.299
 2577SOL     OW 7751   2.213   3.663   4.577
 2577SOL    HW1 7752   2.263   3.577   4.583
 2577SOL    HW2 7753   2.278   3.740   4.574
 2578SOL     OW 7754   3.657   2.928   4.597
 2578SOL    HW1 7755   3.595   2.913   4.521
 2578SOL    HW2 7756   3.605   2.939   4.682
 2579SOL     OW 7757   2.183   2.805   3.966
 2579SOL    HW1 7758   2.265   2.844   3.924
 2579SOL    HW2 7759   2.156   2.723   3.917
 2580SOL     OW 7760   3.320   2.597   4.452
 2580SOL    HW1 7761   3.315   2.532   4.527
 2580SOL    HW2 7762   3.400   2.656   4.465
 2581SOL     OW 7763   2.973   3.638   3.961
 2581SOL    HW1 7764   2.913   3.576   4.011
 2581SOL    HW2 7765   3.004   3.594   3.876
 2582SOL     OW 7766   3.494   3.239   3.805
 2582SOL    HW1 7767   3.462   3.333   3.795
 2582SOL    HW2 7768   3.418   3.176   3.793
 2583SOL     OW 7769   2.326   3.605   4.047
 2583SOL    HW1 7770   2.359   3.644   4.133
 2583SOL    HW2 7771   2.402   3.598   3.982
 2584SOL     OW 7772   3.262   1.969   4.150
 2584SOL    HW1 7773   3.238   1.932   4.060
 2584SOL    HW2 7774   3.361   1.985   4.154
 2585SOL     OW 7775   2.111   3.647   4.965
 2585SOL    HW1 7776   2.168   3.582   5.015
 2585SOL    HW2 7777   2.095   3.614   4.872
 2586SOL     OW 7778   2.802   3.560   4.628
 2586SOL    HW1 7779   2.882   3.503   4.649
 2586SOL    HW2 7780   2.753   3.520   4.551
 2587SOL     OW 7781   2.244   2.562   4.204
 2587SOL    HW1 7782   2.289   2.472   4.201
 2587SOL    HW2 7783   2.150   2.551   4.237
 2588SOL     OW 7784   2.476   1.984   3.841
 2588SOL    HW1 7785   2.574   1.962   3.848
 2588SOL    HW2 7786   2.445   1.967   3.748
 2589SOL     OW 7787   2.665   3.264   4.648
 2589SOL    HW1 7788   2.755   3.278   4.606
 2589SOL    HW2 7789   2.594   3.266   4.577
 2590SOL     OW 7790   2.784   2.365   4.623
 2590SOL    HW1 7791   2.759   2.356   4.527
 2590SOL    HW2 7792   2.832   2.283   4.654
 2591SOL     OW 7793   2.401   1.926   4.236
 2591SOL    HW1 7794   2.320   1.927   4.294
 2591SOL    HW2 7795   2.404   2.009   4.181
 2592SOL     OW 7796   3.296   3.050   3.765
 2592SOL    HW1 7797   3.328   2.974   3.822
 2592SOL    HW2 7798   3.204   3.077   3.795
 2593SOL     OW 7799   2.159   1.897   3.895
 2593SOL    HW1 7800   2.208   1.981   3.874
 2593SOL    HW2 7801   2.221   1.832   3.940
 2594SOL     OW 7802   2.797   2.098   4.204
 2594SOL    HW1 7803   2.749   2.139   4.126
 2594SOL    HW2 7804   2.896   2.096   4.185
 2595SOL     OW 7805   3.089   3.432   4.517
 2595SOL    HW1 7806   3.110   3.506   4.452
 2595SOL    HW2 7807   3.157   3.432   4.590
 2596SOL     OW 7808   2.321   3.014   4.465
 2596SOL    HW1 7809   2.250   2.987   4.530
 2596SOL    HW2 7810   2.295   2.986   4.372
 2597SOL     OW 7811   3.133   3.659   4.315
 2597SOL    HW1 7812   3.177   3.723   4.251
 2597SOL    HW2 7813   3.083   3.711   4.385
 2598SOL     OW 7814   2.894   2.411   3.740
 2598SOL    HW1 7815   2.853   2.493   3.701
 2598SOL    HW2 7816   2.958   2.437   3.813
 2599SOL     OW 7817   2.423   2.084   4.871
 2599SOL    HW1 7818   2.461   2.000   4.908
 2599SOL    HW2 7819   2.335   2.103   4.915
 2600SOL     OW 7820   2.728   2.316   4.366
 2600SOL    HW1 7821   2.696   2.388   4.304
 2600SOL    HW2 7822   2.752   2.235   4.313
 2601SOL     OW 7823   2.879   1.901   4.477
 2601SOL    HW1 7824   2.807   1.906   4.408
 2601SOL    HW2 7825   2.855   1.832   4.546
 2602SOL     OW 7826   3.291   3.035   4.591
 2602SOL    HW1 7827   3.236   2.951   4.584
 2602SOL    HW2 7828   3.317   3.064   4.499
 2603SOL     OW 7829   3.328   2.452   4.716
 2603SOL    HW1 7830   3.298   2.357   4.723
 2603SOL    HW2 7831   3.401   2.468   4.782
 2604SOL     OW 7832   3.719   2.695   4.101
 2604SOL    HW1 7833   3.761   2.631   4.165
 2604SOL    HW2 7834   3.681   2.644   4.023
 2605SOL     OW 7835   2.350   3.247   3.898
 2605SOL    HW1 7836   2.263   3.232   3.945
 2605SOL    HW2 7837   2.333   3.273   3.803
 2606SOL     OW 7838   3.526   3.142   4.381
 2606SOL    HW1 7839   3.625   3.150   4.395
 2606SOL    HW2 7840   3.481   3.226   4.412
 2607SOL     OW 7841   3.252   2.437   3.802
 2607SOL    HW1 7842   3.198   2.416   3.883
 2607SOL    HW2 7843   3.343   2.396   3.811
 2608SOL     OW 7844   2.389   2.118   4.052
 2608SOL    HW1 7845   2.416   2.059   3.977
 2608SOL    HW2 7846   2.389   2.213   4.021
 2609SOL     OW 7847   2.973   3.057   4.824
 2609SOL    HW1 7848   2.933   3.101   4.905
 2609SOL    HW2 7849   2.932   3.094   4.741
 2610SOL     OW 7850   3.500   2.961   4.803
 2610SOL    HW1 7851   3.505   3.042   4.862
 2610SOL    HW2 7852   3.414   2.963   4.752
 2611SOL     OW 7853   2.567   2.912   4.092
 2611SOL    HW1 7854   2.553   2.919   4.191
 2611SOL    HW2 7855   2.651   2.861   4.074
 2612SOL     OW 7856   2.272   2.675   4.975
 2612SOL    HW1 7857   2.358   2.687   5.025
 2612SOL    HW2 7858   2.230   2.588   5.002
 2613SOL     OW 7859   3.136   2.248   4.986
 2613SOL    HW1 7860   3.157   2.322   5.050
 2613SOL    HW2 7861   3.047   2.265   4.943
 2614SOL     OW 7862   2.229   2.962   4.225
 2614SOL    HW1 7863   2.222   3.045   4.169
 2614SOL    HW2 7864   2.233   2.882   4.165
 2615SOL     OW 7865   2.428   2.399   4.589
 2615SOL    HW1 7866   2.440   2.465   4.515
 2615SOL    HW2 7867   2.474   2.433   4.672
 2616SOL     OW 7868   3.114   3.210   4.112
 2616SOL    HW1 7869   3.164   3.287   4.152
 2616SOL    HW2 7870   3.019   3.212   4.144
 2617SOL     OW 7871   3.134   3.307   4.866
 2617SOL    HW1 7872   3.181   3.320   4.953
 2617SOL    HW2 7873   3.068   3.233   4.875
 2618SOL     OW 7874   3.444   2.501   4.196
 2618SOL    HW1 7875   3.413   2.562   4.269
 2618SOL    HW2 7876   3.494   2.553   4.127
 2619SOL     OW 7877   2.216   3.372   5.053
 2619SOL    HW1 7878   2.195   3.328   4.966
 2619SOL    HW2 7879   2.313   3.398   5.056
 2620SOL     OW 7880   2.435   2.732   4.753
 2620SOL    HW1 7881   2.479   2.821   4.744
 2620SOL    HW2 7882   2.372   2.732   4.830
 2621SOL     OW 7883   3.222   2.724   4.769
 2621SOL    HW1 7884   3.147   2.724   4.703
 2621SOL    HW2 7885   3.259   2.632   4.778
 2622SOL     OW 7886   3.071   2.387   3.999
 2622SOL    HW1 7887   3.084   2.303   4.053
 2622SOL    HW2 7888   3.042   2.461   4.059
 2623SOL     OW 7889   2.169   2.075   4.955
 2623SOL    HW1 7890   2.146   2.112   5.045
 2623SOL    HW2 7891   2.139   1.980   4.949
 2624SOL     OW 7892   1.899   3.172   5.006
 2624SOL    HW1 7893   1.952   3.123   5.074
 2624SOL    HW2 7894   1.921   3.270   5.011
 2625SOL     OW 7895   2.594   2.496   4.788
 2625SOL    HW1 7896   2.653   2.470   4.712
 2625SOL    HW2 7897   2.566   2.592   4.777
 2626SOL     OW 7898   2.169   1.925   4.342
 2626SOL    HW1 7899   2.158   2.019   4.375
 2626SOL    HW2 7900   2.164   1.862   4.419
 2627SOL     OW 7901   3.484   2.229   4.098
 2627SOL    HW1 7902   3.486   2.153   4.162
 2627SOL    HW2 7903   3.436   2.306   4.138
 2628SOL     OW 7904   2.885   2.628   4.690
 2628SOL    HW1 7905   2.900   2.649   4.786
 2628SOL    HW2 7906   2.855   2.533   4.681
 2629SOL     OW 7907   3.402   2.136   3.849
 2629SOL    HW1 7908   3.341   2.061   3.872
 2629SOL    HW2 7909   3.424   2.188   3.932
 2630SOL     OW 7910   3.165   2.700   3.766
 2630SOL    HW1 7911   3.199   2.607   3.781
 2630SOL    HW2 7912   3.183   2.727   3.671
 2631SOL     OW 7913   2.930   3.195   4.573
 2631SOL    HW1 7914   2.937   3.111   4.518
 2631SOL    HW2 7915   2.992   3.264   4.537
 2632SOL     OW 7916   2.181   2.672   4.673
 2632SOL    HW1 7917   2.274   2.708   4.678
 2632SOL    HW2 7918   2.175   2.587   4.725
 2633SOL     OW 7919   2.201   2.371   4.730
 2633SOL    HW1 7920   2.149   2.288   4.713
 2633SOL    HW2 7921   2.278   2.376   4.666
 2634SOL     OW 7922   3.022   2.069   5.201
 2634SOL    HW1 7923   3.022   2.133   5.278
 2634SOL    HW2 7924   3.050   2.117   5.118
 2635SOL     OW 7925   1.870   3.188   3.924
 2635SOL    HW1 7926   1.777   3.209   3.893
 2635SOL    HW2 7927   1.880   3.089   3.937
 2636SOL     OW 7928   1.950   3.663   4.651
 2636SOL    HW1 7929   1.908   3.577   4.624
 2636SOL    HW2 7930   2.044   3.666   4.617
 2637SOL     OW 7931   2.366   3.430   4.634
 2637SOL    HW1 7932   2.432   3.504   4.643
 2637SOL    HW2 7933   2.410   3.351   4.592
 2638SOL     OW 7934   2.864   2.658   4.962
 2638SOL    HW1 7935   2.905   2.626   5.048
 2638SOL    HW2 7936   2.768   2.631   4.959
 2639SOL     OW 7937   1.902   2.406   4.838
 2639SOL    HW1 7938   1.987   2.373   4.797
 2639SOL    HW2 7939   1.915   2.421   4.936
 2640SOL     OW 7940   2.677   2.434   4.049
 2640SOL    HW1 7941   2.684   2.345   4.003
 2640SOL    HW2 7942   2.583   2.468   4.041
 2641SOL     OW 7943   3.519   2.466   4.930
 2641SOL    HW1 7944   3.481   2.397   4.992
 2641SOL    HW2 7945   3.601   2.430   4.886
 2642SOL     OW 7946   2.533   2.326   4.993
 2642SOL    HW1 7947   2.499   2.237   4.963
 2642SOL    HW2 7948   2.559   2.380   4.913
 2643SOL     OW 7949   2.792   3.540   5.189
 2643SOL    HW1 7950   2.768   3.522   5.094
 2643SOL    HW2 7951   2.822   3.634   5.199
 2644SOL     OW 7952   2.335   2.362   3.915
 2644SOL    HW1 7953   2.396   2.442   3.919
 2644SOL    HW2 7954   2.240   2.393   3.922
 2645SOL     OW 7955   3.209   2.921   4.958
 2645SOL    HW1 7956   3.233   2.858   4.884
 2645SOL    HW2 7957   3.119   2.961   4.940
 2646SOL     OW 7958   3.164   2.717   4.033
 2646SOL    HW1 7959   3.078   2.686   4.075
 2646SOL    HW2 7960   3.160   2.703   3.934
 2647SOL     OW 7961   3.621   3.609   4.878
 2647SOL    HW1 7962   3.682   3.639   4.805
 2647SOL    HW2 7963   3.583   3.520   4.856
 2648SOL     OW 7964   3.114   3.593   4.852
 2648SOL    HW1 7965   3.198   3.598   4.798
 2648SOL    HW2 7966   3.091   3.497   4.870
 2649SOL     OW 7967   1.945   3.120   4.746
 2649SOL    HW1 7968   1.940   3.119   4.846
 2649SOL    HW2 7969   1.862   3.079   4.708
 2650SOL     OW 7970   3.588   1.997   4.247
 2650SOL    HW1 7971   3.661   1.980   4.180
 2650SOL    HW2 7972   3.557   1.910   4.285
 2651SOL     OW 7973   3.250   3.435   4.201
 2651SOL    HW1 7974   3.317   3.447   4.127
 2651SOL    HW2 7975   3.210   3.524   4.224
 2652SOL     OW 7976   3.142   2.789   4.396
 2652SOL    HW1 7977   3.202   2.708   4.398
 2652SOL    HW2 7978   3.182   2.858   4.336
 2653SOL     OW 7979   2.534   3.478   3.878
 2653SOL    HW1 7980   2.543   3.488   3.779
 2653SOL    HW2 7981   2.494   3.389   3.899
 2654SOL     OW 7982   3.512   3.582   5.118
 2654SOL    HW1 7983   3.565   3.592   5.034
 2654SOL    HW2 7984   3.485   3.672   5.152
 2655SOL     OW 7985   3.703   2.037   4.687
 2655SOL    HW1 7986   3.742   1.952   4.651
 2655SOL    HW2 7987   3.605   2.039   4.668
 2656SOL     OW 7988   2.125   2.188   4.444
 2656SOL    HW1 7989   2.046   2.239   4.410
 2656SOL    HW2 7990   2.116   2.173   4.542
 2657SOL     OW 7991   3.056   3.474   3.755
 2657SOL    HW1 7992   3.062   3.381   3.792
 2657SOL    HW2 7993   2.997   3.474   3.675
 2658SOL     OW 7994   2.684   2.864   5.096
 2658SOL    HW1 7995   2.724   2.863   5.004
 2658SOL    HW2 7996   2.694   2.956   5.136
 2659SOL     OW 7997   2.778   2.772   4.015
 2659SOL    HW1 7998   2.841   2.810   3.947
 2659SOL    HW2 7999   2.818   2.689   4.054
 2660SOL     OW 8000   3.366   3.469   3.768
 2660SOL    HW1 8001   3.274   3.506   3.775
 2660SOL    HW2 8002   3.404   3.489   3.678
 2661SOL     OW 8003   2.901   2.960   4.420
 2661SOL    HW1 8004   2.831   2.913   4.474
 2661SOL    HW2 8005   2.960   2.892   4.377
 2662SOL     OW 8006   2.876   2.098   4.695
 2662SOL    HW1 8007   2.868   2.062   4.602
 2662SOL    HW2 8008   2.874   2.022   4.760
 2663SOL     OW 8009   2.452   3.349   4.215
 2663SOL    HW1 8010   2.494   3.291   4.145
 2663SOL    HW2 8011   2.408   3.428   4.171
 2664SOL     OW 8012   3.571   2.247   5.105
 2664SOL    HW1 8013   3.644   2.316   5.109
 2664SOL    HW2 8014   3.599   2.172   5.046
 2665SOL     OW 8015   2.117   3.210   4.014
 2665SOL    HW1 8016   2.021   3.211   3.987
 2665SOL    HW2 8017   2.129   3.263   4.098
 2666SOL     OW 8018   1.937   2.207   3.757
 2666SOL    HW1 8019   1.845   2.179   3.728
 2666SOL    HW2 8020   1.968   2.284   3.701
 2667SOL     OW 8021   1.934   2.028   4.042
 2667SOL    HW1 8022   1.917   2.111   3.988
 2667SOL    HW2 8023   2.024   1.991   4.020
 2668SOL     OW 8024   3.045   3.197   3.843
 2668SOL    HW1 8025   2.946   3.186   3.845
 2668SOL    HW2 8026   3.079   3.212   3.936
 2669SOL     OW 8027   3.355   3.629   4.683
 2669SOL    HW1 8028   3.388   3.693   4.614
 2669SOL    HW2 8029   3.421   3.623   4.758
 2670SOL     OW 8030   3.536   2.745   4.978
 2670SOL    HW1 8031   3.509   2.656   4.941
 2670SOL    HW2 8032   3.537   2.813   4.905
 2671SOL     OW 8033   3.087   2.187   4.173
 2671SOL    HW1 8034   3.152   2.113   4.162
 2671SOL    HW2 8035   3.107   2.237   4.257
 2672SOL     OW 8036   2.456   2.607   4.376
 2672SOL    HW1 8037   2.506   2.692   4.357
 2672SOL    HW2 8038   2.368   2.609   4.328
 2673SOL     OW 8039   3.592   2.796   5.241
 2673SOL    HW1 8040   3.630   2.887   5.256
 2673SOL    HW2 8041   3.584   2.779   5.142
 2674SOL     OW 8042   2.721   3.236   3.740
 2674SOL    HW1 8043   2.675   3.251   3.828
 2674SOL    HW2 8044   2.765   3.321   3.710
 2675SOL     OW 8045   2.523   3.652   4.677
 2675SOL    HW1 8046   2.477   3.740   4.664
 2675SOL    HW2 8047   2.622   3.664   4.670
 2676SOL     OW 8048   2.721   2.818   4.585
 2676SOL    HW1 8049   2.775   2.749   4.633
 2676SOL    HW2 8050   2.689   2.887   4.651
 2677SOL     OW 8051   2.945   2.846   3.811
 2677SOL    HW1 8052   2.922   2.899   3.729
 2677SOL    HW2 8053   3.026   2.790   3.792
 2678SOL     OW 8054   3.723   3.431   4.575
 2678SOL    HW1 8055   3.652   3.419   4.505
 2678SOL    HW2 8056   3.724   3.352   4.635
 2679SOL     OW 8057   1.941   3.102   4.377
 2679SOL    HW1 8058   1.940   3.055   4.465
 2679SOL    HW2 8059   2.023   3.074   4.326
 2680SOL     OW 8060   3.686   2.054   4.951
 2680SOL    HW1 8061   3.682   1.964   4.995
 2680SOL    HW2 8062   3.689   2.043   4.852
 2681SOL     OW 8063   2.290   2.286   4.244
 2681SOL    HW1 8064   2.320   2.214   4.182
 2681SOL    HW2 8065   2.251   2.246   4.327
 2682SOL     OW 8066   3.567   3.349   4.828
 2682SOL    HW1 8067   3.474   3.324   4.801
 2682SOL    HW2 8068   3.593   3.299   4.910
 2683SOL     OW 8069   2.674   3.448   4.411
 2683SOL    HW1 8070   2.706   3.458   4.317
 2683SOL    HW2 8071   2.595   3.386   4.413
 2684SOL     OW 8072   3.286   2.076   4.836
 2684SOL    HW1 8073   3.338   2.011   4.891
 2684SOL    HW2 8074   3.237   2.139   4.897
 2685SOL     OW 8075   2.863   1.896   4.878
 2685SOL    HW1 8076   2.800   1.824   4.847
 2685SOL    HW2 8077   2.956   1.860   4.878
 2686SOL     OW 8078   2.632   3.192   4.025
 2686SOL    HW1 8079   2.586   3.105   4.042
 2686SOL    HW2 8080   2.723   3.189   4.066
 2687SOL     OW 8081   3.214   1.914   3.892
 2687SOL    HW1 8082   3.249   1.873   3.808
 2687SOL    HW2 8083   3.124   1.876   3.912
 2688SOL     OW 8084   3.162   2.315   4.415
 2688SOL    HW1 8085   3.103   2.395   4.419
 2688SOL    HW2 8086   3.177   2.280   4.508
 2689SOL     OW 8087   3.455   2.083   4.606
 2689SOL    HW1 8088   3.371   2.082   4.660
 2689SOL    HW2 8089   3.457   2.166   4.550
 2690SOL     OW 8090   1.901   2.939   4.024
 2690SOL    HW1 8091   2.000   2.928   4.015
 2690SOL    HW2 8092   1.861   2.853   4.056
 2691SOL     OW 8093   2.737   3.508   4.061
 2691SOL    HW1 8094   2.660   3.473   4.007
 2691SOL    HW2 8095   2.705   3.579   4.123
 2692SOL     OW 8096   2.092   4.352   0.113
 2692SOL    HW1 8097   1.999   4.350   0.150
 2692SOL    HW2 8098   2.093   4.313   0.021
 2693SOL     OW 8099   2.087   3.999   0.996
 2693SOL    HW1 8100   2.122   3.982   1.088
 2693SOL    HW2 8101   1.999   3.954   0.984
 2694SOL     OW 8102   1.881   4.092   0.647
 2694SOL    HW1 8103   1.799   4.135   0.686
 2694SOL    HW2 8104   1.853   4.019   0.584
 2695SOL     OW 8105   2.997   4.427   0.717
 2695SOL    HW1 8106   3.054   4.505   0.692
 2695SOL    HW2 8107   2.937   4.453   0.793
 2696SOL     OW 8108   3.617   4.331   0.231
 2696SOL    HW1 8109   3.605   4.318   0.132
 2696SOL    HW2 8110   3.587   4.250   0.280
 2697SOL     OW 8111   2.630   4.868   1.023
 2697SOL    HW1 8112   2.552   4.885   1.083
 2697SOL    HW2 8113   2.664   4.955   0.987
 2698SOL     OW 8114   2.712   4.522   1.823
 2698SOL    HW1 8115   2.708   4.598   1.888
 2698SOL    HW2 8116   2.734   4.558   1.732
 2699SOL     OW 8117   2.547   4.736   0.665
 2699SOL    HW1 8118   2.616   4.720   0.735
 2699SOL    HW2 8119   2.474   4.793   0.703
 2700SOL     OW 8120   2.548   4.885   1.803
 2700SOL    HW1 8121   2.608   4.964   1.817
 2700SOL    HW2 8122   2.462   4.916   1.762
 2701SOL     OW 8123   2.197   5.159   1.061
 2701SOL    HW1 8124   2.119   5.128   1.008
 2701SOL    HW2 8125   2.255   5.217   1.004
 2702SOL     OW 8126   2.300   4.116   1.499
 2702SOL    HW1 8127   2.382   4.060   1.508
 2702SOL    HW2 8128   2.219   4.058   1.503
 2703SOL     OW 8129   3.465   4.171   0.737
 2703SOL    HW1 8130   3.391   4.217   0.687
 2703SOL    HW2 8131   3.516   4.239   0.790
 2704SOL     OW 8132   2.102   4.815   0.886
 2704SOL    HW1 8133   2.116   4.731   0.938
 2704SOL    HW2 8134   2.047   4.879   0.941
 2705SOL     OW 8135   2.468   4.688   0.123
 2705SOL    HW1 8136   2.475   4.772   0.069
 2705SOL    HW2 8137   2.514   4.701   0.211
 2706SOL     OW 8138   3.456   3.838   1.480
 2706SOL    HW1 8139   3.438   3.905   1.408
 2706SOL    HW2 8140   3.453   3.884   1.569
 2707SOL     OW 8141   1.984   4.367   0.563
 2707SOL    HW1 8142   1.939   4.279   0.580
 2707SOL    HW2 8143   1.983   4.421   0.647
 2708SOL     OW 8144   3.551   4.646   0.612
 2708SOL    HW1 8145   3.646   4.617   0.620
 2708SOL    HW2 8146   3.543   4.711   0.537
 2709SOL     OW 8147   3.503   4.832   0.432
 2709SOL    HW1 8148   3.589   4.834   0.380
 2709SOL    HW2 8149   3.517   4.879   0.520
 2710SOL     OW 8150   1.975   4.461   1.597
 2710SOL    HW1 8151   2.063   4.448   1.642
 2710SOL    HW2 8152   1.962   4.558   1.575
 2711SOL     OW 8153   3.155   4.952   1.423
 2711SOL    HW1 8154   3.192   4.879   1.365
 2711SOL    HW2 8155   3.207   4.957   1.508
 2712SOL     OW 8156   2.671   3.728   0.502
 2712SOL    HW1 8157   2.711   3.819   0.493
 2712SOL    HW2 8158   2.571   3.736   0.508
 2713SOL     OW 8159   2.059   4.700   1.264
 2713SOL    HW1 8160   2.148   4.655   1.250
 2713SOL    HW2 8161   1.986   4.635   1.245
 2714SOL     OW 8162   3.387   4.723   0.190
 2714SOL    HW1 8163   3.324   4.647   0.203
 2714SOL    HW2 8164   3.435   4.741   0.276
 2715SOL     OW 8165   2.179   3.975   1.801
 2715SOL    HW1 8166   2.250   4.046   1.807
 2715SOL    HW2 8167   2.091   4.014   1.829
 2716SOL     OW 8168   2.460   4.453   0.270
 2716SOL    HW1 8169   2.484   4.522   0.202
 2716SOL    HW2 8170   2.382   4.486   0.324
 2717SOL     OW 8171   3.143   4.069   0.944
 2717SOL    HW1 8172   3.057   4.019   0.931
 2717SOL    HW2 8173   3.205   4.015   1.000
 2718SOL     OW 8174   2.669   4.329   1.465
 2718SOL    HW1 8175   2.622   4.326   1.554
 2718SOL    HW2 8176   2.618   4.274   1.399
 2719SOL     OW 8177   3.256   4.193   1.674
 2719SOL    HW1 8178   3.236   4.236   1.762
 2719SOL    HW2 8179   3.334   4.131   1.683
 2720SOL     OW 8180   2.835   4.614   1.572
 2720SOL    HW1 8181   2.881   4.530   1.543
 2720SOL    HW2 8182   2.779   4.648   1.497
 2721SOL     OW 8183   2.853   4.134   1.242
 2721SOL    HW1 8184   2.776   4.168   1.296
 2721SOL    HW2 8185   2.819   4.083   1.163
 2722SOL     OW 8186   2.903   4.425   0.429
 2722SOL    HW1 8187   2.929   4.421   0.525
 2722SOL    HW2 8188   2.818   4.374   0.415
 2723SOL     OW 8189   1.938   4.535   0.789
 2723SOL    HW1 8190   2.037   4.523   0.798
 2723SOL    HW2 8191   1.914   4.630   0.810
 2724SOL     OW 8192   2.727   4.072   0.195
 2724SOL    HW1 8193   2.786   4.135   0.146
 2724SOL    HW2 8194   2.746   3.978   0.166
 2725SOL     OW 8195   3.581   4.309   1.831
 2725SOL    HW1 8196   3.555   4.398   1.795
 2725SOL    HW2 8197   3.579   4.241   1.758
 2726SOL     OW 8198   3.224   4.868   0.545
 2726SOL    HW1 8199   3.307   4.839   0.497
 2726SOL    HW2 8200   3.175   4.935   0.489
 2727SOL     OW 8201   2.412   3.920   0.885
 2727SOL    HW1 8202   2.407   3.915   0.985
 2727SOL    HW2 8203   2.414   4.016   0.856
 2728SOL     OW 8204   3.657   4.790   0.873
 2728SOL    HW1 8205   3.595   4.775   0.797
 2728SOL    HW2 8206   3.605   4.801   0.958
 2729SOL     OW 8207   2.183   4.667   0.242
 2729SOL    HW1 8208   2.265   4.706   0.200
 2729SOL    HW2 8209   2.156   4.585   0.193
 2730SOL     OW 8210   3.320   4.459   0.728
 2730SOL    HW1 8211   3.315   4.394   0.803
 2730SOL    HW2 8212   3.400   4.518   0.741
 2731SOL     OW 8213   2.064   4.009   1.498
 2731SOL    HW1 8214   1.984   4.069   1.485
 2731SOL    HW2 8215   2.054   3.960   1.584
 2732SOL     OW 8216   3.262   3.831   0.426
 2732SOL    HW1 8217   3.238   3.794   0.336
 2732SOL    HW2 8218   3.361   3.847   0.430
 2733SOL     OW 8219   2.244   4.424   0.480
 2733SOL    HW1 8220   2.289   4.334   0.477
 2733SOL    HW2 8221   2.150   4.413   0.513
 2734SOL     OW 8222   3.409   3.946   1.729
 2734SOL    HW1 8223   3.404   3.983   1.821
 2734SOL    HW2 8224   3.337   3.877   1.717
 2735SOL     OW 8225   2.476   3.846   0.117
 2735SOL    HW1 8226   2.574   3.824   0.124
 2735SOL    HW2 8227   2.445   3.829   0.024
 2736SOL     OW 8228   2.643   3.988   1.749
 2736SOL    HW1 8229   2.710   3.927   1.792
 2736SOL    HW2 8230   2.570   4.007   1.814
 2737SOL     OW 8231   3.213   4.314   1.433
 2737SOL    HW1 8232   3.241   4.271   1.518
 2737SOL    HW2 8233   3.238   4.410   1.434
 2738SOL     OW 8234   2.665   5.126   0.924
 2738SOL    HW1 8235   2.755   5.140   0.882
 2738SOL    HW2 8236   2.594   5.128   0.853
 2739SOL     OW 8237   2.784   4.227   0.899
 2739SOL    HW1 8238   2.759   4.218   0.803
 2739SOL    HW2 8239   2.832   4.145   0.930
 2740SOL     OW 8240   2.401   3.788   0.512
 2740SOL    HW1 8241   2.320   3.789   0.570
 2740SOL    HW2 8242   2.404   3.871   0.457
 2741SOL     OW 8243   2.159   3.759   0.171
 2741SOL    HW1 8244   2.208   3.843   0.150
 2741SOL    HW2 8245   2.221   3.694   0.216
 2742SOL     OW 8246   2.797   3.960   0.480
 2742SOL    HW1 8247   2.749   4.001   0.402
 2742SOL    HW2 8248   2.896   3.958   0.461
 2743SOL     OW 8249   2.938   4.407   1.464
 2743SOL    HW1 8250   2.858   4.346   1.467
 2743SOL    HW2 8251   3.019   4.354   1.440
 2744SOL     OW 8252   2.321   4.876   0.741
 2744SOL    HW1 8253   2.250   4.849   0.806
 2744SOL    HW2 8254   2.295   4.848   0.648
 2745SOL     OW 8255   2.894   4.273   0.016
 2745SOL    HW1 8256   2.853   4.355  -0.023
 2745SOL    HW2 8257   2.958   4.299   0.089
 2746SOL     OW 8258   1.940   4.280   1.386
 2746SOL    HW1 8259   2.032   4.279   1.345
 2746SOL    HW2 8260   1.934   4.354   1.453
 2747SOL     OW 8261   2.423   3.946   1.147
 2747SOL    HW1 8262   2.461   3.862   1.184
 2747SOL    HW2 8263   2.335   3.965   1.191
 2748SOL     OW 8264   2.728   4.178   0.642
 2748SOL    HW1 8265   2.696   4.250   0.580
 2748SOL    HW2 8266   2.752   4.097   0.589
 2749SOL     OW 8267   2.879   3.763   0.753
 2749SOL    HW1 8268   2.807   3.768   0.684
 2749SOL    HW2 8269   2.855   3.694   0.822
 2750SOL     OW 8270   3.291   4.897   0.867
 2750SOL    HW1 8271   3.236   4.813   0.860
 2750SOL    HW2 8272   3.317   4.926   0.775
 2751SOL     OW 8273   3.328   4.314   0.992
 2751SOL    HW1 8274   3.298   4.219   0.999
 2751SOL    HW2 8275   3.401   4.330   1.058
 2752SOL     OW 8276   3.719   4.557   0.377
 2752SOL    HW1 8277   3.761   4.493   0.441
 2752SOL    HW2 8278   3.681   4.506   0.299
 2753SOL     OW 8279   3.252   4.299   0.078
 2753SOL    HW1 8280   3.198   4.278   0.159
 2753SOL    HW2 8281   3.343   4.258   0.087
 2754SOL     OW 8282   2.389   3.980   0.328
 2754SOL    HW1 8283   2.416   3.921   0.253
 2754SOL    HW2 8284   2.389   4.075   0.297
 2755SOL     OW 8285   3.616   4.947   1.588
 2755SOL    HW1 8286   3.707   4.908   1.575
 2755SOL    HW2 8287   3.624   5.043   1.612
 2756SOL     OW 8288   3.500   4.823   1.079
 2756SOL    HW1 8289   3.505   4.904   1.138
 2756SOL    HW2 8290   3.414   4.825   1.028
 2757SOL     OW 8291   2.777   3.813   1.402
 2757SOL    HW1 8292   2.802   3.793   1.307
 2757SOL    HW2 8293   2.849   3.869   1.444
 2758SOL     OW 8294   2.842   4.840   1.719
 2758SOL    HW1 8295   2.743   4.846   1.729
 2758SOL    HW2 8296   2.865   4.760   1.663
 2759SOL     OW 8297   2.567   4.774   0.368
 2759SOL    HW1 8298   2.553   4.781   0.467
 2759SOL    HW2 8299   2.651   4.723   0.350
 2760SOL     OW 8300   2.272   4.537   1.251
 2760SOL    HW1 8301   2.358   4.549   1.301
 2760SOL    HW2 8302   2.230   4.450   1.278
 2761SOL     OW 8303   3.136   4.110   1.262
 2761SOL    HW1 8304   3.157   4.184   1.326
 2761SOL    HW2 8305   3.047   4.127   1.219
 2762SOL     OW 8306   2.229   4.824   0.501
 2762SOL    HW1 8307   2.222   4.907   0.445
 2762SOL    HW2 8308   2.233   4.744   0.441
 2763SOL     OW 8309   2.428   4.261   0.865
 2763SOL    HW1 8310   2.440   4.327   0.791
 2763SOL    HW2 8311   2.474   4.295   0.948
 2764SOL     OW 8312   3.444   4.363   0.472
 2764SOL    HW1 8313   3.413   4.424   0.545
 2764SOL    HW2 8314   3.494   4.415   0.403
 2765SOL     OW 8315   2.264   4.475   1.598
 2765SOL    HW1 8316   2.332   4.530   1.551
 2765SOL    HW2 8317   2.304   4.387   1.625
 2766SOL     OW 8318   3.449   4.503   1.670
 2766SOL    HW1 8319   3.357   4.541   1.665
 2766SOL    HW2 8320   3.509   4.550   1.605
 2767SOL     OW 8321   2.875   3.829   1.770
 2767SOL    HW1 8322   2.881   3.914   1.718
 2767SOL    HW2 8323   2.907   3.753   1.713
 2768SOL     OW 8324   2.366   3.774   1.740
 2768SOL    HW1 8325   2.324   3.717   1.670
 2768SOL    HW2 8326   2.300   3.843   1.772
 2769SOL     OW 8327   2.435   4.594   1.029
 2769SOL    HW1 8328   2.479   4.683   1.020
 2769SOL    HW2 8329   2.372   4.594   1.106
 2770SOL     OW 8330   3.222   4.586   1.045
 2770SOL    HW1 8331   3.147   4.586   0.979
 2770SOL    HW2 8332   3.259   4.494   1.054
 2771SOL     OW 8333   3.071   4.249   0.275
 2771SOL    HW1 8334   3.084   4.165   0.329
 2771SOL    HW2 8335   3.042   4.323   0.335
 2772SOL     OW 8336   2.169   3.937   1.231
 2772SOL    HW1 8337   2.146   3.974   1.321
 2772SOL    HW2 8338   2.139   3.842   1.225
 2773SOL     OW 8339   2.594   4.358   1.064
 2773SOL    HW1 8340   2.653   4.332   0.988
 2773SOL    HW2 8341   2.566   4.454   1.053
 2774SOL     OW 8342   3.590   4.659   1.854
 2774SOL    HW1 8343   3.544   4.652   1.765
 2774SOL    HW2 8344   3.528   4.703   1.920
 2775SOL     OW 8345   2.169   3.787   0.618
 2775SOL    HW1 8346   2.158   3.881   0.651
 2775SOL    HW2 8347   2.164   3.724   0.695
 2776SOL     OW 8348   3.484   4.091   0.374
 2776SOL    HW1 8349   3.486   4.015   0.438
 2776SOL    HW2 8350   3.436   4.168   0.414
 2777SOL     OW 8351   2.885   4.490   0.966
 2777SOL    HW1 8352   2.900   4.511   1.062
 2777SOL    HW2 8353   2.855   4.395   0.957
 2778SOL     OW 8354   2.212   4.622   1.804
 2778SOL    HW1 8355   2.288   4.666   1.852
 2778SOL    HW2 8356   2.247   4.575   1.722
 2779SOL     OW 8357   3.402   3.998   0.125
 2779SOL    HW1 8358   3.341   3.923   0.148
 2779SOL    HW2 8359   3.424   4.050   0.208
 2780SOL     OW 8360   3.165   4.562   0.042
 2780SOL    HW1 8361   3.199   4.469   0.057
 2780SOL    HW2 8362   3.183   4.589  -0.053
 2781SOL     OW 8363   2.181   4.534   0.949
 2781SOL    HW1 8364   2.274   4.570   0.954
 2781SOL    HW2 8365   2.175   4.449   1.001
 2782SOL     OW 8366   2.201   4.233   1.006
 2782SOL    HW1 8367   2.149   4.150   0.989
 2782SOL    HW2 8368   2.278   4.238   0.942
 2783SOL     OW 8369   3.000   4.104   1.678
 2783SOL    HW1 8370   2.955   4.167   1.742
 2783SOL    HW2 8371   3.093   4.135   1.661
 2784SOL     OW 8372   3.022   3.931   1.477
 2784SOL    HW1 8373   3.022   3.995   1.554
 2784SOL    HW2 8374   3.050   3.979   1.394
 2785SOL     OW 8375   2.864   4.520   1.238
 2785SOL    HW1 8376   2.905   4.488   1.324
 2785SOL    HW2 8377   2.768   4.493   1.235
 2786SOL     OW 8378   1.902   4.268   1.114
 2786SOL    HW1 8379   1.987   4.235   1.073
 2786SOL    HW2 8380   1.915   4.283   1.212
 2787SOL     OW 8381   2.051   4.244   1.722
 2787SOL    HW1 8382   2.110   4.204   1.652
 2787SOL    HW2 8383   1.993   4.315   1.681
 2788SOL     OW 8384   3.231   4.674   1.660
 2788SOL    HW1 8385   3.270   4.763   1.680
 2788SOL    HW2 8386   3.241   4.654   1.563
 2789SOL     OW 8387   2.677   4.296   0.325
 2789SOL    HW1 8388   2.684   4.207   0.279
 2789SOL    HW2 8389   2.583   4.330   0.317
 2790SOL     OW 8390   3.519   4.328   1.206
 2790SOL    HW1 8391   3.481   4.259   1.268
 2790SOL    HW2 8392   3.601   4.292   1.162
 2791SOL     OW 8393   2.533   4.188   1.269
 2791SOL    HW1 8394   2.499   4.099   1.239
 2791SOL    HW2 8395   2.559   4.242   1.189
 2792SOL     OW 8396   2.335   4.224   0.191
 2792SOL    HW1 8397   2.396   4.304   0.195
 2792SOL    HW2 8398   2.240   4.255   0.198
 2793SOL     OW 8399   2.021   4.861   1.466
 2793SOL    HW1 8400   2.043   4.800   1.542
 2793SOL    HW2 8401   2.031   4.812   1.380
 2794SOL     OW 8402   3.209   4.783   1.234
 2794SOL    HW1 8403   3.233   4.720   1.160
 2794SOL    HW2 8404   3.119   4.823   1.216
 2795SOL     OW 8405   3.164   4.579   0.309
 2795SOL    HW1 8406   3.078   4.548   0.351
 2795SOL    HW2 8407   3.160   4.565   0.210
 2796SOL     OW 8408   1.945   4.982   1.022
 2796SOL    HW1 8409   1.940   4.981   1.122
 2796SOL    HW2 8410   1.862   4.941   0.984
 2797SOL     OW 8411   2.765   3.810   0.133
 2797SOL    HW1 8412   2.816   3.811   0.047
 2797SOL    HW2 8413   2.821   3.768   0.204
 2798SOL     OW 8414   3.588   3.859   0.523
 2798SOL    HW1 8415   3.661   3.842   0.456
 2798SOL    HW2 8416   3.557   3.772   0.561
 2799SOL     OW 8417   3.142   4.651   0.672
 2799SOL    HW1 8418   3.202   4.570   0.674
 2799SOL    HW2 8419   3.182   4.720   0.612
 2800SOL     OW 8420   3.703   3.899   0.963
 2800SOL    HW1 8421   3.742   3.814   0.927
 2800SOL    HW2 8422   3.605   3.901   0.944
 2801SOL     OW 8423   2.125   4.050   0.720
 2801SOL    HW1 8424   2.046   4.101   0.686
 2801SOL    HW2 8425   2.116   4.035   0.818
 2802SOL     OW 8426   2.684   4.726   1.372
 2802SOL    HW1 8427   2.724   4.725   1.280
 2802SOL    HW2 8428   2.694   4.818   1.412
 2803SOL     OW 8429   2.778   4.634   0.291
 2803SOL    HW1 8430   2.841   4.672   0.223
 2803SOL    HW2 8431   2.818   4.551   0.330
 2804SOL     OW 8432   2.234   5.012   1.490
 2804SOL    HW1 8433   2.221   5.105   1.456
 2804SOL    HW2 8434   2.150   4.960   1.477
 2805SOL     OW 8435   3.476   5.016   1.289
 2805SOL    HW1 8436   3.536   5.019   1.369
 2805SOL    HW2 8437   3.401   5.080   1.302
 2806SOL     OW 8438   2.901   4.822   0.696
 2806SOL    HW1 8439   2.831   4.775   0.750
 2806SOL    HW2 8440   2.960   4.754   0.653
 2807SOL     OW 8441   2.876   3.960   0.971
 2807SOL    HW1 8442   2.868   3.924   0.878
 2807SOL    HW2 8443   2.874   3.884   1.036
 2808SOL     OW 8444   3.571   4.109   1.381
 2808SOL    HW1 8445   3.644   4.178   1.385
 2808SOL    HW2 8446   3.599   4.034   1.322
 2809SOL     OW 8447   1.967   4.737   1.726
 2809SOL    HW1 8448   1.890   4.704   1.780
 2809SOL    HW2 8449   2.052   4.707   1.768
 2810SOL     OW 8450   2.534   3.927   1.489
 2810SOL    HW1 8451   2.624   3.911   1.449
 2810SOL    HW2 8452   2.542   3.932   1.588
 2811SOL     OW 8453   3.302   4.580   1.398
 2811SOL    HW1 8454   3.245   4.632   1.335
 2811SOL    HW2 8455   3.398   4.592   1.374
 2812SOL     OW 8456   1.934   3.890   0.318
 2812SOL    HW1 8457   1.917   3.973   0.264
 2812SOL    HW2 8458   2.024   3.853   0.296
 2813SOL     OW 8459   2.475   4.566   1.431
 2813SOL    HW1 8460   2.531   4.647   1.414
 2813SOL    HW2 8461   2.534   4.486   1.434
 2814SOL     OW 8462   2.578   4.289   1.708
 2814SOL    HW1 8463   2.597   4.354   1.782
 2814SOL    HW2 8464   2.638   4.209   1.717
 2815SOL     OW 8465   3.312   4.944   1.633
 2815SOL    HW1 8466   3.303   4.934   1.732
 2815SOL    HW2 8467   3.408   4.937   1.607
 2816SOL     OW 8468   3.536   4.607   1.254
 2816SOL    HW1 8469   3.509   4.518   1.217
 2816SOL    HW2 8470   3.537   4.675   1.181
 2817SOL     OW 8471   3.087   4.049   0.449
 2817SOL    HW1 8472   3.152   3.975   0.438
 2817SOL    HW2 8473   3.107   4.099   0.533
 2818SOL     OW 8474   2.456   4.469   0.652
 2818SOL    HW1 8475   2.506   4.554   0.633
 2818SOL    HW2 8476   2.368   4.471   0.604
 2819SOL     OW 8477   3.639   4.066   1.642
 2819SOL    HW1 8478   3.622   4.097   1.548
 2819SOL    HW2 8479   3.555   4.029   1.680
 2820SOL     OW 8480   3.592   4.658   1.517
 2820SOL    HW1 8481   3.630   4.749   1.532
 2820SOL    HW2 8482   3.584   4.641   1.418
 2821SOL     OW 8483   2.721   4.680   0.861
 2821SOL    HW1 8484   2.775   4.611   0.909
 2821SOL    HW2 8485   2.689   4.749   0.927
 2822SOL     OW 8486   2.945   4.708   0.087
 2822SOL    HW1 8487   2.922   4.761   0.005
 2822SOL    HW2 8488   3.026   4.652   0.068
 2823SOL     OW 8489   1.941   4.964   0.653
 2823SOL    HW1 8490   1.940   4.917   0.741
 2823SOL    HW2 8491   2.023   4.936   0.602
 2824SOL     OW 8492   3.686   3.916   1.227
 2824SOL    HW1 8493   3.682   3.826   1.271
 2824SOL    HW2 8494   3.689   3.905   1.128
 2825SOL     OW 8495   2.290   4.148   0.520
 2825SOL    HW1 8496   2.320   4.076   0.458
 2825SOL    HW2 8497   2.251   4.108   0.603
 2826SOL     OW 8498   2.179   4.271   1.280
 2826SOL    HW1 8499   2.217   4.212   1.352
 2826SOL    HW2 8500   2.219   4.245   1.192
 2827SOL     OW 8501   3.286   3.938   1.112
 2827SOL    HW1 8502   3.338   3.873   1.167
 2827SOL    HW2 8503   3.237   4.001   1.173
 2828SOL     OW 8504   2.863   3.758   1.154
 2828SOL    HW1 8505   2.800   3.686   1.123
 2828SOL    HW2 8506   2.956   3.722   1.154
 2829SOL     OW 8507   2.632   5.054   0.301
 2829SOL    HW1 8508   2.586   4.967   0.318
 2829SOL    HW2 8509   2.723   5.051   0.342
 2830SOL     OW 8510   3.214   3.776   0.168
 2830SOL    HW1 8511   3.249   3.735   0.084
 2830SOL    HW2 8512   3.124   3.738   0.188
 2831SOL     OW 8513   3.162   4.177   0.691
 2831SOL    HW1 8514   3.103   4.257   0.695
 2831SOL    HW2 8515   3.177   4.142   0.784
 2832SOL     OW 8516   3.455   3.945   0.882
 2832SOL    HW1 8517   3.371   3.944   0.936
 2832SOL    HW2 8518   3.457   4.028   0.826
 2833SOL     OW 8519   1.901   4.801   0.300
 2833SOL    HW1 8520   2.000   4.790   0.291
 2833SOL    HW2 8521   1.861   4.715   0.332
 2834SOL     OW 8522   2.092   4.352   1.975
 2834SOL    HW1 8523   1.999   4.350   2.012
 2834SOL    HW2 8524   2.093   4.313   1.883
 2835SOL     OW 8525   2.087   3.999   2.858
 2835SOL    HW1 8526   2.122   3.982   2.950
 2835SOL    HW2 8527   1.999   3.954   2.846
 2836SOL     OW 8528   1.881   4.092   2.509
 2836SOL    HW1 8529   1.799   4.135   2.548
 2836SOL    HW2 8530   1.853   4.019   2.446
 2837SOL     OW 8531   2.997   4.427   2.579
 2837SOL    HW1 8532   3.054   4.505   2.554
 2837SOL    HW2 8533   2.937   4.453   2.655
 2838SOL     OW 8534   3.617   4.331   2.093
 2838SOL    HW1 8535   3.605   4.318   1.994
 2838SOL    HW2 8536   3.587   4.250   2.142
 2839SOL     OW 8537   2.630   4.868   2.885
 2839SOL    HW1 8538   2.552   4.885   2.945
 2839SOL    HW2 8539   2.664   4.955   2.849
 2840SOL     OW 8540   2.712   4.522   3.685
 2840SOL    HW1 8541   2.708   4.598   3.750
 2840SOL    HW2 8542   2.734   4.558   3.594
 2841SOL     OW 8543   2.547   4.736   2.527
 2841SOL    HW1 8544   2.616   4.720   2.597
 2841SOL    HW2 8545   2.474   4.793   2.565
 2842SOL     OW 8546   2.548   4.885   3.665
 2842SOL    HW1 8547   2.608   4.964   3.679
 2842SOL    HW2 8548   2.462   4.916   3.624
 2843SOL     OW 8549   2.197   5.159   2.923
 2843SOL    HW1 8550   2.119   5.128   2.870
 2843SOL    HW2 8551   2.255   5.217   2.866
 2844SOL     OW 8552   2.300   4.116   3.361
 2844SOL    HW1 8553   2.382   4.060   3.370
 2844SOL    HW2 8554   2.219   4.058   3.365
 2845SOL     OW 8555   3.465   4.171   2.599
 2845SOL    HW1 8556   3.391   4.217   2.549
 2845SOL    HW2 8557   3.516   4.239   2.652
 2846SOL     OW 8558   2.102   4.815   2.748
 2846SOL    HW1 8559   2.116   4.731   2.800
 2846SOL    HW2 8560   2.047   4.879   2.803
 2847SOL     OW 8561   2.468   4.688   1.985
 2847SOL    HW1 8562   2.475   4.772   1.931
 2847SOL    HW2 8563   2.514   4.701   2.073
 2848SOL     OW 8564   3.456   3.838   3.342
 2848SOL    HW1 8565   3.438   3.905   3.270
 2848SOL    HW2 8566   3.453   3.884   3.431
 2849SOL     OW 8567   1.984   4.367   2.425
 2849SOL    HW1 8568   1.939   4.279   2.442
 2849SOL    HW2 8569   1.983   4.421   2.509
 2850SOL     OW 8570   3.551   4.646   2.474
 2850SOL    HW1 8571   3.646   4.617   2.482
 2850SOL    HW2 8572   3.543   4.711   2.399
 2851SOL     OW 8573   3.503   4.832   2.294
 2851SOL    HW1 8574   3.589   4.834   2.242
 2851SOL    HW2 8575   3.517   4.879   2.382
 2852SOL     OW 8576   1.975   4.461   3.459
 2852SOL    HW1 8577   2.063   4.448   3.504
 2852SOL    HW2 8578   1.962   4.558   3.437
 2853SOL     OW 8579   3.155   4.952   3.285
 2853SOL    HW1 8580   3.192   4.879   3.227
 2853SOL    HW2 8581   3.207   4.957   3.370
 2854SOL     OW 8582   2.671   3.728   2.364
 2854SOL    HW1 8583   2.711   3.819   2.355
 2854SOL    HW2 8584   2.571   3.736   2.370
 2855SOL     OW 8585   2.059   4.700   3.126
 2855SOL    HW1 8586   2.148   4.655   3.112
 2855SOL    HW2 8587   1.986   4.635   3.107
 2856SOL     OW 8588   3.387   4.723   2.052
 2856SOL    HW1 8589   3.324   4.647   2.065
 2856SOL    HW2 8590   3.435   4.741   2.138
 2857SOL     OW 8591   2.179   3.975   3.663
 2857SOL    HW1 8592   2.250   4.046   3.669
 2857SOL    HW2 8593   2.091   4.014   3.691
 2858SOL     OW 8594   2.460   4.453   2.132
 2858SOL    HW1 8595   2.484   4.522   2.064
 2858SOL    HW2 8596   2.382   4.486   2.186
 2859SOL     OW 8597   3.143   4.069   2.806
 2859SOL    HW1 8598   3.057   4.019   2.793
 2859SOL    HW2 8599   3.205   4.015   2.862
 2860SOL     OW 8600   2.669   4.329   3.327
 2860SOL    HW1 8601   2.622   4.326   3.416
 2860SOL    HW2 8602   2.618   4.274   3.261
 2861SOL     OW 8603   3.256   4.193   3.536
 2861SOL    HW1 8604   3.236   4.236   3.624
 2861SOL    HW2 8605   3.334   4.131   3.545
 2862SOL     OW 8606   2.835   4.614   3.434
 2862SOL    HW1 8607   2.881   4.530   3.405
 2862SOL    HW2 8608   2.779   4.648   3.359
 2863SOL     OW 8609   2.853   4.134   3.104
 2863SOL    HW1 8610   2.776   4.168   3.158
 2863SOL    HW2 8611   2.819   4.083   3.025
 2864SOL     OW 8612   2.903   4.425   2.291
 2864SOL    HW1 8613   2.929   4.421   2.387
 2864SOL    HW2 8614   2.818   4.374   2.277
 2865SOL     OW 8615   1.938   4.535   2.651
 2865SOL    HW1 8616   2.037   4.523   2.660
 2865SOL    HW2 8617   1.914   4.630   2.672
 2866SOL     OW 8618   2.727   4.072   2.057
 2866SOL    HW1 8619   2.786   4.135   2.008
 2866SOL    HW2 8620   2.746   3.978   2.028
 2867SOL     OW 8621   3.581   4.309   3.693
 2867SOL    HW1 8622   3.555   4.398   3.657
 2867SOL    HW2 8623   3.579   4.241   3.620
 2868SOL     OW 8624   3.224   4.868   2.407
 2868SOL    HW1 8625   3.307   4.839   2.359
 2868SOL    HW2 8626   3.175   4.935   2.351
 2869SOL     OW 8627   2.412   3.920   2.747
 2869SOL    HW1 8628   2.407   3.915   2.847
 2869SOL    HW2 8629   2.414   4.016   2.718
 2870SOL     OW 8630   3.657   4.790   2.735
 2870SOL    HW1 8631   3.595   4.775   2.659
 2870SOL    HW2 8632   3.605   4.801   2.820
 2871SOL     OW 8633   2.183   4.667   2.104
 2871SOL    HW1 8634   2.265   4.706   2.062
 2871SOL    HW2 8635   2.156   4.585   2.055
 2872SOL     OW 8636   3.320   4.459   2.590
 2872SOL    HW1 8637   3.315   4.394   2.665
 2872SOL    HW2 8638   3.400   4.518   2.603
 2873SOL     OW 8639   2.064   4.009   3.360
 2873SOL    HW1 8640   1.984   4.069   3.347
 2873SOL    HW2 8641   2.054   3.960   3.446
 2874SOL     OW 8642   3.262   3.831   2.288
 2874SOL    HW1 8643   3.238   3.794   2.198
 2874SOL    HW2 8644   3.361   3.847   2.292
 2875SOL     OW 8645   2.244   4.424   2.342
 2875SOL    HW1 8646   2.289   4.334   2.339
 2875SOL    HW2 8647   2.150   4.413   2.375
 2876SOL     OW 8648   3.409   3.946   3.591
 2876SOL    HW1 8649   3.404   3.983   3.683
 2876SOL    HW2 8650   3.337   3.877   3.579
 2877SOL     OW 8651   2.476   3.846   1.979
 2877SOL    HW1 8652   2.574   3.824   1.986
 2877SOL    HW2 8653   2.445   3.829   1.886
 2878SOL     OW 8654   2.643   3.988   3.611
 2878SOL    HW1 8655   2.710   3.927   3.654
 2878SOL    HW2 8656   2.570   4.007   3.676
 2879SOL     OW 8657   3.213   4.314   3.295
 2879SOL    HW1 8658   3.241   4.271   3.380
 2879SOL    HW2 8659   3.238   4.410   3.296
 2880SOL     OW 8660   2.665   5.126   2.786
 2880SOL    HW1 8661   2.755   5.140   2.744
 2880SOL    HW2 8662   2.594   5.128   2.715
 2881SOL     OW 8663   2.784   4.227   2.761
 2881SOL    HW1 8664   2.759   4.218   2.665
 2881SOL    HW2 8665   2.832   4.145   2.792
 2882SOL     OW 8666   2.401   3.788   2.374
 2882SOL    HW1 8667   2.320   3.789   2.432
 2882SOL    HW2 8668   2.404   3.871   2.319
 2883SOL     OW 8669   2.159   3.759   2.033
 2883SOL    HW1 8670   2.208   3.843   2.012
 2883SOL    HW2 8671   2.221   3.694   2.078
 2884SOL     OW 8672   2.797   3.960   2.342
 2884SOL    HW1 8673   2.749   4.001   2.264
 2884SOL    HW2 8674   2.896   3.958   2.323
 2885SOL     OW 8675   2.938   4.407   3.326
 2885SOL    HW1 8676   2.858   4.346   3.329
 2885SOL    HW2 8677   3.019   4.354   3.302
 2886SOL     OW 8678   2.321   4.876   2.603
 2886SOL    HW1 8679   2.250   4.849   2.668
 2886SOL    HW2 8680   2.295   4.848   2.510
 2887SOL     OW 8681   2.894   4.273   1.878
 2887SOL    HW1 8682   2.853   4.355   1.839
 2887SOL    HW2 8683   2.958   4.299   1.951
 2888SOL     OW 8684   1.940   4.280   3.248
 2888SOL    HW1 8685   2.032   4.279   3.207
 2888SOL    HW2 8686   1.934   4.354   3.315
 2889SOL     OW 8687   2.423   3.946   3.009
 2889SOL    HW1 8688   2.461   3.862   3.046
 2889SOL    HW2 8689   2.335   3.965   3.053
 2890SOL     OW 8690   2.728   4.178   2.504
 2890SOL    HW1 8691   2.696   4.250   2.442
 2890SOL    HW2 8692   2.752   4.097   2.451
 2891SOL     OW 8693   2.879   3.763   2.615
 2891SOL    HW1 8694   2.807   3.768   2.546
 2891SOL    HW2 8695   2.855   3.694   2.684
 2892SOL     OW 8696   3.291   4.897   2.729
 2892SOL    HW1 8697   3.236   4.813   2.722
 2892SOL    HW2 8698   3.317   4.926   2.637
 2893SOL     OW 8699   3.328   4.314   2.854
 2893SOL    HW1 8700   3.298   4.219   2.861
 2893SOL    HW2 8701   3.401   4.330   2.920
 2894SOL     OW 8702   3.719   4.557   2.239
 2894SOL    HW1 8703   3.761   4.493   2.303
 2894SOL    HW2 8704   3.681   4.506   2.161
 2895SOL     OW 8705   3.252   4.299   1.940
 2895SOL    HW1 8706   3.198   4.278   2.021
 2895SOL    HW2 8707   3.343   4.258   1.949
 2896SOL     OW 8708   2.389   3.980   2.190
 2896SOL    HW1 8709   2.416   3.921   2.115
 2896SOL    HW2 8710   2.389   4.075   2.159
 2897SOL     OW 8711   3.616   4.947   3.450
 2897SOL    HW1 8712   3.707   4.908   3.437
 2897SOL    HW2 8713   3.624   5.043   3.474
 2898SOL     OW 8714   3.500   4.823   2.941
 2898SOL    HW1 8715   3.505   4.904   3.000
 2898SOL    HW2 8716   3.414   4.825   2.890
 2899SOL     OW 8717   2.777   3.813   3.264
 2899SOL    HW1 8718   2.802   3.793   3.169
 2899SOL    HW2 8719   2.849   3.869   3.306
 2900SOL     OW 8720   2.842   4.840   3.581
 2900SOL    HW1 8721   2.743   4.846   3.591
 2900SOL    HW2 8722   2.865   4.760   3.525
 2901SOL     OW 8723   2.567   4.774   2.230
 2901SOL    HW1 8724   2.553   4.781   2.329
 2901SOL    HW2 8725   2.651   4.723   2.212
 2902SOL     OW 8726   2.272   4.537   3.113
 2902SOL    HW1 8727   2.358   4.549   3.163
 2902SOL    HW2 8728   2.230   4.450   3.140
 2903SOL     OW 8729   3.136   4.110   3.124
 2903SOL    HW1 8730   3.157   4.184   3.188
 2903SOL    HW2 8731   3.047   4.127   3.081
 2904SOL     OW 8732   2.229   4.824   2.363
 2904SOL    HW1 8733   2.222   4.907   2.307
 2904SOL    HW2 8734   2.233   4.744   2.303
 2905SOL     OW 8735   2.428   4.261   2.727
 2905SOL    HW1 8736   2.440   4.327   2.653
 2905SOL    HW2 8737   2.474   4.295   2.810
 2906SOL     OW 8738   3.444   4.363   2.334
 2906SOL    HW1 8739   3.413   4.424   2.407
 2906SOL    HW2 8740   3.494   4.415   2.265
 2907SOL     OW 8741   2.264   4.475   3.460
 2907SOL    HW1 8742   2.332   4.530   3.413
 2907SOL    HW2 8743   2.304   4.387   3.487
 2908SOL     OW 8744   3.449   4.503   3.532
 2908SOL    HW1 8745   3.357   4.541   3.527
 2908SOL    HW2 8746   3.509   4.550   3.467
 2909SOL     OW 8747   2.875   3.829   3.632
 2909SOL    HW1 8748   2.881   3.914   3.580
 2909SOL    HW2 8749   2.907   3.753   3.575
 2910SOL     OW 8750   2.366   3.774   3.602
 2910SOL    HW1 8751   2.324   3.717   3.532
 2910SOL    HW2 8752   2.300   3.843   3.634
 2911SOL     OW 8753   2.435   4.594   2.891
 2911SOL    HW1 8754   2.479   4.683   2.882
 2911SOL    HW2 8755   2.372   4.594   2.968
 2912SOL     OW 8756   3.222   4.586   2.907
 2912SOL    HW1 8757   3.147   4.586   2.841
 2912SOL    HW2 8758   3.259   4.494   2.916
 2913SOL     OW 8759   3.071   4.249   2.137
 2913SOL    HW1 8760   3.084   4.165   2.191
 2913SOL    HW2 8761   3.042   4.323   2.197
 2914SOL     OW 8762   2.169   3.937   3.093
 2914SOL    HW1 8763   2.146   3.974   3.183
 2914SOL    HW2 8764   2.139   3.842   3.087
 2915SOL     OW 8765   2.594   4.358   2.926
 2915SOL    HW1 8766   2.653   4.332   2.850
 2915SOL    HW2 8767   2.566   4.454   2.915
 2916SOL     OW 8768   3.590   4.659   3.716
 2916SOL    HW1 8769   3.544   4.652   3.627
 2916SOL    HW2 8770   3.528   4.703   3.782
 2917SOL     OW 8771   2.169   3.787   2.480
 2917SOL    HW1 8772   2.158   3.881   2.513
 2917SOL    HW2 8773   2.164   3.724   2.557
 2918SOL     OW 8774   3.484   4.091   2.236
 2918SOL    HW1 8775   3.486   4.015   2.300
 2918SOL    HW2 8776   3.436   4.168   2.276
 2919SOL     OW 8777   2.885   4.490   2.828
 2919SOL    HW1 8778   2.900   4.511   2.924
 2919SOL    HW2 8779   2.855   4.395   2.819
 2920SOL     OW 8780   2.212   4.622   3.666
 2920SOL    HW1 8781   2.288   4.666   3.714
 2920SOL    HW2 8782   2.247   4.575   3.584
 2921SOL     OW 8783   3.402   3.998   1.987
 2921SOL    HW1 8784   3.341   3.923   2.010
 2921SOL    HW2 8785   3.424   4.050   2.070
 2922SOL     OW 8786   3.165   4.562   1.904
 2922SOL    HW1 8787   3.199   4.469   1.919
 2922SOL    HW2 8788   3.183   4.589   1.809
 2923SOL     OW 8789   2.181   4.534   2.811
 2923SOL    HW1 8790   2.274   4.570   2.816
 2923SOL    HW2 8791   2.175   4.449   2.863
 2924SOL     OW 8792   2.201   4.233   2.868
 2924SOL    HW1 8793   2.149   4.150   2.851
 2924SOL    HW2 8794   2.278   4.238   2.804
 2925SOL     OW 8795   3.000   4.104   3.540
 2925SOL    HW1 8796   2.955   4.167   3.604
 2925SOL    HW2 8797   3.093   4.135   3.523
 2926SOL     OW 8798   3.022   3.931   3.339
 2926SOL    HW1 8799   3.022   3.995   3.416
 2926SOL    HW2 8800   3.050   3.979   3.256
 2927SOL     OW 8801   1.870   5.050   2.062
 2927SOL    HW1 8802   1.777   5.071   2.031
 2927SOL    HW2 8803   1.880   4.951   2.075
 2928SOL     OW 8804   2.864   4.520   3.100
 2928SOL    HW1 8805   2.905   4.488   3.186
 2928SOL    HW2 8806   2.768   4.493   3.097
 2929SOL     OW 8807   1.902   4.268   2.976
 2929SOL    HW1 8808   1.987   4.235   2.935
 2929SOL    HW2 8809   1.915   4.283   3.074
 2930SOL     OW 8810   2.051   4.244   3.584
 2930SOL    HW1 8811   2.110   4.204   3.514
 2930SOL    HW2 8812   1.993   4.315   3.543
 2931SOL     OW 8813   3.231   4.674   3.522
 2931SOL    HW1 8814   3.270   4.763   3.542
 2931SOL    HW2 8815   3.241   4.654   3.425
 2932SOL     OW 8816   2.677   4.296   2.187
 2932SOL    HW1 8817   2.684   4.207   2.141
 2932SOL    HW2 8818   2.583   4.330   2.179
 2933SOL     OW 8819   3.519   4.328   3.068
 2933SOL    HW1 8820   3.481   4.259   3.130
 2933SOL    HW2 8821   3.601   4.292   3.024
 2934SOL     OW 8822   2.533   4.188   3.131
 2934SOL    HW1 8823   2.499   4.099   3.101
 2934SOL    HW2 8824   2.559   4.242   3.051
 2935SOL     OW 8825   2.335   4.224   2.053
 2935SOL    HW1 8826   2.396   4.304   2.057
 2935SOL    HW2 8827   2.240   4.255   2.060
 2936SOL     OW 8828   2.021   4.861   3.328
 2936SOL    HW1 8829   2.043   4.800   3.404
 2936SOL    HW2 8830   2.031   4.812   3.242
 2937SOL     OW 8831   3.209   4.783   3.096
 2937SOL    HW1 8832   3.233   4.720   3.022
 2937SOL    HW2 8833   3.119   4.823   3.078
 2938SOL     OW 8834   3.164   4.579   2.171
 2938SOL    HW1 8835   3.078   4.548   2.213
 2938SOL    HW2 8836   3.160   4.565   2.072
 2939SOL     OW 8837   1.945   4.982   2.884
 2939SOL    HW1 8838   1.940   4.981   2.984
 2939SOL    HW2 8839   1.862   4.941   2.846
 2940SOL     OW 8840   3.588   3.859   2.385
 2940SOL    HW1 8841   3.661   3.842   2.318
 2940SOL    HW2 8842   3.557   3.772   2.423
 2941SOL     OW 8843   3.142   4.651   2.534
 2941SOL    HW1 8844   3.202   4.570   2.536
 2941SOL    HW2 8845   3.182   4.720   2.474
 2942SOL     OW 8846   3.703   3.899   2.825
 2942SOL    HW1 8847   3.742   3.814   2.789
 2942SOL    HW2 8848   3.605   3.901   2.806
 2943SOL     OW 8849   2.125   4.050   2.582
 2943SOL    HW1 8850   2.046   4.101   2.548
 2943SOL    HW2 8851   2.116   4.035   2.680
 2944SOL     OW 8852   3.056   5.336   1.893
 2944SOL    HW1 8853   3.062   5.243   1.930
 2944SOL    HW2 8854   2.997   5.336   1.813
 2945SOL     OW 8855   2.684   4.726   3.234
 2945SOL    HW1 8856   2.724   4.725   3.142
 2945SOL    HW2 8857   2.694   4.818   3.274
 2946SOL     OW 8858   2.778   4.634   2.153
 2946SOL    HW1 8859   2.841   4.672   2.085
 2946SOL    HW2 8860   2.818   4.551   2.192
 2947SOL     OW 8861   2.234   5.012   3.352
 2947SOL    HW1 8862   2.221   5.105   3.318
 2947SOL    HW2 8863   2.150   4.960   3.339
 2948SOL     OW 8864   3.476   5.016   3.151
 2948SOL    HW1 8865   3.536   5.019   3.231
 2948SOL    HW2 8866   3.401   5.080   3.164
 2949SOL     OW 8867   2.901   4.822   2.558
 2949SOL    HW1 8868   2.831   4.775   2.612
 2949SOL    HW2 8869   2.960   4.754   2.515
 2950SOL     OW 8870   2.876   3.960   2.833
 2950SOL    HW1 8871   2.868   3.924   2.740
 2950SOL    HW2 8872   2.874   3.884   2.898
 2951SOL     OW 8873   3.571   4.109   3.243
 2951SOL    HW1 8874   3.644   4.178   3.247
 2951SOL    HW2 8875   3.599   4.034   3.184
 2952SOL     OW 8876   1.967   4.737   3.588
 2952SOL    HW1 8877   1.890   4.704   3.642
 2952SOL    HW2 8878   2.052   4.707   3.630
 2953SOL     OW 8879   2.534   3.927   3.351
 2953SOL    HW1 8880   2.624   3.911   3.311
 2953SOL    HW2 8881   2.542   3.932   3.450
 2954SOL     OW 8882   1.937   4.069   1.895
 2954SOL    HW1 8883   1.845   4.041   1.866
 2954SOL    HW2 8884   1.968   4.146   1.839
 2955SOL     OW 8885   3.302   4.580   3.260
 2955SOL    HW1 8886   3.245   4.632   3.197
 2955SOL    HW2 8887   3.398   4.592   3.236
 2956SOL     OW 8888   1.934   3.890   2.180
 2956SOL    HW1 8889   1.917   3.973   2.126
 2956SOL    HW2 8890   2.024   3.853   2.158
 2957SOL     OW 8891   2.475   4.566   3.293
 2957SOL    HW1 8892   2.531   4.647   3.276
 2957SOL    HW2 8893   2.534   4.486   3.296
 2958SOL     OW 8894   2.578   4.289   3.570
 2958SOL    HW1 8895   2.597   4.354   3.644
 2958SOL    HW2 8896   2.638   4.209   3.579
 2959SOL     OW 8897   3.312   4.944   3.495
 2959SOL    HW1 8898   3.303   4.934   3.594
 2959SOL    HW2 8899   3.408   4.937   3.469
 2960SOL     OW 8900   3.536   4.607   3.116
 2960SOL    HW1 8901   3.509   4.518   3.079
 2960SOL    HW2 8902   3.537   4.675   3.043
 2961SOL     OW 8903   3.087   4.049   2.311
 2961SOL    HW1 8904   3.152   3.975   2.300
 2961SOL    HW2 8905   3.107   4.099   2.395
 2962SOL     OW 8906   2.456   4.469   2.514
 2962SOL    HW1 8907   2.506   4.554   2.495
 2962SOL    HW2 8908   2.368   4.471   2.466
 2963SOL     OW 8909   3.639   4.066   3.504
 2963SOL    HW1 8910   3.622   4.097   3.410
 2963SOL    HW2 8911   3.555   4.029   3.542
 2964SOL     OW 8912   3.592   4.658   3.379
 2964SOL    HW1 8913   3.630   4.749   3.394
 2964SOL    HW2 8914   3.584   4.641   3.280
 2965SOL     OW 8915   2.721   4.680   2.723
 2965SOL    HW1 8916   2.775   4.611   2.771
 2965SOL    HW2 8917   2.689   4.749   2.789
 2966SOL     OW 8918   2.945   4.708   1.949
 2966SOL    HW1 8919   2.922   4.761   1.867
 2966SOL    HW2 8920   3.026   4.652   1.930
 2967SOL     OW 8921   1.941   4.964   2.515
 2967SOL    HW1 8922   1.940   4.917   2.603
 2967SOL    HW2 8923   2.023   4.936   2.464
 2968SOL     OW 8924   3.686   3.916   3.089
 2968SOL    HW1 8925   3.682   3.826   3.133
 2968SOL    HW2 8926   3.689   3.905   2.990
 2969SOL     OW 8927   2.290   4.148   2.382
 2969SOL    HW1 8928   2.320   4.076   2.320
 2969SOL    HW2 8929   2.251   4.108   2.465
 2970SOL     OW 8930   2.179   4.271   3.142
 2970SOL    HW1 8931   2.217   4.212   3.214
 2970SOL    HW2 8932   2.219   4.245   3.054
 2971SOL     OW 8933   3.286   3.938   2.974
 2971SOL    HW1 8934   3.338   3.873   3.029
 2971SOL    HW2 8935   3.237   4.001   3.035
 2972SOL     OW 8936   2.863   3.758   3.016
 2972SOL    HW1 8937   2.800   3.686   2.985
 2972SOL    HW2 8938   2.956   3.722   3.016
 2973SOL     OW 8939   2.632   5.054   2.163
 2973SOL    HW1 8940   2.586   4.967   2.180
 2973SOL    HW2 8941   2.723   5.051   2.204
 2974SOL     OW 8942   3.214   3.776   2.030
 2974SOL    HW1 8943   3.249   3.735   1.946
 2974SOL    HW2 8944   3.124   3.738   2.050
 2975SOL     OW 8945   3.162   4.177   2.553
 2975SOL    HW1 8946   3.103   4.257   2.557
 2975SOL    HW2 8947   3.177   4.142   2.646
 2976SOL     OW 8948   3.455   3.945   2.744
 2976SOL    HW1 8949   3.371   3.944   2.798
 2976SOL    HW2 8950   3.457   4.028   2.688
 2977SOL     OW 8951   1.901   4.801   2.162
 2977SOL    HW1 8952   2.000   4.790   2.153
 2977SOL    HW2 8953   1.861   4.715   2.194
 2978SOL     OW 8954   2.092   4.352   3.837
 2978SOL    HW1 8955   1.999   4.350   3.874
 2978SOL    HW2 8956   2.093   4.313   3.745
 2979SOL     OW 8957   2.087   3.999   4.720
 2979SOL    HW1 8958   2.122   3.982   4.812
 2979SOL    HW2 8959   1.999   3.954   4.708
 2980SOL     OW 8960   1.881   4.092   4.371
 2980SOL    HW1 8961   1.799   4.135   4.410
 2980SOL    HW2 8962   1.853   4.019   4.308
 2981SOL     OW 8963   2.997   4.427   4.441
 2981SOL    HW1 8964   3.054   4.505   4.416
 2981SOL    HW2 8965   2.937   4.453   4.517
 2982SOL     OW 8966   3.617   4.331   3.955
 2982SOL    HW1 8967   3.605   4.318   3.856
 2982SOL    HW2 8968   3.587   4.250   4.004
 2983SOL     OW 8969   2.630   4.868   4.747
 2983SOL    HW1 8970   2.552   4.885   4.807
 2983SOL    HW2 8971   2.664   4.955   4.711
 2984SOL     OW 8972   2.547   4.736   4.389
 2984SOL    HW1 8973   2.616   4.720   4.459
 2984SOL    HW2 8974   2.474   4.793   4.427
 2985SOL     OW 8975   2.197   5.159   4.785
 2985SOL    HW1 8976   2.119   5.128   4.732
 2985SOL    HW2 8977   2.255   5.217   4.728
 2986SOL     OW 8978   3.465   4.171   4.461
 2986SOL    HW1 8979   3.391   4.217   4.411
 2986SOL    HW2 8980   3.516   4.239   4.514
 2987SOL     OW 8981   2.102   4.815   4.610
 2987SOL    HW1 8982   2.116   4.731   4.662
 2987SOL    HW2 8983   2.047   4.879   4.665
 2988SOL     OW 8984   2.468   4.688   3.847
 2988SOL    HW1 8985   2.475   4.772   3.793
 2988SOL    HW2 8986   2.514   4.701   3.935
 2989SOL     OW 8987   1.984   4.367   4.287
 2989SOL    HW1 8988   1.939   4.279   4.304
 2989SOL    HW2 8989   1.983   4.421   4.371
 2990SOL     OW 8990   3.551   4.646   4.336
 2990SOL    HW1 8991   3.646   4.617   4.344
 2990SOL    HW2 8992   3.543   4.711   4.261
 2991SOL     OW 8993   3.503   4.832   4.156
 2991SOL    HW1 8994   3.589   4.834   4.104
 2991SOL    HW2 8995   3.517   4.879   4.244
 2992SOL     OW 8996   1.975   4.461   5.321
 2992SOL    HW1 8997   2.063   4.448   5.366
 2992SOL    HW2 8998   1.962   4.558   5.299
 2993SOL     OW 8999   2.671   3.728   4.226
 2993SOL    HW1 9000   2.711   3.819   4.217
 2993SOL    HW2 9001   2.571   3.736   4.232
 2994SOL     OW 9002   2.059   4.700   4.988
 2994SOL    HW1 9003   2.148   4.655   4.974
 2994SOL    HW2 9004   1.986   4.635   4.969
 2995SOL     OW 9005   3.387   4.723   3.914
 2995SOL    HW1 9006   3.324   4.647   3.927
 2995SOL    HW2 9007   3.435   4.741   4.000
 2996SOL     OW 9008   2.460   4.453   3.994
 2996SOL    HW1 9009   2.484   4.522   3.926
 2996SOL    HW2 9010   2.382   4.486   4.048
 2997SOL     OW 9011   3.143   4.069   4.668
 2997SOL    HW1 9012   3.057   4.019   4.655
 2997SOL    HW2 9013   3.205   4.015   4.724
 2998SOL     OW 9014   2.903   4.425   4.153
 2998SOL    HW1 9015   2.929   4.421   4.249
 2998SOL    HW2 9016   2.818   4.374   4.139
 2999SOL     OW 9017   1.938   4.535   4.513
 2999SOL    HW1 9018   2.037   4.523   4.522
 2999SOL    HW2 9019   1.914   4.630   4.534
 3000SOL     OW 9020   2.727   4.072   3.919
 3000SOL    HW1 9021   2.786   4.135   3.870
 3000SOL    HW2 9022   2.746   3.978   3.890
 3001SOL     OW 9023   3.224   4.868   4.269
 3001SOL    HW1 9024   3.307   4.839   4.221
 3001SOL    HW2 9025   3.175   4.935   4.213
 3002SOL     OW 9026   2.412   3.920   4.609
 3002SOL    HW1 9027   2.407   3.915   4.709
 3002SOL    HW2 9028   2.414   4.016   4.580
 3003SOL     OW 9029   3.657   4.790   4.597
 3003SOL    HW1 9030   3.595   4.775   4.521
 3003SOL    HW2 9031   3.605   4.801   4.682
 3004SOL     OW 9032   2.183   4.667   3.966
 3004SOL    HW1 9033   2.265   4.706   3.924
 3004SOL    HW2 9034   2.156   4.585   3.917
 3005SOL     OW 9035   3.320   4.459   4.452
 3005SOL    HW1 9036   3.315   4.394   4.527
 3005SOL    HW2 9037   3.400   4.518   4.465
 3006SOL     OW 9038   3.262   3.831   4.150
 3006SOL    HW1 9039   3.238   3.794   4.060
 3006SOL    HW2 9040   3.361   3.847   4.154
 3007SOL     OW 9041   2.244   4.424   4.204
 3007SOL    HW1 9042   2.289   4.334   4.201
 3007SOL    HW2 9043   2.150   4.413   4.237
 3008SOL     OW 9044   2.476   3.846   3.841
 3008SOL    HW1 9045   2.574   3.824   3.848
 3008SOL    HW2 9046   2.445   3.829   3.748
 3009SOL     OW 9047   2.665   5.126   4.648
 3009SOL    HW1 9048   2.755   5.140   4.606
 3009SOL    HW2 9049   2.594   5.128   4.577
 3010SOL     OW 9050   2.784   4.227   4.623
 3010SOL    HW1 9051   2.759   4.218   4.527
 3010SOL    HW2 9052   2.832   4.145   4.654
 3011SOL     OW 9053   2.401   3.788   4.236
 3011SOL    HW1 9054   2.320   3.789   4.294
 3011SOL    HW2 9055   2.404   3.871   4.181
 3012SOL     OW 9056   2.159   3.759   3.895
 3012SOL    HW1 9057   2.208   3.843   3.874
 3012SOL    HW2 9058   2.221   3.694   3.940
 3013SOL     OW 9059   2.797   3.960   4.204
 3013SOL    HW1 9060   2.749   4.001   4.126
 3013SOL    HW2 9061   2.896   3.958   4.185
 3014SOL     OW 9062   2.321   4.876   4.465
 3014SOL    HW1 9063   2.250   4.849   4.530
 3014SOL    HW2 9064   2.295   4.848   4.372
 3015SOL     OW 9065   2.894   4.273   3.740
 3015SOL    HW1 9066   2.853   4.355   3.701
 3015SOL    HW2 9067   2.958   4.299   3.813
 3016SOL     OW 9068   2.423   3.946   4.871
 3016SOL    HW1 9069   2.461   3.862   4.908
 3016SOL    HW2 9070   2.335   3.965   4.915
 3017SOL     OW 9071   2.728   4.178   4.366
 3017SOL    HW1 9072   2.696   4.250   4.304
 3017SOL    HW2 9073   2.752   4.097   4.313
 3018SOL     OW 9074   2.879   3.763   4.477
 3018SOL    HW1 9075   2.807   3.768   4.408
 3018SOL    HW2 9076   2.855   3.694   4.546
 3019SOL     OW 9077   3.291   4.897   4.591
 3019SOL    HW1 9078   3.236   4.813   4.584
 3019SOL    HW2 9079   3.317   4.926   4.499
 3020SOL     OW 9080   3.328   4.314   4.716
 3020SOL    HW1 9081   3.298   4.219   4.723
 3020SOL    HW2 9082   3.401   4.330   4.782
 3021SOL     OW 9083   3.719   4.557   4.101
 3021SOL    HW1 9084   3.761   4.493   4.165
 3021SOL    HW2 9085   3.681   4.506   4.023
 3022SOL     OW 9086   3.252   4.299   3.802
 3022SOL    HW1 9087   3.198   4.278   3.883
 3022SOL    HW2 9088   3.343   4.258   3.811
 3023SOL     OW 9089   2.389   3.980   4.052
 3023SOL    HW1 9090   2.416   3.921   3.977
 3023SOL    HW2 9091   2.389   4.075   4.021
 3024SOL     OW 9092   3.500   4.823   4.803
 3024SOL    HW1 9093   3.505   4.904   4.862
 3024SOL    HW2 9094   3.414   4.825   4.752
 3025SOL     OW 9095   2.567   4.774   4.092
 3025SOL    HW1 9096   2.553   4.781   4.191
 3025SOL    HW2 9097   2.651   4.723   4.074
 3026SOL     OW 9098   2.272   4.537   4.975
 3026SOL    HW1 9099   2.358   4.549   5.025
 3026SOL    HW2 9100   2.230   4.450   5.002
 3027SOL     OW 9101   3.136   4.110   4.986
 3027SOL    HW1 9102   3.157   4.184   5.050
 3027SOL    HW2 9103   3.047   4.127   4.943
 3028SOL     OW 9104   2.229   4.824   4.225
 3028SOL    HW1 9105   2.222   4.907   4.169
 3028SOL    HW2 9106   2.233   4.744   4.165
 3029SOL     OW 9107   2.428   4.261   4.589
 3029SOL    HW1 9108   2.440   4.327   4.515
 3029SOL    HW2 9109   2.474   4.295   4.672
 3030SOL     OW 9110   3.444   4.363   4.196
 3030SOL    HW1 9111   3.413   4.424   4.269
 3030SOL    HW2 9112   3.494   4.415   4.127
 3031SOL     OW 9113   2.435   4.594   4.753
 3031SOL    HW1 9114   2.479   4.683   4.744
 3031SOL    HW2 9115   2.372   4.594   4.830
 3032SOL     OW 9116   3.222   4.586   4.769
 3032SOL    HW1 9117   3.147   4.586   4.703
 3032SOL    HW2 9118   3.259   4.494   4.778
 3033SOL     OW 9119   3.071   4.249   3.999
 3033SOL    HW1 9120   3.084   4.165   4.053
 3033SOL    HW2 9121   3.042   4.323   4.059
 3034SOL     OW 9122   2.169   3.937   4.955
 3034SOL    HW1 9123   2.146   3.974   5.045
 3034SOL    HW2 9124   2.139   3.842   4.949
 3035SOL     OW 9125   2.594   4.358   4.788
 3035SOL    HW1 9126   2.653   4.332   4.712
 3035SOL    HW2 9127   2.566   4.454   4.777
 3036SOL     OW 9128   2.169   3.787   4.342
 3036SOL    HW1 9129   2.158   3.881   4.375
 3036SOL    HW2 9130   2.164   3.724   4.419
 3037SOL     OW 9131   3.484   4.091   4.098
 3037SOL    HW1 9132   3.486   4.015   4.162
 3037SOL    HW2 9133   3.436   4.168   4.138
 3038SOL     OW 9134   2.885   4.490   4.690
 3038SOL    HW1 9135   2.900   4.511   4.786
 3038SOL    HW2 9136   2.855   4.395   4.681
 3039SOL     OW 9137   3.402   3.998   3.849
 3039SOL    HW1 9138   3.341   3.923   3.872
 3039SOL    HW2 9139   3.424   4.050   3.932
 3040SOL     OW 9140   3.165   4.562   3.766
 3040SOL    HW1 9141   3.199   4.469   3.781
 3040SOL    HW2 9142   3.183   4.589   3.671
 3041SOL     OW 9143   2.181   4.534   4.673
 3041SOL    HW1 9144   2.274   4.570   4.678
 3041SOL    HW2 9145   2.175   4.449   4.725
 3042SOL     OW 9146   2.201   4.233   4.730
 3042SOL    HW1 9147   2.149   4.150   4.713
 3042SOL    HW2 9148   2.278   4.238   4.666
 3043SOL     OW 9149   3.022   3.931   5.201
 3043SOL    HW1 9150   3.022   3.995   5.278
 3043SOL    HW2 9151   3.050   3.979   5.118
 3044SOL     OW 9152   1.870   5.050   3.924
 3044SOL    HW1 9153   1.777   5.071   3.893
 3044SOL    HW2 9154   1.880   4.951   3.937
 3045SOL     OW 9155   2.864   4.520   4.962
 3045SOL    HW1 9156   2.905   4.488   5.048
 3045SOL    HW2 9157   2.768   4.493   4.959
 3046SOL     OW 9158   1.902   4.268   4.838
 3046SOL    HW1 9159   1.987   4.235   4.797
 3046SOL    HW2 9160   1.915   4.283   4.936
 3047SOL     OW 9161   2.677   4.296   4.049
 3047SOL    HW1 9162   2.684   4.207   4.003
 3047SOL    HW2 9163   2.583   4.330   4.041
 3048SOL     OW 9164   3.519   4.328   4.930
 3048SOL    HW1 9165   3.481   4.259   4.992
 3048SOL    HW2 9166   3.601   4.292   4.886
 3049SOL     OW 9167   2.533   4.188   4.993
 3049SOL    HW1 9168   2.499   4.099   4.963
 3049SOL    HW2 9169   2.559   4.242   4.913
 3050SOL     OW 9170   2.335   4.224   3.915
 3050SOL    HW1 9171   2.396   4.304   3.919
 3050SOL    HW2 9172   2.240   4.255   3.922
 3051SOL     OW 9173   3.209   4.783   4.958
 3051SOL    HW1 9174   3.233   4.720   4.884
 3051SOL    HW2 9175   3.119   4.823   4.940
 3052SOL     OW 9176   3.164   4.579   4.033
 3052SOL    HW1 9177   3.078   4.548   4.075
 3052SOL    HW2 9178   3.160   4.565   3.934
 3053SOL     OW 9179   1.945   4.982   4.746
 3053SOL    HW1 9180   1.940   4.981   4.846
 3053SOL    HW2 9181   1.862   4.941   4.708
 3054SOL     OW 9182   3.588   3.859   4.247
 3054SOL    HW1 9183   3.661   3.842   4.180
 3054SOL    HW2 9184   3.557   3.772   4.285
 3055SOL     OW 9185   3.142   4.651   4.396
 3055SOL    HW1 9186   3.202   4.570   4.398
 3055SOL    HW2 9187   3.182   4.720   4.336
 3056SOL     OW 9188   3.703   3.899   4.687
 3056SOL    HW1 9189   3.742   3.814   4.651
 3056SOL    HW2 9190   3.605   3.901   4.668
 3057SOL     OW 9191   2.125   4.050   4.444
 3057SOL    HW1 9192   2.046   4.101   4.410
 3057SOL    HW2 9193   2.116   4.035   4.542
 3058SOL     OW 9194   3.056   5.336   3.755
 3058SOL    HW1 9195   3.062   5.243   3.792
 3058SOL    HW2 9196   2.997   5.336   3.675
 3059SOL     OW 9197   2.684   4.726   5.096
 3059SOL    HW1 9198   2.724   4.725   5.004
 3059SOL    HW2 9199   2.694   4.818   5.136
 3060SOL     OW 9200   2.778   4.634   4.015
 3060SOL    HW1 9201   2.841   4.672   3.947
 3060SOL    HW2 9202   2.818   4.551   4.054
 3061SOL     OW 9203   3.476   5.016   5.013
 3061SOL    HW1 9204   3.536   5.019   5.093
 3061SOL    HW2 9205   3.401   5.080   5.026
 3062SOL     OW 9206   2.901   4.822   4.420
 3062SOL    HW1 9207   2.831   4.775   4.474
 3062SOL    HW2 9208   2.960   4.754   4.377
 3063SOL     OW 9209   2.876   3.960   4.695
 3063SOL    HW1 9210   2.868   3.924   4.602
 3063SOL    HW2 9211   2.874   3.884   4.760
 3064SOL     OW 9212   3.571   4.109   5.105
 3064SOL    HW1 9213   3.644   4.178   5.109
 3064SOL    HW2 9214   3.599   4.034   5.046
 3065SOL     OW 9215   1.937   4.069   3.757
 3065SOL    HW1 9216   1.845   4.041   3.728
 3065SOL    HW2 9217   1.968   4.146   3.701
 3066SOL     OW 9218   1.934   3.890   4.042
 3066SOL    HW1 9219   1.917   3.973   3.988
 3066SOL    HW2 9220   2.024   3.853   4.020
 3067SOL     OW 9221   3.536   4.607   4.978
 3067SOL    HW1 9222   3.509   4.518   4.941
 3067SOL    HW2 9223   3.537   4.675   4.905
 3068SOL     OW 9224   3.087   4.049   4.173
 3068SOL    HW1 9225   3.152   3.975   4.162
 3068SOL    HW2 9226   3.107   4.099   4.257
 3069SOL     OW 9227   2.456   4.469   4.376
 3069SOL    HW1 9228   2.506   4.554   4.357
 3069SOL    HW2 9229   2.368   4.471   4.328
 3070SOL     OW 9230   3.592   4.658   5.241
 3070SOL    HW1 9231   3.630   4.749   5.256
 3070SOL    HW2 9232   3.584   4.641   5.142
 3071SOL     OW 9233   2.721   4.680   4.585
 3071SOL    HW1 9234   2.775   4.611   4.633
 3071SOL    HW2 9235   2.689   4.749   4.651
 3072SOL     OW 9236   2.945   4.708   3.811
 3072SOL    HW1 9237   2.922   4.761   3.729
 3072SOL    HW2 9238   3.026   4.652   3.792
 3073SOL     OW 9239   1.941   4.964   4.377
 3073SOL    HW1 9240   1.940   4.917   4.465
 3073SOL    HW2 9241   2.023   4.936   4.326
 3074SOL     OW 9242   3.686   3.916   4.951
 3074SOL    HW1 9243   3.682   3.826   4.995
 3074SOL    HW2 9244   3.689   3.905   4.852
 3075SOL     OW 9245   2.290   4.148   4.244
 3075SOL    HW1 9246   2.320   4.076   4.182
 3075SOL    HW2 9247   2.251   4.108   4.327
 3076SOL     OW 9248   3.286   3.938   4.836
 3076SOL    HW1 9249   3.338   3.873   4.891
 3076SOL    HW2 9250   3.237   4.001   4.897
 3077SOL     OW 9251   2.863   3.758   4.878
 3077SOL    HW1 9252   2.800   3.686   4.847
 3077SOL    HW2 9253   2.956   3.722   4.878
 3078SOL     OW 9254   2.632   5.054   4.025
 3078SOL    HW1 9255   2.586   4.967   4.042
 3078SOL    HW2 9256   2.723   5.051   4.066
 3079SOL     OW 9257   3.214   3.776   3.892
 3079SOL    HW1 9258   3.249   3.735   3.808
 3079SOL    HW2 9259   3.124   3.738   3.912
 3080SOL     OW 9260   3.162   4.177   4.415
 3080SOL    HW1 9261   3.103   4.257   4.419
 3080SOL    HW2 9262   3.177   4.142   4.508
 3081SOL     OW 9263   3.455   3.945   4.606
 3081SOL    HW1 9264   3.371   3.944   4.660
 3081SOL    HW2 9265   3.457   4.028   4.550
 3082SOL     OW 9266   1.901   4.801   4.024
 3082SOL    HW1 9267   2.000   4.790   4.015
 3082SOL    HW2 9268   1.861   4.715   4.056
 3083SOL     OW 9269   3.954   0.628   0.113
 3083SOL    HW1 9270   3.861   0.626   0.150
 3083SOL    HW2 9271   3.955   0.589   0.021
 3084SOL     OW 9272   3.949   0.275   0.996
 3084SOL    HW1 9273   3.984   0.258   1.088
 3084SOL    HW2 9274   3.861   0.230   0.984
 3085SOL     OW 9275   3.743   0.368   0.647
 3085SOL    HW1 9276   3.661   0.411   0.686
 3085SOL    HW2 9277   3.715   0.295   0.584
 3086SOL     OW 9278   4.293   1.275   1.165
 3086SOL    HW1 9279   4.200   1.268   1.128
 3086SOL    HW2 9280   4.304   1.364   1.209
 3087SOL     OW 9281   4.859   0.703   0.717
 3087SOL    HW1 9282   4.916   0.781   0.692
 3087SOL    HW2 9283   4.799   0.729   0.793
 3088SOL     OW 9284   4.492   1.144   1.023
 3088SOL    HW1 9285   4.414   1.161   1.083
 3088SOL    HW2 9286   4.526   1.231   0.987
 3089SOL     OW 9287   4.574   0.798   1.823
 3089SOL    HW1 9288   4.570   0.874   1.888
 3089SOL    HW2 9289   4.596   0.834   1.732
 3090SOL     OW 9290   4.409   1.012   0.665
 3090SOL    HW1 9291   4.478   0.996   0.735
 3090SOL    HW2 9292   4.336   1.069   0.703
 3091SOL     OW 9293   4.410   1.161   1.803
 3091SOL    HW1 9294   4.470   1.240   1.817
 3091SOL    HW2 9295   4.324   1.192   1.762
 3092SOL     OW 9296   4.059   1.435   1.061
 3092SOL    HW1 9297   3.981   1.404   1.008
 3092SOL    HW2 9298   4.117   1.493   1.004
 3093SOL     OW 9299   4.162   0.392   1.499
 3093SOL    HW1 9300   4.244   0.336   1.508
 3093SOL    HW2 9301   4.081   0.334   1.503
 3094SOL     OW 9302   3.955   1.713   0.483
 3094SOL    HW1 9303   3.989   1.790   0.537
 3094SOL    HW2 9304   3.999   1.713   0.393
 3095SOL     OW 9305   4.851   1.341   1.690
 3095SOL    HW1 9306   4.898   1.341   1.778
 3095SOL    HW2 9307   4.803   1.254   1.679
 3096SOL     OW 9308   3.954   1.434   0.538
 3096SOL    HW1 9309   3.928   1.530   0.538
 3096SOL    HW2 9310   3.883   1.380   0.583
 3097SOL     OW 9311   3.964   1.091   0.886
 3097SOL    HW1 9312   3.978   1.007   0.938
 3097SOL    HW2 9313   3.909   1.155   0.941
 3098SOL     OW 9314   4.344   1.786   1.439
 3098SOL    HW1 9315   4.252   1.769   1.474
 3098SOL    HW2 9316   4.372   1.878   1.465
 3099SOL     OW 9317   4.330   0.964   0.123
 3099SOL    HW1 9318   4.337   1.048   0.069
 3099SOL    HW2 9319   4.376   0.977   0.211
 3100SOL     OW 9320   3.846   0.643   0.563
 3100SOL    HW1 9321   3.801   0.555   0.580
 3100SOL    HW2 9322   3.845   0.697   0.647
 3101SOL     OW 9323   3.751   1.596   0.117
 3101SOL    HW1 9324   3.732   1.500   0.138
 3101SOL    HW2 9325   3.718   1.654   0.192
 3102SOL     OW 9326   3.837   0.737   1.597
 3102SOL    HW1 9327   3.925   0.724   1.642
 3102SOL    HW2 9328   3.824   0.834   1.575
 3103SOL     OW 9329   4.337   1.365   0.726
 3103SOL    HW1 9330   4.288   1.278   0.735
 3103SOL    HW2 9331   4.314   1.408   0.639
 3104SOL     OW 9332   4.533   0.004   0.502
 3104SOL    HW1 9333   4.573   0.095   0.493
 3104SOL    HW2 9334   4.433   0.012   0.508
 3105SOL     OW 9335   3.921   0.976   1.264
 3105SOL    HW1 9336   4.010   0.931   1.250
 3105SOL    HW2 9337   3.848   0.911   1.245
 3106SOL     OW 9338   4.911   1.792   1.616
 3106SOL    HW1 9339   4.935   1.852   1.540
 3106SOL    HW2 9340   4.918   1.697   1.586
 3107SOL     OW 9341   4.041   0.251   1.801
 3107SOL    HW1 9342   4.112   0.322   1.807
 3107SOL    HW2 9343   3.953   0.290   1.829
 3108SOL     OW 9344   4.322   0.729   0.270
 3108SOL    HW1 9345   4.346   0.798   0.202
 3108SOL    HW2 9346   4.244   0.762   0.324
 3109SOL     OW 9347   4.531   0.605   1.465
 3109SOL    HW1 9348   4.484   0.602   1.554
 3109SOL    HW2 9349   4.480   0.550   1.399
 3110SOL     OW 9350   4.697   0.890   1.572
 3110SOL    HW1 9351   4.743   0.806   1.543
 3110SOL    HW2 9352   4.641   0.924   1.497
 3111SOL     OW 9353   4.715   0.410   1.242
 3111SOL    HW1 9354   4.638   0.444   1.296
 3111SOL    HW2 9355   4.681   0.359   1.163
 3112SOL     OW 9356   4.765   0.701   0.429
 3112SOL    HW1 9357   4.791   0.697   0.525
 3112SOL    HW2 9358   4.680   0.650   0.415
 3113SOL     OW 9359   3.800   0.811   0.789
 3113SOL    HW1 9360   3.899   0.799   0.798
 3113SOL    HW2 9361   3.776   0.906   0.810
 3114SOL     OW 9362   3.854   1.821   1.571
 3114SOL    HW1 9363   3.844   1.806   1.670
 3114SOL    HW2 9364   3.768   1.857   1.535
 3115SOL     OW 9365   4.589   0.348   0.195
 3115SOL    HW1 9366   4.648   0.411   0.146
 3115SOL    HW2 9367   4.608   0.254   0.166
 3116SOL     OW 9368   4.274   0.196   0.885
 3116SOL    HW1 9369   4.269   0.191   0.985
 3116SOL    HW2 9370   4.276   0.292   0.856
 3117SOL     OW 9371   4.732   1.456   0.477
 3117SOL    HW1 9372   4.686   1.528   0.425
 3117SOL    HW2 9373   4.728   1.476   0.575
 3118SOL     OW 9374   4.075   1.801   0.853
 3118SOL    HW1 9375   4.125   1.715   0.859
 3118SOL    HW2 9376   4.140   1.878   0.850
 3119SOL     OW 9377   4.951   1.550   1.506
 3119SOL    HW1 9378   4.957   1.473   1.570
 3119SOL    HW2 9379   4.899   1.524   1.426
 3120SOL     OW 9380   4.045   0.943   0.242
 3120SOL    HW1 9381   4.127   0.982   0.200
 3120SOL    HW2 9382   4.018   0.861   0.193
 3121SOL     OW 9383   4.185   1.266   1.727
 3121SOL    HW1 9384   4.135   1.267   1.641
 3121SOL    HW2 9385   4.122   1.248   1.803
 3122SOL     OW 9386   4.835   1.776   0.237
 3122SOL    HW1 9387   4.775   1.714   0.287
 3122SOL    HW2 9388   4.866   1.732   0.152
 3123SOL     OW 9389   3.926   0.285   1.498
 3123SOL    HW1 9390   3.846   0.345   1.485
 3123SOL    HW2 9391   3.916   0.236   1.584
 3124SOL     OW 9392   4.188   1.743   0.323
 3124SOL    HW1 9393   4.221   1.782   0.409
 3124SOL    HW2 9394   4.264   1.736   0.258
 3125SOL     OW 9395   3.973   1.785   1.241
 3125SOL    HW1 9396   4.030   1.720   1.291
 3125SOL    HW2 9397   3.957   1.752   1.148
 3126SOL     OW 9398   4.664   1.698   0.904
 3126SOL    HW1 9399   4.744   1.641   0.925
 3126SOL    HW2 9400   4.615   1.658   0.827
 3127SOL     OW 9401   4.106   0.700   0.480
 3127SOL    HW1 9402   4.151   0.610   0.477
 3127SOL    HW2 9403   4.012   0.689   0.513
 3128SOL     OW 9404   4.338   0.122   0.117
 3128SOL    HW1 9405   4.436   0.100   0.124
 3128SOL    HW2 9406   4.307   0.105   0.024
 3129SOL     OW 9407   4.505   0.264   1.749
 3129SOL    HW1 9408   4.572   0.203   1.792
 3129SOL    HW2 9409   4.432   0.283   1.814
 3130SOL     OW 9410   4.612   1.514   1.195
 3130SOL    HW1 9411   4.589   1.489   1.101
 3130SOL    HW2 9412   4.673   1.445   1.234
 3131SOL     OW 9413   4.527   1.402   0.924
 3131SOL    HW1 9414   4.617   1.416   0.882
 3131SOL    HW2 9415   4.456   1.404   0.853
 3132SOL     OW 9416   4.646   0.503   0.899
 3132SOL    HW1 9417   4.621   0.494   0.803
 3132SOL    HW2 9418   4.694   0.421   0.930
 3133SOL     OW 9419   4.263   0.064   0.512
 3133SOL    HW1 9420   4.182   0.065   0.570
 3133SOL    HW2 9421   4.266   0.147   0.457
 3134SOL     OW 9422   4.021   0.035   0.171
 3134SOL    HW1 9423   4.070   0.119   0.150
 3134SOL    HW2 9424   4.083  -0.030   0.216
 3135SOL     OW 9425   4.659   0.236   0.480
 3135SOL    HW1 9426   4.611   0.277   0.402
 3135SOL    HW2 9427   4.758   0.234   0.461
 3136SOL     OW 9428   4.800   0.683   1.464
 3136SOL    HW1 9429   4.720   0.622   1.467
 3136SOL    HW2 9430   4.881   0.630   1.440
 3137SOL     OW 9431   4.951   1.570   0.793
 3137SOL    HW1 9432   4.972   1.644   0.728
 3137SOL    HW2 9433   5.019   1.570   0.866
 3138SOL     OW 9434   4.183   1.152   0.741
 3138SOL    HW1 9435   4.112   1.125   0.806
 3138SOL    HW2 9436   4.157   1.124   0.648
 3139SOL     OW 9437   4.995   1.797   0.591
 3139SOL    HW1 9438   5.039   1.861   0.527
 3139SOL    HW2 9439   4.945   1.849   0.661
 3140SOL     OW 9440   4.756   0.549   0.016
 3140SOL    HW1 9441   4.715   0.631  -0.023
 3140SOL    HW2 9442   4.820   0.575   0.089
 3141SOL     OW 9443   3.802   0.556   1.386
 3141SOL    HW1 9444   3.894   0.555   1.345
 3141SOL    HW2 9445   3.796   0.630   1.453
 3142SOL     OW 9446   4.285   0.222   1.147
 3142SOL    HW1 9447   4.323   0.138   1.184
 3142SOL    HW2 9448   4.197   0.241   1.191
 3143SOL     OW 9449   4.590   0.454   0.642
 3143SOL    HW1 9450   4.558   0.526   0.580
 3143SOL    HW2 9451   4.614   0.373   0.589
 3144SOL     OW 9452   4.741   0.039   0.753
 3144SOL    HW1 9453   4.669   0.044   0.684
 3144SOL    HW2 9454   4.717  -0.030   0.822
 3145SOL     OW 9455   4.212   1.385   0.174
 3145SOL    HW1 9456   4.125   1.370   0.221
 3145SOL    HW2 9457   4.195   1.411   0.079
 3146SOL     OW 9458   4.251   0.256   0.328
 3146SOL    HW1 9459   4.278   0.197   0.253
 3146SOL    HW2 9460   4.251   0.351   0.297
 3147SOL     OW 9461   4.788   1.347   1.340
 3147SOL    HW1 9462   4.708   1.324   1.395
 3147SOL    HW2 9463   4.871   1.321   1.389
 3148SOL     OW 9464   4.835   1.195   1.100
 3148SOL    HW1 9465   4.795   1.239   1.181
 3148SOL    HW2 9466   4.794   1.232   1.017
 3149SOL     OW 9467   4.639   0.089   1.402
 3149SOL    HW1 9468   4.664   0.069   1.307
 3149SOL    HW2 9469   4.711   0.145   1.444
 3150SOL     OW 9470   4.704   1.116   1.719
 3150SOL    HW1 9471   4.605   1.122   1.729
 3150SOL    HW2 9472   4.727   1.036   1.663
 3151SOL     OW 9473   4.429   1.050   0.368
 3151SOL    HW1 9474   4.415   1.057   0.467
 3151SOL    HW2 9475   4.513   0.999   0.350
 3152SOL     OW 9476   4.134   0.813   1.251
 3152SOL    HW1 9477   4.220   0.825   1.301
 3152SOL    HW2 9478   4.092   0.726   1.278
 3153SOL     OW 9479   3.788   1.564   1.331
 3153SOL    HW1 9480   3.742   1.646   1.297
 3153SOL    HW2 9481   3.886   1.583   1.340
 3154SOL     OW 9482   4.091   1.100   0.501
 3154SOL    HW1 9483   4.084   1.183   0.445
 3154SOL    HW2 9484   4.095   1.020   0.441
 3155SOL     OW 9485   4.290   0.537   0.865
 3155SOL    HW1 9486   4.302   0.603   0.791
 3155SOL    HW2 9487   4.336   0.571   0.948
 3156SOL     OW 9488   4.976   1.348   0.388
 3156SOL    HW1 9489   5.026   1.425   0.428
 3156SOL    HW2 9490   4.881   1.350   0.420
 3157SOL     OW 9491   4.078   1.510   1.329
 3157SOL    HW1 9492   4.057   1.466   1.242
 3157SOL    HW2 9493   4.175   1.536   1.332
 3158SOL     OW 9494   4.126   0.751   1.598
 3158SOL    HW1 9495   4.194   0.806   1.551
 3158SOL    HW2 9496   4.166   0.663   1.625
 3159SOL     OW 9497   4.737   0.105   1.770
 3159SOL    HW1 9498   4.743   0.190   1.718
 3159SOL    HW2 9499   4.769   0.029   1.713
 3160SOL     OW 9500   4.228   0.050   1.740
 3160SOL    HW1 9501   4.186  -0.007   1.670
 3160SOL    HW2 9502   4.162   0.119   1.772
 3161SOL     OW 9503   4.297   0.870   1.029
 3161SOL    HW1 9504   4.341   0.959   1.020
 3161SOL    HW2 9505   4.234   0.870   1.106
 3162SOL     OW 9506   5.084   0.862   1.045
 3162SOL    HW1 9507   5.009   0.862   0.979
 3162SOL    HW2 9508   5.121   0.770   1.054
 3163SOL     OW 9509   4.933   0.525   0.275
 3163SOL    HW1 9510   4.946   0.441   0.329
 3163SOL    HW2 9511   4.904   0.599   0.335
 3164SOL     OW 9512   4.031   0.213   1.231
 3164SOL    HW1 9513   4.008   0.250   1.321
 3164SOL    HW2 9514   4.001   0.118   1.225
 3165SOL     OW 9515   3.761   1.310   1.282
 3165SOL    HW1 9516   3.814   1.261   1.350
 3165SOL    HW2 9517   3.783   1.408   1.287
 3166SOL     OW 9518   4.456   0.634   1.064
 3166SOL    HW1 9519   4.515   0.608   0.988
 3166SOL    HW2 9520   4.428   0.730   1.053
 3167SOL     OW 9521   4.031   0.063   0.618
 3167SOL    HW1 9522   4.020   0.157   0.651
 3167SOL    HW2 9523   4.026   0.000   0.695
 3168SOL     OW 9524   5.346   0.367   0.374
 3168SOL    HW1 9525   5.348   0.291   0.438
 3168SOL    HW2 9526   5.298   0.444   0.414
 3169SOL     OW 9527   4.747   0.766   0.966
 3169SOL    HW1 9528   4.762   0.787   1.062
 3169SOL    HW2 9529   4.717   0.671   0.957
 3170SOL     OW 9530   4.704   1.573   1.700
 3170SOL    HW1 9531   4.684   1.617   1.612
 3170SOL    HW2 9532   4.743   1.482   1.684
 3171SOL     OW 9533   4.074   0.898   1.804
 3171SOL    HW1 9534   4.150   0.942   1.852
 3171SOL    HW2 9535   4.109   0.851   1.722
 3172SOL     OW 9536   4.792   1.333   0.849
 3172SOL    HW1 9537   4.799   1.249   0.794
 3172SOL    HW2 9538   4.854   1.402   0.813
 3173SOL     OW 9539   4.043   0.810   0.949
 3173SOL    HW1 9540   4.136   0.846   0.954
 3173SOL    HW2 9541   4.037   0.725   1.001
 3174SOL     OW 9542   4.063   0.509   1.006
 3174SOL    HW1 9543   4.011   0.426   0.989
 3174SOL    HW2 9544   4.140   0.514   0.942
 3175SOL     OW 9545   4.862   0.380   1.678
 3175SOL    HW1 9546   4.817   0.443   1.742
 3175SOL    HW2 9547   4.955   0.411   1.661
 3176SOL     OW 9548   4.884   0.207   1.477
 3176SOL    HW1 9549   4.884   0.271   1.554
 3176SOL    HW2 9550   4.912   0.255   1.394
 3177SOL     OW 9551   3.812   1.801   0.927
 3177SOL    HW1 9552   3.770   1.715   0.900
 3177SOL    HW2 9553   3.906   1.804   0.893
 3178SOL     OW 9554   4.228   1.568   0.910
 3178SOL    HW1 9555   4.294   1.642   0.919
 3178SOL    HW2 9556   4.272   1.489   0.868
 3179SOL     OW 9557   4.726   0.796   1.238
 3179SOL    HW1 9558   4.767   0.764   1.324
 3179SOL    HW2 9559   4.630   0.769   1.235
 3180SOL     OW 9560   3.764   0.544   1.114
 3180SOL    HW1 9561   3.849   0.511   1.073
 3180SOL    HW2 9562   3.777   0.559   1.212
 3181SOL     OW 9563   3.913   0.520   1.722
 3181SOL    HW1 9564   3.972   0.480   1.652
 3181SOL    HW2 9565   3.855   0.591   1.681
 3182SOL     OW 9566   4.539   0.572   0.325
 3182SOL    HW1 9567   4.546   0.483   0.279
 3182SOL    HW2 9568   4.445   0.606   0.317
 3183SOL     OW 9569   3.976   1.564   1.744
 3183SOL    HW1 9570   3.946   1.621   1.820
 3183SOL    HW2 9571   3.969   1.467   1.770
 3184SOL     OW 9572   4.395   0.464   1.269
 3184SOL    HW1 9573   4.361   0.375   1.239
 3184SOL    HW2 9574   4.421   0.518   1.189
 3185SOL     OW 9575   4.654   1.678   1.465
 3185SOL    HW1 9576   4.630   1.660   1.370
 3185SOL    HW2 9577   4.684   1.772   1.475
 3186SOL     OW 9578   4.197   0.500   0.191
 3186SOL    HW1 9579   4.258   0.580   0.195
 3186SOL    HW2 9580   4.102   0.531   0.198
 3187SOL     OW 9581   3.883   1.137   1.466
 3187SOL    HW1 9582   3.905   1.076   1.542
 3187SOL    HW2 9583   3.893   1.088   1.380
 3188SOL     OW 9584   5.071   1.059   1.234
 3188SOL    HW1 9585   5.095   0.996   1.160
 3188SOL    HW2 9586   4.981   1.099   1.216
 3189SOL     OW 9587   4.976   1.731   1.128
 3189SOL    HW1 9588   5.060   1.736   1.074
 3189SOL    HW2 9589   4.953   1.635   1.146
 3190SOL     OW 9590   3.807   1.258   1.022
 3190SOL    HW1 9591   3.802   1.257   1.122
 3190SOL    HW2 9592   3.724   1.217   0.984
 3191SOL     OW 9593   4.412   1.662   1.716
 3191SOL    HW1 9594   4.356   1.743   1.725
 3191SOL    HW2 9595   4.464   1.666   1.630
 3192SOL     OW 9596   4.627   0.086   0.133
 3192SOL    HW1 9597   4.678   0.087   0.047
 3192SOL    HW2 9598   4.683   0.044   0.204
 3193SOL     OW 9599   3.854   1.794   1.851
 3193SOL    HW1 9600   3.813   1.720   1.904
 3193SOL    HW2 9601   3.918   1.845   1.909
 3194SOL     OW 9602   4.554   1.273   1.422
 3194SOL    HW1 9603   4.549   1.306   1.517
 3194SOL    HW2 9604   4.468   1.292   1.376
 3195SOL     OW 9605   4.396   1.616   0.154
 3195SOL    HW1 9606   4.405   1.626   0.055
 3195SOL    HW2 9607   4.356   1.527   0.175
 3196SOL     OW 9608   3.987   0.326   0.720
 3196SOL    HW1 9609   3.908   0.377   0.686
 3196SOL    HW2 9610   3.978   0.311   0.818
 3197SOL     OW 9611   4.546   1.002   1.372
 3197SOL    HW1 9612   4.586   1.001   1.280
 3197SOL    HW2 9613   4.556   1.094   1.412
 3198SOL     OW 9614   4.640   0.910   0.291
 3198SOL    HW1 9615   4.703   0.948   0.223
 3198SOL    HW2 9616   4.680   0.827   0.330
 3199SOL     OW 9617   4.096   1.288   1.490
 3199SOL    HW1 9618   4.083   1.381   1.456
 3199SOL    HW2 9619   4.012   1.236   1.477
 3200SOL     OW 9620   4.763   1.098   0.696
 3200SOL    HW1 9621   4.693   1.051   0.750
 3200SOL    HW2 9622   4.822   1.030   0.653
 3201SOL     OW 9623   4.738   0.236   0.971
 3201SOL    HW1 9624   4.730   0.200   0.878
 3201SOL    HW2 9625   4.736   0.160   1.036
 3202SOL     OW 9626   4.314   1.487   0.491
 3202SOL    HW1 9627   4.356   1.429   0.421
 3202SOL    HW2 9628   4.270   1.566   0.447
 3203SOL     OW 9629   3.979   1.348   0.290
 3203SOL    HW1 9630   3.883   1.349   0.263
 3203SOL    HW2 9631   3.991   1.401   0.374
 3204SOL     OW 9632   3.829   1.013   1.726
 3204SOL    HW1 9633   3.752   0.980   1.780
 3204SOL    HW2 9634   3.914   0.983   1.768
 3205SOL     OW 9635   4.396   0.203   1.489
 3205SOL    HW1 9636   4.486   0.187   1.449
 3205SOL    HW2 9637   4.404   0.208   1.588
 3206SOL     OW 9638   3.796   0.166   0.318
 3206SOL    HW1 9639   3.779   0.249   0.264
 3206SOL    HW2 9640   3.886   0.129   0.296
 3207SOL     OW 9641   4.337   0.842   1.431
 3207SOL    HW1 9642   4.393   0.923   1.414
 3207SOL    HW2 9643   4.396   0.762   1.434
 3208SOL     OW 9644   4.440   0.565   1.708
 3208SOL    HW1 9645   4.459   0.630   1.782
 3208SOL    HW2 9646   4.500   0.485   1.717
 3209SOL     OW 9647   4.114   1.741   1.560
 3209SOL    HW1 9648   4.023   1.782   1.558
 3209SOL    HW2 9649   4.107   1.647   1.592
 3210SOL     OW 9650   4.318   0.745   0.652
 3210SOL    HW1 9651   4.368   0.830   0.633
 3210SOL    HW2 9652   4.230   0.747   0.604
 3211SOL     OW 9653   4.583   1.374   0.016
 3211SOL    HW1 9654   4.537   1.389   0.104
 3211SOL    HW2 9655   4.627   1.459  -0.014
 3212SOL     OW 9656   4.385   1.790   0.953
 3212SOL    HW1 9657   4.339   1.878   0.940
 3212SOL    HW2 9658   4.484   1.802   0.946
 3213SOL     OW 9659   4.583   0.956   0.861
 3213SOL    HW1 9660   4.637   0.887   0.909
 3213SOL    HW2 9661   4.551   1.025   0.927
 3214SOL     OW 9662   4.807   0.984   0.087
 3214SOL    HW1 9663   4.784   1.037   0.005
 3214SOL    HW2 9664   4.888   0.928   0.068
 3215SOL     OW 9665   3.945   1.314   1.844
 3215SOL    HW1 9666   3.880   1.241   1.823
 3215SOL    HW2 9667   3.949   1.328   1.942
 3216SOL     OW 9668   3.803   1.240   0.653
 3216SOL    HW1 9669   3.802   1.193   0.741
 3216SOL    HW2 9670   3.885   1.212   0.602
 3217SOL     OW 9671   4.396   1.391   1.624
 3217SOL    HW1 9672   4.318   1.341   1.662
 3217SOL    HW2 9673   4.393   1.486   1.655
 3218SOL     OW 9674   4.152   0.424   0.520
 3218SOL    HW1 9675   4.182   0.352   0.458
 3218SOL    HW2 9676   4.113   0.384   0.603
 3219SOL     OW 9677   4.041   0.547   1.280
 3219SOL    HW1 9678   4.079   0.488   1.352
 3219SOL    HW2 9679   4.081   0.521   1.192
 3220SOL     OW 9680   4.536   1.586   0.687
 3220SOL    HW1 9681   4.568   1.596   0.593
 3220SOL    HW2 9682   4.457   1.524   0.689
 3221SOL     OW 9683   4.725   0.034   1.154
 3221SOL    HW1 9684   4.662  -0.038   1.123
 3221SOL    HW2 9685   4.818  -0.002   1.154
 3222SOL     OW 9686   4.494   1.330   0.301
 3222SOL    HW1 9687   4.448   1.243   0.318
 3222SOL    HW2 9688   4.585   1.327   0.342
 3223SOL     OW 9689   4.342   1.567   1.284
 3223SOL    HW1 9690   4.337   1.649   1.341
 3223SOL    HW2 9691   4.431   1.564   1.239
 3224SOL     OW 9692   3.763   1.077   0.300
 3224SOL    HW1 9693   3.862   1.066   0.291
 3224SOL    HW2 9694   3.723   0.991   0.332
 3225SOL     OW 9695   4.599   1.646   0.337
 3225SOL    HW1 9696   4.522   1.611   0.283
 3225SOL    HW2 9697   4.567   1.717   0.399
 3226SOL     OW 9698   3.954   0.628   1.975
 3226SOL    HW1 9699   3.861   0.626   2.012
 3226SOL    HW2 9700   3.955   0.589   1.883
 3227SOL     OW 9701   3.949   0.275   2.858
 3227SOL    HW1 9702   3.984   0.258   2.950
 3227SOL    HW2 9703   3.861   0.230   2.846
 3228SOL     OW 9704   3.743   0.368   2.509
 3228SOL    HW1 9705   3.661   0.411   2.548
 3228SOL    HW2 9706   3.715   0.295   2.446
 3229SOL     OW 9707   4.293   1.275   3.027
 3229SOL    HW1 9708   4.200   1.268   2.990
 3229SOL    HW2 9709   4.304   1.364   3.071
 3230SOL     OW 9710   4.859   0.703   2.579
 3230SOL    HW1 9711   4.916   0.781   2.554
 3230SOL    HW2 9712   4.799   0.729   2.655
 3231SOL     OW 9713   4.492   1.144   2.885
 3231SOL    HW1 9714   4.414   1.161   2.945
 3231SOL    HW2 9715   4.526   1.231   2.849
 3232SOL     OW 9716   4.574   0.798   3.685
 3232SOL    HW1 9717   4.570   0.874   3.750
 3232SOL    HW2 9718   4.596   0.834   3.594
 3233SOL     OW 9719   4.409   1.012   2.527
 3233SOL    HW1 9720   4.478   0.996   2.597
 3233SOL    HW2 9721   4.336   1.069   2.565
 3234SOL     OW 9722   4.410   1.161   3.665
 3234SOL    HW1 9723   4.470   1.240   3.679
 3234SOL    HW2 9724   4.324   1.192   3.624
 3235SOL     OW 9725   4.059   1.435   2.923
 3235SOL    HW1 9726   3.981   1.404   2.870
 3235SOL    HW2 9727   4.117   1.493   2.866
 3236SOL     OW 9728   4.162   0.392   3.361
 3236SOL    HW1 9729   4.244   0.336   3.370
 3236SOL    HW2 9730   4.081   0.334   3.365
 3237SOL     OW 9731   3.955   1.713   2.345
 3237SOL    HW1 9732   3.989   1.790   2.399
 3237SOL    HW2 9733   3.999   1.713   2.255
 3238SOL     OW 9734   4.851   1.341   3.552
 3238SOL    HW1 9735   4.898   1.341   3.640
 3238SOL    HW2 9736   4.803   1.254   3.541
 3239SOL     OW 9737   3.954   1.434   2.400
 3239SOL    HW1 9738   3.928   1.530   2.400
 3239SOL    HW2 9739   3.883   1.380   2.445
 3240SOL     OW 9740   3.964   1.091   2.748
 3240SOL    HW1 9741   3.978   1.007   2.800
 3240SOL    HW2 9742   3.909   1.155   2.803
 3241SOL     OW 9743   4.344   1.786   3.301
 3241SOL    HW1 9744   4.252   1.769   3.336
 3241SOL    HW2 9745   4.372   1.878   3.327
 3242SOL     OW 9746   4.330   0.964   1.985
 3242SOL    HW1 9747   4.337   1.048   1.931
 3242SOL    HW2 9748   4.376   0.977   2.073
 3243SOL     OW 9749   3.846   0.643   2.425
 3243SOL    HW1 9750   3.801   0.555   2.442
 3243SOL    HW2 9751   3.845   0.697   2.509
 3244SOL     OW 9752   3.751   1.596   1.979
 3244SOL    HW1 9753   3.732   1.500   2.000
 3244SOL    HW2 9754   3.718   1.654   2.054
 3245SOL     OW 9755   3.837   0.737   3.459
 3245SOL    HW1 9756   3.925   0.724   3.504
 3245SOL    HW2 9757   3.824   0.834   3.437
 3246SOL     OW 9758   4.337   1.365   2.588
 3246SOL    HW1 9759   4.288   1.278   2.597
 3246SOL    HW2 9760   4.314   1.408   2.501
 3247SOL     OW 9761   4.533   0.004   2.364
 3247SOL    HW1 9762   4.573   0.095   2.355
 3247SOL    HW2 9763   4.433   0.012   2.370
 3248SOL     OW 9764   3.921   0.976   3.126
 3248SOL    HW1 9765   4.010   0.931   3.112
 3248SOL    HW2 9766   3.848   0.911   3.107
 3249SOL     OW 9767   4.911   1.792   3.478
 3249SOL    HW1 9768   4.935   1.852   3.402
 3249SOL    HW2 9769   4.918   1.697   3.448
 3250SOL     OW 9770   4.041   0.251   3.663
 3250SOL    HW1 9771   4.112   0.322   3.669
 3250SOL    HW2 9772   3.953   0.290   3.691
 3251SOL     OW 9773   4.322   0.729   2.132
 3251SOL    HW1 9774   4.346   0.798   2.064
 3251SOL    HW2 9775   4.244   0.762   2.186
 3252SOL     OW 9776   4.531   0.605   3.327
 3252SOL    HW1 9777   4.484   0.602   3.416
 3252SOL    HW2 9778   4.480   0.550   3.261
 3253SOL     OW 9779   4.697   0.890   3.434
 3253SOL    HW1 9780   4.743   0.806   3.405
 3253SOL    HW2 9781   4.641   0.924   3.359
 3254SOL     OW 9782   4.715   0.410   3.104
 3254SOL    HW1 9783   4.638   0.444   3.158
 3254SOL    HW2 9784   4.681   0.359   3.025
 3255SOL     OW 9785   4.765   0.701   2.291
 3255SOL    HW1 9786   4.791   0.697   2.387
 3255SOL    HW2 9787   4.680   0.650   2.277
 3256SOL     OW 9788   3.800   0.811   2.651
 3256SOL    HW1 9789   3.899   0.799   2.660
 3256SOL    HW2 9790   3.776   0.906   2.672
 3257SOL     OW 9791   3.854   1.821   3.433
 3257SOL    HW1 9792   3.844   1.806   3.532
 3257SOL    HW2 9793   3.768   1.857   3.397
 3258SOL     OW 9794   4.589   0.348   2.057
 3258SOL    HW1 9795   4.648   0.411   2.008
 3258SOL    HW2 9796   4.608   0.254   2.028
 3259SOL     OW 9797   4.274   0.196   2.747
 3259SOL    HW1 9798   4.269   0.191   2.847
 3259SOL    HW2 9799   4.276   0.292   2.718
 3260SOL     OW 9800   4.732   1.456   2.339
 3260SOL    HW1 9801   4.686   1.528   2.287
 3260SOL    HW2 9802   4.728   1.476   2.437
 3261SOL     OW 9803   4.075   1.801   2.715
 3261SOL    HW1 9804   4.125   1.715   2.721
 3261SOL    HW2 9805   4.140   1.878   2.712
 3262SOL     OW 9806   4.951   1.550   3.368
 3262SOL    HW1 9807   4.957   1.473   3.432
 3262SOL    HW2 9808   4.899   1.524   3.288
 3263SOL     OW 9809   4.045   0.943   2.104
 3263SOL    HW1 9810   4.127   0.982   2.062
 3263SOL    HW2 9811   4.018   0.861   2.055
 3264SOL     OW 9812   4.185   1.266   3.589
 3264SOL    HW1 9813   4.135   1.267   3.503
 3264SOL    HW2 9814   4.122   1.248   3.665
 3265SOL     OW 9815   4.835   1.776   2.099
 3265SOL    HW1 9816   4.775   1.714   2.149
 3265SOL    HW2 9817   4.866   1.732   2.014
 3266SOL     OW 9818   3.926   0.285   3.360
 3266SOL    HW1 9819   3.846   0.345   3.347
 3266SOL    HW2 9820   3.916   0.236   3.446
 3267SOL     OW 9821   4.188   1.743   2.185
 3267SOL    HW1 9822   4.221   1.782   2.271
 3267SOL    HW2 9823   4.264   1.736   2.120
 3268SOL     OW 9824   3.973   1.785   3.103
 3268SOL    HW1 9825   4.030   1.720   3.153
 3268SOL    HW2 9826   3.957   1.752   3.010
 3269SOL     OW 9827   4.664   1.698   2.766
 3269SOL    HW1 9828   4.744   1.641   2.787
 3269SOL    HW2 9829   4.615   1.658   2.689
 3270SOL     OW 9830   4.106   0.700   2.342
 3270SOL    HW1 9831   4.151   0.610   2.339
 3270SOL    HW2 9832   4.012   0.689   2.375
 3271SOL     OW 9833   4.338   0.122   1.979
 3271SOL    HW1 9834   4.436   0.100   1.986
 3271SOL    HW2 9835   4.307   0.105   1.886
 3272SOL     OW 9836   4.505   0.264   3.611
 3272SOL    HW1 9837   4.572   0.203   3.654
 3272SOL    HW2 9838   4.432   0.283   3.676
 3273SOL     OW 9839   4.612   1.514   3.057
 3273SOL    HW1 9840   4.589   1.489   2.963
 3273SOL    HW2 9841   4.673   1.445   3.096
 3274SOL     OW 9842   4.527   1.402   2.786
 3274SOL    HW1 9843   4.617   1.416   2.744
 3274SOL    HW2 9844   4.456   1.404   2.715
 3275SOL     OW 9845   4.646   0.503   2.761
 3275SOL    HW1 9846   4.621   0.494   2.665
 3275SOL    HW2 9847   4.694   0.421   2.792
 3276SOL     OW 9848   4.263   0.064   2.374
 3276SOL    HW1 9849   4.182   0.065   2.432
 3276SOL    HW2 9850   4.266   0.147   2.319
 3277SOL     OW 9851   4.021   0.035   2.033
 3277SOL    HW1 9852   4.070   0.119   2.012
 3277SOL    HW2 9853   4.083  -0.030   2.078
 3278SOL     OW 9854   4.659   0.236   2.342
 3278SOL    HW1 9855   4.611   0.277   2.264
 3278SOL    HW2 9856   4.758   0.234   2.323
 3279SOL     OW 9857   4.800   0.683   3.326
 3279SOL    HW1 9858   4.720   0.622   3.329
 3279SOL    HW2 9859   4.881   0.630   3.302
 3280SOL     OW 9860   4.951   1.570   2.655
 3280SOL    HW1 9861   4.972   1.644   2.590
 3280SOL    HW2 9862   5.019   1.570   2.728
 3281SOL     OW 9863   4.183   1.152   2.603
 3281SOL    HW1 9864   4.112   1.125   2.668
 3281SOL    HW2 9865   4.157   1.124   2.510
 3282SOL     OW 9866   4.995   1.797   2.453
 3282SOL    HW1 9867   5.039   1.861   2.389
 3282SOL    HW2 9868   4.945   1.849   2.523
 3283SOL     OW 9869   4.756   0.549   1.878
 3283SOL    HW1 9870   4.715   0.631   1.839
 3283SOL    HW2 9871   4.820   0.575   1.951
 3284SOL     OW 9872   3.802   0.556   3.248
 3284SOL    HW1 9873   3.894   0.555   3.207
 3284SOL    HW2 9874   3.796   0.630   3.315
 3285SOL     OW 9875   4.285   0.222   3.009
 3285SOL    HW1 9876   4.323   0.138   3.046
 3285SOL    HW2 9877   4.197   0.241   3.053
 3286SOL     OW 9878   4.590   0.454   2.504
 3286SOL    HW1 9879   4.558   0.526   2.442
 3286SOL    HW2 9880   4.614   0.373   2.451
 3287SOL     OW 9881   4.741   0.039   2.615
 3287SOL    HW1 9882   4.669   0.044   2.546
 3287SOL    HW2 9883   4.717  -0.030   2.684
 3288SOL     OW 9884   4.212   1.385   2.036
 3288SOL    HW1 9885   4.125   1.370   2.083
 3288SOL    HW2 9886   4.195   1.411   1.941
 3289SOL     OW 9887   4.251   0.256   2.190
 3289SOL    HW1 9888   4.278   0.197   2.115
 3289SOL    HW2 9889   4.251   0.351   2.159
 3290SOL     OW 9890   4.788   1.347   3.202
 3290SOL    HW1 9891   4.708   1.324   3.257
 3290SOL    HW2 9892   4.871   1.321   3.251
 3291SOL     OW 9893   4.835   1.195   2.962
 3291SOL    HW1 9894   4.795   1.239   3.043
 3291SOL    HW2 9895   4.794   1.232   2.879
 3292SOL     OW 9896   4.639   0.089   3.264
 3292SOL    HW1 9897   4.664   0.069   3.169
 3292SOL    HW2 9898   4.711   0.145   3.306
 3293SOL     OW 9899   4.704   1.116   3.581
 3293SOL    HW1 9900   4.605   1.122   3.591
 3293SOL    HW2 9901   4.727   1.036   3.525
 3294SOL     OW 9902   4.429   1.050   2.230
 3294SOL    HW1 9903   4.415   1.057   2.329
 3294SOL    HW2 9904   4.513   0.999   2.212
 3295SOL     OW 9905   4.134   0.813   3.113
 3295SOL    HW1 9906   4.220   0.825   3.163
 3295SOL    HW2 9907   4.092   0.726   3.140
 3296SOL     OW 9908   3.788   1.564   3.193
 3296SOL    HW1 9909   3.742   1.646   3.159
 3296SOL    HW2 9910   3.886   1.583   3.202
 3297SOL     OW 9911   4.091   1.100   2.363
 3297SOL    HW1 9912   4.084   1.183   2.307
 3297SOL    HW2 9913   4.095   1.020   2.303
 3298SOL     OW 9914   4.290   0.537   2.727
 3298SOL    HW1 9915   4.302   0.603   2.653
 3298SOL    HW2 9916   4.336   0.571   2.810
 3299SOL     OW 9917   4.976   1.348   2.250
 3299SOL    HW1 9918   5.026   1.425   2.290
 3299SOL    HW2 9919   4.881   1.350   2.282
 3300SOL     OW 9920   4.078   1.510   3.191
 3300SOL    HW1 9921   4.057   1.466   3.104
 3300SOL    HW2 9922   4.175   1.536   3.194
 3301SOL     OW 9923   4.126   0.751   3.460
 3301SOL    HW1 9924   4.194   0.806   3.413
 3301SOL    HW2 9925   4.166   0.663   3.487
 3302SOL     OW 9926   4.737   0.105   3.632
 3302SOL    HW1 9927   4.743   0.190   3.580
 3302SOL    HW2 9928   4.769   0.029   3.575
 3303SOL     OW 9929   4.228   0.050   3.602
 3303SOL    HW1 9930   4.186  -0.007   3.532
 3303SOL    HW2 9931   4.162   0.119   3.634
 3304SOL     OW 9932   4.297   0.870   2.891
 3304SOL    HW1 9933   4.341   0.959   2.882
 3304SOL    HW2 9934   4.234   0.870   2.968
 3305SOL     OW 9935   5.084   0.862   2.907
 3305SOL    HW1 9936   5.009   0.862   2.841
 3305SOL    HW2 9937   5.121   0.770   2.916
 3306SOL     OW 9938   4.933   0.525   2.137
 3306SOL    HW1 9939   4.946   0.441   2.191
 3306SOL    HW2 9940   4.904   0.599   2.197
 3307SOL     OW 9941   4.031   0.213   3.093
 3307SOL    HW1 9942   4.008   0.250   3.183
 3307SOL    HW2 9943   4.001   0.118   3.087
 3308SOL     OW 9944   3.761   1.310   3.144
 3308SOL    HW1 9945   3.814   1.261   3.212
 3308SOL    HW2 9946   3.783   1.408   3.149
 3309SOL     OW 9947   4.456   0.634   2.926
 3309SOL    HW1 9948   4.515   0.608   2.850
 3309SOL    HW2 9949   4.428   0.730   2.915
 3310SOL     OW 9950   4.031   0.063   2.480
 3310SOL    HW1 9951   4.020   0.157   2.513
 3310SOL    HW2 9952   4.026   0.000   2.557
 3311SOL     OW 9953   5.346   0.367   2.236
 3311SOL    HW1 9954   5.348   0.291   2.300
 3311SOL    HW2 9955   5.298   0.444   2.276
 3312SOL     OW 9956   4.747   0.766   2.828
 3312SOL    HW1 9957   4.762   0.787   2.924
 3312SOL    HW2 9958   4.717   0.671   2.819
 3313SOL     OW 9959   4.704   1.573   3.562
 3313SOL    HW1 9960   4.684   1.617   3.474
 3313SOL    HW2 9961   4.743   1.482   3.546
 3314SOL     OW 9962   4.074   0.898   3.666
 3314SOL    HW1 9963   4.150   0.942   3.714
 3314SOL    HW2 9964   4.109   0.851   3.584
 3315SOL     OW 9965   5.264   0.274   1.987
 3315SOL    HW1 9966   5.203   0.199   2.010
 3315SOL    HW2 9967   5.286   0.326   2.070
 3316SOL     OW 9968   4.792   1.333   2.711
 3316SOL    HW1 9969   4.799   1.249   2.656
 3316SOL    HW2 9970   4.854   1.402   2.675
 3317SOL     OW 9971   4.043   0.810   2.811
 3317SOL    HW1 9972   4.136   0.846   2.816
 3317SOL    HW2 9973   4.037   0.725   2.863
 3318SOL     OW 9974   4.063   0.509   2.868
 3318SOL    HW1 9975   4.011   0.426   2.851
 3318SOL    HW2 9976   4.140   0.514   2.804
 3319SOL     OW 9977   4.862   0.380   3.540
 3319SOL    HW1 9978   4.817   0.443   3.604
 3319SOL    HW2 9979   4.955   0.411   3.523
 3320SOL     OW 9980   4.884   0.207   3.339
 3320SOL    HW1 9981   4.884   0.271   3.416
 3320SOL    HW2 9982   4.912   0.255   3.256
 3321SOL     OW 9983   3.732   1.326   2.062
 3321SOL    HW1 9984   3.639   1.347   2.031
 3321SOL    HW2 9985   3.742   1.227   2.075
 3322SOL     OW 9986   3.812   1.801   2.789
 3322SOL    HW1 9987   3.770   1.715   2.762
 3322SOL    HW2 9988   3.906   1.804   2.755
 3323SOL     OW 9989   4.228   1.568   2.772
 3323SOL    HW1 9990   4.294   1.642   2.781
 3323SOL    HW2 9991   4.272   1.489   2.730
 3324SOL     OW 9992   4.726   0.796   3.100
 3324SOL    HW1 9993   4.767   0.764   3.186
 3324SOL    HW2 9994   4.630   0.769   3.097
 3325SOL     OW 9995   3.764   0.544   2.976
 3325SOL    HW1 9996   3.849   0.511   2.935
 3325SOL    HW2 9997   3.777   0.559   3.074
 3326SOL     OW 9998   3.913   0.520   3.584
 3326SOL    HW1 9999   3.972   0.480   3.514
 3326SOL    HW210000   3.855   0.591   3.543
 3327SOL     OW10001   4.539   0.572   2.187
 3327SOL    HW110002   4.546   0.483   2.141
 3327SOL    HW210003   4.445   0.606   2.179
 3328SOL     OW10004   3.976   1.564   3.606
 3328SOL    HW110005   3.946   1.621   3.682
 3328SOL    HW210006   3.969   1.467   3.632
 3329SOL     OW10007   4.395   0.464   3.131
 3329SOL    HW110008   4.361   0.375   3.101
 3329SOL    HW210009   4.421   0.518   3.051
 3330SOL     OW10010   4.654   1.678   3.327
 3330SOL    HW110011   4.630   1.660   3.232
 3330SOL    HW210012   4.684   1.772   3.337
 3331SOL     OW10013   4.197   0.500   2.053
 3331SOL    HW110014   4.258   0.580   2.057
 3331SOL    HW210015   4.102   0.531   2.060
 3332SOL     OW10016   3.883   1.137   3.328
 3332SOL    HW110017   3.905   1.076   3.404
 3332SOL    HW210018   3.893   1.088   3.242
 3333SOL     OW10019   5.071   1.059   3.096
 3333SOL    HW110020   5.095   0.996   3.022
 3333SOL    HW210021   4.981   1.099   3.078
 3334SOL     OW10022   4.976   1.731   2.990
 3334SOL    HW110023   5.060   1.736   2.936
 3334SOL    HW210024   4.953   1.635   3.008
 3335SOL     OW10025   3.807   1.258   2.884
 3335SOL    HW110026   3.802   1.257   2.984
 3335SOL    HW210027   3.724   1.217   2.846
 3336SOL     OW10028   4.412   1.662   3.578
 3336SOL    HW110029   4.356   1.743   3.587
 3336SOL    HW210030   4.464   1.666   3.492
 3337SOL     OW10031   3.854   1.794   3.713
 3337SOL    HW110032   3.813   1.720   3.766
 3337SOL    HW210033   3.918   1.845   3.771
 3338SOL     OW10034   4.554   1.273   3.284
 3338SOL    HW110035   4.549   1.306   3.379
 3338SOL    HW210036   4.468   1.292   3.238
 3339SOL     OW10037   4.396   1.616   2.016
 3339SOL    HW110038   4.405   1.626   1.917
 3339SOL    HW210039   4.356   1.527   2.037
 3340SOL     OW10040   3.987   0.326   2.582
 3340SOL    HW110041   3.908   0.377   2.548
 3340SOL    HW210042   3.978   0.311   2.680
 3341SOL     OW10043   4.546   1.002   3.234
 3341SOL    HW110044   4.586   1.001   3.142
 3341SOL    HW210045   4.556   1.094   3.274
 3342SOL     OW10046   4.640   0.910   2.153
 3342SOL    HW110047   4.703   0.948   2.085
 3342SOL    HW210048   4.680   0.827   2.192
 3343SOL     OW10049   4.096   1.288   3.352
 3343SOL    HW110050   4.083   1.381   3.318
 3343SOL    HW210051   4.012   1.236   3.339
 3344SOL     OW10052   4.763   1.098   2.558
 3344SOL    HW110053   4.693   1.051   2.612
 3344SOL    HW210054   4.822   1.030   2.515
 3345SOL     OW10055   4.738   0.236   2.833
 3345SOL    HW110056   4.730   0.200   2.740
 3345SOL    HW210057   4.736   0.160   2.898
 3346SOL     OW10058   4.314   1.487   2.353
 3346SOL    HW110059   4.356   1.429   2.283
 3346SOL    HW210060   4.270   1.566   2.309
 3347SOL     OW10061   3.979   1.348   2.152
 3347SOL    HW110062   3.883   1.349   2.125
 3347SOL    HW210063   3.991   1.401   2.236
 3348SOL     OW10064   3.829   1.013   3.588
 3348SOL    HW110065   3.752   0.980   3.642
 3348SOL    HW210066   3.914   0.983   3.630
 3349SOL     OW10067   4.396   0.203   3.351
 3349SOL    HW110068   4.486   0.187   3.311
 3349SOL    HW210069   4.404   0.208   3.450
 3350SOL     OW10070   3.799   0.345   1.895
 3350SOL    HW110071   3.707   0.317   1.866
 3350SOL    HW210072   3.830   0.422   1.839
 3351SOL     OW10073   3.796   0.166   2.180
 3351SOL    HW110074   3.779   0.249   2.126
 3351SOL    HW210075   3.886   0.129   2.158
 3352SOL     OW10076   4.337   0.842   3.293
 3352SOL    HW110077   4.393   0.923   3.276
 3352SOL    HW210078   4.396   0.762   3.296
 3353SOL     OW10079   4.440   0.565   3.570
 3353SOL    HW110080   4.459   0.630   3.644
 3353SOL    HW210081   4.500   0.485   3.579
 3354SOL     OW10082   4.114   1.741   3.422
 3354SOL    HW110083   4.023   1.782   3.420
 3354SOL    HW210084   4.107   1.647   3.454
 3355SOL     OW10085   4.318   0.745   2.514
 3355SOL    HW110086   4.368   0.830   2.495
 3355SOL    HW210087   4.230   0.747   2.466
 3356SOL     OW10088   4.583   1.374   1.878
 3356SOL    HW110089   4.537   1.389   1.966
 3356SOL    HW210090   4.627   1.459   1.848
 3357SOL     OW10091   4.385   1.790   2.815
 3357SOL    HW110092   4.339   1.878   2.802
 3357SOL    HW210093   4.484   1.802   2.808
 3358SOL     OW10094   4.583   0.956   2.723
 3358SOL    HW110095   4.637   0.887   2.771
 3358SOL    HW210096   4.551   1.025   2.789
 3359SOL     OW10097   4.807   0.984   1.949
 3359SOL    HW110098   4.784   1.037   1.867
 3359SOL    HW210099   4.888   0.928   1.930
 3360SOL     OW10100   3.945   1.314   3.706
 3360SOL    HW110101   3.880   1.241   3.685
 3360SOL    HW210102   3.949   1.328   3.804
 3361SOL     OW10103   3.803   1.240   2.515
 3361SOL    HW110104   3.802   1.193   2.603
 3361SOL    HW210105   3.885   1.212   2.464
 3362SOL     OW10106   4.396   1.391   3.486
 3362SOL    HW110107   4.318   1.341   3.524
 3362SOL    HW210108   4.393   1.486   3.517
 3363SOL     OW10109   4.152   0.424   2.382
 3363SOL    HW110110   4.182   0.352   2.320
 3363SOL    HW210111   4.113   0.384   2.465
 3364SOL     OW10112   4.041   0.547   3.142
 3364SOL    HW110113   4.079   0.488   3.214
 3364SOL    HW210114   4.081   0.521   3.054
 3365SOL     OW10115   4.536   1.586   2.549
 3365SOL    HW110116   4.568   1.596   2.455
 3365SOL    HW210117   4.457   1.524   2.551
 3366SOL     OW10118   4.725   0.034   3.016
 3366SOL    HW110119   4.662  -0.038   2.985
 3366SOL    HW210120   4.818  -0.002   3.016
 3367SOL     OW10121   4.494   1.330   2.163
 3367SOL    HW110122   4.448   1.243   2.180
 3367SOL    HW210123   4.585   1.327   2.204
 3368SOL     OW10124   4.342   1.567   3.146
 3368SOL    HW110125   4.337   1.649   3.203
 3368SOL    HW210126   4.431   1.564   3.101
 3369SOL     OW10127   3.763   1.077   2.162
 3369SOL    HW110128   3.862   1.066   2.153
 3369SOL    HW210129   3.723   0.991   2.194
 3370SOL     OW10130   4.599   1.646   2.199
 3370SOL    HW110131   4.522   1.611   2.145
 3370SOL    HW210132   4.567   1.717   2.261
 3371SOL     OW10133   3.954   0.628   3.837
 3371SOL    HW110134   3.861   0.626   3.874
 3371SOL    HW210135   3.955   0.589   3.745
 3372SOL     OW10136   3.949   0.275   4.720
 3372SOL    HW110137   3.984   0.258   4.812
 3372SOL    HW210138   3.861   0.230   4.708
 3373SOL     OW10139   3.743   0.368   4.371
 3373SOL    HW110140   3.661   0.411   4.410
 3373SOL    HW210141   3.715   0.295   4.308
 3374SOL     OW10142   4.293   1.275   4.889
 3374SOL    HW110143   4.200   1.268   4.852
 3374SOL    HW210144   4.304   1.364   4.933
 3375SOL     OW10145   4.859   0.703   4.441
 3375SOL    HW110146   4.916   0.781   4.416
 3375SOL    HW210147   4.799   0.729   4.517
 3376SOL     OW10148   4.492   1.144   4.747
 3376SOL    HW110149   4.414   1.161   4.807
 3376SOL    HW210150   4.526   1.231   4.711
 3377SOL     OW10151   4.409   1.012   4.389
 3377SOL    HW110152   4.478   0.996   4.459
 3377SOL    HW210153   4.336   1.069   4.427
 3378SOL     OW10154   4.059   1.435   4.785
 3378SOL    HW110155   3.981   1.404   4.732
 3378SOL    HW210156   4.117   1.493   4.728
 3379SOL     OW10157   3.955   1.713   4.207
 3379SOL    HW110158   3.989   1.790   4.261
 3379SOL    HW210159   3.999   1.713   4.117
 3380SOL     OW10160   3.954   1.434   4.262
 3380SOL    HW110161   3.928   1.530   4.262
 3380SOL    HW210162   3.883   1.380   4.307
 3381SOL     OW10163   3.964   1.091   4.610
 3381SOL    HW110164   3.978   1.007   4.662
 3381SOL    HW210165   3.909   1.155   4.665
 3382SOL     OW10166   4.330   0.964   3.847
 3382SOL    HW110167   4.337   1.048   3.793
 3382SOL    HW210168   4.376   0.977   3.935
 3383SOL     OW10169   3.846   0.643   4.287
 3383SOL    HW110170   3.801   0.555   4.304
 3383SOL    HW210171   3.845   0.697   4.371
 3384SOL     OW10172   3.751   1.596   3.841
 3384SOL    HW110173   3.732   1.500   3.862
 3384SOL    HW210174   3.718   1.654   3.916
 3385SOL     OW10175   3.837   0.737   5.321
 3385SOL    HW110176   3.925   0.724   5.366
 3385SOL    HW210177   3.824   0.834   5.299
 3386SOL     OW10178   4.337   1.365   4.450
 3386SOL    HW110179   4.288   1.278   4.459
 3386SOL    HW210180   4.314   1.408   4.363
 3387SOL     OW10181   4.533   0.004   4.226
 3387SOL    HW110182   4.573   0.095   4.217
 3387SOL    HW210183   4.433   0.012   4.232
 3388SOL     OW10184   3.921   0.976   4.988
 3388SOL    HW110185   4.010   0.931   4.974
 3388SOL    HW210186   3.848   0.911   4.969
 3389SOL     OW10187   4.322   0.729   3.994
 3389SOL    HW110188   4.346   0.798   3.926
 3389SOL    HW210189   4.244   0.762   4.048
 3390SOL     OW10190   4.765   0.701   4.153
 3390SOL    HW110191   4.791   0.697   4.249
 3390SOL    HW210192   4.680   0.650   4.139
 3391SOL     OW10193   3.800   0.811   4.513
 3391SOL    HW110194   3.899   0.799   4.522
 3391SOL    HW210195   3.776   0.906   4.534
 3392SOL     OW10196   4.589   0.348   3.919
 3392SOL    HW110197   4.648   0.411   3.870
 3392SOL    HW210198   4.608   0.254   3.890
 3393SOL     OW10199   4.274   0.196   4.609
 3393SOL    HW110200   4.269   0.191   4.709
 3393SOL    HW210201   4.276   0.292   4.580
 3394SOL     OW10202   4.732   1.456   4.201
 3394SOL    HW110203   4.686   1.528   4.149
 3394SOL    HW210204   4.728   1.476   4.299
 3395SOL     OW10205   4.075   1.801   4.577
 3395SOL    HW110206   4.125   1.715   4.583
 3395SOL    HW210207   4.140   1.878   4.574
 3396SOL     OW10208   4.045   0.943   3.966
 3396SOL    HW110209   4.127   0.982   3.924
 3396SOL    HW210210   4.018   0.861   3.917
 3397SOL     OW10211   4.835   1.776   3.961
 3397SOL    HW110212   4.775   1.714   4.011
 3397SOL    HW210213   4.866   1.732   3.876
 3398SOL     OW10214   4.188   1.743   4.047
 3398SOL    HW110215   4.221   1.782   4.133
 3398SOL    HW210216   4.264   1.736   3.982
 3399SOL     OW10217   3.973   1.785   4.965
 3399SOL    HW110218   4.030   1.720   5.015
 3399SOL    HW210219   3.957   1.752   4.872
 3400SOL     OW10220   4.664   1.698   4.628
 3400SOL    HW110221   4.744   1.641   4.649
 3400SOL    HW210222   4.615   1.658   4.551
 3401SOL     OW10223   4.106   0.700   4.204
 3401SOL    HW110224   4.151   0.610   4.201
 3401SOL    HW210225   4.012   0.689   4.237
 3402SOL     OW10226   4.338   0.122   3.841
 3402SOL    HW110227   4.436   0.100   3.848
 3402SOL    HW210228   4.307   0.105   3.748
 3403SOL     OW10229   4.527   1.402   4.648
 3403SOL    HW110230   4.617   1.416   4.606
 3403SOL    HW210231   4.456   1.404   4.577
 3404SOL     OW10232   4.646   0.503   4.623
 3404SOL    HW110233   4.621   0.494   4.527
 3404SOL    HW210234   4.694   0.421   4.654
 3405SOL     OW10235   4.263   0.064   4.236
 3405SOL    HW110236   4.182   0.065   4.294
 3405SOL    HW210237   4.266   0.147   4.181
 3406SOL     OW10238   4.021   0.035   3.895
 3406SOL    HW110239   4.070   0.119   3.874
 3406SOL    HW210240   4.083  -0.030   3.940
 3407SOL     OW10241   4.659   0.236   4.204
 3407SOL    HW110242   4.611   0.277   4.126
 3407SOL    HW210243   4.758   0.234   4.185
 3408SOL     OW10244   4.951   1.570   4.517
 3408SOL    HW110245   4.972   1.644   4.452
 3408SOL    HW210246   5.019   1.570   4.590
 3409SOL     OW10247   4.183   1.152   4.465
 3409SOL    HW110248   4.112   1.125   4.530
 3409SOL    HW210249   4.157   1.124   4.372
 3410SOL     OW10250   4.995   1.797   4.315
 3410SOL    HW110251   5.039   1.861   4.251
 3410SOL    HW210252   4.945   1.849   4.385
 3411SOL     OW10253   4.756   0.549   3.740
 3411SOL    HW110254   4.715   0.631   3.701
 3411SOL    HW210255   4.820   0.575   3.813
 3412SOL     OW10256   4.285   0.222   4.871
 3412SOL    HW110257   4.323   0.138   4.908
 3412SOL    HW210258   4.197   0.241   4.915
 3413SOL     OW10259   4.590   0.454   4.366
 3413SOL    HW110260   4.558   0.526   4.304
 3413SOL    HW210261   4.614   0.373   4.313
 3414SOL     OW10262   4.741   0.039   4.477
 3414SOL    HW110263   4.669   0.044   4.408
 3414SOL    HW210264   4.717  -0.030   4.546
 3415SOL     OW10265   4.212   1.385   3.898
 3415SOL    HW110266   4.125   1.370   3.945
 3415SOL    HW210267   4.195   1.411   3.803
 3416SOL     OW10268   4.251   0.256   4.052
 3416SOL    HW110269   4.278   0.197   3.977
 3416SOL    HW210270   4.251   0.351   4.021
 3417SOL     OW10271   4.835   1.195   4.824
 3417SOL    HW110272   4.795   1.239   4.905
 3417SOL    HW210273   4.794   1.232   4.741
 3418SOL     OW10274   4.429   1.050   4.092
 3418SOL    HW110275   4.415   1.057   4.191
 3418SOL    HW210276   4.513   0.999   4.074
 3419SOL     OW10277   4.134   0.813   4.975
 3419SOL    HW110278   4.220   0.825   5.025
 3419SOL    HW210279   4.092   0.726   5.002
 3420SOL     OW10280   4.091   1.100   4.225
 3420SOL    HW110281   4.084   1.183   4.169
 3420SOL    HW210282   4.095   1.020   4.165
 3421SOL     OW10283   4.290   0.537   4.589
 3421SOL    HW110284   4.302   0.603   4.515
 3421SOL    HW210285   4.336   0.571   4.672
 3422SOL     OW10286   4.976   1.348   4.112
 3422SOL    HW110287   5.026   1.425   4.152
 3422SOL    HW210288   4.881   1.350   4.144
 3423SOL     OW10289   4.078   1.510   5.053
 3423SOL    HW110290   4.057   1.466   4.966
 3423SOL    HW210291   4.175   1.536   5.056
 3424SOL     OW10292   4.297   0.870   4.753
 3424SOL    HW110293   4.341   0.959   4.744
 3424SOL    HW210294   4.234   0.870   4.830
 3425SOL     OW10295   5.084   0.862   4.769
 3425SOL    HW110296   5.009   0.862   4.703
 3425SOL    HW210297   5.121   0.770   4.778
 3426SOL     OW10298   4.933   0.525   3.999
 3426SOL    HW110299   4.946   0.441   4.053
 3426SOL    HW210300   4.904   0.599   4.059
 3427SOL     OW10301   4.031   0.213   4.955
 3427SOL    HW110302   4.008   0.250   5.045
 3427SOL    HW210303   4.001   0.118   4.949
 3428SOL     OW10304   3.761   1.310   5.006
 3428SOL    HW110305   3.814   1.261   5.074
 3428SOL    HW210306   3.783   1.408   5.011
 3429SOL     OW10307   4.456   0.634   4.788
 3429SOL    HW110308   4.515   0.608   4.712
 3429SOL    HW210309   4.428   0.730   4.777
 3430SOL     OW10310   4.031   0.063   4.342
 3430SOL    HW110311   4.020   0.157   4.375
 3430SOL    HW210312   4.026   0.000   4.419
 3431SOL     OW10313   5.346   0.367   4.098
 3431SOL    HW110314   5.348   0.291   4.162
 3431SOL    HW210315   5.298   0.444   4.138
 3432SOL     OW10316   4.747   0.766   4.690
 3432SOL    HW110317   4.762   0.787   4.786
 3432SOL    HW210318   4.717   0.671   4.681
 3433SOL     OW10319   5.264   0.274   3.849
 3433SOL    HW110320   5.203   0.199   3.872
 3433SOL    HW210321   5.286   0.326   3.932
 3434SOL     OW10322   4.792   1.333   4.573
 3434SOL    HW110323   4.799   1.249   4.518
 3434SOL    HW210324   4.854   1.402   4.537
 3435SOL     OW10325   4.043   0.810   4.673
 3435SOL    HW110326   4.136   0.846   4.678
 3435SOL    HW210327   4.037   0.725   4.725
 3436SOL     OW10328   4.063   0.509   4.730
 3436SOL    HW110329   4.011   0.426   4.713
 3436SOL    HW210330   4.140   0.514   4.666
 3437SOL     OW10331   4.884   0.207   5.201
 3437SOL    HW110332   4.884   0.271   5.278
 3437SOL    HW210333   4.912   0.255   5.118
 3438SOL     OW10334   3.732   1.326   3.924
 3438SOL    HW110335   3.639   1.347   3.893
 3438SOL    HW210336   3.742   1.227   3.937
 3439SOL     OW10337   3.812   1.801   4.651
 3439SOL    HW110338   3.770   1.715   4.624
 3439SOL    HW210339   3.906   1.804   4.617
 3440SOL     OW10340   4.228   1.568   4.634
 3440SOL    HW110341   4.294   1.642   4.643
 3440SOL    HW210342   4.272   1.489   4.592
 3441SOL     OW10343   4.726   0.796   4.962
 3441SOL    HW110344   4.767   0.764   5.048
 3441SOL    HW210345   4.630   0.769   4.959
 3442SOL     OW10346   3.764   0.544   4.838
 3442SOL    HW110347   3.849   0.511   4.797
 3442SOL    HW210348   3.777   0.559   4.936
 3443SOL     OW10349   4.539   0.572   4.049
 3443SOL    HW110350   4.546   0.483   4.003
 3443SOL    HW210351   4.445   0.606   4.041
 3444SOL     OW10352   4.395   0.464   4.993
 3444SOL    HW110353   4.361   0.375   4.963
 3444SOL    HW210354   4.421   0.518   4.913
 3445SOL     OW10355   4.654   1.678   5.189
 3445SOL    HW110356   4.630   1.660   5.094
 3445SOL    HW210357   4.684   1.772   5.199
 3446SOL     OW10358   4.197   0.500   3.915
 3446SOL    HW110359   4.258   0.580   3.919
 3446SOL    HW210360   4.102   0.531   3.922
 3447SOL     OW10361   5.071   1.059   4.958
 3447SOL    HW110362   5.095   0.996   4.884
 3447SOL    HW210363   4.981   1.099   4.940
 3448SOL     OW10364   4.976   1.731   4.852
 3448SOL    HW110365   5.060   1.736   4.798
 3448SOL    HW210366   4.953   1.635   4.870
 3449SOL     OW10367   3.807   1.258   4.746
 3449SOL    HW110368   3.802   1.257   4.846
 3449SOL    HW210369   3.724   1.217   4.708
 3450SOL     OW10370   4.396   1.616   3.878
 3450SOL    HW110371   4.405   1.626   3.779
 3450SOL    HW210372   4.356   1.527   3.899
 3451SOL     OW10373   3.987   0.326   4.444
 3451SOL    HW110374   3.908   0.377   4.410
 3451SOL    HW210375   3.978   0.311   4.542
 3452SOL     OW10376   4.546   1.002   5.096
 3452SOL    HW110377   4.586   1.001   5.004
 3452SOL    HW210378   4.556   1.094   5.136
 3453SOL     OW10379   4.640   0.910   4.015
 3453SOL    HW110380   4.703   0.948   3.947
 3453SOL    HW210381   4.680   0.827   4.054
 3454SOL     OW10382   5.338   1.292   5.013
 3454SOL    HW110383   5.398   1.295   5.093
 3454SOL    HW210384   5.263   1.356   5.026
 3455SOL     OW10385   4.763   1.098   4.420
 3455SOL    HW110386   4.693   1.051   4.474
 3455SOL    HW210387   4.822   1.030   4.377
 3456SOL     OW10388   4.738   0.236   4.695
 3456SOL    HW110389   4.730   0.200   4.602
 3456SOL    HW210390   4.736   0.160   4.760
 3457SOL     OW10391   4.314   1.487   4.215
 3457SOL    HW110392   4.356   1.429   4.145
 3457SOL    HW210393   4.270   1.566   4.171
 3458SOL     OW10394   3.979   1.348   4.014
 3458SOL    HW110395   3.883   1.349   3.987
 3458SOL    HW210396   3.991   1.401   4.098
 3459SOL     OW10397   3.799   0.345   3.757
 3459SOL    HW110398   3.707   0.317   3.728
 3459SOL    HW210399   3.830   0.422   3.701
 3460SOL     OW10400   3.796   0.166   4.042
 3460SOL    HW110401   3.779   0.249   3.988
 3460SOL    HW210402   3.886   0.129   4.020
 3461SOL     OW10403   4.318   0.745   4.376
 3461SOL    HW110404   4.368   0.830   4.357
 3461SOL    HW210405   4.230   0.747   4.328
 3462SOL     OW10406   4.583   1.374   3.740
 3462SOL    HW110407   4.537   1.389   3.828
 3462SOL    HW210408   4.627   1.459   3.710
 3463SOL     OW10409   4.385   1.790   4.677
 3463SOL    HW110410   4.339   1.878   4.664
 3463SOL    HW210411   4.484   1.802   4.670
 3464SOL     OW10412   4.583   0.956   4.585
 3464SOL    HW110413   4.637   0.887   4.633
 3464SOL    HW210414   4.551   1.025   4.651
 3465SOL     OW10415   4.807   0.984   3.811
 3465SOL    HW110416   4.784   1.037   3.729
 3465SOL    HW210417   4.888   0.928   3.792
 3466SOL     OW10418   3.803   1.240   4.377
 3466SOL    HW110419   3.802   1.193   4.465
 3466SOL    HW210420   3.885   1.212   4.326
 3467SOL     OW10421   4.152   0.424   4.244
 3467SOL    HW110422   4.182   0.352   4.182
 3467SOL    HW210423   4.113   0.384   4.327
 3468SOL     OW10424   4.536   1.586   4.411
 3468SOL    HW110425   4.568   1.596   4.317
 3468SOL    HW210426   4.457   1.524   4.413
 3469SOL     OW10427   4.725   0.034   4.878
 3469SOL    HW110428   4.662  -0.038   4.847
 3469SOL    HW210429   4.818  -0.002   4.878
 3470SOL     OW10430   4.494   1.330   4.025
 3470SOL    HW110431   4.448   1.243   4.042
 3470SOL    HW210432   4.585   1.327   4.066
 3471SOL     OW10433   3.763   1.077   4.024
 3471SOL    HW110434   3.862   1.066   4.015
 3471SOL    HW210435   3.723   0.991   4.056
 3472SOL     OW10436   4.599   1.646   4.061
 3472SOL    HW110437   4.522   1.611   4.007
 3472SOL    HW210438   4.567   1.717   4.123
 3473SOL     OW10439   3.954   2.490   0.113
 3473SOL    HW110440   3.861   2.488   0.150
 3473SOL    HW210441   3.955   2.451   0.021
 3474SOL     OW10442   3.949   2.137   0.996
 3474SOL    HW110443   3.984   2.120   1.088
 3474SOL    HW210444   3.861   2.092   0.984
 3475SOL     OW10445   3.743   2.230   0.647
 3475SOL    HW110446   3.661   2.273   0.686
 3475SOL    HW210447   3.715   2.157   0.584
 3476SOL     OW10448   4.293   3.137   1.165
 3476SOL    HW110449   4.200   3.130   1.128
 3476SOL    HW210450   4.304   3.226   1.209
 3477SOL     OW10451   4.859   2.565   0.717
 3477SOL    HW110452   4.916   2.643   0.692
 3477SOL    HW210453   4.799   2.591   0.793
 3478SOL     OW10454   4.492   3.006   1.023
 3478SOL    HW110455   4.414   3.023   1.083
 3478SOL    HW210456   4.526   3.093   0.987
 3479SOL     OW10457   4.574   2.660   1.823
 3479SOL    HW110458   4.570   2.736   1.888
 3479SOL    HW210459   4.596   2.696   1.732
 3480SOL     OW10460   4.409   2.874   0.665
 3480SOL    HW110461   4.478   2.858   0.735
 3480SOL    HW210462   4.336   2.931   0.703
 3481SOL     OW10463   4.410   3.023   1.803
 3481SOL    HW110464   4.470   3.102   1.817
 3481SOL    HW210465   4.324   3.054   1.762
 3482SOL     OW10466   4.059   3.297   1.061
 3482SOL    HW110467   3.981   3.266   1.008
 3482SOL    HW210468   4.117   3.355   1.004
 3483SOL     OW10469   4.162   2.254   1.499
 3483SOL    HW110470   4.244   2.198   1.508
 3483SOL    HW210471   4.081   2.196   1.503
 3484SOL     OW10472   3.955   3.575   0.483
 3484SOL    HW110473   3.989   3.652   0.537
 3484SOL    HW210474   3.999   3.575   0.393
 3485SOL     OW10475   4.851   3.203   1.690
 3485SOL    HW110476   4.898   3.203   1.778
 3485SOL    HW210477   4.803   3.116   1.679
 3486SOL     OW10478   3.954   3.296   0.538
 3486SOL    HW110479   3.928   3.392   0.538
 3486SOL    HW210480   3.883   3.242   0.583
 3487SOL     OW10481   3.964   2.953   0.886
 3487SOL    HW110482   3.978   2.869   0.938
 3487SOL    HW210483   3.909   3.017   0.941
 3488SOL     OW10484   4.344   3.648   1.439
 3488SOL    HW110485   4.252   3.631   1.474
 3488SOL    HW210486   4.372   3.740   1.465
 3489SOL     OW10487   4.330   2.826   0.123
 3489SOL    HW110488   4.337   2.910   0.069
 3489SOL    HW210489   4.376   2.839   0.211
 3490SOL     OW10490   3.846   2.505   0.563
 3490SOL    HW110491   3.801   2.417   0.580
 3490SOL    HW210492   3.845   2.559   0.647
 3491SOL     OW10493   3.751   3.458   0.117
 3491SOL    HW110494   3.732   3.362   0.138
 3491SOL    HW210495   3.718   3.516   0.192
 3492SOL     OW10496   3.837   2.599   1.597
 3492SOL    HW110497   3.925   2.586   1.642
 3492SOL    HW210498   3.824   2.696   1.575
 3493SOL     OW10499   4.337   3.227   0.726
 3493SOL    HW110500   4.288   3.140   0.735
 3493SOL    HW210501   4.314   3.270   0.639
 3494SOL     OW10502   4.533   1.866   0.502
 3494SOL    HW110503   4.573   1.957   0.493
 3494SOL    HW210504   4.433   1.874   0.508
 3495SOL     OW10505   3.921   2.838   1.264
 3495SOL    HW110506   4.010   2.793   1.250
 3495SOL    HW210507   3.848   2.773   1.245
 3496SOL     OW10508   4.911   3.654   1.616
 3496SOL    HW110509   4.935   3.714   1.540
 3496SOL    HW210510   4.918   3.559   1.586
 3497SOL     OW10511   4.041   2.113   1.801
 3497SOL    HW110512   4.112   2.184   1.807
 3497SOL    HW210513   3.953   2.152   1.829
 3498SOL     OW10514   4.322   2.591   0.270
 3498SOL    HW110515   4.346   2.660   0.202
 3498SOL    HW210516   4.244   2.624   0.324
 3499SOL     OW10517   4.531   2.467   1.465
 3499SOL    HW110518   4.484   2.464   1.554
 3499SOL    HW210519   4.480   2.412   1.399
 3500SOL     OW10520   4.697   2.752   1.572
 3500SOL    HW110521   4.743   2.668   1.543
 3500SOL    HW210522   4.641   2.786   1.497
 3501SOL     OW10523   4.715   2.272   1.242
 3501SOL    HW110524   4.638   2.306   1.296
 3501SOL    HW210525   4.681   2.221   1.163
 3502SOL     OW10526   4.765   2.563   0.429
 3502SOL    HW110527   4.791   2.559   0.525
 3502SOL    HW210528   4.680   2.512   0.415
 3503SOL     OW10529   3.800   2.673   0.789
 3503SOL    HW110530   3.899   2.661   0.798
 3503SOL    HW210531   3.776   2.768   0.810
 3504SOL     OW10532   3.854   3.683   1.571
 3504SOL    HW110533   3.844   3.668   1.670
 3504SOL    HW210534   3.768   3.719   1.535
 3505SOL     OW10535   4.589   2.210   0.195
 3505SOL    HW110536   4.648   2.273   0.146
 3505SOL    HW210537   4.608   2.116   0.166
 3506SOL     OW10538   4.274   2.058   0.885
 3506SOL    HW110539   4.269   2.053   0.985
 3506SOL    HW210540   4.276   2.154   0.856
 3507SOL     OW10541   4.732   3.318   0.477
 3507SOL    HW110542   4.686   3.390   0.425
 3507SOL    HW210543   4.728   3.338   0.575
 3508SOL     OW10544   4.075   3.663   0.853
 3508SOL    HW110545   4.125   3.577   0.859
 3508SOL    HW210546   4.140   3.740   0.850
 3509SOL     OW10547   4.951   3.412   1.506
 3509SOL    HW110548   4.957   3.335   1.570
 3509SOL    HW210549   4.899   3.386   1.426
 3510SOL     OW10550   4.045   2.805   0.242
 3510SOL    HW110551   4.127   2.844   0.200
 3510SOL    HW210552   4.018   2.723   0.193
 3511SOL     OW10553   4.185   3.128   1.727
 3511SOL    HW110554   4.135   3.129   1.641
 3511SOL    HW210555   4.122   3.110   1.803
 3512SOL     OW10556   4.835   3.638   0.237
 3512SOL    HW110557   4.775   3.576   0.287
 3512SOL    HW210558   4.866   3.594   0.152
 3513SOL     OW10559   3.926   2.147   1.498
 3513SOL    HW110560   3.846   2.207   1.485
 3513SOL    HW210561   3.916   2.098   1.584
 3514SOL     OW10562   4.188   3.605   0.323
 3514SOL    HW110563   4.221   3.644   0.409
 3514SOL    HW210564   4.264   3.598   0.258
 3515SOL     OW10565   3.973   3.647   1.241
 3515SOL    HW110566   4.030   3.582   1.291
 3515SOL    HW210567   3.957   3.614   1.148
 3516SOL     OW10568   4.664   3.560   0.904
 3516SOL    HW110569   4.744   3.503   0.925
 3516SOL    HW210570   4.615   3.520   0.827
 3517SOL     OW10571   4.106   2.562   0.480
 3517SOL    HW110572   4.151   2.472   0.477
 3517SOL    HW210573   4.012   2.551   0.513
 3518SOL     OW10574   4.338   1.984   0.117
 3518SOL    HW110575   4.436   1.962   0.124
 3518SOL    HW210576   4.307   1.967   0.024
 3519SOL     OW10577   4.505   2.126   1.749
 3519SOL    HW110578   4.572   2.065   1.792
 3519SOL    HW210579   4.432   2.145   1.814
 3520SOL     OW10580   4.612   3.376   1.195
 3520SOL    HW110581   4.589   3.351   1.101
 3520SOL    HW210582   4.673   3.307   1.234
 3521SOL     OW10583   4.527   3.264   0.924
 3521SOL    HW110584   4.617   3.278   0.882
 3521SOL    HW210585   4.456   3.266   0.853
 3522SOL     OW10586   4.646   2.365   0.899
 3522SOL    HW110587   4.621   2.356   0.803
 3522SOL    HW210588   4.694   2.283   0.930
 3523SOL     OW10589   4.263   1.926   0.512
 3523SOL    HW110590   4.182   1.927   0.570
 3523SOL    HW210591   4.266   2.009   0.457
 3524SOL     OW10592   4.021   1.897   0.171
 3524SOL    HW110593   4.070   1.981   0.150
 3524SOL    HW210594   4.083   1.832   0.216
 3525SOL     OW10595   4.659   2.098   0.480
 3525SOL    HW110596   4.611   2.139   0.402
 3525SOL    HW210597   4.758   2.096   0.461
 3526SOL     OW10598   4.800   2.545   1.464
 3526SOL    HW110599   4.720   2.484   1.467
 3526SOL    HW210600   4.881   2.492   1.440
 3527SOL     OW10601   4.951   3.432   0.793
 3527SOL    HW110602   4.972   3.506   0.728
 3527SOL    HW210603   5.019   3.432   0.866
 3528SOL     OW10604   4.183   3.014   0.741
 3528SOL    HW110605   4.112   2.987   0.806
 3528SOL    HW210606   4.157   2.986   0.648
 3529SOL     OW10607   4.995   3.659   0.591
 3529SOL    HW110608   5.039   3.723   0.527
 3529SOL    HW210609   4.945   3.711   0.661
 3530SOL     OW10610   4.756   2.411   0.016
 3530SOL    HW110611   4.715   2.493  -0.023
 3530SOL    HW210612   4.820   2.437   0.089
 3531SOL     OW10613   3.802   2.418   1.386
 3531SOL    HW110614   3.894   2.417   1.345
 3531SOL    HW210615   3.796   2.492   1.453
 3532SOL     OW10616   4.285   2.084   1.147
 3532SOL    HW110617   4.323   2.000   1.184
 3532SOL    HW210618   4.197   2.103   1.191
 3533SOL     OW10619   4.590   2.316   0.642
 3533SOL    HW110620   4.558   2.388   0.580
 3533SOL    HW210621   4.614   2.235   0.589
 3534SOL     OW10622   4.741   1.901   0.753
 3534SOL    HW110623   4.669   1.906   0.684
 3534SOL    HW210624   4.717   1.832   0.822
 3535SOL     OW10625   4.212   3.247   0.174
 3535SOL    HW110626   4.125   3.232   0.221
 3535SOL    HW210627   4.195   3.273   0.079
 3536SOL     OW10628   4.251   2.118   0.328
 3536SOL    HW110629   4.278   2.059   0.253
 3536SOL    HW210630   4.251   2.213   0.297
 3537SOL     OW10631   4.788   3.209   1.340
 3537SOL    HW110632   4.708   3.186   1.395
 3537SOL    HW210633   4.871   3.183   1.389
 3538SOL     OW10634   4.835   3.057   1.100
 3538SOL    HW110635   4.795   3.101   1.181
 3538SOL    HW210636   4.794   3.094   1.017
 3539SOL     OW10637   4.639   1.951   1.402
 3539SOL    HW110638   4.664   1.931   1.307
 3539SOL    HW210639   4.711   2.007   1.444
 3540SOL     OW10640   4.704   2.978   1.719
 3540SOL    HW110641   4.605   2.984   1.729
 3540SOL    HW210642   4.727   2.898   1.663
 3541SOL     OW10643   4.429   2.912   0.368
 3541SOL    HW110644   4.415   2.919   0.467
 3541SOL    HW210645   4.513   2.861   0.350
 3542SOL     OW10646   4.134   2.675   1.251
 3542SOL    HW110647   4.220   2.687   1.301
 3542SOL    HW210648   4.092   2.588   1.278
 3543SOL     OW10649   3.788   3.426   1.331
 3543SOL    HW110650   3.742   3.508   1.297
 3543SOL    HW210651   3.886   3.445   1.340
 3544SOL     OW10652   4.091   2.962   0.501
 3544SOL    HW110653   4.084   3.045   0.445
 3544SOL    HW210654   4.095   2.882   0.441
 3545SOL     OW10655   4.290   2.399   0.865
 3545SOL    HW110656   4.302   2.465   0.791
 3545SOL    HW210657   4.336   2.433   0.948
 3546SOL     OW10658   4.976   3.210   0.388
 3546SOL    HW110659   5.026   3.287   0.428
 3546SOL    HW210660   4.881   3.212   0.420
 3547SOL     OW10661   4.078   3.372   1.329
 3547SOL    HW110662   4.057   3.328   1.242
 3547SOL    HW210663   4.175   3.398   1.332
 3548SOL     OW10664   4.126   2.613   1.598
 3548SOL    HW110665   4.194   2.668   1.551
 3548SOL    HW210666   4.166   2.525   1.625
 3549SOL     OW10667   4.737   1.967   1.770
 3549SOL    HW110668   4.743   2.052   1.718
 3549SOL    HW210669   4.769   1.891   1.713
 3550SOL     OW10670   4.228   1.912   1.740
 3550SOL    HW110671   4.186   1.855   1.670
 3550SOL    HW210672   4.162   1.981   1.772
 3551SOL     OW10673   4.297   2.732   1.029
 3551SOL    HW110674   4.341   2.821   1.020
 3551SOL    HW210675   4.234   2.732   1.106
 3552SOL     OW10676   5.084   2.724   1.045
 3552SOL    HW110677   5.009   2.724   0.979
 3552SOL    HW210678   5.121   2.632   1.054
 3553SOL     OW10679   4.933   2.387   0.275
 3553SOL    HW110680   4.946   2.303   0.329
 3553SOL    HW210681   4.904   2.461   0.335
 3554SOL     OW10682   4.031   2.075   1.231
 3554SOL    HW110683   4.008   2.112   1.321
 3554SOL    HW210684   4.001   1.980   1.225
 3555SOL     OW10685   3.761   3.172   1.282
 3555SOL    HW110686   3.814   3.123   1.350
 3555SOL    HW210687   3.783   3.270   1.287
 3556SOL     OW10688   4.456   2.496   1.064
 3556SOL    HW110689   4.515   2.470   0.988
 3556SOL    HW210690   4.428   2.592   1.053
 3557SOL     OW10691   4.031   1.925   0.618
 3557SOL    HW110692   4.020   2.019   0.651
 3557SOL    HW210693   4.026   1.862   0.695
 3558SOL     OW10694   5.346   2.229   0.374
 3558SOL    HW110695   5.348   2.153   0.438
 3558SOL    HW210696   5.298   2.306   0.414
 3559SOL     OW10697   4.747   2.628   0.966
 3559SOL    HW110698   4.762   2.649   1.062
 3559SOL    HW210699   4.717   2.533   0.957
 3560SOL     OW10700   4.704   3.435   1.700
 3560SOL    HW110701   4.684   3.479   1.612
 3560SOL    HW210702   4.743   3.344   1.684
 3561SOL     OW10703   4.074   2.760   1.804
 3561SOL    HW110704   4.150   2.804   1.852
 3561SOL    HW210705   4.109   2.713   1.722
 3562SOL     OW10706   4.792   3.195   0.849
 3562SOL    HW110707   4.799   3.111   0.794
 3562SOL    HW210708   4.854   3.264   0.813
 3563SOL     OW10709   4.043   2.672   0.949
 3563SOL    HW110710   4.136   2.708   0.954
 3563SOL    HW210711   4.037   2.587   1.001
 3564SOL     OW10712   4.063   2.371   1.006
 3564SOL    HW110713   4.011   2.288   0.989
 3564SOL    HW210714   4.140   2.376   0.942
 3565SOL     OW10715   4.862   2.242   1.678
 3565SOL    HW110716   4.817   2.305   1.742
 3565SOL    HW210717   4.955   2.273   1.661
 3566SOL     OW10718   4.884   2.069   1.477
 3566SOL    HW110719   4.884   2.133   1.554
 3566SOL    HW210720   4.912   2.117   1.394
 3567SOL     OW10721   3.812   3.663   0.927
 3567SOL    HW110722   3.770   3.577   0.900
 3567SOL    HW210723   3.906   3.666   0.893
 3568SOL     OW10724   4.228   3.430   0.910
 3568SOL    HW110725   4.294   3.504   0.919
 3568SOL    HW210726   4.272   3.351   0.868
 3569SOL     OW10727   4.726   2.658   1.238
 3569SOL    HW110728   4.767   2.626   1.324
 3569SOL    HW210729   4.630   2.631   1.235
 3570SOL     OW10730   3.764   2.406   1.114
 3570SOL    HW110731   3.849   2.373   1.073
 3570SOL    HW210732   3.777   2.421   1.212
 3571SOL     OW10733   3.913   2.382   1.722
 3571SOL    HW110734   3.972   2.342   1.652
 3571SOL    HW210735   3.855   2.453   1.681
 3572SOL     OW10736   4.539   2.434   0.325
 3572SOL    HW110737   4.546   2.345   0.279
 3572SOL    HW210738   4.445   2.468   0.317
 3573SOL     OW10739   3.976   3.426   1.744
 3573SOL    HW110740   3.946   3.483   1.820
 3573SOL    HW210741   3.969   3.329   1.770
 3574SOL     OW10742   4.395   2.326   1.269
 3574SOL    HW110743   4.361   2.237   1.239
 3574SOL    HW210744   4.421   2.380   1.189
 3575SOL     OW10745   4.654   3.540   1.465
 3575SOL    HW110746   4.630   3.522   1.370
 3575SOL    HW210747   4.684   3.634   1.475
 3576SOL     OW10748   4.197   2.362   0.191
 3576SOL    HW110749   4.258   2.442   0.195
 3576SOL    HW210750   4.102   2.393   0.198
 3577SOL     OW10751   3.883   2.999   1.466
 3577SOL    HW110752   3.905   2.938   1.542
 3577SOL    HW210753   3.893   2.950   1.380
 3578SOL     OW10754   5.071   2.921   1.234
 3578SOL    HW110755   5.095   2.858   1.160
 3578SOL    HW210756   4.981   2.961   1.216
 3579SOL     OW10757   4.976   3.593   1.128
 3579SOL    HW110758   5.060   3.598   1.074
 3579SOL    HW210759   4.953   3.497   1.146
 3580SOL     OW10760   3.807   3.120   1.022
 3580SOL    HW110761   3.802   3.119   1.122
 3580SOL    HW210762   3.724   3.079   0.984
 3581SOL     OW10763   4.412   3.524   1.716
 3581SOL    HW110764   4.356   3.605   1.725
 3581SOL    HW210765   4.464   3.528   1.630
 3582SOL     OW10766   4.627   1.948   0.133
 3582SOL    HW110767   4.678   1.949   0.047
 3582SOL    HW210768   4.683   1.906   0.204
 3583SOL     OW10769   3.854   3.656   1.851
 3583SOL    HW110770   3.813   3.582   1.904
 3583SOL    HW210771   3.918   3.707   1.909
 3584SOL     OW10772   4.554   3.135   1.422
 3584SOL    HW110773   4.549   3.168   1.517
 3584SOL    HW210774   4.468   3.154   1.376
 3585SOL     OW10775   4.396   3.478   0.154
 3585SOL    HW110776   4.405   3.488   0.055
 3585SOL    HW210777   4.356   3.389   0.175
 3586SOL     OW10778   3.987   2.188   0.720
 3586SOL    HW110779   3.908   2.239   0.686
 3586SOL    HW210780   3.978   2.173   0.818
 3587SOL     OW10781   4.546   2.864   1.372
 3587SOL    HW110782   4.586   2.863   1.280
 3587SOL    HW210783   4.556   2.956   1.412
 3588SOL     OW10784   4.640   2.772   0.291
 3588SOL    HW110785   4.703   2.810   0.223
 3588SOL    HW210786   4.680   2.689   0.330
 3589SOL     OW10787   4.096   3.150   1.490
 3589SOL    HW110788   4.083   3.243   1.456
 3589SOL    HW210789   4.012   3.098   1.477
 3590SOL     OW10790   4.763   2.960   0.696
 3590SOL    HW110791   4.693   2.913   0.750
 3590SOL    HW210792   4.822   2.892   0.653
 3591SOL     OW10793   4.738   2.098   0.971
 3591SOL    HW110794   4.730   2.062   0.878
 3591SOL    HW210795   4.736   2.022   1.036
 3592SOL     OW10796   4.314   3.349   0.491
 3592SOL    HW110797   4.356   3.291   0.421
 3592SOL    HW210798   4.270   3.428   0.447
 3593SOL     OW10799   3.979   3.210   0.290
 3593SOL    HW110800   3.883   3.211   0.263
 3593SOL    HW210801   3.991   3.263   0.374
 3594SOL     OW10802   3.829   2.875   1.726
 3594SOL    HW110803   3.752   2.842   1.780
 3594SOL    HW210804   3.914   2.845   1.768
 3595SOL     OW10805   4.396   2.065   1.489
 3595SOL    HW110806   4.486   2.049   1.449
 3595SOL    HW210807   4.404   2.070   1.588
 3596SOL     OW10808   3.796   2.028   0.318
 3596SOL    HW110809   3.779   2.111   0.264
 3596SOL    HW210810   3.886   1.991   0.296
 3597SOL     OW10811   4.337   2.704   1.431
 3597SOL    HW110812   4.393   2.785   1.414
 3597SOL    HW210813   4.396   2.624   1.434
 3598SOL     OW10814   4.440   2.427   1.708
 3598SOL    HW110815   4.459   2.492   1.782
 3598SOL    HW210816   4.500   2.347   1.717
 3599SOL     OW10817   4.114   3.603   1.560
 3599SOL    HW110818   4.023   3.644   1.558
 3599SOL    HW210819   4.107   3.509   1.592
 3600SOL     OW10820   4.318   2.607   0.652
 3600SOL    HW110821   4.368   2.692   0.633
 3600SOL    HW210822   4.230   2.609   0.604
 3601SOL     OW10823   4.583   3.236   0.016
 3601SOL    HW110824   4.537   3.251   0.104
 3601SOL    HW210825   4.627   3.321  -0.014
 3602SOL     OW10826   4.385   3.652   0.953
 3602SOL    HW110827   4.339   3.740   0.940
 3602SOL    HW210828   4.484   3.664   0.946
 3603SOL     OW10829   4.583   2.818   0.861
 3603SOL    HW110830   4.637   2.749   0.909
 3603SOL    HW210831   4.551   2.887   0.927
 3604SOL     OW10832   4.807   2.846   0.087
 3604SOL    HW110833   4.784   2.899   0.005
 3604SOL    HW210834   4.888   2.790   0.068
 3605SOL     OW10835   3.945   3.176   1.844
 3605SOL    HW110836   3.880   3.103   1.823
 3605SOL    HW210837   3.949   3.190   1.942
 3606SOL     OW10838   3.803   3.102   0.653
 3606SOL    HW110839   3.802   3.055   0.741
 3606SOL    HW210840   3.885   3.074   0.602
 3607SOL     OW10841   4.396   3.253   1.624
 3607SOL    HW110842   4.318   3.203   1.662
 3607SOL    HW210843   4.393   3.348   1.655
 3608SOL     OW10844   4.152   2.286   0.520
 3608SOL    HW110845   4.182   2.214   0.458
 3608SOL    HW210846   4.113   2.246   0.603
 3609SOL     OW10847   4.041   2.409   1.280
 3609SOL    HW110848   4.079   2.350   1.352
 3609SOL    HW210849   4.081   2.383   1.192
 3610SOL     OW10850   4.536   3.448   0.687
 3610SOL    HW110851   4.568   3.458   0.593
 3610SOL    HW210852   4.457   3.386   0.689
 3611SOL     OW10853   4.725   1.896   1.154
 3611SOL    HW110854   4.662   1.824   1.123
 3611SOL    HW210855   4.818   1.860   1.154
 3612SOL     OW10856   4.494   3.192   0.301
 3612SOL    HW110857   4.448   3.105   0.318
 3612SOL    HW210858   4.585   3.189   0.342
 3613SOL     OW10859   4.342   3.429   1.284
 3613SOL    HW110860   4.337   3.511   1.341
 3613SOL    HW210861   4.431   3.426   1.239
 3614SOL     OW10862   3.763   2.939   0.300
 3614SOL    HW110863   3.862   2.928   0.291
 3614SOL    HW210864   3.723   2.853   0.332
 3615SOL     OW10865   4.599   3.508   0.337
 3615SOL    HW110866   4.522   3.473   0.283
 3615SOL    HW210867   4.567   3.579   0.399
 3616SOL     OW10868   3.954   2.490   1.975
 3616SOL    HW110869   3.861   2.488   2.012
 3616SOL    HW210870   3.955   2.451   1.883
 3617SOL     OW10871   3.949   2.137   2.858
 3617SOL    HW110872   3.984   2.120   2.950
 3617SOL    HW210873   3.861   2.092   2.846
 3618SOL     OW10874   3.743   2.230   2.509
 3618SOL    HW110875   3.661   2.273   2.548
 3618SOL    HW210876   3.715   2.157   2.446
 3619SOL     OW10877   4.293   3.137   3.027
 3619SOL    HW110878   4.200   3.130   2.990
 3619SOL    HW210879   4.304   3.226   3.071
 3620SOL     OW10880   4.859   2.565   2.579
 3620SOL    HW110881   4.916   2.643   2.554
 3620SOL    HW210882   4.799   2.591   2.655
 3621SOL     OW10883   4.492   3.006   2.885
 3621SOL    HW110884   4.414   3.023   2.945
 3621SOL    HW210885   4.526   3.093   2.849
 3622SOL     OW10886   4.574   2.660   3.685
 3622SOL    HW110887   4.570   2.736   3.750
 3622SOL    HW210888   4.596   2.696   3.594
 3623SOL     OW10889   4.409   2.874   2.527
 3623SOL    HW110890   4.478   2.858   2.597
 3623SOL    HW210891   4.336   2.931   2.565
 3624SOL     OW10892   4.410   3.023   3.665
 3624SOL    HW110893   4.470   3.102   3.679
 3624SOL    HW210894   4.324   3.054   3.624
 3625SOL     OW10895   4.059   3.297   2.923
 3625SOL    HW110896   3.981   3.266   2.870
 3625SOL    HW210897   4.117   3.355   2.866
 3626SOL     OW10898   4.162   2.254   3.361
 3626SOL    HW110899   4.244   2.198   3.370
 3626SOL    HW210900   4.081   2.196   3.365
 3627SOL     OW10901   3.955   3.575   2.345
 3627SOL    HW110902   3.989   3.652   2.399
 3627SOL    HW210903   3.999   3.575   2.255
 3628SOL     OW10904   4.851   3.203   3.552
 3628SOL    HW110905   4.898   3.203   3.640
 3628SOL    HW210906   4.803   3.116   3.541
 3629SOL     OW10907   3.954   3.296   2.400
 3629SOL    HW110908   3.928   3.392   2.400
 3629SOL    HW210909   3.883   3.242   2.445
 3630SOL     OW10910   3.964   2.953   2.748
 3630SOL    HW110911   3.978   2.869   2.800
 3630SOL    HW210912   3.909   3.017   2.803
 3631SOL     OW10913   4.344   3.648   3.301
 3631SOL    HW110914   4.252   3.631   3.336
 3631SOL    HW210915   4.372   3.740   3.327
 3632SOL     OW10916   4.330   2.826   1.985
 3632SOL    HW110917   4.337   2.910   1.931
 3632SOL    HW210918   4.376   2.839   2.073
 3633SOL     OW10919   3.846   2.505   2.425
 3633SOL    HW110920   3.801   2.417   2.442
 3633SOL    HW210921   3.845   2.559   2.509
 3634SOL     OW10922   3.751   3.458   1.979
 3634SOL    HW110923   3.732   3.362   2.000
 3634SOL    HW210924   3.718   3.516   2.054
 3635SOL     OW10925   3.837   2.599   3.459
 3635SOL    HW110926   3.925   2.586   3.504
 3635SOL    HW210927   3.824   2.696   3.437
 3636SOL     OW10928   4.337   3.227   2.588
 3636SOL    HW110929   4.288   3.140   2.597
 3636SOL    HW210930   4.314   3.270   2.501
 3637SOL     OW10931   4.533   1.866   2.364
 3637SOL    HW110932   4.573   1.957   2.355
 3637SOL    HW210933   4.433   1.874   2.370
 3638SOL     OW10934   3.921   2.838   3.126
 3638SOL    HW110935   4.010   2.793   3.112
 3638SOL    HW210936   3.848   2.773   3.107
 3639SOL     OW10937   4.911   3.654   3.478
 3639SOL    HW110938   4.935   3.714   3.402
 3639SOL    HW210939   4.918   3.559   3.448
 3640SOL     OW10940   4.041   2.113   3.663
 3640SOL    HW110941   4.112   2.184   3.669
 3640SOL    HW210942   3.953   2.152   3.691
 3641SOL     OW10943   4.322   2.591   2.132
 3641SOL    HW110944   4.346   2.660   2.064
 3641SOL    HW210945   4.244   2.624   2.186
 3642SOL     OW10946   4.531   2.467   3.327
 3642SOL    HW110947   4.484   2.464   3.416
 3642SOL    HW210948   4.480   2.412   3.261
 3643SOL     OW10949   4.697   2.752   3.434
 3643SOL    HW110950   4.743   2.668   3.405
 3643SOL    HW210951   4.641   2.786   3.359
 3644SOL     OW10952   4.715   2.272   3.104
 3644SOL    HW110953   4.638   2.306   3.158
 3644SOL    HW210954   4.681   2.221   3.025
 3645SOL     OW10955   4.765   2.563   2.291
 3645SOL    HW110956   4.791   2.559   2.387
 3645SOL    HW210957   4.680   2.512   2.277
 3646SOL     OW10958   3.800   2.673   2.651
 3646SOL    HW110959   3.899   2.661   2.660
 3646SOL    HW210960   3.776   2.768   2.672
 3647SOL     OW10961   3.854   3.683   3.433
 3647SOL    HW110962   3.844   3.668   3.532
 3647SOL    HW210963   3.768   3.719   3.397
 3648SOL     OW10964   4.589   2.210   2.057
 3648SOL    HW110965   4.648   2.273   2.008
 3648SOL    HW210966   4.608   2.116   2.028
 3649SOL     OW10967   4.274   2.058   2.747
 3649SOL    HW110968   4.269   2.053   2.847
 3649SOL    HW210969   4.276   2.154   2.718
 3650SOL     OW10970   4.732   3.318   2.339
 3650SOL    HW110971   4.686   3.390   2.287
 3650SOL    HW210972   4.728   3.338   2.437
 3651SOL     OW10973   4.075   3.663   2.715
 3651SOL    HW110974   4.125   3.577   2.721
 3651SOL    HW210975   4.140   3.740   2.712
 3652SOL     OW10976   4.951   3.412   3.368
 3652SOL    HW110977   4.957   3.335   3.432
 3652SOL    HW210978   4.899   3.386   3.288
 3653SOL     OW10979   4.045   2.805   2.104
 3653SOL    HW110980   4.127   2.844   2.062
 3653SOL    HW210981   4.018   2.723   2.055
 3654SOL     OW10982   4.185   3.128   3.589
 3654SOL    HW110983   4.135   3.129   3.503
 3654SOL    HW210984   4.122   3.110   3.665
 3655SOL     OW10985   4.835   3.638   2.099
 3655SOL    HW110986   4.775   3.576   2.149
 3655SOL    HW210987   4.866   3.594   2.014
 3656SOL     OW10988   3.926   2.147   3.360
 3656SOL    HW110989   3.846   2.207   3.347
 3656SOL    HW210990   3.916   2.098   3.446
 3657SOL     OW10991   4.188   3.605   2.185
 3657SOL    HW110992   4.221   3.644   2.271
 3657SOL    HW210993   4.264   3.598   2.120
 3658SOL     OW10994   3.973   3.647   3.103
 3658SOL    HW110995   4.030   3.582   3.153
 3658SOL    HW210996   3.957   3.614   3.010
 3659SOL     OW10997   4.664   3.560   2.766
 3659SOL    HW110998   4.744   3.503   2.787
 3659SOL    HW210999   4.615   3.520   2.689
 3660SOL     OW11000   4.106   2.562   2.342
 3660SOL    HW111001   4.151   2.472   2.339
 3660SOL    HW211002   4.012   2.551   2.375
 3661SOL     OW11003   4.338   1.984   1.979
 3661SOL    HW111004   4.436   1.962   1.986
 3661SOL    HW211005   4.307   1.967   1.886
 3662SOL     OW11006   4.505   2.126   3.611
 3662SOL    HW111007   4.572   2.065   3.654
 3662SOL    HW211008   4.432   2.145   3.676
 3663SOL     OW11009   4.612   3.376   3.057
 3663SOL    HW111010   4.589   3.351   2.963
 3663SOL    HW211011   4.673   3.307   3.096
 3664SOL     OW11012   4.527   3.264   2.786
 3664SOL    HW111013   4.617   3.278   2.744
 3664SOL    HW211014   4.456   3.266   2.715
 3665SOL     OW11015   4.646   2.365   2.761
 3665SOL    HW111016   4.621   2.356   2.665
 3665SOL    HW211017   4.694   2.283   2.792
 3666SOL     OW11018   4.263   1.926   2.374
 3666SOL    HW111019   4.182   1.927   2.432
 3666SOL    HW211020   4.266   2.009   2.319
 3667SOL     OW11021   4.021   1.897   2.033
 3667SOL    HW111022   4.070   1.981   2.012
 3667SOL    HW211023   4.083   1.832   2.078
 3668SOL     OW11024   4.659   2.098   2.342
 3668SOL    HW111025   4.611   2.139   2.264
 3668SOL    HW211026   4.758   2.096   2.323
 3669SOL     OW11027   4.800   2.545   3.326
 3669SOL    HW111028   4.720   2.484   3.329
 3669SOL    HW211029   4.881   2.492   3.302
 3670SOL     OW11030   4.951   3.432   2.655
 3670SOL    HW111031   4.972   3.506   2.590
 3670SOL    HW211032   5.019   3.432   2.728
 3671SOL     OW11033   4.183   3.014   2.603
 3671SOL    HW111034   4.112   2.987   2.668
 3671SOL    HW211035   4.157   2.986   2.510
 3672SOL     OW11036   4.995   3.659   2.453
 3672SOL    HW111037   5.039   3.723   2.389
 3672SOL    HW211038   4.945   3.711   2.523
 3673SOL     OW11039   4.756   2.411   1.878
 3673SOL    HW111040   4.715   2.493   1.839
 3673SOL    HW211041   4.820   2.437   1.951
 3674SOL     OW11042   3.802   2.418   3.248
 3674SOL    HW111043   3.894   2.417   3.207
 3674SOL    HW211044   3.796   2.492   3.315
 3675SOL     OW11045   4.285   2.084   3.009
 3675SOL    HW111046   4.323   2.000   3.046
 3675SOL    HW211047   4.197   2.103   3.053
 3676SOL     OW11048   4.590   2.316   2.504
 3676SOL    HW111049   4.558   2.388   2.442
 3676SOL    HW211050   4.614   2.235   2.451
 3677SOL     OW11051   4.741   1.901   2.615
 3677SOL    HW111052   4.669   1.906   2.546
 3677SOL    HW211053   4.717   1.832   2.684
 3678SOL     OW11054   4.212   3.247   2.036
 3678SOL    HW111055   4.125   3.232   2.083
 3678SOL    HW211056   4.195   3.273   1.941
 3679SOL     OW11057   4.251   2.118   2.190
 3679SOL    HW111058   4.278   2.059   2.115
 3679SOL    HW211059   4.251   2.213   2.159
 3680SOL     OW11060   4.788   3.209   3.202
 3680SOL    HW111061   4.708   3.186   3.257
 3680SOL    HW211062   4.871   3.183   3.251
 3681SOL     OW11063   4.835   3.057   2.962
 3681SOL    HW111064   4.795   3.101   3.043
 3681SOL    HW211065   4.794   3.094   2.879
 3682SOL     OW11066   4.639   1.951   3.264
 3682SOL    HW111067   4.664   1.931   3.169
 3682SOL    HW211068   4.711   2.007   3.306
 3683SOL     OW11069   4.704   2.978   3.581
 3683SOL    HW111070   4.605   2.984   3.591
 3683SOL    HW211071   4.727   2.898   3.525
 3684SOL     OW11072   4.429   2.912   2.230
 3684SOL    HW111073   4.415   2.919   2.329
 3684SOL    HW211074   4.513   2.861   2.212
 3685SOL     OW11075   4.134   2.675   3.113
 3685SOL    HW111076   4.220   2.687   3.163
 3685SOL    HW211077   4.092   2.588   3.140
 3686SOL     OW11078   3.788   3.426   3.193
 3686SOL    HW111079   3.742   3.508   3.159
 3686SOL    HW211080   3.886   3.445   3.202
 3687SOL     OW11081   4.091   2.962   2.363
 3687SOL    HW111082   4.084   3.045   2.307
 3687SOL    HW211083   4.095   2.882   2.303
 3688SOL     OW11084   4.290   2.399   2.727
 3688SOL    HW111085   4.302   2.465   2.653
 3688SOL    HW211086   4.336   2.433   2.810
 3689SOL     OW11087   4.976   3.210   2.250
 3689SOL    HW111088   5.026   3.287   2.290
 3689SOL    HW211089   4.881   3.212   2.282
 3690SOL     OW11090   4.078   3.372   3.191
 3690SOL    HW111091   4.057   3.328   3.104
 3690SOL    HW211092   4.175   3.398   3.194
 3691SOL     OW11093   4.126   2.613   3.460
 3691SOL    HW111094   4.194   2.668   3.413
 3691SOL    HW211095   4.166   2.525   3.487
 3692SOL     OW11096   4.737   1.967   3.632
 3692SOL    HW111097   4.743   2.052   3.580
 3692SOL    HW211098   4.769   1.891   3.575
 3693SOL     OW11099   4.228   1.912   3.602
 3693SOL    HW111100   4.186   1.855   3.532
 3693SOL    HW211101   4.162   1.981   3.634
 3694SOL     OW11102   4.297   2.732   2.891
 3694SOL    HW111103   4.341   2.821   2.882
 3694SOL    HW211104   4.234   2.732   2.968
 3695SOL     OW11105   5.084   2.724   2.907
 3695SOL    HW111106   5.009   2.724   2.841
 3695SOL    HW211107   5.121   2.632   2.916
 3696SOL     OW11108   4.933   2.387   2.137
 3696SOL    HW111109   4.946   2.303   2.191
 3696SOL    HW211110   4.904   2.461   2.197
 3697SOL     OW11111   4.031   2.075   3.093
 3697SOL    HW111112   4.008   2.112   3.183
 3697SOL    HW211113   4.001   1.980   3.087
 3698SOL     OW11114   3.761   3.172   3.144
 3698SOL    HW111115   3.814   3.123   3.212
 3698SOL    HW211116   3.783   3.270   3.149
 3699SOL     OW11117   4.456   2.496   2.926
 3699SOL    HW111118   4.515   2.470   2.850
 3699SOL    HW211119   4.428   2.592   2.915
 3700SOL     OW11120   4.031   1.925   2.480
 3700SOL    HW111121   4.020   2.019   2.513
 3700SOL    HW211122   4.026   1.862   2.557
 3701SOL     OW11123   5.346   2.229   2.236
 3701SOL    HW111124   5.348   2.153   2.300
 3701SOL    HW211125   5.298   2.306   2.276
 3702SOL     OW11126   4.747   2.628   2.828
 3702SOL    HW111127   4.762   2.649   2.924
 3702SOL    HW211128   4.717   2.533   2.819
 3703SOL     OW11129   4.704   3.435   3.562
 3703SOL    HW111130   4.684   3.479   3.474
 3703SOL    HW211131   4.743   3.344   3.546
 3704SOL     OW11132   4.074   2.760   3.666
 3704SOL    HW111133   4.150   2.804   3.714
 3704SOL    HW211134   4.109   2.713   3.584
 3705SOL     OW11135   5.264   2.136   1.987
 3705SOL    HW111136   5.203   2.061   2.010
 3705SOL    HW211137   5.286   2.188   2.070
 3706SOL     OW11138   4.792   3.195   2.711
 3706SOL    HW111139   4.799   3.111   2.656
 3706SOL    HW211140   4.854   3.264   2.675
 3707SOL     OW11141   4.043   2.672   2.811
 3707SOL    HW111142   4.136   2.708   2.816
 3707SOL    HW211143   4.037   2.587   2.863
 3708SOL     OW11144   4.063   2.371   2.868
 3708SOL    HW111145   4.011   2.288   2.851
 3708SOL    HW211146   4.140   2.376   2.804
 3709SOL     OW11147   4.862   2.242   3.540
 3709SOL    HW111148   4.817   2.305   3.604
 3709SOL    HW211149   4.955   2.273   3.523
 3710SOL     OW11150   4.884   2.069   3.339
 3710SOL    HW111151   4.884   2.133   3.416
 3710SOL    HW211152   4.912   2.117   3.256
 3711SOL     OW11153   3.732   3.188   2.062
 3711SOL    HW111154   3.639   3.209   2.031
 3711SOL    HW211155   3.742   3.089   2.075
 3712SOL     OW11156   3.812   3.663   2.789
 3712SOL    HW111157   3.770   3.577   2.762
 3712SOL    HW211158   3.906   3.666   2.755
 3713SOL     OW11159   4.228   3.430   2.772
 3713SOL    HW111160   4.294   3.504   2.781
 3713SOL    HW211161   4.272   3.351   2.730
 3714SOL     OW11162   4.726   2.658   3.100
 3714SOL    HW111163   4.767   2.626   3.186
 3714SOL    HW211164   4.630   2.631   3.097
 3715SOL     OW11165   3.764   2.406   2.976
 3715SOL    HW111166   3.849   2.373   2.935
 3715SOL    HW211167   3.777   2.421   3.074
 3716SOL     OW11168   3.913   2.382   3.584
 3716SOL    HW111169   3.972   2.342   3.514
 3716SOL    HW211170   3.855   2.453   3.543
 3717SOL     OW11171   4.539   2.434   2.187
 3717SOL    HW111172   4.546   2.345   2.141
 3717SOL    HW211173   4.445   2.468   2.179
 3718SOL     OW11174   3.976   3.426   3.606
 3718SOL    HW111175   3.946   3.483   3.682
 3718SOL    HW211176   3.969   3.329   3.632
 3719SOL     OW11177   4.395   2.326   3.131
 3719SOL    HW111178   4.361   2.237   3.101
 3719SOL    HW211179   4.421   2.380   3.051
 3720SOL     OW11180   4.654   3.540   3.327
 3720SOL    HW111181   4.630   3.522   3.232
 3720SOL    HW211182   4.684   3.634   3.337
 3721SOL     OW11183   4.197   2.362   2.053
 3721SOL    HW111184   4.258   2.442   2.057
 3721SOL    HW211185   4.102   2.393   2.060
 3722SOL     OW11186   3.883   2.999   3.328
 3722SOL    HW111187   3.905   2.938   3.404
 3722SOL    HW211188   3.893   2.950   3.242
 3723SOL     OW11189   5.071   2.921   3.096
 3723SOL    HW111190   5.095   2.858   3.022
 3723SOL    HW211191   4.981   2.961   3.078
 3724SOL     OW11192   4.976   3.593   2.990
 3724SOL    HW111193   5.060   3.598   2.936
 3724SOL    HW211194   4.953   3.497   3.008
 3725SOL     OW11195   3.807   3.120   2.884
 3725SOL    HW111196   3.802   3.119   2.984
 3725SOL    HW211197   3.724   3.079   2.846
 3726SOL     OW11198   4.412   3.524   3.578
 3726SOL    HW111199   4.356   3.605   3.587
 3726SOL    HW211200   4.464   3.528   3.492
 3727SOL     OW11201   3.854   3.656   3.713
 3727SOL    HW111202   3.813   3.582   3.766
 3727SOL    HW211203   3.918   3.707   3.771
 3728SOL     OW11204   4.554   3.135   3.284
 3728SOL    HW111205   4.549   3.168   3.379
 3728SOL    HW211206   4.468   3.154   3.238
 3729SOL     OW11207   4.396   3.478   2.016
 3729SOL    HW111208   4.405   3.488   1.917
 3729SOL    HW211209   4.356   3.389   2.037
 3730SOL     OW11210   3.987   2.188   2.582
 3730SOL    HW111211   3.908   2.239   2.548
 3730SOL    HW211212   3.978   2.173   2.680
 3731SOL     OW11213   4.546   2.864   3.234
 3731SOL    HW111214   4.586   2.863   3.142
 3731SOL    HW211215   4.556   2.956   3.274
 3732SOL     OW11216   4.640   2.772   2.153
 3732SOL    HW111217   4.703   2.810   2.085
 3732SOL    HW211218   4.680   2.689   2.192
 3733SOL     OW11219   4.096   3.150   3.352
 3733SOL    HW111220   4.083   3.243   3.318
 3733SOL    HW211221   4.012   3.098   3.339
 3734SOL     OW11222   4.763   2.960   2.558
 3734SOL    HW111223   4.693   2.913   2.612
 3734SOL    HW211224   4.822   2.892   2.515
 3735SOL     OW11225   4.738   2.098   2.833
 3735SOL    HW111226   4.730   2.062   2.740
 3735SOL    HW211227   4.736   2.022   2.898
 3736SOL     OW11228   4.314   3.349   2.353
 3736SOL    HW111229   4.356   3.291   2.283
 3736SOL    HW211230   4.270   3.428   2.309
 3737SOL     OW11231   3.979   3.210   2.152
 3737SOL    HW111232   3.883   3.211   2.125
 3737SOL    HW211233   3.991   3.263   2.236
 3738SOL     OW11234   3.829   2.875   3.588
 3738SOL    HW111235   3.752   2.842   3.642
 3738SOL    HW211236   3.914   2.845   3.630
 3739SOL     OW11237   4.396   2.065   3.351
 3739SOL    HW111238   4.486   2.049   3.311
 3739SOL    HW211239   4.404   2.070   3.450
 3740SOL     OW11240   3.799   2.207   1.895
 3740SOL    HW111241   3.707   2.179   1.866
 3740SOL    HW211242   3.830   2.284   1.839
 3741SOL     OW11243   3.796   2.028   2.180
 3741SOL    HW111244   3.779   2.111   2.126
 3741SOL    HW211245   3.886   1.991   2.158
 3742SOL     OW11246   4.337   2.704   3.293
 3742SOL    HW111247   4.393   2.785   3.276
 3742SOL    HW211248   4.396   2.624   3.296
 3743SOL     OW11249   4.440   2.427   3.570
 3743SOL    HW111250   4.459   2.492   3.644
 3743SOL    HW211251   4.500   2.347   3.579
 3744SOL     OW11252   4.114   3.603   3.422
 3744SOL    HW111253   4.023   3.644   3.420
 3744SOL    HW211254   4.107   3.509   3.454
 3745SOL     OW11255   4.318   2.607   2.514
 3745SOL    HW111256   4.368   2.692   2.495
 3745SOL    HW211257   4.230   2.609   2.466
 3746SOL     OW11258   4.583   3.236   1.878
 3746SOL    HW111259   4.537   3.251   1.966
 3746SOL    HW211260   4.627   3.321   1.848
 3747SOL     OW11261   4.385   3.652   2.815
 3747SOL    HW111262   4.339   3.740   2.802
 3747SOL    HW211263   4.484   3.664   2.808
 3748SOL     OW11264   4.583   2.818   2.723
 3748SOL    HW111265   4.637   2.749   2.771
 3748SOL    HW211266   4.551   2.887   2.789
 3749SOL     OW11267   4.807   2.846   1.949
 3749SOL    HW111268   4.784   2.899   1.867
 3749SOL    HW211269   4.888   2.790   1.930
 3750SOL     OW11270   3.945   3.176   3.706
 3750SOL    HW111271   3.880   3.103   3.685
 3750SOL    HW211272   3.949   3.190   3.804
 3751SOL     OW11273   3.803   3.102   2.515
 3751SOL    HW111274   3.802   3.055   2.603
 3751SOL    HW211275   3.885   3.074   2.464
 3752SOL     OW11276   4.396   3.253   3.486
 3752SOL    HW111277   4.318   3.203   3.524
 3752SOL    HW211278   4.393   3.348   3.517
 3753SOL     OW11279   4.152   2.286   2.382
 3753SOL    HW111280   4.182   2.214   2.320
 3753SOL    HW211281   4.113   2.246   2.465
 3754SOL     OW11282   4.041   2.409   3.142
 3754SOL    HW111283   4.079   2.350   3.214
 3754SOL    HW211284   4.081   2.383   3.054
 3755SOL     OW11285   4.536   3.448   2.549
 3755SOL    HW111286   4.568   3.458   2.455
 3755SOL    HW211287   4.457   3.386   2.551
 3756SOL     OW11288   4.725   1.896   3.016
 3756SOL    HW111289   4.662   1.824   2.985
 3756SOL    HW211290   4.818   1.860   3.016
 3757SOL     OW11291   4.494   3.192   2.163
 3757SOL    HW111292   4.448   3.105   2.180
 3757SOL    HW211293   4.585   3.189   2.204
 3758SOL     OW11294   4.342   3.429   3.146
 3758SOL    HW111295   4.337   3.511   3.203
 3758SOL    HW211296   4.431   3.426   3.101
 3759SOL     OW11297   3.763   2.939   2.162
 3759SOL    HW111298   3.862   2.928   2.153
 3759SOL    HW211299   3.723   2.853   2.194
 3760SOL     OW11300   4.599   3.508   2.199
 3760SOL    HW111301   4.522   3.473   2.145
 3760SOL    HW211302   4.567   3.579   2.261
 3761SOL     OW11303   3.954   2.490   3.837
 3761SOL    HW111304   3.861   2.488   3.874
 3761SOL    HW211305   3.955   2.451   3.745
 3762SOL     OW11306   3.949   2.137   4.720
 3762SOL    HW111307   3.984   2.120   4.812
 3762SOL    HW211308   3.861   2.092   4.708
 3763SOL     OW11309   3.743   2.230   4.371
 3763SOL    HW111310   3.661   2.273   4.410
 3763SOL    HW211311   3.715   2.157   4.308
 3764SOL     OW11312   4.293   3.137   4.889
 3764SOL    HW111313   4.200   3.130   4.852
 3764SOL    HW211314   4.304   3.226   4.933
 3765SOL     OW11315   4.859   2.565   4.441
 3765SOL    HW111316   4.916   2.643   4.416
 3765SOL    HW211317   4.799   2.591   4.517
 3766SOL     OW11318   4.492   3.006   4.747
 3766SOL    HW111319   4.414   3.023   4.807
 3766SOL    HW211320   4.526   3.093   4.711
 3767SOL     OW11321   4.409   2.874   4.389
 3767SOL    HW111322   4.478   2.858   4.459
 3767SOL    HW211323   4.336   2.931   4.427
 3768SOL     OW11324   4.059   3.297   4.785
 3768SOL    HW111325   3.981   3.266   4.732
 3768SOL    HW211326   4.117   3.355   4.728
 3769SOL     OW11327   3.955   3.575   4.207
 3769SOL    HW111328   3.989   3.652   4.261
 3769SOL    HW211329   3.999   3.575   4.117
 3770SOL     OW11330   3.954   3.296   4.262
 3770SOL    HW111331   3.928   3.392   4.262
 3770SOL    HW211332   3.883   3.242   4.307
 3771SOL     OW11333   3.964   2.953   4.610
 3771SOL    HW111334   3.978   2.869   4.662
 3771SOL    HW211335   3.909   3.017   4.665
 3772SOL     OW11336   4.330   2.826   3.847
 3772SOL    HW111337   4.337   2.910   3.793
 3772SOL    HW211338   4.376   2.839   3.935
 3773SOL     OW11339   3.846   2.505   4.287
 3773SOL    HW111340   3.801   2.417   4.304
 3773SOL    HW211341   3.845   2.559   4.371
 3774SOL     OW11342   3.751   3.458   3.841
 3774SOL    HW111343   3.732   3.362   3.862
 3774SOL    HW211344   3.718   3.516   3.916
 3775SOL     OW11345   3.837   2.599   5.321
 3775SOL    HW111346   3.925   2.586   5.366
 3775SOL    HW211347   3.824   2.696   5.299
 3776SOL     OW11348   4.337   3.227   4.450
 3776SOL    HW111349   4.288   3.140   4.459
 3776SOL    HW211350   4.314   3.270   4.363
 3777SOL     OW11351   4.533   1.866   4.226
 3777SOL    HW111352   4.573   1.957   4.217
 3777SOL    HW211353   4.433   1.874   4.232
 3778SOL     OW11354   3.921   2.838   4.988
 3778SOL    HW111355   4.010   2.793   4.974
 3778SOL    HW211356   3.848   2.773   4.969
 3779SOL     OW11357   4.322   2.591   3.994
 3779SOL    HW111358   4.346   2.660   3.926
 3779SOL    HW211359   4.244   2.624   4.048
 3780SOL     OW11360   4.765   2.563   4.153
 3780SOL    HW111361   4.791   2.559   4.249
 3780SOL    HW211362   4.680   2.512   4.139
 3781SOL     OW11363   3.800   2.673   4.513
 3781SOL    HW111364   3.899   2.661   4.522
 3781SOL    HW211365   3.776   2.768   4.534
 3782SOL     OW11366   4.589   2.210   3.919
 3782SOL    HW111367   4.648   2.273   3.870
 3782SOL    HW211368   4.608   2.116   3.890
 3783SOL     OW11369   4.274   2.058   4.609
 3783SOL    HW111370   4.269   2.053   4.709
 3783SOL    HW211371   4.276   2.154   4.580
 3784SOL     OW11372   4.732   3.318   4.201
 3784SOL    HW111373   4.686   3.390   4.149
 3784SOL    HW211374   4.728   3.338   4.299
 3785SOL     OW11375   4.075   3.663   4.577
 3785SOL    HW111376   4.125   3.577   4.583
 3785SOL    HW211377   4.140   3.740   4.574
 3786SOL     OW11378   4.045   2.805   3.966
 3786SOL    HW111379   4.127   2.844   3.924
 3786SOL    HW211380   4.018   2.723   3.917
 3787SOL     OW11381   4.835   3.638   3.961
 3787SOL    HW111382   4.775   3.576   4.011
 3787SOL    HW211383   4.866   3.594   3.876
 3788SOL     OW11384   4.188   3.605   4.047
 3788SOL    HW111385   4.221   3.644   4.133
 3788SOL    HW211386   4.264   3.598   3.982
 3789SOL     OW11387   3.973   3.647   4.965
 3789SOL    HW111388   4.030   3.582   5.015
 3789SOL    HW211389   3.957   3.614   4.872
 3790SOL     OW11390   4.664   3.560   4.628
 3790SOL    HW111391   4.744   3.503   4.649
 3790SOL    HW211392   4.615   3.520   4.551
 3791SOL     OW11393   4.106   2.562   4.204
 3791SOL    HW111394   4.151   2.472   4.201
 3791SOL    HW211395   4.012   2.551   4.237
 3792SOL     OW11396   4.338   1.984   3.841
 3792SOL    HW111397   4.436   1.962   3.848
 3792SOL    HW211398   4.307   1.967   3.748
 3793SOL     OW11399   4.527   3.264   4.648
 3793SOL    HW111400   4.617   3.278   4.606
 3793SOL    HW211401   4.456   3.266   4.577
 3794SOL     OW11402   4.646   2.365   4.623
 3794SOL    HW111403   4.621   2.356   4.527
 3794SOL    HW211404   4.694   2.283   4.654
 3795SOL     OW11405   4.263   1.926   4.236
 3795SOL    HW111406   4.182   1.927   4.294
 3795SOL    HW211407   4.266   2.009   4.181
 3796SOL     OW11408   4.021   1.897   3.895
 3796SOL    HW111409   4.070   1.981   3.874
 3796SOL    HW211410   4.083   1.832   3.940
 3797SOL     OW11411   4.659   2.098   4.204
 3797SOL    HW111412   4.611   2.139   4.126
 3797SOL    HW211413   4.758   2.096   4.185
 3798SOL     OW11414   4.951   3.432   4.517
 3798SOL    HW111415   4.972   3.506   4.452
 3798SOL    HW211416   5.019   3.432   4.590
 3799SOL     OW11417   4.183   3.014   4.465
 3799SOL    HW111418   4.112   2.987   4.530
 3799SOL    HW211419   4.157   2.986   4.372
 3800SOL     OW11420   4.995   3.659   4.315
 3800SOL    HW111421   5.039   3.723   4.251
 3800SOL    HW211422   4.945   3.711   4.385
 3801SOL     OW11423   4.756   2.411   3.740
 3801SOL    HW111424   4.715   2.493   3.701
 3801SOL    HW211425   4.820   2.437   3.813
 3802SOL     OW11426   4.285   2.084   4.871
 3802SOL    HW111427   4.323   2.000   4.908
 3802SOL    HW211428   4.197   2.103   4.915
 3803SOL     OW11429   4.590   2.316   4.366
 3803SOL    HW111430   4.558   2.388   4.304
 3803SOL    HW211431   4.614   2.235   4.313
 3804SOL     OW11432   4.741   1.901   4.477
 3804SOL    HW111433   4.669   1.906   4.408
 3804SOL    HW211434   4.717   1.832   4.546
 3805SOL     OW11435   4.212   3.247   3.898
 3805SOL    HW111436   4.125   3.232   3.945
 3805SOL    HW211437   4.195   3.273   3.803
 3806SOL     OW11438   4.251   2.118   4.052
 3806SOL    HW111439   4.278   2.059   3.977
 3806SOL    HW211440   4.251   2.213   4.021
 3807SOL     OW11441   4.835   3.057   4.824
 3807SOL    HW111442   4.795   3.101   4.905
 3807SOL    HW211443   4.794   3.094   4.741
 3808SOL     OW11444   4.429   2.912   4.092
 3808SOL    HW111445   4.415   2.919   4.191
 3808SOL    HW211446   4.513   2.861   4.074
 3809SOL     OW11447   4.134   2.675   4.975
 3809SOL    HW111448   4.220   2.687   5.025
 3809SOL    HW211449   4.092   2.588   5.002
 3810SOL     OW11450   4.091   2.962   4.225
 3810SOL    HW111451   4.084   3.045   4.169
 3810SOL    HW211452   4.095   2.882   4.165
 3811SOL     OW11453   4.290   2.399   4.589
 3811SOL    HW111454   4.302   2.465   4.515
 3811SOL    HW211455   4.336   2.433   4.672
 3812SOL     OW11456   4.976   3.210   4.112
 3812SOL    HW111457   5.026   3.287   4.152
 3812SOL    HW211458   4.881   3.212   4.144
 3813SOL     OW11459   4.078   3.372   5.053
 3813SOL    HW111460   4.057   3.328   4.966
 3813SOL    HW211461   4.175   3.398   5.056
 3814SOL     OW11462   4.297   2.732   4.753
 3814SOL    HW111463   4.341   2.821   4.744
 3814SOL    HW211464   4.234   2.732   4.830
 3815SOL     OW11465   5.084   2.724   4.769
 3815SOL    HW111466   5.009   2.724   4.703
 3815SOL    HW211467   5.121   2.632   4.778
 3816SOL     OW11468   4.933   2.387   3.999
 3816SOL    HW111469   4.946   2.303   4.053
 3816SOL    HW211470   4.904   2.461   4.059
 3817SOL     OW11471   4.031   2.075   4.955
 3817SOL    HW111472   4.008   2.112   5.045
 3817SOL    HW211473   4.001   1.980   4.949
 3818SOL     OW11474   3.761   3.172   5.006
 3818SOL    HW111475   3.814   3.123   5.074
 3818SOL    HW211476   3.783   3.270   5.011
 3819SOL     OW11477   4.456   2.496   4.788
 3819SOL    HW111478   4.515   2.470   4.712
 3819SOL    HW211479   4.428   2.592   4.777
 3820SOL     OW11480   4.031   1.925   4.342
 3820SOL    HW111481   4.020   2.019   4.375
 3820SOL    HW211482   4.026   1.862   4.419
 3821SOL     OW11483   5.346   2.229   4.098
 3821SOL    HW111484   5.348   2.153   4.162
 3821SOL    HW211485   5.298   2.306   4.138
 3822SOL     OW11486   4.747   2.628   4.690
 3822SOL    HW111487   4.762   2.649   4.786
 3822SOL    HW211488   4.717   2.533   4.681
 3823SOL     OW11489   5.264   2.136   3.849
 3823SOL    HW111490   5.203   2.061   3.872
 3823SOL    HW211491   5.286   2.188   3.932
 3824SOL     OW11492   4.792   3.195   4.573
 3824SOL    HW111493   4.799   3.111   4.518
 3824SOL    HW211494   4.854   3.264   4.537
 3825SOL     OW11495   4.043   2.672   4.673
 3825SOL    HW111496   4.136   2.708   4.678
 3825SOL    HW211497   4.037   2.587   4.725
 3826SOL     OW11498   4.063   2.371   4.730
 3826SOL    HW111499   4.011   2.288   4.713
 3826SOL    HW211500   4.140   2.376   4.666
 3827SOL     OW11501   4.884   2.069   5.201
 3827SOL    HW111502   4.884   2.133   5.278
 3827SOL    HW211503   4.912   2.117   5.118
 3828SOL     OW11504   3.732   3.188   3.924
 3828SOL    HW111505   3.639   3.209   3.893
 3828SOL    HW211506   3.742   3.089   3.937
 3829SOL     OW11507   3.812   3.663   4.651
 3829SOL    HW111508   3.770   3.577   4.624
 3829SOL    HW211509   3.906   3.666   4.617
 3830SOL     OW11510   4.228   3.430   4.634
 3830SOL    HW111511   4.294   3.504   4.643
 3830SOL    HW211512   4.272   3.351   4.592
 3831SOL     OW11513   4.726   2.658   4.962
 3831SOL    HW111514   4.767   2.626   5.048
 3831SOL    HW211515   4.630   2.631   4.959
 3832SOL     OW11516   3.764   2.406   4.838
 3832SOL    HW111517   3.849   2.373   4.797
 3832SOL    HW211518   3.777   2.421   4.936
 3833SOL     OW11519   4.539   2.434   4.049
 3833SOL    HW111520   4.546   2.345   4.003
 3833SOL    HW211521   4.445   2.468   4.041
 3834SOL     OW11522   4.395   2.326   4.993
 3834SOL    HW111523   4.361   2.237   4.963
 3834SOL    HW211524   4.421   2.380   4.913
 3835SOL     OW11525   4.654   3.540   5.189
 3835SOL    HW111526   4.630   3.522   5.094
 3835SOL    HW211527   4.684   3.634   5.199
 3836SOL     OW11528   4.197   2.362   3.915
 3836SOL    HW111529   4.258   2.442   3.919
 3836SOL    HW211530   4.102   2.393   3.922
 3837SOL     OW11531   5.071   2.921   4.958
 3837SOL    HW111532   5.095   2.858   4.884
 3837SOL    HW211533   4.981   2.961   4.940
 3838SOL     OW11534   4.976   3.593   4.852
 3838SOL    HW111535   5.060   3.598   4.798
 3838SOL    HW211536   4.953   3.497   4.870
 3839SOL     OW11537   3.807   3.120   4.746
 3839SOL    HW111538   3.802   3.119   4.846
 3839SOL    HW211539   3.724   3.079   4.708
 3840SOL     OW11540   4.396   3.478   3.878
 3840SOL    HW111541   4.405   3.488   3.779
 3840SOL    HW211542   4.356   3.389   3.899
 3841SOL     OW11543   3.987   2.188   4.444
 3841SOL    HW111544   3.908   2.239   4.410
 3841SOL    HW211545   3.978   2.173   4.542
 3842SOL     OW11546   4.546   2.864   5.096
 3842SOL    HW111547   4.586   2.863   5.004
 3842SOL    HW211548   4.556   2.956   5.136
 3843SOL     OW11549   4.640   2.772   4.015
 3843SOL    HW111550   4.703   2.810   3.947
 3843SOL    HW211551   4.680   2.689   4.054
 3844SOL     OW11552   5.338   3.154   5.013
 3844SOL    HW111553   5.398   3.157   5.093
 3844SOL    HW211554   5.263   3.218   5.026
 3845SOL     OW11555   4.763   2.960   4.420
 3845SOL    HW111556   4.693   2.913   4.474
 3845SOL    HW211557   4.822   2.892   4.377
 3846SOL     OW11558   4.738   2.098   4.695
 3846SOL    HW111559   4.730   2.062   4.602
 3846SOL    HW211560   4.736   2.022   4.760
 3847SOL     OW11561   4.314   3.349   4.215
 3847SOL    HW111562   4.356   3.291   4.145
 3847SOL    HW211563   4.270   3.428   4.171
 3848SOL     OW11564   3.979   3.210   4.014
 3848SOL    HW111565   3.883   3.211   3.987
 3848SOL    HW211566   3.991   3.263   4.098
 3849SOL     OW11567   3.799   2.207   3.757
 3849SOL    HW111568   3.707   2.179   3.728
 3849SOL    HW211569   3.830   2.284   3.701
 3850SOL     OW11570   3.796   2.028   4.042
 3850SOL    HW111571   3.779   2.111   3.988
 3850SOL    HW211572   3.886   1.991   4.020
 3851SOL     OW11573   4.318   2.607   4.376
 3851SOL    HW111574   4.368   2.692   4.357
 3851SOL    HW211575   4.230   2.609   4.328
 3852SOL     OW11576   4.583   3.236   3.740
 3852SOL    HW111577   4.537   3.251   3.828
 3852SOL    HW211578   4.627   3.321   3.710
 3853SOL     OW11579   4.385   3.652   4.677
 3853SOL    HW111580   4.339   3.740   4.664
 3853SOL    HW211581   4.484   3.664   4.670
 3854SOL     OW11582   4.583   2.818   4.585
 3854SOL    HW111583   4.637   2.749   4.633
 3854SOL    HW211584   4.551   2.887   4.651
 3855SOL     OW11585   4.807   2.846   3.811
 3855SOL    HW111586   4.784   2.899   3.729
 3855SOL    HW211587   4.888   2.790   3.792
 3856SOL     OW11588   3.803   3.102   4.377
 3856SOL    HW111589   3.802   3.055   4.465
 3856SOL    HW211590   3.885   3.074   4.326
 3857SOL     OW11591   4.152   2.286   4.244
 3857SOL    HW111592   4.182   2.214   4.182
 3857SOL    HW211593   4.113   2.246   4.327
 3858SOL     OW11594   4.536   3.448   4.411
 3858SOL    HW111595   4.568   3.458   4.317
 3858SOL    HW211596   4.457   3.386   4.413
 3859SOL     OW11597   4.725   1.896   4.878
 3859SOL    HW111598   4.662   1.824   4.847
 3859SOL    HW211599   4.818   1.860   4.878
 3860SOL     OW11600   4.494   3.192   4.025
 3860SOL    HW111601   4.448   3.105   4.042
 3860SOL    HW211602   4.585   3.189   4.066
 3861SOL     OW11603   3.763   2.939   4.024
 3861SOL    HW111604   3.862   2.928   4.015
 3861SOL    HW211605   3.723   2.853   4.056
 3862SOL     OW11606   4.599   3.508   4.061
 3862SOL    HW111607   4.522   3.473   4.007
 3862SOL    HW211608   4.567   3.579   4.123
 3863SOL     OW11609   3.954   4.352   0.113
 3863SOL    HW111610   3.861   4.350   0.150
 3863SOL    HW211611   3.955   4.313   0.021
 3864SOL     OW11612   3.949   3.999   0.996
 3864SOL    HW111613   3.984   3.982   1.088
 3864SOL    HW211614   3.861   3.954   0.984
 3865SOL     OW11615   3.743   4.092   0.647
 3865SOL    HW111616   3.661   4.135   0.686
 3865SOL    HW211617   3.715   4.019   0.584
 3866SOL     OW11618   4.859   4.427   0.717
 3866SOL    HW111619   4.916   4.505   0.692
 3866SOL    HW211620   4.799   4.453   0.793
 3867SOL     OW11621   4.492   4.868   1.023
 3867SOL    HW111622   4.414   4.885   1.083
 3867SOL    HW211623   4.526   4.955   0.987
 3868SOL     OW11624   4.574   4.522   1.823
 3868SOL    HW111625   4.570   4.598   1.888
 3868SOL    HW211626   4.596   4.558   1.732
 3869SOL     OW11627   4.409   4.736   0.665
 3869SOL    HW111628   4.478   4.720   0.735
 3869SOL    HW211629   4.336   4.793   0.703
 3870SOL     OW11630   4.410   4.885   1.803
 3870SOL    HW111631   4.470   4.964   1.817
 3870SOL    HW211632   4.324   4.916   1.762
 3871SOL     OW11633   4.059   5.159   1.061
 3871SOL    HW111634   3.981   5.128   1.008
 3871SOL    HW211635   4.117   5.217   1.004
 3872SOL     OW11636   4.162   4.116   1.499
 3872SOL    HW111637   4.244   4.060   1.508
 3872SOL    HW211638   4.081   4.058   1.503
 3873SOL     OW11639   3.964   4.815   0.886
 3873SOL    HW111640   3.978   4.731   0.938
 3873SOL    HW211641   3.909   4.879   0.941
 3874SOL     OW11642   4.330   4.688   0.123
 3874SOL    HW111643   4.337   4.772   0.069
 3874SOL    HW211644   4.376   4.701   0.211
 3875SOL     OW11645   3.846   4.367   0.563
 3875SOL    HW111646   3.801   4.279   0.580
 3875SOL    HW211647   3.845   4.421   0.647
 3876SOL     OW11648   3.837   4.461   1.597
 3876SOL    HW111649   3.925   4.448   1.642
 3876SOL    HW211650   3.824   4.558   1.575
 3877SOL     OW11651   4.533   3.728   0.502
 3877SOL    HW111652   4.573   3.819   0.493
 3877SOL    HW211653   4.433   3.736   0.508
 3878SOL     OW11654   3.921   4.700   1.264
 3878SOL    HW111655   4.010   4.655   1.250
 3878SOL    HW211656   3.848   4.635   1.245
 3879SOL     OW11657   4.041   3.975   1.801
 3879SOL    HW111658   4.112   4.046   1.807
 3879SOL    HW211659   3.953   4.014   1.829
 3880SOL     OW11660   4.322   4.453   0.270
 3880SOL    HW111661   4.346   4.522   0.202
 3880SOL    HW211662   4.244   4.486   0.324
 3881SOL     OW11663   4.531   4.329   1.465
 3881SOL    HW111664   4.484   4.326   1.554
 3881SOL    HW211665   4.480   4.274   1.399
 3882SOL     OW11666   4.697   4.614   1.572
 3882SOL    HW111667   4.743   4.530   1.543
 3882SOL    HW211668   4.641   4.648   1.497
 3883SOL     OW11669   4.715   4.134   1.242
 3883SOL    HW111670   4.638   4.168   1.296
 3883SOL    HW211671   4.681   4.083   1.163
 3884SOL     OW11672   4.765   4.425   0.429
 3884SOL    HW111673   4.791   4.421   0.525
 3884SOL    HW211674   4.680   4.374   0.415
 3885SOL     OW11675   3.800   4.535   0.789
 3885SOL    HW111676   3.899   4.523   0.798
 3885SOL    HW211677   3.776   4.630   0.810
 3886SOL     OW11678   4.589   4.072   0.195
 3886SOL    HW111679   4.648   4.135   0.146
 3886SOL    HW211680   4.608   3.978   0.166
 3887SOL     OW11681   4.274   3.920   0.885
 3887SOL    HW111682   4.269   3.915   0.985
 3887SOL    HW211683   4.276   4.016   0.856
 3888SOL     OW11684   4.045   4.667   0.242
 3888SOL    HW111685   4.127   4.706   0.200
 3888SOL    HW211686   4.018   4.585   0.193
 3889SOL     OW11687   3.926   4.009   1.498
 3889SOL    HW111688   3.846   4.069   1.485
 3889SOL    HW211689   3.916   3.960   1.584
 3890SOL     OW11690   4.106   4.424   0.480
 3890SOL    HW111691   4.151   4.334   0.477
 3890SOL    HW211692   4.012   4.413   0.513
 3891SOL     OW11693   4.338   3.846   0.117
 3891SOL    HW111694   4.436   3.824   0.124
 3891SOL    HW211695   4.307   3.829   0.024
 3892SOL     OW11696   4.505   3.988   1.749
 3892SOL    HW111697   4.572   3.927   1.792
 3892SOL    HW211698   4.432   4.007   1.814
 3893SOL     OW11699   4.527   5.126   0.924
 3893SOL    HW111700   4.617   5.140   0.882
 3893SOL    HW211701   4.456   5.128   0.853
 3894SOL     OW11702   4.646   4.227   0.899
 3894SOL    HW111703   4.621   4.218   0.803
 3894SOL    HW211704   4.694   4.145   0.930
 3895SOL     OW11705   4.263   3.788   0.512
 3895SOL    HW111706   4.182   3.789   0.570
 3895SOL    HW211707   4.266   3.871   0.457
 3896SOL     OW11708   4.021   3.759   0.171
 3896SOL    HW111709   4.070   3.843   0.150
 3896SOL    HW211710   4.083   3.694   0.216
 3897SOL     OW11711   4.659   3.960   0.480
 3897SOL    HW111712   4.611   4.001   0.402
 3897SOL    HW211713   4.758   3.958   0.461
 3898SOL     OW11714   4.800   4.407   1.464
 3898SOL    HW111715   4.720   4.346   1.467
 3898SOL    HW211716   4.881   4.354   1.440
 3899SOL     OW11717   4.183   4.876   0.741
 3899SOL    HW111718   4.112   4.849   0.806
 3899SOL    HW211719   4.157   4.848   0.648
 3900SOL     OW11720   4.756   4.273   0.016
 3900SOL    HW111721   4.715   4.355  -0.023
 3900SOL    HW211722   4.820   4.299   0.089
 3901SOL     OW11723   3.802   4.280   1.386
 3901SOL    HW111724   3.894   4.279   1.345
 3901SOL    HW211725   3.796   4.354   1.453
 3902SOL     OW11726   4.285   3.946   1.147
 3902SOL    HW111727   4.323   3.862   1.184
 3902SOL    HW211728   4.197   3.965   1.191
 3903SOL     OW11729   4.590   4.178   0.642
 3903SOL    HW111730   4.558   4.250   0.580
 3903SOL    HW211731   4.614   4.097   0.589
 3904SOL     OW11732   4.741   3.763   0.753
 3904SOL    HW111733   4.669   3.768   0.684
 3904SOL    HW211734   4.717   3.694   0.822
 3905SOL     OW11735   4.251   3.980   0.328
 3905SOL    HW111736   4.278   3.921   0.253
 3905SOL    HW211737   4.251   4.075   0.297
 3906SOL     OW11738   4.639   3.813   1.402
 3906SOL    HW111739   4.664   3.793   1.307
 3906SOL    HW211740   4.711   3.869   1.444
 3907SOL     OW11741   4.704   4.840   1.719
 3907SOL    HW111742   4.605   4.846   1.729
 3907SOL    HW211743   4.727   4.760   1.663
 3908SOL     OW11744   4.429   4.774   0.368
 3908SOL    HW111745   4.415   4.781   0.467
 3908SOL    HW211746   4.513   4.723   0.350
 3909SOL     OW11747   4.134   4.537   1.251
 3909SOL    HW111748   4.220   4.549   1.301
 3909SOL    HW211749   4.092   4.450   1.278
 3910SOL     OW11750   4.091   4.824   0.501
 3910SOL    HW111751   4.084   4.907   0.445
 3910SOL    HW211752   4.095   4.744   0.441
 3911SOL     OW11753   4.290   4.261   0.865
 3911SOL    HW111754   4.302   4.327   0.791
 3911SOL    HW211755   4.336   4.295   0.948
 3912SOL     OW11756   4.126   4.475   1.598
 3912SOL    HW111757   4.194   4.530   1.551
 3912SOL    HW211758   4.166   4.387   1.625
 3913SOL     OW11759   4.737   3.829   1.770
 3913SOL    HW111760   4.743   3.914   1.718
 3913SOL    HW211761   4.769   3.753   1.713
 3914SOL     OW11762   4.228   3.774   1.740
 3914SOL    HW111763   4.186   3.717   1.670
 3914SOL    HW211764   4.162   3.843   1.772
 3915SOL     OW11765   4.297   4.594   1.029
 3915SOL    HW111766   4.341   4.683   1.020
 3915SOL    HW211767   4.234   4.594   1.106
 3916SOL     OW11768   5.084   4.586   1.045
 3916SOL    HW111769   5.009   4.586   0.979
 3916SOL    HW211770   5.121   4.494   1.054
 3917SOL     OW11771   4.933   4.249   0.275
 3917SOL    HW111772   4.946   4.165   0.329
 3917SOL    HW211773   4.904   4.323   0.335
 3918SOL     OW11774   4.031   3.937   1.231
 3918SOL    HW111775   4.008   3.974   1.321
 3918SOL    HW211776   4.001   3.842   1.225
 3919SOL     OW11777   4.456   4.358   1.064
 3919SOL    HW111778   4.515   4.332   0.988
 3919SOL    HW211779   4.428   4.454   1.053
 3920SOL     OW11780   4.031   3.787   0.618
 3920SOL    HW111781   4.020   3.881   0.651
 3920SOL    HW211782   4.026   3.724   0.695
 3921SOL     OW11783   5.346   4.091   0.374
 3921SOL    HW111784   5.348   4.015   0.438
 3921SOL    HW211785   5.298   4.168   0.414
 3922SOL     OW11786   4.747   4.490   0.966
 3922SOL    HW111787   4.762   4.511   1.062
 3922SOL    HW211788   4.717   4.395   0.957
 3923SOL     OW11789   4.074   4.622   1.804
 3923SOL    HW111790   4.150   4.666   1.852
 3923SOL    HW211791   4.109   4.575   1.722
 3924SOL     OW11792   4.043   4.534   0.949
 3924SOL    HW111793   4.136   4.570   0.954
 3924SOL    HW211794   4.037   4.449   1.001
 3925SOL     OW11795   4.063   4.233   1.006
 3925SOL    HW111796   4.011   4.150   0.989
 3925SOL    HW211797   4.140   4.238   0.942
 3926SOL     OW11798   4.862   4.104   1.678
 3926SOL    HW111799   4.817   4.167   1.742
 3926SOL    HW211800   4.955   4.135   1.661
 3927SOL     OW11801   4.884   3.931   1.477
 3927SOL    HW111802   4.884   3.995   1.554
 3927SOL    HW211803   4.912   3.979   1.394
 3928SOL     OW11804   4.726   4.520   1.238
 3928SOL    HW111805   4.767   4.488   1.324
 3928SOL    HW211806   4.630   4.493   1.235
 3929SOL     OW11807   3.764   4.268   1.114
 3929SOL    HW111808   3.849   4.235   1.073
 3929SOL    HW211809   3.777   4.283   1.212
 3930SOL     OW11810   3.913   4.244   1.722
 3930SOL    HW111811   3.972   4.204   1.652
 3930SOL    HW211812   3.855   4.315   1.681
 3931SOL     OW11813   4.539   4.296   0.325
 3931SOL    HW111814   4.546   4.207   0.279
 3931SOL    HW211815   4.445   4.330   0.317
 3932SOL     OW11816   4.395   4.188   1.269
 3932SOL    HW111817   4.361   4.099   1.239
 3932SOL    HW211818   4.421   4.242   1.189
 3933SOL     OW11819   4.197   4.224   0.191
 3933SOL    HW111820   4.258   4.304   0.195
 3933SOL    HW211821   4.102   4.255   0.198
 3934SOL     OW11822   3.883   4.861   1.466
 3934SOL    HW111823   3.905   4.800   1.542
 3934SOL    HW211824   3.893   4.812   1.380
 3935SOL     OW11825   5.071   4.783   1.234
 3935SOL    HW111826   5.095   4.720   1.160
 3935SOL    HW211827   4.981   4.823   1.216
 3936SOL     OW11828   3.807   4.982   1.022
 3936SOL    HW111829   3.802   4.981   1.122
 3936SOL    HW211830   3.724   4.941   0.984
 3937SOL     OW11831   4.627   3.810   0.133
 3937SOL    HW111832   4.678   3.811   0.047
 3937SOL    HW211833   4.683   3.768   0.204
 3938SOL     OW11834   3.987   4.050   0.720
 3938SOL    HW111835   3.908   4.101   0.686
 3938SOL    HW211836   3.978   4.035   0.818
 3939SOL     OW11837   4.546   4.726   1.372
 3939SOL    HW111838   4.586   4.725   1.280
 3939SOL    HW211839   4.556   4.818   1.412
 3940SOL     OW11840   4.640   4.634   0.291
 3940SOL    HW111841   4.703   4.672   0.223
 3940SOL    HW211842   4.680   4.551   0.330
 3941SOL     OW11843   4.096   5.012   1.490
 3941SOL    HW111844   4.083   5.105   1.456
 3941SOL    HW211845   4.012   4.960   1.477
 3942SOL     OW11846   4.763   4.822   0.696
 3942SOL    HW111847   4.693   4.775   0.750
 3942SOL    HW211848   4.822   4.754   0.653
 3943SOL     OW11849   4.738   3.960   0.971
 3943SOL    HW111850   4.730   3.924   0.878
 3943SOL    HW211851   4.736   3.884   1.036
 3944SOL     OW11852   3.829   4.737   1.726
 3944SOL    HW111853   3.752   4.704   1.780
 3944SOL    HW211854   3.914   4.707   1.768
 3945SOL     OW11855   4.396   3.927   1.489
 3945SOL    HW111856   4.486   3.911   1.449
 3945SOL    HW211857   4.404   3.932   1.588
 3946SOL     OW11858   3.796   3.890   0.318
 3946SOL    HW111859   3.779   3.973   0.264
 3946SOL    HW211860   3.886   3.853   0.296
 3947SOL     OW11861   4.337   4.566   1.431
 3947SOL    HW111862   4.393   4.647   1.414
 3947SOL    HW211863   4.396   4.486   1.434
 3948SOL     OW11864   4.440   4.289   1.708
 3948SOL    HW111865   4.459   4.354   1.782
 3948SOL    HW211866   4.500   4.209   1.717
 3949SOL     OW11867   5.174   4.944   1.633
 3949SOL    HW111868   5.165   4.934   1.732
 3949SOL    HW211869   5.270   4.937   1.607
 3950SOL     OW11870   4.318   4.469   0.652
 3950SOL    HW111871   4.368   4.554   0.633
 3950SOL    HW211872   4.230   4.471   0.604
 3951SOL     OW11873   4.583   4.680   0.861
 3951SOL    HW111874   4.637   4.611   0.909
 3951SOL    HW211875   4.551   4.749   0.927
 3952SOL     OW11876   4.807   4.708   0.087
 3952SOL    HW111877   4.784   4.761   0.005
 3952SOL    HW211878   4.888   4.652   0.068
 3953SOL     OW11879   3.803   4.964   0.653
 3953SOL    HW111880   3.802   4.917   0.741
 3953SOL    HW211881   3.885   4.936   0.602
 3954SOL     OW11882   4.152   4.148   0.520
 3954SOL    HW111883   4.182   4.076   0.458
 3954SOL    HW211884   4.113   4.108   0.603
 3955SOL     OW11885   4.041   4.271   1.280
 3955SOL    HW111886   4.079   4.212   1.352
 3955SOL    HW211887   4.081   4.245   1.192
 3956SOL     OW11888   4.725   3.758   1.154
 3956SOL    HW111889   4.662   3.686   1.123
 3956SOL    HW211890   4.818   3.722   1.154
 3957SOL     OW11891   4.494   5.054   0.301
 3957SOL    HW111892   4.448   4.967   0.318
 3957SOL    HW211893   4.585   5.051   0.342
 3958SOL     OW11894   3.763   4.801   0.300
 3958SOL    HW111895   3.862   4.790   0.291
 3958SOL    HW211896   3.723   4.715   0.332
 3959SOL     OW11897   3.954   4.352   1.975
 3959SOL    HW111898   3.861   4.350   2.012
 3959SOL    HW211899   3.955   4.313   1.883
 3960SOL     OW11900   3.949   3.999   2.858
 3960SOL    HW111901   3.984   3.982   2.950
 3960SOL    HW211902   3.861   3.954   2.846
 3961SOL     OW11903   3.743   4.092   2.509
 3961SOL    HW111904   3.661   4.135   2.548
 3961SOL    HW211905   3.715   4.019   2.446
 3962SOL     OW11906   4.859   4.427   2.579
 3962SOL    HW111907   4.916   4.505   2.554
 3962SOL    HW211908   4.799   4.453   2.655
 3963SOL     OW11909   4.492   4.868   2.885
 3963SOL    HW111910   4.414   4.885   2.945
 3963SOL    HW211911   4.526   4.955   2.849
 3964SOL     OW11912   4.574   4.522   3.685
 3964SOL    HW111913   4.570   4.598   3.750
 3964SOL    HW211914   4.596   4.558   3.594
 3965SOL     OW11915   4.409   4.736   2.527
 3965SOL    HW111916   4.478   4.720   2.597
 3965SOL    HW211917   4.336   4.793   2.565
 3966SOL     OW11918   4.410   4.885   3.665
 3966SOL    HW111919   4.470   4.964   3.679
 3966SOL    HW211920   4.324   4.916   3.624
 3967SOL     OW11921   4.059   5.159   2.923
 3967SOL    HW111922   3.981   5.128   2.870
 3967SOL    HW211923   4.117   5.217   2.866
 3968SOL     OW11924   4.162   4.116   3.361
 3968SOL    HW111925   4.244   4.060   3.370
 3968SOL    HW211926   4.081   4.058   3.365
 3969SOL     OW11927   3.964   4.815   2.748
 3969SOL    HW111928   3.978   4.731   2.800
 3969SOL    HW211929   3.909   4.879   2.803
 3970SOL     OW11930   4.330   4.688   1.985
 3970SOL    HW111931   4.337   4.772   1.931
 3970SOL    HW211932   4.376   4.701   2.073
 3971SOL     OW11933   3.846   4.367   2.425
 3971SOL    HW111934   3.801   4.279   2.442
 3971SOL    HW211935   3.845   4.421   2.509
 3972SOL     OW11936   3.837   4.461   3.459
 3972SOL    HW111937   3.925   4.448   3.504
 3972SOL    HW211938   3.824   4.558   3.437
 3973SOL     OW11939   4.533   3.728   2.364
 3973SOL    HW111940   4.573   3.819   2.355
 3973SOL    HW211941   4.433   3.736   2.370
 3974SOL     OW11942   3.921   4.700   3.126
 3974SOL    HW111943   4.010   4.655   3.112
 3974SOL    HW211944   3.848   4.635   3.107
 3975SOL     OW11945   4.041   3.975   3.663
 3975SOL    HW111946   4.112   4.046   3.669
 3975SOL    HW211947   3.953   4.014   3.691
 3976SOL     OW11948   4.322   4.453   2.132
 3976SOL    HW111949   4.346   4.522   2.064
 3976SOL    HW211950   4.244   4.486   2.186
 3977SOL     OW11951   4.531   4.329   3.327
 3977SOL    HW111952   4.484   4.326   3.416
 3977SOL    HW211953   4.480   4.274   3.261
 3978SOL     OW11954   4.697   4.614   3.434
 3978SOL    HW111955   4.743   4.530   3.405
 3978SOL    HW211956   4.641   4.648   3.359
 3979SOL     OW11957   4.715   4.134   3.104
 3979SOL    HW111958   4.638   4.168   3.158
 3979SOL    HW211959   4.681   4.083   3.025
 3980SOL     OW11960   4.765   4.425   2.291
 3980SOL    HW111961   4.791   4.421   2.387
 3980SOL    HW211962   4.680   4.374   2.277
 3981SOL     OW11963   3.800   4.535   2.651
 3981SOL    HW111964   3.899   4.523   2.660
 3981SOL    HW211965   3.776   4.630   2.672
 3982SOL     OW11966   4.589   4.072   2.057
 3982SOL    HW111967   4.648   4.135   2.008
 3982SOL    HW211968   4.608   3.978   2.028
 3983SOL     OW11969   4.274   3.920   2.747
 3983SOL    HW111970   4.269   3.915   2.847
 3983SOL    HW211971   4.276   4.016   2.718
 3984SOL     OW11972   4.045   4.667   2.104
 3984SOL    HW111973   4.127   4.706   2.062
 3984SOL    HW211974   4.018   4.585   2.055
 3985SOL     OW11975   3.926   4.009   3.360
 3985SOL    HW111976   3.846   4.069   3.347
 3985SOL    HW211977   3.916   3.960   3.446
 3986SOL     OW11978   4.106   4.424   2.342
 3986SOL    HW111979   4.151   4.334   2.339
 3986SOL    HW211980   4.012   4.413   2.375
 3987SOL     OW11981   4.338   3.846   1.979
 3987SOL    HW111982   4.436   3.824   1.986
 3987SOL    HW211983   4.307   3.829   1.886
 3988SOL     OW11984   4.505   3.988   3.611
 3988SOL    HW111985   4.572   3.927   3.654
 3988SOL    HW211986   4.432   4.007   3.676
 3989SOL     OW11987   4.527   5.126   2.786
 3989SOL    HW111988   4.617   5.140   2.744
 3989SOL    HW211989   4.456   5.128   2.715
 3990SOL     OW11990   4.646   4.227   2.761
 3990SOL    HW111991   4.621   4.218   2.665
 3990SOL    HW211992   4.694   4.145   2.792
 3991SOL     OW11993   4.263   3.788   2.374
 3991SOL    HW111994   4.182   3.789   2.432
 3991SOL    HW211995   4.266   3.871   2.319
 3992SOL     OW11996   5.158   4.912   1.903
 3992SOL    HW111997   5.190   4.836   1.960
 3992SOL    HW211998   5.066   4.939   1.933
 3993SOL     OW11999   4.021   3.759   2.033
 3993SOL    HW112000   4.070   3.843   2.012
 3993SOL    HW212001   4.083   3.694   2.078
 3994SOL     OW12002   4.659   3.960   2.342
 3994SOL    HW112003   4.611   4.001   2.264
 3994SOL    HW212004   4.758   3.958   2.323
 3995SOL     OW12005   4.800   4.407   3.326
 3995SOL    HW112006   4.720   4.346   3.329
 3995SOL    HW212007   4.881   4.354   3.302
 3996SOL     OW12008   4.183   4.876   2.603
 3996SOL    HW112009   4.112   4.849   2.668
 3996SOL    HW212010   4.157   4.848   2.510
 3997SOL     OW12011   4.756   4.273   1.878
 3997SOL    HW112012   4.715   4.355   1.839
 3997SOL    HW212013   4.820   4.299   1.951
 3998SOL     OW12014   3.802   4.280   3.248
 3998SOL    HW112015   3.894   4.279   3.207
 3998SOL    HW212016   3.796   4.354   3.315
 3999SOL     OW12017   4.285   3.946   3.009
 3999SOL    HW112018   4.323   3.862   3.046
 3999SOL    HW212019   4.197   3.965   3.053
 4000SOL     OW12020   4.590   4.178   2.504
 4000SOL    HW112021   4.558   4.250   2.442
 4000SOL    HW212022   4.614   4.097   2.451
 4001SOL     OW12023   4.741   3.763   2.615
 4001SOL    HW112024   4.669   3.768   2.546
 4001SOL    HW212025   4.717   3.694   2.684
 4002SOL     OW12026   4.251   3.980   2.190
 4002SOL    HW112027   4.278   3.921   2.115
 4002SOL    HW212028   4.251   4.075   2.159
 4003SOL     OW12029   4.639   3.813   3.264
 4003SOL    HW112030   4.664   3.793   3.169
 4003SOL    HW212031   4.711   3.869   3.306
 4004SOL     OW12032   4.704   4.840   3.581
 4004SOL    HW112033   4.605   4.846   3.591
 4004SOL    HW212034   4.727   4.760   3.525
 4005SOL     OW12035   4.429   4.774   2.230
 4005SOL    HW112036   4.415   4.781   2.329
 4005SOL    HW212037   4.513   4.723   2.212
 4006SOL     OW12038   4.134   4.537   3.113
 4006SOL    HW112039   4.220   4.549   3.163
 4006SOL    HW212040   4.092   4.450   3.140
 4007SOL     OW12041   4.091   4.824   2.363
 4007SOL    HW112042   4.084   4.907   2.307
 4007SOL    HW212043   4.095   4.744   2.303
 4008SOL     OW12044   4.290   4.261   2.727
 4008SOL    HW112045   4.302   4.327   2.653
 4008SOL    HW212046   4.336   4.295   2.810
 4009SOL     OW12047   4.126   4.475   3.460
 4009SOL    HW112048   4.194   4.530   3.413
 4009SOL    HW212049   4.166   4.387   3.487
 4010SOL     OW12050   4.737   3.829   3.632
 4010SOL    HW112051   4.743   3.914   3.580
 4010SOL    HW212052   4.769   3.753   3.575
 4011SOL     OW12053   4.228   3.774   3.602
 4011SOL    HW112054   4.186   3.717   3.532
 4011SOL    HW212055   4.162   3.843   3.634
 4012SOL     OW12056   4.297   4.594   2.891
 4012SOL    HW112057   4.341   4.683   2.882
 4012SOL    HW212058   4.234   4.594   2.968
 4013SOL     OW12059   5.084   4.586   2.907
 4013SOL    HW112060   5.009   4.586   2.841
 4013SOL    HW212061   5.121   4.494   2.916
 4014SOL     OW12062   4.933   4.249   2.137
 4014SOL    HW112063   4.946   4.165   2.191
 4014SOL    HW212064   4.904   4.323   2.197
 4015SOL     OW12065   4.031   3.937   3.093
 4015SOL    HW112066   4.008   3.974   3.183
 4015SOL    HW212067   4.001   3.842   3.087
 4016SOL     OW12068   4.456   4.358   2.926
 4016SOL    HW112069   4.515   4.332   2.850
 4016SOL    HW212070   4.428   4.454   2.915
 4017SOL     OW12071   4.031   3.787   2.480
 4017SOL    HW112072   4.020   3.881   2.513
 4017SOL    HW212073   4.026   3.724   2.557
 4018SOL     OW12074   5.346   4.091   2.236
 4018SOL    HW112075   5.348   4.015   2.300
 4018SOL    HW212076   5.298   4.168   2.276
 4019SOL     OW12077   4.747   4.490   2.828
 4019SOL    HW112078   4.762   4.511   2.924
 4019SOL    HW212079   4.717   4.395   2.819
 4020SOL     OW12080   4.074   4.622   3.666
 4020SOL    HW112081   4.150   4.666   3.714
 4020SOL    HW212082   4.109   4.575   3.584
 4021SOL     OW12083   5.264   3.998   1.987
 4021SOL    HW112084   5.203   3.923   2.010
 4021SOL    HW212085   5.286   4.050   2.070
 4022SOL     OW12086   4.043   4.534   2.811
 4022SOL    HW112087   4.136   4.570   2.816
 4022SOL    HW212088   4.037   4.449   2.863
 4023SOL     OW12089   4.063   4.233   2.868
 4023SOL    HW112090   4.011   4.150   2.851
 4023SOL    HW212091   4.140   4.238   2.804
 4024SOL     OW12092   4.862   4.104   3.540
 4024SOL    HW112093   4.817   4.167   3.604
 4024SOL    HW212094   4.955   4.135   3.523
 4025SOL     OW12095   4.884   3.931   3.339
 4025SOL    HW112096   4.884   3.995   3.416
 4025SOL    HW212097   4.912   3.979   3.256
 4026SOL     OW12098   3.732   5.050   2.062
 4026SOL    HW112099   3.639   5.071   2.031
 4026SOL    HW212100   3.742   4.951   2.075
 4027SOL     OW12101   4.726   4.520   3.100
 4027SOL    HW112102   4.767   4.488   3.186
 4027SOL    HW212103   4.630   4.493   3.097
 4028SOL     OW12104   3.764   4.268   2.976
 4028SOL    HW112105   3.849   4.235   2.935
 4028SOL    HW212106   3.777   4.283   3.074
 4029SOL     OW12107   3.913   4.244   3.584
 4029SOL    HW112108   3.972   4.204   3.514
 4029SOL    HW212109   3.855   4.315   3.543
 4030SOL     OW12110   4.539   4.296   2.187
 4030SOL    HW112111   4.546   4.207   2.141
 4030SOL    HW212112   4.445   4.330   2.179
 4031SOL     OW12113   4.395   4.188   3.131
 4031SOL    HW112114   4.361   4.099   3.101
 4031SOL    HW212115   4.421   4.242   3.051
 4032SOL     OW12116   4.197   4.224   2.053
 4032SOL    HW112117   4.258   4.304   2.057
 4032SOL    HW212118   4.102   4.255   2.060
 4033SOL     OW12119   3.883   4.861   3.328
 4033SOL    HW112120   3.905   4.800   3.404
 4033SOL    HW212121   3.893   4.812   3.242
 4034SOL     OW12122   5.071   4.783   3.096
 4034SOL    HW112123   5.095   4.720   3.022
 4034SOL    HW212124   4.981   4.823   3.078
 4035SOL     OW12125   3.807   4.982   2.884
 4035SOL    HW112126   3.802   4.981   2.984
 4035SOL    HW212127   3.724   4.941   2.846
 4036SOL     OW12128   3.987   4.050   2.582
 4036SOL    HW112129   3.908   4.101   2.548
 4036SOL    HW212130   3.978   4.035   2.680
 4037SOL     OW12131   4.546   4.726   3.234
 4037SOL    HW112132   4.586   4.725   3.142
 4037SOL    HW212133   4.556   4.818   3.274
 4038SOL     OW12134   4.640   4.634   2.153
 4038SOL    HW112135   4.703   4.672   2.085
 4038SOL    HW212136   4.680   4.551   2.192
 4039SOL     OW12137   4.096   5.012   3.352
 4039SOL    HW112138   4.083   5.105   3.318
 4039SOL    HW212139   4.012   4.960   3.339
 4040SOL     OW12140   4.763   4.822   2.558
 4040SOL    HW112141   4.693   4.775   2.612
 4040SOL    HW212142   4.822   4.754   2.515
 4041SOL     OW12143   4.738   3.960   2.833
 4041SOL    HW112144   4.730   3.924   2.740
 4041SOL    HW212145   4.736   3.884   2.898
 4042SOL     OW12146   3.829   4.737   3.588
 4042SOL    HW112147   3.752   4.704   3.642
 4042SOL    HW212148   3.914   4.707   3.630
 4043SOL     OW12149   4.396   3.927   3.351
 4043SOL    HW112150   4.486   3.911   3.311
 4043SOL    HW212151   4.404   3.932   3.450
 4044SOL     OW12152   3.799   4.069   1.895
 4044SOL    HW112153   3.707   4.041   1.866
 4044SOL    HW212154   3.830   4.146   1.839
 4045SOL     OW12155   3.796   3.890   2.180
 4045SOL    HW112156   3.779   3.973   2.126
 4045SOL    HW212157   3.886   3.853   2.158
 4046SOL     OW12158   4.337   4.566   3.293
 4046SOL    HW112159   4.393   4.647   3.276
 4046SOL    HW212160   4.396   4.486   3.296
 4047SOL     OW12161   4.440   4.289   3.570
 4047SOL    HW112162   4.459   4.354   3.644
 4047SOL    HW212163   4.500   4.209   3.579
 4048SOL     OW12164   5.174   4.944   3.495
 4048SOL    HW112165   5.165   4.934   3.594
 4048SOL    HW212166   5.270   4.937   3.469
 4049SOL     OW12167   4.318   4.469   2.514
 4049SOL    HW112168   4.368   4.554   2.495
 4049SOL    HW212169   4.230   4.471   2.466
 4050SOL     OW12170   4.583   4.680   2.723
 4050SOL    HW112171   4.637   4.611   2.771
 4050SOL    HW212172   4.551   4.749   2.789
 4051SOL     OW12173   4.807   4.708   1.949
 4051SOL    HW112174   4.784   4.761   1.867
 4051SOL    HW212175   4.888   4.652   1.930
 4052SOL     OW12176   3.803   4.964   2.515
 4052SOL    HW112177   3.802   4.917   2.603
 4052SOL    HW212178   3.885   4.936   2.464
 4053SOL     OW12179   4.152   4.148   2.382
 4053SOL    HW112180   4.182   4.076   2.320
 4053SOL    HW212181   4.113   4.108   2.465
 4054SOL     OW12182   4.041   4.271   3.142
 4054SOL    HW112183   4.079   4.212   3.214
 4054SOL    HW212184   4.081   4.245   3.054
 4055SOL     OW12185   4.725   3.758   3.016
 4055SOL    HW112186   4.662   3.686   2.985
 4055SOL    HW212187   4.818   3.722   3.016
 4056SOL     OW12188   4.494   5.054   2.163
 4056SOL    HW112189   4.448   4.967   2.180
 4056SOL    HW212190   4.585   5.051   2.204
 4057SOL     OW12191   3.763   4.801   2.162
 4057SOL    HW112192   3.862   4.790   2.153
 4057SOL    HW212193   3.723   4.715   2.194
 4058SOL     OW12194   3.954   4.352   3.837
 4058SOL    HW112195   3.861   4.350   3.874
 4058SOL    HW212196   3.955   4.313   3.745
 4059SOL     OW12197   3.949   3.999   4.720
 4059SOL    HW112198   3.984   3.982   4.812
 4059SOL    HW212199   3.861   3.954   4.708
 4060SOL     OW12200   3.743   4.092   4.371
 4060SOL    HW112201   3.661   4.135   4.410
 4060SOL    HW212202   3.715   4.019   4.308
 4061SOL     OW12203   4.859   4.427   4.441
 4061SOL    HW112204   4.916   4.505   4.416
 4061SOL    HW212205   4.799   4.453   4.517
 4062SOL     OW12206   4.492   4.868   4.747
 4062SOL    HW112207   4.414   4.885   4.807
 4062SOL    HW212208   4.526   4.955   4.711
 4063SOL     OW12209   4.409   4.736   4.389
 4063SOL    HW112210   4.478   4.720   4.459
 4063SOL    HW212211   4.336   4.793   4.427
 4064SOL     OW12212   4.059   5.159   4.785
 4064SOL    HW112213   3.981   5.128   4.732
 4064SOL    HW212214   4.117   5.217   4.728
 4065SOL     OW12215   3.964   4.815   4.610
 4065SOL    HW112216   3.978   4.731   4.662
 4065SOL    HW212217   3.909   4.879   4.665
 4066SOL     OW12218   4.330   4.688   3.847
 4066SOL    HW112219   4.337   4.772   3.793
 4066SOL    HW212220   4.376   4.701   3.935
 4067SOL     OW12221   3.846   4.367   4.287
 4067SOL    HW112222   3.801   4.279   4.304
 4067SOL    HW212223   3.845   4.421   4.371
 4068SOL     OW12224   3.837   4.461   5.321
 4068SOL    HW112225   3.925   4.448   5.366
 4068SOL    HW212226   3.824   4.558   5.299
 4069SOL     OW12227   4.533   3.728   4.226
 4069SOL    HW112228   4.573   3.819   4.217
 4069SOL    HW212229   4.433   3.736   4.232
 4070SOL     OW12230   3.921   4.700   4.988
 4070SOL    HW112231   4.010   4.655   4.974
 4070SOL    HW212232   3.848   4.635   4.969
 4071SOL     OW12233   4.322   4.453   3.994
 4071SOL    HW112234   4.346   4.522   3.926
 4071SOL    HW212235   4.244   4.486   4.048
 4072SOL     OW12236   4.765   4.425   4.153
 4072SOL    HW112237   4.791   4.421   4.249
 4072SOL    HW212238   4.680   4.374   4.139
 4073SOL     OW12239   3.800   4.535   4.513
 4073SOL    HW112240   3.899   4.523   4.522
 4073SOL    HW212241   3.776   4.630   4.534
 4074SOL     OW12242   4.589   4.072   3.919
 4074SOL    HW112243   4.648   4.135   3.870
 4074SOL    HW212244   4.608   3.978   3.890
 4075SOL     OW12245   4.274   3.920   4.609
 4075SOL    HW112246   4.269   3.915   4.709
 4075SOL    HW212247   4.276   4.016   4.580
 4076SOL     OW12248   4.045   4.667   3.966
 4076SOL    HW112249   4.127   4.706   3.924
 4076SOL    HW212250   4.018   4.585   3.917
 4077SOL     OW12251   4.106   4.424   4.204
 4077SOL    HW112252   4.151   4.334   4.201
 4077SOL    HW212253   4.012   4.413   4.237
 4078SOL     OW12254   4.338   3.846   3.841
 4078SOL    HW112255   4.436   3.824   3.848
 4078SOL    HW212256   4.307   3.829   3.748
 4079SOL     OW12257   4.527   5.126   4.648
 4079SOL    HW112258   4.617   5.140   4.606
 4079SOL    HW212259   4.456   5.128   4.577
 4080SOL     OW12260   4.646   4.227   4.623
 4080SOL    HW112261   4.621   4.218   4.527
 4080SOL    HW212262   4.694   4.145   4.654
 4081SOL     OW12263   4.263   3.788   4.236
 4081SOL    HW112264   4.182   3.789   4.294
 4081SOL    HW212265   4.266   3.871   4.181
 4082SOL     OW12266   5.158   4.912   3.765
 4082SOL    HW112267   5.190   4.836   3.822
 4082SOL    HW212268   5.066   4.939   3.795
 4083SOL     OW12269   4.021   3.759   3.895
 4083SOL    HW112270   4.070   3.843   3.874
 4083SOL    HW212271   4.083   3.694   3.940
 4084SOL     OW12272   4.659   3.960   4.204
 4084SOL    HW112273   4.611   4.001   4.126
 4084SOL    HW212274   4.758   3.958   4.185
 4085SOL     OW12275   4.183   4.876   4.465
 4085SOL    HW112276   4.112   4.849   4.530
 4085SOL    HW212277   4.157   4.848   4.372
 4086SOL     OW12278   4.756   4.273   3.740
 4086SOL    HW112279   4.715   4.355   3.701
 4086SOL    HW212280   4.820   4.299   3.813
 4087SOL     OW12281   4.285   3.946   4.871
 4087SOL    HW112282   4.323   3.862   4.908
 4087SOL    HW212283   4.197   3.965   4.915
 4088SOL     OW12284   4.590   4.178   4.366
 4088SOL    HW112285   4.558   4.250   4.304
 4088SOL    HW212286   4.614   4.097   4.313
 4089SOL     OW12287   4.741   3.763   4.477
 4089SOL    HW112288   4.669   3.768   4.408
 4089SOL    HW212289   4.717   3.694   4.546
 4090SOL     OW12290   4.251   3.980   4.052
 4090SOL    HW112291   4.278   3.921   3.977
 4090SOL    HW212292   4.251   4.075   4.021
 4091SOL     OW12293   4.429   4.774   4.092
 4091SOL    HW112294   4.415   4.781   4.191
 4091SOL    HW212295   4.513   4.723   4.074
 4092SOL     OW12296   4.134   4.537   4.975
 4092SOL    HW112297   4.220   4.549   5.025
 4092SOL    HW212298   4.092   4.450   5.002
 4093SOL     OW12299   4.091   4.824   4.225
 4093SOL    HW112300   4.084   4.907   4.169
 4093SOL    HW212301   4.095   4.744   4.165
 4094SOL     OW12302   4.290   4.261   4.589
 4094SOL    HW112303   4.302   4.327   4.515
 4094SOL    HW212304   4.336   4.295   4.672
 4095SOL     OW12305   4.297   4.594   4.753
 4095SOL    HW112306   4.341   4.683   4.744
 4095SOL    HW212307   4.234   4.594   4.830
 4096SOL     OW12308   5.084   4.586   4.769
 4096SOL    HW112309   5.009   4.586   4.703
 4096SOL    HW212310   5.121   4.494   4.778
 4097SOL     OW12311   4.933   4.249   3.999
 4097SOL    HW112312   4.946   4.165   4.053
 4097SOL    HW212313   4.904   4.323   4.059
 4098SOL     OW12314   4.031   3.937   4.955
 4098SOL    HW112315   4.008   3.974   5.045
 4098SOL    HW212316   4.001   3.842   4.949
 4099SOL     OW12317   4.456   4.358   4.788
 4099SOL    HW112318   4.515   4.332   4.712
 4099SOL    HW212319   4.428   4.454   4.777
 4100SOL     OW12320   4.031   3.787   4.342
 4100SOL    HW112321   4.020   3.881   4.375
 4100SOL    HW212322   4.026   3.724   4.419
 4101SOL     OW12323   5.346   4.091   4.098
 4101SOL    HW112324   5.348   4.015   4.162
 4101SOL    HW212325   5.298   4.168   4.138
 4102SOL     OW12326   4.747   4.490   4.690
 4102SOL    HW112327   4.762   4.511   4.786
 4102SOL    HW212328   4.717   4.395   4.681
 4103SOL     OW12329   5.264   3.998   3.849
 4103SOL    HW112330   5.203   3.923   3.872
 4103SOL    HW212331   5.286   4.050   3.932
 4104SOL     OW12332   4.043   4.534   4.673
 4104SOL    HW112333   4.136   4.570   4.678
 4104SOL    HW212334   4.037   4.449   4.725
 4105SOL     OW12335   4.063   4.233   4.730
 4105SOL    HW112336   4.011   4.150   4.713
 4105SOL    HW212337   4.140   4.238   4.666
 4106SOL     OW12338   4.884   3.931   5.201
 4106SOL    HW112339   4.884   3.995   5.278
 4106SOL    HW212340   4.912   3.979   5.118
 4107SOL     OW12341   3.732   5.050   3.924
 4107SOL    HW112342   3.639   5.071   3.893
 4107SOL    HW212343   3.742   4.951   3.937
 4108SOL     OW12344   4.726   4.520   4.962
 4108SOL    HW112345   4.767   4.488   5.048
 4108SOL    HW212346   4.630   4.493   4.959
 4109SOL     OW12347   3.764   4.268   4.838
 4109SOL    HW112348   3.849   4.235   4.797
 4109SOL    HW212349   3.777   4.283   4.936
 4110SOL     OW12350   4.539   4.296   4.049
 4110SOL    HW112351   4.546   4.207   4.003
 4110SOL    HW212352   4.445   4.330   4.041
 4111SOL     OW12353   4.395   4.188   4.993
 4111SOL    HW112354   4.361   4.099   4.963
 4111SOL    HW212355   4.421   4.242   4.913
 4112SOL     OW12356   4.197   4.224   3.915
 4112SOL    HW112357   4.258   4.304   3.919
 4112SOL    HW212358   4.102   4.255   3.922
 4113SOL     OW12359   5.071   4.783   4.958
 4113SOL    HW112360   5.095   4.720   4.884
 4113SOL    HW212361   4.981   4.823   4.940
 4114SOL     OW12362   3.807   4.982   4.746
 4114SOL    HW112363   3.802   4.981   4.846
 4114SOL    HW212364   3.724   4.941   4.708
 4115SOL     OW12365   3.987   4.050   4.444
 4115SOL    HW112366   3.908   4.101   4.410
 4115SOL    HW212367   3.978   4.035   4.542
 4116SOL     OW12368   4.546   4.726   5.096
 4116SOL    HW112369   4.586   4.725   5.004
 4116SOL    HW212370   4.556   4.818   5.136
 4117SOL     OW12371   4.640   4.634   4.015
 4117SOL    HW112372   4.703   4.672   3.947
 4117SOL    HW212373   4.680   4.551   4.054
 4118SOL     OW12374   4.763   4.822   4.420
 4118SOL    HW112375   4.693   4.775   4.474
 4118SOL    HW212376   4.822   4.754   4.377
 4119SOL     OW12377   4.738   3.960   4.695
 4119SOL    HW112378   4.730   3.924   4.602
 4119SOL    HW212379   4.736   3.884   4.760
 4120SOL     OW12380   3.799   4.069   3.757
 4120SOL    HW112381   3.707   4.041   3.728
 4120SOL    HW212382   3.830   4.146   3.701
 4121SOL     OW12383   3.796   3.890   4.042
 4121SOL    HW112384   3.779   3.973   3.988
 4121SOL    HW212385   3.886   3.853   4.020
 4122SOL     OW12386   4.318   4.469   4.376
 4122SOL    HW112387   4.368   4.554   4.357
 4122SOL    HW212388   4.230   4.471   4.328
 4123SOL     OW12389   4.583   4.680   4.585
 4123SOL    HW112390   4.637   4.611   4.633
 4123SOL    HW212391   4.551   4.749   4.651
 4124SOL     OW12392   4.807   4.708   3.811
 4124SOL    HW112393   4.784   4.761   3.729
 4124SOL    HW212394   4.888   4.652   3.792
 4125SOL     OW12395   3.803   4.964   4.377
 4125SOL    HW112396   3.802   4.917   4.465
 4125SOL    HW212397   3.885   4.936   4.326
 4126SOL     OW12398   4.152   4.148   4.244
 4126SOL    HW112399   4.182   4.076   4.182
 4126SOL    HW212400   4.113   4.108   4.327
 4127SOL     OW12401   4.725   3.758   4.878
 4127SOL    HW112402   4.662   3.686   4.847
 4127SOL    HW212403   4.818   3.722   4.878
 4128SOL     OW12404   4.494   5.054   4.025
 4128SOL    HW112405   4.448   4.967   4.042
 4128SOL    HW212406   4.585   5.051   4.066
 4129SOL     OW12407   3.763   4.801   4.024
 4129SOL    HW112408   3.862   4.790   4.015
 4129SOL    HW212409   3.723   4.715   4.056
   5.04072   5.04072   5.04072
