mobley_7913234_GMX.gro created by acpype (v: 2023.10.27) on Wed May 20 23:46:05 2026
   25
    1MOL     C1    1   2.376   2.881   2.308
    1MOL     C2    2   2.651   2.168   2.713
    1MOL     C3    3   2.407   2.809   2.438
    1MOL     C4    4   2.453   2.665   2.413
    1MOL     C5    5   2.489   2.594   2.543
    1MOL     C6    6   2.567   2.390   2.630
    1MOL     C7    7   2.615   2.251   2.591
    1MOL     O1    8   2.731   2.265   2.508
    1MOL     O2    9   2.532   2.462   2.513
    1MOL     H1   10   2.298   2.828   2.252
    1MOL     H2   11   2.341   2.983   2.327
    1MOL     H3   12   2.465   2.886   2.246
    1MOL     H4   13   2.728   2.219   2.773
    1MOL     H5   14   2.564   2.151   2.776
    1MOL     H6   15   2.693   2.071   2.684
    1MOL     H7   16   2.485   2.864   2.492
    1MOL     H8   17   2.318   2.808   2.502
    1MOL     H9   18   2.375   2.609   2.361
    1MOL    H10   19   2.540   2.665   2.346
    1MOL    H11   20   2.570   2.646   2.595
    1MOL    H12   21   2.402   2.588   2.609
    1MOL    H13   22   2.478   2.385   2.694
    1MOL    H14   23   2.646   2.446   2.682
    1MOL    H15   24   2.538   2.201   2.531
    1MOL    H16   25   2.757   2.175   2.483
   5.04072   5.04072   5.04072
