mobley_7913234_GMX.gro created by acpype (v: 2023.10.27) on Wed May 20 23:46:05 2026
 2404
    1MOL     C1    1   2.376   2.881   2.308
    1MOL     C2    2   2.651   2.168   2.713
    1MOL     C3    3   2.407   2.809   2.438
    1MOL     C4    4   2.453   2.665   2.413
    1MOL     C5    5   2.489   2.594   2.543
    1MOL     C6    6   2.567   2.390   2.630
    1MOL     C7    7   2.615   2.251   2.591
    1MOL     O1    8   2.731   2.265   2.508
    1MOL     O2    9   2.532   2.462   2.513
    1MOL     H1   10   2.298   2.828   2.252
    1MOL     H2   11   2.341   2.983   2.327
    1MOL     H3   12   2.465   2.886   2.246
    1MOL     H4   13   2.728   2.219   2.773
    1MOL     H5   14   2.564   2.151   2.776
    1MOL     H6   15   2.693   2.071   2.684
    1MOL     H7   16   2.485   2.864   2.492
    1MOL     H8   17   2.318   2.808   2.502
    1MOL     H9   18   2.375   2.609   2.361
    1MOL    H10   19   2.540   2.665   2.346
    1MOL    H11   20   2.570   2.646   2.595
    1MOL    H12   21   2.402   2.588   2.609
    1MOL    H13   22   2.478   2.385   2.694
    1MOL    H14   23   2.646   2.446   2.682
    1MOL    H15   24   2.538   2.201   2.531
    1MOL    H16   25   2.757   2.175   2.483
   35SOL     OW   26   1.187   1.792   1.616
   35SOL    HW1   27   1.211   1.852   1.540
   35SOL    HW2   28   1.194   1.697   1.586
   95SOL     OW   29   1.754   1.223   1.588
   95SOL    HW1   30   1.845   1.184   1.575
   95SOL    HW2   31   1.762   1.319   1.612
   97SOL     OW   32   1.592   1.629   1.625
   97SOL    HW1   33   1.619   1.663   1.535
   97SOL    HW2   34   1.671   1.591   1.671
  127SOL     OW   35   1.859   1.518   1.605
  127SOL    HW1   36   1.873   1.545   1.510
  127SOL    HW2   37   1.942   1.540   1.658
  152SOL     OW   38   1.759   1.747   1.154
  152SOL    HW1   39   1.820   1.777   1.081
  152SOL    HW2   40   1.721   1.658   1.132
  163SOL     OW   41   1.650   1.720   1.394
  163SOL    HW1   42   1.703   1.730   1.310
  163SOL    HW2   43   1.623   1.810   1.428
  219SOL     OW   44   1.555   1.511   2.565
  219SOL    HW1   45   1.498   1.495   2.646
  219SOL    HW2   46   1.496   1.521   2.485
  227SOL     OW   47   1.460   1.505   3.201
  227SOL    HW1   48   1.484   1.599   3.227
  227SOL    HW2   49   1.444   1.451   3.283
  238SOL     OW   50   1.842   1.767   2.221
  238SOL    HW1   51   1.896   1.738   2.301
  238SOL    HW2   52   1.872   1.857   2.192
  241SOL     OW   53   1.641   1.108   2.294
  241SOL    HW1   54   1.727   1.110   2.242
  241SOL    HW2   55   1.655   1.155   2.382
  248SOL     OW   56   1.187   1.792   3.478
  248SOL    HW1   57   1.211   1.852   3.402
  248SOL    HW2   58   1.194   1.697   3.448
  250SOL     OW   59   1.466   1.417   2.815
  250SOL    HW1   60   1.407   1.423   2.895
  250SOL    HW2   61   1.451   1.329   2.769
  251SOL     OW   62   1.667   1.714   2.434
  251SOL    HW1   63   1.626   1.691   2.346
  251SOL    HW2   64   1.649   1.640   2.499
  254SOL     OW   65   1.576   1.662   2.169
  254SOL    HW1   66   1.665   1.708   2.172
  254SOL    HW2   67   1.555   1.638   2.074
  268SOL     OW   68   1.795   1.066   2.735
  268SOL    HW1   69   1.733   1.051   2.659
  268SOL    HW2   70   1.743   1.077   2.820
  273SOL     OW   71   1.111   1.776   2.099
  273SOL    HW1   72   1.051   1.714   2.149
  273SOL    HW2   73   1.142   1.732   2.014
  275SOL     OW   74   1.632   1.377   1.943
  275SOL    HW1   75   1.600   1.471   1.933
  275SOL    HW2   76   1.556   1.314   1.931
  279SOL     OW   77   0.940   1.698   2.766
  279SOL    HW1   78   1.020   1.641   2.787
  279SOL    HW2   79   0.891   1.658   2.689
  293SOL     OW   80   1.227   1.570   2.655
  293SOL    HW1   81   1.248   1.644   2.590
  293SOL    HW2   82   1.295   1.570   2.728
  295SOL     OW   83   1.271   1.797   2.453
  295SOL    HW1   84   1.315   1.861   2.389
  295SOL    HW2   85   1.221   1.849   2.523
  301SOL     OW   86   1.429   1.173   2.729
  301SOL    HW1   87   1.374   1.089   2.722
  301SOL    HW2   88   1.455   1.202   2.637
  305SOL     OW   89   1.664   1.280   2.519
  305SOL    HW1   90   1.763   1.288   2.533
  305SOL    HW2   91   1.619   1.364   2.550
  308SOL     OW   92   1.754   1.223   3.450
  308SOL    HW1   93   1.845   1.184   3.437
  308SOL    HW2   94   1.762   1.319   3.474
  310SOL     OW   95   1.592   1.629   3.487
  310SOL    HW1   96   1.619   1.663   3.397
  310SOL    HW2   97   1.671   1.591   3.533
  312SOL     OW   98   1.638   1.099   2.941
  312SOL    HW1   99   1.643   1.180   3.000
  312SOL    HW2  100   1.552   1.101   2.890
  321SOL     OW  101   1.252   1.348   2.250
  321SOL    HW1  102   1.302   1.425   2.290
  321SOL    HW2  103   1.157   1.350   2.282
  322SOL     OW  104   1.272   1.445   3.004
  322SOL    HW1  105   1.319   1.458   3.091
  322SOL    HW2  106   1.206   1.371   3.013
  340SOL     OW  107   1.859   1.518   3.467
  340SOL    HW1  108   1.873   1.545   3.372
  340SOL    HW2  109   1.942   1.540   3.520
  365SOL     OW  110   1.759   1.747   3.016
  365SOL    HW1  111   1.820   1.777   2.943
  365SOL    HW2  112   1.721   1.658   2.994
  366SOL     OW  113   1.252   1.731   2.990
  366SOL    HW1  114   1.336   1.736   2.936
  366SOL    HW2  115   1.229   1.635   3.008
  370SOL     OW  116   1.388   1.573   2.339
  370SOL    HW1  117   1.455   1.585   2.265
  370SOL    HW2  118   1.348   1.662   2.362
  375SOL     OW  119   1.650   1.720   3.256
  375SOL    HW1  120   1.703   1.730   3.172
  375SOL    HW2  121   1.623   1.810   3.290
  378SOL     OW  122   1.194   1.612   1.893
  378SOL    HW1  123   1.200   1.519   1.930
  378SOL    HW2  124   1.135   1.612   1.813
  381SOL     OW  125   1.504   1.607   1.906
  381SOL    HW1  126   1.412   1.644   1.913
  381SOL    HW2  127   1.542   1.627   1.816
  383SOL     OW  128   1.614   1.292   3.151
  383SOL    HW1  129   1.674   1.295   3.231
  383SOL    HW2  130   1.539   1.356   3.164
  396SOL     OW  131   1.493   1.767   2.821
  396SOL    HW1  132   1.526   1.831   2.752
  396SOL    HW2  133   1.559   1.761   2.896
  409SOL     OW  134   1.861   1.569   2.713
  409SOL    HW1  135   1.790   1.557   2.643
  409SOL    HW2  136   1.862   1.490   2.773
  415SOL     OW  137   1.705   1.487   2.966
  415SOL    HW1  138   1.612   1.462   2.939
  415SOL    HW2  139   1.731   1.437   3.048
  591SOL     OW  140   1.460   3.367   1.339
  591SOL    HW1  141   1.484   3.461   1.365
  591SOL    HW2  142   1.444   3.313   1.421
  595SOL     OW  143   1.127   3.203   1.690
  595SOL    HW1  144   1.174   3.203   1.778
  595SOL    HW2  145   1.079   3.116   1.679
  600SOL     OW  146   1.594   1.976   1.480
  600SOL    HW1  147   1.576   2.043   1.408
  600SOL    HW2  148   1.591   2.022   1.569
  608SOL     OW  149   1.293   3.090   1.423
  608SOL    HW1  150   1.330   3.017   1.365
  608SOL    HW2  151   1.345   3.095   1.508
  620SOL     OW  152   1.394   2.331   1.674
  620SOL    HW1  153   1.374   2.374   1.762
  620SOL    HW2  154   1.472   2.269   1.683
  627SOL     OW  155   1.719   2.447   1.831
  627SOL    HW1  156   1.693   2.536   1.795
  627SOL    HW2  157   1.717   2.379   1.758
  645SOL     OW  158   1.547   2.084   1.729
  645SOL    HW1  159   1.542   2.121   1.821
  645SOL    HW2  160   1.475   2.015   1.717
  649SOL     OW  161   1.351   2.452   1.433
  649SOL    HW1  162   1.379   2.409   1.518
  649SOL    HW2  163   1.376   2.548   1.434
  656SOL     OW  164   1.076   2.545   1.464
  656SOL    HW1  165   0.996   2.484   1.467
  656SOL    HW2  166   1.157   2.492   1.440
  672SOL     OW  167   1.754   3.085   1.588
  672SOL    HW1  168   1.845   3.046   1.575
  672SOL    HW2  169   1.762   3.181   1.612
  674SOL     OW  170   1.592   3.491   1.625
  674SOL    HW1  171   1.619   3.525   1.535
  674SOL    HW2  172   1.671   3.453   1.671
  676SOL     OW  173   1.638   2.961   1.079
  676SOL    HW1  174   1.643   3.042   1.138
  676SOL    HW2  175   1.552   2.963   1.028
  678SOL     OW  176   0.980   2.978   1.719
  678SOL    HW1  177   0.881   2.984   1.729
  678SOL    HW2  178   1.003   2.898   1.663
  681SOL     OW  179   1.274   2.248   1.262
  681SOL    HW1  180   1.295   2.322   1.326
  681SOL    HW2  181   1.185   2.265   1.219
  690SOL     OW  182   1.587   2.641   1.670
  690SOL    HW1  183   1.495   2.679   1.665
  690SOL    HW2  184   1.647   2.688   1.605
  691SOL     OW  185   1.013   1.967   1.770
  691SOL    HW1  186   1.019   2.052   1.718
  691SOL    HW2  187   1.045   1.891   1.713
  699SOL     OW  188   1.728   2.797   1.854
  699SOL    HW1  189   1.682   2.790   1.765
  699SOL    HW2  190   1.666   2.841   1.920
  704SOL     OW  191   1.859   3.380   1.605
  704SOL    HW1  192   1.873   3.407   1.510
  704SOL    HW2  193   1.942   3.402   1.658
  711SOL     OW  194   1.138   2.242   1.678
  711SOL    HW1  195   1.093   2.305   1.742
  711SOL    HW2  196   1.231   2.273   1.661
  712SOL     OW  197   1.160   2.069   1.477
  712SOL    HW1  198   1.160   2.133   1.554
  712SOL    HW2  199   1.188   2.117   1.394
  719SOL     OW  200   1.369   2.812   1.660
  719SOL    HW1  201   1.408   2.901   1.680
  719SOL    HW2  202   1.379   2.792   1.563
  721SOL     OW  203   1.657   2.466   1.206
  721SOL    HW1  204   1.619   2.397   1.268
  721SOL    HW2  205   1.739   2.430   1.162
  727SOL     OW  206   1.347   2.921   1.234
  727SOL    HW1  207   1.371   2.858   1.160
  727SOL    HW2  208   1.257   2.961   1.216
  740SOL     OW  209   1.650   3.582   1.394
  740SOL    HW1  210   1.703   3.592   1.310
  740SOL    HW2  211   1.623   3.672   1.428
  741SOL     OW  212   1.841   2.037   0.963
  741SOL    HW1  213   1.880   1.952   0.927
  741SOL    HW2  214   1.743   2.039   0.944
  748SOL     OW  215   1.614   3.154   1.289
  748SOL    HW1  216   1.674   3.157   1.369
  748SOL    HW2  217   1.539   3.218   1.302
  752SOL     OW  218   1.709   2.247   1.381
  752SOL    HW1  219   1.782   2.316   1.385
  752SOL    HW2  220   1.737   2.172   1.322
  757SOL     OW  221   1.440   2.718   1.398
  757SOL    HW1  222   1.383   2.770   1.335
  757SOL    HW2  223   1.536   2.730   1.374
  763SOL     OW  224   1.450   3.082   1.633
  763SOL    HW1  225   1.441   3.072   1.732
  763SOL    HW2  226   1.546   3.075   1.607
  765SOL     OW  227   1.674   2.745   1.254
  765SOL    HW1  228   1.647   2.656   1.217
  765SOL    HW2  229   1.675   2.813   1.181
  768SOL     OW  230   1.777   2.204   1.642
  768SOL    HW1  231   1.760   2.235   1.548
  768SOL    HW2  232   1.693   2.167   1.680
  769SOL     OW  233   1.730   2.796   1.517
  769SOL    HW1  234   1.768   2.887   1.532
  769SOL    HW2  235   1.722   2.779   1.418
  778SOL     OW  236   1.824   2.054   1.227
  778SOL    HW1  237   1.820   1.964   1.271
  778SOL    HW2  238   1.827   2.043   1.128
  796SOL     OW  239   1.555   3.373   2.565
  796SOL    HW1  240   1.498   3.357   2.646
  796SOL    HW2  241   1.496   3.383   2.485
  797SOL     OW  242   1.135   2.565   2.579
  797SOL    HW1  243   1.192   2.643   2.554
  797SOL    HW2  244   1.075   2.591   2.655
  798SOL     OW  245   1.755   2.469   2.093
  798SOL    HW1  246   1.743   2.456   1.994
  798SOL    HW2  247   1.725   2.388   2.142
  804SOL     OW  248   1.460   3.367   3.201
  804SOL    HW1  249   1.484   3.461   3.227
  804SOL    HW2  250   1.444   3.313   3.283
  806SOL     OW  251   1.603   2.309   2.599
  806SOL    HW1  252   1.529   2.355   2.549
  806SOL    HW2  253   1.654   2.377   2.652
  813SOL     OW  254   1.594   1.976   3.342
  813SOL    HW1  255   1.576   2.043   3.270
  813SOL    HW2  256   1.591   2.022   3.431
  815SOL     OW  257   1.842   3.629   2.221
  815SOL    HW1  258   1.896   3.600   2.301
  815SOL    HW2  259   1.872   3.719   2.192
  817SOL     OW  260   1.689   2.784   2.474
  817SOL    HW1  261   1.784   2.755   2.482
  817SOL    HW2  262   1.681   2.849   2.399
  818SOL     OW  263   1.641   2.970   2.294
  818SOL    HW1  264   1.727   2.972   2.242
  818SOL    HW2  265   1.655   3.017   2.382
  821SOL     OW  266   1.293   3.090   3.285
  821SOL    HW1  267   1.330   3.017   3.227
  821SOL    HW2  268   1.345   3.095   3.370
  824SOL     OW  269   1.525   2.861   2.052
  824SOL    HW1  270   1.462   2.785   2.065
  824SOL    HW2  271   1.573   2.879   2.138
  827SOL     OW  272   1.466   3.279   2.815
  827SOL    HW1  273   1.407   3.285   2.895
  827SOL    HW2  274   1.451   3.191   2.769
  828SOL     OW  275   1.667   3.576   2.434
  828SOL    HW1  276   1.626   3.553   2.346
  828SOL    HW2  277   1.649   3.502   2.499
  830SOL     OW  278   1.281   2.207   2.806
  830SOL    HW1  279   1.195   2.157   2.793
  830SOL    HW2  280   1.343   2.153   2.862
  831SOL     OW  281   1.576   3.524   2.169
  831SOL    HW1  282   1.665   3.570   2.172
  831SOL    HW2  283   1.555   3.500   2.074
  833SOL     OW  284   1.394   2.331   3.536
  833SOL    HW1  285   1.374   2.374   3.624
  833SOL    HW2  286   1.472   2.269   3.545
  835SOL     OW  287   0.991   2.272   3.104
  835SOL    HW1  288   0.914   2.306   3.158
  835SOL    HW2  289   0.957   2.221   3.025
  836SOL     OW  290   1.041   2.563   2.291
  836SOL    HW1  291   1.067   2.559   2.387
  836SOL    HW2  292   0.956   2.512   2.277
  839SOL     OW  293   0.865   2.210   2.057
  839SOL    HW1  294   0.924   2.273   2.008
  839SOL    HW2  295   0.884   2.116   2.028
  840SOL     OW  296   1.719   2.447   3.693
  840SOL    HW1  297   1.693   2.536   3.657
  840SOL    HW2  298   1.717   2.379   3.620
  841SOL     OW  299   1.362   3.006   2.407
  841SOL    HW1  300   1.445   2.977   2.359
  841SOL    HW2  301   1.313   3.073   2.351
  843SOL     OW  302   1.008   3.318   2.339
  843SOL    HW1  303   0.962   3.390   2.287
  843SOL    HW2  304   1.004   3.338   2.437
  845SOL     OW  305   1.795   2.928   2.735
  845SOL    HW1  306   1.733   2.913   2.659
  845SOL    HW2  307   1.743   2.939   2.820
  846SOL     OW  308   1.227   3.412   3.368
  846SOL    HW1  309   1.233   3.335   3.432
  846SOL    HW2  310   1.175   3.386   3.288
  848SOL     OW  311   1.458   2.597   2.590
  848SOL    HW1  312   1.453   2.532   2.665
  848SOL    HW2  313   1.538   2.656   2.603
  852SOL     OW  314   1.632   3.239   1.943
  852SOL    HW1  315   1.600   3.333   1.933
  852SOL    HW2  316   1.556   3.176   1.931
  854SOL     OW  317   1.400   1.969   2.288
  854SOL    HW1  318   1.376   1.932   2.198
  854SOL    HW2  319   1.499   1.985   2.292
  858SOL     OW  320   1.547   2.084   3.591
  858SOL    HW1  321   1.542   2.121   3.683
  858SOL    HW2  322   1.475   2.015   3.579
  862SOL     OW  323   1.351   2.452   3.295
  862SOL    HW1  324   1.379   2.409   3.380
  862SOL    HW2  325   1.376   2.548   3.296
  864SOL     OW  326   0.922   2.365   2.761
  864SOL    HW1  327   0.897   2.356   2.665
  864SOL    HW2  328   0.970   2.283   2.792
  866SOL     OW  329   1.434   3.050   1.903
  866SOL    HW1  330   1.466   2.974   1.960
  866SOL    HW2  331   1.342   3.077   1.933
  868SOL     OW  332   0.935   2.098   2.342
  868SOL    HW1  333   0.887   2.139   2.264
  868SOL    HW2  334   1.034   2.096   2.323
  869SOL     OW  335   1.076   2.545   3.326
  869SOL    HW1  336   0.996   2.484   3.329
  869SOL    HW2  337   1.157   2.492   3.302
  870SOL     OW  338   1.227   3.432   2.655
  870SOL    HW1  339   1.248   3.506   2.590
  870SOL    HW2  340   1.295   3.432   2.728
  872SOL     OW  341   1.271   3.659   2.453
  872SOL    HW1  342   1.315   3.723   2.389
  872SOL    HW2  343   1.221   3.711   2.523
  873SOL     OW  344   1.032   2.411   1.878
  873SOL    HW1  345   0.991   2.493   1.839
  873SOL    HW2  346   1.096   2.437   1.951
  876SOL     OW  347   0.866   2.316   2.504
  876SOL    HW1  348   0.834   2.388   2.442
  876SOL    HW2  349   0.890   2.235   2.451
  877SOL     OW  350   1.017   1.901   2.615
  877SOL    HW1  351   0.945   1.906   2.546
  877SOL    HW2  352   0.993   1.832   2.684
  878SOL     OW  353   1.429   3.035   2.729
  878SOL    HW1  354   1.374   2.951   2.722
  878SOL    HW2  355   1.455   3.064   2.637
  879SOL     OW  356   1.466   2.452   2.854
  879SOL    HW1  357   1.436   2.357   2.861
  879SOL    HW2  358   1.539   2.468   2.920
  880SOL     OW  359   1.857   2.695   2.239
  880SOL    HW1  360   1.899   2.631   2.303
  880SOL    HW2  361   1.819   2.644   2.161
  882SOL     OW  362   1.664   3.142   2.519
  882SOL    HW1  363   1.763   3.150   2.533
  882SOL    HW2  364   1.619   3.226   2.550
  883SOL     OW  365   1.390   2.437   1.940
  883SOL    HW1  366   1.336   2.416   2.021
  883SOL    HW2  367   1.481   2.396   1.949
  885SOL     OW  368   1.754   3.085   3.450
  885SOL    HW1  369   1.845   3.046   3.437
  885SOL    HW2  370   1.762   3.181   3.474
  886SOL     OW  371   1.064   3.209   3.202
  886SOL    HW1  372   0.984   3.186   3.257
  886SOL    HW2  373   1.147   3.183   3.251
  887SOL     OW  374   1.592   3.491   3.487
  887SOL    HW1  375   1.619   3.525   3.397
  887SOL    HW2  376   1.671   3.453   3.533
  888SOL     OW  377   1.111   3.057   2.962
  888SOL    HW1  378   1.071   3.101   3.043
  888SOL    HW2  379   1.070   3.094   2.879
  889SOL     OW  380   1.638   2.961   2.941
  889SOL    HW1  381   1.643   3.042   3.000
  889SOL    HW2  382   1.552   2.963   2.890
  894SOL     OW  383   1.274   2.248   3.124
  894SOL    HW1  384   1.295   2.322   3.188
  894SOL    HW2  385   1.185   2.265   3.081
  898SOL     OW  386   1.252   3.210   2.250
  898SOL    HW1  387   1.302   3.287   2.290
  898SOL    HW2  388   1.157   3.212   2.282
  899SOL     OW  389   1.272   3.307   3.004
  899SOL    HW1  390   1.319   3.320   3.091
  899SOL    HW2  391   1.206   3.233   3.013
  900SOL     OW  392   1.582   2.501   2.334
  900SOL    HW1  393   1.551   2.562   2.407
  900SOL    HW2  394   1.632   2.553   2.265
  903SOL     OW  395   1.587   2.641   3.532
  903SOL    HW1  396   1.495   2.679   3.527
  903SOL    HW2  397   1.647   2.688   3.467
  907SOL     OW  398   1.360   2.724   2.907
  907SOL    HW1  399   1.285   2.724   2.841
  907SOL    HW2  400   1.397   2.632   2.916
  908SOL     OW  401   1.209   2.387   2.137
  908SOL    HW1  402   1.222   2.303   2.191
  908SOL    HW2  403   1.180   2.461   2.197
  912SOL     OW  404   1.728   2.797   3.716
  912SOL    HW1  405   1.682   2.790   3.627
  912SOL    HW2  406   1.666   2.841   3.782
  914SOL     OW  407   1.622   2.229   2.236
  914SOL    HW1  408   1.624   2.153   2.300
  914SOL    HW2  409   1.574   2.306   2.276
  915SOL     OW  410   1.023   2.628   2.828
  915SOL    HW1  411   1.038   2.649   2.924
  915SOL    HW2  412   0.993   2.533   2.819
  917SOL     OW  413   1.859   3.380   3.467
  917SOL    HW1  414   1.873   3.407   3.372
  917SOL    HW2  415   1.942   3.402   3.520
  919SOL     OW  416   1.540   2.136   1.987
  919SOL    HW1  417   1.479   2.061   2.010
  919SOL    HW2  418   1.562   2.188   2.070
  920SOL     OW  419   1.303   2.700   1.904
  920SOL    HW1  420   1.337   2.607   1.919
  920SOL    HW2  421   1.321   2.727   1.809
  921SOL     OW  422   1.068   3.195   2.711
  921SOL    HW1  423   1.075   3.111   2.656
  921SOL    HW2  424   1.130   3.264   2.675
  924SOL     OW  425   1.138   2.242   3.540
  924SOL    HW1  426   1.093   2.305   3.604
  924SOL    HW2  427   1.231   2.273   3.523
  925SOL     OW  428   1.160   2.069   3.339
  925SOL    HW1  429   1.160   2.133   3.416
  925SOL    HW2  430   1.188   2.117   3.256
  929SOL     OW  431   1.002   2.658   3.100
  929SOL    HW1  432   1.043   2.626   3.186
  929SOL    HW2  433   0.906   2.631   3.097
  932SOL     OW  434   1.369   2.812   3.522
  932SOL    HW1  435   1.408   2.901   3.542
  932SOL    HW2  436   1.379   2.792   3.425
  933SOL     OW  437   0.815   2.434   2.187
  933SOL    HW1  438   0.822   2.345   2.141
  933SOL    HW2  439   0.721   2.468   2.179
  934SOL     OW  440   1.657   2.466   3.068
  934SOL    HW1  441   1.619   2.397   3.130
  934SOL    HW2  442   1.739   2.430   3.024
  940SOL     OW  443   1.347   2.921   3.096
  940SOL    HW1  444   1.371   2.858   3.022
  940SOL    HW2  445   1.257   2.961   3.078
  941SOL     OW  446   1.302   2.717   2.171
  941SOL    HW1  447   1.216   2.686   2.213
  941SOL    HW2  448   1.298   2.703   2.072
  942SOL     OW  449   1.759   3.609   3.016
  942SOL    HW1  450   1.820   3.639   2.943
  942SOL    HW2  451   1.721   3.520   2.994
  943SOL     OW  452   1.252   3.593   2.990
  943SOL    HW1  453   1.336   3.598   2.936
  943SOL    HW2  454   1.229   3.497   3.008
  946SOL     OW  455   1.726   1.997   2.385
  946SOL    HW1  456   1.799   1.980   2.318
  946SOL    HW2  457   1.695   1.910   2.423
  947SOL     OW  458   1.388   3.435   2.339
  947SOL    HW1  459   1.455   3.447   2.265
  947SOL    HW2  460   1.348   3.524   2.362
  949SOL     OW  461   1.280   2.789   2.534
  949SOL    HW1  462   1.340   2.708   2.536
  949SOL    HW2  463   1.320   2.858   2.474
  952SOL     OW  464   1.650   3.582   3.256
  952SOL    HW1  465   1.703   3.592   3.172
  952SOL    HW2  466   1.623   3.672   3.290
  953SOL     OW  467   1.841   2.037   2.825
  953SOL    HW1  468   1.880   1.952   2.789
  953SOL    HW2  469   1.743   2.039   2.806
  955SOL     OW  470   1.194   3.474   1.893
  955SOL    HW1  471   1.200   3.381   1.930
  955SOL    HW2  472   1.135   3.474   1.813
  957SOL     OW  473   0.916   2.772   2.153
  957SOL    HW1  474   0.979   2.810   2.085
  957SOL    HW2  475   0.956   2.689   2.192
  958SOL     OW  476   1.504   3.469   1.906
  958SOL    HW1  477   1.412   3.506   1.913
  958SOL    HW2  478   1.542   3.489   1.816
  960SOL     OW  479   1.614   3.154   3.151
  960SOL    HW1  480   1.674   3.157   3.231
  960SOL    HW2  481   1.539   3.218   3.164
  961SOL     OW  482   1.039   2.960   2.558
  961SOL    HW1  483   0.969   2.913   2.612
  961SOL    HW2  484   1.098   2.892   2.515
  962SOL     OW  485   1.014   2.098   2.833
  962SOL    HW1  486   1.006   2.062   2.740
  962SOL    HW2  487   1.012   2.022   2.898
  964SOL     OW  488   1.709   2.247   3.243
  964SOL    HW1  489   1.782   2.316   3.247
  964SOL    HW2  490   1.737   2.172   3.184
  969SOL     OW  491   1.440   2.718   3.260
  969SOL    HW1  492   1.383   2.770   3.197
  969SOL    HW2  493   1.536   2.730   3.236
  971SOL     OW  494   1.183   3.197   1.981
  971SOL    HW1  495   1.084   3.186   1.983
  971SOL    HW2  496   1.217   3.212   2.074
  973SOL     OW  497   1.493   3.629   2.821
  973SOL    HW1  498   1.526   3.693   2.752
  973SOL    HW2  499   1.559   3.623   2.896
  975SOL     OW  500   1.450   3.082   3.495
  975SOL    HW1  501   1.441   3.072   3.594
  975SOL    HW2  502   1.546   3.075   3.469
  977SOL     OW  503   1.674   2.745   3.116
  977SOL    HW1  504   1.647   2.656   3.079
  977SOL    HW2  505   1.675   2.813   3.043
  978SOL     OW  506   1.225   2.187   2.311
  978SOL    HW1  507   1.290   2.113   2.300
  978SOL    HW2  508   1.245   2.237   2.395
  980SOL     OW  509   1.777   2.204   3.504
  980SOL    HW1  510   1.760   2.235   3.410
  980SOL    HW2  511   1.693   2.167   3.542
  981SOL     OW  512   1.730   2.796   3.379
  981SOL    HW1  513   1.768   2.887   3.394
  981SOL    HW2  514   1.722   2.779   3.280
  984SOL     OW  515   0.859   2.818   2.723
  984SOL    HW1  516   0.913   2.749   2.771
  984SOL    HW2  517   0.827   2.887   2.789
  985SOL     OW  518   1.083   2.846   1.949
  985SOL    HW1  519   1.060   2.899   1.867
  985SOL    HW2  520   1.164   2.790   1.930
  986SOL     OW  521   1.861   3.431   2.713
  986SOL    HW1  522   1.790   3.419   2.643
  986SOL    HW2  523   1.862   3.352   2.773
  990SOL     OW  524   1.824   2.054   3.089
  990SOL    HW1  525   1.820   1.964   3.133
  990SOL    HW2  526   1.827   2.043   2.990
  992SOL     OW  527   1.705   3.349   2.966
  992SOL    HW1  528   1.612   3.324   2.939
  992SOL    HW2  529   1.731   3.299   3.048
  995SOL     OW  530   1.424   2.076   2.974
  995SOL    HW1  531   1.476   2.011   3.029
  995SOL    HW2  532   1.375   2.139   3.035
  996SOL     OW  533   1.001   1.896   3.016
  996SOL    HW1  534   0.938   1.824   2.985
  996SOL    HW2  535   1.094   1.860   3.016
  999SOL     OW  536   1.352   1.914   2.030
  999SOL    HW1  537   1.387   1.873   1.946
  999SOL    HW2  538   1.262   1.876   2.050
 1000SOL     OW  539   1.300   2.315   2.553
 1000SOL    HW1  540   1.241   2.395   2.557
 1000SOL    HW2  541   1.315   2.280   2.646
 1001SOL     OW  542   1.593   2.083   2.744
 1001SOL    HW1  543   1.509   2.082   2.798
 1001SOL    HW2  544   1.595   2.166   2.688
 1010SOL     OW  545   1.755   2.469   3.955
 1010SOL    HW1  546   1.743   2.456   3.856
 1010SOL    HW2  547   1.725   2.388   4.004
 1028SOL     OW  548   1.525   2.861   3.914
 1028SOL    HW1  549   1.462   2.785   3.927
 1028SOL    HW2  550   1.573   2.879   4.000
 1046SOL     OW  551   1.632   3.239   3.805
 1046SOL    HW1  552   1.600   3.333   3.795
 1046SOL    HW2  553   1.556   3.176   3.793
 1056SOL     OW  554   1.434   3.050   3.765
 1056SOL    HW1  555   1.466   2.974   3.822
 1056SOL    HW2  556   1.342   3.077   3.795
 1068SOL     OW  557   1.857   2.695   4.101
 1068SOL    HW1  558   1.899   2.631   4.165
 1068SOL    HW2  559   1.819   2.644   4.023
 1071SOL     OW  560   1.390   2.437   3.802
 1071SOL    HW1  561   1.336   2.416   3.883
 1071SOL    HW2  562   1.481   2.396   3.811
 1093SOL     OW  563   1.540   2.136   3.849
 1093SOL    HW1  564   1.479   2.061   3.872
 1093SOL    HW2  565   1.562   2.188   3.932
 1094SOL     OW  566   1.303   2.700   3.766
 1094SOL    HW1  567   1.337   2.607   3.781
 1094SOL    HW2  568   1.321   2.727   3.671
 1341SOL     OW  569   1.400   3.831   2.288
 1341SOL    HW1  570   1.376   3.794   2.198
 1341SOL    HW2  571   1.499   3.847   2.292
 1408SOL     OW  572   1.726   3.859   2.385
 1408SOL    HW1  573   1.799   3.842   2.318
 1408SOL    HW2  574   1.695   3.772   2.423
 1410SOL     OW  575   1.841   3.899   2.825
 1410SOL    HW1  576   1.880   3.814   2.789
 1410SOL    HW2  577   1.743   3.901   2.806
 1436SOL     OW  578   1.824   3.916   3.089
 1436SOL    HW1  579   1.820   3.826   3.133
 1436SOL    HW2  580   1.827   3.905   2.990
 1442SOL     OW  581   1.352   3.776   2.030
 1442SOL    HW1  582   1.387   3.735   1.946
 1442SOL    HW2  583   1.262   3.738   2.050
 1444SOL     OW  584   1.593   3.945   2.744
 1444SOL    HW1  585   1.509   3.944   2.798
 1444SOL    HW2  586   1.595   4.028   2.688
 1562SOL     OW  587   2.548   1.161   1.803
 1562SOL    HW1  588   2.608   1.240   1.817
 1562SOL    HW2  589   2.462   1.192   1.762
 1564SOL     OW  590   3.322   1.505   1.339
 1564SOL    HW1  591   3.346   1.599   1.365
 1564SOL    HW2  592   3.306   1.451   1.421
 1568SOL     OW  593   2.989   1.341   1.690
 1568SOL    HW1  594   3.036   1.341   1.778
 1568SOL    HW2  595   2.941   1.254   1.679
 1571SOL     OW  596   2.482   1.786   1.439
 1571SOL    HW1  597   2.390   1.769   1.474
 1571SOL    HW2  598   2.510   1.878   1.465
 1585SOL     OW  599   3.049   1.792   1.616
 1585SOL    HW1  600   3.073   1.852   1.540
 1585SOL    HW2  601   3.056   1.697   1.586
 1598SOL     OW  602   1.992   1.821   1.571
 1598SOL    HW1  603   1.982   1.806   1.670
 1598SOL    HW2  604   1.906   1.857   1.535
 1606SOL     OW  605   3.089   1.550   1.506
 1606SOL    HW1  606   3.095   1.473   1.570
 1606SOL    HW2  607   3.037   1.524   1.426
 1609SOL     OW  608   2.323   1.266   1.727
 1609SOL    HW1  609   2.273   1.267   1.641
 1609SOL    HW2  610   2.260   1.248   1.803
 1615SOL     OW  611   2.111   1.785   1.241
 1615SOL    HW1  612   2.168   1.720   1.291
 1615SOL    HW2  613   2.095   1.752   1.148
 1621SOL     OW  614   2.750   1.514   1.195
 1621SOL    HW1  615   2.727   1.489   1.101
 1621SOL    HW2  616   2.811   1.445   1.234
 1646SOL     OW  617   2.926   1.347   1.340
 1646SOL    HW1  618   2.846   1.324   1.395
 1646SOL    HW2  619   3.009   1.321   1.389
 1647SOL     OW  620   3.454   1.629   1.625
 1647SOL    HW1  621   3.481   1.663   1.535
 1647SOL    HW2  622   3.533   1.591   1.671
 1651SOL     OW  623   2.842   1.116   1.719
 1651SOL    HW1  624   2.743   1.122   1.729
 1651SOL    HW2  625   2.865   1.036   1.663
 1655SOL     OW  626   1.926   1.564   1.331
 1655SOL    HW1  627   1.880   1.646   1.297
 1655SOL    HW2  628   2.024   1.583   1.340
 1661SOL     OW  629   2.216   1.510   1.329
 1661SOL    HW1  630   2.195   1.466   1.242
 1661SOL    HW2  631   2.313   1.536   1.332
 1676SOL     OW  632   2.842   1.573   1.700
 1676SOL    HW1  633   2.822   1.617   1.612
 1676SOL    HW2  634   2.881   1.482   1.684
 1694SOL     OW  635   2.114   1.564   1.744
 1694SOL    HW1  636   2.084   1.621   1.820
 1694SOL    HW2  637   2.107   1.467   1.770
 1696SOL     OW  638   2.792   1.678   1.465
 1696SOL    HW1  639   2.768   1.660   1.370
 1696SOL    HW2  640   2.822   1.772   1.475
 1702SOL     OW  641   3.114   1.731   1.128
 1702SOL    HW1  642   3.198   1.736   1.074
 1702SOL    HW2  643   3.091   1.635   1.146
 1704SOL     OW  644   2.550   1.662   1.716
 1704SOL    HW1  645   2.494   1.743   1.725
 1704SOL    HW2  646   2.602   1.666   1.630
 1708SOL     OW  647   1.992   1.794   1.851
 1708SOL    HW1  648   1.951   1.720   1.904
 1708SOL    HW2  649   2.056   1.845   1.909
 1710SOL     OW  650   2.692   1.273   1.422
 1710SOL    HW1  651   2.687   1.306   1.517
 1710SOL    HW2  652   2.606   1.292   1.376
 1712SOL     OW  653   3.512   1.720   1.394
 1712SOL    HW1  654   3.565   1.730   1.310
 1712SOL    HW2  655   3.485   1.810   1.428
 1719SOL     OW  656   2.234   1.288   1.490
 1719SOL    HW1  657   2.221   1.381   1.456
 1719SOL    HW2  658   2.150   1.236   1.477
 1726SOL     OW  659   1.967   1.013   1.726
 1726SOL    HW1  660   1.890   0.980   1.780
 1726SOL    HW2  661   2.052   0.983   1.768
 1734SOL     OW  662   3.312   1.220   1.633
 1734SOL    HW1  663   3.303   1.210   1.732
 1734SOL    HW2  664   3.408   1.213   1.607
 1735SOL     OW  665   2.252   1.741   1.560
 1735SOL    HW1  666   2.161   1.782   1.558
 1735SOL    HW2  667   2.245   1.647   1.592
 1742SOL     OW  668   2.523   1.790   0.953
 1742SOL    HW1  669   2.477   1.878   0.940
 1742SOL    HW2  670   2.622   1.802   0.946
 1746SOL     OW  671   2.083   1.314   1.844
 1746SOL    HW1  672   2.018   1.241   1.823
 1746SOL    HW2  673   2.087   1.328   1.942
 1748SOL     OW  674   2.534   1.391   1.624
 1748SOL    HW1  675   2.456   1.341   1.662
 1748SOL    HW2  676   2.531   1.486   1.655
 1757SOL     OW  677   2.480   1.567   1.284
 1757SOL    HW1  678   2.475   1.649   1.341
 1757SOL    HW2  679   2.569   1.564   1.239
 1766SOL     OW  680   2.431   1.275   3.027
 1766SOL    HW1  681   2.338   1.268   2.990
 1766SOL    HW2  682   2.442   1.364   3.071
 1767SOL     OW  683   3.417   1.511   2.565
 1767SOL    HW1  684   3.360   1.495   2.646
 1767SOL    HW2  685   3.358   1.521   2.485
 1770SOL     OW  686   2.630   1.144   2.885
 1770SOL    HW1  687   2.552   1.161   2.945
 1770SOL    HW2  688   2.664   1.231   2.849
 1772SOL     OW  689   2.547   1.012   2.527
 1772SOL    HW1  690   2.616   0.996   2.597
 1772SOL    HW2  691   2.474   1.069   2.565
 1773SOL     OW  692   2.548   1.161   3.665
 1773SOL    HW1  693   2.608   1.240   3.679
 1773SOL    HW2  694   2.462   1.192   3.624
 1774SOL     OW  695   2.197   1.435   2.923
 1774SOL    HW1  696   2.119   1.404   2.870
 1774SOL    HW2  697   2.255   1.493   2.866
 1775SOL     OW  698   3.322   1.505   3.201
 1775SOL    HW1  699   3.346   1.599   3.227
 1775SOL    HW2  700   3.306   1.451   3.283
 1778SOL     OW  701   2.093   1.713   2.345
 1778SOL    HW1  702   2.127   1.790   2.399
 1778SOL    HW2  703   2.137   1.713   2.255
 1779SOL     OW  704   2.989   1.341   3.552
 1779SOL    HW1  705   3.036   1.341   3.640
 1779SOL    HW2  706   2.941   1.254   3.541
 1780SOL     OW  707   2.092   1.434   2.400
 1780SOL    HW1  708   2.066   1.530   2.400
 1780SOL    HW2  709   2.021   1.380   2.445
 1781SOL     OW  710   2.102   1.091   2.748
 1781SOL    HW1  711   2.116   1.007   2.800
 1781SOL    HW2  712   2.047   1.155   2.803
 1782SOL     OW  713   2.482   1.786   3.301
 1782SOL    HW1  714   2.390   1.769   3.336
 1782SOL    HW2  715   2.510   1.878   3.327
 1783SOL     OW  716   2.468   0.964   1.985
 1783SOL    HW1  717   2.475   1.048   1.931
 1783SOL    HW2  718   2.514   0.977   2.073
 1786SOL     OW  719   3.704   1.767   2.221
 1786SOL    HW1  720   3.758   1.738   2.301
 1786SOL    HW2  721   3.734   1.857   2.192
 1787SOL     OW  722   1.889   1.596   1.979
 1787SOL    HW1  723   1.870   1.500   2.000
 1787SOL    HW2  724   1.856   1.654   2.054
 1789SOL     OW  725   3.503   1.108   2.294
 1789SOL    HW1  726   3.589   1.110   2.242
 1789SOL    HW2  727   3.517   1.155   2.382
 1791SOL     OW  728   2.475   1.365   2.588
 1791SOL    HW1  729   2.426   1.278   2.597
 1791SOL    HW2  730   2.452   1.408   2.501
 1792SOL     OW  731   3.155   1.228   3.285
 1792SOL    HW1  732   3.192   1.155   3.227
 1792SOL    HW2  733   3.207   1.233   3.370
 1794SOL     OW  734   2.059   0.976   3.126
 1794SOL    HW1  735   2.148   0.931   3.112
 1794SOL    HW2  736   1.986   0.911   3.107
 1796SOL     OW  737   3.049   1.792   3.478
 1796SOL    HW1  738   3.073   1.852   3.402
 1796SOL    HW2  739   3.056   1.697   3.448
 1798SOL     OW  740   3.328   1.417   2.815
 1798SOL    HW1  741   3.269   1.423   2.895
 1798SOL    HW2  742   3.313   1.329   2.769
 1799SOL     OW  743   3.529   1.714   2.434
 1799SOL    HW1  744   3.488   1.691   2.346
 1799SOL    HW2  745   3.511   1.640   2.499
 1802SOL     OW  746   3.438   1.662   2.169
 1802SOL    HW1  747   3.527   1.708   2.172
 1802SOL    HW2  748   3.417   1.638   2.074
 1809SOL     OW  749   1.992   1.821   3.433
 1809SOL    HW1  750   1.982   1.806   3.532
 1809SOL    HW2  751   1.906   1.857   3.397
 1812SOL     OW  752   3.224   1.144   2.407
 1812SOL    HW1  753   3.307   1.115   2.359
 1812SOL    HW2  754   3.175   1.211   2.351
 1814SOL     OW  755   2.870   1.456   2.339
 1814SOL    HW1  756   2.824   1.528   2.287
 1814SOL    HW2  757   2.866   1.476   2.437
 1815SOL     OW  758   2.213   1.801   2.715
 1815SOL    HW1  759   2.263   1.715   2.721
 1815SOL    HW2  760   2.278   1.878   2.712
 1817SOL     OW  761   3.089   1.550   3.368
 1817SOL    HW1  762   3.095   1.473   3.432
 1817SOL    HW2  763   3.037   1.524   3.288
 1818SOL     OW  764   2.183   0.943   2.104
 1818SOL    HW1  765   2.265   0.982   2.062
 1818SOL    HW2  766   2.156   0.861   2.055
 1820SOL     OW  767   2.323   1.266   3.589
 1820SOL    HW1  768   2.273   1.267   3.503
 1820SOL    HW2  769   2.260   1.248   3.665
 1821SOL     OW  770   2.973   1.776   2.099
 1821SOL    HW1  771   2.913   1.714   2.149
 1821SOL    HW2  772   3.004   1.732   2.014
 1823SOL     OW  773   3.494   1.377   1.943
 1823SOL    HW1  774   3.462   1.471   1.933
 1823SOL    HW2  775   3.418   1.314   1.931
 1824SOL     OW  776   2.326   1.743   2.185
 1824SOL    HW1  777   2.359   1.782   2.271
 1824SOL    HW2  778   2.402   1.736   2.120
 1826SOL     OW  779   2.111   1.785   3.103
 1826SOL    HW1  780   2.168   1.720   3.153
 1826SOL    HW2  781   2.095   1.752   3.010
 1827SOL     OW  782   2.802   1.698   2.766
 1827SOL    HW1  783   2.882   1.641   2.787
 1827SOL    HW2  784   2.753   1.658   2.689
 1832SOL     OW  785   2.750   1.514   3.057
 1832SOL    HW1  786   2.727   1.489   2.963
 1832SOL    HW2  787   2.811   1.445   3.096
 1834SOL     OW  788   2.665   1.402   2.786
 1834SOL    HW1  789   2.755   1.416   2.744
 1834SOL    HW2  790   2.594   1.404   2.715
 1837SOL     OW  791   3.296   1.188   1.903
 1837SOL    HW1  792   3.328   1.112   1.960
 1837SOL    HW2  793   3.204   1.215   1.933
 1841SOL     OW  794   3.089   1.570   2.655
 1841SOL    HW1  795   3.110   1.644   2.590
 1841SOL    HW2  796   3.157   1.570   2.728
 1842SOL     OW  797   2.321   1.152   2.603
 1842SOL    HW1  798   2.250   1.125   2.668
 1842SOL    HW2  799   2.295   1.124   2.510
 1843SOL     OW  800   3.133   1.797   2.453
 1843SOL    HW1  801   3.177   1.861   2.389
 1843SOL    HW2  802   3.083   1.849   2.523
 1849SOL     OW  803   3.291   1.173   2.729
 1849SOL    HW1  804   3.236   1.089   2.722
 1849SOL    HW2  805   3.317   1.202   2.637
 1852SOL     OW  806   2.350   1.385   2.036
 1852SOL    HW1  807   2.263   1.370   2.083
 1852SOL    HW2  808   2.333   1.411   1.941
 1853SOL     OW  809   3.526   1.280   2.519
 1853SOL    HW1  810   3.625   1.288   2.533
 1853SOL    HW2  811   3.481   1.364   2.550
 1857SOL     OW  812   2.926   1.347   3.202
 1857SOL    HW1  813   2.846   1.324   3.257
 1857SOL    HW2  814   3.009   1.321   3.251
 1858SOL     OW  815   3.454   1.629   3.487
 1858SOL    HW1  816   3.481   1.663   3.397
 1858SOL    HW2  817   3.533   1.591   3.533
 1859SOL     OW  818   2.973   1.195   2.962
 1859SOL    HW1  819   2.933   1.239   3.043
 1859SOL    HW2  820   2.932   1.232   2.879
 1860SOL     OW  821   3.500   1.099   2.941
 1860SOL    HW1  822   3.505   1.180   3.000
 1860SOL    HW2  823   3.414   1.101   2.890
 1862SOL     OW  824   2.842   1.116   3.581
 1862SOL    HW1  825   2.743   1.122   3.591
 1862SOL    HW2  826   2.865   1.036   3.525
 1863SOL     OW  827   2.567   1.050   2.230
 1863SOL    HW1  828   2.553   1.057   2.329
 1863SOL    HW2  829   2.651   0.999   2.212
 1866SOL     OW  830   1.926   1.564   3.193
 1866SOL    HW1  831   1.880   1.646   3.159
 1866SOL    HW2  832   2.024   1.583   3.202
 1867SOL     OW  833   2.229   1.100   2.363
 1867SOL    HW1  834   2.222   1.183   2.307
 1867SOL    HW2  835   2.233   1.020   2.303
 1869SOL     OW  836   3.114   1.348   2.250
 1869SOL    HW1  837   3.164   1.425   2.290
 1869SOL    HW2  838   3.019   1.350   2.282
 1870SOL     OW  839   3.134   1.445   3.004
 1870SOL    HW1  840   3.181   1.458   3.091
 1870SOL    HW2  841   3.068   1.371   3.013
 1872SOL     OW  842   2.216   1.510   3.191
 1872SOL    HW1  843   2.195   1.466   3.104
 1872SOL    HW2  844   2.313   1.536   3.194
 1877SOL     OW  845   2.435   0.870   2.891
 1877SOL    HW1  846   2.479   0.959   2.882
 1877SOL    HW2  847   2.372   0.870   2.968
 1881SOL     OW  848   1.899   1.310   3.144
 1881SOL    HW1  849   1.952   1.261   3.212
 1881SOL    HW2  850   1.921   1.408   3.149
 1887SOL     OW  851   2.842   1.573   3.562
 1887SOL    HW1  852   2.822   1.617   3.474
 1887SOL    HW2  853   2.881   1.482   3.546
 1892SOL     OW  854   2.930   1.333   2.711
 1892SOL    HW1  855   2.937   1.249   2.656
 1892SOL    HW2  856   2.992   1.402   2.675
 1893SOL     OW  857   2.181   0.810   2.811
 1893SOL    HW1  858   2.274   0.846   2.816
 1893SOL    HW2  859   2.175   0.725   2.863
 1897SOL     OW  860   1.870   1.326   2.062
 1897SOL    HW1  861   1.777   1.347   2.031
 1897SOL    HW2  862   1.880   1.227   2.075
 1898SOL     OW  863   1.950   1.801   2.789
 1898SOL    HW1  864   1.908   1.715   2.762
 1898SOL    HW2  865   2.044   1.804   2.755
 1899SOL     OW  866   2.366   1.568   2.772
 1899SOL    HW1  867   2.432   1.642   2.781
 1899SOL    HW2  868   2.410   1.489   2.730
 1906SOL     OW  869   2.114   1.564   3.606
 1906SOL    HW1  870   2.084   1.621   3.682
 1906SOL    HW2  871   2.107   1.467   3.632
 1908SOL     OW  872   2.792   1.678   3.327
 1908SOL    HW1  873   2.768   1.660   3.232
 1908SOL    HW2  874   2.822   1.772   3.337
 1910SOL     OW  875   2.021   1.137   3.328
 1910SOL    HW1  876   2.043   1.076   3.404
 1910SOL    HW2  877   2.031   1.088   3.242
 1911SOL     OW  878   3.209   1.059   3.096
 1911SOL    HW1  879   3.233   0.996   3.022
 1911SOL    HW2  880   3.119   1.099   3.078
 1913SOL     OW  881   3.621   1.747   3.016
 1913SOL    HW1  882   3.682   1.777   2.943
 1913SOL    HW2  883   3.583   1.658   2.994
 1914SOL     OW  884   3.114   1.731   2.990
 1914SOL    HW1  885   3.198   1.736   2.936
 1914SOL    HW2  886   3.091   1.635   3.008
 1915SOL     OW  887   1.945   1.258   2.884
 1915SOL    HW1  888   1.940   1.257   2.984
 1915SOL    HW2  889   1.862   1.217   2.846
 1916SOL     OW  890   2.550   1.662   3.578
 1916SOL    HW1  891   2.494   1.743   3.587
 1916SOL    HW2  892   2.602   1.666   3.492
 1918SOL     OW  893   3.250   1.573   2.339
 1918SOL    HW1  894   3.317   1.585   2.265
 1918SOL    HW2  895   3.210   1.662   2.362
 1919SOL     OW  896   1.992   1.794   3.713
 1919SOL    HW1  897   1.951   1.720   3.766
 1919SOL    HW2  898   2.056   1.845   3.771
 1920SOL     OW  899   3.142   0.927   2.534
 1920SOL    HW1  900   3.202   0.846   2.536
 1920SOL    HW2  901   3.182   0.996   2.474
 1921SOL     OW  902   2.692   1.273   3.284
 1921SOL    HW1  903   2.687   1.306   3.379
 1921SOL    HW2  904   2.606   1.292   3.238
 1922SOL     OW  905   2.534   1.616   2.016
 1922SOL    HW1  906   2.543   1.626   1.917
 1922SOL    HW2  907   2.494   1.527   2.037
 1923SOL     OW  908   3.512   1.720   3.256
 1923SOL    HW1  909   3.565   1.730   3.172
 1923SOL    HW2  910   3.485   1.810   3.290
 1926SOL     OW  911   3.056   1.612   1.893
 1926SOL    HW1  912   3.062   1.519   1.930
 1926SOL    HW2  913   2.997   1.612   1.813
 1927SOL     OW  914   2.684   1.002   3.234
 1927SOL    HW1  915   2.724   1.001   3.142
 1927SOL    HW2  916   2.694   1.094   3.274
 1928SOL     OW  917   2.778   0.910   2.153
 1928SOL    HW1  918   2.841   0.948   2.085
 1928SOL    HW2  919   2.818   0.827   2.192
 1929SOL     OW  920   3.366   1.607   1.906
 1929SOL    HW1  921   3.274   1.644   1.913
 1929SOL    HW2  922   3.404   1.627   1.816
 1930SOL     OW  923   2.234   1.288   3.352
 1930SOL    HW1  924   2.221   1.381   3.318
 1930SOL    HW2  925   2.150   1.236   3.339
 1931SOL     OW  926   3.476   1.292   3.151
 1931SOL    HW1  927   3.536   1.295   3.231
 1931SOL    HW2  928   3.401   1.356   3.164
 1932SOL     OW  929   2.901   1.098   2.558
 1932SOL    HW1  930   2.831   1.051   2.612
 1932SOL    HW2  931   2.960   1.030   2.515
 1934SOL     OW  932   2.452   1.487   2.353
 1934SOL    HW1  933   2.494   1.429   2.283
 1934SOL    HW2  934   2.408   1.566   2.309
 1936SOL     OW  935   2.117   1.348   2.152
 1936SOL    HW1  936   2.021   1.349   2.125
 1936SOL    HW2  937   2.129   1.401   2.236
 1942SOL     OW  938   3.045   1.335   1.981
 1942SOL    HW1  939   2.946   1.324   1.983
 1942SOL    HW2  940   3.079   1.350   2.074
 1944SOL     OW  941   3.355   1.767   2.821
 1944SOL    HW1  942   3.388   1.831   2.752
 1944SOL    HW2  943   3.421   1.761   2.896
 1947SOL     OW  944   2.252   1.741   3.422
 1947SOL    HW1  945   2.161   1.782   3.420
 1947SOL    HW2  946   2.245   1.647   3.454
 1950SOL     OW  947   2.456   0.745   2.514
 1950SOL    HW1  948   2.506   0.830   2.495
 1950SOL    HW2  949   2.368   0.747   2.466
 1953SOL     OW  950   2.721   1.374   1.878
 1953SOL    HW1  951   2.675   1.389   1.966
 1953SOL    HW2  952   2.765   1.459   1.848
 1954SOL     OW  953   2.523   1.790   2.815
 1954SOL    HW1  954   2.477   1.878   2.802
 1954SOL    HW2  955   2.622   1.802   2.808
 1955SOL     OW  956   2.721   0.956   2.723
 1955SOL    HW1  957   2.775   0.887   2.771
 1955SOL    HW2  958   2.689   1.025   2.789
 1956SOL     OW  959   2.945   0.984   1.949
 1956SOL    HW1  960   2.922   1.037   1.867
 1956SOL    HW2  961   3.026   0.928   1.930
 1957SOL     OW  962   3.723   1.569   2.713
 1957SOL    HW1  963   3.652   1.557   2.643
 1957SOL    HW2  964   3.724   1.490   2.773
 1958SOL     OW  965   2.083   1.314   3.706
 1958SOL    HW1  966   2.018   1.241   3.685
 1958SOL    HW2  967   2.087   1.328   3.804
 1959SOL     OW  968   1.941   1.240   2.515
 1959SOL    HW1  969   1.940   1.193   2.603
 1959SOL    HW2  970   2.023   1.212   2.464
 1960SOL     OW  971   2.534   1.391   3.486
 1960SOL    HW1  972   2.456   1.341   3.524
 1960SOL    HW2  973   2.531   1.486   3.517
 1963SOL     OW  974   3.567   1.487   2.966
 1963SOL    HW1  975   3.474   1.462   2.939
 1963SOL    HW2  976   3.593   1.437   3.048
 1965SOL     OW  977   2.674   1.586   2.549
 1965SOL    HW1  978   2.706   1.596   2.455
 1965SOL    HW2  979   2.595   1.524   2.551
 1968SOL     OW  980   2.632   1.330   2.163
 1968SOL    HW1  981   2.586   1.243   2.180
 1968SOL    HW2  982   2.723   1.327   2.204
 1969SOL     OW  983   2.480   1.567   3.146
 1969SOL    HW1  984   2.475   1.649   3.203
 1969SOL    HW2  985   2.569   1.564   3.101
 1973SOL     OW  986   1.901   1.077   2.162
 1973SOL    HW1  987   2.000   1.066   2.153
 1973SOL    HW2  988   1.861   0.991   2.194
 1974SOL     OW  989   2.737   1.646   2.199
 1974SOL    HW1  990   2.660   1.611   2.145
 1974SOL    HW2  991   2.705   1.717   2.261
 1992SOL     OW  992   1.889   1.596   3.841
 1992SOL    HW1  993   1.870   1.500   3.862
 1992SOL    HW2  994   1.856   1.654   3.916
 2015SOL     OW  995   2.973   1.776   3.961
 2015SOL    HW1  996   2.913   1.714   4.011
 2015SOL    HW2  997   3.004   1.732   3.876
 2017SOL     OW  998   2.326   1.743   4.047
 2017SOL    HW1  999   2.359   1.782   4.133
 2017SOL    HW2 1000   2.402   1.736   3.982
 2039SOL     OW 1001   2.350   1.385   3.898
 2039SOL    HW1 1002   2.263   1.370   3.945
 2039SOL    HW2 1003   2.333   1.411   3.803
 2087SOL     OW 1004   2.534   1.616   3.878
 2087SOL    HW1 1005   2.543   1.626   3.779
 2087SOL    HW2 1006   2.494   1.527   3.899
 2091SOL     OW 1007   3.056   1.612   3.755
 2091SOL    HW1 1008   3.062   1.519   3.792
 2091SOL    HW2 1009   2.997   1.612   3.675
 2094SOL     OW 1010   3.366   1.607   3.768
 2094SOL    HW1 1011   3.274   1.644   3.775
 2094SOL    HW2 1012   3.404   1.627   3.678
 2108SOL     OW 1013   2.721   1.374   3.740
 2108SOL    HW1 1014   2.675   1.389   3.828
 2108SOL    HW2 1015   2.765   1.459   3.710
 2125SOL     OW 1016   2.737   1.646   4.061
 2125SOL    HW1 1017   2.660   1.611   4.007
 2125SOL    HW2 1018   2.705   1.717   4.123
 2127SOL     OW 1019   2.087   2.137   0.996
 2127SOL    HW1 1020   2.122   2.120   1.088
 2127SOL    HW2 1021   1.999   2.092   0.984
 2129SOL     OW 1022   2.431   3.137   1.165
 2129SOL    HW1 1023   2.338   3.130   1.128
 2129SOL    HW2 1024   2.442   3.226   1.209
 2133SOL     OW 1025   2.630   3.006   1.023
 2133SOL    HW1 1026   2.552   3.023   1.083
 2133SOL    HW2 1027   2.664   3.093   0.987
 2134SOL     OW 1028   2.712   2.660   1.823
 2134SOL    HW1 1029   2.708   2.736   1.888
 2134SOL    HW2 1030   2.734   2.696   1.732
 2136SOL     OW 1031   2.548   3.023   1.803
 2136SOL    HW1 1032   2.608   3.102   1.817
 2136SOL    HW2 1033   2.462   3.054   1.762
 2137SOL     OW 1034   2.197   3.297   1.061
 2137SOL    HW1 1035   2.119   3.266   1.008
 2137SOL    HW2 1036   2.255   3.355   1.004
 2138SOL     OW 1037   3.322   3.367   1.339
 2138SOL    HW1 1038   3.346   3.461   1.365
 2138SOL    HW2 1039   3.306   3.313   1.421
 2139SOL     OW 1040   2.300   2.254   1.499
 2139SOL    HW1 1041   2.382   2.198   1.508
 2139SOL    HW2 1042   2.219   2.196   1.503
 2142SOL     OW 1043   2.989   3.203   1.690
 2142SOL    HW1 1044   3.036   3.203   1.778
 2142SOL    HW2 1045   2.941   3.116   1.679
 2144SOL     OW 1046   2.102   2.953   0.886
 2144SOL    HW1 1047   2.116   2.869   0.938
 2144SOL    HW2 1048   2.047   3.017   0.941
 2145SOL     OW 1049   2.482   3.648   1.439
 2145SOL    HW1 1050   2.390   3.631   1.474
 2145SOL    HW2 1051   2.510   3.740   1.465
 2147SOL     OW 1052   3.456   1.976   1.480
 2147SOL    HW1 1053   3.438   2.043   1.408
 2147SOL    HW2 1054   3.453   2.022   1.569
 2153SOL     OW 1055   1.975   2.599   1.597
 2153SOL    HW1 1056   2.063   2.586   1.642
 2153SOL    HW2 1057   1.962   2.696   1.575
 2155SOL     OW 1058   3.155   3.090   1.423
 2155SOL    HW1 1059   3.192   3.017   1.365
 2155SOL    HW2 1060   3.207   3.095   1.508
 2157SOL     OW 1061   2.059   2.838   1.264
 2157SOL    HW1 1062   2.148   2.793   1.250
 2157SOL    HW2 1063   1.986   2.773   1.245
 2159SOL     OW 1064   3.049   3.654   1.616
 2159SOL    HW1 1065   3.073   3.714   1.540
 2159SOL    HW2 1066   3.056   3.559   1.586
 2160SOL     OW 1067   2.179   2.113   1.801
 2160SOL    HW1 1068   2.250   2.184   1.807
 2160SOL    HW2 1069   2.091   2.152   1.829
 2164SOL     OW 1070   3.143   2.207   0.944
 2164SOL    HW1 1071   3.057   2.157   0.931
 2164SOL    HW2 1072   3.205   2.153   1.000
 2166SOL     OW 1073   2.669   2.467   1.465
 2166SOL    HW1 1074   2.622   2.464   1.554
 2166SOL    HW2 1075   2.618   2.412   1.399
 2167SOL     OW 1076   3.256   2.331   1.674
 2167SOL    HW1 1077   3.236   2.374   1.762
 2167SOL    HW2 1078   3.334   2.269   1.683
 2168SOL     OW 1079   2.835   2.752   1.572
 2168SOL    HW1 1080   2.881   2.668   1.543
 2168SOL    HW2 1081   2.779   2.786   1.497
 2169SOL     OW 1082   2.853   2.272   1.242
 2169SOL    HW1 1083   2.776   2.306   1.296
 2169SOL    HW2 1084   2.819   2.221   1.163
 2172SOL     OW 1085   1.992   3.683   1.571
 2172SOL    HW1 1086   1.982   3.668   1.670
 2172SOL    HW2 1087   1.906   3.719   1.535
 2174SOL     OW 1088   3.581   2.447   1.831
 2174SOL    HW1 1089   3.555   2.536   1.795
 2174SOL    HW2 1090   3.579   2.379   1.758
 2176SOL     OW 1091   2.412   2.058   0.885
 2176SOL    HW1 1092   2.407   2.053   0.985
 2176SOL    HW2 1093   2.414   2.154   0.856
 2180SOL     OW 1094   3.089   3.412   1.506
 2180SOL    HW1 1095   3.095   3.335   1.570
 2180SOL    HW2 1096   3.037   3.386   1.426
 2183SOL     OW 1097   2.323   3.128   1.727
 2183SOL    HW1 1098   2.273   3.129   1.641
 2183SOL    HW2 1099   2.260   3.110   1.803
 2185SOL     OW 1100   2.064   2.147   1.498
 2185SOL    HW1 1101   1.984   2.207   1.485
 2185SOL    HW2 1102   2.054   2.098   1.584
 2189SOL     OW 1103   2.111   3.647   1.241
 2189SOL    HW1 1104   2.168   3.582   1.291
 2189SOL    HW2 1105   2.095   3.614   1.148
 2192SOL     OW 1106   3.409   2.084   1.729
 2192SOL    HW1 1107   3.404   2.121   1.821
 2192SOL    HW2 1108   3.337   2.015   1.717
 2194SOL     OW 1109   2.643   2.126   1.749
 2194SOL    HW1 1110   2.710   2.065   1.792
 2194SOL    HW2 1111   2.570   2.145   1.814
 2195SOL     OW 1112   2.750   3.376   1.195
 2195SOL    HW1 1113   2.727   3.351   1.101
 2195SOL    HW2 1114   2.811   3.307   1.234
 2196SOL     OW 1115   3.213   2.452   1.433
 2196SOL    HW1 1116   3.241   2.409   1.518
 2196SOL    HW2 1117   3.238   2.548   1.434
 2197SOL     OW 1118   2.665   3.264   0.924
 2197SOL    HW1 1119   2.755   3.278   0.882
 2197SOL    HW2 1120   2.594   3.266   0.853
 2198SOL     OW 1121   2.784   2.365   0.899
 2198SOL    HW1 1122   2.759   2.356   0.803
 2198SOL    HW2 1123   2.832   2.283   0.930
 2203SOL     OW 1124   2.938   2.545   1.464
 2203SOL    HW1 1125   2.858   2.484   1.467
 2203SOL    HW2 1126   3.019   2.492   1.440
 2208SOL     OW 1127   1.940   2.418   1.386
 2208SOL    HW1 1128   2.032   2.417   1.345
 2208SOL    HW2 1129   1.934   2.492   1.453
 2209SOL     OW 1130   2.423   2.084   1.147
 2209SOL    HW1 1131   2.461   2.000   1.184
 2209SOL    HW2 1132   2.335   2.103   1.191
 2213SOL     OW 1133   3.328   2.452   0.992
 2213SOL    HW1 1134   3.298   2.357   0.999
 2213SOL    HW2 1135   3.401   2.468   1.058
 2219SOL     OW 1136   3.616   3.085   1.588
 2219SOL    HW1 1137   3.707   3.046   1.575
 2219SOL    HW2 1138   3.624   3.181   1.612
 2220SOL     OW 1139   2.926   3.209   1.340
 2220SOL    HW1 1140   2.846   3.186   1.395
 2220SOL    HW2 1141   3.009   3.183   1.389
 2221SOL     OW 1142   3.454   3.491   1.625
 2221SOL    HW1 1143   3.481   3.525   1.535
 2221SOL    HW2 1144   3.533   3.453   1.671
 2222SOL     OW 1145   2.973   3.057   1.100
 2222SOL    HW1 1146   2.933   3.101   1.181
 2222SOL    HW2 1147   2.932   3.094   1.017
 2223SOL     OW 1148   3.500   2.961   1.079
 2223SOL    HW1 1149   3.505   3.042   1.138
 2223SOL    HW2 1150   3.414   2.963   1.028
 2224SOL     OW 1151   2.777   1.951   1.402
 2224SOL    HW1 1152   2.802   1.931   1.307
 2224SOL    HW2 1153   2.849   2.007   1.444
 2225SOL     OW 1154   2.842   2.978   1.719
 2225SOL    HW1 1155   2.743   2.984   1.729
 2225SOL    HW2 1156   2.865   2.898   1.663
 2227SOL     OW 1157   2.272   2.675   1.251
 2227SOL    HW1 1158   2.358   2.687   1.301
 2227SOL    HW2 1159   2.230   2.588   1.278
 2228SOL     OW 1160   3.136   2.248   1.262
 2228SOL    HW1 1161   3.157   2.322   1.326
 2228SOL    HW2 1162   3.047   2.265   1.219
 2229SOL     OW 1163   1.926   3.426   1.331
 2229SOL    HW1 1164   1.880   3.508   1.297
 2229SOL    HW2 1165   2.024   3.445   1.340
 2231SOL     OW 1166   2.428   2.399   0.865
 2231SOL    HW1 1167   2.440   2.465   0.791
 2231SOL    HW2 1168   2.474   2.433   0.948
 2233SOL     OW 1169   3.134   3.307   1.142
 2233SOL    HW1 1170   3.181   3.320   1.229
 2233SOL    HW2 1171   3.068   3.233   1.151
 2235SOL     OW 1172   2.216   3.372   1.329
 2235SOL    HW1 1173   2.195   3.328   1.242
 2235SOL    HW2 1174   2.313   3.398   1.332
 2236SOL     OW 1175   2.264   2.613   1.598
 2236SOL    HW1 1176   2.332   2.668   1.551
 2236SOL    HW2 1177   2.304   2.525   1.625
 2237SOL     OW 1178   3.449   2.641   1.670
 2237SOL    HW1 1179   3.357   2.679   1.665
 2237SOL    HW2 1180   3.509   2.688   1.605
 2238SOL     OW 1181   2.875   1.967   1.770
 2238SOL    HW1 1182   2.881   2.052   1.718
 2238SOL    HW2 1183   2.907   1.891   1.713
 2239SOL     OW 1184   2.366   1.912   1.740
 2239SOL    HW1 1185   2.324   1.855   1.670
 2239SOL    HW2 1186   2.300   1.981   1.772
 2240SOL     OW 1187   2.435   2.732   1.029
 2240SOL    HW1 1188   2.479   2.821   1.020
 2240SOL    HW2 1189   2.372   2.732   1.106
 2241SOL     OW 1190   3.222   2.724   1.045
 2241SOL    HW1 1191   3.147   2.724   0.979
 2241SOL    HW2 1192   3.259   2.632   1.054
 2243SOL     OW 1193   2.169   2.075   1.231
 2243SOL    HW1 1194   2.146   2.112   1.321
 2243SOL    HW2 1195   2.139   1.980   1.225
 2244SOL     OW 1196   1.899   3.172   1.282
 2244SOL    HW1 1197   1.952   3.123   1.350
 2244SOL    HW2 1198   1.921   3.270   1.287
 2245SOL     OW 1199   2.594   2.496   1.064
 2245SOL    HW1 1200   2.653   2.470   0.988
 2245SOL    HW2 1201   2.566   2.592   1.053
 2246SOL     OW 1202   3.590   2.797   1.854
 2246SOL    HW1 1203   3.544   2.790   1.765
 2246SOL    HW2 1204   3.528   2.841   1.920
 2249SOL     OW 1205   2.885   2.628   0.966
 2249SOL    HW1 1206   2.900   2.649   1.062
 2249SOL    HW2 1207   2.855   2.533   0.957
 2250SOL     OW 1208   2.842   3.435   1.700
 2250SOL    HW1 1209   2.822   3.479   1.612
 2250SOL    HW2 1210   2.881   3.344   1.684
 2251SOL     OW 1211   3.721   3.380   1.605
 2251SOL    HW1 1212   3.735   3.407   1.510
 2251SOL    HW2 1213   3.804   3.402   1.658
 2252SOL     OW 1214   2.212   2.760   1.804
 2252SOL    HW1 1215   2.288   2.804   1.852
 2252SOL    HW2 1216   2.247   2.713   1.722
 2256SOL     OW 1217   2.181   2.672   0.949
 2256SOL    HW1 1218   2.274   2.708   0.954
 2256SOL    HW2 1219   2.175   2.587   1.001
 2257SOL     OW 1220   2.201   2.371   1.006
 2257SOL    HW1 1221   2.149   2.288   0.989
 2257SOL    HW2 1222   2.278   2.376   0.942
 2258SOL     OW 1223   3.000   2.242   1.678
 2258SOL    HW1 1224   2.955   2.305   1.742
 2258SOL    HW2 1225   3.093   2.273   1.661
 2259SOL     OW 1226   3.022   2.069   1.477
 2259SOL    HW1 1227   3.022   2.133   1.554
 2259SOL    HW2 1228   3.050   2.117   1.394
 2262SOL     OW 1229   2.864   2.658   1.238
 2262SOL    HW1 1230   2.905   2.626   1.324
 2262SOL    HW2 1231   2.768   2.631   1.235
 2263SOL     OW 1232   1.902   2.406   1.114
 2263SOL    HW1 1233   1.987   2.373   1.073
 2263SOL    HW2 1234   1.915   2.421   1.212
 2264SOL     OW 1235   2.051   2.382   1.722
 2264SOL    HW1 1236   2.110   2.342   1.652
 2264SOL    HW2 1237   1.993   2.453   1.681
 2265SOL     OW 1238   3.231   2.812   1.660
 2265SOL    HW1 1239   3.270   2.901   1.680
 2265SOL    HW2 1240   3.241   2.792   1.563
 2267SOL     OW 1241   3.519   2.466   1.206
 2267SOL    HW1 1242   3.481   2.397   1.268
 2267SOL    HW2 1243   3.601   2.430   1.162
 2268SOL     OW 1244   2.114   3.426   1.744
 2268SOL    HW1 1245   2.084   3.483   1.820
 2268SOL    HW2 1246   2.107   3.329   1.770
 2269SOL     OW 1247   2.533   2.326   1.269
 2269SOL    HW1 1248   2.499   2.237   1.239
 2269SOL    HW2 1249   2.559   2.380   1.189
 2270SOL     OW 1250   2.792   3.540   1.465
 2270SOL    HW1 1251   2.768   3.522   1.370
 2270SOL    HW2 1252   2.822   3.634   1.475
 2272SOL     OW 1253   2.021   2.999   1.466
 2272SOL    HW1 1254   2.043   2.938   1.542
 2272SOL    HW2 1255   2.031   2.950   1.380
 2273SOL     OW 1256   3.209   2.921   1.234
 2273SOL    HW1 1257   3.233   2.858   1.160
 2273SOL    HW2 1258   3.119   2.961   1.216
 2277SOL     OW 1259   1.945   3.120   1.022
 2277SOL    HW1 1260   1.940   3.119   1.122
 2277SOL    HW2 1261   1.862   3.079   0.984
 2278SOL     OW 1262   2.550   3.524   1.716
 2278SOL    HW1 1263   2.494   3.605   1.725
 2278SOL    HW2 1264   2.602   3.528   1.630
 2282SOL     OW 1265   1.992   3.656   1.851
 2282SOL    HW1 1266   1.951   3.582   1.904
 2282SOL    HW2 1267   2.056   3.707   1.909
 2284SOL     OW 1268   2.692   3.135   1.422
 2284SOL    HW1 1269   2.687   3.168   1.517
 2284SOL    HW2 1270   2.606   3.154   1.376
 2290SOL     OW 1271   2.684   2.864   1.372
 2290SOL    HW1 1272   2.724   2.863   1.280
 2290SOL    HW2 1273   2.694   2.956   1.412
 2293SOL     OW 1274   2.234   3.150   1.490
 2293SOL    HW1 1275   2.221   3.243   1.456
 2293SOL    HW2 1276   2.150   3.098   1.477
 2294SOL     OW 1277   3.476   3.154   1.289
 2294SOL    HW1 1278   3.536   3.157   1.369
 2294SOL    HW2 1279   3.401   3.218   1.302
 2296SOL     OW 1280   2.876   2.098   0.971
 2296SOL    HW1 1281   2.868   2.062   0.878
 2296SOL    HW2 1282   2.874   2.022   1.036
 2298SOL     OW 1283   3.571   2.247   1.381
 2298SOL    HW1 1284   3.644   2.316   1.385
 2298SOL    HW2 1285   3.599   2.172   1.322
 2300SOL     OW 1286   1.967   2.875   1.726
 2300SOL    HW1 1287   1.890   2.842   1.780
 2300SOL    HW2 1288   2.052   2.845   1.768
 2301SOL     OW 1289   2.534   2.065   1.489
 2301SOL    HW1 1290   2.624   2.049   1.449
 2301SOL    HW2 1291   2.542   2.070   1.588
 2302SOL     OW 1292   3.302   2.718   1.398
 2302SOL    HW1 1293   3.245   2.770   1.335
 2302SOL    HW2 1294   3.398   2.730   1.374
 2305SOL     OW 1295   2.475   2.704   1.431
 2305SOL    HW1 1296   2.531   2.785   1.414
 2305SOL    HW2 1297   2.534   2.624   1.434
 2307SOL     OW 1298   2.578   2.427   1.708
 2307SOL    HW1 1299   2.597   2.492   1.782
 2307SOL    HW2 1300   2.638   2.347   1.717
 2308SOL     OW 1301   3.312   3.082   1.633
 2308SOL    HW1 1302   3.303   3.072   1.732
 2308SOL    HW2 1303   3.408   3.075   1.607
 2309SOL     OW 1304   2.252   3.603   1.560
 2309SOL    HW1 1305   2.161   3.644   1.558
 2309SOL    HW2 1306   2.245   3.509   1.592
 2310SOL     OW 1307   3.536   2.745   1.254
 2310SOL    HW1 1308   3.509   2.656   1.217
 2310SOL    HW2 1309   3.537   2.813   1.181
 2313SOL     OW 1310   3.639   2.204   1.642
 2313SOL    HW1 1311   3.622   2.235   1.548
 2313SOL    HW2 1312   3.555   2.167   1.680
 2314SOL     OW 1313   3.592   2.796   1.517
 2314SOL    HW1 1314   3.630   2.887   1.532
 2314SOL    HW2 1315   3.584   2.779   1.418
 2317SOL     OW 1316   2.721   2.818   0.861
 2317SOL    HW1 1317   2.775   2.749   0.909
 2317SOL    HW2 1318   2.689   2.887   0.927
 2320SOL     OW 1319   2.083   3.176   1.844
 2320SOL    HW1 1320   2.018   3.103   1.823
 2320SOL    HW2 1321   2.087   3.190   1.942
 2322SOL     OW 1322   2.534   3.253   1.624
 2322SOL    HW1 1323   2.456   3.203   1.662
 2322SOL    HW2 1324   2.531   3.348   1.655
 2326SOL     OW 1325   2.179   2.409   1.280
 2326SOL    HW1 1326   2.217   2.350   1.352
 2326SOL    HW2 1327   2.219   2.383   1.192
 2328SOL     OW 1328   3.286   2.076   1.112
 2328SOL    HW1 1329   3.338   2.011   1.167
 2328SOL    HW2 1330   3.237   2.139   1.173
 2329SOL     OW 1331   2.863   1.896   1.154
 2329SOL    HW1 1332   2.800   1.824   1.123
 2329SOL    HW2 1333   2.956   1.860   1.154
 2331SOL     OW 1334   2.480   3.429   1.284
 2331SOL    HW1 1335   2.475   3.511   1.341
 2331SOL    HW2 1336   2.569   3.426   1.239
 2337SOL     OW 1337   2.092   2.490   1.975
 2337SOL    HW1 1338   1.999   2.488   2.012
 2337SOL    HW2 1339   2.093   2.451   1.883
 2338SOL     OW 1340   2.087   2.137   2.858
 2338SOL    HW1 1341   2.122   2.120   2.950
 2338SOL    HW2 1342   1.999   2.092   2.846
 2339SOL     OW 1343   1.881   2.230   2.509
 2339SOL    HW1 1344   1.799   2.273   2.548
 2339SOL    HW2 1345   1.853   2.157   2.446
 2340SOL     OW 1346   2.431   3.137   3.027
 2340SOL    HW1 1347   2.338   3.130   2.990
 2340SOL    HW2 1348   2.442   3.226   3.071
 2341SOL     OW 1349   3.417   3.373   2.565
 2341SOL    HW1 1350   3.360   3.357   2.646
 2341SOL    HW2 1351   3.358   3.383   2.485
 2342SOL     OW 1352   2.997   2.565   2.579
 2342SOL    HW1 1353   3.054   2.643   2.554
 2342SOL    HW2 1354   2.937   2.591   2.655
 2343SOL     OW 1355   3.617   2.469   2.093
 2343SOL    HW1 1356   3.605   2.456   1.994
 2343SOL    HW2 1357   3.587   2.388   2.142
 2344SOL     OW 1358   2.630   3.006   2.885
 2344SOL    HW1 1359   2.552   3.023   2.945
 2344SOL    HW2 1360   2.664   3.093   2.849
 2345SOL     OW 1361   2.712   2.660   3.685
 2345SOL    HW1 1362   2.708   2.736   3.750
 2345SOL    HW2 1363   2.734   2.696   3.594
 2346SOL     OW 1364   2.548   3.023   3.665
 2346SOL    HW1 1365   2.608   3.102   3.679
 2346SOL    HW2 1366   2.462   3.054   3.624
 2347SOL     OW 1367   2.197   3.297   2.923
 2347SOL    HW1 1368   2.119   3.266   2.870
 2347SOL    HW2 1369   2.255   3.355   2.866
 2348SOL     OW 1370   3.322   3.367   3.201
 2348SOL    HW1 1371   3.346   3.461   3.227
 2348SOL    HW2 1372   3.306   3.313   3.283
 2349SOL     OW 1373   2.300   2.254   3.361
 2349SOL    HW1 1374   2.382   2.198   3.370
 2349SOL    HW2 1375   2.219   2.196   3.365
 2350SOL     OW 1376   3.465   2.309   2.599
 2350SOL    HW1 1377   3.391   2.355   2.549
 2350SOL    HW2 1378   3.516   2.377   2.652
 2351SOL     OW 1379   2.093   3.575   2.345
 2351SOL    HW1 1380   2.127   3.652   2.399
 2351SOL    HW2 1381   2.137   3.575   2.255
 2352SOL     OW 1382   2.989   3.203   3.552
 2352SOL    HW1 1383   3.036   3.203   3.640
 2352SOL    HW2 1384   2.941   3.116   3.541
 2353SOL     OW 1385   2.092   3.296   2.400
 2353SOL    HW1 1386   2.066   3.392   2.400
 2353SOL    HW2 1387   2.021   3.242   2.445
 2354SOL     OW 1388   2.102   2.953   2.748
 2354SOL    HW1 1389   2.116   2.869   2.800
 2354SOL    HW2 1390   2.047   3.017   2.803
 2355SOL     OW 1391   2.482   3.648   3.301
 2355SOL    HW1 1392   2.390   3.631   3.336
 2355SOL    HW2 1393   2.510   3.740   3.327
 2356SOL     OW 1394   2.468   2.826   1.985
 2356SOL    HW1 1395   2.475   2.910   1.931
 2356SOL    HW2 1396   2.514   2.839   2.073
 2357SOL     OW 1397   3.456   1.976   3.342
 2357SOL    HW1 1398   3.438   2.043   3.270
 2357SOL    HW2 1399   3.453   2.022   3.431
 2358SOL     OW 1400   1.984   2.505   2.425
 2358SOL    HW1 1401   1.939   2.417   2.442
 2358SOL    HW2 1402   1.983   2.559   2.509
 2359SOL     OW 1403   3.704   3.629   2.221
 2359SOL    HW1 1404   3.758   3.600   2.301
 2359SOL    HW2 1405   3.734   3.719   2.192
 2360SOL     OW 1406   1.889   3.458   1.979
 2360SOL    HW1 1407   1.870   3.362   2.000
 2360SOL    HW2 1408   1.856   3.516   2.054
 2361SOL     OW 1409   3.551   2.784   2.474
 2361SOL    HW1 1410   3.646   2.755   2.482
 2361SOL    HW2 1411   3.543   2.849   2.399
 2362SOL     OW 1412   3.503   2.970   2.294
 2362SOL    HW1 1413   3.589   2.972   2.242
 2362SOL    HW2 1414   3.517   3.017   2.382
 2363SOL     OW 1415   1.975   2.599   3.459
 2363SOL    HW1 1416   2.063   2.586   3.504
 2363SOL    HW2 1417   1.962   2.696   3.437
 2364SOL     OW 1418   2.475   3.227   2.588
 2364SOL    HW1 1419   2.426   3.140   2.597
 2364SOL    HW2 1420   2.452   3.270   2.501
 2365SOL     OW 1421   3.155   3.090   3.285
 2365SOL    HW1 1422   3.192   3.017   3.227
 2365SOL    HW2 1423   3.207   3.095   3.370
 2366SOL     OW 1424   2.671   1.866   2.364
 2366SOL    HW1 1425   2.711   1.957   2.355
 2366SOL    HW2 1426   2.571   1.874   2.370
 2367SOL     OW 1427   2.059   2.838   3.126
 2367SOL    HW1 1428   2.148   2.793   3.112
 2367SOL    HW2 1429   1.986   2.773   3.107
 2368SOL     OW 1430   3.387   2.861   2.052
 2368SOL    HW1 1431   3.324   2.785   2.065
 2368SOL    HW2 1432   3.435   2.879   2.138
 2369SOL     OW 1433   3.049   3.654   3.478
 2369SOL    HW1 1434   3.073   3.714   3.402
 2369SOL    HW2 1435   3.056   3.559   3.448
 2370SOL     OW 1436   2.179   2.113   3.663
 2370SOL    HW1 1437   2.250   2.184   3.669
 2370SOL    HW2 1438   2.091   2.152   3.691
 2371SOL     OW 1439   3.328   3.279   2.815
 2371SOL    HW1 1440   3.269   3.285   2.895
 2371SOL    HW2 1441   3.313   3.191   2.769
 2372SOL     OW 1442   3.529   3.576   2.434
 2372SOL    HW1 1443   3.488   3.553   2.346
 2372SOL    HW2 1444   3.511   3.502   2.499
 2373SOL     OW 1445   2.460   2.591   2.132
 2373SOL    HW1 1446   2.484   2.660   2.064
 2373SOL    HW2 1447   2.382   2.624   2.186
 2374SOL     OW 1448   3.143   2.207   2.806
 2374SOL    HW1 1449   3.057   2.157   2.793
 2374SOL    HW2 1450   3.205   2.153   2.862
 2375SOL     OW 1451   3.438   3.524   2.169
 2375SOL    HW1 1452   3.527   3.570   2.172
 2375SOL    HW2 1453   3.417   3.500   2.074
 2376SOL     OW 1454   2.669   2.467   3.327
 2376SOL    HW1 1455   2.622   2.464   3.416
 2376SOL    HW2 1456   2.618   2.412   3.261
 2377SOL     OW 1457   3.256   2.331   3.536
 2377SOL    HW1 1458   3.236   2.374   3.624
 2377SOL    HW2 1459   3.334   2.269   3.545
 2378SOL     OW 1460   2.835   2.752   3.434
 2378SOL    HW1 1461   2.881   2.668   3.405
 2378SOL    HW2 1462   2.779   2.786   3.359
 2379SOL     OW 1463   2.853   2.272   3.104
 2379SOL    HW1 1464   2.776   2.306   3.158
 2379SOL    HW2 1465   2.819   2.221   3.025
 2380SOL     OW 1466   2.903   2.563   2.291
 2380SOL    HW1 1467   2.929   2.559   2.387
 2380SOL    HW2 1468   2.818   2.512   2.277
 2381SOL     OW 1469   1.938   2.673   2.651
 2381SOL    HW1 1470   2.037   2.661   2.660
 2381SOL    HW2 1471   1.914   2.768   2.672
 2382SOL     OW 1472   1.992   3.683   3.433
 2382SOL    HW1 1473   1.982   3.668   3.532
 2382SOL    HW2 1474   1.906   3.719   3.397
 2383SOL     OW 1475   2.727   2.210   2.057
 2383SOL    HW1 1476   2.786   2.273   2.008
 2383SOL    HW2 1477   2.746   2.116   2.028
 2384SOL     OW 1478   3.581   2.447   3.693
 2384SOL    HW1 1479   3.555   2.536   3.657
 2384SOL    HW2 1480   3.579   2.379   3.620
 2385SOL     OW 1481   3.224   3.006   2.407
 2385SOL    HW1 1482   3.307   2.977   2.359
 2385SOL    HW2 1483   3.175   3.073   2.351
 2386SOL     OW 1484   2.412   2.058   2.747
 2386SOL    HW1 1485   2.407   2.053   2.847
 2386SOL    HW2 1486   2.414   2.154   2.718
 2387SOL     OW 1487   2.870   3.318   2.339
 2387SOL    HW1 1488   2.824   3.390   2.287
 2387SOL    HW2 1489   2.866   3.338   2.437
 2388SOL     OW 1490   2.213   3.663   2.715
 2388SOL    HW1 1491   2.263   3.577   2.721
 2388SOL    HW2 1492   2.278   3.740   2.712
 2389SOL     OW 1493   3.657   2.928   2.735
 2389SOL    HW1 1494   3.595   2.913   2.659
 2389SOL    HW2 1495   3.605   2.939   2.820
 2390SOL     OW 1496   3.089   3.412   3.368
 2390SOL    HW1 1497   3.095   3.335   3.432
 2390SOL    HW2 1498   3.037   3.386   3.288
 2391SOL     OW 1499   2.183   2.805   2.104
 2391SOL    HW1 1500   2.265   2.844   2.062
 2391SOL    HW2 1501   2.156   2.723   2.055
 2392SOL     OW 1502   3.320   2.597   2.590
 2392SOL    HW1 1503   3.315   2.532   2.665
 2392SOL    HW2 1504   3.400   2.656   2.603
 2393SOL     OW 1505   2.323   3.128   3.589
 2393SOL    HW1 1506   2.273   3.129   3.503
 2393SOL    HW2 1507   2.260   3.110   3.665
 2394SOL     OW 1508   2.973   3.638   2.099
 2394SOL    HW1 1509   2.913   3.576   2.149
 2394SOL    HW2 1510   3.004   3.594   2.014
 2395SOL     OW 1511   2.064   2.147   3.360
 2395SOL    HW1 1512   1.984   2.207   3.347
 2395SOL    HW2 1513   2.054   2.098   3.446
 2396SOL     OW 1514   3.494   3.239   1.943
 2396SOL    HW1 1515   3.462   3.333   1.933
 2396SOL    HW2 1516   3.418   3.176   1.931
 2397SOL     OW 1517   2.326   3.605   2.185
 2397SOL    HW1 1518   2.359   3.644   2.271
 2397SOL    HW2 1519   2.402   3.598   2.120
 2398SOL     OW 1520   3.262   1.969   2.288
 2398SOL    HW1 1521   3.238   1.932   2.198
 2398SOL    HW2 1522   3.361   1.985   2.292
 2399SOL     OW 1523   2.111   3.647   3.103
 2399SOL    HW1 1524   2.168   3.582   3.153
 2399SOL    HW2 1525   2.095   3.614   3.010
 2400SOL     OW 1526   2.802   3.560   2.766
 2400SOL    HW1 1527   2.882   3.503   2.787
 2400SOL    HW2 1528   2.753   3.520   2.689
 2401SOL     OW 1529   3.409   2.084   3.591
 2401SOL    HW1 1530   3.404   2.121   3.683
 2401SOL    HW2 1531   3.337   2.015   3.579
 2402SOL     OW 1532   2.476   1.984   1.979
 2402SOL    HW1 1533   2.574   1.962   1.986
 2402SOL    HW2 1534   2.445   1.967   1.886
 2403SOL     OW 1535   2.643   2.126   3.611
 2403SOL    HW1 1536   2.710   2.065   3.654
 2403SOL    HW2 1537   2.570   2.145   3.676
 2404SOL     OW 1538   2.750   3.376   3.057
 2404SOL    HW1 1539   2.727   3.351   2.963
 2404SOL    HW2 1540   2.811   3.307   3.096
 2405SOL     OW 1541   3.213   2.452   3.295
 2405SOL    HW1 1542   3.241   2.409   3.380
 2405SOL    HW2 1543   3.238   2.548   3.296
 2406SOL     OW 1544   2.665   3.264   2.786
 2406SOL    HW1 1545   2.755   3.278   2.744
 2406SOL    HW2 1546   2.594   3.266   2.715
 2407SOL     OW 1547   2.401   1.926   2.374
 2407SOL    HW1 1548   2.320   1.927   2.432
 2407SOL    HW2 1549   2.404   2.009   2.319
 2408SOL     OW 1550   3.296   3.050   1.903
 2408SOL    HW1 1551   3.328   2.974   1.960
 2408SOL    HW2 1552   3.204   3.077   1.933
 2409SOL     OW 1553   2.159   1.897   2.033
 2409SOL    HW1 1554   2.208   1.981   2.012
 2409SOL    HW2 1555   2.221   1.832   2.078
 2410SOL     OW 1556   2.797   2.098   2.342
 2410SOL    HW1 1557   2.749   2.139   2.264
 2410SOL    HW2 1558   2.896   2.096   2.323
 2411SOL     OW 1559   2.938   2.545   3.326
 2411SOL    HW1 1560   2.858   2.484   3.329
 2411SOL    HW2 1561   3.019   2.492   3.302
 2412SOL     OW 1562   3.089   3.432   2.655
 2412SOL    HW1 1563   3.110   3.506   2.590
 2412SOL    HW2 1564   3.157   3.432   2.728
 2413SOL     OW 1565   2.321   3.014   2.603
 2413SOL    HW1 1566   2.250   2.987   2.668
 2413SOL    HW2 1567   2.295   2.986   2.510
 2414SOL     OW 1568   3.133   3.659   2.453
 2414SOL    HW1 1569   3.177   3.723   2.389
 2414SOL    HW2 1570   3.083   3.711   2.523
 2415SOL     OW 1571   2.894   2.411   1.878
 2415SOL    HW1 1572   2.853   2.493   1.839
 2415SOL    HW2 1573   2.958   2.437   1.951
 2416SOL     OW 1574   1.940   2.418   3.248
 2416SOL    HW1 1575   2.032   2.417   3.207
 2416SOL    HW2 1576   1.934   2.492   3.315
 2417SOL     OW 1577   2.423   2.084   3.009
 2417SOL    HW1 1578   2.461   2.000   3.046
 2417SOL    HW2 1579   2.335   2.103   3.053
 2418SOL     OW 1580   2.879   1.901   2.615
 2418SOL    HW1 1581   2.807   1.906   2.546
 2418SOL    HW2 1582   2.855   1.832   2.684
 2419SOL     OW 1583   3.291   3.035   2.729
 2419SOL    HW1 1584   3.236   2.951   2.722
 2419SOL    HW2 1585   3.317   3.064   2.637
 2420SOL     OW 1586   3.328   2.452   2.854
 2420SOL    HW1 1587   3.298   2.357   2.861
 2420SOL    HW2 1588   3.401   2.468   2.920
 2421SOL     OW 1589   3.719   2.695   2.239
 2421SOL    HW1 1590   3.761   2.631   2.303
 2421SOL    HW2 1591   3.681   2.644   2.161
 2422SOL     OW 1592   2.350   3.247   2.036
 2422SOL    HW1 1593   2.263   3.232   2.083
 2422SOL    HW2 1594   2.333   3.273   1.941
 2423SOL     OW 1595   3.526   3.142   2.519
 2423SOL    HW1 1596   3.625   3.150   2.533
 2423SOL    HW2 1597   3.481   3.226   2.550
 2424SOL     OW 1598   3.252   2.437   1.940
 2424SOL    HW1 1599   3.198   2.416   2.021
 2424SOL    HW2 1600   3.343   2.396   1.949
 2425SOL     OW 1601   2.389   2.118   2.190
 2425SOL    HW1 1602   2.416   2.059   2.115
 2425SOL    HW2 1603   2.389   2.213   2.159
 2426SOL     OW 1604   3.616   3.085   3.450
 2426SOL    HW1 1605   3.707   3.046   3.437
 2426SOL    HW2 1606   3.624   3.181   3.474
 2427SOL     OW 1607   2.926   3.209   3.202
 2427SOL    HW1 1608   2.846   3.186   3.257
 2427SOL    HW2 1609   3.009   3.183   3.251
 2428SOL     OW 1610   3.454   3.491   3.487
 2428SOL    HW1 1611   3.481   3.525   3.397
 2428SOL    HW2 1612   3.533   3.453   3.533
 2429SOL     OW 1613   2.973   3.057   2.962
 2429SOL    HW1 1614   2.933   3.101   3.043
 2429SOL    HW2 1615   2.932   3.094   2.879
 2430SOL     OW 1616   3.500   2.961   2.941
 2430SOL    HW1 1617   3.505   3.042   3.000
 2430SOL    HW2 1618   3.414   2.963   2.890
 2431SOL     OW 1619   2.777   1.951   3.264
 2431SOL    HW1 1620   2.802   1.931   3.169
 2431SOL    HW2 1621   2.849   2.007   3.306
 2432SOL     OW 1622   2.842   2.978   3.581
 2432SOL    HW1 1623   2.743   2.984   3.591
 2432SOL    HW2 1624   2.865   2.898   3.525
 2433SOL     OW 1625   2.272   2.675   3.113
 2433SOL    HW1 1626   2.358   2.687   3.163
 2433SOL    HW2 1627   2.230   2.588   3.140
 2434SOL     OW 1628   3.136   2.248   3.124
 2434SOL    HW1 1629   3.157   2.322   3.188
 2434SOL    HW2 1630   3.047   2.265   3.081
 2435SOL     OW 1631   1.926   3.426   3.193
 2435SOL    HW1 1632   1.880   3.508   3.159
 2435SOL    HW2 1633   2.024   3.445   3.202
 2436SOL     OW 1634   3.114   3.210   2.250
 2436SOL    HW1 1635   3.164   3.287   2.290
 2436SOL    HW2 1636   3.019   3.212   2.282
 2437SOL     OW 1637   3.134   3.307   3.004
 2437SOL    HW1 1638   3.181   3.320   3.091
 2437SOL    HW2 1639   3.068   3.233   3.013
 2438SOL     OW 1640   3.444   2.501   2.334
 2438SOL    HW1 1641   3.413   2.562   2.407
 2438SOL    HW2 1642   3.494   2.553   2.265
 2439SOL     OW 1643   2.216   3.372   3.191
 2439SOL    HW1 1644   2.195   3.328   3.104
 2439SOL    HW2 1645   2.313   3.398   3.194
 2440SOL     OW 1646   2.264   2.613   3.460
 2440SOL    HW1 1647   2.332   2.668   3.413
 2440SOL    HW2 1648   2.304   2.525   3.487
 2441SOL     OW 1649   3.449   2.641   3.532
 2441SOL    HW1 1650   3.357   2.679   3.527
 2441SOL    HW2 1651   3.509   2.688   3.467
 2442SOL     OW 1652   2.875   1.967   3.632
 2442SOL    HW1 1653   2.881   2.052   3.580
 2442SOL    HW2 1654   2.907   1.891   3.575
 2443SOL     OW 1655   2.366   1.912   3.602
 2443SOL    HW1 1656   2.324   1.855   3.532
 2443SOL    HW2 1657   2.300   1.981   3.634
 2444SOL     OW 1658   2.435   2.732   2.891
 2444SOL    HW1 1659   2.479   2.821   2.882
 2444SOL    HW2 1660   2.372   2.732   2.968
 2445SOL     OW 1661   3.222   2.724   2.907
 2445SOL    HW1 1662   3.147   2.724   2.841
 2445SOL    HW2 1663   3.259   2.632   2.916
 2446SOL     OW 1664   3.071   2.387   2.137
 2446SOL    HW1 1665   3.084   2.303   2.191
 2446SOL    HW2 1666   3.042   2.461   2.197
 2447SOL     OW 1667   2.169   2.075   3.093
 2447SOL    HW1 1668   2.146   2.112   3.183
 2447SOL    HW2 1669   2.139   1.980   3.087
 2448SOL     OW 1670   1.899   3.172   3.144
 2448SOL    HW1 1671   1.952   3.123   3.212
 2448SOL    HW2 1672   1.921   3.270   3.149
 2449SOL     OW 1673   2.594   2.496   2.926
 2449SOL    HW1 1674   2.653   2.470   2.850
 2449SOL    HW2 1675   2.566   2.592   2.915
 2450SOL     OW 1676   3.590   2.797   3.716
 2450SOL    HW1 1677   3.544   2.790   3.627
 2450SOL    HW2 1678   3.528   2.841   3.782
 2451SOL     OW 1679   2.169   1.925   2.480
 2451SOL    HW1 1680   2.158   2.019   2.513
 2451SOL    HW2 1681   2.164   1.862   2.557
 2452SOL     OW 1682   3.484   2.229   2.236
 2452SOL    HW1 1683   3.486   2.153   2.300
 2452SOL    HW2 1684   3.436   2.306   2.276
 2453SOL     OW 1685   2.885   2.628   2.828
 2453SOL    HW1 1686   2.900   2.649   2.924
 2453SOL    HW2 1687   2.855   2.533   2.819
 2454SOL     OW 1688   2.842   3.435   3.562
 2454SOL    HW1 1689   2.822   3.479   3.474
 2454SOL    HW2 1690   2.881   3.344   3.546
 2455SOL     OW 1691   3.721   3.380   3.467
 2455SOL    HW1 1692   3.735   3.407   3.372
 2455SOL    HW2 1693   3.804   3.402   3.520
 2456SOL     OW 1694   2.212   2.760   3.666
 2456SOL    HW1 1695   2.288   2.804   3.714
 2456SOL    HW2 1696   2.247   2.713   3.584
 2457SOL     OW 1697   3.402   2.136   1.987
 2457SOL    HW1 1698   3.341   2.061   2.010
 2457SOL    HW2 1699   3.424   2.188   2.070
 2458SOL     OW 1700   3.165   2.700   1.904
 2458SOL    HW1 1701   3.199   2.607   1.919
 2458SOL    HW2 1702   3.183   2.727   1.809
 2459SOL     OW 1703   2.930   3.195   2.711
 2459SOL    HW1 1704   2.937   3.111   2.656
 2459SOL    HW2 1705   2.992   3.264   2.675
 2460SOL     OW 1706   2.181   2.672   2.811
 2460SOL    HW1 1707   2.274   2.708   2.816
 2460SOL    HW2 1708   2.175   2.587   2.863
 2461SOL     OW 1709   2.201   2.371   2.868
 2461SOL    HW1 1710   2.149   2.288   2.851
 2461SOL    HW2 1711   2.278   2.376   2.804
 2462SOL     OW 1712   3.000   2.242   3.540
 2462SOL    HW1 1713   2.955   2.305   3.604
 2462SOL    HW2 1714   3.093   2.273   3.523
 2463SOL     OW 1715   3.022   2.069   3.339
 2463SOL    HW1 1716   3.022   2.133   3.416
 2463SOL    HW2 1717   3.050   2.117   3.256
 2464SOL     OW 1718   1.870   3.188   2.062
 2464SOL    HW1 1719   1.777   3.209   2.031
 2464SOL    HW2 1720   1.880   3.089   2.075
 2465SOL     OW 1721   1.950   3.663   2.789
 2465SOL    HW1 1722   1.908   3.577   2.762
 2465SOL    HW2 1723   2.044   3.666   2.755
 2466SOL     OW 1724   2.366   3.430   2.772
 2466SOL    HW1 1725   2.432   3.504   2.781
 2466SOL    HW2 1726   2.410   3.351   2.730
 2467SOL     OW 1727   2.864   2.658   3.100
 2467SOL    HW1 1728   2.905   2.626   3.186
 2467SOL    HW2 1729   2.768   2.631   3.097
 2468SOL     OW 1730   1.902   2.406   2.976
 2468SOL    HW1 1731   1.987   2.373   2.935
 2468SOL    HW2 1732   1.915   2.421   3.074
 2469SOL     OW 1733   2.051   2.382   3.584
 2469SOL    HW1 1734   2.110   2.342   3.514
 2469SOL    HW2 1735   1.993   2.453   3.543
 2470SOL     OW 1736   3.231   2.812   3.522
 2470SOL    HW1 1737   3.270   2.901   3.542
 2470SOL    HW2 1738   3.241   2.792   3.425
 2471SOL     OW 1739   2.677   2.434   2.187
 2471SOL    HW1 1740   2.684   2.345   2.141
 2471SOL    HW2 1741   2.583   2.468   2.179
 2472SOL     OW 1742   3.519   2.466   3.068
 2472SOL    HW1 1743   3.481   2.397   3.130
 2472SOL    HW2 1744   3.601   2.430   3.024
 2473SOL     OW 1745   2.114   3.426   3.606
 2473SOL    HW1 1746   2.084   3.483   3.682
 2473SOL    HW2 1747   2.107   3.329   3.632
 2474SOL     OW 1748   2.533   2.326   3.131
 2474SOL    HW1 1749   2.499   2.237   3.101
 2474SOL    HW2 1750   2.559   2.380   3.051
 2475SOL     OW 1751   2.792   3.540   3.327
 2475SOL    HW1 1752   2.768   3.522   3.232
 2475SOL    HW2 1753   2.822   3.634   3.337
 2476SOL     OW 1754   2.335   2.362   2.053
 2476SOL    HW1 1755   2.396   2.442   2.057
 2476SOL    HW2 1756   2.240   2.393   2.060
 2477SOL     OW 1757   2.021   2.999   3.328
 2477SOL    HW1 1758   2.043   2.938   3.404
 2477SOL    HW2 1759   2.031   2.950   3.242
 2478SOL     OW 1760   3.209   2.921   3.096
 2478SOL    HW1 1761   3.233   2.858   3.022
 2478SOL    HW2 1762   3.119   2.961   3.078
 2479SOL     OW 1763   3.164   2.717   2.171
 2479SOL    HW1 1764   3.078   2.686   2.213
 2479SOL    HW2 1765   3.160   2.703   2.072
 2480SOL     OW 1766   3.621   3.609   3.016
 2480SOL    HW1 1767   3.682   3.639   2.943
 2480SOL    HW2 1768   3.583   3.520   2.994
 2481SOL     OW 1769   3.114   3.593   2.990
 2481SOL    HW1 1770   3.198   3.598   2.936
 2481SOL    HW2 1771   3.091   3.497   3.008
 2482SOL     OW 1772   1.945   3.120   2.884
 2482SOL    HW1 1773   1.940   3.119   2.984
 2482SOL    HW2 1774   1.862   3.079   2.846
 2483SOL     OW 1775   2.550   3.524   3.578
 2483SOL    HW1 1776   2.494   3.605   3.587
 2483SOL    HW2 1777   2.602   3.528   3.492
 2484SOL     OW 1778   3.588   1.997   2.385
 2484SOL    HW1 1779   3.661   1.980   2.318
 2484SOL    HW2 1780   3.557   1.910   2.423
 2485SOL     OW 1781   3.250   3.435   2.339
 2485SOL    HW1 1782   3.317   3.447   2.265
 2485SOL    HW2 1783   3.210   3.524   2.362
 2486SOL     OW 1784   1.992   3.656   3.713
 2486SOL    HW1 1785   1.951   3.582   3.766
 2486SOL    HW2 1786   2.056   3.707   3.771
 2487SOL     OW 1787   3.142   2.789   2.534
 2487SOL    HW1 1788   3.202   2.708   2.536
 2487SOL    HW2 1789   3.182   2.858   2.474
 2488SOL     OW 1790   2.692   3.135   3.284
 2488SOL    HW1 1791   2.687   3.168   3.379
 2488SOL    HW2 1792   2.606   3.154   3.238
 2489SOL     OW 1793   2.534   3.478   2.016
 2489SOL    HW1 1794   2.543   3.488   1.917
 2489SOL    HW2 1795   2.494   3.389   2.037
 2490SOL     OW 1796   3.512   3.582   3.256
 2490SOL    HW1 1797   3.565   3.592   3.172
 2490SOL    HW2 1798   3.485   3.672   3.290
 2491SOL     OW 1799   3.703   2.037   2.825
 2491SOL    HW1 1800   3.742   1.952   2.789
 2491SOL    HW2 1801   3.605   2.039   2.806
 2492SOL     OW 1802   2.125   2.188   2.582
 2492SOL    HW1 1803   2.046   2.239   2.548
 2492SOL    HW2 1804   2.116   2.173   2.680
 2493SOL     OW 1805   3.056   3.474   1.893
 2493SOL    HW1 1806   3.062   3.381   1.930
 2493SOL    HW2 1807   2.997   3.474   1.813
 2494SOL     OW 1808   2.684   2.864   3.234
 2494SOL    HW1 1809   2.724   2.863   3.142
 2494SOL    HW2 1810   2.694   2.956   3.274
 2495SOL     OW 1811   2.778   2.772   2.153
 2495SOL    HW1 1812   2.841   2.810   2.085
 2495SOL    HW2 1813   2.818   2.689   2.192
 2496SOL     OW 1814   3.366   3.469   1.906
 2496SOL    HW1 1815   3.274   3.506   1.913
 2496SOL    HW2 1816   3.404   3.489   1.816
 2497SOL     OW 1817   2.234   3.150   3.352
 2497SOL    HW1 1818   2.221   3.243   3.318
 2497SOL    HW2 1819   2.150   3.098   3.339
 2498SOL     OW 1820   3.476   3.154   3.151
 2498SOL    HW1 1821   3.536   3.157   3.231
 2498SOL    HW2 1822   3.401   3.218   3.164
 2499SOL     OW 1823   2.901   2.960   2.558
 2499SOL    HW1 1824   2.831   2.913   2.612
 2499SOL    HW2 1825   2.960   2.892   2.515
 2500SOL     OW 1826   2.876   2.098   2.833
 2500SOL    HW1 1827   2.868   2.062   2.740
 2500SOL    HW2 1828   2.874   2.022   2.898
 2501SOL     OW 1829   2.452   3.349   2.353
 2501SOL    HW1 1830   2.494   3.291   2.283
 2501SOL    HW2 1831   2.408   3.428   2.309
 2502SOL     OW 1832   3.571   2.247   3.243
 2502SOL    HW1 1833   3.644   2.316   3.247
 2502SOL    HW2 1834   3.599   2.172   3.184
 2503SOL     OW 1835   2.117   3.210   2.152
 2503SOL    HW1 1836   2.021   3.211   2.125
 2503SOL    HW2 1837   2.129   3.263   2.236
 2504SOL     OW 1838   1.967   2.875   3.588
 2504SOL    HW1 1839   1.890   2.842   3.642
 2504SOL    HW2 1840   2.052   2.845   3.630
 2505SOL     OW 1841   2.534   2.065   3.351
 2505SOL    HW1 1842   2.624   2.049   3.311
 2505SOL    HW2 1843   2.542   2.070   3.450
 2506SOL     OW 1844   1.937   2.207   1.895
 2506SOL    HW1 1845   1.845   2.179   1.866
 2506SOL    HW2 1846   1.968   2.284   1.839
 2507SOL     OW 1847   3.302   2.718   3.260
 2507SOL    HW1 1848   3.245   2.770   3.197
 2507SOL    HW2 1849   3.398   2.730   3.236
 2508SOL     OW 1850   1.934   2.028   2.180
 2508SOL    HW1 1851   1.917   2.111   2.126
 2508SOL    HW2 1852   2.024   1.991   2.158
 2509SOL     OW 1853   3.045   3.197   1.981
 2509SOL    HW1 1854   2.946   3.186   1.983
 2509SOL    HW2 1855   3.079   3.212   2.074
 2510SOL     OW 1856   2.475   2.704   3.293
 2510SOL    HW1 1857   2.531   2.785   3.276
 2510SOL    HW2 1858   2.534   2.624   3.296
 2511SOL     OW 1859   3.355   3.629   2.821
 2511SOL    HW1 1860   3.388   3.693   2.752
 2511SOL    HW2 1861   3.421   3.623   2.896
 2512SOL     OW 1862   2.578   2.427   3.570
 2512SOL    HW1 1863   2.597   2.492   3.644
 2512SOL    HW2 1864   2.638   2.347   3.579
 2513SOL     OW 1865   3.312   3.082   3.495
 2513SOL    HW1 1866   3.303   3.072   3.594
 2513SOL    HW2 1867   3.408   3.075   3.469
 2514SOL     OW 1868   2.252   3.603   3.422
 2514SOL    HW1 1869   2.161   3.644   3.420
 2514SOL    HW2 1870   2.245   3.509   3.454
 2515SOL     OW 1871   3.536   2.745   3.116
 2515SOL    HW1 1872   3.509   2.656   3.079
 2515SOL    HW2 1873   3.537   2.813   3.043
 2516SOL     OW 1874   3.087   2.187   2.311
 2516SOL    HW1 1875   3.152   2.113   2.300
 2516SOL    HW2 1876   3.107   2.237   2.395
 2517SOL     OW 1877   3.639   2.204   3.504
 2517SOL    HW1 1878   3.622   2.235   3.410
 2517SOL    HW2 1879   3.555   2.167   3.542
 2518SOL     OW 1880   3.592   2.796   3.379
 2518SOL    HW1 1881   3.630   2.887   3.394
 2518SOL    HW2 1882   3.584   2.779   3.280
 2519SOL     OW 1883   2.721   3.236   1.878
 2519SOL    HW1 1884   2.675   3.251   1.966
 2519SOL    HW2 1885   2.765   3.321   1.848
 2520SOL     OW 1886   2.523   3.652   2.815
 2520SOL    HW1 1887   2.477   3.740   2.802
 2520SOL    HW2 1888   2.622   3.664   2.808
 2521SOL     OW 1889   2.721   2.818   2.723
 2521SOL    HW1 1890   2.775   2.749   2.771
 2521SOL    HW2 1891   2.689   2.887   2.789
 2522SOL     OW 1892   2.945   2.846   1.949
 2522SOL    HW1 1893   2.922   2.899   1.867
 2522SOL    HW2 1894   3.026   2.790   1.930
 2523SOL     OW 1895   3.723   3.431   2.713
 2523SOL    HW1 1896   3.652   3.419   2.643
 2523SOL    HW2 1897   3.724   3.352   2.773
 2524SOL     OW 1898   2.083   3.176   3.706
 2524SOL    HW1 1899   2.018   3.103   3.685
 2524SOL    HW2 1900   2.087   3.190   3.804
 2525SOL     OW 1901   1.941   3.102   2.515
 2525SOL    HW1 1902   1.940   3.055   2.603
 2525SOL    HW2 1903   2.023   3.074   2.464
 2526SOL     OW 1904   2.534   3.253   3.486
 2526SOL    HW1 1905   2.456   3.203   3.524
 2526SOL    HW2 1906   2.531   3.348   3.517
 2527SOL     OW 1907   3.686   2.054   3.089
 2527SOL    HW1 1908   3.682   1.964   3.133
 2527SOL    HW2 1909   3.689   2.043   2.990
 2528SOL     OW 1910   2.290   2.286   2.382
 2528SOL    HW1 1911   2.320   2.214   2.320
 2528SOL    HW2 1912   2.251   2.246   2.465
 2529SOL     OW 1913   3.567   3.349   2.966
 2529SOL    HW1 1914   3.474   3.324   2.939
 2529SOL    HW2 1915   3.593   3.299   3.048
 2530SOL     OW 1916   2.179   2.409   3.142
 2530SOL    HW1 1917   2.217   2.350   3.214
 2530SOL    HW2 1918   2.219   2.383   3.054
 2531SOL     OW 1919   2.674   3.448   2.549
 2531SOL    HW1 1920   2.706   3.458   2.455
 2531SOL    HW2 1921   2.595   3.386   2.551
 2532SOL     OW 1922   3.286   2.076   2.974
 2532SOL    HW1 1923   3.338   2.011   3.029
 2532SOL    HW2 1924   3.237   2.139   3.035
 2533SOL     OW 1925   2.863   1.896   3.016
 2533SOL    HW1 1926   2.800   1.824   2.985
 2533SOL    HW2 1927   2.956   1.860   3.016
 2534SOL     OW 1928   2.632   3.192   2.163
 2534SOL    HW1 1929   2.586   3.105   2.180
 2534SOL    HW2 1930   2.723   3.189   2.204
 2535SOL     OW 1931   2.480   3.429   3.146
 2535SOL    HW1 1932   2.475   3.511   3.203
 2535SOL    HW2 1933   2.569   3.426   3.101
 2536SOL     OW 1934   3.214   1.914   2.030
 2536SOL    HW1 1935   3.249   1.873   1.946
 2536SOL    HW2 1936   3.124   1.876   2.050
 2537SOL     OW 1937   3.162   2.315   2.553
 2537SOL    HW1 1938   3.103   2.395   2.557
 2537SOL    HW2 1939   3.177   2.280   2.646
 2538SOL     OW 1940   3.455   2.083   2.744
 2538SOL    HW1 1941   3.371   2.082   2.798
 2538SOL    HW2 1942   3.457   2.166   2.688
 2539SOL     OW 1943   1.901   2.939   2.162
 2539SOL    HW1 1944   2.000   2.928   2.153
 2539SOL    HW2 1945   1.861   2.853   2.194
 2540SOL     OW 1946   2.737   3.508   2.199
 2540SOL    HW1 1947   2.660   3.473   2.145
 2540SOL    HW2 1948   2.705   3.579   2.261
 2541SOL     OW 1949   2.092   2.490   3.837
 2541SOL    HW1 1950   1.999   2.488   3.874
 2541SOL    HW2 1951   2.093   2.451   3.745
 2555SOL     OW 1952   2.468   2.826   3.847
 2555SOL    HW1 1953   2.475   2.910   3.793
 2555SOL    HW2 1954   2.514   2.839   3.935
 2558SOL     OW 1955   1.889   3.458   3.841
 2558SOL    HW1 1956   1.870   3.362   3.862
 2558SOL    HW2 1957   1.856   3.516   3.916
 2565SOL     OW 1958   3.387   2.861   3.914
 2565SOL    HW1 1959   3.324   2.785   3.927
 2565SOL    HW2 1960   3.435   2.879   4.000
 2568SOL     OW 1961   2.460   2.591   3.994
 2568SOL    HW1 1962   2.484   2.660   3.926
 2568SOL    HW2 1963   2.382   2.624   4.048
 2571SOL     OW 1964   2.903   2.563   4.153
 2571SOL    HW1 1965   2.929   2.559   4.249
 2571SOL    HW2 1966   2.818   2.512   4.139
 2573SOL     OW 1967   2.727   2.210   3.919
 2573SOL    HW1 1968   2.786   2.273   3.870
 2573SOL    HW2 1969   2.746   2.116   3.890
 2579SOL     OW 1970   2.183   2.805   3.966
 2579SOL    HW1 1971   2.265   2.844   3.924
 2579SOL    HW2 1972   2.156   2.723   3.917
 2582SOL     OW 1973   3.494   3.239   3.805
 2582SOL    HW1 1974   3.462   3.333   3.795
 2582SOL    HW2 1975   3.418   3.176   3.793
 2587SOL     OW 1976   2.244   2.562   4.204
 2587SOL    HW1 1977   2.289   2.472   4.201
 2587SOL    HW2 1978   2.150   2.551   4.237
 2588SOL     OW 1979   2.476   1.984   3.841
 2588SOL    HW1 1980   2.574   1.962   3.848
 2588SOL    HW2 1981   2.445   1.967   3.748
 2592SOL     OW 1982   3.296   3.050   3.765
 2592SOL    HW1 1983   3.328   2.974   3.822
 2592SOL    HW2 1984   3.204   3.077   3.795
 2593SOL     OW 1985   2.159   1.897   3.895
 2593SOL    HW1 1986   2.208   1.981   3.874
 2593SOL    HW2 1987   2.221   1.832   3.940
 2594SOL     OW 1988   2.797   2.098   4.204
 2594SOL    HW1 1989   2.749   2.139   4.126
 2594SOL    HW2 1990   2.896   2.096   4.185
 2598SOL     OW 1991   2.894   2.411   3.740
 2598SOL    HW1 1992   2.853   2.493   3.701
 2598SOL    HW2 1993   2.958   2.437   3.813
 2605SOL     OW 1994   2.350   3.247   3.898
 2605SOL    HW1 1995   2.263   3.232   3.945
 2605SOL    HW2 1996   2.333   3.273   3.803
 2607SOL     OW 1997   3.252   2.437   3.802
 2607SOL    HW1 1998   3.198   2.416   3.883
 2607SOL    HW2 1999   3.343   2.396   3.811
 2608SOL     OW 2000   2.389   2.118   4.052
 2608SOL    HW1 2001   2.416   2.059   3.977
 2608SOL    HW2 2002   2.389   2.213   4.021
 2611SOL     OW 2003   2.567   2.912   4.092
 2611SOL    HW1 2004   2.553   2.919   4.191
 2611SOL    HW2 2005   2.651   2.861   4.074
 2614SOL     OW 2006   2.229   2.962   4.225
 2614SOL    HW1 2007   2.222   3.045   4.169
 2614SOL    HW2 2008   2.233   2.882   4.165
 2622SOL     OW 2009   3.071   2.387   3.999
 2622SOL    HW1 2010   3.084   2.303   4.053
 2622SOL    HW2 2011   3.042   2.461   4.059
 2629SOL     OW 2012   3.402   2.136   3.849
 2629SOL    HW1 2013   3.341   2.061   3.872
 2629SOL    HW2 2014   3.424   2.188   3.932
 2630SOL     OW 2015   3.165   2.700   3.766
 2630SOL    HW1 2016   3.199   2.607   3.781
 2630SOL    HW2 2017   3.183   2.727   3.671
 2635SOL     OW 2018   1.870   3.188   3.924
 2635SOL    HW1 2019   1.777   3.209   3.893
 2635SOL    HW2 2020   1.880   3.089   3.937
 2640SOL     OW 2021   2.677   2.434   4.049
 2640SOL    HW1 2022   2.684   2.345   4.003
 2640SOL    HW2 2023   2.583   2.468   4.041
 2644SOL     OW 2024   2.335   2.362   3.915
 2644SOL    HW1 2025   2.396   2.442   3.919
 2644SOL    HW2 2026   2.240   2.393   3.922
 2646SOL     OW 2027   3.164   2.717   4.033
 2646SOL    HW1 2028   3.078   2.686   4.075
 2646SOL    HW2 2029   3.160   2.703   3.934
 2653SOL     OW 2030   2.534   3.478   3.878
 2653SOL    HW1 2031   2.543   3.488   3.779
 2653SOL    HW2 2032   2.494   3.389   3.899
 2657SOL     OW 2033   3.056   3.474   3.755
 2657SOL    HW1 2034   3.062   3.381   3.792
 2657SOL    HW2 2035   2.997   3.474   3.675
 2659SOL     OW 2036   2.778   2.772   4.015
 2659SOL    HW1 2037   2.841   2.810   3.947
 2659SOL    HW2 2038   2.818   2.689   4.054
 2660SOL     OW 2039   3.366   3.469   3.768
 2660SOL    HW1 2040   3.274   3.506   3.775
 2660SOL    HW2 2041   3.404   3.489   3.678
 2665SOL     OW 2042   2.117   3.210   4.014
 2665SOL    HW1 2043   2.021   3.211   3.987
 2665SOL    HW2 2044   2.129   3.263   4.098
 2666SOL     OW 2045   1.937   2.207   3.757
 2666SOL    HW1 2046   1.845   2.179   3.728
 2666SOL    HW2 2047   1.968   2.284   3.701
 2667SOL     OW 2048   1.934   2.028   4.042
 2667SOL    HW1 2049   1.917   2.111   3.988
 2667SOL    HW2 2050   2.024   1.991   4.020
 2668SOL     OW 2051   3.045   3.197   3.843
 2668SOL    HW1 2052   2.946   3.186   3.845
 2668SOL    HW2 2053   3.079   3.212   3.936
 2671SOL     OW 2054   3.087   2.187   4.173
 2671SOL    HW1 2055   3.152   2.113   4.162
 2671SOL    HW2 2056   3.107   2.237   4.257
 2674SOL     OW 2057   2.721   3.236   3.740
 2674SOL    HW1 2058   2.675   3.251   3.828
 2674SOL    HW2 2059   2.765   3.321   3.710
 2677SOL     OW 2060   2.945   2.846   3.811
 2677SOL    HW1 2061   2.922   2.899   3.729
 2677SOL    HW2 2062   3.026   2.790   3.792
 2681SOL     OW 2063   2.290   2.286   4.244
 2681SOL    HW1 2064   2.320   2.214   4.182
 2681SOL    HW2 2065   2.251   2.246   4.327
 2686SOL     OW 2066   2.632   3.192   4.025
 2686SOL    HW1 2067   2.586   3.105   4.042
 2686SOL    HW2 2068   2.723   3.189   4.066
 2687SOL     OW 2069   3.214   1.914   3.892
 2687SOL    HW1 2070   3.249   1.873   3.808
 2687SOL    HW2 2071   3.124   1.876   3.912
 2690SOL     OW 2072   1.901   2.939   4.024
 2690SOL    HW1 2073   2.000   2.928   4.015
 2690SOL    HW2 2074   1.861   2.853   4.056
 2715SOL     OW 2075   2.179   3.975   1.801
 2715SOL    HW1 2076   2.250   4.046   1.807
 2715SOL    HW2 2077   2.091   4.014   1.829
 2736SOL     OW 2078   2.643   3.988   1.749
 2736SOL    HW1 2079   2.710   3.927   1.792
 2736SOL    HW2 2080   2.570   4.007   1.814
 2757SOL     OW 2081   2.777   3.813   1.402
 2757SOL    HW1 2082   2.802   3.793   1.307
 2757SOL    HW2 2083   2.849   3.869   1.444
 2767SOL     OW 2084   2.875   3.829   1.770
 2767SOL    HW1 2085   2.881   3.914   1.718
 2767SOL    HW2 2086   2.907   3.753   1.713
 2768SOL     OW 2087   2.366   3.774   1.740
 2768SOL    HW1 2088   2.324   3.717   1.670
 2768SOL    HW2 2089   2.300   3.843   1.772
 2810SOL     OW 2090   2.534   3.927   1.489
 2810SOL    HW1 2091   2.624   3.911   1.449
 2810SOL    HW2 2092   2.542   3.932   1.588
 2835SOL     OW 2093   2.087   3.999   2.858
 2835SOL    HW1 2094   2.122   3.982   2.950
 2835SOL    HW2 2095   1.999   3.954   2.846
 2836SOL     OW 2096   1.881   4.092   2.509
 2836SOL    HW1 2097   1.799   4.135   2.548
 2836SOL    HW2 2098   1.853   4.019   2.446
 2854SOL     OW 2099   2.671   3.728   2.364
 2854SOL    HW1 2100   2.711   3.819   2.355
 2854SOL    HW2 2101   2.571   3.736   2.370
 2859SOL     OW 2102   3.143   4.069   2.806
 2859SOL    HW1 2103   3.057   4.019   2.793
 2859SOL    HW2 2104   3.205   4.015   2.862
 2863SOL     OW 2105   2.853   4.134   3.104
 2863SOL    HW1 2106   2.776   4.168   3.158
 2863SOL    HW2 2107   2.819   4.083   3.025
 2866SOL     OW 2108   2.727   4.072   2.057
 2866SOL    HW1 2109   2.786   4.135   2.008
 2866SOL    HW2 2110   2.746   3.978   2.028
 2869SOL     OW 2111   2.412   3.920   2.747
 2869SOL    HW1 2112   2.407   3.915   2.847
 2869SOL    HW2 2113   2.414   4.016   2.718
 2873SOL     OW 2114   2.064   4.009   3.360
 2873SOL    HW1 2115   1.984   4.069   3.347
 2873SOL    HW2 2116   2.054   3.960   3.446
 2874SOL     OW 2117   3.262   3.831   2.288
 2874SOL    HW1 2118   3.238   3.794   2.198
 2874SOL    HW2 2119   3.361   3.847   2.292
 2877SOL     OW 2120   2.476   3.846   1.979
 2877SOL    HW1 2121   2.574   3.824   1.986
 2877SOL    HW2 2122   2.445   3.829   1.886
 2881SOL     OW 2123   2.784   4.227   2.761
 2881SOL    HW1 2124   2.759   4.218   2.665
 2881SOL    HW2 2125   2.832   4.145   2.792
 2882SOL     OW 2126   2.401   3.788   2.374
 2882SOL    HW1 2127   2.320   3.789   2.432
 2882SOL    HW2 2128   2.404   3.871   2.319
 2883SOL     OW 2129   2.159   3.759   2.033
 2883SOL    HW1 2130   2.208   3.843   2.012
 2883SOL    HW2 2131   2.221   3.694   2.078
 2884SOL     OW 2132   2.797   3.960   2.342
 2884SOL    HW1 2133   2.749   4.001   2.264
 2884SOL    HW2 2134   2.896   3.958   2.323
 2889SOL     OW 2135   2.423   3.946   3.009
 2889SOL    HW1 2136   2.461   3.862   3.046
 2889SOL    HW2 2137   2.335   3.965   3.053
 2890SOL     OW 2138   2.728   4.178   2.504
 2890SOL    HW1 2139   2.696   4.250   2.442
 2890SOL    HW2 2140   2.752   4.097   2.451
 2891SOL     OW 2141   2.879   3.763   2.615
 2891SOL    HW1 2142   2.807   3.768   2.546
 2891SOL    HW2 2143   2.855   3.694   2.684
 2896SOL     OW 2144   2.389   3.980   2.190
 2896SOL    HW1 2145   2.416   3.921   2.115
 2896SOL    HW2 2146   2.389   4.075   2.159
 2899SOL     OW 2147   2.777   3.813   3.264
 2899SOL    HW1 2148   2.802   3.793   3.169
 2899SOL    HW2 2149   2.849   3.869   3.306
 2905SOL     OW 2150   2.428   4.261   2.727
 2905SOL    HW1 2151   2.440   4.327   2.653
 2905SOL    HW2 2152   2.474   4.295   2.810
 2909SOL     OW 2153   2.875   3.829   3.632
 2909SOL    HW1 2154   2.881   3.914   3.580
 2909SOL    HW2 2155   2.907   3.753   3.575
 2910SOL     OW 2156   2.366   3.774   3.602
 2910SOL    HW1 2157   2.324   3.717   3.532
 2910SOL    HW2 2158   2.300   3.843   3.634
 2914SOL     OW 2159   2.169   3.937   3.093
 2914SOL    HW1 2160   2.146   3.974   3.183
 2914SOL    HW2 2161   2.139   3.842   3.087
 2917SOL     OW 2162   2.169   3.787   2.480
 2917SOL    HW1 2163   2.158   3.881   2.513
 2917SOL    HW2 2164   2.164   3.724   2.557
 2924SOL     OW 2165   2.201   4.233   2.868
 2924SOL    HW1 2166   2.149   4.150   2.851
 2924SOL    HW2 2167   2.278   4.238   2.804
 2926SOL     OW 2168   3.022   3.931   3.339
 2926SOL    HW1 2169   3.022   3.995   3.416
 2926SOL    HW2 2170   3.050   3.979   3.256
 2934SOL     OW 2171   2.533   4.188   3.131
 2934SOL    HW1 2172   2.499   4.099   3.101
 2934SOL    HW2 2173   2.559   4.242   3.051
 2935SOL     OW 2174   2.335   4.224   2.053
 2935SOL    HW1 2175   2.396   4.304   2.057
 2935SOL    HW2 2176   2.240   4.255   2.060
 2940SOL     OW 2177   3.588   3.859   2.385
 2940SOL    HW1 2178   3.661   3.842   2.318
 2940SOL    HW2 2179   3.557   3.772   2.423
 2943SOL     OW 2180   2.125   4.050   2.582
 2943SOL    HW1 2181   2.046   4.101   2.548
 2943SOL    HW2 2182   2.116   4.035   2.680
 2950SOL     OW 2183   2.876   3.960   2.833
 2950SOL    HW1 2184   2.868   3.924   2.740
 2950SOL    HW2 2185   2.874   3.884   2.898
 2953SOL     OW 2186   2.534   3.927   3.351
 2953SOL    HW1 2187   2.624   3.911   3.311
 2953SOL    HW2 2188   2.542   3.932   3.450
 2954SOL     OW 2189   1.937   4.069   1.895
 2954SOL    HW1 2190   1.845   4.041   1.866
 2954SOL    HW2 2191   1.968   4.146   1.839
 2956SOL     OW 2192   1.934   3.890   2.180
 2956SOL    HW1 2193   1.917   3.973   2.126
 2956SOL    HW2 2194   2.024   3.853   2.158
 2961SOL     OW 2195   3.087   4.049   2.311
 2961SOL    HW1 2196   3.152   3.975   2.300
 2961SOL    HW2 2197   3.107   4.099   2.395
 2969SOL     OW 2198   2.290   4.148   2.382
 2969SOL    HW1 2199   2.320   4.076   2.320
 2969SOL    HW2 2200   2.251   4.108   2.465
 2971SOL     OW 2201   3.286   3.938   2.974
 2971SOL    HW1 2202   3.338   3.873   3.029
 2971SOL    HW2 2203   3.237   4.001   3.035
 2972SOL     OW 2204   2.863   3.758   3.016
 2972SOL    HW1 2205   2.800   3.686   2.985
 2972SOL    HW2 2206   2.956   3.722   3.016
 2974SOL     OW 2207   3.214   3.776   2.030
 2974SOL    HW1 2208   3.249   3.735   1.946
 2974SOL    HW2 2209   3.124   3.738   2.050
 2975SOL     OW 2210   3.162   4.177   2.553
 2975SOL    HW1 2211   3.103   4.257   2.557
 2975SOL    HW2 2212   3.177   4.142   2.646
 2976SOL     OW 2213   3.455   3.945   2.744
 2976SOL    HW1 2214   3.371   3.944   2.798
 2976SOL    HW2 2215   3.457   4.028   2.688
 3114SOL     OW 2216   3.854   1.821   1.571
 3114SOL    HW1 2217   3.844   1.806   1.670
 3114SOL    HW2 2218   3.768   1.857   1.535
 3193SOL     OW 2219   3.854   1.794   1.851
 3193SOL    HW1 2220   3.813   1.720   1.904
 3193SOL    HW2 2221   3.918   1.845   1.909
 3237SOL     OW 2222   3.955   1.713   2.345
 3237SOL    HW1 2223   3.989   1.790   2.399
 3237SOL    HW2 2224   3.999   1.713   2.255
 3244SOL     OW 2225   3.751   1.596   1.979
 3244SOL    HW1 2226   3.732   1.500   2.000
 3244SOL    HW2 2227   3.718   1.654   2.054
 3257SOL     OW 2228   3.854   1.821   3.433
 3257SOL    HW1 2229   3.844   1.806   3.532
 3257SOL    HW2 2230   3.768   1.857   3.397
 3261SOL     OW 2231   4.075   1.801   2.715
 3261SOL    HW1 2232   4.125   1.715   2.721
 3261SOL    HW2 2233   4.140   1.878   2.712
 3268SOL     OW 2234   3.973   1.785   3.103
 3268SOL    HW1 2235   4.030   1.720   3.153
 3268SOL    HW2 2236   3.957   1.752   3.010
 3296SOL     OW 2237   3.788   1.564   3.193
 3296SOL    HW1 2238   3.742   1.646   3.159
 3296SOL    HW2 2239   3.886   1.583   3.202
 3321SOL     OW 2240   3.732   1.326   2.062
 3321SOL    HW1 2241   3.639   1.347   2.031
 3321SOL    HW2 2242   3.742   1.227   2.075
 3322SOL     OW 2243   3.812   1.801   2.789
 3322SOL    HW1 2244   3.770   1.715   2.762
 3322SOL    HW2 2245   3.906   1.804   2.755
 3492SOL     OW 2246   3.837   2.599   1.597
 3492SOL    HW1 2247   3.925   2.586   1.642
 3492SOL    HW2 2248   3.824   2.696   1.575
 3497SOL     OW 2249   4.041   2.113   1.801
 3497SOL    HW1 2250   4.112   2.184   1.807
 3497SOL    HW2 2251   3.953   2.152   1.829
 3513SOL     OW 2252   3.926   2.147   1.498
 3513SOL    HW1 2253   3.846   2.207   1.485
 3513SOL    HW2 2254   3.916   2.098   1.584
 3531SOL     OW 2255   3.802   2.418   1.386
 3531SOL    HW1 2256   3.894   2.417   1.345
 3531SOL    HW2 2257   3.796   2.492   1.453
 3561SOL     OW 2258   4.074   2.760   1.804
 3561SOL    HW1 2259   4.150   2.804   1.852
 3561SOL    HW2 2260   4.109   2.713   1.722
 3571SOL     OW 2261   3.913   2.382   1.722
 3571SOL    HW1 2262   3.972   2.342   1.652
 3571SOL    HW2 2263   3.855   2.453   1.681
 3577SOL     OW 2264   3.883   2.999   1.466
 3577SOL    HW1 2265   3.905   2.938   1.542
 3577SOL    HW2 2266   3.893   2.950   1.380
 3594SOL     OW 2267   3.829   2.875   1.726
 3594SOL    HW1 2268   3.752   2.842   1.780
 3594SOL    HW2 2269   3.914   2.845   1.768
 3605SOL     OW 2270   3.945   3.176   1.844
 3605SOL    HW1 2271   3.880   3.103   1.823
 3605SOL    HW2 2272   3.949   3.190   1.942
 3616SOL     OW 2273   3.954   2.490   1.975
 3616SOL    HW1 2274   3.861   2.488   2.012
 3616SOL    HW2 2275   3.955   2.451   1.883
 3617SOL     OW 2276   3.949   2.137   2.858
 3617SOL    HW1 2277   3.984   2.120   2.950
 3617SOL    HW2 2278   3.861   2.092   2.846
 3618SOL     OW 2279   3.743   2.230   2.509
 3618SOL    HW1 2280   3.661   2.273   2.548
 3618SOL    HW2 2281   3.715   2.157   2.446
 3625SOL     OW 2282   4.059   3.297   2.923
 3625SOL    HW1 2283   3.981   3.266   2.870
 3625SOL    HW2 2284   4.117   3.355   2.866
 3627SOL     OW 2285   3.955   3.575   2.345
 3627SOL    HW1 2286   3.989   3.652   2.399
 3627SOL    HW2 2287   3.999   3.575   2.255
 3629SOL     OW 2288   3.954   3.296   2.400
 3629SOL    HW1 2289   3.928   3.392   2.400
 3629SOL    HW2 2290   3.883   3.242   2.445
 3630SOL     OW 2291   3.964   2.953   2.748
 3630SOL    HW1 2292   3.978   2.869   2.800
 3630SOL    HW2 2293   3.909   3.017   2.803
 3633SOL     OW 2294   3.846   2.505   2.425
 3633SOL    HW1 2295   3.801   2.417   2.442
 3633SOL    HW2 2296   3.845   2.559   2.509
 3634SOL     OW 2297   3.751   3.458   1.979
 3634SOL    HW1 2298   3.732   3.362   2.000
 3634SOL    HW2 2299   3.718   3.516   2.054
 3635SOL     OW 2300   3.837   2.599   3.459
 3635SOL    HW1 2301   3.925   2.586   3.504
 3635SOL    HW2 2302   3.824   2.696   3.437
 3638SOL     OW 2303   3.921   2.838   3.126
 3638SOL    HW1 2304   4.010   2.793   3.112
 3638SOL    HW2 2305   3.848   2.773   3.107
 3646SOL     OW 2306   3.800   2.673   2.651
 3646SOL    HW1 2307   3.899   2.661   2.660
 3646SOL    HW2 2308   3.776   2.768   2.672
 3653SOL     OW 2309   4.045   2.805   2.104
 3653SOL    HW1 2310   4.127   2.844   2.062
 3653SOL    HW2 2311   4.018   2.723   2.055
 3656SOL     OW 2312   3.926   2.147   3.360
 3656SOL    HW1 2313   3.846   2.207   3.347
 3656SOL    HW2 2314   3.916   2.098   3.446
 3660SOL     OW 2315   4.106   2.562   2.342
 3660SOL    HW1 2316   4.151   2.472   2.339
 3660SOL    HW2 2317   4.012   2.551   2.375
 3667SOL     OW 2318   4.021   1.897   2.033
 3667SOL    HW1 2319   4.070   1.981   2.012
 3667SOL    HW2 2320   4.083   1.832   2.078
 3671SOL     OW 2321   4.183   3.014   2.603
 3671SOL    HW1 2322   4.112   2.987   2.668
 3671SOL    HW2 2323   4.157   2.986   2.510
 3674SOL     OW 2324   3.802   2.418   3.248
 3674SOL    HW1 2325   3.894   2.417   3.207
 3674SOL    HW2 2326   3.796   2.492   3.315
 3685SOL     OW 2327   4.134   2.675   3.113
 3685SOL    HW1 2328   4.220   2.687   3.163
 3685SOL    HW2 2329   4.092   2.588   3.140
 3686SOL     OW 2330   3.788   3.426   3.193
 3686SOL    HW1 2331   3.742   3.508   3.159
 3686SOL    HW2 2332   3.886   3.445   3.202
 3687SOL     OW 2333   4.091   2.962   2.363
 3687SOL    HW1 2334   4.084   3.045   2.307
 3687SOL    HW2 2335   4.095   2.882   2.303
 3688SOL     OW 2336   4.290   2.399   2.727
 3688SOL    HW1 2337   4.302   2.465   2.653
 3688SOL    HW2 2338   4.336   2.433   2.810
 3697SOL     OW 2339   4.031   2.075   3.093
 3697SOL    HW1 2340   4.008   2.112   3.183
 3697SOL    HW2 2341   4.001   1.980   3.087
 3698SOL     OW 2342   3.761   3.172   3.144
 3698SOL    HW1 2343   3.814   3.123   3.212
 3698SOL    HW2 2344   3.783   3.270   3.149
 3700SOL     OW 2345   4.031   1.925   2.480
 3700SOL    HW1 2346   4.020   2.019   2.513
 3700SOL    HW2 2347   4.026   1.862   2.557
 3707SOL     OW 2348   4.043   2.672   2.811
 3707SOL    HW1 2349   4.136   2.708   2.816
 3707SOL    HW2 2350   4.037   2.587   2.863
 3708SOL     OW 2351   4.063   2.371   2.868
 3708SOL    HW1 2352   4.011   2.288   2.851
 3708SOL    HW2 2353   4.140   2.376   2.804
 3711SOL     OW 2354   3.732   3.188   2.062
 3711SOL    HW1 2355   3.639   3.209   2.031
 3711SOL    HW2 2356   3.742   3.089   2.075
 3712SOL     OW 2357   3.812   3.663   2.789
 3712SOL    HW1 2358   3.770   3.577   2.762
 3712SOL    HW2 2359   3.906   3.666   2.755
 3715SOL     OW 2360   3.764   2.406   2.976
 3715SOL    HW1 2361   3.849   2.373   2.935
 3715SOL    HW2 2362   3.777   2.421   3.074
 3716SOL     OW 2363   3.913   2.382   3.584
 3716SOL    HW1 2364   3.972   2.342   3.514
 3716SOL    HW2 2365   3.855   2.453   3.543
 3721SOL     OW 2366   4.197   2.362   2.053
 3721SOL    HW1 2367   4.258   2.442   2.057
 3721SOL    HW2 2368   4.102   2.393   2.060
 3722SOL     OW 2369   3.883   2.999   3.328
 3722SOL    HW1 2370   3.905   2.938   3.404
 3722SOL    HW2 2371   3.893   2.950   3.242
 3725SOL     OW 2372   3.807   3.120   2.884
 3725SOL    HW1 2373   3.802   3.119   2.984
 3725SOL    HW2 2374   3.724   3.079   2.846
 3730SOL     OW 2375   3.987   2.188   2.582
 3730SOL    HW1 2376   3.908   2.239   2.548
 3730SOL    HW2 2377   3.978   2.173   2.680
 3737SOL     OW 2378   3.979   3.210   2.152
 3737SOL    HW1 2379   3.883   3.211   2.125
 3737SOL    HW2 2380   3.991   3.263   2.236
 3738SOL     OW 2381   3.829   2.875   3.588
 3738SOL    HW1 2382   3.752   2.842   3.642
 3738SOL    HW2 2383   3.914   2.845   3.630
 3740SOL     OW 2384   3.799   2.207   1.895
 3740SOL    HW1 2385   3.707   2.179   1.866
 3740SOL    HW2 2386   3.830   2.284   1.839
 3741SOL     OW 2387   3.796   2.028   2.180
 3741SOL    HW1 2388   3.779   2.111   2.126
 3741SOL    HW2 2389   3.886   1.991   2.158
 3745SOL     OW 2390   4.318   2.607   2.514
 3745SOL    HW1 2391   4.368   2.692   2.495
 3745SOL    HW2 2392   4.230   2.609   2.466
 3751SOL     OW 2393   3.803   3.102   2.515
 3751SOL    HW1 2394   3.802   3.055   2.603
 3751SOL    HW2 2395   3.885   3.074   2.464
 3753SOL     OW 2396   4.152   2.286   2.382
 3753SOL    HW1 2397   4.182   2.214   2.320
 3753SOL    HW2 2398   4.113   2.246   2.465
 3754SOL     OW 2399   4.041   2.409   3.142
 3754SOL    HW1 2400   4.079   2.350   3.214
 3754SOL    HW2 2401   4.081   2.383   3.054
 3759SOL     OW 2402   3.763   2.939   2.162
 3759SOL    HW1 2403   3.862   2.928   2.153
 3759SOL    HW2 2404   3.723   2.853   2.194
   5.04072   5.04072   5.04072
