CUP08043_AM1BCC_v1_0
    32
  -3.1320000  -1.4300000  -6.1120000  -3.4810000   0.9620000  -5.8670000
  -2.1970000  -1.4000000  -5.0710000  -2.5470000   0.9800000  -4.8280000
  -3.7720000  -0.2480000  -6.5070000  -1.9090000  -0.1980000  -4.4260000
   1.5850000   1.3180000  -0.3370000   2.5000000  -3.1630000  -4.5820000
   0.4090000   0.4610000  -0.7590000   1.6210000  -2.8740000  -3.3830000
  -4.7500000  -0.2780000  -7.6010000  -4.9780000  -1.3700000  -8.1420000
  -5.2880000   0.7910000  -7.9220000  -1.0140000  -0.0600000  -3.4040000
   0.8440000  -0.4330000  -1.7700000   0.6410000  -1.9230000  -3.7630000
  -0.2760000  -1.2560000  -2.6050000  -1.3900000  -2.4610000  -1.5690000
  -3.3450000  -2.3790000  -6.6020000  -3.9660000   1.8910000  -6.1610000
  -1.7120000  -2.3320000  -4.7950000  -2.3170000   1.9190000  -4.3290000
   2.4040000   0.6930000   0.0350000   1.9770000   1.8810000  -1.1900000
   1.2940000   2.0220000   0.4470000   1.9020000  -3.5430000  -5.4170000
   2.9890000  -2.2470000  -4.9320000   3.2690000  -3.9000000  -4.3350000
  -0.3980000   1.0950000  -1.1380000   0.0400000  -0.1120000   0.0970000
   2.2280000  -2.4830000  -2.5610000   1.1270000  -3.7930000  -3.0540000
