%VERSION  VERSION_STAMP = V0001.000  DATE = 05/20/26  23:53:28                  
%FLAG TITLE                                                                     
%FORMAT(20a4)                                                                   
CUP08043_AM1BCC_v1_0                                                            
%FLAG POINTERS                                                                  
%FORMAT(10I8)                                                                   
      32      10      14      18      30      24      46      32       0       0
     152       1      18      24      32      11      16      12      10       0
       0       0       0       0       0       0       0       0      32       0
       0
%FLAG ATOM_NAME                                                                 
%FORMAT(20a4)                                                                   
C1  C2  C3  C4  C5  C6  C7  C8  C9  C10 N1  O1  O2  O3  O4  O5  P1  S1  H1  H2  
H3  H4  H5  H6  H7  H8  H9  H10 H11 H12 H13 H14 
%FLAG CHARGE                                                                    
%FORMAT(5E16.8)                                                                 
 -1.00222650E+00 -1.00222650E+00 -2.59667775E+00 -2.59667775E+00 -3.24721386E+00
  3.00850173E+00 -1.92427488E+00 -1.92427488E+00  2.75885622E+00  2.75885622E+00
  5.72544666E+00 -3.70823805E+00 -3.70823805E+00 -8.20914615E+00 -9.74346381E+00
 -9.74346381E+00  2.24535181E+01 -1.09151577E+01  3.26179170E+00  3.26179170E+00
  3.15245790E+00  3.15245790E+00  1.01802523E+00  1.01802523E+00  1.01802523E+00
  1.01802523E+00  1.01802523E+00  1.01802523E+00  1.17898281E+00  1.17898281E+00
  1.17898281E+00  1.17898281E+00
%FLAG ATOMIC_NUMBER                                                             
%FORMAT(10I8)                                                                   
       6       6       6       6       6       6       6       6       6       6
       7       8       8       8       8       8      15      16       1       1
       1       1       1       1       1       1       1       1       1       1
       1       1
%FLAG MASS                                                                      
%FORMAT(5E16.8)                                                                 
  1.20100000E+01  1.20100000E+01  1.20100000E+01  1.20100000E+01  1.20100000E+01
  1.20100000E+01  1.20100000E+01  1.20100000E+01  1.20100000E+01  1.20100000E+01
  1.40100000E+01  1.60000000E+01  1.60000000E+01  1.60000000E+01  1.60000000E+01
  1.60000000E+01  3.09700000E+01  3.20600000E+01  1.00800000E+00  1.00800000E+00
  1.00800000E+00  1.00800000E+00  1.00800000E+00  1.00800000E+00  1.00800000E+00
  1.00800000E+00  1.00800000E+00  1.00800000E+00  1.00800000E+00  1.00800000E+00
  1.00800000E+00  1.00800000E+00
%FLAG ATOM_TYPE_INDEX                                                           
%FORMAT(10I8)                                                                   
       1       1       1       1       1       1       2       2       2       2
       3       4       4       5       5       5       6       7       8       8
       8       8       9       9       9       9       9       9      10      10
      10      10
%FLAG NUMBER_EXCLUDED_ATOMS                                                     
%FORMAT(10I8)                                                                   
      12      11       9       8       8       9       8       8      10      10
       4       1       1       6       8       7       5       1       1       1
       1       1       4       3       2       4       3       2       1       1
       1       1
%FLAG NONBONDED_PARM_INDEX                                                      
%FORMAT(10I8)                                                                   
       1       2       4       7      11      16      22      29      37      46
       2       3       5       8      12      17      23      30      38      47
       4       5       6       9      13      18      24      31      39      48
       7       8       9      10      14      19      25      32      40      49
      11      12      13      14      15      20      26      33      41      50
      16      17      18      19      20      21      27      34      42      51
      22      23      24      25      26      27      28      35      43      52
      29      30      31      32      33      34      35      36      44      53
      37      38      39      40      41      42      43      44      45      54
      46      47      48      49      50      51      52      53      54      55
%FLAG RESIDUE_LABEL                                                             
%FORMAT(20a4)                                                                   
MOL 
%FLAG RESIDUE_POINTER                                                           
%FORMAT(10I8)                                                                   
       1
%FLAG BOND_FORCE_CONSTANT                                                       
%FORMAT(5E16.8)                                                                 
  3.54250000E+02  3.60690000E+02  2.50200000E+02  3.43340000E+02  2.28890000E+02
  3.45250000E+02  2.82270000E+02  3.44220000E+02  3.61740000E+02  3.87590000E+02
  2.63920000E+02
%FLAG BOND_EQUIL_VALUE                                                          
%FORMAT(5E16.8)                                                                 
  1.39860000E+00  1.08600000E+00  1.46960000E+00  1.36880000E+00  1.53540000E+00
  1.09620000E+00  1.42730000E+00  1.09690000E+00  1.23110000E+00  1.61820000E+00
  1.94730000E+00
%FLAG ANGLE_FORCE_CONSTANT                                                      
%FORMAT(5E16.8)                                                                 
  6.36700000E+01  4.49000000E+01  6.61200000E+01  7.90000000E+01  9.90800000E+01
  5.66100000E+01  7.74400000E+01  4.32800000E+01  4.32700000E+01  5.66400000E+01
  1.31020000E+02  1.02920000E+02  8.13100000E+01  5.62000000E+01  3.58000000E+01
  3.56400000E+01
%FLAG ANGLE_EQUIL_VALUE                                                         
%FORMAT(5E16.8)                                                                 
  2.09474507E+00  2.09230160E+00  2.07694270E+00  2.07886256E+00  2.05530061E+00
  2.14710497E+00  1.87832415E+00  1.91270715E+00  1.91427794E+00  2.08916001E+00
  2.18253516E+00  1.77534968E+00  2.04273423E+00  1.92579712E+00  1.88024401E+00
  1.89455572E+00
%FLAG DIHEDRAL_FORCE_CONSTANT                                                   
%FORMAT(5E16.8)                                                                 
  3.62500000E+00  7.20000000E-01  1.75000000E+00  8.00000000E-01  3.95000000E+00
  3.83000000E-01  3.52000000E+00  2.50000000E-01  0.00000000E+00  0.00000000E+00
  1.55555556E-01  1.10000000E+00
%FLAG DIHEDRAL_PERIODICITY                                                      
%FORMAT(5E16.8)                                                                 
  2.00000000E+00  2.00000000E+00  2.00000000E+00  2.00000000E+00  1.00000000E+00
  3.00000000E+00  2.00000000E+00  1.00000000E+00  3.00000000E+00  1.00000000E+00
  3.00000000E+00  2.00000000E+00
%FLAG DIHEDRAL_PHASE                                                            
%FORMAT(5E16.8)                                                                 
  3.14159400E+00  3.14159400E+00  3.14159400E+00  0.00000000E+00  3.14159400E+00
  0.00000000E+00  0.00000000E+00  0.00000000E+00  0.00000000E+00  0.00000000E+00
  0.00000000E+00  3.14159400E+00
%FLAG SCEE_SCALE_FACTOR                                                         
%FORMAT(5E16.8)                                                                 
  1.20000000E+00  1.20000000E+00  1.20000000E+00  1.20000000E+00  1.20000000E+00
  1.20000000E+00  1.20000000E+00  1.20000000E+00  1.20000000E+00  1.20000000E+00
  1.20000000E+00  0.00000000E+00
%FLAG SCNB_SCALE_FACTOR                                                         
%FORMAT(5E16.8)                                                                 
  2.00000000E+00  2.00000000E+00  2.00000000E+00  2.00000000E+00  2.00000000E+00
  2.00000000E+00  2.00000000E+00  2.00000000E+00  2.00000000E+00  2.00000000E+00
  2.00000000E+00  0.00000000E+00
%FLAG SOLTY                                                                     
%FORMAT(5E16.8)                                                                 
  0.00000000E+00  0.00000000E+00  0.00000000E+00  0.00000000E+00  0.00000000E+00
  0.00000000E+00  0.00000000E+00  0.00000000E+00  0.00000000E+00  0.00000000E+00
%FLAG LENNARD_JONES_ACOEF                                                       
%FORMAT(5E16.8)                                                                 
  6.96551276E+05  8.43969952E+05  1.02073671E+06  7.10207765E+05  8.59569453E+05
  7.23647490E+05  5.17507491E+05  6.30925504E+05  5.29641935E+05  3.76435470E+05
  4.46121722E+05  5.42502534E+05  4.55871651E+05  3.27367585E+05  2.83662575E+05
  2.06784094E+06  2.48558450E+06  2.09819361E+06  1.57866258E+06  1.34566835E+06
  5.92702883E+06  1.73376823E+06  2.09089895E+06  1.76274168E+06  1.30884564E+06
  1.12086734E+06  5.04212449E+06  4.26366419E+06  7.52549148E+04  9.27554496E+04
  7.75325560E+04  5.27277400E+04  4.65732396E+04  2.40822878E+05  1.95762765E+05
  6.90855956E+03  8.12662403E+04  1.00235148E+05  8.37616145E+04  5.68021765E+04
  5.02224902E+04  2.60860942E+05  2.11783234E+05  7.41026906E+03  7.94617769E+03
  5.63013422E+04  6.97998263E+04  5.82112737E+04  3.86646725E+04  3.44374471E+04
  1.84820254E+05  1.48672098E+05  4.88692384E+03  5.22955465E+03  3.39005767E+03
%FLAG LENNARD_JONES_BCOEF                                                       
%FORMAT(5E16.8)                                                                 
  5.24668528E+02  5.90251928E+02  6.63431737E+02  5.11427129E+02  5.75038595E+02
  4.98353106E+02  4.98871431E+02  5.62969425E+02  4.87196412E+02  4.69350655E+02
  3.88758656E+02  4.38146883E+02  3.79365004E+02  3.67361018E+02  2.87011518E+02
  1.11602383E+03  1.25053147E+03  1.08522620E+03  1.07567582E+03  8.33544600E+02
  2.33259779E+03  1.07629402E+03  1.20800124E+03  1.04764062E+03  1.03157656E+03
  8.01230425E+02  2.26594113E+03  2.19459223E+03  1.09570372E+02  1.24325688E+02
  1.07361937E+02  1.01173582E+02  7.98066064E+01  2.41980856E+02  2.29782888E+02
  2.10929191E+01  1.21392023E+02  1.37787728E+02  1.18970742E+02  1.11953944E+02
  8.83545880E+01  2.68501076E+02  2.54804909E+02  2.32899892E+01  2.57122925E+01
  1.01040256E+02  1.14981426E+02  9.91793374E+01  9.23664132E+01  7.31636661E+01
  2.26004082E+02  2.13489607E+02  1.89134207E+01  2.08590256E+01  1.67944276E+01
%FLAG BONDS_INC_HYDROGEN                                                        
%FORMAT(10I8)                                                                   
       0      54       2       3      57       2       6      60       2       9
      63       2      18      66       6      18      69       6      18      72
       6      21      75       6      21      78       6      21      81       6
      24      84       8      24      87       8      27      90       8      27
      93       8
%FLAG BONDS_WITHOUT_HYDROGEN                                                    
%FORMAT(10I8)                                                                   
       0       6       1       0      12       1       3       9       1       3
      12       1       6      15       1       9      15       1      12      30
       3      15      39       4      18      24       5      21      27       5
      24      42       7      27      45       7      30      33       9      30
      36       9      39      48      10      42      48      10      45      48
      10      48      51      11
%FLAG ANGLES_INC_HYDROGEN                                                       
%FORMAT(10I8)                                                                   
       0       6      60       2       3       9      63       2       6       0
      54       2       9       3      57       2      12       0      54       2
      12       3      57       2      15       6      60       2      15       9
      63       2      18      24      84       8      18      24      87       8
      21      27      90       8      21      27      93       8      24      18
      66       9      24      18      69       9      24      18      72       9
      27      21      75       9      27      21      78       9      27      21
      81       9      42      24      84      14      42      24      87      14
      45      27      90      14      45      27      93      14      66      18
      69      15      66      18      72      15      69      18      72      15
      75      21      78      15      75      21      81      15      78      21
      81      15      84      24      87      16      90      27      93      16
%FLAG ANGLES_WITHOUT_HYDROGEN                                                   
%FORMAT(10I8)                                                                   
       0       6      15       1       0      12       3       1       0      12
      30       3       3       9      15       1       3      12      30       3
       6       0      12       1       6      15       9       1       6      15
      39       4       9       3      12       1       9      15      39       4
      12      30      33       5      12      30      36       5      15      39
      48       6      18      24      42       7      21      27      45       7
      24      42      48      10      27      45      48      10      33      30
      36      11      39      48      42      12      39      48      45      12
      39      48      51      13      42      48      45      12      42      48
      51      13      45      48      51      13
%FLAG DIHEDRALS_INC_HYDROGEN                                                    
%FORMAT(10I8)                                                                   
       0      12       3      57       1      54       0      12       3       1
       6      15       9      63       1       9      15       6      60       1
      12       0       6      60       1      12       3       9      63       1
      54       0       6      15       1      15       9       3      57       1
      54       0      12      30       1      30      12       3      57       1
      39      15       6      60       1      39      15       9      63       1
      42      24      18      66       8      42      24     -18      66       9
      42      24      18      69       8      42      24     -18      69       9
      42      24      18      72       8      42      24     -18      72       9
      45      27      21      75       8      45      27     -21      75       9
      45      27      21      78       8      45      27     -21      78       9
      45      27      21      81       8      45      27     -21      81       9
      48      42      24      84      10      48      42      24      87      10
      48      45      27      90      10      48      45      27      93      10
      54       0       6      60       1      57       3       9      63       1
      66      18      24      84      11      66      18      24      87      11
      69      18      24      84      11      69      18      24      87      11
      72      18      24      84      11      72      18      24      87      11
      75      21      27      90      11      75      21      27      93      11
      78      21      27      90      11      78      21      27      93      11
      81      21      27      90      11      81      21      27      93      11
      54       0     -12      -6      12       9      12      -3     -57      12
       0      15      -6     -60      12       3      15      -9     -63      12
%FLAG DIHEDRALS_WITHOUT_HYDROGEN                                                
%FORMAT(10I8)                                                                   
       0       6      15       9       1       0       6      15      39       1
       0      12      -3       9       1       0      12      30      33       2
       0      12      30      36       2       3       9      15       6       1
       3       9      15      39       1       6       0     -12       3       1
       3      12      30      33       2       3      12      30      36       2
       6       0      12      30       1       6      15      39      48       3
       9       3      12      30       1       9      15      39      48       3
      12       0       6      15       1      12       3      -9      15       1
      15      39      48      42       4      15      39      48      45       4
      15      39      48      51       4      18      24      42      48       5
      18      24     -42      48       6      21      27      45      48       5
      21      27     -45      48       6      24      42      48      39       7
      24      42      48      45       7      24      42      48      51       4
      27      45      48      39       7      27      45      48      42       7
      27      45      48      51       4       0       3     -12     -30      12
       6       9     -15     -39      12      12      33     -30     -36      12
%FLAG EXCLUDED_ATOMS_LIST                                                       
%FORMAT(10I8)                                                                   
       2       3       4       5       6      11      12      13      14      19
      20      21       3       4       5       6      11      12      13      14
      19      20      22       4       5       6      11      14      17      19
      21      22       5       6      11      14      17      20      21      22
       6      11      12      13      19      20      21      22      14      15
      16      17      18      19      20      21      22       9      15      17
      23      24      25      29      30      10      16      17      26      27
      28      31      32      14      15      16      17      18      23      24
      25      29      30      14      15      16      17      18      26      27
      28      31      32      12      13      19      20      13       0      15
      16      17      18      21      22      16      17      18      23      24
      25      29      30      17      18      26      27      28      31      32
      18      29      30      31      32       0      21      22       0       0
      24      25      29      30      25      29      30      29      30      27
      28      31      32      28      31      32      31      32      30       0
      32       0
%FLAG HBOND_ACOEF                                                               
%FORMAT(5E16.8)                                                                 

%FLAG HBOND_BCOEF                                                               
%FORMAT(5E16.8)                                                                 

%FLAG HBCUT                                                                     
%FORMAT(5E16.8)                                                                 

%FLAG AMBER_ATOM_TYPE                                                           
%FORMAT(20a4)                                                                   
ca  ca  ca  ca  ca  ca  c3  c3  c3  c3  no  o   o   os  os  os  p5  s   ha  ha  
ha  ha  hc  hc  hc  hc  hc  hc  h1  h1  h1  h1  
%FLAG TREE_CHAIN_CLASSIFICATION                                                 
%FORMAT(20a4)                                                                   
BLA BLA BLA BLA BLA BLA BLA BLA BLA BLA BLA BLA BLA BLA BLA BLA BLA BLA BLA BLA 
BLA BLA BLA BLA BLA BLA BLA BLA BLA BLA BLA BLA 
%FLAG JOIN_ARRAY                                                                
%FORMAT(10I8)                                                                   
       0       0       0       0       0       0       0       0       0       0
       0       0       0       0       0       0       0       0       0       0
       0       0       0       0       0       0       0       0       0       0
       0       0
%FLAG IROTAT                                                                    
%FORMAT(10I8)                                                                   
       0       0       0       0       0       0       0       0       0       0
       0       0       0       0       0       0       0       0       0       0
       0       0       0       0       0       0       0       0       0       0
       0       0
%FLAG RADIUS_SET                                                                
%FORMAT(1a80)                                                                   
modified Bondi radii (mbondi)                                                   
%FLAG RADII                                                                     
%FORMAT(5E16.8)                                                                 
  1.70000000E+00  1.70000000E+00  1.70000000E+00  1.70000000E+00  1.70000000E+00
  1.70000000E+00  1.70000000E+00  1.70000000E+00  1.70000000E+00  1.70000000E+00
  1.55000000E+00  1.50000000E+00  1.50000000E+00  1.50000000E+00  1.50000000E+00
  1.50000000E+00  1.85000000E+00  1.80000000E+00  1.30000000E+00  1.30000000E+00
  1.30000000E+00  1.30000000E+00  1.30000000E+00  1.30000000E+00  1.30000000E+00
  1.30000000E+00  1.30000000E+00  1.30000000E+00  1.30000000E+00  1.30000000E+00
  1.30000000E+00  1.30000000E+00
%FLAG SCREEN                                                                    
%FORMAT(5E16.8)                                                                 
  7.20000000E-01  7.20000000E-01  7.20000000E-01  7.20000000E-01  7.20000000E-01
  7.20000000E-01  7.20000000E-01  7.20000000E-01  7.20000000E-01  7.20000000E-01
  7.90000000E-01  8.50000000E-01  8.50000000E-01  8.50000000E-01  8.50000000E-01
  8.50000000E-01  8.60000000E-01  9.60000000E-01  8.50000000E-01  8.50000000E-01
  8.50000000E-01  8.50000000E-01  8.50000000E-01  8.50000000E-01  8.50000000E-01
  8.50000000E-01  8.50000000E-01  8.50000000E-01  8.50000000E-01  8.50000000E-01
  8.50000000E-01  8.50000000E-01
%FLAG IPOL                                                                      
%FORMAT(1I8)                                                                    
       0
