mobley_9281946_GMX.gro created by acpype (v: 2023.10.27) on Wed May 20 23:53:04 2026
 32
    1  MOL   C1    1  -0.313  -0.143  -0.611
    1  MOL   C2    2  -0.348   0.096  -0.587
    1  MOL   C3    3  -0.220  -0.140  -0.507
    1  MOL   C4    4  -0.255   0.098  -0.483
    1  MOL   C5    5  -0.377  -0.025  -0.651
    1  MOL   C6    6  -0.191  -0.020  -0.443
    1  MOL   C7    7   0.159   0.132  -0.034
    1  MOL   C8    8   0.250  -0.316  -0.458
    1  MOL   C9    9   0.041   0.046  -0.076
    1  MOL  C10   10   0.162  -0.287  -0.338
    1  MOL   N1   11  -0.475  -0.028  -0.760
    1  MOL   O1   12  -0.498  -0.137  -0.814
    1  MOL   O2   13  -0.529   0.079  -0.792
    1  MOL   O3   14  -0.101  -0.006  -0.340
    1  MOL   O4   15   0.084  -0.043  -0.177
    1  MOL   O5   16   0.064  -0.192  -0.376
    1  MOL   P1   17  -0.028  -0.126  -0.261
    1  MOL   S1   18  -0.139  -0.246  -0.157
    1  MOL   H1   19  -0.335  -0.238  -0.660
    1  MOL   H2   20  -0.397   0.189  -0.616
    1  MOL   H3   21  -0.171  -0.233  -0.480
    1  MOL   H4   22  -0.232   0.192  -0.433
    1  MOL   H5   23   0.240   0.069   0.004
    1  MOL   H6   24   0.198   0.188  -0.119
    1  MOL   H7   25   0.129   0.202   0.045
    1  MOL   H8   26   0.190  -0.354  -0.542
    1  MOL   H9   27   0.299  -0.225  -0.493
    1  MOL  H10   28   0.327  -0.390  -0.433
    1  MOL  H11   29  -0.040   0.110  -0.114
    1  MOL  H12   30   0.004  -0.011   0.010
    1  MOL  H13   31   0.223  -0.248  -0.256
    1  MOL  H14   32   0.113  -0.379  -0.305
   17.11400    11.84400    17.17800
