; mobley_9281946_GMX_OPLS.top created by acpype (v: 2023.10.27) on Wed May 20 23:53:04 2026

; Include forcefield parameters
#include "ffoplsaa.itp"

; Include mobley_9281946_GMX.itp topology
#include "mobley_9281946_GMX.itp"

; Ligand position restraints
#ifdef POSRES_LIG
#include "posre_mobley_9281946.itp"
#endif

[ system ]
 mobley_9281946

[ molecules ]
; Compound        nmols
 mobley_9281946   1     
