; mobley_9281946_GMX_OPLS.itp created by acpype (v: 2023.10.27) on Wed May 20 23:53:04 2026

; For OPLS atomtypes manual fine tuning
; AC_at:OPLS_at:OPLScode: Possible_Alternatives (see ffoplsaa.atp and ffoplsaanb.itp)
; ca:CA:opls_145: ['166', '501', '502']
; c3:CT:opls_135: ['136', '137', '149', '157', '158', '206', '209', '210', '223B', '224B', '245', '246', '274', '283', '284', '285', '292', '292B', '293B', '296', '307', '308', '505']
; no:x:opls_x: []
; o:O:opls_236: ['272']
; os:x:opls_x: []
; p5:x:opls_x: []
; s:x:opls_x: []
; ha:HA:opls_146: []
; hc:HC:opls_140: []
; h1:HC:opls_140: []

[ moleculetype ]
;name            nrexcl
 mobley_9281946   3

[ atoms ]
;   nr  type  resi  res  atom  cgnr     charge      mass       ; qtot   bond_type
     1 opls_145     1   MOL    C1    1    -0.055000     12.01100 ; qtot -0.055  CA  
     2 opls_145     1   MOL    C2    2    -0.055000     12.01100 ; qtot -0.110  CA  
     3 opls_145     1   MOL    C3    3    -0.142500     12.01100 ; qtot -0.252  CA  
     4 opls_145     1   MOL    C4    4    -0.142500     12.01100 ; qtot -0.395  CA  
     5 opls_145     1   MOL    C5    5    -0.178200     12.01100 ; qtot -0.573  CA  
     6 opls_145     1   MOL    C6    6     0.165100     12.01100 ; qtot -0.408  CA  
     7 opls_135     1   MOL    C7    7    -0.105600     12.01100 ; qtot -0.514  CT  
     8 opls_135     1   MOL    C8    8    -0.105600     12.01100 ; qtot -0.619  CT  
     9 opls_135     1   MOL    C9    9     0.151400     12.01100 ; qtot -0.468  CT  
    10 opls_135     1   MOL   C10   10     0.151400     12.01100 ; qtot -0.317  CT  
    11 opls_x     1   MOL    N1   11     0.314200      0.00000 ; qtot -0.002  x   
    12 opls_236     1   MOL    O1   12    -0.203500     15.99940 ; qtot -0.206  O   
    13 opls_236     1   MOL    O2   13    -0.203500     15.99940 ; qtot -0.409  O   
    14 opls_x     1   MOL    O3   14    -0.450500      0.00000 ; qtot -0.860  x   
    15 opls_x     1   MOL    O4   15    -0.534700      0.00000 ; qtot -1.394  x   
    16 opls_x     1   MOL    O5   16    -0.534700      0.00000 ; qtot -1.929  x   
    17 opls_x     1   MOL    P1   17     1.230198      0.00000 ; qtot -0.699  x   
    18 opls_x     1   MOL    S1   18    -0.599000      0.00000 ; qtot -1.298  x   
    19 opls_146     1   MOL    H1   19     0.179000      1.00800 ; qtot -1.119  HA  
    20 opls_146     1   MOL    H2   20     0.179000      1.00800 ; qtot -0.940  HA  
    21 opls_146     1   MOL    H3   21     0.173000      1.00800 ; qtot -0.767  HA  
    22 opls_146     1   MOL    H4   22     0.173000      1.00800 ; qtot -0.594  HA  
    23 opls_140     1   MOL    H5   23     0.055867      1.00800 ; qtot -0.538  HC  
    24 opls_140     1   MOL    H6   24     0.055867      1.00800 ; qtot -0.482  HC  
    25 opls_140     1   MOL    H7   25     0.055867      1.00800 ; qtot -0.426  HC  
    26 opls_140     1   MOL    H8   26     0.055867      1.00800 ; qtot -0.371  HC  
    27 opls_140     1   MOL    H9   27     0.055867      1.00800 ; qtot -0.315  HC  
    28 opls_140     1   MOL   H10   28     0.055867      1.00800 ; qtot -0.259  HC  
    29 opls_140     1   MOL   H11   29     0.064700      1.00800 ; qtot -0.194  HC  
    30 opls_140     1   MOL   H12   30     0.064700      1.00800 ; qtot -0.129  HC  
    31 opls_140     1   MOL   H13   31     0.064700      1.00800 ; qtot -0.065  HC  
    32 opls_140     1   MOL   H14   32     0.064700      1.00800 ; qtot  0.000  HC  

[ bonds ]
;   ai     aj funct   r             k
     1      3   1 ;    1.3986e-01    2.9644e+05 ;     C1 - C3         CA - CA    
     1      5   1 ;    1.3986e-01    2.9644e+05 ;     C1 - C5         CA - CA    
     1     19   1 ;    1.0860e-01    3.0183e+05 ;     C1 - H1         CA - HA    
     2      4   1 ;    1.3986e-01    2.9644e+05 ;     C2 - C4         CA - CA    
     2      5   1 ;    1.3986e-01    2.9644e+05 ;     C2 - C5         CA - CA    
     2     20   1 ;    1.0860e-01    3.0183e+05 ;     C2 - H2         CA - HA    
     3      6   1 ;    1.3986e-01    2.9644e+05 ;     C3 - C6         CA - CA    
     3     21   1 ;    1.0860e-01    3.0183e+05 ;     C3 - H3         CA - HA    
     4      6   1 ;    1.3986e-01    2.9644e+05 ;     C4 - C6         CA - CA    
     4     22   1 ;    1.0860e-01    3.0183e+05 ;     C4 - H4         CA - HA    
     5     11   1 ;    1.4696e-01    2.0937e+05 ;     C5 - N1         CA - x     
     6     14   1 ;    1.3688e-01    2.8731e+05 ;     C6 - O3         CA - x     
     7      9   1 ;    1.5354e-01    1.9154e+05 ;     C7 - C9         CT - CT    
     7     23   1 ;    1.0962e-01    2.8891e+05 ;     C7 - H5         CT - HC    
     7     24   1 ;    1.0962e-01    2.8891e+05 ;     C7 - H6         CT - HC    
     7     25   1 ;    1.0962e-01    2.8891e+05 ;     C7 - H7         CT - HC    
     8     10   1 ;    1.5354e-01    1.9154e+05 ;     C8 - C10        CT - CT    
     8     26   1 ;    1.0962e-01    2.8891e+05 ;     C8 - H8         CT - HC    
     8     27   1 ;    1.0962e-01    2.8891e+05 ;     C8 - H9         CT - HC    
     8     28   1 ;    1.0962e-01    2.8891e+05 ;     C8 - H10        CT - HC    
     9     15   1 ;    1.4273e-01    2.3620e+05 ;     C9 - O4         CT - x     
     9     29   1 ;    1.0969e-01    2.8804e+05 ;     C9 - H11        CT - HC    
     9     30   1 ;    1.0969e-01    2.8804e+05 ;     C9 - H12        CT - HC    
    10     16   1 ;    1.4273e-01    2.3620e+05 ;    C10 - O5         CT - x     
    10     31   1 ;    1.0969e-01    2.8804e+05 ;    C10 - H13        CT - HC    
    10     32   1 ;    1.0969e-01    2.8804e+05 ;    C10 - H14        CT - HC    
    11     12   1 ;    1.2311e-01    3.0270e+05 ;     N1 - O1          x - O     
    11     13   1 ;    1.2311e-01    3.0270e+05 ;     N1 - O2          x - O     
    14     17   1 ;    1.6182e-01    3.2434e+05 ;     O3 - P1          x - x     
    15     17   1 ;    1.6182e-01    3.2434e+05 ;     O4 - P1          x - x     
    16     17   1 ;    1.6182e-01    3.2434e+05 ;     O5 - P1          x - x     
    17     18   1 ;    1.9473e-01    2.2085e+05 ;     P1 - S1          x - x     

[ pairs ]
;   ai     aj    funct
     1      4      1 ;     C1 - C4    
     1     12      1 ;     C1 - O1    
     1     13      1 ;     C1 - O2    
     1     14      1 ;     C1 - O3    
     1     20      1 ;     C1 - H2    
     2      3      1 ;     C2 - C3    
     2     12      1 ;     C2 - O1    
     2     13      1 ;     C2 - O2    
     2     14      1 ;     C2 - O3    
     3     11      1 ;     C3 - N1    
     3     17      1 ;     C3 - P1    
     3     22      1 ;     C3 - H4    
     4     11      1 ;     C4 - N1    
     4     17      1 ;     C4 - P1    
     4     21      1 ;     C4 - H3    
     5      6      1 ;     C5 - C6    
     5     21      1 ;     C5 - H3    
     5     22      1 ;     C5 - H4    
     6     15      1 ;     C6 - O4    
     6     16      1 ;     C6 - O5    
     6     18      1 ;     C6 - S1    
     6     20      1 ;     C6 - H2    
     7     17      1 ;     C7 - P1    
     8     17      1 ;     C8 - P1    
     9     14      1 ;     C9 - O3    
     9     16      1 ;     C9 - O5    
     9     18      1 ;     C9 - S1    
    10     14      1 ;    C10 - O3    
    10     15      1 ;    C10 - O4    
    10     18      1 ;    C10 - S1    
    11     20      1 ;     N1 - H2    
    14     21      1 ;     O3 - H3    
    14     22      1 ;     O3 - H4    
    15     23      1 ;     O4 - H5    
    15     24      1 ;     O4 - H6    
    15     25      1 ;     O4 - H7    
    16     26      1 ;     O5 - H8    
    16     27      1 ;     O5 - H9    
    16     28      1 ;     O5 - H10   
    17     29      1 ;     P1 - H11   
    17     30      1 ;     P1 - H12   
    17     31      1 ;     P1 - H13   
    17     32      1 ;     P1 - H14   
    19      2      1 ;     H1 - C2    
    19      6      1 ;     H1 - C6    
    19     11      1 ;     H1 - N1    
    19     21      1 ;     H1 - H3    
    20     22      1 ;     H2 - H4    
    23     29      1 ;     H5 - H11   
    23     30      1 ;     H5 - H12   
    24     29      1 ;     H6 - H11   
    24     30      1 ;     H6 - H12   
    25     29      1 ;     H7 - H11   
    25     30      1 ;     H7 - H12   
    26     31      1 ;     H8 - H13   
    26     32      1 ;     H8 - H14   
    27     31      1 ;     H9 - H13   
    27     32      1 ;     H9 - H14   
    28     31      1 ;    H10 - H13   
    28     32      1 ;    H10 - H14   

[ angles ]
;   ai     aj     ak    funct   theta         cth
     1      3      6      1 ;    1.2002e+02    5.3279e+02 ;     C1 - C3   - C6       CA -   CA - CA  
     1      3     21      1 ;    1.1988e+02    3.7572e+02 ;     C1 - C3   - H3       CA -   CA - HA  
     1      5      2      1 ;    1.2002e+02    5.3279e+02 ;     C1 - C5   - C2       CA -   CA - CA  
     1      5     11      1 ;    1.1900e+02    5.5329e+02 ;     C1 - C5   - N1       CA -   CA - x   
     2      4      6      1 ;    1.2002e+02    5.3279e+02 ;     C2 - C4   - C6       CA -   CA - CA  
     2      4     22      1 ;    1.1988e+02    3.7572e+02 ;     C2 - C4   - H4       CA -   CA - HA  
     2      5     11      1 ;    1.1900e+02    5.5329e+02 ;     C2 - C5   - N1       CA -   CA - x   
     3      1      5      1 ;    1.2002e+02    5.3279e+02 ;     C3 - C1   - C5       CA -   CA - CA  
     3      1     19      1 ;    1.1988e+02    3.7572e+02 ;     C3 - C1   - H1       CA -   CA - HA  
     3      6      4      1 ;    1.2002e+02    5.3279e+02 ;     C3 - C6   - C4       CA -   CA - CA  
     3      6     14      1 ;    1.1911e+02    6.6107e+02 ;     C3 - C6   - O3       CA -   CA - x   
     4      2      5      1 ;    1.2002e+02    5.3279e+02 ;     C4 - C2   - C5       CA -   CA - CA  
     4      2     20      1 ;    1.1988e+02    3.7572e+02 ;     C4 - C2   - H2       CA -   CA - HA  
     4      6     14      1 ;    1.1911e+02    6.6107e+02 ;     C4 - C6   - O3       CA -   CA - x   
     5      1     19      1 ;    1.1988e+02    3.7572e+02 ;     C5 - C1   - H1       CA -   CA - HA  
     5      2     20      1 ;    1.1988e+02    3.7572e+02 ;     C5 - C2   - H2       CA -   CA - HA  
     5     11     12      1 ;    1.1776e+02    8.2910e+02 ;     C5 - N1   - O1       CA -    x - O   
     5     11     13      1 ;    1.1776e+02    8.2910e+02 ;     C5 - N1   - O2       CA -    x - O   
     6      3     21      1 ;    1.1988e+02    3.7572e+02 ;     C6 - C3   - H3       CA -   CA - HA  
     6      4     22      1 ;    1.1988e+02    3.7572e+02 ;     C6 - C4   - H4       CA -   CA - HA  
     6     14     17      1 ;    1.2302e+02    4.7371e+02 ;     C6 - O3   - P1       CA -    x - x   
     7      9     15      1 ;    1.0762e+02    6.4802e+02 ;     C7 - C9   - O4       CT -   CT - x   
     7      9     29      1 ;    1.0959e+02    3.6217e+02 ;     C7 - C9   - H11      CT -   CT - HC  
     7      9     30      1 ;    1.0959e+02    3.6217e+02 ;     C7 - C9   - H12      CT -   CT - HC  
     8     10     16      1 ;    1.0762e+02    6.4802e+02 ;     C8 - C10  - O5       CT -   CT - x   
     8     10     31      1 ;    1.0959e+02    3.6217e+02 ;     C8 - C10  - H13      CT -   CT - HC  
     8     10     32      1 ;    1.0959e+02    3.6217e+02 ;     C8 - C10  - H14      CT -   CT - HC  
     9      7     23      1 ;    1.0968e+02    3.6208e+02 ;     C9 - C7   - H5       CT -   CT - HC  
     9      7     24      1 ;    1.0968e+02    3.6208e+02 ;     C9 - C7   - H6       CT -   CT - HC  
     9      7     25      1 ;    1.0968e+02    3.6208e+02 ;     C9 - C7   - H7       CT -   CT - HC  
     9     15     17      1 ;    1.1970e+02    4.7396e+02 ;     C9 - O4   - P1       CT -    x - x   
    10      8     26      1 ;    1.0968e+02    3.6208e+02 ;    C10 - C8   - H8       CT -   CT - HC  
    10      8     27      1 ;    1.0968e+02    3.6208e+02 ;    C10 - C8   - H9       CT -   CT - HC  
    10      8     28      1 ;    1.0968e+02    3.6208e+02 ;    C10 - C8   - H10      CT -   CT - HC  
    10     16     17      1 ;    1.1970e+02    4.7396e+02 ;    C10 - O5   - P1       CT -    x - x   
    12     11     13      1 ;    1.2505e+02    1.0964e+03 ;     O1 - N1   - O2        O -    x - O   
    14     17     15      1 ;    1.0172e+02    8.6123e+02 ;     O3 - P1   - O4        x -    x - x   
    14     17     16      1 ;    1.0172e+02    8.6123e+02 ;     O3 - P1   - O5        x -    x - x   
    14     17     18      1 ;    1.1704e+02    6.8040e+02 ;     O3 - P1   - S1        x -    x - x   
    15      9     29      1 ;    1.1034e+02    4.7028e+02 ;     O4 - C9   - H11       x -   CT - HC  
    15      9     30      1 ;    1.1034e+02    4.7028e+02 ;     O4 - C9   - H12       x -   CT - HC  
    15     17     16      1 ;    1.0172e+02    8.6123e+02 ;     O4 - P1   - O5        x -    x - x   
    15     17     18      1 ;    1.1704e+02    6.8040e+02 ;     O4 - P1   - S1        x -    x - x   
    16     10     31      1 ;    1.1034e+02    4.7028e+02 ;     O5 - C10  - H13       x -   CT - HC  
    16     10     32      1 ;    1.1034e+02    4.7028e+02 ;     O5 - C10  - H14       x -   CT - HC  
    16     17     18      1 ;    1.1704e+02    6.8040e+02 ;     O5 - P1   - S1        x -    x - x   
    23      7     24      1 ;    1.0773e+02    2.9957e+02 ;     H5 - C7   - H6       HC -   CT - HC  
    23      7     25      1 ;    1.0773e+02    2.9957e+02 ;     H5 - C7   - H7       HC -   CT - HC  
    24      7     25      1 ;    1.0773e+02    2.9957e+02 ;     H6 - C7   - H7       HC -   CT - HC  
    26      8     27      1 ;    1.0773e+02    2.9957e+02 ;     H8 - C8   - H9       HC -   CT - HC  
    26      8     28      1 ;    1.0773e+02    2.9957e+02 ;     H8 - C8   - H10      HC -   CT - HC  
    27      8     28      1 ;    1.0773e+02    2.9957e+02 ;     H9 - C8   - H10      HC -   CT - HC  
    29      9     30      1 ;    1.0855e+02    2.9824e+02 ;    H11 - C9   - H12      HC -   CT - HC  
    31     10     32      1 ;    1.0855e+02    2.9824e+02 ;    H13 - C10  - H14      HC -   CT - HC  

[ dihedrals ] ; propers
; for gromacs 4.5 or higher, using funct 9
;    i      j      k      l   func   phase     kd      pn
     1      3      6      4      9 ;   180.00  15.16700   2 ;     C1-    C3-    C6-    C4
     1      3      6     14      9 ;   180.00  15.16700   2 ;     C1-    C3-    C6-    O3
     1      5      2      4      9 ;   180.00  15.16700   2 ;     C1-    C5-    C2-    C4
     1      5      2     20      9 ;   180.00  15.16700   2 ;     C1-    C5-    C2-    H2
     1      5     11     12      9 ;   180.00   3.01248   2 ;     C1-    C5-    N1-    O1
     1      5     11     13      9 ;   180.00   3.01248   2 ;     C1-    C5-    N1-    O2
     2      4      6      3      9 ;   180.00  15.16700   2 ;     C2-    C4-    C6-    C3
     2      4      6     14      9 ;   180.00  15.16700   2 ;     C2-    C4-    C6-    O3
     2      5     11     12      9 ;   180.00   3.01248   2 ;     C2-    C5-    N1-    O1
     2      5     11     13      9 ;   180.00   3.01248   2 ;     C2-    C5-    N1-    O2
     3      1      5      2      9 ;   180.00  15.16700   2 ;     C3-    C1-    C5-    C2
     3      1      5     11      9 ;   180.00  15.16700   2 ;     C3-    C1-    C5-    N1
     3      6      4     22      9 ;   180.00  15.16700   2 ;     C3-    C6-    C4-    H4
     3      6     14     17      9 ;   180.00   7.32200   2 ;     C3-    C6-    O3-    P1
     4      2      5     11      9 ;   180.00  15.16700   2 ;     C4-    C2-    C5-    N1
     4      6      3     21      9 ;   180.00  15.16700   2 ;     C4-    C6-    C3-    H3
     4      6     14     17      9 ;   180.00   7.32200   2 ;     C4-    C6-    O3-    P1
     5      1      3      6      9 ;   180.00  15.16700   2 ;     C5-    C1-    C3-    C6
     5      1      3     21      9 ;   180.00  15.16700   2 ;     C5-    C1-    C3-    H3
     5      2      4      6      9 ;   180.00  15.16700   2 ;     C5-    C2-    C4-    C6
     5      2      4     22      9 ;   180.00  15.16700   2 ;     C5-    C2-    C4-    H4
     6      4      2     20      9 ;   180.00  15.16700   2 ;     C6-    C4-    C2-    H2
     6     14     17     15      9 ;     0.00   3.34720   2 ;     C6-    O3-    P1-    O4
     6     14     17     16      9 ;     0.00   3.34720   2 ;     C6-    O3-    P1-    O5
     6     14     17     18      9 ;     0.00   3.34720   2 ;     C6-    O3-    P1-    S1
     7      9     15     17      9 ;     0.00   1.60247   3 ;     C7-    C9-    O4-    P1
     7      9     15     17      9 ;   180.00  16.52680   1 ;     C7-    C9-    O4-    P1
     8     10     16     17      9 ;     0.00   1.60247   3 ;     C8-   C10-    O5-    P1
     8     10     16     17      9 ;   180.00  16.52680   1 ;     C8-   C10-    O5-    P1
     9     15     17     14      9 ;     0.00  14.72768   2 ;     C9-    O4-    P1-    O3
     9     15     17     16      9 ;     0.00  14.72768   2 ;     C9-    O4-    P1-    O5
     9     15     17     18      9 ;     0.00   3.34720   2 ;     C9-    O4-    P1-    S1
    10     16     17     14      9 ;     0.00  14.72768   2 ;    C10-    O5-    P1-    O3
    10     16     17     15      9 ;     0.00  14.72768   2 ;    C10-    O5-    P1-    O4
    10     16     17     18      9 ;     0.00   3.34720   2 ;    C10-    O5-    P1-    S1
    11      5      2     20      9 ;   180.00  15.16700   2 ;     N1-    C5-    C2-    H2
    14      6      3     21      9 ;   180.00  15.16700   2 ;     O3-    C6-    C3-    H3
    14      6      4     22      9 ;   180.00  15.16700   2 ;     O3-    C6-    C4-    H4
    15      9      7     23      9 ;     0.00   0.00000   0 ;     O4-    C9-    C7-    H5
    15      9      7     23      9 ;     0.00   1.04600   1 ;     O4-    C9-    C7-    H5
    15      9      7     24      9 ;     0.00   0.00000   0 ;     O4-    C9-    C7-    H6
    15      9      7     24      9 ;     0.00   1.04600   1 ;     O4-    C9-    C7-    H6
    15      9      7     25      9 ;     0.00   0.00000   0 ;     O4-    C9-    C7-    H7
    15      9      7     25      9 ;     0.00   1.04600   1 ;     O4-    C9-    C7-    H7
    16     10      8     26      9 ;     0.00   0.00000   0 ;     O5-   C10-    C8-    H8
    16     10      8     26      9 ;     0.00   1.04600   1 ;     O5-   C10-    C8-    H8
    16     10      8     27      9 ;     0.00   0.00000   0 ;     O5-   C10-    C8-    H9
    16     10      8     27      9 ;     0.00   1.04600   1 ;     O5-   C10-    C8-    H9
    16     10      8     28      9 ;     0.00   0.00000   0 ;     O5-   C10-    C8-   H10
    16     10      8     28      9 ;     0.00   1.04600   1 ;     O5-   C10-    C8-   H10
    17     15      9     29      9 ;     0.00   0.00000   0 ;     P1-    O4-    C9-   H11
    17     15      9     30      9 ;     0.00   0.00000   0 ;     P1-    O4-    C9-   H12
    17     16     10     31      9 ;     0.00   0.00000   0 ;     P1-    O5-   C10-   H13
    17     16     10     32      9 ;     0.00   0.00000   0 ;     P1-    O5-   C10-   H14
    19      1      3      6      9 ;   180.00  15.16700   2 ;     H1-    C1-    C3-    C6
    19      1      3     21      9 ;   180.00  15.16700   2 ;     H1-    C1-    C3-    H3
    19      1      5      2      9 ;   180.00  15.16700   2 ;     H1-    C1-    C5-    C2
    19      1      5     11      9 ;   180.00  15.16700   2 ;     H1-    C1-    C5-    N1
    20      2      4     22      9 ;   180.00  15.16700   2 ;     H2-    C2-    C4-    H4
    23      7      9     29      9 ;     0.00   0.65084   3 ;     H5-    C7-    C9-   H11
    23      7      9     30      9 ;     0.00   0.65084   3 ;     H5-    C7-    C9-   H12
    24      7      9     29      9 ;     0.00   0.65084   3 ;     H6-    C7-    C9-   H11
    24      7      9     30      9 ;     0.00   0.65084   3 ;     H6-    C7-    C9-   H12
    25      7      9     29      9 ;     0.00   0.65084   3 ;     H7-    C7-    C9-   H11
    25      7      9     30      9 ;     0.00   0.65084   3 ;     H7-    C7-    C9-   H12
    26      8     10     31      9 ;     0.00   0.65084   3 ;     H8-    C8-   C10-   H13
    26      8     10     32      9 ;     0.00   0.65084   3 ;     H8-    C8-   C10-   H14
    27      8     10     31      9 ;     0.00   0.65084   3 ;     H9-    C8-   C10-   H13
    27      8     10     32      9 ;     0.00   0.65084   3 ;     H9-    C8-   C10-   H14
    28      8     10     31      9 ;     0.00   0.65084   3 ;    H10-    C8-   C10-   H13
    28      8     10     32      9 ;     0.00   0.65084   3 ;    H10-    C8-   C10-   H14

[ dihedrals ] ; impropers
; treated as propers in GROMACS to use correct AMBER analytical function
;    i      j      k      l   func   phase     kd      pn
     1      2      5     11      4 ;   180.00   4.60240   2 ;     C1-    C2-    C5-    N1
     1      6      3     21      4 ;   180.00   4.60240   2 ;     C1-    C6-    C3-    H3
     2      6      4     22      4 ;   180.00   4.60240   2 ;     C2-    C6-    C4-    H4
     3      4      6     14      4 ;   180.00   4.60240   2 ;     C3-    C4-    C6-    O3
     4      5      2     20      4 ;   180.00   4.60240   2 ;     C4-    C5-    C2-    H2
     5     12     11     13      4 ;   180.00   4.60240   2 ;     C5-    O1-    N1-    O2
    19      1      5      3      4 ;   180.00   4.60240   2 ;     H1-    C1-    C5-    C3
