mobley_8449031_GMX.gro created by acpype (v: 2023.10.27) on Wed May 20 23:58:01 2026
 9499
    1MOL     C1    1   2.082   2.195   2.225
    1MOL     C2    2   2.299   2.528   2.385
    1MOL     C3    3   2.487   2.149   2.350
    1MOL     C4    4   2.172   2.317   2.234
    1MOL     C5    5   2.374   2.410   2.325
    1MOL     C6    6   2.365   2.178   2.265
    1MOL     N1    7   2.289   2.291   2.317
    1MOL     H1    8   2.135   2.110   2.181
    1MOL     H2    9   2.046   2.165   2.324
    1MOL     H3   10   1.995   2.217   2.163
    1MOL     H4   11   2.212   2.554   2.324
    1MOL     H5   12   2.265   2.505   2.486
    1MOL     H6   13   2.364   2.616   2.390
    1MOL     H7   14   2.555   2.235   2.352
    1MOL     H8   15   2.459   2.125   2.454
    1MOL     H9   16   2.542   2.063   2.310
    1MOL    H10   17   2.116   2.402   2.276
    1MOL    H11   18   2.205   2.347   2.134
    1MOL    H12   19   2.462   2.388   2.386
    1MOL    H13   20   2.409   2.436   2.224
    1MOL    H14   21   2.300   2.089   2.262
    1MOL    H15   22   2.395   2.199   2.162
    2SOL     OW   23   0.230   0.628   0.113
    2SOL    HW1   24   0.137   0.626   0.150
    2SOL    HW2   25   0.231   0.589   0.021
    3SOL     OW   26   0.225   0.275   0.996
    3SOL    HW1   27   0.260   0.258   1.088
    3SOL    HW2   28   0.137   0.230   0.984
    4SOL     OW   29   0.019   0.368   0.647
    4SOL    HW1   30  -0.063   0.411   0.686
    4SOL    HW2   31  -0.009   0.295   0.584
    5SOL     OW   32   0.569   1.275   1.165
    5SOL    HW1   33   0.476   1.268   1.128
    5SOL    HW2   34   0.580   1.364   1.209
    6SOL     OW   35   1.555   1.511   0.703
    6SOL    HW1   36   1.498   1.495   0.784
    6SOL    HW2   37   1.496   1.521   0.623
    7SOL     OW   38   1.135   0.703   0.717
    7SOL    HW1   39   1.192   0.781   0.692
    7SOL    HW2   40   1.075   0.729   0.793
    8SOL     OW   41   1.755   0.607   0.231
    8SOL    HW1   42   1.743   0.594   0.132
    8SOL    HW2   43   1.725   0.526   0.280
    9SOL     OW   44   0.768   1.144   1.023
    9SOL    HW1   45   0.690   1.161   1.083
    9SOL    HW2   46   0.802   1.231   0.987
   10SOL     OW   47   0.850   0.798   1.823
   10SOL    HW1   48   0.846   0.874   1.888
   10SOL    HW2   49   0.872   0.834   1.732
   11SOL     OW   50   0.685   1.012   0.665
   11SOL    HW1   51   0.754   0.996   0.735
   11SOL    HW2   52   0.612   1.069   0.703
   12SOL     OW   53   0.686   1.161   1.803
   12SOL    HW1   54   0.746   1.240   1.817
   12SOL    HW2   55   0.600   1.192   1.762
   13SOL     OW   56   0.335   1.435   1.061
   13SOL    HW1   57   0.257   1.404   1.008
   13SOL    HW2   58   0.393   1.493   1.004
   14SOL     OW   59   1.460   1.505   1.339
   14SOL    HW1   60   1.484   1.599   1.365
   14SOL    HW2   61   1.444   1.451   1.421
   15SOL     OW   62   0.438   0.392   1.499
   15SOL    HW1   63   0.520   0.336   1.508
   15SOL    HW2   64   0.357   0.334   1.503
   16SOL     OW   65   1.603   0.447   0.737
   16SOL    HW1   66   1.529   0.493   0.687
   16SOL    HW2   67   1.654   0.515   0.790
   17SOL     OW   68   0.231   1.713   0.483
   17SOL    HW1   69   0.265   1.790   0.537
   17SOL    HW2   70   0.275   1.713   0.393
   18SOL     OW   71   1.127   1.341   1.690
   18SOL    HW1   72   1.174   1.341   1.778
   18SOL    HW2   73   1.079   1.254   1.679
   19SOL     OW   74   0.230   1.434   0.538
   19SOL    HW1   75   0.204   1.530   0.538
   19SOL    HW2   76   0.159   1.380   0.583
   20SOL     OW   77   0.240   1.091   0.886
   20SOL    HW1   78   0.254   1.007   0.938
   20SOL    HW2   79   0.185   1.155   0.941
   21SOL     OW   80   0.620   1.786   1.439
   21SOL    HW1   81   0.528   1.769   1.474
   21SOL    HW2   82   0.648   1.878   1.465
   22SOL     OW   83   0.606   0.964   0.123
   22SOL    HW1   84   0.613   1.048   0.069
   22SOL    HW2   85   0.652   0.977   0.211
   23SOL     OW   86   1.594   0.114   1.480
   23SOL    HW1   87   1.576   0.181   1.408
   23SOL    HW2   88   1.591   0.160   1.569
   24SOL     OW   89   0.122   0.643   0.563
   24SOL    HW1   90   0.077   0.555   0.580
   24SOL    HW2   91   0.121   0.697   0.647
   25SOL     OW   92   1.842   1.767   0.359
   25SOL    HW1   93   1.896   1.738   0.439
   25SOL    HW2   94   1.872   1.857   0.330
   26SOL     OW   95   0.027   1.596   0.117
   26SOL    HW1   96   0.008   1.500   0.138
   26SOL    HW2   97  -0.006   1.654   0.192
   27SOL     OW   98   1.689   0.922   0.612
   27SOL    HW1   99   1.784   0.893   0.620
   27SOL    HW2  100   1.681   0.987   0.537
   28SOL     OW  101   1.641   1.108   0.432
   28SOL    HW1  102   1.727   1.110   0.380
   28SOL    HW2  103   1.655   1.155   0.520
   29SOL     OW  104   0.113   0.737   1.597
   29SOL    HW1  105   0.201   0.724   1.642
   29SOL    HW2  106   0.100   0.834   1.575
   30SOL     OW  107   0.613   1.365   0.726
   30SOL    HW1  108   0.564   1.278   0.735
   30SOL    HW2  109   0.590   1.408   0.639
   31SOL     OW  110   1.293   1.228   1.423
   31SOL    HW1  111   1.330   1.155   1.365
   31SOL    HW2  112   1.345   1.233   1.508
   32SOL     OW  113   0.809   0.004   0.502
   32SOL    HW1  114   0.849   0.095   0.493
   32SOL    HW2  115   0.709   0.012   0.508
   33SOL     OW  116   0.197   0.976   1.264
   33SOL    HW1  117   0.286   0.931   1.250
   33SOL    HW2  118   0.124   0.911   1.245
   34SOL     OW  119   1.525   0.999   0.190
   34SOL    HW1  120   1.462   0.923   0.203
   34SOL    HW2  121   1.573   1.017   0.276
   35SOL     OW  122   1.187   1.792   1.616
   35SOL    HW1  123   1.211   1.852   1.540
   35SOL    HW2  124   1.194   1.697   1.586
   36SOL     OW  125   0.317   0.251   1.801
   36SOL    HW1  126   0.388   0.322   1.807
   36SOL    HW2  127   0.229   0.290   1.829
   37SOL     OW  128   1.466   1.417   0.953
   37SOL    HW1  129   1.407   1.423   1.033
   37SOL    HW2  130   1.451   1.329   0.907
   38SOL     OW  131   1.667   1.714   0.572
   38SOL    HW1  132   1.626   1.691   0.484
   38SOL    HW2  133   1.649   1.640   0.637
   39SOL     OW  134   0.598   0.729   0.270
   39SOL    HW1  135   0.622   0.798   0.202
   39SOL    HW2  136   0.520   0.762   0.324
   40SOL     OW  137   1.281   0.345   0.944
   40SOL    HW1  138   1.195   0.295   0.931
   40SOL    HW2  139   1.343   0.291   1.000
   41SOL     OW  140   1.576   1.662   0.307
   41SOL    HW1  141   1.665   1.708   0.310
   41SOL    HW2  142   1.555   1.638   0.212
   42SOL     OW  143   0.807   0.605   1.465
   42SOL    HW1  144   0.760   0.602   1.554
   42SOL    HW2  145   0.756   0.550   1.399
   43SOL     OW  146   1.394   0.469   1.674
   43SOL    HW1  147   1.374   0.512   1.762
   43SOL    HW2  148   1.472   0.407   1.683
   44SOL     OW  149   0.973   0.890   1.572
   44SOL    HW1  150   1.019   0.806   1.543
   44SOL    HW2  151   0.917   0.924   1.497
   45SOL     OW  152   0.991   0.410   1.242
   45SOL    HW1  153   0.914   0.444   1.296
   45SOL    HW2  154   0.957   0.359   1.163
   46SOL     OW  155   1.041   0.701   0.429
   46SOL    HW1  156   1.067   0.697   0.525
   46SOL    HW2  157   0.956   0.650   0.415
   47SOL     OW  158   0.076   0.811   0.789
   47SOL    HW1  159   0.175   0.799   0.798
   47SOL    HW2  160   0.052   0.906   0.810
   48SOL     OW  161   0.130   1.821   1.571
   48SOL    HW1  162   0.120   1.806   1.670
   48SOL    HW2  163   0.044   1.857   1.535
   49SOL     OW  164   0.865   0.348   0.195
   49SOL    HW1  165   0.924   0.411   0.146
   49SOL    HW2  166   0.884   0.254   0.166
   50SOL     OW  167   1.719   0.585   1.831
   50SOL    HW1  168   1.693   0.674   1.795
   50SOL    HW2  169   1.717   0.517   1.758
   51SOL     OW  170   1.362   1.144   0.545
   51SOL    HW1  171   1.445   1.115   0.497
   51SOL    HW2  172   1.313   1.211   0.489
   52SOL     OW  173   0.550   0.196   0.885
   52SOL    HW1  174   0.545   0.191   0.985
   52SOL    HW2  175   0.552   0.292   0.856
   53SOL     OW  176   1.008   1.456   0.477
   53SOL    HW1  177   0.962   1.528   0.425
   53SOL    HW2  178   1.004   1.476   0.575
   54SOL     OW  179   0.351   1.801   0.853
   54SOL    HW1  180   0.401   1.715   0.859
   54SOL    HW2  181   0.416   1.878   0.850
   55SOL     OW  182   1.795   1.066   0.873
   55SOL    HW1  183   1.733   1.051   0.797
   55SOL    HW2  184   1.743   1.077   0.958
   56SOL     OW  185   1.227   1.550   1.506
   56SOL    HW1  186   1.233   1.473   1.570
   56SOL    HW2  187   1.175   1.524   1.426
   57SOL     OW  188   0.321   0.943   0.242
   57SOL    HW1  189   0.403   0.982   0.200
   57SOL    HW2  190   0.294   0.861   0.193
   58SOL     OW  191   1.458   0.735   0.728
   58SOL    HW1  192   1.453   0.670   0.803
   58SOL    HW2  193   1.538   0.794   0.741
   59SOL     OW  194   0.461   1.266   1.727
   59SOL    HW1  195   0.411   1.267   1.641
   59SOL    HW2  196   0.398   1.248   1.803
   60SOL     OW  197   1.111   1.776   0.237
   60SOL    HW1  198   1.051   1.714   0.287
   60SOL    HW2  199   1.142   1.732   0.152
   61SOL     OW  200   0.202   0.285   1.498
   61SOL    HW1  201   0.122   0.345   1.485
   61SOL    HW2  202   0.192   0.236   1.584
   62SOL     OW  203   1.632   1.377   0.081
   62SOL    HW1  204   1.600   1.471   0.071
   62SOL    HW2  205   1.556   1.314   0.069
   63SOL     OW  206   0.464   1.743   0.323
   63SOL    HW1  207   0.497   1.782   0.409
   63SOL    HW2  208   0.540   1.736   0.258
   64SOL     OW  209   1.400   0.107   0.426
   64SOL    HW1  210   1.376   0.070   0.336
   64SOL    HW2  211   1.499   0.123   0.430
   65SOL     OW  212   0.249   1.785   1.241
   65SOL    HW1  213   0.306   1.720   1.291
   65SOL    HW2  214   0.233   1.752   1.148
   66SOL     OW  215   0.940   1.698   0.904
   66SOL    HW1  216   1.020   1.641   0.925
   66SOL    HW2  217   0.891   1.658   0.827
   67SOL     OW  218   0.382   0.700   0.480
   67SOL    HW1  219   0.427   0.610   0.477
   67SOL    HW2  220   0.288   0.689   0.513
   68SOL     OW  221   1.547   0.222   1.729
   68SOL    HW1  222   1.542   0.259   1.821
   68SOL    HW2  223   1.475   0.153   1.717
   69SOL     OW  224   0.614   0.122   0.117
   69SOL    HW1  225   0.712   0.100   0.124
   69SOL    HW2  226   0.583   0.105   0.024
   70SOL     OW  227   0.781   0.264   1.749
   70SOL    HW1  228   0.848   0.203   1.792
   70SOL    HW2  229   0.708   0.283   1.814
   71SOL     OW  230   0.888   1.514   1.195
   71SOL    HW1  231   0.865   1.489   1.101
   71SOL    HW2  232   0.949   1.445   1.234
   72SOL     OW  233   1.351   0.590   1.433
   72SOL    HW1  234   1.379   0.547   1.518
   72SOL    HW2  235   1.376   0.686   1.434
   73SOL     OW  236   0.803   1.402   0.924
   73SOL    HW1  237   0.893   1.416   0.882
   73SOL    HW2  238   0.732   1.404   0.853
   74SOL     OW  239   0.922   0.503   0.899
   74SOL    HW1  240   0.897   0.494   0.803
   74SOL    HW2  241   0.970   0.421   0.930
   75SOL     OW  242   0.539   0.064   0.512
   75SOL    HW1  243   0.458   0.065   0.570
   75SOL    HW2  244   0.542   0.147   0.457
   76SOL     OW  245   1.434   1.188   0.041
   76SOL    HW1  246   1.466   1.112   0.098
   76SOL    HW2  247   1.342   1.215   0.071
   77SOL     OW  248   0.297   0.035   0.171
   77SOL    HW1  249   0.346   0.119   0.150
   77SOL    HW2  250   0.359  -0.030   0.216
   78SOL     OW  251   0.935   0.236   0.480
   78SOL    HW1  252   0.887   0.277   0.402
   78SOL    HW2  253   1.034   0.234   0.461
   79SOL     OW  254   1.076   0.683   1.464
   79SOL    HW1  255   0.996   0.622   1.467
   79SOL    HW2  256   1.157   0.630   1.440
   80SOL     OW  257   1.227   1.570   0.793
   80SOL    HW1  258   1.248   1.644   0.728
   80SOL    HW2  259   1.295   1.570   0.866
   81SOL     OW  260   0.459   1.152   0.741
   81SOL    HW1  261   0.388   1.125   0.806
   81SOL    HW2  262   0.433   1.124   0.648
   82SOL     OW  263   1.271   1.797   0.591
   82SOL    HW1  264   1.315   1.861   0.527
   82SOL    HW2  265   1.221   1.849   0.661
   83SOL     OW  266   1.032   0.549   0.016
   83SOL    HW1  267   0.991   0.631  -0.023
   83SOL    HW2  268   1.096   0.575   0.089
   84SOL     OW  269   0.078   0.556   1.386
   84SOL    HW1  270   0.170   0.555   1.345
   84SOL    HW2  271   0.072   0.630   1.453
   85SOL     OW  272   0.561   0.222   1.147
   85SOL    HW1  273   0.599   0.138   1.184
   85SOL    HW2  274   0.473   0.241   1.191
   86SOL     OW  275   0.866   0.454   0.642
   86SOL    HW1  276   0.834   0.526   0.580
   86SOL    HW2  277   0.890   0.373   0.589
   87SOL     OW  278   1.017   0.039   0.753
   87SOL    HW1  279   0.945   0.044   0.684
   87SOL    HW2  280   0.993  -0.030   0.822
   88SOL     OW  281   1.429   1.173   0.867
   88SOL    HW1  282   1.374   1.089   0.860
   88SOL    HW2  283   1.455   1.202   0.775
   89SOL     OW  284   1.466   0.590   0.992
   89SOL    HW1  285   1.436   0.495   0.999
   89SOL    HW2  286   1.539   0.606   1.058
   90SOL     OW  287   1.857   0.833   0.377
   90SOL    HW1  288   1.899   0.769   0.441
   90SOL    HW2  289   1.819   0.782   0.299
   91SOL     OW  290   0.488   1.385   0.174
   91SOL    HW1  291   0.401   1.370   0.221
   91SOL    HW2  292   0.471   1.411   0.079
   92SOL     OW  293   1.664   1.280   0.657
   92SOL    HW1  294   1.763   1.288   0.671
   92SOL    HW2  295   1.619   1.364   0.688
   93SOL     OW  296   1.390   0.575   0.078
   93SOL    HW1  297   1.336   0.554   0.159
   93SOL    HW2  298   1.481   0.534   0.087
   94SOL     OW  299   0.527   0.256   0.328
   94SOL    HW1  300   0.554   0.197   0.253
   94SOL    HW2  301   0.527   0.351   0.297
   95SOL     OW  302   1.754   1.223   1.588
   95SOL    HW1  303   1.845   1.184   1.575
   95SOL    HW2  304   1.762   1.319   1.612
   96SOL     OW  305   1.064   1.347   1.340
   96SOL    HW1  306   0.984   1.324   1.395
   96SOL    HW2  307   1.147   1.321   1.389
   97SOL     OW  308   1.592   1.629   1.625
   97SOL    HW1  309   1.619   1.663   1.535
   97SOL    HW2  310   1.671   1.591   1.671
   98SOL     OW  311   1.111   1.195   1.100
   98SOL    HW1  312   1.071   1.239   1.181
   98SOL    HW2  313   1.070   1.232   1.017
   99SOL     OW  314   1.638   1.099   1.079
   99SOL    HW1  315   1.643   1.180   1.138
   99SOL    HW2  316   1.552   1.101   1.028
  100SOL     OW  317   0.915   0.089   1.402
  100SOL    HW1  318   0.940   0.069   1.307
  100SOL    HW2  319   0.987   0.145   1.444
  101SOL     OW  320   0.980   1.116   1.719
  101SOL    HW1  321   0.881   1.122   1.729
  101SOL    HW2  322   1.003   1.036   1.663
  102SOL     OW  323   0.705   1.050   0.368
  102SOL    HW1  324   0.691   1.057   0.467
  102SOL    HW2  325   0.789   0.999   0.350
  103SOL     OW  326   0.410   0.813   1.251
  103SOL    HW1  327   0.496   0.825   1.301
  103SOL    HW2  328   0.368   0.726   1.278
  104SOL     OW  329   1.274   0.386   1.262
  104SOL    HW1  330   1.295   0.460   1.326
  104SOL    HW2  331   1.185   0.403   1.219
  105SOL     OW  332   0.064   1.564   1.331
  105SOL    HW1  333   0.018   1.646   1.297
  105SOL    HW2  334   0.162   1.583   1.340
  106SOL     OW  335   0.367   1.100   0.501
  106SOL    HW1  336   0.360   1.183   0.445
  106SOL    HW2  337   0.371   1.020   0.441
  107SOL     OW  338   0.566   0.537   0.865
  107SOL    HW1  339   0.578   0.603   0.791
  107SOL    HW2  340   0.612   0.571   0.948
  108SOL     OW  341   1.252   1.348   0.388
  108SOL    HW1  342   1.302   1.425   0.428
  108SOL    HW2  343   1.157   1.350   0.420
  109SOL     OW  344   1.272   1.445   1.142
  109SOL    HW1  345   1.319   1.458   1.229
  109SOL    HW2  346   1.206   1.371   1.151
  110SOL     OW  347   1.582   0.639   0.472
  110SOL    HW1  348   1.551   0.700   0.545
  110SOL    HW2  349   1.632   0.691   0.403
  111SOL     OW  350   0.354   1.510   1.329
  111SOL    HW1  351   0.333   1.466   1.242
  111SOL    HW2  352   0.451   1.536   1.332
  112SOL     OW  353   0.402   0.751   1.598
  112SOL    HW1  354   0.470   0.806   1.551
  112SOL    HW2  355   0.442   0.663   1.625
  113SOL     OW  356   1.587   0.779   1.670
  113SOL    HW1  357   1.495   0.817   1.665
  113SOL    HW2  358   1.647   0.826   1.605
  114SOL     OW  359   1.013   0.105   1.770
  114SOL    HW1  360   1.019   0.190   1.718
  114SOL    HW2  361   1.045   0.029   1.713
  115SOL     OW  362   0.504   0.050   1.740
  115SOL    HW1  363   0.462  -0.007   1.670
  115SOL    HW2  364   0.438   0.119   1.772
  116SOL     OW  365   0.573   0.870   1.029
  116SOL    HW1  366   0.617   0.959   1.020
  116SOL    HW2  367   0.510   0.870   1.106
  117SOL     OW  368   1.360   0.862   1.045
  117SOL    HW1  369   1.285   0.862   0.979
  117SOL    HW2  370   1.397   0.770   1.054
  118SOL     OW  371   1.209   0.525   0.275
  118SOL    HW1  372   1.222   0.441   0.329
  118SOL    HW2  373   1.180   0.599   0.335
  119SOL     OW  374   0.307   0.213   1.231
  119SOL    HW1  375   0.284   0.250   1.321
  119SOL    HW2  376   0.277   0.118   1.225
  120SOL     OW  377   0.037   1.310   1.282
  120SOL    HW1  378   0.090   1.261   1.350
  120SOL    HW2  379   0.059   1.408   1.287
  121SOL     OW  380   0.732   0.634   1.064
  121SOL    HW1  381   0.791   0.608   0.988
  121SOL    HW2  382   0.704   0.730   1.053
  122SOL     OW  383   1.728   0.935   1.854
  122SOL    HW1  384   1.682   0.928   1.765
  122SOL    HW2  385   1.666   0.979   1.920
  123SOL     OW  386   0.307   0.063   0.618
  123SOL    HW1  387   0.296   0.157   0.651
  123SOL    HW2  388   0.302   0.000   0.695
  124SOL     OW  389   1.622   0.367   0.374
  124SOL    HW1  390   1.624   0.291   0.438
  124SOL    HW2  391   1.574   0.444   0.414
  125SOL     OW  392   1.023   0.766   0.966
  125SOL    HW1  393   1.038   0.787   1.062
  125SOL    HW2  394   0.993   0.671   0.957
  126SOL     OW  395   0.980   1.573   1.700
  126SOL    HW1  396   0.960   1.617   1.612
  126SOL    HW2  397   1.019   1.482   1.684
  127SOL     OW  398   1.859   1.518   1.605
  127SOL    HW1  399   1.873   1.545   1.510
  127SOL    HW2  400   1.942   1.540   1.658
  128SOL     OW  401   0.350   0.898   1.804
  128SOL    HW1  402   0.426   0.942   1.852
  128SOL    HW2  403   0.385   0.851   1.722
  129SOL     OW  404   1.540   0.274   0.125
  129SOL    HW1  405   1.479   0.199   0.148
  129SOL    HW2  406   1.562   0.326   0.208
  130SOL     OW  407   1.303   0.838   0.042
  130SOL    HW1  408   1.337   0.745   0.057
  130SOL    HW2  409   1.321   0.865  -0.053
  131SOL     OW  410   1.068   1.333   0.849
  131SOL    HW1  411   1.075   1.249   0.794
  131SOL    HW2  412   1.130   1.402   0.813
  132SOL     OW  413   0.319   0.810   0.949
  132SOL    HW1  414   0.412   0.846   0.954
  132SOL    HW2  415   0.313   0.725   1.001
  133SOL     OW  416   0.339   0.509   1.006
  133SOL    HW1  417   0.287   0.426   0.989
  133SOL    HW2  418   0.416   0.514   0.942
  134SOL     OW  419   1.138   0.380   1.678
  134SOL    HW1  420   1.093   0.443   1.742
  134SOL    HW2  421   1.231   0.411   1.661
  135SOL     OW  422   1.160   0.207   1.477
  135SOL    HW1  423   1.160   0.271   1.554
  135SOL    HW2  424   1.188   0.255   1.394
  136SOL     OW  425   0.008   1.326   0.200
  136SOL    HW1  426  -0.085   1.347   0.169
  136SOL    HW2  427   0.018   1.227   0.213
  137SOL     OW  428   0.088   1.801   0.927
  137SOL    HW1  429   0.046   1.715   0.900
  137SOL    HW2  430   0.182   1.804   0.893
  138SOL     OW  431   0.504   1.568   0.910
  138SOL    HW1  432   0.570   1.642   0.919
  138SOL    HW2  433   0.548   1.489   0.868
  139SOL     OW  434   1.002   0.796   1.238
  139SOL    HW1  435   1.043   0.764   1.324
  139SOL    HW2  436   0.906   0.769   1.235
  140SOL     OW  437   0.040   0.544   1.114
  140SOL    HW1  438   0.125   0.511   1.073
  140SOL    HW2  439   0.053   0.559   1.212
  141SOL     OW  440   0.189   0.520   1.722
  141SOL    HW1  441   0.248   0.480   1.652
  141SOL    HW2  442   0.131   0.591   1.681
  142SOL     OW  443   1.369   0.950   1.660
  142SOL    HW1  444   1.408   1.039   1.680
  142SOL    HW2  445   1.379   0.930   1.563
  143SOL     OW  446   0.815   0.572   0.325
  143SOL    HW1  447   0.822   0.483   0.279
  143SOL    HW2  448   0.721   0.606   0.317
  144SOL     OW  449   1.657   0.604   1.206
  144SOL    HW1  450   1.619   0.535   1.268
  144SOL    HW2  451   1.739   0.568   1.162
  145SOL     OW  452   0.252   1.564   1.744
  145SOL    HW1  453   0.222   1.621   1.820
  145SOL    HW2  454   0.245   1.467   1.770
  146SOL     OW  455   0.671   0.464   1.269
  146SOL    HW1  456   0.637   0.375   1.239
  146SOL    HW2  457   0.697   0.518   1.189
  147SOL     OW  458   0.930   1.678   1.465
  147SOL    HW1  459   0.906   1.660   1.370
  147SOL    HW2  460   0.960   1.772   1.475
  148SOL     OW  461   0.473   0.500   0.191
  148SOL    HW1  462   0.534   0.580   0.195
  148SOL    HW2  463   0.378   0.531   0.198
  149SOL     OW  464   0.159   1.137   1.466
  149SOL    HW1  465   0.181   1.076   1.542
  149SOL    HW2  466   0.169   1.088   1.380
  150SOL     OW  467   1.347   1.059   1.234
  150SOL    HW1  468   1.371   0.996   1.160
  150SOL    HW2  469   1.257   1.099   1.216
  151SOL     OW  470   1.302   0.855   0.309
  151SOL    HW1  471   1.216   0.824   0.351
  151SOL    HW2  472   1.298   0.841   0.210
  152SOL     OW  473   1.759   1.747   1.154
  152SOL    HW1  474   1.820   1.777   1.081
  152SOL    HW2  475   1.721   1.658   1.132
  153SOL     OW  476   1.252   1.731   1.128
  153SOL    HW1  477   1.336   1.736   1.074
  153SOL    HW2  478   1.229   1.635   1.146
  154SOL     OW  479   0.083   1.258   1.022
  154SOL    HW1  480   0.078   1.257   1.122
  154SOL    HW2  481   0.000   1.217   0.984
  155SOL     OW  482   0.688   1.662   1.716
  155SOL    HW1  483   0.632   1.743   1.725
  155SOL    HW2  484   0.740   1.666   1.630
  156SOL     OW  485   0.903   0.086   0.133
  156SOL    HW1  486   0.954   0.087   0.047
  156SOL    HW2  487   0.959   0.044   0.204
  157SOL     OW  488   1.726   0.135   0.523
  157SOL    HW1  489   1.799   0.118   0.456
  157SOL    HW2  490   1.695   0.048   0.561
  158SOL     OW  491   1.388   1.573   0.477
  158SOL    HW1  492   1.455   1.585   0.403
  158SOL    HW2  493   1.348   1.662   0.500
  159SOL     OW  494   0.130   1.794   1.851
  159SOL    HW1  495   0.089   1.720   1.904
  159SOL    HW2  496   0.194   1.845   1.909
  160SOL     OW  497   1.280   0.927   0.672
  160SOL    HW1  498   1.340   0.846   0.674
  160SOL    HW2  499   1.320   0.996   0.612
  161SOL     OW  500   0.830   1.273   1.422
  161SOL    HW1  501   0.825   1.306   1.517
  161SOL    HW2  502   0.744   1.292   1.376
  162SOL     OW  503   0.672   1.616   0.154
  162SOL    HW1  504   0.681   1.626   0.055
  162SOL    HW2  505   0.632   1.527   0.175
  163SOL     OW  506   1.650   1.720   1.394
  163SOL    HW1  507   1.703   1.730   1.310
  163SOL    HW2  508   1.623   1.810   1.428
  164SOL     OW  509   1.841   0.175   0.963
  164SOL    HW1  510   1.880   0.090   0.927
  164SOL    HW2  511   1.743   0.177   0.944
  165SOL     OW  512   0.263   0.326   0.720
  165SOL    HW1  513   0.184   0.377   0.686
  165SOL    HW2  514   0.254   0.311   0.818
  166SOL     OW  515   1.194   1.612   0.031
  166SOL    HW1  516   1.200   1.519   0.068
  166SOL    HW2  517   1.135   1.612  -0.049
  167SOL     OW  518   0.822   1.002   1.372
  167SOL    HW1  519   0.862   1.001   1.280
  167SOL    HW2  520   0.832   1.094   1.412
  168SOL     OW  521   0.916   0.910   0.291
  168SOL    HW1  522   0.979   0.948   0.223
  168SOL    HW2  523   0.956   0.827   0.330
  169SOL     OW  524   1.504   1.607   0.044
  169SOL    HW1  525   1.412   1.644   0.051
  169SOL    HW2  526   1.542   1.627  -0.046
  170SOL     OW  527   0.372   1.288   1.490
  170SOL    HW1  528   0.359   1.381   1.456
  170SOL    HW2  529   0.288   1.236   1.477
  171SOL     OW  530   1.614   1.292   1.289
  171SOL    HW1  531   1.674   1.295   1.369
  171SOL    HW2  532   1.539   1.356   1.302
  172SOL     OW  533   1.039   1.098   0.696
  172SOL    HW1  534   0.969   1.051   0.750
  172SOL    HW2  535   1.098   1.030   0.653
  173SOL     OW  536   1.014   0.236   0.971
  173SOL    HW1  537   1.006   0.200   0.878
  173SOL    HW2  538   1.012   0.160   1.036
  174SOL     OW  539   0.590   1.487   0.491
  174SOL    HW1  540   0.632   1.429   0.421
  174SOL    HW2  541   0.546   1.566   0.447
  175SOL     OW  542   1.709   0.385   1.381
  175SOL    HW1  543   1.782   0.454   1.385
  175SOL    HW2  544   1.737   0.310   1.322
  176SOL     OW  545   0.255   1.348   0.290
  176SOL    HW1  546   0.159   1.349   0.263
  176SOL    HW2  547   0.267   1.401   0.374
  177SOL     OW  548   0.105   1.013   1.726
  177SOL    HW1  549   0.028   0.980   1.780
  177SOL    HW2  550   0.190   0.983   1.768
  178SOL     OW  551   0.672   0.203   1.489
  178SOL    HW1  552   0.762   0.187   1.449
  178SOL    HW2  553   0.680   0.208   1.588
  179SOL     OW  554   0.075   0.345   0.033
  179SOL    HW1  555  -0.017   0.317   0.004
  179SOL    HW2  556   0.106   0.422  -0.023
  180SOL     OW  557   1.440   0.856   1.398
  180SOL    HW1  558   1.383   0.908   1.335
  180SOL    HW2  559   1.536   0.868   1.374
  181SOL     OW  560   0.072   0.166   0.318
  181SOL    HW1  561   0.055   0.249   0.264
  181SOL    HW2  562   0.162   0.129   0.296
  182SOL     OW  563   1.183   1.335   0.119
  182SOL    HW1  564   1.084   1.324   0.121
  182SOL    HW2  565   1.217   1.350   0.212
  183SOL     OW  566   0.613   0.842   1.431
  183SOL    HW1  567   0.669   0.923   1.414
  183SOL    HW2  568   0.672   0.762   1.434
  184SOL     OW  569   1.493   1.767   0.959
  184SOL    HW1  570   1.526   1.831   0.890
  184SOL    HW2  571   1.559   1.761   1.034
  185SOL     OW  572   0.716   0.565   1.708
  185SOL    HW1  573   0.735   0.630   1.782
  185SOL    HW2  574   0.776   0.485   1.717
  186SOL     OW  575   1.450   1.220   1.633
  186SOL    HW1  576   1.441   1.210   1.732
  186SOL    HW2  577   1.546   1.213   1.607
  187SOL     OW  578   0.390   1.741   1.560
  187SOL    HW1  579   0.299   1.782   1.558
  187SOL    HW2  580   0.383   1.647   1.592
  188SOL     OW  581   1.674   0.883   1.254
  188SOL    HW1  582   1.647   0.794   1.217
  188SOL    HW2  583   1.675   0.951   1.181
  189SOL     OW  584   1.225   0.325   0.449
  189SOL    HW1  585   1.290   0.251   0.438
  189SOL    HW2  586   1.245   0.375   0.533
  190SOL     OW  587   0.594   0.745   0.652
  190SOL    HW1  588   0.644   0.830   0.633
  190SOL    HW2  589   0.506   0.747   0.604
  191SOL     OW  590   1.777   0.342   1.642
  191SOL    HW1  591   1.760   0.373   1.548
  191SOL    HW2  592   1.693   0.305   1.680
  192SOL     OW  593   1.730   0.934   1.517
  192SOL    HW1  594   1.768   1.025   1.532
  192SOL    HW2  595   1.722   0.917   1.418
  193SOL     OW  596   0.859   1.374   0.016
  193SOL    HW1  597   0.813   1.389   0.104
  193SOL    HW2  598   0.903   1.459  -0.014
  194SOL     OW  599   0.661   1.790   0.953
  194SOL    HW1  600   0.615   1.878   0.940
  194SOL    HW2  601   0.760   1.802   0.946
  195SOL     OW  602   0.859   0.956   0.861
  195SOL    HW1  603   0.913   0.887   0.909
  195SOL    HW2  604   0.827   1.025   0.927
  196SOL     OW  605   1.083   0.984   0.087
  196SOL    HW1  606   1.060   1.037   0.005
  196SOL    HW2  607   1.164   0.928   0.068
  197SOL     OW  608   1.861   1.569   0.851
  197SOL    HW1  609   1.790   1.557   0.781
  197SOL    HW2  610   1.862   1.490   0.911
  198SOL     OW  611   0.221   1.314   1.844
  198SOL    HW1  612   0.156   1.241   1.823
  198SOL    HW2  613   0.225   1.328   1.942
  199SOL     OW  614   0.079   1.240   0.653
  199SOL    HW1  615   0.078   1.193   0.741
  199SOL    HW2  616   0.161   1.212   0.602
  200SOL     OW  617   0.672   1.391   1.624
  200SOL    HW1  618   0.594   1.341   1.662
  200SOL    HW2  619   0.669   1.486   1.655
  201SOL     OW  620   1.824   0.192   1.227
  201SOL    HW1  621   1.820   0.102   1.271
  201SOL    HW2  622   1.827   0.181   1.128
  202SOL     OW  623   0.428   0.424   0.520
  202SOL    HW1  624   0.458   0.352   0.458
  202SOL    HW2  625   0.389   0.384   0.603
  203SOL     OW  626   1.705   1.487   1.104
  203SOL    HW1  627   1.612   1.462   1.077
  203SOL    HW2  628   1.731   1.437   1.186
  204SOL     OW  629   0.317   0.547   1.280
  204SOL    HW1  630   0.355   0.488   1.352
  204SOL    HW2  631   0.357   0.521   1.192
  205SOL     OW  632   0.812   1.586   0.687
  205SOL    HW1  633   0.844   1.596   0.593
  205SOL    HW2  634   0.733   1.524   0.689
  206SOL     OW  635   1.424   0.214   1.112
  206SOL    HW1  636   1.476   0.149   1.167
  206SOL    HW2  637   1.375   0.277   1.173
  207SOL     OW  638   1.001   0.034   1.154
  207SOL    HW1  639   0.938  -0.038   1.123
  207SOL    HW2  640   1.094  -0.002   1.154
  208SOL     OW  641   0.770   1.330   0.301
  208SOL    HW1  642   0.724   1.243   0.318
  208SOL    HW2  643   0.861   1.327   0.342
  209SOL     OW  644   0.618   1.567   1.284
  209SOL    HW1  645   0.613   1.649   1.341
  209SOL    HW2  646   0.707   1.564   1.239
  210SOL     OW  647   1.352   0.052   0.168
  210SOL    HW1  648   1.387   0.011   0.084
  210SOL    HW2  649   1.262   0.014   0.188
  211SOL     OW  650   1.300   0.453   0.691
  211SOL    HW1  651   1.241   0.533   0.695
  211SOL    HW2  652   1.315   0.418   0.784
  212SOL     OW  653   1.593   0.221   0.882
  212SOL    HW1  654   1.509   0.220   0.936
  212SOL    HW2  655   1.595   0.304   0.826
  213SOL     OW  656   0.039   1.077   0.300
  213SOL    HW1  657   0.138   1.066   0.291
  213SOL    HW2  658  -0.001   0.991   0.332
  214SOL     OW  659   0.875   1.646   0.337
  214SOL    HW1  660   0.798   1.611   0.283
  214SOL    HW2  661   0.843   1.717   0.399
  215SOL     OW  662   0.230   0.628   1.975
  215SOL    HW1  663   0.137   0.626   2.012
  215SOL    HW2  664   0.231   0.589   1.883
  216SOL     OW  665   0.225   0.275   2.858
  216SOL    HW1  666   0.260   0.258   2.950
  216SOL    HW2  667   0.137   0.230   2.846
  217SOL     OW  668   0.019   0.368   2.509
  217SOL    HW1  669  -0.063   0.411   2.548
  217SOL    HW2  670  -0.009   0.295   2.446
  218SOL     OW  671   0.569   1.275   3.027
  218SOL    HW1  672   0.476   1.268   2.990
  218SOL    HW2  673   0.580   1.364   3.071
  219SOL     OW  674   1.555   1.511   2.565
  219SOL    HW1  675   1.498   1.495   2.646
  219SOL    HW2  676   1.496   1.521   2.485
  220SOL     OW  677   1.135   0.703   2.579
  220SOL    HW1  678   1.192   0.781   2.554
  220SOL    HW2  679   1.075   0.729   2.655
  221SOL     OW  680   1.755   0.607   2.093
  221SOL    HW1  681   1.743   0.594   1.994
  221SOL    HW2  682   1.725   0.526   2.142
  222SOL     OW  683   0.768   1.144   2.885
  222SOL    HW1  684   0.690   1.161   2.945
  222SOL    HW2  685   0.802   1.231   2.849
  223SOL     OW  686   0.850   0.798   3.685
  223SOL    HW1  687   0.846   0.874   3.750
  223SOL    HW2  688   0.872   0.834   3.594
  224SOL     OW  689   0.685   1.012   2.527
  224SOL    HW1  690   0.754   0.996   2.597
  224SOL    HW2  691   0.612   1.069   2.565
  225SOL     OW  692   0.686   1.161   3.665
  225SOL    HW1  693   0.746   1.240   3.679
  225SOL    HW2  694   0.600   1.192   3.624
  226SOL     OW  695   0.335   1.435   2.923
  226SOL    HW1  696   0.257   1.404   2.870
  226SOL    HW2  697   0.393   1.493   2.866
  227SOL     OW  698   1.460   1.505   3.201
  227SOL    HW1  699   1.484   1.599   3.227
  227SOL    HW2  700   1.444   1.451   3.283
  228SOL     OW  701   0.438   0.392   3.361
  228SOL    HW1  702   0.520   0.336   3.370
  228SOL    HW2  703   0.357   0.334   3.365
  229SOL     OW  704   1.603   0.447   2.599
  229SOL    HW1  705   1.529   0.493   2.549
  229SOL    HW2  706   1.654   0.515   2.652
  230SOL     OW  707   0.231   1.713   2.345
  230SOL    HW1  708   0.265   1.790   2.399
  230SOL    HW2  709   0.275   1.713   2.255
  231SOL     OW  710   1.127   1.341   3.552
  231SOL    HW1  711   1.174   1.341   3.640
  231SOL    HW2  712   1.079   1.254   3.541
  232SOL     OW  713   0.230   1.434   2.400
  232SOL    HW1  714   0.204   1.530   2.400
  232SOL    HW2  715   0.159   1.380   2.445
  233SOL     OW  716   0.240   1.091   2.748
  233SOL    HW1  717   0.254   1.007   2.800
  233SOL    HW2  718   0.185   1.155   2.803
  234SOL     OW  719   0.620   1.786   3.301
  234SOL    HW1  720   0.528   1.769   3.336
  234SOL    HW2  721   0.648   1.878   3.327
  235SOL     OW  722   0.606   0.964   1.985
  235SOL    HW1  723   0.613   1.048   1.931
  235SOL    HW2  724   0.652   0.977   2.073
  236SOL     OW  725   1.594   0.114   3.342
  236SOL    HW1  726   1.576   0.181   3.270
  236SOL    HW2  727   1.591   0.160   3.431
  237SOL     OW  728   0.122   0.643   2.425
  237SOL    HW1  729   0.077   0.555   2.442
  237SOL    HW2  730   0.121   0.697   2.509
  238SOL     OW  731   1.842   1.767   2.221
  238SOL    HW1  732   1.896   1.738   2.301
  238SOL    HW2  733   1.872   1.857   2.192
  239SOL     OW  734   0.027   1.596   1.979
  239SOL    HW1  735   0.008   1.500   2.000
  239SOL    HW2  736  -0.006   1.654   2.054
  240SOL     OW  737   1.689   0.922   2.474
  240SOL    HW1  738   1.784   0.893   2.482
  240SOL    HW2  739   1.681   0.987   2.399
  241SOL     OW  740   1.641   1.108   2.294
  241SOL    HW1  741   1.727   1.110   2.242
  241SOL    HW2  742   1.655   1.155   2.382
  242SOL     OW  743   0.113   0.737   3.459
  242SOL    HW1  744   0.201   0.724   3.504
  242SOL    HW2  745   0.100   0.834   3.437
  243SOL     OW  746   0.613   1.365   2.588
  243SOL    HW1  747   0.564   1.278   2.597
  243SOL    HW2  748   0.590   1.408   2.501
  244SOL     OW  749   1.293   1.228   3.285
  244SOL    HW1  750   1.330   1.155   3.227
  244SOL    HW2  751   1.345   1.233   3.370
  245SOL     OW  752   0.809   0.004   2.364
  245SOL    HW1  753   0.849   0.095   2.355
  245SOL    HW2  754   0.709   0.012   2.370
  246SOL     OW  755   0.197   0.976   3.126
  246SOL    HW1  756   0.286   0.931   3.112
  246SOL    HW2  757   0.124   0.911   3.107
  247SOL     OW  758   1.525   0.999   2.052
  247SOL    HW1  759   1.462   0.923   2.065
  247SOL    HW2  760   1.573   1.017   2.138
  248SOL     OW  761   1.187   1.792   3.478
  248SOL    HW1  762   1.211   1.852   3.402
  248SOL    HW2  763   1.194   1.697   3.448
  249SOL     OW  764   0.317   0.251   3.663
  249SOL    HW1  765   0.388   0.322   3.669
  249SOL    HW2  766   0.229   0.290   3.691
  250SOL     OW  767   1.466   1.417   2.815
  250SOL    HW1  768   1.407   1.423   2.895
  250SOL    HW2  769   1.451   1.329   2.769
  251SOL     OW  770   1.667   1.714   2.434
  251SOL    HW1  771   1.626   1.691   2.346
  251SOL    HW2  772   1.649   1.640   2.499
  252SOL     OW  773   0.598   0.729   2.132
  252SOL    HW1  774   0.622   0.798   2.064
  252SOL    HW2  775   0.520   0.762   2.186
  253SOL     OW  776   1.281   0.345   2.806
  253SOL    HW1  777   1.195   0.295   2.793
  253SOL    HW2  778   1.343   0.291   2.862
  254SOL     OW  779   1.576   1.662   2.169
  254SOL    HW1  780   1.665   1.708   2.172
  254SOL    HW2  781   1.555   1.638   2.074
  255SOL     OW  782   0.807   0.605   3.327
  255SOL    HW1  783   0.760   0.602   3.416
  255SOL    HW2  784   0.756   0.550   3.261
  256SOL     OW  785   1.394   0.469   3.536
  256SOL    HW1  786   1.374   0.512   3.624
  256SOL    HW2  787   1.472   0.407   3.545
  257SOL     OW  788   0.973   0.890   3.434
  257SOL    HW1  789   1.019   0.806   3.405
  257SOL    HW2  790   0.917   0.924   3.359
  258SOL     OW  791   0.991   0.410   3.104
  258SOL    HW1  792   0.914   0.444   3.158
  258SOL    HW2  793   0.957   0.359   3.025
  259SOL     OW  794   1.041   0.701   2.291
  259SOL    HW1  795   1.067   0.697   2.387
  259SOL    HW2  796   0.956   0.650   2.277
  260SOL     OW  797   0.076   0.811   2.651
  260SOL    HW1  798   0.175   0.799   2.660
  260SOL    HW2  799   0.052   0.906   2.672
  261SOL     OW  800   0.130   1.821   3.433
  261SOL    HW1  801   0.120   1.806   3.532
  261SOL    HW2  802   0.044   1.857   3.397
  262SOL     OW  803   0.865   0.348   2.057
  262SOL    HW1  804   0.924   0.411   2.008
  262SOL    HW2  805   0.884   0.254   2.028
  263SOL     OW  806   1.719   0.585   3.693
  263SOL    HW1  807   1.693   0.674   3.657
  263SOL    HW2  808   1.717   0.517   3.620
  264SOL     OW  809   1.362   1.144   2.407
  264SOL    HW1  810   1.445   1.115   2.359
  264SOL    HW2  811   1.313   1.211   2.351
  265SOL     OW  812   0.550   0.196   2.747
  265SOL    HW1  813   0.545   0.191   2.847
  265SOL    HW2  814   0.552   0.292   2.718
  266SOL     OW  815   1.008   1.456   2.339
  266SOL    HW1  816   0.962   1.528   2.287
  266SOL    HW2  817   1.004   1.476   2.437
  267SOL     OW  818   0.351   1.801   2.715
  267SOL    HW1  819   0.401   1.715   2.721
  267SOL    HW2  820   0.416   1.878   2.712
  268SOL     OW  821   1.795   1.066   2.735
  268SOL    HW1  822   1.733   1.051   2.659
  268SOL    HW2  823   1.743   1.077   2.820
  269SOL     OW  824   1.227   1.550   3.368
  269SOL    HW1  825   1.233   1.473   3.432
  269SOL    HW2  826   1.175   1.524   3.288
  270SOL     OW  827   0.321   0.943   2.104
  270SOL    HW1  828   0.403   0.982   2.062
  270SOL    HW2  829   0.294   0.861   2.055
  271SOL     OW  830   1.458   0.735   2.590
  271SOL    HW1  831   1.453   0.670   2.665
  271SOL    HW2  832   1.538   0.794   2.603
  272SOL     OW  833   0.461   1.266   3.589
  272SOL    HW1  834   0.411   1.267   3.503
  272SOL    HW2  835   0.398   1.248   3.665
  273SOL     OW  836   1.111   1.776   2.099
  273SOL    HW1  837   1.051   1.714   2.149
  273SOL    HW2  838   1.142   1.732   2.014
  274SOL     OW  839   0.202   0.285   3.360
  274SOL    HW1  840   0.122   0.345   3.347
  274SOL    HW2  841   0.192   0.236   3.446
  275SOL     OW  842   1.632   1.377   1.943
  275SOL    HW1  843   1.600   1.471   1.933
  275SOL    HW2  844   1.556   1.314   1.931
  276SOL     OW  845   0.464   1.743   2.185
  276SOL    HW1  846   0.497   1.782   2.271
  276SOL    HW2  847   0.540   1.736   2.120
  277SOL     OW  848   1.400   0.107   2.288
  277SOL    HW1  849   1.376   0.070   2.198
  277SOL    HW2  850   1.499   0.123   2.292
  278SOL     OW  851   0.249   1.785   3.103
  278SOL    HW1  852   0.306   1.720   3.153
  278SOL    HW2  853   0.233   1.752   3.010
  279SOL     OW  854   0.940   1.698   2.766
  279SOL    HW1  855   1.020   1.641   2.787
  279SOL    HW2  856   0.891   1.658   2.689
  280SOL     OW  857   0.382   0.700   2.342
  280SOL    HW1  858   0.427   0.610   2.339
  280SOL    HW2  859   0.288   0.689   2.375
  281SOL     OW  860   1.547   0.222   3.591
  281SOL    HW1  861   1.542   0.259   3.683
  281SOL    HW2  862   1.475   0.153   3.579
  282SOL     OW  863   0.614   0.122   1.979
  282SOL    HW1  864   0.712   0.100   1.986
  282SOL    HW2  865   0.583   0.105   1.886
  283SOL     OW  866   0.781   0.264   3.611
  283SOL    HW1  867   0.848   0.203   3.654
  283SOL    HW2  868   0.708   0.283   3.676
  284SOL     OW  869   0.888   1.514   3.057
  284SOL    HW1  870   0.865   1.489   2.963
  284SOL    HW2  871   0.949   1.445   3.096
  285SOL     OW  872   1.351   0.590   3.295
  285SOL    HW1  873   1.379   0.547   3.380
  285SOL    HW2  874   1.376   0.686   3.296
  286SOL     OW  875   0.803   1.402   2.786
  286SOL    HW1  876   0.893   1.416   2.744
  286SOL    HW2  877   0.732   1.404   2.715
  287SOL     OW  878   0.922   0.503   2.761
  287SOL    HW1  879   0.897   0.494   2.665
  287SOL    HW2  880   0.970   0.421   2.792
  288SOL     OW  881   0.539   0.064   2.374
  288SOL    HW1  882   0.458   0.065   2.432
  288SOL    HW2  883   0.542   0.147   2.319
  289SOL     OW  884   1.434   1.188   1.903
  289SOL    HW1  885   1.466   1.112   1.960
  289SOL    HW2  886   1.342   1.215   1.933
  290SOL     OW  887   0.297   0.035   2.033
  290SOL    HW1  888   0.346   0.119   2.012
  290SOL    HW2  889   0.359  -0.030   2.078
  291SOL     OW  890   0.935   0.236   2.342
  291SOL    HW1  891   0.887   0.277   2.264
  291SOL    HW2  892   1.034   0.234   2.323
  292SOL     OW  893   1.076   0.683   3.326
  292SOL    HW1  894   0.996   0.622   3.329
  292SOL    HW2  895   1.157   0.630   3.302
  293SOL     OW  896   1.227   1.570   2.655
  293SOL    HW1  897   1.248   1.644   2.590
  293SOL    HW2  898   1.295   1.570   2.728
  294SOL     OW  899   0.459   1.152   2.603
  294SOL    HW1  900   0.388   1.125   2.668
  294SOL    HW2  901   0.433   1.124   2.510
  295SOL     OW  902   1.271   1.797   2.453
  295SOL    HW1  903   1.315   1.861   2.389
  295SOL    HW2  904   1.221   1.849   2.523
  296SOL     OW  905   1.032   0.549   1.878
  296SOL    HW1  906   0.991   0.631   1.839
  296SOL    HW2  907   1.096   0.575   1.951
  297SOL     OW  908   0.078   0.556   3.248
  297SOL    HW1  909   0.170   0.555   3.207
  297SOL    HW2  910   0.072   0.630   3.315
  298SOL     OW  911   0.561   0.222   3.009
  298SOL    HW1  912   0.599   0.138   3.046
  298SOL    HW2  913   0.473   0.241   3.053
  299SOL     OW  914   0.866   0.454   2.504
  299SOL    HW1  915   0.834   0.526   2.442
  299SOL    HW2  916   0.890   0.373   2.451
  300SOL     OW  917   1.017   0.039   2.615
  300SOL    HW1  918   0.945   0.044   2.546
  300SOL    HW2  919   0.993  -0.030   2.684
  301SOL     OW  920   1.429   1.173   2.729
  301SOL    HW1  921   1.374   1.089   2.722
  301SOL    HW2  922   1.455   1.202   2.637
  302SOL     OW  923   1.466   0.590   2.854
  302SOL    HW1  924   1.436   0.495   2.861
  302SOL    HW2  925   1.539   0.606   2.920
  303SOL     OW  926   1.857   0.833   2.239
  303SOL    HW1  927   1.899   0.769   2.303
  303SOL    HW2  928   1.819   0.782   2.161
  304SOL     OW  929   0.488   1.385   2.036
  304SOL    HW1  930   0.401   1.370   2.083
  304SOL    HW2  931   0.471   1.411   1.941
  305SOL     OW  932   1.664   1.280   2.519
  305SOL    HW1  933   1.763   1.288   2.533
  305SOL    HW2  934   1.619   1.364   2.550
  306SOL     OW  935   1.390   0.575   1.940
  306SOL    HW1  936   1.336   0.554   2.021
  306SOL    HW2  937   1.481   0.534   1.949
  307SOL     OW  938   0.527   0.256   2.190
  307SOL    HW1  939   0.554   0.197   2.115
  307SOL    HW2  940   0.527   0.351   2.159
  308SOL     OW  941   1.754   1.223   3.450
  308SOL    HW1  942   1.845   1.184   3.437
  308SOL    HW2  943   1.762   1.319   3.474
  309SOL     OW  944   1.064   1.347   3.202
  309SOL    HW1  945   0.984   1.324   3.257
  309SOL    HW2  946   1.147   1.321   3.251
  310SOL     OW  947   1.592   1.629   3.487
  310SOL    HW1  948   1.619   1.663   3.397
  310SOL    HW2  949   1.671   1.591   3.533
  311SOL     OW  950   1.111   1.195   2.962
  311SOL    HW1  951   1.071   1.239   3.043
  311SOL    HW2  952   1.070   1.232   2.879
  312SOL     OW  953   1.638   1.099   2.941
  312SOL    HW1  954   1.643   1.180   3.000
  312SOL    HW2  955   1.552   1.101   2.890
  313SOL     OW  956   0.915   0.089   3.264
  313SOL    HW1  957   0.940   0.069   3.169
  313SOL    HW2  958   0.987   0.145   3.306
  314SOL     OW  959   0.980   1.116   3.581
  314SOL    HW1  960   0.881   1.122   3.591
  314SOL    HW2  961   1.003   1.036   3.525
  315SOL     OW  962   0.705   1.050   2.230
  315SOL    HW1  963   0.691   1.057   2.329
  315SOL    HW2  964   0.789   0.999   2.212
  316SOL     OW  965   0.410   0.813   3.113
  316SOL    HW1  966   0.496   0.825   3.163
  316SOL    HW2  967   0.368   0.726   3.140
  317SOL     OW  968   1.274   0.386   3.124
  317SOL    HW1  969   1.295   0.460   3.188
  317SOL    HW2  970   1.185   0.403   3.081
  318SOL     OW  971   0.064   1.564   3.193
  318SOL    HW1  972   0.018   1.646   3.159
  318SOL    HW2  973   0.162   1.583   3.202
  319SOL     OW  974   0.367   1.100   2.363
  319SOL    HW1  975   0.360   1.183   2.307
  319SOL    HW2  976   0.371   1.020   2.303
  320SOL     OW  977   0.566   0.537   2.727
  320SOL    HW1  978   0.578   0.603   2.653
  320SOL    HW2  979   0.612   0.571   2.810
  321SOL     OW  980   1.252   1.348   2.250
  321SOL    HW1  981   1.302   1.425   2.290
  321SOL    HW2  982   1.157   1.350   2.282
  322SOL     OW  983   1.272   1.445   3.004
  322SOL    HW1  984   1.319   1.458   3.091
  322SOL    HW2  985   1.206   1.371   3.013
  323SOL     OW  986   1.582   0.639   2.334
  323SOL    HW1  987   1.551   0.700   2.407
  323SOL    HW2  988   1.632   0.691   2.265
  324SOL     OW  989   0.354   1.510   3.191
  324SOL    HW1  990   0.333   1.466   3.104
  324SOL    HW2  991   0.451   1.536   3.194
  325SOL     OW  992   0.402   0.751   3.460
  325SOL    HW1  993   0.470   0.806   3.413
  325SOL    HW2  994   0.442   0.663   3.487
  326SOL     OW  995   1.587   0.779   3.532
  326SOL    HW1  996   1.495   0.817   3.527
  326SOL    HW2  997   1.647   0.826   3.467
  327SOL     OW  998   1.013   0.105   3.632
  327SOL    HW1  999   1.019   0.190   3.580
  327SOL    HW2 1000   1.045   0.029   3.575
  328SOL     OW 1001   0.504   0.050   3.602
  328SOL    HW1 1002   0.462  -0.007   3.532
  328SOL    HW2 1003   0.438   0.119   3.634
  329SOL     OW 1004   0.573   0.870   2.891
  329SOL    HW1 1005   0.617   0.959   2.882
  329SOL    HW2 1006   0.510   0.870   2.968
  330SOL     OW 1007   1.360   0.862   2.907
  330SOL    HW1 1008   1.285   0.862   2.841
  330SOL    HW2 1009   1.397   0.770   2.916
  331SOL     OW 1010   1.209   0.525   2.137
  331SOL    HW1 1011   1.222   0.441   2.191
  331SOL    HW2 1012   1.180   0.599   2.197
  332SOL     OW 1013   0.307   0.213   3.093
  332SOL    HW1 1014   0.284   0.250   3.183
  332SOL    HW2 1015   0.277   0.118   3.087
  333SOL     OW 1016   0.037   1.310   3.144
  333SOL    HW1 1017   0.090   1.261   3.212
  333SOL    HW2 1018   0.059   1.408   3.149
  334SOL     OW 1019   0.732   0.634   2.926
  334SOL    HW1 1020   0.791   0.608   2.850
  334SOL    HW2 1021   0.704   0.730   2.915
  335SOL     OW 1022   1.728   0.935   3.716
  335SOL    HW1 1023   1.682   0.928   3.627
  335SOL    HW2 1024   1.666   0.979   3.782
  336SOL     OW 1025   0.307   0.063   2.480
  336SOL    HW1 1026   0.296   0.157   2.513
  336SOL    HW2 1027   0.302   0.000   2.557
  337SOL     OW 1028   1.622   0.367   2.236
  337SOL    HW1 1029   1.624   0.291   2.300
  337SOL    HW2 1030   1.574   0.444   2.276
  338SOL     OW 1031   1.023   0.766   2.828
  338SOL    HW1 1032   1.038   0.787   2.924
  338SOL    HW2 1033   0.993   0.671   2.819
  339SOL     OW 1034   0.980   1.573   3.562
  339SOL    HW1 1035   0.960   1.617   3.474
  339SOL    HW2 1036   1.019   1.482   3.546
  340SOL     OW 1037   1.859   1.518   3.467
  340SOL    HW1 1038   1.873   1.545   3.372
  340SOL    HW2 1039   1.942   1.540   3.520
  341SOL     OW 1040   0.350   0.898   3.666
  341SOL    HW1 1041   0.426   0.942   3.714
  341SOL    HW2 1042   0.385   0.851   3.584
  342SOL     OW 1043   1.540   0.274   1.987
  342SOL    HW1 1044   1.479   0.199   2.010
  342SOL    HW2 1045   1.562   0.326   2.070
  343SOL     OW 1046   1.303   0.838   1.904
  343SOL    HW1 1047   1.337   0.745   1.919
  343SOL    HW2 1048   1.321   0.865   1.809
  344SOL     OW 1049   1.068   1.333   2.711
  344SOL    HW1 1050   1.075   1.249   2.656
  344SOL    HW2 1051   1.130   1.402   2.675
  345SOL     OW 1052   0.319   0.810   2.811
  345SOL    HW1 1053   0.412   0.846   2.816
  345SOL    HW2 1054   0.313   0.725   2.863
  346SOL     OW 1055   0.339   0.509   2.868
  346SOL    HW1 1056   0.287   0.426   2.851
  346SOL    HW2 1057   0.416   0.514   2.804
  347SOL     OW 1058   1.138   0.380   3.540
  347SOL    HW1 1059   1.093   0.443   3.604
  347SOL    HW2 1060   1.231   0.411   3.523
  348SOL     OW 1061   1.160   0.207   3.339
  348SOL    HW1 1062   1.160   0.271   3.416
  348SOL    HW2 1063   1.188   0.255   3.256
  349SOL     OW 1064   0.008   1.326   2.062
  349SOL    HW1 1065  -0.085   1.347   2.031
  349SOL    HW2 1066   0.018   1.227   2.075
  350SOL     OW 1067   0.088   1.801   2.789
  350SOL    HW1 1068   0.046   1.715   2.762
  350SOL    HW2 1069   0.182   1.804   2.755
  351SOL     OW 1070   0.504   1.568   2.772
  351SOL    HW1 1071   0.570   1.642   2.781
  351SOL    HW2 1072   0.548   1.489   2.730
  352SOL     OW 1073   1.002   0.796   3.100
  352SOL    HW1 1074   1.043   0.764   3.186
  352SOL    HW2 1075   0.906   0.769   3.097
  353SOL     OW 1076   0.040   0.544   2.976
  353SOL    HW1 1077   0.125   0.511   2.935
  353SOL    HW2 1078   0.053   0.559   3.074
  354SOL     OW 1079   0.189   0.520   3.584
  354SOL    HW1 1080   0.248   0.480   3.514
  354SOL    HW2 1081   0.131   0.591   3.543
  355SOL     OW 1082   1.369   0.950   3.522
  355SOL    HW1 1083   1.408   1.039   3.542
  355SOL    HW2 1084   1.379   0.930   3.425
  356SOL     OW 1085   0.815   0.572   2.187
  356SOL    HW1 1086   0.822   0.483   2.141
  356SOL    HW2 1087   0.721   0.606   2.179
  357SOL     OW 1088   1.657   0.604   3.068
  357SOL    HW1 1089   1.619   0.535   3.130
  357SOL    HW2 1090   1.739   0.568   3.024
  358SOL     OW 1091   0.252   1.564   3.606
  358SOL    HW1 1092   0.222   1.621   3.682
  358SOL    HW2 1093   0.245   1.467   3.632
  359SOL     OW 1094   0.671   0.464   3.131
  359SOL    HW1 1095   0.637   0.375   3.101
  359SOL    HW2 1096   0.697   0.518   3.051
  360SOL     OW 1097   0.930   1.678   3.327
  360SOL    HW1 1098   0.906   1.660   3.232
  360SOL    HW2 1099   0.960   1.772   3.337
  361SOL     OW 1100   0.473   0.500   2.053
  361SOL    HW1 1101   0.534   0.580   2.057
  361SOL    HW2 1102   0.378   0.531   2.060
  362SOL     OW 1103   0.159   1.137   3.328
  362SOL    HW1 1104   0.181   1.076   3.404
  362SOL    HW2 1105   0.169   1.088   3.242
  363SOL     OW 1106   1.347   1.059   3.096
  363SOL    HW1 1107   1.371   0.996   3.022
  363SOL    HW2 1108   1.257   1.099   3.078
  364SOL     OW 1109   1.302   0.855   2.171
  364SOL    HW1 1110   1.216   0.824   2.213
  364SOL    HW2 1111   1.298   0.841   2.072
  365SOL     OW 1112   1.759   1.747   3.016
  365SOL    HW1 1113   1.820   1.777   2.943
  365SOL    HW2 1114   1.721   1.658   2.994
  366SOL     OW 1115   1.252   1.731   2.990
  366SOL    HW1 1116   1.336   1.736   2.936
  366SOL    HW2 1117   1.229   1.635   3.008
  367SOL     OW 1118   0.083   1.258   2.884
  367SOL    HW1 1119   0.078   1.257   2.984
  367SOL    HW2 1120   0.000   1.217   2.846
  368SOL     OW 1121   0.688   1.662   3.578
  368SOL    HW1 1122   0.632   1.743   3.587
  368SOL    HW2 1123   0.740   1.666   3.492
  369SOL     OW 1124   1.726   0.135   2.385
  369SOL    HW1 1125   1.799   0.118   2.318
  369SOL    HW2 1126   1.695   0.048   2.423
  370SOL     OW 1127   1.388   1.573   2.339
  370SOL    HW1 1128   1.455   1.585   2.265
  370SOL    HW2 1129   1.348   1.662   2.362
  371SOL     OW 1130   0.130   1.794   3.713
  371SOL    HW1 1131   0.089   1.720   3.766
  371SOL    HW2 1132   0.194   1.845   3.771
  372SOL     OW 1133   1.280   0.927   2.534
  372SOL    HW1 1134   1.340   0.846   2.536
  372SOL    HW2 1135   1.320   0.996   2.474
  373SOL     OW 1136   0.830   1.273   3.284
  373SOL    HW1 1137   0.825   1.306   3.379
  373SOL    HW2 1138   0.744   1.292   3.238
  374SOL     OW 1139   0.672   1.616   2.016
  374SOL    HW1 1140   0.681   1.626   1.917
  374SOL    HW2 1141   0.632   1.527   2.037
  375SOL     OW 1142   1.650   1.720   3.256
  375SOL    HW1 1143   1.703   1.730   3.172
  375SOL    HW2 1144   1.623   1.810   3.290
  376SOL     OW 1145   1.841   0.175   2.825
  376SOL    HW1 1146   1.880   0.090   2.789
  376SOL    HW2 1147   1.743   0.177   2.806
  377SOL     OW 1148   0.263   0.326   2.582
  377SOL    HW1 1149   0.184   0.377   2.548
  377SOL    HW2 1150   0.254   0.311   2.680
  378SOL     OW 1151   1.194   1.612   1.893
  378SOL    HW1 1152   1.200   1.519   1.930
  378SOL    HW2 1153   1.135   1.612   1.813
  379SOL     OW 1154   0.822   1.002   3.234
  379SOL    HW1 1155   0.862   1.001   3.142
  379SOL    HW2 1156   0.832   1.094   3.274
  380SOL     OW 1157   0.916   0.910   2.153
  380SOL    HW1 1158   0.979   0.948   2.085
  380SOL    HW2 1159   0.956   0.827   2.192
  381SOL     OW 1160   1.504   1.607   1.906
  381SOL    HW1 1161   1.412   1.644   1.913
  381SOL    HW2 1162   1.542   1.627   1.816
  382SOL     OW 1163   0.372   1.288   3.352
  382SOL    HW1 1164   0.359   1.381   3.318
  382SOL    HW2 1165   0.288   1.236   3.339
  383SOL     OW 1166   1.614   1.292   3.151
  383SOL    HW1 1167   1.674   1.295   3.231
  383SOL    HW2 1168   1.539   1.356   3.164
  384SOL     OW 1169   1.039   1.098   2.558
  384SOL    HW1 1170   0.969   1.051   2.612
  384SOL    HW2 1171   1.098   1.030   2.515
  385SOL     OW 1172   1.014   0.236   2.833
  385SOL    HW1 1173   1.006   0.200   2.740
  385SOL    HW2 1174   1.012   0.160   2.898
  386SOL     OW 1175   0.590   1.487   2.353
  386SOL    HW1 1176   0.632   1.429   2.283
  386SOL    HW2 1177   0.546   1.566   2.309
  387SOL     OW 1178   1.709   0.385   3.243
  387SOL    HW1 1179   1.782   0.454   3.247
  387SOL    HW2 1180   1.737   0.310   3.184
  388SOL     OW 1181   0.255   1.348   2.152
  388SOL    HW1 1182   0.159   1.349   2.125
  388SOL    HW2 1183   0.267   1.401   2.236
  389SOL     OW 1184   0.105   1.013   3.588
  389SOL    HW1 1185   0.028   0.980   3.642
  389SOL    HW2 1186   0.190   0.983   3.630
  390SOL     OW 1187   0.672   0.203   3.351
  390SOL    HW1 1188   0.762   0.187   3.311
  390SOL    HW2 1189   0.680   0.208   3.450
  391SOL     OW 1190   0.075   0.345   1.895
  391SOL    HW1 1191  -0.017   0.317   1.866
  391SOL    HW2 1192   0.106   0.422   1.839
  392SOL     OW 1193   1.440   0.856   3.260
  392SOL    HW1 1194   1.383   0.908   3.197
  392SOL    HW2 1195   1.536   0.868   3.236
  393SOL     OW 1196   0.072   0.166   2.180
  393SOL    HW1 1197   0.055   0.249   2.126
  393SOL    HW2 1198   0.162   0.129   2.158
  394SOL     OW 1199   1.183   1.335   1.981
  394SOL    HW1 1200   1.084   1.324   1.983
  394SOL    HW2 1201   1.217   1.350   2.074
  395SOL     OW 1202   0.613   0.842   3.293
  395SOL    HW1 1203   0.669   0.923   3.276
  395SOL    HW2 1204   0.672   0.762   3.296
  396SOL     OW 1205   1.493   1.767   2.821
  396SOL    HW1 1206   1.526   1.831   2.752
  396SOL    HW2 1207   1.559   1.761   2.896
  397SOL     OW 1208   0.716   0.565   3.570
  397SOL    HW1 1209   0.735   0.630   3.644
  397SOL    HW2 1210   0.776   0.485   3.579
  398SOL     OW 1211   1.450   1.220   3.495
  398SOL    HW1 1212   1.441   1.210   3.594
  398SOL    HW2 1213   1.546   1.213   3.469
  399SOL     OW 1214   0.390   1.741   3.422
  399SOL    HW1 1215   0.299   1.782   3.420
  399SOL    HW2 1216   0.383   1.647   3.454
  400SOL     OW 1217   1.674   0.883   3.116
  400SOL    HW1 1218   1.647   0.794   3.079
  400SOL    HW2 1219   1.675   0.951   3.043
  401SOL     OW 1220   1.225   0.325   2.311
  401SOL    HW1 1221   1.290   0.251   2.300
  401SOL    HW2 1222   1.245   0.375   2.395
  402SOL     OW 1223   0.594   0.745   2.514
  402SOL    HW1 1224   0.644   0.830   2.495
  402SOL    HW2 1225   0.506   0.747   2.466
  403SOL     OW 1226   1.777   0.342   3.504
  403SOL    HW1 1227   1.760   0.373   3.410
  403SOL    HW2 1228   1.693   0.305   3.542
  404SOL     OW 1229   1.730   0.934   3.379
  404SOL    HW1 1230   1.768   1.025   3.394
  404SOL    HW2 1231   1.722   0.917   3.280
  405SOL     OW 1232   0.859   1.374   1.878
  405SOL    HW1 1233   0.813   1.389   1.966
  405SOL    HW2 1234   0.903   1.459   1.848
  406SOL     OW 1235   0.661   1.790   2.815
  406SOL    HW1 1236   0.615   1.878   2.802
  406SOL    HW2 1237   0.760   1.802   2.808
  407SOL     OW 1238   0.859   0.956   2.723
  407SOL    HW1 1239   0.913   0.887   2.771
  407SOL    HW2 1240   0.827   1.025   2.789
  408SOL     OW 1241   1.083   0.984   1.949
  408SOL    HW1 1242   1.060   1.037   1.867
  408SOL    HW2 1243   1.164   0.928   1.930
  409SOL     OW 1244   1.861   1.569   2.713
  409SOL    HW1 1245   1.790   1.557   2.643
  409SOL    HW2 1246   1.862   1.490   2.773
  410SOL     OW 1247   0.221   1.314   3.706
  410SOL    HW1 1248   0.156   1.241   3.685
  410SOL    HW2 1249   0.225   1.328   3.804
  411SOL     OW 1250   0.079   1.240   2.515
  411SOL    HW1 1251   0.078   1.193   2.603
  411SOL    HW2 1252   0.161   1.212   2.464
  412SOL     OW 1253   0.672   1.391   3.486
  412SOL    HW1 1254   0.594   1.341   3.524
  412SOL    HW2 1255   0.669   1.486   3.517
  413SOL     OW 1256   1.824   0.192   3.089
  413SOL    HW1 1257   1.820   0.102   3.133
  413SOL    HW2 1258   1.827   0.181   2.990
  414SOL     OW 1259   0.428   0.424   2.382
  414SOL    HW1 1260   0.458   0.352   2.320
  414SOL    HW2 1261   0.389   0.384   2.465
  415SOL     OW 1262   1.705   1.487   2.966
  415SOL    HW1 1263   1.612   1.462   2.939
  415SOL    HW2 1264   1.731   1.437   3.048
  416SOL     OW 1265   0.317   0.547   3.142
  416SOL    HW1 1266   0.355   0.488   3.214
  416SOL    HW2 1267   0.357   0.521   3.054
  417SOL     OW 1268   0.812   1.586   2.549
  417SOL    HW1 1269   0.844   1.596   2.455
  417SOL    HW2 1270   0.733   1.524   2.551
  418SOL     OW 1271   1.424   0.214   2.974
  418SOL    HW1 1272   1.476   0.149   3.029
  418SOL    HW2 1273   1.375   0.277   3.035
  419SOL     OW 1274   1.001   0.034   3.016
  419SOL    HW1 1275   0.938  -0.038   2.985
  419SOL    HW2 1276   1.094  -0.002   3.016
  420SOL     OW 1277   0.770   1.330   2.163
  420SOL    HW1 1278   0.724   1.243   2.180
  420SOL    HW2 1279   0.861   1.327   2.204
  421SOL     OW 1280   0.618   1.567   3.146
  421SOL    HW1 1281   0.613   1.649   3.203
  421SOL    HW2 1282   0.707   1.564   3.101
  422SOL     OW 1283   1.352   0.052   2.030
  422SOL    HW1 1284   1.387   0.011   1.946
  422SOL    HW2 1285   1.262   0.014   2.050
  423SOL     OW 1286   1.300   0.453   2.553
  423SOL    HW1 1287   1.241   0.533   2.557
  423SOL    HW2 1288   1.315   0.418   2.646
  424SOL     OW 1289   1.593   0.221   2.744
  424SOL    HW1 1290   1.509   0.220   2.798
  424SOL    HW2 1291   1.595   0.304   2.688
  425SOL     OW 1292   0.039   1.077   2.162
  425SOL    HW1 1293   0.138   1.066   2.153
  425SOL    HW2 1294  -0.001   0.991   2.194
  426SOL     OW 1295   0.875   1.646   2.199
  426SOL    HW1 1296   0.798   1.611   2.145
  426SOL    HW2 1297   0.843   1.717   2.261
  427SOL     OW 1298   0.230   0.628   3.837
  427SOL    HW1 1299   0.137   0.626   3.874
  427SOL    HW2 1300   0.231   0.589   3.745
  428SOL     OW 1301   0.019   0.368   4.371
  428SOL    HW1 1302  -0.063   0.411   4.410
  428SOL    HW2 1303  -0.009   0.295   4.308
  429SOL     OW 1304   1.555   1.511   4.427
  429SOL    HW1 1305   1.498   1.495   4.508
  429SOL    HW2 1306   1.496   1.521   4.347
  430SOL     OW 1307   1.135   0.703   4.441
  430SOL    HW1 1308   1.192   0.781   4.416
  430SOL    HW2 1309   1.075   0.729   4.517
  431SOL     OW 1310   1.755   0.607   3.955
  431SOL    HW1 1311   1.743   0.594   3.856
  431SOL    HW2 1312   1.725   0.526   4.004
  432SOL     OW 1313   0.768   1.144   4.747
  432SOL    HW1 1314   0.690   1.161   4.807
  432SOL    HW2 1315   0.802   1.231   4.711
  433SOL     OW 1316   0.685   1.012   4.389
  433SOL    HW1 1317   0.754   0.996   4.459
  433SOL    HW2 1318   0.612   1.069   4.427
  434SOL     OW 1319   1.603   0.447   4.461
  434SOL    HW1 1320   1.529   0.493   4.411
  434SOL    HW2 1321   1.654   0.515   4.514
  435SOL     OW 1322   0.231   1.713   4.207
  435SOL    HW1 1323   0.265   1.790   4.261
  435SOL    HW2 1324   0.275   1.713   4.117
  436SOL     OW 1325   0.230   1.434   4.262
  436SOL    HW1 1326   0.204   1.530   4.262
  436SOL    HW2 1327   0.159   1.380   4.307
  437SOL     OW 1328   0.240   1.091   4.610
  437SOL    HW1 1329   0.254   1.007   4.662
  437SOL    HW2 1330   0.185   1.155   4.665
  438SOL     OW 1331   0.606   0.964   3.847
  438SOL    HW1 1332   0.613   1.048   3.793
  438SOL    HW2 1333   0.652   0.977   3.935
  439SOL     OW 1334   0.122   0.643   4.287
  439SOL    HW1 1335   0.077   0.555   4.304
  439SOL    HW2 1336   0.121   0.697   4.371
  440SOL     OW 1337   1.842   1.767   4.083
  440SOL    HW1 1338   1.896   1.738   4.163
  440SOL    HW2 1339   1.872   1.857   4.054
  441SOL     OW 1340   0.027   1.596   3.841
  441SOL    HW1 1341   0.008   1.500   3.862
  441SOL    HW2 1342  -0.006   1.654   3.916
  442SOL     OW 1343   1.689   0.922   4.336
  442SOL    HW1 1344   1.784   0.893   4.344
  442SOL    HW2 1345   1.681   0.987   4.261
  443SOL     OW 1346   1.641   1.108   4.156
  443SOL    HW1 1347   1.727   1.110   4.104
  443SOL    HW2 1348   1.655   1.155   4.244
  444SOL     OW 1349   0.613   1.365   4.450
  444SOL    HW1 1350   0.564   1.278   4.459
  444SOL    HW2 1351   0.590   1.408   4.363
  445SOL     OW 1352   0.809   0.004   4.226
  445SOL    HW1 1353   0.849   0.095   4.217
  445SOL    HW2 1354   0.709   0.012   4.232
  446SOL     OW 1355   1.525   0.999   3.914
  446SOL    HW1 1356   1.462   0.923   3.927
  446SOL    HW2 1357   1.573   1.017   4.000
  447SOL     OW 1358   1.667   1.714   4.296
  447SOL    HW1 1359   1.626   1.691   4.208
  447SOL    HW2 1360   1.649   1.640   4.361
  448SOL     OW 1361   0.598   0.729   3.994
  448SOL    HW1 1362   0.622   0.798   3.926
  448SOL    HW2 1363   0.520   0.762   4.048
  449SOL     OW 1364   1.281   0.345   4.668
  449SOL    HW1 1365   1.195   0.295   4.655
  449SOL    HW2 1366   1.343   0.291   4.724
  450SOL     OW 1367   1.576   1.662   4.031
  450SOL    HW1 1368   1.665   1.708   4.034
  450SOL    HW2 1369   1.555   1.638   3.936
  451SOL     OW 1370   1.041   0.701   4.153
  451SOL    HW1 1371   1.067   0.697   4.249
  451SOL    HW2 1372   0.956   0.650   4.139
  452SOL     OW 1373   0.076   0.811   4.513
  452SOL    HW1 1374   0.175   0.799   4.522
  452SOL    HW2 1375   0.052   0.906   4.534
  453SOL     OW 1376   0.865   0.348   3.919
  453SOL    HW1 1377   0.924   0.411   3.870
  453SOL    HW2 1378   0.884   0.254   3.890
  454SOL     OW 1379   1.362   1.144   4.269
  454SOL    HW1 1380   1.445   1.115   4.221
  454SOL    HW2 1381   1.313   1.211   4.213
  455SOL     OW 1382   1.008   1.456   4.201
  455SOL    HW1 1383   0.962   1.528   4.149
  455SOL    HW2 1384   1.004   1.476   4.299
  456SOL     OW 1385   0.351   1.801   4.577
  456SOL    HW1 1386   0.401   1.715   4.583
  456SOL    HW2 1387   0.416   1.878   4.574
  457SOL     OW 1388   1.795   1.066   4.597
  457SOL    HW1 1389   1.733   1.051   4.521
  457SOL    HW2 1390   1.743   1.077   4.682
  458SOL     OW 1391   0.321   0.943   3.966
  458SOL    HW1 1392   0.403   0.982   3.924
  458SOL    HW2 1393   0.294   0.861   3.917
  459SOL     OW 1394   1.458   0.735   4.452
  459SOL    HW1 1395   1.453   0.670   4.527
  459SOL    HW2 1396   1.538   0.794   4.465
  460SOL     OW 1397   1.111   1.776   3.961
  460SOL    HW1 1398   1.051   1.714   4.011
  460SOL    HW2 1399   1.142   1.732   3.876
  461SOL     OW 1400   1.632   1.377   3.805
  461SOL    HW1 1401   1.600   1.471   3.795
  461SOL    HW2 1402   1.556   1.314   3.793
  462SOL     OW 1403   0.464   1.743   4.047
  462SOL    HW1 1404   0.497   1.782   4.133
  462SOL    HW2 1405   0.540   1.736   3.982
  463SOL     OW 1406   1.400   0.107   4.150
  463SOL    HW1 1407   1.376   0.070   4.060
  463SOL    HW2 1408   1.499   0.123   4.154
  464SOL     OW 1409   0.940   1.698   4.628
  464SOL    HW1 1410   1.020   1.641   4.649
  464SOL    HW2 1411   0.891   1.658   4.551
  465SOL     OW 1412   0.382   0.700   4.204
  465SOL    HW1 1413   0.427   0.610   4.201
  465SOL    HW2 1414   0.288   0.689   4.237
  466SOL     OW 1415   0.614   0.122   3.841
  466SOL    HW1 1416   0.712   0.100   3.848
  466SOL    HW2 1417   0.583   0.105   3.748
  467SOL     OW 1418   0.539   0.064   4.236
  467SOL    HW1 1419   0.458   0.065   4.294
  467SOL    HW2 1420   0.542   0.147   4.181
  468SOL     OW 1421   1.434   1.188   3.765
  468SOL    HW1 1422   1.466   1.112   3.822
  468SOL    HW2 1423   1.342   1.215   3.795
  469SOL     OW 1424   0.297   0.035   3.895
  469SOL    HW1 1425   0.346   0.119   3.874
  469SOL    HW2 1426   0.359  -0.030   3.940
  470SOL     OW 1427   0.935   0.236   4.204
  470SOL    HW1 1428   0.887   0.277   4.126
  470SOL    HW2 1429   1.034   0.234   4.185
  471SOL     OW 1430   0.459   1.152   4.465
  471SOL    HW1 1431   0.388   1.125   4.530
  471SOL    HW2 1432   0.433   1.124   4.372
  472SOL     OW 1433   1.271   1.797   4.315
  472SOL    HW1 1434   1.315   1.861   4.251
  472SOL    HW2 1435   1.221   1.849   4.385
  473SOL     OW 1436   1.032   0.549   3.740
  473SOL    HW1 1437   0.991   0.631   3.701
  473SOL    HW2 1438   1.096   0.575   3.813
  474SOL     OW 1439   0.866   0.454   4.366
  474SOL    HW1 1440   0.834   0.526   4.304
  474SOL    HW2 1441   0.890   0.373   4.313
  475SOL     OW 1442   1.017   0.039   4.477
  475SOL    HW1 1443   0.945   0.044   4.408
  475SOL    HW2 1444   0.993  -0.030   4.546
  476SOL     OW 1445   1.857   0.833   4.101
  476SOL    HW1 1446   1.899   0.769   4.165
  476SOL    HW2 1447   1.819   0.782   4.023
  477SOL     OW 1448   0.488   1.385   3.898
  477SOL    HW1 1449   0.401   1.370   3.945
  477SOL    HW2 1450   0.471   1.411   3.803
  478SOL     OW 1451   1.664   1.280   4.381
  478SOL    HW1 1452   1.763   1.288   4.395
  478SOL    HW2 1453   1.619   1.364   4.412
  479SOL     OW 1454   1.390   0.575   3.802
  479SOL    HW1 1455   1.336   0.554   3.883
  479SOL    HW2 1456   1.481   0.534   3.811
  480SOL     OW 1457   0.527   0.256   4.052
  480SOL    HW1 1458   0.554   0.197   3.977
  480SOL    HW2 1459   0.527   0.351   4.021
  481SOL     OW 1460   0.705   1.050   4.092
  481SOL    HW1 1461   0.691   1.057   4.191
  481SOL    HW2 1462   0.789   0.999   4.074
  482SOL     OW 1463   0.367   1.100   4.225
  482SOL    HW1 1464   0.360   1.183   4.169
  482SOL    HW2 1465   0.371   1.020   4.165
  483SOL     OW 1466   0.566   0.537   4.589
  483SOL    HW1 1467   0.578   0.603   4.515
  483SOL    HW2 1468   0.612   0.571   4.672
  484SOL     OW 1469   1.252   1.348   4.112
  484SOL    HW1 1470   1.302   1.425   4.152
  484SOL    HW2 1471   1.157   1.350   4.144
  485SOL     OW 1472   1.582   0.639   4.196
  485SOL    HW1 1473   1.551   0.700   4.269
  485SOL    HW2 1474   1.632   0.691   4.127
  486SOL     OW 1475   1.209   0.525   3.999
  486SOL    HW1 1476   1.222   0.441   4.053
  486SOL    HW2 1477   1.180   0.599   4.059
  487SOL     OW 1478   0.307   0.063   4.342
  487SOL    HW1 1479   0.296   0.157   4.375
  487SOL    HW2 1480   0.302   0.000   4.419
  488SOL     OW 1481   1.622   0.367   4.098
  488SOL    HW1 1482   1.624   0.291   4.162
  488SOL    HW2 1483   1.574   0.444   4.138
  489SOL     OW 1484   1.540   0.274   3.849
  489SOL    HW1 1485   1.479   0.199   3.872
  489SOL    HW2 1486   1.562   0.326   3.932
  490SOL     OW 1487   1.303   0.838   3.766
  490SOL    HW1 1488   1.337   0.745   3.781
  490SOL    HW2 1489   1.321   0.865   3.671
  491SOL     OW 1490   0.008   1.326   3.924
  491SOL    HW1 1491  -0.085   1.347   3.893
  491SOL    HW2 1492   0.018   1.227   3.937
  492SOL     OW 1493   0.815   0.572   4.049
  492SOL    HW1 1494   0.822   0.483   4.003
  492SOL    HW2 1495   0.721   0.606   4.041
  493SOL     OW 1496   0.473   0.500   3.915
  493SOL    HW1 1497   0.534   0.580   3.919
  493SOL    HW2 1498   0.378   0.531   3.922
  494SOL     OW 1499   1.302   0.855   4.033
  494SOL    HW1 1500   1.216   0.824   4.075
  494SOL    HW2 1501   1.298   0.841   3.934
  495SOL     OW 1502   1.726   0.135   4.247
  495SOL    HW1 1503   1.799   0.118   4.180
  495SOL    HW2 1504   1.695   0.048   4.285
  496SOL     OW 1505   1.388   1.573   4.201
  496SOL    HW1 1506   1.455   1.585   4.127
  496SOL    HW2 1507   1.348   1.662   4.224
  497SOL     OW 1508   1.280   0.927   4.396
  497SOL    HW1 1509   1.340   0.846   4.398
  497SOL    HW2 1510   1.320   0.996   4.336
  498SOL     OW 1511   0.672   1.616   3.878
  498SOL    HW1 1512   0.681   1.626   3.779
  498SOL    HW2 1513   0.632   1.527   3.899
  499SOL     OW 1514   1.841   0.175   4.687
  499SOL    HW1 1515   1.880   0.090   4.651
  499SOL    HW2 1516   1.743   0.177   4.668
  500SOL     OW 1517   0.263   0.326   4.444
  500SOL    HW1 1518   0.184   0.377   4.410
  500SOL    HW2 1519   0.254   0.311   4.542
  501SOL     OW 1520   1.194   1.612   3.755
  501SOL    HW1 1521   1.200   1.519   3.792
  501SOL    HW2 1522   1.135   1.612   3.675
  502SOL     OW 1523   0.916   0.910   4.015
  502SOL    HW1 1524   0.979   0.948   3.947
  502SOL    HW2 1525   0.956   0.827   4.054
  503SOL     OW 1526   1.504   1.607   3.768
  503SOL    HW1 1527   1.412   1.644   3.775
  503SOL    HW2 1528   1.542   1.627   3.678
  504SOL     OW 1529   1.039   1.098   4.420
  504SOL    HW1 1530   0.969   1.051   4.474
  504SOL    HW2 1531   1.098   1.030   4.377
  505SOL     OW 1532   0.590   1.487   4.215
  505SOL    HW1 1533   0.632   1.429   4.145
  505SOL    HW2 1534   0.546   1.566   4.171
  506SOL     OW 1535   0.255   1.348   4.014
  506SOL    HW1 1536   0.159   1.349   3.987
  506SOL    HW2 1537   0.267   1.401   4.098
  507SOL     OW 1538   0.075   0.345   3.757
  507SOL    HW1 1539  -0.017   0.317   3.728
  507SOL    HW2 1540   0.106   0.422   3.701
  508SOL     OW 1541   0.072   0.166   4.042
  508SOL    HW1 1542   0.055   0.249   3.988
  508SOL    HW2 1543   0.162   0.129   4.020
  509SOL     OW 1544   1.183   1.335   3.843
  509SOL    HW1 1545   1.084   1.324   3.845
  509SOL    HW2 1546   1.217   1.350   3.936
  510SOL     OW 1547   1.225   0.325   4.173
  510SOL    HW1 1548   1.290   0.251   4.162
  510SOL    HW2 1549   1.245   0.375   4.257
  511SOL     OW 1550   0.594   0.745   4.376
  511SOL    HW1 1551   0.644   0.830   4.357
  511SOL    HW2 1552   0.506   0.747   4.328
  512SOL     OW 1553   0.859   1.374   3.740
  512SOL    HW1 1554   0.813   1.389   3.828
  512SOL    HW2 1555   0.903   1.459   3.710
  513SOL     OW 1556   0.661   1.790   4.677
  513SOL    HW1 1557   0.615   1.878   4.664
  513SOL    HW2 1558   0.760   1.802   4.670
  514SOL     OW 1559   0.859   0.956   4.585
  514SOL    HW1 1560   0.913   0.887   4.633
  514SOL    HW2 1561   0.827   1.025   4.651
  515SOL     OW 1562   1.083   0.984   3.811
  515SOL    HW1 1563   1.060   1.037   3.729
  515SOL    HW2 1564   1.164   0.928   3.792
  516SOL     OW 1565   0.079   1.240   4.377
  516SOL    HW1 1566   0.078   1.193   4.465
  516SOL    HW2 1567   0.161   1.212   4.326
  517SOL     OW 1568   0.428   0.424   4.244
  517SOL    HW1 1569   0.458   0.352   4.182
  517SOL    HW2 1570   0.389   0.384   4.327
  518SOL     OW 1571   0.812   1.586   4.411
  518SOL    HW1 1572   0.844   1.596   4.317
  518SOL    HW2 1573   0.733   1.524   4.413
  519SOL     OW 1574   0.770   1.330   4.025
  519SOL    HW1 1575   0.724   1.243   4.042
  519SOL    HW2 1576   0.861   1.327   4.066
  520SOL     OW 1577   1.352   0.052   3.892
  520SOL    HW1 1578   1.387   0.011   3.808
  520SOL    HW2 1579   1.262   0.014   3.912
  521SOL     OW 1580   1.300   0.453   4.415
  521SOL    HW1 1581   1.241   0.533   4.419
  521SOL    HW2 1582   1.315   0.418   4.508
  522SOL     OW 1583   0.039   1.077   4.024
  522SOL    HW1 1584   0.138   1.066   4.015
  522SOL    HW2 1585  -0.001   0.991   4.056
  523SOL     OW 1586   0.875   1.646   4.061
  523SOL    HW1 1587   0.798   1.611   4.007
  523SOL    HW2 1588   0.843   1.717   4.123
  524SOL     OW 1589   0.230   2.490   0.113
  524SOL    HW1 1590   0.137   2.488   0.150
  524SOL    HW2 1591   0.231   2.451   0.021
  525SOL     OW 1592   0.225   2.137   0.996
  525SOL    HW1 1593   0.260   2.120   1.088
  525SOL    HW2 1594   0.137   2.092   0.984
  526SOL     OW 1595   0.019   2.230   0.647
  526SOL    HW1 1596  -0.063   2.273   0.686
  526SOL    HW2 1597  -0.009   2.157   0.584
  527SOL     OW 1598   0.569   3.137   1.165
  527SOL    HW1 1599   0.476   3.130   1.128
  527SOL    HW2 1600   0.580   3.226   1.209
  528SOL     OW 1601   1.555   3.373   0.703
  528SOL    HW1 1602   1.498   3.357   0.784
  528SOL    HW2 1603   1.496   3.383   0.623
  529SOL     OW 1604   1.135   2.565   0.717
  529SOL    HW1 1605   1.192   2.643   0.692
  529SOL    HW2 1606   1.075   2.591   0.793
  530SOL     OW 1607   1.755   2.469   0.231
  530SOL    HW1 1608   1.743   2.456   0.132
  530SOL    HW2 1609   1.725   2.388   0.280
  531SOL     OW 1610   0.768   3.006   1.023
  531SOL    HW1 1611   0.690   3.023   1.083
  531SOL    HW2 1612   0.802   3.093   0.987
  532SOL     OW 1613   0.850   2.660   1.823
  532SOL    HW1 1614   0.846   2.736   1.888
  532SOL    HW2 1615   0.872   2.696   1.732
  533SOL     OW 1616   0.685   2.874   0.665
  533SOL    HW1 1617   0.754   2.858   0.735
  533SOL    HW2 1618   0.612   2.931   0.703
  534SOL     OW 1619   0.686   3.023   1.803
  534SOL    HW1 1620   0.746   3.102   1.817
  534SOL    HW2 1621   0.600   3.054   1.762
  535SOL     OW 1622   0.335   3.297   1.061
  535SOL    HW1 1623   0.257   3.266   1.008
  535SOL    HW2 1624   0.393   3.355   1.004
  536SOL     OW 1625   1.460   3.367   1.339
  536SOL    HW1 1626   1.484   3.461   1.365
  536SOL    HW2 1627   1.444   3.313   1.421
  537SOL     OW 1628   0.438   2.254   1.499
  537SOL    HW1 1629   0.520   2.198   1.508
  537SOL    HW2 1630   0.357   2.196   1.503
  538SOL     OW 1631   1.603   2.309   0.737
  538SOL    HW1 1632   1.529   2.355   0.687
  538SOL    HW2 1633   1.654   2.377   0.790
  539SOL     OW 1634   0.231   3.575   0.483
  539SOL    HW1 1635   0.265   3.652   0.537
  539SOL    HW2 1636   0.275   3.575   0.393
  540SOL     OW 1637   1.127   3.203   1.690
  540SOL    HW1 1638   1.174   3.203   1.778
  540SOL    HW2 1639   1.079   3.116   1.679
  541SOL     OW 1640   0.230   3.296   0.538
  541SOL    HW1 1641   0.204   3.392   0.538
  541SOL    HW2 1642   0.159   3.242   0.583
  542SOL     OW 1643   0.240   2.953   0.886
  542SOL    HW1 1644   0.254   2.869   0.938
  542SOL    HW2 1645   0.185   3.017   0.941
  543SOL     OW 1646   0.620   3.648   1.439
  543SOL    HW1 1647   0.528   3.631   1.474
  543SOL    HW2 1648   0.648   3.740   1.465
  544SOL     OW 1649   0.606   2.826   0.123
  544SOL    HW1 1650   0.613   2.910   0.069
  544SOL    HW2 1651   0.652   2.839   0.211
  545SOL     OW 1652   1.594   1.976   1.480
  545SOL    HW1 1653   1.576   2.043   1.408
  545SOL    HW2 1654   1.591   2.022   1.569
  546SOL     OW 1655   0.122   2.505   0.563
  546SOL    HW1 1656   0.077   2.417   0.580
  546SOL    HW2 1657   0.121   2.559   0.647
  547SOL     OW 1658   1.842   3.629   0.359
  547SOL    HW1 1659   1.896   3.600   0.439
  547SOL    HW2 1660   1.872   3.719   0.330
  548SOL     OW 1661   0.027   3.458   0.117
  548SOL    HW1 1662   0.008   3.362   0.138
  548SOL    HW2 1663  -0.006   3.516   0.192
  549SOL     OW 1664   1.689   2.784   0.612
  549SOL    HW1 1665   1.784   2.755   0.620
  549SOL    HW2 1666   1.681   2.849   0.537
  550SOL     OW 1667   1.641   2.970   0.432
  550SOL    HW1 1668   1.727   2.972   0.380
  550SOL    HW2 1669   1.655   3.017   0.520
  551SOL     OW 1670   0.113   2.599   1.597
  551SOL    HW1 1671   0.201   2.586   1.642
  551SOL    HW2 1672   0.100   2.696   1.575
  552SOL     OW 1673   0.613   3.227   0.726
  552SOL    HW1 1674   0.564   3.140   0.735
  552SOL    HW2 1675   0.590   3.270   0.639
  553SOL     OW 1676   1.293   3.090   1.423
  553SOL    HW1 1677   1.330   3.017   1.365
  553SOL    HW2 1678   1.345   3.095   1.508
  554SOL     OW 1679   0.809   1.866   0.502
  554SOL    HW1 1680   0.849   1.957   0.493
  554SOL    HW2 1681   0.709   1.874   0.508
  555SOL     OW 1682   0.197   2.838   1.264
  555SOL    HW1 1683   0.286   2.793   1.250
  555SOL    HW2 1684   0.124   2.773   1.245
  556SOL     OW 1685   1.525   2.861   0.190
  556SOL    HW1 1686   1.462   2.785   0.203
  556SOL    HW2 1687   1.573   2.879   0.276
  557SOL     OW 1688   1.187   3.654   1.616
  557SOL    HW1 1689   1.211   3.714   1.540
  557SOL    HW2 1690   1.194   3.559   1.586
  558SOL     OW 1691   0.317   2.113   1.801
  558SOL    HW1 1692   0.388   2.184   1.807
  558SOL    HW2 1693   0.229   2.152   1.829
  559SOL     OW 1694   1.466   3.279   0.953
  559SOL    HW1 1695   1.407   3.285   1.033
  559SOL    HW2 1696   1.451   3.191   0.907
  560SOL     OW 1697   1.667   3.576   0.572
  560SOL    HW1 1698   1.626   3.553   0.484
  560SOL    HW2 1699   1.649   3.502   0.637
  561SOL     OW 1700   0.598   2.591   0.270
  561SOL    HW1 1701   0.622   2.660   0.202
  561SOL    HW2 1702   0.520   2.624   0.324
  562SOL     OW 1703   1.281   2.207   0.944
  562SOL    HW1 1704   1.195   2.157   0.931
  562SOL    HW2 1705   1.343   2.153   1.000
  563SOL     OW 1706   1.576   3.524   0.307
  563SOL    HW1 1707   1.665   3.570   0.310
  563SOL    HW2 1708   1.555   3.500   0.212
  564SOL     OW 1709   0.807   2.467   1.465
  564SOL    HW1 1710   0.760   2.464   1.554
  564SOL    HW2 1711   0.756   2.412   1.399
  565SOL     OW 1712   1.394   2.331   1.674
  565SOL    HW1 1713   1.374   2.374   1.762
  565SOL    HW2 1714   1.472   2.269   1.683
  566SOL     OW 1715   0.973   2.752   1.572
  566SOL    HW1 1716   1.019   2.668   1.543
  566SOL    HW2 1717   0.917   2.786   1.497
  567SOL     OW 1718   0.991   2.272   1.242
  567SOL    HW1 1719   0.914   2.306   1.296
  567SOL    HW2 1720   0.957   2.221   1.163
  568SOL     OW 1721   1.041   2.563   0.429
  568SOL    HW1 1722   1.067   2.559   0.525
  568SOL    HW2 1723   0.956   2.512   0.415
  569SOL     OW 1724   0.076   2.673   0.789
  569SOL    HW1 1725   0.175   2.661   0.798
  569SOL    HW2 1726   0.052   2.768   0.810
  570SOL     OW 1727   0.130   3.683   1.571
  570SOL    HW1 1728   0.120   3.668   1.670
  570SOL    HW2 1729   0.044   3.719   1.535
  571SOL     OW 1730   0.865   2.210   0.195
  571SOL    HW1 1731   0.924   2.273   0.146
  571SOL    HW2 1732   0.884   2.116   0.166
  572SOL     OW 1733   1.719   2.447   1.831
  572SOL    HW1 1734   1.693   2.536   1.795
  572SOL    HW2 1735   1.717   2.379   1.758
  573SOL     OW 1736   1.362   3.006   0.545
  573SOL    HW1 1737   1.445   2.977   0.497
  573SOL    HW2 1738   1.313   3.073   0.489
  574SOL     OW 1739   0.550   2.058   0.885
  574SOL    HW1 1740   0.545   2.053   0.985
  574SOL    HW2 1741   0.552   2.154   0.856
  575SOL     OW 1742   1.008   3.318   0.477
  575SOL    HW1 1743   0.962   3.390   0.425
  575SOL    HW2 1744   1.004   3.338   0.575
  576SOL     OW 1745   0.351   3.663   0.853
  576SOL    HW1 1746   0.401   3.577   0.859
  576SOL    HW2 1747   0.416   3.740   0.850
  577SOL     OW 1748   1.795   2.928   0.873
  577SOL    HW1 1749   1.733   2.913   0.797
  577SOL    HW2 1750   1.743   2.939   0.958
  578SOL     OW 1751   1.227   3.412   1.506
  578SOL    HW1 1752   1.233   3.335   1.570
  578SOL    HW2 1753   1.175   3.386   1.426
  579SOL     OW 1754   0.321   2.805   0.242
  579SOL    HW1 1755   0.403   2.844   0.200
  579SOL    HW2 1756   0.294   2.723   0.193
  580SOL     OW 1757   1.458   2.597   0.728
  580SOL    HW1 1758   1.453   2.532   0.803
  580SOL    HW2 1759   1.538   2.656   0.741
  581SOL     OW 1760   0.461   3.128   1.727
  581SOL    HW1 1761   0.411   3.129   1.641
  581SOL    HW2 1762   0.398   3.110   1.803
  582SOL     OW 1763   1.111   3.638   0.237
  582SOL    HW1 1764   1.051   3.576   0.287
  582SOL    HW2 1765   1.142   3.594   0.152
  583SOL     OW 1766   0.202   2.147   1.498
  583SOL    HW1 1767   0.122   2.207   1.485
  583SOL    HW2 1768   0.192   2.098   1.584
  584SOL     OW 1769   1.632   3.239   0.081
  584SOL    HW1 1770   1.600   3.333   0.071
  584SOL    HW2 1771   1.556   3.176   0.069
  585SOL     OW 1772   0.464   3.605   0.323
  585SOL    HW1 1773   0.497   3.644   0.409
  585SOL    HW2 1774   0.540   3.598   0.258
  586SOL     OW 1775   1.400   1.969   0.426
  586SOL    HW1 1776   1.376   1.932   0.336
  586SOL    HW2 1777   1.499   1.985   0.430
  587SOL     OW 1778   0.249   3.647   1.241
  587SOL    HW1 1779   0.306   3.582   1.291
  587SOL    HW2 1780   0.233   3.614   1.148
  588SOL     OW 1781   0.940   3.560   0.904
  588SOL    HW1 1782   1.020   3.503   0.925
  588SOL    HW2 1783   0.891   3.520   0.827
  589SOL     OW 1784   0.382   2.562   0.480
  589SOL    HW1 1785   0.427   2.472   0.477
  589SOL    HW2 1786   0.288   2.551   0.513
  590SOL     OW 1787   1.547   2.084   1.729
  590SOL    HW1 1788   1.542   2.121   1.821
  590SOL    HW2 1789   1.475   2.015   1.717
  591SOL     OW 1790   0.781   2.126   1.749
  591SOL    HW1 1791   0.848   2.065   1.792
  591SOL    HW2 1792   0.708   2.145   1.814
  592SOL     OW 1793   0.888   3.376   1.195
  592SOL    HW1 1794   0.865   3.351   1.101
  592SOL    HW2 1795   0.949   3.307   1.234
  593SOL     OW 1796   1.351   2.452   1.433
  593SOL    HW1 1797   1.379   2.409   1.518
  593SOL    HW2 1798   1.376   2.548   1.434
  594SOL     OW 1799   0.803   3.264   0.924
  594SOL    HW1 1800   0.893   3.278   0.882
  594SOL    HW2 1801   0.732   3.266   0.853
  595SOL     OW 1802   0.922   2.365   0.899
  595SOL    HW1 1803   0.897   2.356   0.803
  595SOL    HW2 1804   0.970   2.283   0.930
  596SOL     OW 1805   0.539   1.926   0.512
  596SOL    HW1 1806   0.458   1.927   0.570
  596SOL    HW2 1807   0.542   2.009   0.457
  597SOL     OW 1808   1.434   3.050   0.041
  597SOL    HW1 1809   1.466   2.974   0.098
  597SOL    HW2 1810   1.342   3.077   0.071
  598SOL     OW 1811   0.297   1.897   0.171
  598SOL    HW1 1812   0.346   1.981   0.150
  598SOL    HW2 1813   0.359   1.832   0.216
  599SOL     OW 1814   0.935   2.098   0.480
  599SOL    HW1 1815   0.887   2.139   0.402
  599SOL    HW2 1816   1.034   2.096   0.461
  600SOL     OW 1817   1.076   2.545   1.464
  600SOL    HW1 1818   0.996   2.484   1.467
  600SOL    HW2 1819   1.157   2.492   1.440
  601SOL     OW 1820   1.227   3.432   0.793
  601SOL    HW1 1821   1.248   3.506   0.728
  601SOL    HW2 1822   1.295   3.432   0.866
  602SOL     OW 1823   0.459   3.014   0.741
  602SOL    HW1 1824   0.388   2.987   0.806
  602SOL    HW2 1825   0.433   2.986   0.648
  603SOL     OW 1826   1.271   3.659   0.591
  603SOL    HW1 1827   1.315   3.723   0.527
  603SOL    HW2 1828   1.221   3.711   0.661
  604SOL     OW 1829   1.032   2.411   0.016
  604SOL    HW1 1830   0.991   2.493  -0.023
  604SOL    HW2 1831   1.096   2.437   0.089
  605SOL     OW 1832   0.078   2.418   1.386
  605SOL    HW1 1833   0.170   2.417   1.345
  605SOL    HW2 1834   0.072   2.492   1.453
  606SOL     OW 1835   0.561   2.084   1.147
  606SOL    HW1 1836   0.599   2.000   1.184
  606SOL    HW2 1837   0.473   2.103   1.191
  607SOL     OW 1838   0.866   2.316   0.642
  607SOL    HW1 1839   0.834   2.388   0.580
  607SOL    HW2 1840   0.890   2.235   0.589
  608SOL     OW 1841   1.017   1.901   0.753
  608SOL    HW1 1842   0.945   1.906   0.684
  608SOL    HW2 1843   0.993   1.832   0.822
  609SOL     OW 1844   1.429   3.035   0.867
  609SOL    HW1 1845   1.374   2.951   0.860
  609SOL    HW2 1846   1.455   3.064   0.775
  610SOL     OW 1847   1.466   2.452   0.992
  610SOL    HW1 1848   1.436   2.357   0.999
  610SOL    HW2 1849   1.539   2.468   1.058
  611SOL     OW 1850   1.857   2.695   0.377
  611SOL    HW1 1851   1.899   2.631   0.441
  611SOL    HW2 1852   1.819   2.644   0.299
  612SOL     OW 1853   0.488   3.247   0.174
  612SOL    HW1 1854   0.401   3.232   0.221
  612SOL    HW2 1855   0.471   3.273   0.079
  613SOL     OW 1856   1.664   3.142   0.657
  613SOL    HW1 1857   1.763   3.150   0.671
  613SOL    HW2 1858   1.619   3.226   0.688
  614SOL     OW 1859   1.390   2.437   0.078
  614SOL    HW1 1860   1.336   2.416   0.159
  614SOL    HW2 1861   1.481   2.396   0.087
  615SOL     OW 1862   0.527   2.118   0.328
  615SOL    HW1 1863   0.554   2.059   0.253
  615SOL    HW2 1864   0.527   2.213   0.297
  616SOL     OW 1865   1.754   3.085   1.588
  616SOL    HW1 1866   1.845   3.046   1.575
  616SOL    HW2 1867   1.762   3.181   1.612
  617SOL     OW 1868   1.064   3.209   1.340
  617SOL    HW1 1869   0.984   3.186   1.395
  617SOL    HW2 1870   1.147   3.183   1.389
  618SOL     OW 1871   1.592   3.491   1.625
  618SOL    HW1 1872   1.619   3.525   1.535
  618SOL    HW2 1873   1.671   3.453   1.671
  619SOL     OW 1874   1.111   3.057   1.100
  619SOL    HW1 1875   1.071   3.101   1.181
  619SOL    HW2 1876   1.070   3.094   1.017
  620SOL     OW 1877   1.638   2.961   1.079
  620SOL    HW1 1878   1.643   3.042   1.138
  620SOL    HW2 1879   1.552   2.963   1.028
  621SOL     OW 1880   0.915   1.951   1.402
  621SOL    HW1 1881   0.940   1.931   1.307
  621SOL    HW2 1882   0.987   2.007   1.444
  622SOL     OW 1883   0.980   2.978   1.719
  622SOL    HW1 1884   0.881   2.984   1.729
  622SOL    HW2 1885   1.003   2.898   1.663
  623SOL     OW 1886   0.705   2.912   0.368
  623SOL    HW1 1887   0.691   2.919   0.467
  623SOL    HW2 1888   0.789   2.861   0.350
  624SOL     OW 1889   0.410   2.675   1.251
  624SOL    HW1 1890   0.496   2.687   1.301
  624SOL    HW2 1891   0.368   2.588   1.278
  625SOL     OW 1892   1.274   2.248   1.262
  625SOL    HW1 1893   1.295   2.322   1.326
  625SOL    HW2 1894   1.185   2.265   1.219
  626SOL     OW 1895   0.064   3.426   1.331
  626SOL    HW1 1896   0.018   3.508   1.297
  626SOL    HW2 1897   0.162   3.445   1.340
  627SOL     OW 1898   0.367   2.962   0.501
  627SOL    HW1 1899   0.360   3.045   0.445
  627SOL    HW2 1900   0.371   2.882   0.441
  628SOL     OW 1901   0.566   2.399   0.865
  628SOL    HW1 1902   0.578   2.465   0.791
  628SOL    HW2 1903   0.612   2.433   0.948
  629SOL     OW 1904   1.252   3.210   0.388
  629SOL    HW1 1905   1.302   3.287   0.428
  629SOL    HW2 1906   1.157   3.212   0.420
  630SOL     OW 1907   1.272   3.307   1.142
  630SOL    HW1 1908   1.319   3.320   1.229
  630SOL    HW2 1909   1.206   3.233   1.151
  631SOL     OW 1910   1.582   2.501   0.472
  631SOL    HW1 1911   1.551   2.562   0.545
  631SOL    HW2 1912   1.632   2.553   0.403
  632SOL     OW 1913   0.354   3.372   1.329
  632SOL    HW1 1914   0.333   3.328   1.242
  632SOL    HW2 1915   0.451   3.398   1.332
  633SOL     OW 1916   0.402   2.613   1.598
  633SOL    HW1 1917   0.470   2.668   1.551
  633SOL    HW2 1918   0.442   2.525   1.625
  634SOL     OW 1919   1.587   2.641   1.670
  634SOL    HW1 1920   1.495   2.679   1.665
  634SOL    HW2 1921   1.647   2.688   1.605
  635SOL     OW 1922   1.013   1.967   1.770
  635SOL    HW1 1923   1.019   2.052   1.718
  635SOL    HW2 1924   1.045   1.891   1.713
  636SOL     OW 1925   0.504   1.912   1.740
  636SOL    HW1 1926   0.462   1.855   1.670
  636SOL    HW2 1927   0.438   1.981   1.772
  637SOL     OW 1928   0.573   2.732   1.029
  637SOL    HW1 1929   0.617   2.821   1.020
  637SOL    HW2 1930   0.510   2.732   1.106
  638SOL     OW 1931   1.360   2.724   1.045
  638SOL    HW1 1932   1.285   2.724   0.979
  638SOL    HW2 1933   1.397   2.632   1.054
  639SOL     OW 1934   1.209   2.387   0.275
  639SOL    HW1 1935   1.222   2.303   0.329
  639SOL    HW2 1936   1.180   2.461   0.335
  640SOL     OW 1937   0.307   2.075   1.231
  640SOL    HW1 1938   0.284   2.112   1.321
  640SOL    HW2 1939   0.277   1.980   1.225
  641SOL     OW 1940   0.037   3.172   1.282
  641SOL    HW1 1941   0.090   3.123   1.350
  641SOL    HW2 1942   0.059   3.270   1.287
  642SOL     OW 1943   0.732   2.496   1.064
  642SOL    HW1 1944   0.791   2.470   0.988
  642SOL    HW2 1945   0.704   2.592   1.053
  643SOL     OW 1946   1.728   2.797   1.854
  643SOL    HW1 1947   1.682   2.790   1.765
  643SOL    HW2 1948   1.666   2.841   1.920
  644SOL     OW 1949   0.307   1.925   0.618
  644SOL    HW1 1950   0.296   2.019   0.651
  644SOL    HW2 1951   0.302   1.862   0.695
  645SOL     OW 1952   1.622   2.229   0.374
  645SOL    HW1 1953   1.624   2.153   0.438
  645SOL    HW2 1954   1.574   2.306   0.414
  646SOL     OW 1955   1.023   2.628   0.966
  646SOL    HW1 1956   1.038   2.649   1.062
  646SOL    HW2 1957   0.993   2.533   0.957
  647SOL     OW 1958   0.980   3.435   1.700
  647SOL    HW1 1959   0.960   3.479   1.612
  647SOL    HW2 1960   1.019   3.344   1.684
  648SOL     OW 1961   1.859   3.380   1.605
  648SOL    HW1 1962   1.873   3.407   1.510
  648SOL    HW2 1963   1.942   3.402   1.658
  649SOL     OW 1964   0.350   2.760   1.804
  649SOL    HW1 1965   0.426   2.804   1.852
  649SOL    HW2 1966   0.385   2.713   1.722
  650SOL     OW 1967   1.540   2.136   0.125
  650SOL    HW1 1968   1.479   2.061   0.148
  650SOL    HW2 1969   1.562   2.188   0.208
  651SOL     OW 1970   1.303   2.700   0.042
  651SOL    HW1 1971   1.337   2.607   0.057
  651SOL    HW2 1972   1.321   2.727  -0.053
  652SOL     OW 1973   1.068   3.195   0.849
  652SOL    HW1 1974   1.075   3.111   0.794
  652SOL    HW2 1975   1.130   3.264   0.813
  653SOL     OW 1976   0.319   2.672   0.949
  653SOL    HW1 1977   0.412   2.708   0.954
  653SOL    HW2 1978   0.313   2.587   1.001
  654SOL     OW 1979   0.339   2.371   1.006
  654SOL    HW1 1980   0.287   2.288   0.989
  654SOL    HW2 1981   0.416   2.376   0.942
  655SOL     OW 1982   1.138   2.242   1.678
  655SOL    HW1 1983   1.093   2.305   1.742
  655SOL    HW2 1984   1.231   2.273   1.661
  656SOL     OW 1985   1.160   2.069   1.477
  656SOL    HW1 1986   1.160   2.133   1.554
  656SOL    HW2 1987   1.188   2.117   1.394
  657SOL     OW 1988   0.008   3.188   0.200
  657SOL    HW1 1989  -0.085   3.209   0.169
  657SOL    HW2 1990   0.018   3.089   0.213
  658SOL     OW 1991   0.088   3.663   0.927
  658SOL    HW1 1992   0.046   3.577   0.900
  658SOL    HW2 1993   0.182   3.666   0.893
  659SOL     OW 1994   0.504   3.430   0.910
  659SOL    HW1 1995   0.570   3.504   0.919
  659SOL    HW2 1996   0.548   3.351   0.868
  660SOL     OW 1997   1.002   2.658   1.238
  660SOL    HW1 1998   1.043   2.626   1.324
  660SOL    HW2 1999   0.906   2.631   1.235
  661SOL     OW 2000   0.040   2.406   1.114
  661SOL    HW1 2001   0.125   2.373   1.073
  661SOL    HW2 2002   0.053   2.421   1.212
  662SOL     OW 2003   0.189   2.382   1.722
  662SOL    HW1 2004   0.248   2.342   1.652
  662SOL    HW2 2005   0.131   2.453   1.681
  663SOL     OW 2006   1.369   2.812   1.660
  663SOL    HW1 2007   1.408   2.901   1.680
  663SOL    HW2 2008   1.379   2.792   1.563
  664SOL     OW 2009   0.815   2.434   0.325
  664SOL    HW1 2010   0.822   2.345   0.279
  664SOL    HW2 2011   0.721   2.468   0.317
  665SOL     OW 2012   1.657   2.466   1.206
  665SOL    HW1 2013   1.619   2.397   1.268
  665SOL    HW2 2014   1.739   2.430   1.162
  666SOL     OW 2015   0.252   3.426   1.744
  666SOL    HW1 2016   0.222   3.483   1.820
  666SOL    HW2 2017   0.245   3.329   1.770
  667SOL     OW 2018   0.671   2.326   1.269
  667SOL    HW1 2019   0.637   2.237   1.239
  667SOL    HW2 2020   0.697   2.380   1.189
  668SOL     OW 2021   0.930   3.540   1.465
  668SOL    HW1 2022   0.906   3.522   1.370
  668SOL    HW2 2023   0.960   3.634   1.475
  669SOL     OW 2024   0.473   2.362   0.191
  669SOL    HW1 2025   0.534   2.442   0.195
  669SOL    HW2 2026   0.378   2.393   0.198
  670SOL     OW 2027   0.159   2.999   1.466
  670SOL    HW1 2028   0.181   2.938   1.542
  670SOL    HW2 2029   0.169   2.950   1.380
  671SOL     OW 2030   1.347   2.921   1.234
  671SOL    HW1 2031   1.371   2.858   1.160
  671SOL    HW2 2032   1.257   2.961   1.216
  672SOL     OW 2033   1.302   2.717   0.309
  672SOL    HW1 2034   1.216   2.686   0.351
  672SOL    HW2 2035   1.298   2.703   0.210
  673SOL     OW 2036   1.759   3.609   1.154
  673SOL    HW1 2037   1.820   3.639   1.081
  673SOL    HW2 2038   1.721   3.520   1.132
  674SOL     OW 2039   1.252   3.593   1.128
  674SOL    HW1 2040   1.336   3.598   1.074
  674SOL    HW2 2041   1.229   3.497   1.146
  675SOL     OW 2042   0.083   3.120   1.022
  675SOL    HW1 2043   0.078   3.119   1.122
  675SOL    HW2 2044   0.000   3.079   0.984
  676SOL     OW 2045   0.688   3.524   1.716
  676SOL    HW1 2046   0.632   3.605   1.725
  676SOL    HW2 2047   0.740   3.528   1.630
  677SOL     OW 2048   0.903   1.948   0.133
  677SOL    HW1 2049   0.954   1.949   0.047
  677SOL    HW2 2050   0.959   1.906   0.204
  678SOL     OW 2051   1.726   1.997   0.523
  678SOL    HW1 2052   1.799   1.980   0.456
  678SOL    HW2 2053   1.695   1.910   0.561
  679SOL     OW 2054   1.388   3.435   0.477
  679SOL    HW1 2055   1.455   3.447   0.403
  679SOL    HW2 2056   1.348   3.524   0.500
  680SOL     OW 2057   0.130   3.656   1.851
  680SOL    HW1 2058   0.089   3.582   1.904
  680SOL    HW2 2059   0.194   3.707   1.909
  681SOL     OW 2060   1.280   2.789   0.672
  681SOL    HW1 2061   1.340   2.708   0.674
  681SOL    HW2 2062   1.320   2.858   0.612
  682SOL     OW 2063   0.830   3.135   1.422
  682SOL    HW1 2064   0.825   3.168   1.517
  682SOL    HW2 2065   0.744   3.154   1.376
  683SOL     OW 2066   0.672   3.478   0.154
  683SOL    HW1 2067   0.681   3.488   0.055
  683SOL    HW2 2068   0.632   3.389   0.175
  684SOL     OW 2069   1.650   3.582   1.394
  684SOL    HW1 2070   1.703   3.592   1.310
  684SOL    HW2 2071   1.623   3.672   1.428
  685SOL     OW 2072   1.841   2.037   0.963
  685SOL    HW1 2073   1.880   1.952   0.927
  685SOL    HW2 2074   1.743   2.039   0.944
  686SOL     OW 2075   0.263   2.188   0.720
  686SOL    HW1 2076   0.184   2.239   0.686
  686SOL    HW2 2077   0.254   2.173   0.818
  687SOL     OW 2078   1.194   3.474   0.031
  687SOL    HW1 2079   1.200   3.381   0.068
  687SOL    HW2 2080   1.135   3.474  -0.049
  688SOL     OW 2081   0.822   2.864   1.372
  688SOL    HW1 2082   0.862   2.863   1.280
  688SOL    HW2 2083   0.832   2.956   1.412
  689SOL     OW 2084   0.916   2.772   0.291
  689SOL    HW1 2085   0.979   2.810   0.223
  689SOL    HW2 2086   0.956   2.689   0.330
  690SOL     OW 2087   1.504   3.469   0.044
  690SOL    HW1 2088   1.412   3.506   0.051
  690SOL    HW2 2089   1.542   3.489  -0.046
  691SOL     OW 2090   0.372   3.150   1.490
  691SOL    HW1 2091   0.359   3.243   1.456
  691SOL    HW2 2092   0.288   3.098   1.477
  692SOL     OW 2093   1.614   3.154   1.289
  692SOL    HW1 2094   1.674   3.157   1.369
  692SOL    HW2 2095   1.539   3.218   1.302
  693SOL     OW 2096   1.039   2.960   0.696
  693SOL    HW1 2097   0.969   2.913   0.750
  693SOL    HW2 2098   1.098   2.892   0.653
  694SOL     OW 2099   1.014   2.098   0.971
  694SOL    HW1 2100   1.006   2.062   0.878
  694SOL    HW2 2101   1.012   2.022   1.036
  695SOL     OW 2102   0.590   3.349   0.491
  695SOL    HW1 2103   0.632   3.291   0.421
  695SOL    HW2 2104   0.546   3.428   0.447
  696SOL     OW 2105   1.709   2.247   1.381
  696SOL    HW1 2106   1.782   2.316   1.385
  696SOL    HW2 2107   1.737   2.172   1.322
  697SOL     OW 2108   0.255   3.210   0.290
  697SOL    HW1 2109   0.159   3.211   0.263
  697SOL    HW2 2110   0.267   3.263   0.374
  698SOL     OW 2111   0.105   2.875   1.726
  698SOL    HW1 2112   0.028   2.842   1.780
  698SOL    HW2 2113   0.190   2.845   1.768
  699SOL     OW 2114   0.672   2.065   1.489
  699SOL    HW1 2115   0.762   2.049   1.449
  699SOL    HW2 2116   0.680   2.070   1.588
  700SOL     OW 2117   0.075   2.207   0.033
  700SOL    HW1 2118  -0.017   2.179   0.004
  700SOL    HW2 2119   0.106   2.284  -0.023
  701SOL     OW 2120   1.440   2.718   1.398
  701SOL    HW1 2121   1.383   2.770   1.335
  701SOL    HW2 2122   1.536   2.730   1.374
  702SOL     OW 2123   0.072   2.028   0.318
  702SOL    HW1 2124   0.055   2.111   0.264
  702SOL    HW2 2125   0.162   1.991   0.296
  703SOL     OW 2126   1.183   3.197   0.119
  703SOL    HW1 2127   1.084   3.186   0.121
  703SOL    HW2 2128   1.217   3.212   0.212
  704SOL     OW 2129   0.613   2.704   1.431
  704SOL    HW1 2130   0.669   2.785   1.414
  704SOL    HW2 2131   0.672   2.624   1.434
  705SOL     OW 2132   1.493   3.629   0.959
  705SOL    HW1 2133   1.526   3.693   0.890
  705SOL    HW2 2134   1.559   3.623   1.034
  706SOL     OW 2135   0.716   2.427   1.708
  706SOL    HW1 2136   0.735   2.492   1.782
  706SOL    HW2 2137   0.776   2.347   1.717
  707SOL     OW 2138   1.450   3.082   1.633
  707SOL    HW1 2139   1.441   3.072   1.732
  707SOL    HW2 2140   1.546   3.075   1.607
  708SOL     OW 2141   0.390   3.603   1.560
  708SOL    HW1 2142   0.299   3.644   1.558
  708SOL    HW2 2143   0.383   3.509   1.592
  709SOL     OW 2144   1.674   2.745   1.254
  709SOL    HW1 2145   1.647   2.656   1.217
  709SOL    HW2 2146   1.675   2.813   1.181
  710SOL     OW 2147   1.225   2.187   0.449
  710SOL    HW1 2148   1.290   2.113   0.438
  710SOL    HW2 2149   1.245   2.237   0.533
  711SOL     OW 2150   0.594   2.607   0.652
  711SOL    HW1 2151   0.644   2.692   0.633
  711SOL    HW2 2152   0.506   2.609   0.604
  712SOL     OW 2153   1.777   2.204   1.642
  712SOL    HW1 2154   1.760   2.235   1.548
  712SOL    HW2 2155   1.693   2.167   1.680
  713SOL     OW 2156   1.730   2.796   1.517
  713SOL    HW1 2157   1.768   2.887   1.532
  713SOL    HW2 2158   1.722   2.779   1.418
  714SOL     OW 2159   0.859   3.236   0.016
  714SOL    HW1 2160   0.813   3.251   0.104
  714SOL    HW2 2161   0.903   3.321  -0.014
  715SOL     OW 2162   0.661   3.652   0.953
  715SOL    HW1 2163   0.615   3.740   0.940
  715SOL    HW2 2164   0.760   3.664   0.946
  716SOL     OW 2165   0.859   2.818   0.861
  716SOL    HW1 2166   0.913   2.749   0.909
  716SOL    HW2 2167   0.827   2.887   0.927
  717SOL     OW 2168   1.083   2.846   0.087
  717SOL    HW1 2169   1.060   2.899   0.005
  717SOL    HW2 2170   1.164   2.790   0.068
  718SOL     OW 2171   1.861   3.431   0.851
  718SOL    HW1 2172   1.790   3.419   0.781
  718SOL    HW2 2173   1.862   3.352   0.911
  719SOL     OW 2174   0.221   3.176   1.844
  719SOL    HW1 2175   0.156   3.103   1.823
  719SOL    HW2 2176   0.225   3.190   1.942
  720SOL     OW 2177   0.079   3.102   0.653
  720SOL    HW1 2178   0.078   3.055   0.741
  720SOL    HW2 2179   0.161   3.074   0.602
  721SOL     OW 2180   0.672   3.253   1.624
  721SOL    HW1 2181   0.594   3.203   1.662
  721SOL    HW2 2182   0.669   3.348   1.655
  722SOL     OW 2183   1.824   2.054   1.227
  722SOL    HW1 2184   1.820   1.964   1.271
  722SOL    HW2 2185   1.827   2.043   1.128
  723SOL     OW 2186   0.428   2.286   0.520
  723SOL    HW1 2187   0.458   2.214   0.458
  723SOL    HW2 2188   0.389   2.246   0.603
  724SOL     OW 2189   1.705   3.349   1.104
  724SOL    HW1 2190   1.612   3.324   1.077
  724SOL    HW2 2191   1.731   3.299   1.186
  725SOL     OW 2192   0.317   2.409   1.280
  725SOL    HW1 2193   0.355   2.350   1.352
  725SOL    HW2 2194   0.357   2.383   1.192
  726SOL     OW 2195   0.812   3.448   0.687
  726SOL    HW1 2196   0.844   3.458   0.593
  726SOL    HW2 2197   0.733   3.386   0.689
  727SOL     OW 2198   1.424   2.076   1.112
  727SOL    HW1 2199   1.476   2.011   1.167
  727SOL    HW2 2200   1.375   2.139   1.173
  728SOL     OW 2201   1.001   1.896   1.154
  728SOL    HW1 2202   0.938   1.824   1.123
  728SOL    HW2 2203   1.094   1.860   1.154
  729SOL     OW 2204   0.770   3.192   0.301
  729SOL    HW1 2205   0.724   3.105   0.318
  729SOL    HW2 2206   0.861   3.189   0.342
  730SOL     OW 2207   0.618   3.429   1.284
  730SOL    HW1 2208   0.613   3.511   1.341
  730SOL    HW2 2209   0.707   3.426   1.239
  731SOL     OW 2210   1.352   1.914   0.168
  731SOL    HW1 2211   1.387   1.873   0.084
  731SOL    HW2 2212   1.262   1.876   0.188
  732SOL     OW 2213   1.300   2.315   0.691
  732SOL    HW1 2214   1.241   2.395   0.695
  732SOL    HW2 2215   1.315   2.280   0.784
  733SOL     OW 2216   1.593   2.083   0.882
  733SOL    HW1 2217   1.509   2.082   0.936
  733SOL    HW2 2218   1.595   2.166   0.826
  734SOL     OW 2219   0.039   2.939   0.300
  734SOL    HW1 2220   0.138   2.928   0.291
  734SOL    HW2 2221  -0.001   2.853   0.332
  735SOL     OW 2222   0.875   3.508   0.337
  735SOL    HW1 2223   0.798   3.473   0.283
  735SOL    HW2 2224   0.843   3.579   0.399
  736SOL     OW 2225   0.230   2.490   1.975
  736SOL    HW1 2226   0.137   2.488   2.012
  736SOL    HW2 2227   0.231   2.451   1.883
  737SOL     OW 2228   0.225   2.137   2.858
  737SOL    HW1 2229   0.260   2.120   2.950
  737SOL    HW2 2230   0.137   2.092   2.846
  738SOL     OW 2231   0.019   2.230   2.509
  738SOL    HW1 2232  -0.063   2.273   2.548
  738SOL    HW2 2233  -0.009   2.157   2.446
  739SOL     OW 2234   0.569   3.137   3.027
  739SOL    HW1 2235   0.476   3.130   2.990
  739SOL    HW2 2236   0.580   3.226   3.071
  740SOL     OW 2237   1.555   3.373   2.565
  740SOL    HW1 2238   1.498   3.357   2.646
  740SOL    HW2 2239   1.496   3.383   2.485
  741SOL     OW 2240   1.135   2.565   2.579
  741SOL    HW1 2241   1.192   2.643   2.554
  741SOL    HW2 2242   1.075   2.591   2.655
  742SOL     OW 2243   1.755   2.469   2.093
  742SOL    HW1 2244   1.743   2.456   1.994
  742SOL    HW2 2245   1.725   2.388   2.142
  743SOL     OW 2246   0.768   3.006   2.885
  743SOL    HW1 2247   0.690   3.023   2.945
  743SOL    HW2 2248   0.802   3.093   2.849
  744SOL     OW 2249   0.850   2.660   3.685
  744SOL    HW1 2250   0.846   2.736   3.750
  744SOL    HW2 2251   0.872   2.696   3.594
  745SOL     OW 2252   0.685   2.874   2.527
  745SOL    HW1 2253   0.754   2.858   2.597
  745SOL    HW2 2254   0.612   2.931   2.565
  746SOL     OW 2255   0.686   3.023   3.665
  746SOL    HW1 2256   0.746   3.102   3.679
  746SOL    HW2 2257   0.600   3.054   3.624
  747SOL     OW 2258   0.335   3.297   2.923
  747SOL    HW1 2259   0.257   3.266   2.870
  747SOL    HW2 2260   0.393   3.355   2.866
  748SOL     OW 2261   1.460   3.367   3.201
  748SOL    HW1 2262   1.484   3.461   3.227
  748SOL    HW2 2263   1.444   3.313   3.283
  749SOL     OW 2264   0.438   2.254   3.361
  749SOL    HW1 2265   0.520   2.198   3.370
  749SOL    HW2 2266   0.357   2.196   3.365
  750SOL     OW 2267   1.603   2.309   2.599
  750SOL    HW1 2268   1.529   2.355   2.549
  750SOL    HW2 2269   1.654   2.377   2.652
  751SOL     OW 2270   0.231   3.575   2.345
  751SOL    HW1 2271   0.265   3.652   2.399
  751SOL    HW2 2272   0.275   3.575   2.255
  752SOL     OW 2273   1.127   3.203   3.552
  752SOL    HW1 2274   1.174   3.203   3.640
  752SOL    HW2 2275   1.079   3.116   3.541
  753SOL     OW 2276   0.230   3.296   2.400
  753SOL    HW1 2277   0.204   3.392   2.400
  753SOL    HW2 2278   0.159   3.242   2.445
  754SOL     OW 2279   0.240   2.953   2.748
  754SOL    HW1 2280   0.254   2.869   2.800
  754SOL    HW2 2281   0.185   3.017   2.803
  755SOL     OW 2282   0.620   3.648   3.301
  755SOL    HW1 2283   0.528   3.631   3.336
  755SOL    HW2 2284   0.648   3.740   3.327
  756SOL     OW 2285   0.606   2.826   1.985
  756SOL    HW1 2286   0.613   2.910   1.931
  756SOL    HW2 2287   0.652   2.839   2.073
  757SOL     OW 2288   1.594   1.976   3.342
  757SOL    HW1 2289   1.576   2.043   3.270
  757SOL    HW2 2290   1.591   2.022   3.431
  758SOL     OW 2291   0.122   2.505   2.425
  758SOL    HW1 2292   0.077   2.417   2.442
  758SOL    HW2 2293   0.121   2.559   2.509
  759SOL     OW 2294   1.842   3.629   2.221
  759SOL    HW1 2295   1.896   3.600   2.301
  759SOL    HW2 2296   1.872   3.719   2.192
  760SOL     OW 2297   0.027   3.458   1.979
  760SOL    HW1 2298   0.008   3.362   2.000
  760SOL    HW2 2299  -0.006   3.516   2.054
  761SOL     OW 2300   1.689   2.784   2.474
  761SOL    HW1 2301   1.784   2.755   2.482
  761SOL    HW2 2302   1.681   2.849   2.399
  762SOL     OW 2303   1.641   2.970   2.294
  762SOL    HW1 2304   1.727   2.972   2.242
  762SOL    HW2 2305   1.655   3.017   2.382
  763SOL     OW 2306   0.113   2.599   3.459
  763SOL    HW1 2307   0.201   2.586   3.504
  763SOL    HW2 2308   0.100   2.696   3.437
  764SOL     OW 2309   0.613   3.227   2.588
  764SOL    HW1 2310   0.564   3.140   2.597
  764SOL    HW2 2311   0.590   3.270   2.501
  765SOL     OW 2312   1.293   3.090   3.285
  765SOL    HW1 2313   1.330   3.017   3.227
  765SOL    HW2 2314   1.345   3.095   3.370
  766SOL     OW 2315   0.809   1.866   2.364
  766SOL    HW1 2316   0.849   1.957   2.355
  766SOL    HW2 2317   0.709   1.874   2.370
  767SOL     OW 2318   0.197   2.838   3.126
  767SOL    HW1 2319   0.286   2.793   3.112
  767SOL    HW2 2320   0.124   2.773   3.107
  768SOL     OW 2321   1.525   2.861   2.052
  768SOL    HW1 2322   1.462   2.785   2.065
  768SOL    HW2 2323   1.573   2.879   2.138
  769SOL     OW 2324   1.187   3.654   3.478
  769SOL    HW1 2325   1.211   3.714   3.402
  769SOL    HW2 2326   1.194   3.559   3.448
  770SOL     OW 2327   0.317   2.113   3.663
  770SOL    HW1 2328   0.388   2.184   3.669
  770SOL    HW2 2329   0.229   2.152   3.691
  771SOL     OW 2330   1.466   3.279   2.815
  771SOL    HW1 2331   1.407   3.285   2.895
  771SOL    HW2 2332   1.451   3.191   2.769
  772SOL     OW 2333   1.667   3.576   2.434
  772SOL    HW1 2334   1.626   3.553   2.346
  772SOL    HW2 2335   1.649   3.502   2.499
  773SOL     OW 2336   0.598   2.591   2.132
  773SOL    HW1 2337   0.622   2.660   2.064
  773SOL    HW2 2338   0.520   2.624   2.186
  774SOL     OW 2339   1.281   2.207   2.806
  774SOL    HW1 2340   1.195   2.157   2.793
  774SOL    HW2 2341   1.343   2.153   2.862
  775SOL     OW 2342   1.576   3.524   2.169
  775SOL    HW1 2343   1.665   3.570   2.172
  775SOL    HW2 2344   1.555   3.500   2.074
  776SOL     OW 2345   0.807   2.467   3.327
  776SOL    HW1 2346   0.760   2.464   3.416
  776SOL    HW2 2347   0.756   2.412   3.261
  777SOL     OW 2348   1.394   2.331   3.536
  777SOL    HW1 2349   1.374   2.374   3.624
  777SOL    HW2 2350   1.472   2.269   3.545
  778SOL     OW 2351   0.973   2.752   3.434
  778SOL    HW1 2352   1.019   2.668   3.405
  778SOL    HW2 2353   0.917   2.786   3.359
  779SOL     OW 2354   0.991   2.272   3.104
  779SOL    HW1 2355   0.914   2.306   3.158
  779SOL    HW2 2356   0.957   2.221   3.025
  780SOL     OW 2357   1.041   2.563   2.291
  780SOL    HW1 2358   1.067   2.559   2.387
  780SOL    HW2 2359   0.956   2.512   2.277
  781SOL     OW 2360   0.076   2.673   2.651
  781SOL    HW1 2361   0.175   2.661   2.660
  781SOL    HW2 2362   0.052   2.768   2.672
  782SOL     OW 2363   0.130   3.683   3.433
  782SOL    HW1 2364   0.120   3.668   3.532
  782SOL    HW2 2365   0.044   3.719   3.397
  783SOL     OW 2366   0.865   2.210   2.057
  783SOL    HW1 2367   0.924   2.273   2.008
  783SOL    HW2 2368   0.884   2.116   2.028
  784SOL     OW 2369   1.719   2.447   3.693
  784SOL    HW1 2370   1.693   2.536   3.657
  784SOL    HW2 2371   1.717   2.379   3.620
  785SOL     OW 2372   1.362   3.006   2.407
  785SOL    HW1 2373   1.445   2.977   2.359
  785SOL    HW2 2374   1.313   3.073   2.351
  786SOL     OW 2375   0.550   2.058   2.747
  786SOL    HW1 2376   0.545   2.053   2.847
  786SOL    HW2 2377   0.552   2.154   2.718
  787SOL     OW 2378   1.008   3.318   2.339
  787SOL    HW1 2379   0.962   3.390   2.287
  787SOL    HW2 2380   1.004   3.338   2.437
  788SOL     OW 2381   0.351   3.663   2.715
  788SOL    HW1 2382   0.401   3.577   2.721
  788SOL    HW2 2383   0.416   3.740   2.712
  789SOL     OW 2384   1.795   2.928   2.735
  789SOL    HW1 2385   1.733   2.913   2.659
  789SOL    HW2 2386   1.743   2.939   2.820
  790SOL     OW 2387   1.227   3.412   3.368
  790SOL    HW1 2388   1.233   3.335   3.432
  790SOL    HW2 2389   1.175   3.386   3.288
  791SOL     OW 2390   0.321   2.805   2.104
  791SOL    HW1 2391   0.403   2.844   2.062
  791SOL    HW2 2392   0.294   2.723   2.055
  792SOL     OW 2393   1.458   2.597   2.590
  792SOL    HW1 2394   1.453   2.532   2.665
  792SOL    HW2 2395   1.538   2.656   2.603
  793SOL     OW 2396   0.461   3.128   3.589
  793SOL    HW1 2397   0.411   3.129   3.503
  793SOL    HW2 2398   0.398   3.110   3.665
  794SOL     OW 2399   1.111   3.638   2.099
  794SOL    HW1 2400   1.051   3.576   2.149
  794SOL    HW2 2401   1.142   3.594   2.014
  795SOL     OW 2402   0.202   2.147   3.360
  795SOL    HW1 2403   0.122   2.207   3.347
  795SOL    HW2 2404   0.192   2.098   3.446
  796SOL     OW 2405   1.632   3.239   1.943
  796SOL    HW1 2406   1.600   3.333   1.933
  796SOL    HW2 2407   1.556   3.176   1.931
  797SOL     OW 2408   0.464   3.605   2.185
  797SOL    HW1 2409   0.497   3.644   2.271
  797SOL    HW2 2410   0.540   3.598   2.120
  798SOL     OW 2411   1.400   1.969   2.288
  798SOL    HW1 2412   1.376   1.932   2.198
  798SOL    HW2 2413   1.499   1.985   2.292
  799SOL     OW 2414   0.249   3.647   3.103
  799SOL    HW1 2415   0.306   3.582   3.153
  799SOL    HW2 2416   0.233   3.614   3.010
  800SOL     OW 2417   0.940   3.560   2.766
  800SOL    HW1 2418   1.020   3.503   2.787
  800SOL    HW2 2419   0.891   3.520   2.689
  801SOL     OW 2420   0.382   2.562   2.342
  801SOL    HW1 2421   0.427   2.472   2.339
  801SOL    HW2 2422   0.288   2.551   2.375
  802SOL     OW 2423   1.547   2.084   3.591
  802SOL    HW1 2424   1.542   2.121   3.683
  802SOL    HW2 2425   1.475   2.015   3.579
  803SOL     OW 2426   0.614   1.984   1.979
  803SOL    HW1 2427   0.712   1.962   1.986
  803SOL    HW2 2428   0.583   1.967   1.886
  804SOL     OW 2429   0.781   2.126   3.611
  804SOL    HW1 2430   0.848   2.065   3.654
  804SOL    HW2 2431   0.708   2.145   3.676
  805SOL     OW 2432   0.888   3.376   3.057
  805SOL    HW1 2433   0.865   3.351   2.963
  805SOL    HW2 2434   0.949   3.307   3.096
  806SOL     OW 2435   1.351   2.452   3.295
  806SOL    HW1 2436   1.379   2.409   3.380
  806SOL    HW2 2437   1.376   2.548   3.296
  807SOL     OW 2438   0.803   3.264   2.786
  807SOL    HW1 2439   0.893   3.278   2.744
  807SOL    HW2 2440   0.732   3.266   2.715
  808SOL     OW 2441   0.922   2.365   2.761
  808SOL    HW1 2442   0.897   2.356   2.665
  808SOL    HW2 2443   0.970   2.283   2.792
  809SOL     OW 2444   0.539   1.926   2.374
  809SOL    HW1 2445   0.458   1.927   2.432
  809SOL    HW2 2446   0.542   2.009   2.319
  810SOL     OW 2447   1.434   3.050   1.903
  810SOL    HW1 2448   1.466   2.974   1.960
  810SOL    HW2 2449   1.342   3.077   1.933
  811SOL     OW 2450   0.297   1.897   2.033
  811SOL    HW1 2451   0.346   1.981   2.012
  811SOL    HW2 2452   0.359   1.832   2.078
  812SOL     OW 2453   0.935   2.098   2.342
  812SOL    HW1 2454   0.887   2.139   2.264
  812SOL    HW2 2455   1.034   2.096   2.323
  813SOL     OW 2456   1.076   2.545   3.326
  813SOL    HW1 2457   0.996   2.484   3.329
  813SOL    HW2 2458   1.157   2.492   3.302
  814SOL     OW 2459   1.227   3.432   2.655
  814SOL    HW1 2460   1.248   3.506   2.590
  814SOL    HW2 2461   1.295   3.432   2.728
  815SOL     OW 2462   0.459   3.014   2.603
  815SOL    HW1 2463   0.388   2.987   2.668
  815SOL    HW2 2464   0.433   2.986   2.510
  816SOL     OW 2465   1.271   3.659   2.453
  816SOL    HW1 2466   1.315   3.723   2.389
  816SOL    HW2 2467   1.221   3.711   2.523
  817SOL     OW 2468   1.032   2.411   1.878
  817SOL    HW1 2469   0.991   2.493   1.839
  817SOL    HW2 2470   1.096   2.437   1.951
  818SOL     OW 2471   0.078   2.418   3.248
  818SOL    HW1 2472   0.170   2.417   3.207
  818SOL    HW2 2473   0.072   2.492   3.315
  819SOL     OW 2474   0.561   2.084   3.009
  819SOL    HW1 2475   0.599   2.000   3.046
  819SOL    HW2 2476   0.473   2.103   3.053
  820SOL     OW 2477   0.866   2.316   2.504
  820SOL    HW1 2478   0.834   2.388   2.442
  820SOL    HW2 2479   0.890   2.235   2.451
  821SOL     OW 2480   1.017   1.901   2.615
  821SOL    HW1 2481   0.945   1.906   2.546
  821SOL    HW2 2482   0.993   1.832   2.684
  822SOL     OW 2483   1.429   3.035   2.729
  822SOL    HW1 2484   1.374   2.951   2.722
  822SOL    HW2 2485   1.455   3.064   2.637
  823SOL     OW 2486   1.466   2.452   2.854
  823SOL    HW1 2487   1.436   2.357   2.861
  823SOL    HW2 2488   1.539   2.468   2.920
  824SOL     OW 2489   1.857   2.695   2.239
  824SOL    HW1 2490   1.899   2.631   2.303
  824SOL    HW2 2491   1.819   2.644   2.161
  825SOL     OW 2492   0.488   3.247   2.036
  825SOL    HW1 2493   0.401   3.232   2.083
  825SOL    HW2 2494   0.471   3.273   1.941
  826SOL     OW 2495   1.664   3.142   2.519
  826SOL    HW1 2496   1.763   3.150   2.533
  826SOL    HW2 2497   1.619   3.226   2.550
  827SOL     OW 2498   1.390   2.437   1.940
  827SOL    HW1 2499   1.336   2.416   2.021
  827SOL    HW2 2500   1.481   2.396   1.949
  828SOL     OW 2501   0.527   2.118   2.190
  828SOL    HW1 2502   0.554   2.059   2.115
  828SOL    HW2 2503   0.527   2.213   2.159
  829SOL     OW 2504   1.754   3.085   3.450
  829SOL    HW1 2505   1.845   3.046   3.437
  829SOL    HW2 2506   1.762   3.181   3.474
  830SOL     OW 2507   1.064   3.209   3.202
  830SOL    HW1 2508   0.984   3.186   3.257
  830SOL    HW2 2509   1.147   3.183   3.251
  831SOL     OW 2510   1.592   3.491   3.487
  831SOL    HW1 2511   1.619   3.525   3.397
  831SOL    HW2 2512   1.671   3.453   3.533
  832SOL     OW 2513   1.111   3.057   2.962
  832SOL    HW1 2514   1.071   3.101   3.043
  832SOL    HW2 2515   1.070   3.094   2.879
  833SOL     OW 2516   1.638   2.961   2.941
  833SOL    HW1 2517   1.643   3.042   3.000
  833SOL    HW2 2518   1.552   2.963   2.890
  834SOL     OW 2519   0.915   1.951   3.264
  834SOL    HW1 2520   0.940   1.931   3.169
  834SOL    HW2 2521   0.987   2.007   3.306
  835SOL     OW 2522   0.980   2.978   3.581
  835SOL    HW1 2523   0.881   2.984   3.591
  835SOL    HW2 2524   1.003   2.898   3.525
  836SOL     OW 2525   0.705   2.912   2.230
  836SOL    HW1 2526   0.691   2.919   2.329
  836SOL    HW2 2527   0.789   2.861   2.212
  837SOL     OW 2528   0.410   2.675   3.113
  837SOL    HW1 2529   0.496   2.687   3.163
  837SOL    HW2 2530   0.368   2.588   3.140
  838SOL     OW 2531   1.274   2.248   3.124
  838SOL    HW1 2532   1.295   2.322   3.188
  838SOL    HW2 2533   1.185   2.265   3.081
  839SOL     OW 2534   0.064   3.426   3.193
  839SOL    HW1 2535   0.018   3.508   3.159
  839SOL    HW2 2536   0.162   3.445   3.202
  840SOL     OW 2537   0.367   2.962   2.363
  840SOL    HW1 2538   0.360   3.045   2.307
  840SOL    HW2 2539   0.371   2.882   2.303
  841SOL     OW 2540   0.566   2.399   2.727
  841SOL    HW1 2541   0.578   2.465   2.653
  841SOL    HW2 2542   0.612   2.433   2.810
  842SOL     OW 2543   1.252   3.210   2.250
  842SOL    HW1 2544   1.302   3.287   2.290
  842SOL    HW2 2545   1.157   3.212   2.282
  843SOL     OW 2546   1.272   3.307   3.004
  843SOL    HW1 2547   1.319   3.320   3.091
  843SOL    HW2 2548   1.206   3.233   3.013
  844SOL     OW 2549   1.582   2.501   2.334
  844SOL    HW1 2550   1.551   2.562   2.407
  844SOL    HW2 2551   1.632   2.553   2.265
  845SOL     OW 2552   0.354   3.372   3.191
  845SOL    HW1 2553   0.333   3.328   3.104
  845SOL    HW2 2554   0.451   3.398   3.194
  846SOL     OW 2555   0.402   2.613   3.460
  846SOL    HW1 2556   0.470   2.668   3.413
  846SOL    HW2 2557   0.442   2.525   3.487
  847SOL     OW 2558   1.587   2.641   3.532
  847SOL    HW1 2559   1.495   2.679   3.527
  847SOL    HW2 2560   1.647   2.688   3.467
  848SOL     OW 2561   1.013   1.967   3.632
  848SOL    HW1 2562   1.019   2.052   3.580
  848SOL    HW2 2563   1.045   1.891   3.575
  849SOL     OW 2564   0.504   1.912   3.602
  849SOL    HW1 2565   0.462   1.855   3.532
  849SOL    HW2 2566   0.438   1.981   3.634
  850SOL     OW 2567   0.573   2.732   2.891
  850SOL    HW1 2568   0.617   2.821   2.882
  850SOL    HW2 2569   0.510   2.732   2.968
  851SOL     OW 2570   1.360   2.724   2.907
  851SOL    HW1 2571   1.285   2.724   2.841
  851SOL    HW2 2572   1.397   2.632   2.916
  852SOL     OW 2573   1.209   2.387   2.137
  852SOL    HW1 2574   1.222   2.303   2.191
  852SOL    HW2 2575   1.180   2.461   2.197
  853SOL     OW 2576   0.307   2.075   3.093
  853SOL    HW1 2577   0.284   2.112   3.183
  853SOL    HW2 2578   0.277   1.980   3.087
  854SOL     OW 2579   0.037   3.172   3.144
  854SOL    HW1 2580   0.090   3.123   3.212
  854SOL    HW2 2581   0.059   3.270   3.149
  855SOL     OW 2582   0.732   2.496   2.926
  855SOL    HW1 2583   0.791   2.470   2.850
  855SOL    HW2 2584   0.704   2.592   2.915
  856SOL     OW 2585   1.728   2.797   3.716
  856SOL    HW1 2586   1.682   2.790   3.627
  856SOL    HW2 2587   1.666   2.841   3.782
  857SOL     OW 2588   0.307   1.925   2.480
  857SOL    HW1 2589   0.296   2.019   2.513
  857SOL    HW2 2590   0.302   1.862   2.557
  858SOL     OW 2591   1.622   2.229   2.236
  858SOL    HW1 2592   1.624   2.153   2.300
  858SOL    HW2 2593   1.574   2.306   2.276
  859SOL     OW 2594   1.023   2.628   2.828
  859SOL    HW1 2595   1.038   2.649   2.924
  859SOL    HW2 2596   0.993   2.533   2.819
  860SOL     OW 2597   0.980   3.435   3.562
  860SOL    HW1 2598   0.960   3.479   3.474
  860SOL    HW2 2599   1.019   3.344   3.546
  861SOL     OW 2600   1.859   3.380   3.467
  861SOL    HW1 2601   1.873   3.407   3.372
  861SOL    HW2 2602   1.942   3.402   3.520
  862SOL     OW 2603   0.350   2.760   3.666
  862SOL    HW1 2604   0.426   2.804   3.714
  862SOL    HW2 2605   0.385   2.713   3.584
  863SOL     OW 2606   1.540   2.136   1.987
  863SOL    HW1 2607   1.479   2.061   2.010
  863SOL    HW2 2608   1.562   2.188   2.070
  864SOL     OW 2609   1.303   2.700   1.904
  864SOL    HW1 2610   1.337   2.607   1.919
  864SOL    HW2 2611   1.321   2.727   1.809
  865SOL     OW 2612   1.068   3.195   2.711
  865SOL    HW1 2613   1.075   3.111   2.656
  865SOL    HW2 2614   1.130   3.264   2.675
  866SOL     OW 2615   0.319   2.672   2.811
  866SOL    HW1 2616   0.412   2.708   2.816
  866SOL    HW2 2617   0.313   2.587   2.863
  867SOL     OW 2618   0.339   2.371   2.868
  867SOL    HW1 2619   0.287   2.288   2.851
  867SOL    HW2 2620   0.416   2.376   2.804
  868SOL     OW 2621   1.138   2.242   3.540
  868SOL    HW1 2622   1.093   2.305   3.604
  868SOL    HW2 2623   1.231   2.273   3.523
  869SOL     OW 2624   1.160   2.069   3.339
  869SOL    HW1 2625   1.160   2.133   3.416
  869SOL    HW2 2626   1.188   2.117   3.256
  870SOL     OW 2627   0.008   3.188   2.062
  870SOL    HW1 2628  -0.085   3.209   2.031
  870SOL    HW2 2629   0.018   3.089   2.075
  871SOL     OW 2630   0.088   3.663   2.789
  871SOL    HW1 2631   0.046   3.577   2.762
  871SOL    HW2 2632   0.182   3.666   2.755
  872SOL     OW 2633   0.504   3.430   2.772
  872SOL    HW1 2634   0.570   3.504   2.781
  872SOL    HW2 2635   0.548   3.351   2.730
  873SOL     OW 2636   1.002   2.658   3.100
  873SOL    HW1 2637   1.043   2.626   3.186
  873SOL    HW2 2638   0.906   2.631   3.097
  874SOL     OW 2639   0.040   2.406   2.976
  874SOL    HW1 2640   0.125   2.373   2.935
  874SOL    HW2 2641   0.053   2.421   3.074
  875SOL     OW 2642   0.189   2.382   3.584
  875SOL    HW1 2643   0.248   2.342   3.514
  875SOL    HW2 2644   0.131   2.453   3.543
  876SOL     OW 2645   1.369   2.812   3.522
  876SOL    HW1 2646   1.408   2.901   3.542
  876SOL    HW2 2647   1.379   2.792   3.425
  877SOL     OW 2648   0.815   2.434   2.187
  877SOL    HW1 2649   0.822   2.345   2.141
  877SOL    HW2 2650   0.721   2.468   2.179
  878SOL     OW 2651   1.657   2.466   3.068
  878SOL    HW1 2652   1.619   2.397   3.130
  878SOL    HW2 2653   1.739   2.430   3.024
  879SOL     OW 2654   0.252   3.426   3.606
  879SOL    HW1 2655   0.222   3.483   3.682
  879SOL    HW2 2656   0.245   3.329   3.632
  880SOL     OW 2657   0.671   2.326   3.131
  880SOL    HW1 2658   0.637   2.237   3.101
  880SOL    HW2 2659   0.697   2.380   3.051
  881SOL     OW 2660   0.930   3.540   3.327
  881SOL    HW1 2661   0.906   3.522   3.232
  881SOL    HW2 2662   0.960   3.634   3.337
  882SOL     OW 2663   0.473   2.362   2.053
  882SOL    HW1 2664   0.534   2.442   2.057
  882SOL    HW2 2665   0.378   2.393   2.060
  883SOL     OW 2666   0.159   2.999   3.328
  883SOL    HW1 2667   0.181   2.938   3.404
  883SOL    HW2 2668   0.169   2.950   3.242
  884SOL     OW 2669   1.347   2.921   3.096
  884SOL    HW1 2670   1.371   2.858   3.022
  884SOL    HW2 2671   1.257   2.961   3.078
  885SOL     OW 2672   1.302   2.717   2.171
  885SOL    HW1 2673   1.216   2.686   2.213
  885SOL    HW2 2674   1.298   2.703   2.072
  886SOL     OW 2675   1.759   3.609   3.016
  886SOL    HW1 2676   1.820   3.639   2.943
  886SOL    HW2 2677   1.721   3.520   2.994
  887SOL     OW 2678   1.252   3.593   2.990
  887SOL    HW1 2679   1.336   3.598   2.936
  887SOL    HW2 2680   1.229   3.497   3.008
  888SOL     OW 2681   0.083   3.120   2.884
  888SOL    HW1 2682   0.078   3.119   2.984
  888SOL    HW2 2683   0.000   3.079   2.846
  889SOL     OW 2684   0.688   3.524   3.578
  889SOL    HW1 2685   0.632   3.605   3.587
  889SOL    HW2 2686   0.740   3.528   3.492
  890SOL     OW 2687   1.726   1.997   2.385
  890SOL    HW1 2688   1.799   1.980   2.318
  890SOL    HW2 2689   1.695   1.910   2.423
  891SOL     OW 2690   1.388   3.435   2.339
  891SOL    HW1 2691   1.455   3.447   2.265
  891SOL    HW2 2692   1.348   3.524   2.362
  892SOL     OW 2693   0.130   3.656   3.713
  892SOL    HW1 2694   0.089   3.582   3.766
  892SOL    HW2 2695   0.194   3.707   3.771
  893SOL     OW 2696   1.280   2.789   2.534
  893SOL    HW1 2697   1.340   2.708   2.536
  893SOL    HW2 2698   1.320   2.858   2.474
  894SOL     OW 2699   0.830   3.135   3.284
  894SOL    HW1 2700   0.825   3.168   3.379
  894SOL    HW2 2701   0.744   3.154   3.238
  895SOL     OW 2702   0.672   3.478   2.016
  895SOL    HW1 2703   0.681   3.488   1.917
  895SOL    HW2 2704   0.632   3.389   2.037
  896SOL     OW 2705   1.650   3.582   3.256
  896SOL    HW1 2706   1.703   3.592   3.172
  896SOL    HW2 2707   1.623   3.672   3.290
  897SOL     OW 2708   1.841   2.037   2.825
  897SOL    HW1 2709   1.880   1.952   2.789
  897SOL    HW2 2710   1.743   2.039   2.806
  898SOL     OW 2711   0.263   2.188   2.582
  898SOL    HW1 2712   0.184   2.239   2.548
  898SOL    HW2 2713   0.254   2.173   2.680
  899SOL     OW 2714   1.194   3.474   1.893
  899SOL    HW1 2715   1.200   3.381   1.930
  899SOL    HW2 2716   1.135   3.474   1.813
  900SOL     OW 2717   0.822   2.864   3.234
  900SOL    HW1 2718   0.862   2.863   3.142
  900SOL    HW2 2719   0.832   2.956   3.274
  901SOL     OW 2720   0.916   2.772   2.153
  901SOL    HW1 2721   0.979   2.810   2.085
  901SOL    HW2 2722   0.956   2.689   2.192
  902SOL     OW 2723   1.504   3.469   1.906
  902SOL    HW1 2724   1.412   3.506   1.913
  902SOL    HW2 2725   1.542   3.489   1.816
  903SOL     OW 2726   0.372   3.150   3.352
  903SOL    HW1 2727   0.359   3.243   3.318
  903SOL    HW2 2728   0.288   3.098   3.339
  904SOL     OW 2729   1.614   3.154   3.151
  904SOL    HW1 2730   1.674   3.157   3.231
  904SOL    HW2 2731   1.539   3.218   3.164
  905SOL     OW 2732   1.039   2.960   2.558
  905SOL    HW1 2733   0.969   2.913   2.612
  905SOL    HW2 2734   1.098   2.892   2.515
  906SOL     OW 2735   1.014   2.098   2.833
  906SOL    HW1 2736   1.006   2.062   2.740
  906SOL    HW2 2737   1.012   2.022   2.898
  907SOL     OW 2738   0.590   3.349   2.353
  907SOL    HW1 2739   0.632   3.291   2.283
  907SOL    HW2 2740   0.546   3.428   2.309
  908SOL     OW 2741   1.709   2.247   3.243
  908SOL    HW1 2742   1.782   2.316   3.247
  908SOL    HW2 2743   1.737   2.172   3.184
  909SOL     OW 2744   0.255   3.210   2.152
  909SOL    HW1 2745   0.159   3.211   2.125
  909SOL    HW2 2746   0.267   3.263   2.236
  910SOL     OW 2747   0.105   2.875   3.588
  910SOL    HW1 2748   0.028   2.842   3.642
  910SOL    HW2 2749   0.190   2.845   3.630
  911SOL     OW 2750   0.672   2.065   3.351
  911SOL    HW1 2751   0.762   2.049   3.311
  911SOL    HW2 2752   0.680   2.070   3.450
  912SOL     OW 2753   0.075   2.207   1.895
  912SOL    HW1 2754  -0.017   2.179   1.866
  912SOL    HW2 2755   0.106   2.284   1.839
  913SOL     OW 2756   1.440   2.718   3.260
  913SOL    HW1 2757   1.383   2.770   3.197
  913SOL    HW2 2758   1.536   2.730   3.236
  914SOL     OW 2759   0.072   2.028   2.180
  914SOL    HW1 2760   0.055   2.111   2.126
  914SOL    HW2 2761   0.162   1.991   2.158
  915SOL     OW 2762   1.183   3.197   1.981
  915SOL    HW1 2763   1.084   3.186   1.983
  915SOL    HW2 2764   1.217   3.212   2.074
  916SOL     OW 2765   0.613   2.704   3.293
  916SOL    HW1 2766   0.669   2.785   3.276
  916SOL    HW2 2767   0.672   2.624   3.296
  917SOL     OW 2768   1.493   3.629   2.821
  917SOL    HW1 2769   1.526   3.693   2.752
  917SOL    HW2 2770   1.559   3.623   2.896
  918SOL     OW 2771   0.716   2.427   3.570
  918SOL    HW1 2772   0.735   2.492   3.644
  918SOL    HW2 2773   0.776   2.347   3.579
  919SOL     OW 2774   1.450   3.082   3.495
  919SOL    HW1 2775   1.441   3.072   3.594
  919SOL    HW2 2776   1.546   3.075   3.469
  920SOL     OW 2777   0.390   3.603   3.422
  920SOL    HW1 2778   0.299   3.644   3.420
  920SOL    HW2 2779   0.383   3.509   3.454
  921SOL     OW 2780   1.674   2.745   3.116
  921SOL    HW1 2781   1.647   2.656   3.079
  921SOL    HW2 2782   1.675   2.813   3.043
  922SOL     OW 2783   1.225   2.187   2.311
  922SOL    HW1 2784   1.290   2.113   2.300
  922SOL    HW2 2785   1.245   2.237   2.395
  923SOL     OW 2786   0.594   2.607   2.514
  923SOL    HW1 2787   0.644   2.692   2.495
  923SOL    HW2 2788   0.506   2.609   2.466
  924SOL     OW 2789   1.777   2.204   3.504
  924SOL    HW1 2790   1.760   2.235   3.410
  924SOL    HW2 2791   1.693   2.167   3.542
  925SOL     OW 2792   1.730   2.796   3.379
  925SOL    HW1 2793   1.768   2.887   3.394
  925SOL    HW2 2794   1.722   2.779   3.280
  926SOL     OW 2795   0.859   3.236   1.878
  926SOL    HW1 2796   0.813   3.251   1.966
  926SOL    HW2 2797   0.903   3.321   1.848
  927SOL     OW 2798   0.661   3.652   2.815
  927SOL    HW1 2799   0.615   3.740   2.802
  927SOL    HW2 2800   0.760   3.664   2.808
  928SOL     OW 2801   0.859   2.818   2.723
  928SOL    HW1 2802   0.913   2.749   2.771
  928SOL    HW2 2803   0.827   2.887   2.789
  929SOL     OW 2804   1.083   2.846   1.949
  929SOL    HW1 2805   1.060   2.899   1.867
  929SOL    HW2 2806   1.164   2.790   1.930
  930SOL     OW 2807   1.861   3.431   2.713
  930SOL    HW1 2808   1.790   3.419   2.643
  930SOL    HW2 2809   1.862   3.352   2.773
  931SOL     OW 2810   0.221   3.176   3.706
  931SOL    HW1 2811   0.156   3.103   3.685
  931SOL    HW2 2812   0.225   3.190   3.804
  932SOL     OW 2813   0.079   3.102   2.515
  932SOL    HW1 2814   0.078   3.055   2.603
  932SOL    HW2 2815   0.161   3.074   2.464
  933SOL     OW 2816   0.672   3.253   3.486
  933SOL    HW1 2817   0.594   3.203   3.524
  933SOL    HW2 2818   0.669   3.348   3.517
  934SOL     OW 2819   1.824   2.054   3.089
  934SOL    HW1 2820   1.820   1.964   3.133
  934SOL    HW2 2821   1.827   2.043   2.990
  935SOL     OW 2822   0.428   2.286   2.382
  935SOL    HW1 2823   0.458   2.214   2.320
  935SOL    HW2 2824   0.389   2.246   2.465
  936SOL     OW 2825   1.705   3.349   2.966
  936SOL    HW1 2826   1.612   3.324   2.939
  936SOL    HW2 2827   1.731   3.299   3.048
  937SOL     OW 2828   0.317   2.409   3.142
  937SOL    HW1 2829   0.355   2.350   3.214
  937SOL    HW2 2830   0.357   2.383   3.054
  938SOL     OW 2831   0.812   3.448   2.549
  938SOL    HW1 2832   0.844   3.458   2.455
  938SOL    HW2 2833   0.733   3.386   2.551
  939SOL     OW 2834   1.424   2.076   2.974
  939SOL    HW1 2835   1.476   2.011   3.029
  939SOL    HW2 2836   1.375   2.139   3.035
  940SOL     OW 2837   1.001   1.896   3.016
  940SOL    HW1 2838   0.938   1.824   2.985
  940SOL    HW2 2839   1.094   1.860   3.016
  941SOL     OW 2840   0.770   3.192   2.163
  941SOL    HW1 2841   0.724   3.105   2.180
  941SOL    HW2 2842   0.861   3.189   2.204
  942SOL     OW 2843   0.618   3.429   3.146
  942SOL    HW1 2844   0.613   3.511   3.203
  942SOL    HW2 2845   0.707   3.426   3.101
  943SOL     OW 2846   1.352   1.914   2.030
  943SOL    HW1 2847   1.387   1.873   1.946
  943SOL    HW2 2848   1.262   1.876   2.050
  944SOL     OW 2849   1.300   2.315   2.553
  944SOL    HW1 2850   1.241   2.395   2.557
  944SOL    HW2 2851   1.315   2.280   2.646
  945SOL     OW 2852   1.593   2.083   2.744
  945SOL    HW1 2853   1.509   2.082   2.798
  945SOL    HW2 2854   1.595   2.166   2.688
  946SOL     OW 2855   0.039   2.939   2.162
  946SOL    HW1 2856   0.138   2.928   2.153
  946SOL    HW2 2857  -0.001   2.853   2.194
  947SOL     OW 2858   0.875   3.508   2.199
  947SOL    HW1 2859   0.798   3.473   2.145
  947SOL    HW2 2860   0.843   3.579   2.261
  948SOL     OW 2861   0.230   2.490   3.837
  948SOL    HW1 2862   0.137   2.488   3.874
  948SOL    HW2 2863   0.231   2.451   3.745
  949SOL     OW 2864   0.019   2.230   4.371
  949SOL    HW1 2865  -0.063   2.273   4.410
  949SOL    HW2 2866  -0.009   2.157   4.308
  950SOL     OW 2867   1.555   3.373   4.427
  950SOL    HW1 2868   1.498   3.357   4.508
  950SOL    HW2 2869   1.496   3.383   4.347
  951SOL     OW 2870   1.135   2.565   4.441
  951SOL    HW1 2871   1.192   2.643   4.416
  951SOL    HW2 2872   1.075   2.591   4.517
  952SOL     OW 2873   1.755   2.469   3.955
  952SOL    HW1 2874   1.743   2.456   3.856
  952SOL    HW2 2875   1.725   2.388   4.004
  953SOL     OW 2876   0.768   3.006   4.747
  953SOL    HW1 2877   0.690   3.023   4.807
  953SOL    HW2 2878   0.802   3.093   4.711
  954SOL     OW 2879   0.685   2.874   4.389
  954SOL    HW1 2880   0.754   2.858   4.459
  954SOL    HW2 2881   0.612   2.931   4.427
  955SOL     OW 2882   1.603   2.309   4.461
  955SOL    HW1 2883   1.529   2.355   4.411
  955SOL    HW2 2884   1.654   2.377   4.514
  956SOL     OW 2885   0.231   3.575   4.207
  956SOL    HW1 2886   0.265   3.652   4.261
  956SOL    HW2 2887   0.275   3.575   4.117
  957SOL     OW 2888   0.230   3.296   4.262
  957SOL    HW1 2889   0.204   3.392   4.262
  957SOL    HW2 2890   0.159   3.242   4.307
  958SOL     OW 2891   0.240   2.953   4.610
  958SOL    HW1 2892   0.254   2.869   4.662
  958SOL    HW2 2893   0.185   3.017   4.665
  959SOL     OW 2894   0.606   2.826   3.847
  959SOL    HW1 2895   0.613   2.910   3.793
  959SOL    HW2 2896   0.652   2.839   3.935
  960SOL     OW 2897   0.122   2.505   4.287
  960SOL    HW1 2898   0.077   2.417   4.304
  960SOL    HW2 2899   0.121   2.559   4.371
  961SOL     OW 2900   1.842   3.629   4.083
  961SOL    HW1 2901   1.896   3.600   4.163
  961SOL    HW2 2902   1.872   3.719   4.054
  962SOL     OW 2903   0.027   3.458   3.841
  962SOL    HW1 2904   0.008   3.362   3.862
  962SOL    HW2 2905  -0.006   3.516   3.916
  963SOL     OW 2906   1.689   2.784   4.336
  963SOL    HW1 2907   1.784   2.755   4.344
  963SOL    HW2 2908   1.681   2.849   4.261
  964SOL     OW 2909   1.641   2.970   4.156
  964SOL    HW1 2910   1.727   2.972   4.104
  964SOL    HW2 2911   1.655   3.017   4.244
  965SOL     OW 2912   0.613   3.227   4.450
  965SOL    HW1 2913   0.564   3.140   4.459
  965SOL    HW2 2914   0.590   3.270   4.363
  966SOL     OW 2915   0.809   1.866   4.226
  966SOL    HW1 2916   0.849   1.957   4.217
  966SOL    HW2 2917   0.709   1.874   4.232
  967SOL     OW 2918   1.525   2.861   3.914
  967SOL    HW1 2919   1.462   2.785   3.927
  967SOL    HW2 2920   1.573   2.879   4.000
  968SOL     OW 2921   1.667   3.576   4.296
  968SOL    HW1 2922   1.626   3.553   4.208
  968SOL    HW2 2923   1.649   3.502   4.361
  969SOL     OW 2924   0.598   2.591   3.994
  969SOL    HW1 2925   0.622   2.660   3.926
  969SOL    HW2 2926   0.520   2.624   4.048
  970SOL     OW 2927   1.281   2.207   4.668
  970SOL    HW1 2928   1.195   2.157   4.655
  970SOL    HW2 2929   1.343   2.153   4.724
  971SOL     OW 2930   1.576   3.524   4.031
  971SOL    HW1 2931   1.665   3.570   4.034
  971SOL    HW2 2932   1.555   3.500   3.936
  972SOL     OW 2933   1.041   2.563   4.153
  972SOL    HW1 2934   1.067   2.559   4.249
  972SOL    HW2 2935   0.956   2.512   4.139
  973SOL     OW 2936   0.076   2.673   4.513
  973SOL    HW1 2937   0.175   2.661   4.522
  973SOL    HW2 2938   0.052   2.768   4.534
  974SOL     OW 2939   0.865   2.210   3.919
  974SOL    HW1 2940   0.924   2.273   3.870
  974SOL    HW2 2941   0.884   2.116   3.890
  975SOL     OW 2942   1.362   3.006   4.269
  975SOL    HW1 2943   1.445   2.977   4.221
  975SOL    HW2 2944   1.313   3.073   4.213
  976SOL     OW 2945   0.550   2.058   4.609
  976SOL    HW1 2946   0.545   2.053   4.709
  976SOL    HW2 2947   0.552   2.154   4.580
  977SOL     OW 2948   1.008   3.318   4.201
  977SOL    HW1 2949   0.962   3.390   4.149
  977SOL    HW2 2950   1.004   3.338   4.299
  978SOL     OW 2951   0.351   3.663   4.577
  978SOL    HW1 2952   0.401   3.577   4.583
  978SOL    HW2 2953   0.416   3.740   4.574
  979SOL     OW 2954   1.795   2.928   4.597
  979SOL    HW1 2955   1.733   2.913   4.521
  979SOL    HW2 2956   1.743   2.939   4.682
  980SOL     OW 2957   0.321   2.805   3.966
  980SOL    HW1 2958   0.403   2.844   3.924
  980SOL    HW2 2959   0.294   2.723   3.917
  981SOL     OW 2960   1.458   2.597   4.452
  981SOL    HW1 2961   1.453   2.532   4.527
  981SOL    HW2 2962   1.538   2.656   4.465
  982SOL     OW 2963   1.111   3.638   3.961
  982SOL    HW1 2964   1.051   3.576   4.011
  982SOL    HW2 2965   1.142   3.594   3.876
  983SOL     OW 2966   1.632   3.239   3.805
  983SOL    HW1 2967   1.600   3.333   3.795
  983SOL    HW2 2968   1.556   3.176   3.793
  984SOL     OW 2969   0.464   3.605   4.047
  984SOL    HW1 2970   0.497   3.644   4.133
  984SOL    HW2 2971   0.540   3.598   3.982
  985SOL     OW 2972   1.400   1.969   4.150
  985SOL    HW1 2973   1.376   1.932   4.060
  985SOL    HW2 2974   1.499   1.985   4.154
  986SOL     OW 2975   0.940   3.560   4.628
  986SOL    HW1 2976   1.020   3.503   4.649
  986SOL    HW2 2977   0.891   3.520   4.551
  987SOL     OW 2978   0.382   2.562   4.204
  987SOL    HW1 2979   0.427   2.472   4.201
  987SOL    HW2 2980   0.288   2.551   4.237
  988SOL     OW 2981   0.614   1.984   3.841
  988SOL    HW1 2982   0.712   1.962   3.848
  988SOL    HW2 2983   0.583   1.967   3.748
  989SOL     OW 2984   0.539   1.926   4.236
  989SOL    HW1 2985   0.458   1.927   4.294
  989SOL    HW2 2986   0.542   2.009   4.181
  990SOL     OW 2987   1.434   3.050   3.765
  990SOL    HW1 2988   1.466   2.974   3.822
  990SOL    HW2 2989   1.342   3.077   3.795
  991SOL     OW 2990   0.297   1.897   3.895
  991SOL    HW1 2991   0.346   1.981   3.874
  991SOL    HW2 2992   0.359   1.832   3.940
  992SOL     OW 2993   0.935   2.098   4.204
  992SOL    HW1 2994   0.887   2.139   4.126
  992SOL    HW2 2995   1.034   2.096   4.185
  993SOL     OW 2996   0.459   3.014   4.465
  993SOL    HW1 2997   0.388   2.987   4.530
  993SOL    HW2 2998   0.433   2.986   4.372
  994SOL     OW 2999   1.271   3.659   4.315
  994SOL    HW1 3000   1.315   3.723   4.251
  994SOL    HW2 3001   1.221   3.711   4.385
  995SOL     OW 3002   1.032   2.411   3.740
  995SOL    HW1 3003   0.991   2.493   3.701
  995SOL    HW2 3004   1.096   2.437   3.813
  996SOL     OW 3005   0.866   2.316   4.366
  996SOL    HW1 3006   0.834   2.388   4.304
  996SOL    HW2 3007   0.890   2.235   4.313
  997SOL     OW 3008   1.017   1.901   4.477
  997SOL    HW1 3009   0.945   1.906   4.408
  997SOL    HW2 3010   0.993   1.832   4.546
  998SOL     OW 3011   1.857   2.695   4.101
  998SOL    HW1 3012   1.899   2.631   4.165
  998SOL    HW2 3013   1.819   2.644   4.023
  999SOL     OW 3014   0.488   3.247   3.898
  999SOL    HW1 3015   0.401   3.232   3.945
  999SOL    HW2 3016   0.471   3.273   3.803
 1000SOL     OW 3017   1.664   3.142   4.381
 1000SOL    HW1 3018   1.763   3.150   4.395
 1000SOL    HW2 3019   1.619   3.226   4.412
 1001SOL     OW 3020   1.390   2.437   3.802
 1001SOL    HW1 3021   1.336   2.416   3.883
 1001SOL    HW2 3022   1.481   2.396   3.811
 1002SOL     OW 3023   0.527   2.118   4.052
 1002SOL    HW1 3024   0.554   2.059   3.977
 1002SOL    HW2 3025   0.527   2.213   4.021
 1003SOL     OW 3026   0.705   2.912   4.092
 1003SOL    HW1 3027   0.691   2.919   4.191
 1003SOL    HW2 3028   0.789   2.861   4.074
 1004SOL     OW 3029   0.367   2.962   4.225
 1004SOL    HW1 3030   0.360   3.045   4.169
 1004SOL    HW2 3031   0.371   2.882   4.165
 1005SOL     OW 3032   0.566   2.399   4.589
 1005SOL    HW1 3033   0.578   2.465   4.515
 1005SOL    HW2 3034   0.612   2.433   4.672
 1006SOL     OW 3035   1.252   3.210   4.112
 1006SOL    HW1 3036   1.302   3.287   4.152
 1006SOL    HW2 3037   1.157   3.212   4.144
 1007SOL     OW 3038   1.582   2.501   4.196
 1007SOL    HW1 3039   1.551   2.562   4.269
 1007SOL    HW2 3040   1.632   2.553   4.127
 1008SOL     OW 3041   1.209   2.387   3.999
 1008SOL    HW1 3042   1.222   2.303   4.053
 1008SOL    HW2 3043   1.180   2.461   4.059
 1009SOL     OW 3044   0.307   1.925   4.342
 1009SOL    HW1 3045   0.296   2.019   4.375
 1009SOL    HW2 3046   0.302   1.862   4.419
 1010SOL     OW 3047   1.622   2.229   4.098
 1010SOL    HW1 3048   1.624   2.153   4.162
 1010SOL    HW2 3049   1.574   2.306   4.138
 1011SOL     OW 3050   1.540   2.136   3.849
 1011SOL    HW1 3051   1.479   2.061   3.872
 1011SOL    HW2 3052   1.562   2.188   3.932
 1012SOL     OW 3053   1.303   2.700   3.766
 1012SOL    HW1 3054   1.337   2.607   3.781
 1012SOL    HW2 3055   1.321   2.727   3.671
 1013SOL     OW 3056   0.008   3.188   3.924
 1013SOL    HW1 3057  -0.085   3.209   3.893
 1013SOL    HW2 3058   0.018   3.089   3.937
 1014SOL     OW 3059   0.815   2.434   4.049
 1014SOL    HW1 3060   0.822   2.345   4.003
 1014SOL    HW2 3061   0.721   2.468   4.041
 1015SOL     OW 3062   0.473   2.362   3.915
 1015SOL    HW1 3063   0.534   2.442   3.919
 1015SOL    HW2 3064   0.378   2.393   3.922
 1016SOL     OW 3065   1.302   2.717   4.033
 1016SOL    HW1 3066   1.216   2.686   4.075
 1016SOL    HW2 3067   1.298   2.703   3.934
 1017SOL     OW 3068   1.726   1.997   4.247
 1017SOL    HW1 3069   1.799   1.980   4.180
 1017SOL    HW2 3070   1.695   1.910   4.285
 1018SOL     OW 3071   1.388   3.435   4.201
 1018SOL    HW1 3072   1.455   3.447   4.127
 1018SOL    HW2 3073   1.348   3.524   4.224
 1019SOL     OW 3074   1.280   2.789   4.396
 1019SOL    HW1 3075   1.340   2.708   4.398
 1019SOL    HW2 3076   1.320   2.858   4.336
 1020SOL     OW 3077   0.672   3.478   3.878
 1020SOL    HW1 3078   0.681   3.488   3.779
 1020SOL    HW2 3079   0.632   3.389   3.899
 1021SOL     OW 3080   1.841   2.037   4.687
 1021SOL    HW1 3081   1.880   1.952   4.651
 1021SOL    HW2 3082   1.743   2.039   4.668
 1022SOL     OW 3083   0.263   2.188   4.444
 1022SOL    HW1 3084   0.184   2.239   4.410
 1022SOL    HW2 3085   0.254   2.173   4.542
 1023SOL     OW 3086   1.194   3.474   3.755
 1023SOL    HW1 3087   1.200   3.381   3.792
 1023SOL    HW2 3088   1.135   3.474   3.675
 1024SOL     OW 3089   0.916   2.772   4.015
 1024SOL    HW1 3090   0.979   2.810   3.947
 1024SOL    HW2 3091   0.956   2.689   4.054
 1025SOL     OW 3092   1.504   3.469   3.768
 1025SOL    HW1 3093   1.412   3.506   3.775
 1025SOL    HW2 3094   1.542   3.489   3.678
 1026SOL     OW 3095   1.039   2.960   4.420
 1026SOL    HW1 3096   0.969   2.913   4.474
 1026SOL    HW2 3097   1.098   2.892   4.377
 1027SOL     OW 3098   0.590   3.349   4.215
 1027SOL    HW1 3099   0.632   3.291   4.145
 1027SOL    HW2 3100   0.546   3.428   4.171
 1028SOL     OW 3101   0.255   3.210   4.014
 1028SOL    HW1 3102   0.159   3.211   3.987
 1028SOL    HW2 3103   0.267   3.263   4.098
 1029SOL     OW 3104   0.075   2.207   3.757
 1029SOL    HW1 3105  -0.017   2.179   3.728
 1029SOL    HW2 3106   0.106   2.284   3.701
 1030SOL     OW 3107   0.072   2.028   4.042
 1030SOL    HW1 3108   0.055   2.111   3.988
 1030SOL    HW2 3109   0.162   1.991   4.020
 1031SOL     OW 3110   1.183   3.197   3.843
 1031SOL    HW1 3111   1.084   3.186   3.845
 1031SOL    HW2 3112   1.217   3.212   3.936
 1032SOL     OW 3113   1.225   2.187   4.173
 1032SOL    HW1 3114   1.290   2.113   4.162
 1032SOL    HW2 3115   1.245   2.237   4.257
 1033SOL     OW 3116   0.594   2.607   4.376
 1033SOL    HW1 3117   0.644   2.692   4.357
 1033SOL    HW2 3118   0.506   2.609   4.328
 1034SOL     OW 3119   0.859   3.236   3.740
 1034SOL    HW1 3120   0.813   3.251   3.828
 1034SOL    HW2 3121   0.903   3.321   3.710
 1035SOL     OW 3122   0.661   3.652   4.677
 1035SOL    HW1 3123   0.615   3.740   4.664
 1035SOL    HW2 3124   0.760   3.664   4.670
 1036SOL     OW 3125   0.859   2.818   4.585
 1036SOL    HW1 3126   0.913   2.749   4.633
 1036SOL    HW2 3127   0.827   2.887   4.651
 1037SOL     OW 3128   1.083   2.846   3.811
 1037SOL    HW1 3129   1.060   2.899   3.729
 1037SOL    HW2 3130   1.164   2.790   3.792
 1038SOL     OW 3131   0.079   3.102   4.377
 1038SOL    HW1 3132   0.078   3.055   4.465
 1038SOL    HW2 3133   0.161   3.074   4.326
 1039SOL     OW 3134   0.428   2.286   4.244
 1039SOL    HW1 3135   0.458   2.214   4.182
 1039SOL    HW2 3136   0.389   2.246   4.327
 1040SOL     OW 3137   0.812   3.448   4.411
 1040SOL    HW1 3138   0.844   3.458   4.317
 1040SOL    HW2 3139   0.733   3.386   4.413
 1041SOL     OW 3140   0.770   3.192   4.025
 1041SOL    HW1 3141   0.724   3.105   4.042
 1041SOL    HW2 3142   0.861   3.189   4.066
 1042SOL     OW 3143   1.352   1.914   3.892
 1042SOL    HW1 3144   1.387   1.873   3.808
 1042SOL    HW2 3145   1.262   1.876   3.912
 1043SOL     OW 3146   1.300   2.315   4.415
 1043SOL    HW1 3147   1.241   2.395   4.419
 1043SOL    HW2 3148   1.315   2.280   4.508
 1044SOL     OW 3149   0.039   2.939   4.024
 1044SOL    HW1 3150   0.138   2.928   4.015
 1044SOL    HW2 3151  -0.001   2.853   4.056
 1045SOL     OW 3152   0.875   3.508   4.061
 1045SOL    HW1 3153   0.798   3.473   4.007
 1045SOL    HW2 3154   0.843   3.579   4.123
 1046SOL     OW 3155   0.230   4.352   0.113
 1046SOL    HW1 3156   0.137   4.350   0.150
 1046SOL    HW2 3157   0.231   4.313   0.021
 1047SOL     OW 3158   0.225   3.999   0.996
 1047SOL    HW1 3159   0.260   3.982   1.088
 1047SOL    HW2 3160   0.137   3.954   0.984
 1048SOL     OW 3161   0.019   4.092   0.647
 1048SOL    HW1 3162  -0.063   4.135   0.686
 1048SOL    HW2 3163  -0.009   4.019   0.584
 1049SOL     OW 3164   1.135   4.427   0.717
 1049SOL    HW1 3165   1.192   4.505   0.692
 1049SOL    HW2 3166   1.075   4.453   0.793
 1050SOL     OW 3167   1.755   4.331   0.231
 1050SOL    HW1 3168   1.743   4.318   0.132
 1050SOL    HW2 3169   1.725   4.250   0.280
 1051SOL     OW 3170   0.850   4.522   1.823
 1051SOL    HW1 3171   0.846   4.598   1.888
 1051SOL    HW2 3172   0.872   4.558   1.732
 1052SOL     OW 3173   0.685   4.736   0.665
 1052SOL    HW1 3174   0.754   4.720   0.735
 1052SOL    HW2 3175   0.612   4.793   0.703
 1053SOL     OW 3176   0.438   4.116   1.499
 1053SOL    HW1 3177   0.520   4.060   1.508
 1053SOL    HW2 3178   0.357   4.058   1.503
 1054SOL     OW 3179   1.603   4.171   0.737
 1054SOL    HW1 3180   1.529   4.217   0.687
 1054SOL    HW2 3181   1.654   4.239   0.790
 1055SOL     OW 3182   1.594   3.838   1.480
 1055SOL    HW1 3183   1.576   3.905   1.408
 1055SOL    HW2 3184   1.591   3.884   1.569
 1056SOL     OW 3185   0.122   4.367   0.563
 1056SOL    HW1 3186   0.077   4.279   0.580
 1056SOL    HW2 3187   0.121   4.421   0.647
 1057SOL     OW 3188   0.113   4.461   1.597
 1057SOL    HW1 3189   0.201   4.448   1.642
 1057SOL    HW2 3190   0.100   4.558   1.575
 1058SOL     OW 3191   0.809   3.728   0.502
 1058SOL    HW1 3192   0.849   3.819   0.493
 1058SOL    HW2 3193   0.709   3.736   0.508
 1059SOL     OW 3194   0.317   3.975   1.801
 1059SOL    HW1 3195   0.388   4.046   1.807
 1059SOL    HW2 3196   0.229   4.014   1.829
 1060SOL     OW 3197   0.598   4.453   0.270
 1060SOL    HW1 3198   0.622   4.522   0.202
 1060SOL    HW2 3199   0.520   4.486   0.324
 1061SOL     OW 3200   1.281   4.069   0.944
 1061SOL    HW1 3201   1.195   4.019   0.931
 1061SOL    HW2 3202   1.343   4.015   1.000
 1062SOL     OW 3203   0.807   4.329   1.465
 1062SOL    HW1 3204   0.760   4.326   1.554
 1062SOL    HW2 3205   0.756   4.274   1.399
 1063SOL     OW 3206   1.394   4.193   1.674
 1063SOL    HW1 3207   1.374   4.236   1.762
 1063SOL    HW2 3208   1.472   4.131   1.683
 1064SOL     OW 3209   0.991   4.134   1.242
 1064SOL    HW1 3210   0.914   4.168   1.296
 1064SOL    HW2 3211   0.957   4.083   1.163
 1065SOL     OW 3212   1.041   4.425   0.429
 1065SOL    HW1 3213   1.067   4.421   0.525
 1065SOL    HW2 3214   0.956   4.374   0.415
 1066SOL     OW 3215   0.076   4.535   0.789
 1066SOL    HW1 3216   0.175   4.523   0.798
 1066SOL    HW2 3217   0.052   4.630   0.810
 1067SOL     OW 3218   0.865   4.072   0.195
 1067SOL    HW1 3219   0.924   4.135   0.146
 1067SOL    HW2 3220   0.884   3.978   0.166
 1068SOL     OW 3221   1.719   4.309   1.831
 1068SOL    HW1 3222   1.693   4.398   1.795
 1068SOL    HW2 3223   1.717   4.241   1.758
 1069SOL     OW 3224   0.550   3.920   0.885
 1069SOL    HW1 3225   0.545   3.915   0.985
 1069SOL    HW2 3226   0.552   4.016   0.856
 1070SOL     OW 3227   1.458   4.459   0.728
 1070SOL    HW1 3228   1.453   4.394   0.803
 1070SOL    HW2 3229   1.538   4.518   0.741
 1071SOL     OW 3230   0.202   4.009   1.498
 1071SOL    HW1 3231   0.122   4.069   1.485
 1071SOL    HW2 3232   0.192   3.960   1.584
 1072SOL     OW 3233   1.400   3.831   0.426
 1072SOL    HW1 3234   1.376   3.794   0.336
 1072SOL    HW2 3235   1.499   3.847   0.430
 1073SOL     OW 3236   0.382   4.424   0.480
 1073SOL    HW1 3237   0.427   4.334   0.477
 1073SOL    HW2 3238   0.288   4.413   0.513
 1074SOL     OW 3239   1.547   3.946   1.729
 1074SOL    HW1 3240   1.542   3.983   1.821
 1074SOL    HW2 3241   1.475   3.877   1.717
 1075SOL     OW 3242   0.781   3.988   1.749
 1075SOL    HW1 3243   0.848   3.927   1.792
 1075SOL    HW2 3244   0.708   4.007   1.814
 1076SOL     OW 3245   1.351   4.314   1.433
 1076SOL    HW1 3246   1.379   4.271   1.518
 1076SOL    HW2 3247   1.376   4.410   1.434
 1077SOL     OW 3248   0.922   4.227   0.899
 1077SOL    HW1 3249   0.897   4.218   0.803
 1077SOL    HW2 3250   0.970   4.145   0.930
 1078SOL     OW 3251   0.539   3.788   0.512
 1078SOL    HW1 3252   0.458   3.789   0.570
 1078SOL    HW2 3253   0.542   3.871   0.457
 1079SOL     OW 3254   0.297   3.759   0.171
 1079SOL    HW1 3255   0.346   3.843   0.150
 1079SOL    HW2 3256   0.359   3.694   0.216
 1080SOL     OW 3257   0.935   3.960   0.480
 1080SOL    HW1 3258   0.887   4.001   0.402
 1080SOL    HW2 3259   1.034   3.958   0.461
 1081SOL     OW 3260   1.076   4.407   1.464
 1081SOL    HW1 3261   0.996   4.346   1.467
 1081SOL    HW2 3262   1.157   4.354   1.440
 1082SOL     OW 3263   1.032   4.273   0.016
 1082SOL    HW1 3264   0.991   4.355  -0.023
 1082SOL    HW2 3265   1.096   4.299   0.089
 1083SOL     OW 3266   0.078   4.280   1.386
 1083SOL    HW1 3267   0.170   4.279   1.345
 1083SOL    HW2 3268   0.072   4.354   1.453
 1084SOL     OW 3269   0.561   3.946   1.147
 1084SOL    HW1 3270   0.599   3.862   1.184
 1084SOL    HW2 3271   0.473   3.965   1.191
 1085SOL     OW 3272   0.866   4.178   0.642
 1085SOL    HW1 3273   0.834   4.250   0.580
 1085SOL    HW2 3274   0.890   4.097   0.589
 1086SOL     OW 3275   1.017   3.763   0.753
 1086SOL    HW1 3276   0.945   3.768   0.684
 1086SOL    HW2 3277   0.993   3.694   0.822
 1087SOL     OW 3278   1.466   4.314   0.992
 1087SOL    HW1 3279   1.436   4.219   0.999
 1087SOL    HW2 3280   1.539   4.330   1.058
 1088SOL     OW 3281   1.857   4.557   0.377
 1088SOL    HW1 3282   1.899   4.493   0.441
 1088SOL    HW2 3283   1.819   4.506   0.299
 1089SOL     OW 3284   1.390   4.299   0.078
 1089SOL    HW1 3285   1.336   4.278   0.159
 1089SOL    HW2 3286   1.481   4.258   0.087
 1090SOL     OW 3287   0.527   3.980   0.328
 1090SOL    HW1 3288   0.554   3.921   0.253
 1090SOL    HW2 3289   0.527   4.075   0.297
 1091SOL     OW 3290   0.915   3.813   1.402
 1091SOL    HW1 3291   0.940   3.793   1.307
 1091SOL    HW2 3292   0.987   3.869   1.444
 1092SOL     OW 3293   0.705   4.774   0.368
 1092SOL    HW1 3294   0.691   4.781   0.467
 1092SOL    HW2 3295   0.789   4.723   0.350
 1093SOL     OW 3296   0.410   4.537   1.251
 1093SOL    HW1 3297   0.496   4.549   1.301
 1093SOL    HW2 3298   0.368   4.450   1.278
 1094SOL     OW 3299   1.274   4.110   1.262
 1094SOL    HW1 3300   1.295   4.184   1.326
 1094SOL    HW2 3301   1.185   4.127   1.219
 1095SOL     OW 3302   0.566   4.261   0.865
 1095SOL    HW1 3303   0.578   4.327   0.791
 1095SOL    HW2 3304   0.612   4.295   0.948
 1096SOL     OW 3305   1.582   4.363   0.472
 1096SOL    HW1 3306   1.551   4.424   0.545
 1096SOL    HW2 3307   1.632   4.415   0.403
 1097SOL     OW 3308   1.587   4.503   1.670
 1097SOL    HW1 3309   1.495   4.541   1.665
 1097SOL    HW2 3310   1.647   4.550   1.605
 1098SOL     OW 3311   1.013   3.829   1.770
 1098SOL    HW1 3312   1.019   3.914   1.718
 1098SOL    HW2 3313   1.045   3.753   1.713
 1099SOL     OW 3314   0.504   3.774   1.740
 1099SOL    HW1 3315   0.462   3.717   1.670
 1099SOL    HW2 3316   0.438   3.843   1.772
 1100SOL     OW 3317   1.360   4.586   1.045
 1100SOL    HW1 3318   1.285   4.586   0.979
 1100SOL    HW2 3319   1.397   4.494   1.054
 1101SOL     OW 3320   1.209   4.249   0.275
 1101SOL    HW1 3321   1.222   4.165   0.329
 1101SOL    HW2 3322   1.180   4.323   0.335
 1102SOL     OW 3323   0.307   3.937   1.231
 1102SOL    HW1 3324   0.284   3.974   1.321
 1102SOL    HW2 3325   0.277   3.842   1.225
 1103SOL     OW 3326   0.732   4.358   1.064
 1103SOL    HW1 3327   0.791   4.332   0.988
 1103SOL    HW2 3328   0.704   4.454   1.053
 1104SOL     OW 3329   1.728   4.659   1.854
 1104SOL    HW1 3330   1.682   4.652   1.765
 1104SOL    HW2 3331   1.666   4.703   1.920
 1105SOL     OW 3332   0.307   3.787   0.618
 1105SOL    HW1 3333   0.296   3.881   0.651
 1105SOL    HW2 3334   0.302   3.724   0.695
 1106SOL     OW 3335   1.622   4.091   0.374
 1106SOL    HW1 3336   1.624   4.015   0.438
 1106SOL    HW2 3337   1.574   4.168   0.414
 1107SOL     OW 3338   1.540   3.998   0.125
 1107SOL    HW1 3339   1.479   3.923   0.148
 1107SOL    HW2 3340   1.562   4.050   0.208
 1108SOL     OW 3341   0.319   4.534   0.949
 1108SOL    HW1 3342   0.412   4.570   0.954
 1108SOL    HW2 3343   0.313   4.449   1.001
 1109SOL     OW 3344   0.339   4.233   1.006
 1109SOL    HW1 3345   0.287   4.150   0.989
 1109SOL    HW2 3346   0.416   4.238   0.942
 1110SOL     OW 3347   1.138   4.104   1.678
 1110SOL    HW1 3348   1.093   4.167   1.742
 1110SOL    HW2 3349   1.231   4.135   1.661
 1111SOL     OW 3350   1.160   3.931   1.477
 1111SOL    HW1 3351   1.160   3.995   1.554
 1111SOL    HW2 3352   1.188   3.979   1.394
 1112SOL     OW 3353   0.040   4.268   1.114
 1112SOL    HW1 3354   0.125   4.235   1.073
 1112SOL    HW2 3355   0.053   4.283   1.212
 1113SOL     OW 3356   0.189   4.244   1.722
 1113SOL    HW1 3357   0.248   4.204   1.652
 1113SOL    HW2 3358   0.131   4.315   1.681
 1114SOL     OW 3359   0.815   4.296   0.325
 1114SOL    HW1 3360   0.822   4.207   0.279
 1114SOL    HW2 3361   0.721   4.330   0.317
 1115SOL     OW 3362   1.657   4.328   1.206
 1115SOL    HW1 3363   1.619   4.259   1.268
 1115SOL    HW2 3364   1.739   4.292   1.162
 1116SOL     OW 3365   0.671   4.188   1.269
 1116SOL    HW1 3366   0.637   4.099   1.239
 1116SOL    HW2 3367   0.697   4.242   1.189
 1117SOL     OW 3368   0.473   4.224   0.191
 1117SOL    HW1 3369   0.534   4.304   0.195
 1117SOL    HW2 3370   0.378   4.255   0.198
 1118SOL     OW 3371   0.903   3.810   0.133
 1118SOL    HW1 3372   0.954   3.811   0.047
 1118SOL    HW2 3373   0.959   3.768   0.204
 1119SOL     OW 3374   1.726   3.859   0.523
 1119SOL    HW1 3375   1.799   3.842   0.456
 1119SOL    HW2 3376   1.695   3.772   0.561
 1120SOL     OW 3377   1.280   4.651   0.672
 1120SOL    HW1 3378   1.340   4.570   0.674
 1120SOL    HW2 3379   1.320   4.720   0.612
 1121SOL     OW 3380   1.841   3.899   0.963
 1121SOL    HW1 3381   1.880   3.814   0.927
 1121SOL    HW2 3382   1.743   3.901   0.944
 1122SOL     OW 3383   0.263   4.050   0.720
 1122SOL    HW1 3384   0.184   4.101   0.686
 1122SOL    HW2 3385   0.254   4.035   0.818
 1123SOL     OW 3386   1.014   3.960   0.971
 1123SOL    HW1 3387   1.006   3.924   0.878
 1123SOL    HW2 3388   1.012   3.884   1.036
 1124SOL     OW 3389   1.709   4.109   1.381
 1124SOL    HW1 3390   1.782   4.178   1.385
 1124SOL    HW2 3391   1.737   4.034   1.322
 1125SOL     OW 3392   0.105   4.737   1.726
 1125SOL    HW1 3393   0.028   4.704   1.780
 1125SOL    HW2 3394   0.190   4.707   1.768
 1126SOL     OW 3395   0.672   3.927   1.489
 1126SOL    HW1 3396   0.762   3.911   1.449
 1126SOL    HW2 3397   0.680   3.932   1.588
 1127SOL     OW 3398   0.075   4.069   0.033
 1127SOL    HW1 3399  -0.017   4.041   0.004
 1127SOL    HW2 3400   0.106   4.146  -0.023
 1128SOL     OW 3401   1.440   4.580   1.398
 1128SOL    HW1 3402   1.383   4.632   1.335
 1128SOL    HW2 3403   1.536   4.592   1.374
 1129SOL     OW 3404   0.072   3.890   0.318
 1129SOL    HW1 3405   0.055   3.973   0.264
 1129SOL    HW2 3406   0.162   3.853   0.296
 1130SOL     OW 3407   0.613   4.566   1.431
 1130SOL    HW1 3408   0.669   4.647   1.414
 1130SOL    HW2 3409   0.672   4.486   1.434
 1131SOL     OW 3410   0.716   4.289   1.708
 1131SOL    HW1 3411   0.735   4.354   1.782
 1131SOL    HW2 3412   0.776   4.209   1.717
 1132SOL     OW 3413   1.674   4.607   1.254
 1132SOL    HW1 3414   1.647   4.518   1.217
 1132SOL    HW2 3415   1.675   4.675   1.181
 1133SOL     OW 3416   1.225   4.049   0.449
 1133SOL    HW1 3417   1.290   3.975   0.438
 1133SOL    HW2 3418   1.245   4.099   0.533
 1134SOL     OW 3419   0.594   4.469   0.652
 1134SOL    HW1 3420   0.644   4.554   0.633
 1134SOL    HW2 3421   0.506   4.471   0.604
 1135SOL     OW 3422   1.777   4.066   1.642
 1135SOL    HW1 3423   1.760   4.097   1.548
 1135SOL    HW2 3424   1.693   4.029   1.680
 1136SOL     OW 3425   1.824   3.916   1.227
 1136SOL    HW1 3426   1.820   3.826   1.271
 1136SOL    HW2 3427   1.827   3.905   1.128
 1137SOL     OW 3428   0.428   4.148   0.520
 1137SOL    HW1 3429   0.458   4.076   0.458
 1137SOL    HW2 3430   0.389   4.108   0.603
 1138SOL     OW 3431   0.317   4.271   1.280
 1138SOL    HW1 3432   0.355   4.212   1.352
 1138SOL    HW2 3433   0.357   4.245   1.192
 1139SOL     OW 3434   1.424   3.938   1.112
 1139SOL    HW1 3435   1.476   3.873   1.167
 1139SOL    HW2 3436   1.375   4.001   1.173
 1140SOL     OW 3437   1.001   3.758   1.154
 1140SOL    HW1 3438   0.938   3.686   1.123
 1140SOL    HW2 3439   1.094   3.722   1.154
 1141SOL     OW 3440   1.352   3.776   0.168
 1141SOL    HW1 3441   1.387   3.735   0.084
 1141SOL    HW2 3442   1.262   3.738   0.188
 1142SOL     OW 3443   1.300   4.177   0.691
 1142SOL    HW1 3444   1.241   4.257   0.695
 1142SOL    HW2 3445   1.315   4.142   0.784
 1143SOL     OW 3446   1.593   3.945   0.882
 1143SOL    HW1 3447   1.509   3.944   0.936
 1143SOL    HW2 3448   1.595   4.028   0.826
 1144SOL     OW 3449   0.230   4.352   1.975
 1144SOL    HW1 3450   0.137   4.350   2.012
 1144SOL    HW2 3451   0.231   4.313   1.883
 1145SOL     OW 3452   0.225   3.999   2.858
 1145SOL    HW1 3453   0.260   3.982   2.950
 1145SOL    HW2 3454   0.137   3.954   2.846
 1146SOL     OW 3455   0.019   4.092   2.509
 1146SOL    HW1 3456  -0.063   4.135   2.548
 1146SOL    HW2 3457  -0.009   4.019   2.446
 1147SOL     OW 3458   1.135   4.427   2.579
 1147SOL    HW1 3459   1.192   4.505   2.554
 1147SOL    HW2 3460   1.075   4.453   2.655
 1148SOL     OW 3461   1.755   4.331   2.093
 1148SOL    HW1 3462   1.743   4.318   1.994
 1148SOL    HW2 3463   1.725   4.250   2.142
 1149SOL     OW 3464   0.850   4.522   3.685
 1149SOL    HW1 3465   0.846   4.598   3.750
 1149SOL    HW2 3466   0.872   4.558   3.594
 1150SOL     OW 3467   0.685   4.736   2.527
 1150SOL    HW1 3468   0.754   4.720   2.597
 1150SOL    HW2 3469   0.612   4.793   2.565
 1151SOL     OW 3470   0.438   4.116   3.361
 1151SOL    HW1 3471   0.520   4.060   3.370
 1151SOL    HW2 3472   0.357   4.058   3.365
 1152SOL     OW 3473   1.603   4.171   2.599
 1152SOL    HW1 3474   1.529   4.217   2.549
 1152SOL    HW2 3475   1.654   4.239   2.652
 1153SOL     OW 3476   1.594   3.838   3.342
 1153SOL    HW1 3477   1.576   3.905   3.270
 1153SOL    HW2 3478   1.591   3.884   3.431
 1154SOL     OW 3479   0.122   4.367   2.425
 1154SOL    HW1 3480   0.077   4.279   2.442
 1154SOL    HW2 3481   0.121   4.421   2.509
 1155SOL     OW 3482   0.113   4.461   3.459
 1155SOL    HW1 3483   0.201   4.448   3.504
 1155SOL    HW2 3484   0.100   4.558   3.437
 1156SOL     OW 3485   0.809   3.728   2.364
 1156SOL    HW1 3486   0.849   3.819   2.355
 1156SOL    HW2 3487   0.709   3.736   2.370
 1157SOL     OW 3488   0.317   3.975   3.663
 1157SOL    HW1 3489   0.388   4.046   3.669
 1157SOL    HW2 3490   0.229   4.014   3.691
 1158SOL     OW 3491   0.598   4.453   2.132
 1158SOL    HW1 3492   0.622   4.522   2.064
 1158SOL    HW2 3493   0.520   4.486   2.186
 1159SOL     OW 3494   1.281   4.069   2.806
 1159SOL    HW1 3495   1.195   4.019   2.793
 1159SOL    HW2 3496   1.343   4.015   2.862
 1160SOL     OW 3497   0.807   4.329   3.327
 1160SOL    HW1 3498   0.760   4.326   3.416
 1160SOL    HW2 3499   0.756   4.274   3.261
 1161SOL     OW 3500   1.394   4.193   3.536
 1161SOL    HW1 3501   1.374   4.236   3.624
 1161SOL    HW2 3502   1.472   4.131   3.545
 1162SOL     OW 3503   0.991   4.134   3.104
 1162SOL    HW1 3504   0.914   4.168   3.158
 1162SOL    HW2 3505   0.957   4.083   3.025
 1163SOL     OW 3506   1.041   4.425   2.291
 1163SOL    HW1 3507   1.067   4.421   2.387
 1163SOL    HW2 3508   0.956   4.374   2.277
 1164SOL     OW 3509   0.076   4.535   2.651
 1164SOL    HW1 3510   0.175   4.523   2.660
 1164SOL    HW2 3511   0.052   4.630   2.672
 1165SOL     OW 3512   0.865   4.072   2.057
 1165SOL    HW1 3513   0.924   4.135   2.008
 1165SOL    HW2 3514   0.884   3.978   2.028
 1166SOL     OW 3515   1.719   4.309   3.693
 1166SOL    HW1 3516   1.693   4.398   3.657
 1166SOL    HW2 3517   1.717   4.241   3.620
 1167SOL     OW 3518   0.550   3.920   2.747
 1167SOL    HW1 3519   0.545   3.915   2.847
 1167SOL    HW2 3520   0.552   4.016   2.718
 1168SOL     OW 3521   1.458   4.459   2.590
 1168SOL    HW1 3522   1.453   4.394   2.665
 1168SOL    HW2 3523   1.538   4.518   2.603
 1169SOL     OW 3524   0.202   4.009   3.360
 1169SOL    HW1 3525   0.122   4.069   3.347
 1169SOL    HW2 3526   0.192   3.960   3.446
 1170SOL     OW 3527   1.400   3.831   2.288
 1170SOL    HW1 3528   1.376   3.794   2.198
 1170SOL    HW2 3529   1.499   3.847   2.292
 1171SOL     OW 3530   0.382   4.424   2.342
 1171SOL    HW1 3531   0.427   4.334   2.339
 1171SOL    HW2 3532   0.288   4.413   2.375
 1172SOL     OW 3533   1.547   3.946   3.591
 1172SOL    HW1 3534   1.542   3.983   3.683
 1172SOL    HW2 3535   1.475   3.877   3.579
 1173SOL     OW 3536   0.614   3.846   1.979
 1173SOL    HW1 3537   0.712   3.824   1.986
 1173SOL    HW2 3538   0.583   3.829   1.886
 1174SOL     OW 3539   0.781   3.988   3.611
 1174SOL    HW1 3540   0.848   3.927   3.654
 1174SOL    HW2 3541   0.708   4.007   3.676
 1175SOL     OW 3542   1.351   4.314   3.295
 1175SOL    HW1 3543   1.379   4.271   3.380
 1175SOL    HW2 3544   1.376   4.410   3.296
 1176SOL     OW 3545   0.922   4.227   2.761
 1176SOL    HW1 3546   0.897   4.218   2.665
 1176SOL    HW2 3547   0.970   4.145   2.792
 1177SOL     OW 3548   0.539   3.788   2.374
 1177SOL    HW1 3549   0.458   3.789   2.432
 1177SOL    HW2 3550   0.542   3.871   2.319
 1178SOL     OW 3551   0.297   3.759   2.033
 1178SOL    HW1 3552   0.346   3.843   2.012
 1178SOL    HW2 3553   0.359   3.694   2.078
 1179SOL     OW 3554   0.935   3.960   2.342
 1179SOL    HW1 3555   0.887   4.001   2.264
 1179SOL    HW2 3556   1.034   3.958   2.323
 1180SOL     OW 3557   1.076   4.407   3.326
 1180SOL    HW1 3558   0.996   4.346   3.329
 1180SOL    HW2 3559   1.157   4.354   3.302
 1181SOL     OW 3560   1.032   4.273   1.878
 1181SOL    HW1 3561   0.991   4.355   1.839
 1181SOL    HW2 3562   1.096   4.299   1.951
 1182SOL     OW 3563   0.078   4.280   3.248
 1182SOL    HW1 3564   0.170   4.279   3.207
 1182SOL    HW2 3565   0.072   4.354   3.315
 1183SOL     OW 3566   0.561   3.946   3.009
 1183SOL    HW1 3567   0.599   3.862   3.046
 1183SOL    HW2 3568   0.473   3.965   3.053
 1184SOL     OW 3569   0.866   4.178   2.504
 1184SOL    HW1 3570   0.834   4.250   2.442
 1184SOL    HW2 3571   0.890   4.097   2.451
 1185SOL     OW 3572   1.017   3.763   2.615
 1185SOL    HW1 3573   0.945   3.768   2.546
 1185SOL    HW2 3574   0.993   3.694   2.684
 1186SOL     OW 3575   1.466   4.314   2.854
 1186SOL    HW1 3576   1.436   4.219   2.861
 1186SOL    HW2 3577   1.539   4.330   2.920
 1187SOL     OW 3578   1.857   4.557   2.239
 1187SOL    HW1 3579   1.899   4.493   2.303
 1187SOL    HW2 3580   1.819   4.506   2.161
 1188SOL     OW 3581   1.390   4.299   1.940
 1188SOL    HW1 3582   1.336   4.278   2.021
 1188SOL    HW2 3583   1.481   4.258   1.949
 1189SOL     OW 3584   0.527   3.980   2.190
 1189SOL    HW1 3585   0.554   3.921   2.115
 1189SOL    HW2 3586   0.527   4.075   2.159
 1190SOL     OW 3587   0.915   3.813   3.264
 1190SOL    HW1 3588   0.940   3.793   3.169
 1190SOL    HW2 3589   0.987   3.869   3.306
 1191SOL     OW 3590   0.705   4.774   2.230
 1191SOL    HW1 3591   0.691   4.781   2.329
 1191SOL    HW2 3592   0.789   4.723   2.212
 1192SOL     OW 3593   0.410   4.537   3.113
 1192SOL    HW1 3594   0.496   4.549   3.163
 1192SOL    HW2 3595   0.368   4.450   3.140
 1193SOL     OW 3596   1.274   4.110   3.124
 1193SOL    HW1 3597   1.295   4.184   3.188
 1193SOL    HW2 3598   1.185   4.127   3.081
 1194SOL     OW 3599   0.566   4.261   2.727
 1194SOL    HW1 3600   0.578   4.327   2.653
 1194SOL    HW2 3601   0.612   4.295   2.810
 1195SOL     OW 3602   1.582   4.363   2.334
 1195SOL    HW1 3603   1.551   4.424   2.407
 1195SOL    HW2 3604   1.632   4.415   2.265
 1196SOL     OW 3605   1.587   4.503   3.532
 1196SOL    HW1 3606   1.495   4.541   3.527
 1196SOL    HW2 3607   1.647   4.550   3.467
 1197SOL     OW 3608   1.013   3.829   3.632
 1197SOL    HW1 3609   1.019   3.914   3.580
 1197SOL    HW2 3610   1.045   3.753   3.575
 1198SOL     OW 3611   0.504   3.774   3.602
 1198SOL    HW1 3612   0.462   3.717   3.532
 1198SOL    HW2 3613   0.438   3.843   3.634
 1199SOL     OW 3614   1.360   4.586   2.907
 1199SOL    HW1 3615   1.285   4.586   2.841
 1199SOL    HW2 3616   1.397   4.494   2.916
 1200SOL     OW 3617   1.209   4.249   2.137
 1200SOL    HW1 3618   1.222   4.165   2.191
 1200SOL    HW2 3619   1.180   4.323   2.197
 1201SOL     OW 3620   0.307   3.937   3.093
 1201SOL    HW1 3621   0.284   3.974   3.183
 1201SOL    HW2 3622   0.277   3.842   3.087
 1202SOL     OW 3623   0.732   4.358   2.926
 1202SOL    HW1 3624   0.791   4.332   2.850
 1202SOL    HW2 3625   0.704   4.454   2.915
 1203SOL     OW 3626   1.728   4.659   3.716
 1203SOL    HW1 3627   1.682   4.652   3.627
 1203SOL    HW2 3628   1.666   4.703   3.782
 1204SOL     OW 3629   0.307   3.787   2.480
 1204SOL    HW1 3630   0.296   3.881   2.513
 1204SOL    HW2 3631   0.302   3.724   2.557
 1205SOL     OW 3632   1.622   4.091   2.236
 1205SOL    HW1 3633   1.624   4.015   2.300
 1205SOL    HW2 3634   1.574   4.168   2.276
 1206SOL     OW 3635   1.540   3.998   1.987
 1206SOL    HW1 3636   1.479   3.923   2.010
 1206SOL    HW2 3637   1.562   4.050   2.070
 1207SOL     OW 3638   0.319   4.534   2.811
 1207SOL    HW1 3639   0.412   4.570   2.816
 1207SOL    HW2 3640   0.313   4.449   2.863
 1208SOL     OW 3641   0.339   4.233   2.868
 1208SOL    HW1 3642   0.287   4.150   2.851
 1208SOL    HW2 3643   0.416   4.238   2.804
 1209SOL     OW 3644   1.138   4.104   3.540
 1209SOL    HW1 3645   1.093   4.167   3.604
 1209SOL    HW2 3646   1.231   4.135   3.523
 1210SOL     OW 3647   1.160   3.931   3.339
 1210SOL    HW1 3648   1.160   3.995   3.416
 1210SOL    HW2 3649   1.188   3.979   3.256
 1211SOL     OW 3650   0.040   4.268   2.976
 1211SOL    HW1 3651   0.125   4.235   2.935
 1211SOL    HW2 3652   0.053   4.283   3.074
 1212SOL     OW 3653   0.189   4.244   3.584
 1212SOL    HW1 3654   0.248   4.204   3.514
 1212SOL    HW2 3655   0.131   4.315   3.543
 1213SOL     OW 3656   0.815   4.296   2.187
 1213SOL    HW1 3657   0.822   4.207   2.141
 1213SOL    HW2 3658   0.721   4.330   2.179
 1214SOL     OW 3659   1.657   4.328   3.068
 1214SOL    HW1 3660   1.619   4.259   3.130
 1214SOL    HW2 3661   1.739   4.292   3.024
 1215SOL     OW 3662   0.671   4.188   3.131
 1215SOL    HW1 3663   0.637   4.099   3.101
 1215SOL    HW2 3664   0.697   4.242   3.051
 1216SOL     OW 3665   0.473   4.224   2.053
 1216SOL    HW1 3666   0.534   4.304   2.057
 1216SOL    HW2 3667   0.378   4.255   2.060
 1217SOL     OW 3668   1.726   3.859   2.385
 1217SOL    HW1 3669   1.799   3.842   2.318
 1217SOL    HW2 3670   1.695   3.772   2.423
 1218SOL     OW 3671   1.280   4.651   2.534
 1218SOL    HW1 3672   1.340   4.570   2.536
 1218SOL    HW2 3673   1.320   4.720   2.474
 1219SOL     OW 3674   1.841   3.899   2.825
 1219SOL    HW1 3675   1.880   3.814   2.789
 1219SOL    HW2 3676   1.743   3.901   2.806
 1220SOL     OW 3677   0.263   4.050   2.582
 1220SOL    HW1 3678   0.184   4.101   2.548
 1220SOL    HW2 3679   0.254   4.035   2.680
 1221SOL     OW 3680   0.916   4.634   2.153
 1221SOL    HW1 3681   0.979   4.672   2.085
 1221SOL    HW2 3682   0.956   4.551   2.192
 1222SOL     OW 3683   1.014   3.960   2.833
 1222SOL    HW1 3684   1.006   3.924   2.740
 1222SOL    HW2 3685   1.012   3.884   2.898
 1223SOL     OW 3686   1.709   4.109   3.243
 1223SOL    HW1 3687   1.782   4.178   3.247
 1223SOL    HW2 3688   1.737   4.034   3.184
 1224SOL     OW 3689   0.105   4.737   3.588
 1224SOL    HW1 3690   0.028   4.704   3.642
 1224SOL    HW2 3691   0.190   4.707   3.630
 1225SOL     OW 3692   0.672   3.927   3.351
 1225SOL    HW1 3693   0.762   3.911   3.311
 1225SOL    HW2 3694   0.680   3.932   3.450
 1226SOL     OW 3695   0.075   4.069   1.895
 1226SOL    HW1 3696  -0.017   4.041   1.866
 1226SOL    HW2 3697   0.106   4.146   1.839
 1227SOL     OW 3698   1.440   4.580   3.260
 1227SOL    HW1 3699   1.383   4.632   3.197
 1227SOL    HW2 3700   1.536   4.592   3.236
 1228SOL     OW 3701   0.072   3.890   2.180
 1228SOL    HW1 3702   0.055   3.973   2.126
 1228SOL    HW2 3703   0.162   3.853   2.158
 1229SOL     OW 3704   0.613   4.566   3.293
 1229SOL    HW1 3705   0.669   4.647   3.276
 1229SOL    HW2 3706   0.672   4.486   3.296
 1230SOL     OW 3707   0.716   4.289   3.570
 1230SOL    HW1 3708   0.735   4.354   3.644
 1230SOL    HW2 3709   0.776   4.209   3.579
 1231SOL     OW 3710   1.674   4.607   3.116
 1231SOL    HW1 3711   1.647   4.518   3.079
 1231SOL    HW2 3712   1.675   4.675   3.043
 1232SOL     OW 3713   1.225   4.049   2.311
 1232SOL    HW1 3714   1.290   3.975   2.300
 1232SOL    HW2 3715   1.245   4.099   2.395
 1233SOL     OW 3716   0.594   4.469   2.514
 1233SOL    HW1 3717   0.644   4.554   2.495
 1233SOL    HW2 3718   0.506   4.471   2.466
 1234SOL     OW 3719   1.777   4.066   3.504
 1234SOL    HW1 3720   1.760   4.097   3.410
 1234SOL    HW2 3721   1.693   4.029   3.542
 1235SOL     OW 3722   1.824   3.916   3.089
 1235SOL    HW1 3723   1.820   3.826   3.133
 1235SOL    HW2 3724   1.827   3.905   2.990
 1236SOL     OW 3725   0.428   4.148   2.382
 1236SOL    HW1 3726   0.458   4.076   2.320
 1236SOL    HW2 3727   0.389   4.108   2.465
 1237SOL     OW 3728   0.317   4.271   3.142
 1237SOL    HW1 3729   0.355   4.212   3.214
 1237SOL    HW2 3730   0.357   4.245   3.054
 1238SOL     OW 3731   1.424   3.938   2.974
 1238SOL    HW1 3732   1.476   3.873   3.029
 1238SOL    HW2 3733   1.375   4.001   3.035
 1239SOL     OW 3734   1.001   3.758   3.016
 1239SOL    HW1 3735   0.938   3.686   2.985
 1239SOL    HW2 3736   1.094   3.722   3.016
 1240SOL     OW 3737   1.352   3.776   2.030
 1240SOL    HW1 3738   1.387   3.735   1.946
 1240SOL    HW2 3739   1.262   3.738   2.050
 1241SOL     OW 3740   1.300   4.177   2.553
 1241SOL    HW1 3741   1.241   4.257   2.557
 1241SOL    HW2 3742   1.315   4.142   2.646
 1242SOL     OW 3743   1.593   3.945   2.744
 1242SOL    HW1 3744   1.509   3.944   2.798
 1242SOL    HW2 3745   1.595   4.028   2.688
 1243SOL     OW 3746   0.230   4.352   3.837
 1243SOL    HW1 3747   0.137   4.350   3.874
 1243SOL    HW2 3748   0.231   4.313   3.745
 1244SOL     OW 3749   0.019   4.092   4.371
 1244SOL    HW1 3750  -0.063   4.135   4.410
 1244SOL    HW2 3751  -0.009   4.019   4.308
 1245SOL     OW 3752   1.135   4.427   4.441
 1245SOL    HW1 3753   1.192   4.505   4.416
 1245SOL    HW2 3754   1.075   4.453   4.517
 1246SOL     OW 3755   1.755   4.331   3.955
 1246SOL    HW1 3756   1.743   4.318   3.856
 1246SOL    HW2 3757   1.725   4.250   4.004
 1247SOL     OW 3758   0.685   4.736   4.389
 1247SOL    HW1 3759   0.754   4.720   4.459
 1247SOL    HW2 3760   0.612   4.793   4.427
 1248SOL     OW 3761   1.603   4.171   4.461
 1248SOL    HW1 3762   1.529   4.217   4.411
 1248SOL    HW2 3763   1.654   4.239   4.514
 1249SOL     OW 3764   0.122   4.367   4.287
 1249SOL    HW1 3765   0.077   4.279   4.304
 1249SOL    HW2 3766   0.121   4.421   4.371
 1250SOL     OW 3767   0.809   3.728   4.226
 1250SOL    HW1 3768   0.849   3.819   4.217
 1250SOL    HW2 3769   0.709   3.736   4.232
 1251SOL     OW 3770   0.598   4.453   3.994
 1251SOL    HW1 3771   0.622   4.522   3.926
 1251SOL    HW2 3772   0.520   4.486   4.048
 1252SOL     OW 3773   1.281   4.069   4.668
 1252SOL    HW1 3774   1.195   4.019   4.655
 1252SOL    HW2 3775   1.343   4.015   4.724
 1253SOL     OW 3776   1.041   4.425   4.153
 1253SOL    HW1 3777   1.067   4.421   4.249
 1253SOL    HW2 3778   0.956   4.374   4.139
 1254SOL     OW 3779   0.076   4.535   4.513
 1254SOL    HW1 3780   0.175   4.523   4.522
 1254SOL    HW2 3781   0.052   4.630   4.534
 1255SOL     OW 3782   0.865   4.072   3.919
 1255SOL    HW1 3783   0.924   4.135   3.870
 1255SOL    HW2 3784   0.884   3.978   3.890
 1256SOL     OW 3785   0.550   3.920   4.609
 1256SOL    HW1 3786   0.545   3.915   4.709
 1256SOL    HW2 3787   0.552   4.016   4.580
 1257SOL     OW 3788   1.458   4.459   4.452
 1257SOL    HW1 3789   1.453   4.394   4.527
 1257SOL    HW2 3790   1.538   4.518   4.465
 1258SOL     OW 3791   1.400   3.831   4.150
 1258SOL    HW1 3792   1.376   3.794   4.060
 1258SOL    HW2 3793   1.499   3.847   4.154
 1259SOL     OW 3794   0.382   4.424   4.204
 1259SOL    HW1 3795   0.427   4.334   4.201
 1259SOL    HW2 3796   0.288   4.413   4.237
 1260SOL     OW 3797   0.614   3.846   3.841
 1260SOL    HW1 3798   0.712   3.824   3.848
 1260SOL    HW2 3799   0.583   3.829   3.748
 1261SOL     OW 3800   0.539   3.788   4.236
 1261SOL    HW1 3801   0.458   3.789   4.294
 1261SOL    HW2 3802   0.542   3.871   4.181
 1262SOL     OW 3803   0.297   3.759   3.895
 1262SOL    HW1 3804   0.346   3.843   3.874
 1262SOL    HW2 3805   0.359   3.694   3.940
 1263SOL     OW 3806   0.935   3.960   4.204
 1263SOL    HW1 3807   0.887   4.001   4.126
 1263SOL    HW2 3808   1.034   3.958   4.185
 1264SOL     OW 3809   0.459   4.876   4.465
 1264SOL    HW1 3810   0.388   4.849   4.530
 1264SOL    HW2 3811   0.433   4.848   4.372
 1265SOL     OW 3812   1.032   4.273   3.740
 1265SOL    HW1 3813   0.991   4.355   3.701
 1265SOL    HW2 3814   1.096   4.299   3.813
 1266SOL     OW 3815   0.866   4.178   4.366
 1266SOL    HW1 3816   0.834   4.250   4.304
 1266SOL    HW2 3817   0.890   4.097   4.313
 1267SOL     OW 3818   1.017   3.763   4.477
 1267SOL    HW1 3819   0.945   3.768   4.408
 1267SOL    HW2 3820   0.993   3.694   4.546
 1268SOL     OW 3821   1.857   4.557   4.101
 1268SOL    HW1 3822   1.899   4.493   4.165
 1268SOL    HW2 3823   1.819   4.506   4.023
 1269SOL     OW 3824   1.390   4.299   3.802
 1269SOL    HW1 3825   1.336   4.278   3.883
 1269SOL    HW2 3826   1.481   4.258   3.811
 1270SOL     OW 3827   0.527   3.980   4.052
 1270SOL    HW1 3828   0.554   3.921   3.977
 1270SOL    HW2 3829   0.527   4.075   4.021
 1271SOL     OW 3830   0.705   4.774   4.092
 1271SOL    HW1 3831   0.691   4.781   4.191
 1271SOL    HW2 3832   0.789   4.723   4.074
 1272SOL     OW 3833   0.566   4.261   4.589
 1272SOL    HW1 3834   0.578   4.327   4.515
 1272SOL    HW2 3835   0.612   4.295   4.672
 1273SOL     OW 3836   1.582   4.363   4.196
 1273SOL    HW1 3837   1.551   4.424   4.269
 1273SOL    HW2 3838   1.632   4.415   4.127
 1274SOL     OW 3839   1.209   4.249   3.999
 1274SOL    HW1 3840   1.222   4.165   4.053
 1274SOL    HW2 3841   1.180   4.323   4.059
 1275SOL     OW 3842   0.307   3.787   4.342
 1275SOL    HW1 3843   0.296   3.881   4.375
 1275SOL    HW2 3844   0.302   3.724   4.419
 1276SOL     OW 3845   1.622   4.091   4.098
 1276SOL    HW1 3846   1.624   4.015   4.162
 1276SOL    HW2 3847   1.574   4.168   4.138
 1277SOL     OW 3848   1.540   3.998   3.849
 1277SOL    HW1 3849   1.479   3.923   3.872
 1277SOL    HW2 3850   1.562   4.050   3.932
 1278SOL     OW 3851   0.815   4.296   4.049
 1278SOL    HW1 3852   0.822   4.207   4.003
 1278SOL    HW2 3853   0.721   4.330   4.041
 1279SOL     OW 3854   0.473   4.224   3.915
 1279SOL    HW1 3855   0.534   4.304   3.919
 1279SOL    HW2 3856   0.378   4.255   3.922
 1280SOL     OW 3857   1.726   3.859   4.247
 1280SOL    HW1 3858   1.799   3.842   4.180
 1280SOL    HW2 3859   1.695   3.772   4.285
 1281SOL     OW 3860   1.280   4.651   4.396
 1281SOL    HW1 3861   1.340   4.570   4.398
 1281SOL    HW2 3862   1.320   4.720   4.336
 1282SOL     OW 3863   1.841   3.899   4.687
 1282SOL    HW1 3864   1.880   3.814   4.651
 1282SOL    HW2 3865   1.743   3.901   4.668
 1283SOL     OW 3866   0.263   4.050   4.444
 1283SOL    HW1 3867   0.184   4.101   4.410
 1283SOL    HW2 3868   0.254   4.035   4.542
 1284SOL     OW 3869   0.916   4.634   4.015
 1284SOL    HW1 3870   0.979   4.672   3.947
 1284SOL    HW2 3871   0.956   4.551   4.054
 1285SOL     OW 3872   0.075   4.069   3.757
 1285SOL    HW1 3873  -0.017   4.041   3.728
 1285SOL    HW2 3874   0.106   4.146   3.701
 1286SOL     OW 3875   0.072   3.890   4.042
 1286SOL    HW1 3876   0.055   3.973   3.988
 1286SOL    HW2 3877   0.162   3.853   4.020
 1287SOL     OW 3878   1.225   4.049   4.173
 1287SOL    HW1 3879   1.290   3.975   4.162
 1287SOL    HW2 3880   1.245   4.099   4.257
 1288SOL     OW 3881   0.594   4.469   4.376
 1288SOL    HW1 3882   0.644   4.554   4.357
 1288SOL    HW2 3883   0.506   4.471   4.328
 1289SOL     OW 3884   0.428   4.148   4.244
 1289SOL    HW1 3885   0.458   4.076   4.182
 1289SOL    HW2 3886   0.389   4.108   4.327
 1290SOL     OW 3887   1.352   3.776   3.892
 1290SOL    HW1 3888   1.387   3.735   3.808
 1290SOL    HW2 3889   1.262   3.738   3.912
 1291SOL     OW 3890   1.300   4.177   4.415
 1291SOL    HW1 3891   1.241   4.257   4.419
 1291SOL    HW2 3892   1.315   4.142   4.508
 1292SOL     OW 3893   2.092   0.628   0.113
 1292SOL    HW1 3894   1.999   0.626   0.150
 1292SOL    HW2 3895   2.093   0.589   0.021
 1293SOL     OW 3896   2.087   0.275   0.996
 1293SOL    HW1 3897   2.122   0.258   1.088
 1293SOL    HW2 3898   1.999   0.230   0.984
 1294SOL     OW 3899   1.881   0.368   0.647
 1294SOL    HW1 3900   1.799   0.411   0.686
 1294SOL    HW2 3901   1.853   0.295   0.584
 1295SOL     OW 3902   2.431   1.275   1.165
 1295SOL    HW1 3903   2.338   1.268   1.128
 1295SOL    HW2 3904   2.442   1.364   1.209
 1296SOL     OW 3905   3.417   1.511   0.703
 1296SOL    HW1 3906   3.360   1.495   0.784
 1296SOL    HW2 3907   3.358   1.521   0.623
 1297SOL     OW 3908   2.997   0.703   0.717
 1297SOL    HW1 3909   3.054   0.781   0.692
 1297SOL    HW2 3910   2.937   0.729   0.793
 1298SOL     OW 3911   3.617   0.607   0.231
 1298SOL    HW1 3912   3.605   0.594   0.132
 1298SOL    HW2 3913   3.587   0.526   0.280
 1299SOL     OW 3914   2.630   1.144   1.023
 1299SOL    HW1 3915   2.552   1.161   1.083
 1299SOL    HW2 3916   2.664   1.231   0.987
 1300SOL     OW 3917   2.712   0.798   1.823
 1300SOL    HW1 3918   2.708   0.874   1.888
 1300SOL    HW2 3919   2.734   0.834   1.732
 1301SOL     OW 3920   2.547   1.012   0.665
 1301SOL    HW1 3921   2.616   0.996   0.735
 1301SOL    HW2 3922   2.474   1.069   0.703
 1302SOL     OW 3923   2.548   1.161   1.803
 1302SOL    HW1 3924   2.608   1.240   1.817
 1302SOL    HW2 3925   2.462   1.192   1.762
 1303SOL     OW 3926   2.197   1.435   1.061
 1303SOL    HW1 3927   2.119   1.404   1.008
 1303SOL    HW2 3928   2.255   1.493   1.004
 1304SOL     OW 3929   3.322   1.505   1.339
 1304SOL    HW1 3930   3.346   1.599   1.365
 1304SOL    HW2 3931   3.306   1.451   1.421
 1305SOL     OW 3932   2.300   0.392   1.499
 1305SOL    HW1 3933   2.382   0.336   1.508
 1305SOL    HW2 3934   2.219   0.334   1.503
 1306SOL     OW 3935   3.465   0.447   0.737
 1306SOL    HW1 3936   3.391   0.493   0.687
 1306SOL    HW2 3937   3.516   0.515   0.790
 1307SOL     OW 3938   2.093   1.713   0.483
 1307SOL    HW1 3939   2.127   1.790   0.537
 1307SOL    HW2 3940   2.137   1.713   0.393
 1308SOL     OW 3941   2.989   1.341   1.690
 1308SOL    HW1 3942   3.036   1.341   1.778
 1308SOL    HW2 3943   2.941   1.254   1.679
 1309SOL     OW 3944   2.092   1.434   0.538
 1309SOL    HW1 3945   2.066   1.530   0.538
 1309SOL    HW2 3946   2.021   1.380   0.583
 1310SOL     OW 3947   2.102   1.091   0.886
 1310SOL    HW1 3948   2.116   1.007   0.938
 1310SOL    HW2 3949   2.047   1.155   0.941
 1311SOL     OW 3950   2.482   1.786   1.439
 1311SOL    HW1 3951   2.390   1.769   1.474
 1311SOL    HW2 3952   2.510   1.878   1.465
 1312SOL     OW 3953   2.468   0.964   0.123
 1312SOL    HW1 3954   2.475   1.048   0.069
 1312SOL    HW2 3955   2.514   0.977   0.211
 1313SOL     OW 3956   3.456   0.114   1.480
 1313SOL    HW1 3957   3.438   0.181   1.408
 1313SOL    HW2 3958   3.453   0.160   1.569
 1314SOL     OW 3959   1.984   0.643   0.563
 1314SOL    HW1 3960   1.939   0.555   0.580
 1314SOL    HW2 3961   1.983   0.697   0.647
 1315SOL     OW 3962   3.704   1.767   0.359
 1315SOL    HW1 3963   3.758   1.738   0.439
 1315SOL    HW2 3964   3.734   1.857   0.330
 1316SOL     OW 3965   1.889   1.596   0.117
 1316SOL    HW1 3966   1.870   1.500   0.138
 1316SOL    HW2 3967   1.856   1.654   0.192
 1317SOL     OW 3968   3.551   0.922   0.612
 1317SOL    HW1 3969   3.646   0.893   0.620
 1317SOL    HW2 3970   3.543   0.987   0.537
 1318SOL     OW 3971   3.503   1.108   0.432
 1318SOL    HW1 3972   3.589   1.110   0.380
 1318SOL    HW2 3973   3.517   1.155   0.520
 1319SOL     OW 3974   1.975   0.737   1.597
 1319SOL    HW1 3975   2.063   0.724   1.642
 1319SOL    HW2 3976   1.962   0.834   1.575
 1320SOL     OW 3977   2.475   1.365   0.726
 1320SOL    HW1 3978   2.426   1.278   0.735
 1320SOL    HW2 3979   2.452   1.408   0.639
 1321SOL     OW 3980   3.155   1.228   1.423
 1321SOL    HW1 3981   3.192   1.155   1.365
 1321SOL    HW2 3982   3.207   1.233   1.508
 1322SOL     OW 3983   2.671   0.004   0.502
 1322SOL    HW1 3984   2.711   0.095   0.493
 1322SOL    HW2 3985   2.571   0.012   0.508
 1323SOL     OW 3986   2.059   0.976   1.264
 1323SOL    HW1 3987   2.148   0.931   1.250
 1323SOL    HW2 3988   1.986   0.911   1.245
 1324SOL     OW 3989   3.387   0.999   0.190
 1324SOL    HW1 3990   3.324   0.923   0.203
 1324SOL    HW2 3991   3.435   1.017   0.276
 1325SOL     OW 3992   3.049   1.792   1.616
 1325SOL    HW1 3993   3.073   1.852   1.540
 1325SOL    HW2 3994   3.056   1.697   1.586
 1326SOL     OW 3995   2.179   0.251   1.801
 1326SOL    HW1 3996   2.250   0.322   1.807
 1326SOL    HW2 3997   2.091   0.290   1.829
 1327SOL     OW 3998   3.328   1.417   0.953
 1327SOL    HW1 3999   3.269   1.423   1.033
 1327SOL    HW2 4000   3.313   1.329   0.907
 1328SOL     OW 4001   3.529   1.714   0.572
 1328SOL    HW1 4002   3.488   1.691   0.484
 1328SOL    HW2 4003   3.511   1.640   0.637
 1329SOL     OW 4004   2.460   0.729   0.270
 1329SOL    HW1 4005   2.484   0.798   0.202
 1329SOL    HW2 4006   2.382   0.762   0.324
 1330SOL     OW 4007   3.143   0.345   0.944
 1330SOL    HW1 4008   3.057   0.295   0.931
 1330SOL    HW2 4009   3.205   0.291   1.000
 1331SOL     OW 4010   3.438   1.662   0.307
 1331SOL    HW1 4011   3.527   1.708   0.310
 1331SOL    HW2 4012   3.417   1.638   0.212
 1332SOL     OW 4013   2.669   0.605   1.465
 1332SOL    HW1 4014   2.622   0.602   1.554
 1332SOL    HW2 4015   2.618   0.550   1.399
 1333SOL     OW 4016   3.256   0.469   1.674
 1333SOL    HW1 4017   3.236   0.512   1.762
 1333SOL    HW2 4018   3.334   0.407   1.683
 1334SOL     OW 4019   2.835   0.890   1.572
 1334SOL    HW1 4020   2.881   0.806   1.543
 1334SOL    HW2 4021   2.779   0.924   1.497
 1335SOL     OW 4022   2.853   0.410   1.242
 1335SOL    HW1 4023   2.776   0.444   1.296
 1335SOL    HW2 4024   2.819   0.359   1.163
 1336SOL     OW 4025   2.903   0.701   0.429
 1336SOL    HW1 4026   2.929   0.697   0.525
 1336SOL    HW2 4027   2.818   0.650   0.415
 1337SOL     OW 4028   1.938   0.811   0.789
 1337SOL    HW1 4029   2.037   0.799   0.798
 1337SOL    HW2 4030   1.914   0.906   0.810
 1338SOL     OW 4031   1.992   1.821   1.571
 1338SOL    HW1 4032   1.982   1.806   1.670
 1338SOL    HW2 4033   1.906   1.857   1.535
 1339SOL     OW 4034   2.727   0.348   0.195
 1339SOL    HW1 4035   2.786   0.411   0.146
 1339SOL    HW2 4036   2.746   0.254   0.166
 1340SOL     OW 4037   3.581   0.585   1.831
 1340SOL    HW1 4038   3.555   0.674   1.795
 1340SOL    HW2 4039   3.579   0.517   1.758
 1341SOL     OW 4040   3.224   1.144   0.545
 1341SOL    HW1 4041   3.307   1.115   0.497
 1341SOL    HW2 4042   3.175   1.211   0.489
 1342SOL     OW 4043   2.412   0.196   0.885
 1342SOL    HW1 4044   2.407   0.191   0.985
 1342SOL    HW2 4045   2.414   0.292   0.856
 1343SOL     OW 4046   2.870   1.456   0.477
 1343SOL    HW1 4047   2.824   1.528   0.425
 1343SOL    HW2 4048   2.866   1.476   0.575
 1344SOL     OW 4049   2.213   1.801   0.853
 1344SOL    HW1 4050   2.263   1.715   0.859
 1344SOL    HW2 4051   2.278   1.878   0.850
 1345SOL     OW 4052   3.657   1.066   0.873
 1345SOL    HW1 4053   3.595   1.051   0.797
 1345SOL    HW2 4054   3.605   1.077   0.958
 1346SOL     OW 4055   3.089   1.550   1.506
 1346SOL    HW1 4056   3.095   1.473   1.570
 1346SOL    HW2 4057   3.037   1.524   1.426
 1347SOL     OW 4058   2.183   0.943   0.242
 1347SOL    HW1 4059   2.265   0.982   0.200
 1347SOL    HW2 4060   2.156   0.861   0.193
 1348SOL     OW 4061   3.320   0.735   0.728
 1348SOL    HW1 4062   3.315   0.670   0.803
 1348SOL    HW2 4063   3.400   0.794   0.741
 1349SOL     OW 4064   2.323   1.266   1.727
 1349SOL    HW1 4065   2.273   1.267   1.641
 1349SOL    HW2 4066   2.260   1.248   1.803
 1350SOL     OW 4067   2.973   1.776   0.237
 1350SOL    HW1 4068   2.913   1.714   0.287
 1350SOL    HW2 4069   3.004   1.732   0.152
 1351SOL     OW 4070   2.064   0.285   1.498
 1351SOL    HW1 4071   1.984   0.345   1.485
 1351SOL    HW2 4072   2.054   0.236   1.584
 1352SOL     OW 4073   3.494   1.377   0.081
 1352SOL    HW1 4074   3.462   1.471   0.071
 1352SOL    HW2 4075   3.418   1.314   0.069
 1353SOL     OW 4076   2.326   1.743   0.323
 1353SOL    HW1 4077   2.359   1.782   0.409
 1353SOL    HW2 4078   2.402   1.736   0.258
 1354SOL     OW 4079   3.262   0.107   0.426
 1354SOL    HW1 4080   3.238   0.070   0.336
 1354SOL    HW2 4081   3.361   0.123   0.430
 1355SOL     OW 4082   2.111   1.785   1.241
 1355SOL    HW1 4083   2.168   1.720   1.291
 1355SOL    HW2 4084   2.095   1.752   1.148
 1356SOL     OW 4085   2.802   1.698   0.904
 1356SOL    HW1 4086   2.882   1.641   0.925
 1356SOL    HW2 4087   2.753   1.658   0.827
 1357SOL     OW 4088   2.244   0.700   0.480
 1357SOL    HW1 4089   2.289   0.610   0.477
 1357SOL    HW2 4090   2.150   0.689   0.513
 1358SOL     OW 4091   3.409   0.222   1.729
 1358SOL    HW1 4092   3.404   0.259   1.821
 1358SOL    HW2 4093   3.337   0.153   1.717
 1359SOL     OW 4094   2.476   0.122   0.117
 1359SOL    HW1 4095   2.574   0.100   0.124
 1359SOL    HW2 4096   2.445   0.105   0.024
 1360SOL     OW 4097   2.643   0.264   1.749
 1360SOL    HW1 4098   2.710   0.203   1.792
 1360SOL    HW2 4099   2.570   0.283   1.814
 1361SOL     OW 4100   2.750   1.514   1.195
 1361SOL    HW1 4101   2.727   1.489   1.101
 1361SOL    HW2 4102   2.811   1.445   1.234
 1362SOL     OW 4103   3.213   0.590   1.433
 1362SOL    HW1 4104   3.241   0.547   1.518
 1362SOL    HW2 4105   3.238   0.686   1.434
 1363SOL     OW 4106   2.665   1.402   0.924
 1363SOL    HW1 4107   2.755   1.416   0.882
 1363SOL    HW2 4108   2.594   1.404   0.853
 1364SOL     OW 4109   2.784   0.503   0.899
 1364SOL    HW1 4110   2.759   0.494   0.803
 1364SOL    HW2 4111   2.832   0.421   0.930
 1365SOL     OW 4112   2.401   0.064   0.512
 1365SOL    HW1 4113   2.320   0.065   0.570
 1365SOL    HW2 4114   2.404   0.147   0.457
 1366SOL     OW 4115   3.296   1.188   0.041
 1366SOL    HW1 4116   3.328   1.112   0.098
 1366SOL    HW2 4117   3.204   1.215   0.071
 1367SOL     OW 4118   2.159   0.035   0.171
 1367SOL    HW1 4119   2.208   0.119   0.150
 1367SOL    HW2 4120   2.221  -0.030   0.216
 1368SOL     OW 4121   2.797   0.236   0.480
 1368SOL    HW1 4122   2.749   0.277   0.402
 1368SOL    HW2 4123   2.896   0.234   0.461
 1369SOL     OW 4124   2.938   0.683   1.464
 1369SOL    HW1 4125   2.858   0.622   1.467
 1369SOL    HW2 4126   3.019   0.630   1.440
 1370SOL     OW 4127   3.089   1.570   0.793
 1370SOL    HW1 4128   3.110   1.644   0.728
 1370SOL    HW2 4129   3.157   1.570   0.866
 1371SOL     OW 4130   2.321   1.152   0.741
 1371SOL    HW1 4131   2.250   1.125   0.806
 1371SOL    HW2 4132   2.295   1.124   0.648
 1372SOL     OW 4133   3.133   1.797   0.591
 1372SOL    HW1 4134   3.177   1.861   0.527
 1372SOL    HW2 4135   3.083   1.849   0.661
 1373SOL     OW 4136   2.894   0.549   0.016
 1373SOL    HW1 4137   2.853   0.631  -0.023
 1373SOL    HW2 4138   2.958   0.575   0.089
 1374SOL     OW 4139   1.940   0.556   1.386
 1374SOL    HW1 4140   2.032   0.555   1.345
 1374SOL    HW2 4141   1.934   0.630   1.453
 1375SOL     OW 4142   2.423   0.222   1.147
 1375SOL    HW1 4143   2.461   0.138   1.184
 1375SOL    HW2 4144   2.335   0.241   1.191
 1376SOL     OW 4145   2.728   0.454   0.642
 1376SOL    HW1 4146   2.696   0.526   0.580
 1376SOL    HW2 4147   2.752   0.373   0.589
 1377SOL     OW 4148   2.879   0.039   0.753
 1377SOL    HW1 4149   2.807   0.044   0.684
 1377SOL    HW2 4150   2.855  -0.030   0.822
 1378SOL     OW 4151   3.291   1.173   0.867
 1378SOL    HW1 4152   3.236   1.089   0.860
 1378SOL    HW2 4153   3.317   1.202   0.775
 1379SOL     OW 4154   3.328   0.590   0.992
 1379SOL    HW1 4155   3.298   0.495   0.999
 1379SOL    HW2 4156   3.401   0.606   1.058
 1380SOL     OW 4157   3.719   0.833   0.377
 1380SOL    HW1 4158   3.761   0.769   0.441
 1380SOL    HW2 4159   3.681   0.782   0.299
 1381SOL     OW 4160   2.350   1.385   0.174
 1381SOL    HW1 4161   2.263   1.370   0.221
 1381SOL    HW2 4162   2.333   1.411   0.079
 1382SOL     OW 4163   3.526   1.280   0.657
 1382SOL    HW1 4164   3.625   1.288   0.671
 1382SOL    HW2 4165   3.481   1.364   0.688
 1383SOL     OW 4166   3.252   0.575   0.078
 1383SOL    HW1 4167   3.198   0.554   0.159
 1383SOL    HW2 4168   3.343   0.534   0.087
 1384SOL     OW 4169   2.389   0.256   0.328
 1384SOL    HW1 4170   2.416   0.197   0.253
 1384SOL    HW2 4171   2.389   0.351   0.297
 1385SOL     OW 4172   3.616   1.223   1.588
 1385SOL    HW1 4173   3.707   1.184   1.575
 1385SOL    HW2 4174   3.624   1.319   1.612
 1386SOL     OW 4175   2.926   1.347   1.340
 1386SOL    HW1 4176   2.846   1.324   1.395
 1386SOL    HW2 4177   3.009   1.321   1.389
 1387SOL     OW 4178   3.454   1.629   1.625
 1387SOL    HW1 4179   3.481   1.663   1.535
 1387SOL    HW2 4180   3.533   1.591   1.671
 1388SOL     OW 4181   2.973   1.195   1.100
 1388SOL    HW1 4182   2.933   1.239   1.181
 1388SOL    HW2 4183   2.932   1.232   1.017
 1389SOL     OW 4184   3.500   1.099   1.079
 1389SOL    HW1 4185   3.505   1.180   1.138
 1389SOL    HW2 4186   3.414   1.101   1.028
 1390SOL     OW 4187   2.777   0.089   1.402
 1390SOL    HW1 4188   2.802   0.069   1.307
 1390SOL    HW2 4189   2.849   0.145   1.444
 1391SOL     OW 4190   2.842   1.116   1.719
 1391SOL    HW1 4191   2.743   1.122   1.729
 1391SOL    HW2 4192   2.865   1.036   1.663
 1392SOL     OW 4193   2.567   1.050   0.368
 1392SOL    HW1 4194   2.553   1.057   0.467
 1392SOL    HW2 4195   2.651   0.999   0.350
 1393SOL     OW 4196   2.272   0.813   1.251
 1393SOL    HW1 4197   2.358   0.825   1.301
 1393SOL    HW2 4198   2.230   0.726   1.278
 1394SOL     OW 4199   3.136   0.386   1.262
 1394SOL    HW1 4200   3.157   0.460   1.326
 1394SOL    HW2 4201   3.047   0.403   1.219
 1395SOL     OW 4202   1.926   1.564   1.331
 1395SOL    HW1 4203   1.880   1.646   1.297
 1395SOL    HW2 4204   2.024   1.583   1.340
 1396SOL     OW 4205   2.229   1.100   0.501
 1396SOL    HW1 4206   2.222   1.183   0.445
 1396SOL    HW2 4207   2.233   1.020   0.441
 1397SOL     OW 4208   2.428   0.537   0.865
 1397SOL    HW1 4209   2.440   0.603   0.791
 1397SOL    HW2 4210   2.474   0.571   0.948
 1398SOL     OW 4211   3.114   1.348   0.388
 1398SOL    HW1 4212   3.164   1.425   0.428
 1398SOL    HW2 4213   3.019   1.350   0.420
 1399SOL     OW 4214   3.134   1.445   1.142
 1399SOL    HW1 4215   3.181   1.458   1.229
 1399SOL    HW2 4216   3.068   1.371   1.151
 1400SOL     OW 4217   3.444   0.639   0.472
 1400SOL    HW1 4218   3.413   0.700   0.545
 1400SOL    HW2 4219   3.494   0.691   0.403
 1401SOL     OW 4220   2.216   1.510   1.329
 1401SOL    HW1 4221   2.195   1.466   1.242
 1401SOL    HW2 4222   2.313   1.536   1.332
 1402SOL     OW 4223   2.264   0.751   1.598
 1402SOL    HW1 4224   2.332   0.806   1.551
 1402SOL    HW2 4225   2.304   0.663   1.625
 1403SOL     OW 4226   3.449   0.779   1.670
 1403SOL    HW1 4227   3.357   0.817   1.665
 1403SOL    HW2 4228   3.509   0.826   1.605
 1404SOL     OW 4229   2.875   0.105   1.770
 1404SOL    HW1 4230   2.881   0.190   1.718
 1404SOL    HW2 4231   2.907   0.029   1.713
 1405SOL     OW 4232   2.366   0.050   1.740
 1405SOL    HW1 4233   2.324  -0.007   1.670
 1405SOL    HW2 4234   2.300   0.119   1.772
 1406SOL     OW 4235   2.435   0.870   1.029
 1406SOL    HW1 4236   2.479   0.959   1.020
 1406SOL    HW2 4237   2.372   0.870   1.106
 1407SOL     OW 4238   3.222   0.862   1.045
 1407SOL    HW1 4239   3.147   0.862   0.979
 1407SOL    HW2 4240   3.259   0.770   1.054
 1408SOL     OW 4241   3.071   0.525   0.275
 1408SOL    HW1 4242   3.084   0.441   0.329
 1408SOL    HW2 4243   3.042   0.599   0.335
 1409SOL     OW 4244   2.169   0.213   1.231
 1409SOL    HW1 4245   2.146   0.250   1.321
 1409SOL    HW2 4246   2.139   0.118   1.225
 1410SOL     OW 4247   1.899   1.310   1.282
 1410SOL    HW1 4248   1.952   1.261   1.350
 1410SOL    HW2 4249   1.921   1.408   1.287
 1411SOL     OW 4250   2.594   0.634   1.064
 1411SOL    HW1 4251   2.653   0.608   0.988
 1411SOL    HW2 4252   2.566   0.730   1.053
 1412SOL     OW 4253   3.590   0.935   1.854
 1412SOL    HW1 4254   3.544   0.928   1.765
 1412SOL    HW2 4255   3.528   0.979   1.920
 1413SOL     OW 4256   2.169   0.063   0.618
 1413SOL    HW1 4257   2.158   0.157   0.651
 1413SOL    HW2 4258   2.164   0.000   0.695
 1414SOL     OW 4259   3.484   0.367   0.374
 1414SOL    HW1 4260   3.486   0.291   0.438
 1414SOL    HW2 4261   3.436   0.444   0.414
 1415SOL     OW 4262   2.885   0.766   0.966
 1415SOL    HW1 4263   2.900   0.787   1.062
 1415SOL    HW2 4264   2.855   0.671   0.957
 1416SOL     OW 4265   2.842   1.573   1.700
 1416SOL    HW1 4266   2.822   1.617   1.612
 1416SOL    HW2 4267   2.881   1.482   1.684
 1417SOL     OW 4268   3.721   1.518   1.605
 1417SOL    HW1 4269   3.735   1.545   1.510
 1417SOL    HW2 4270   3.804   1.540   1.658
 1418SOL     OW 4271   2.212   0.898   1.804
 1418SOL    HW1 4272   2.288   0.942   1.852
 1418SOL    HW2 4273   2.247   0.851   1.722
 1419SOL     OW 4274   3.402   0.274   0.125
 1419SOL    HW1 4275   3.341   0.199   0.148
 1419SOL    HW2 4276   3.424   0.326   0.208
 1420SOL     OW 4277   3.165   0.838   0.042
 1420SOL    HW1 4278   3.199   0.745   0.057
 1420SOL    HW2 4279   3.183   0.865  -0.053
 1421SOL     OW 4280   2.930   1.333   0.849
 1421SOL    HW1 4281   2.937   1.249   0.794
 1421SOL    HW2 4282   2.992   1.402   0.813
 1422SOL     OW 4283   2.181   0.810   0.949
 1422SOL    HW1 4284   2.274   0.846   0.954
 1422SOL    HW2 4285   2.175   0.725   1.001
 1423SOL     OW 4286   2.201   0.509   1.006
 1423SOL    HW1 4287   2.149   0.426   0.989
 1423SOL    HW2 4288   2.278   0.514   0.942
 1424SOL     OW 4289   3.000   0.380   1.678
 1424SOL    HW1 4290   2.955   0.443   1.742
 1424SOL    HW2 4291   3.093   0.411   1.661
 1425SOL     OW 4292   3.022   0.207   1.477
 1425SOL    HW1 4293   3.022   0.271   1.554
 1425SOL    HW2 4294   3.050   0.255   1.394
 1426SOL     OW 4295   1.870   1.326   0.200
 1426SOL    HW1 4296   1.777   1.347   0.169
 1426SOL    HW2 4297   1.880   1.227   0.213
 1427SOL     OW 4298   1.950   1.801   0.927
 1427SOL    HW1 4299   1.908   1.715   0.900
 1427SOL    HW2 4300   2.044   1.804   0.893
 1428SOL     OW 4301   2.366   1.568   0.910
 1428SOL    HW1 4302   2.432   1.642   0.919
 1428SOL    HW2 4303   2.410   1.489   0.868
 1429SOL     OW 4304   2.864   0.796   1.238
 1429SOL    HW1 4305   2.905   0.764   1.324
 1429SOL    HW2 4306   2.768   0.769   1.235
 1430SOL     OW 4307   1.902   0.544   1.114
 1430SOL    HW1 4308   1.987   0.511   1.073
 1430SOL    HW2 4309   1.915   0.559   1.212
 1431SOL     OW 4310   2.051   0.520   1.722
 1431SOL    HW1 4311   2.110   0.480   1.652
 1431SOL    HW2 4312   1.993   0.591   1.681
 1432SOL     OW 4313   3.231   0.950   1.660
 1432SOL    HW1 4314   3.270   1.039   1.680
 1432SOL    HW2 4315   3.241   0.930   1.563
 1433SOL     OW 4316   2.677   0.572   0.325
 1433SOL    HW1 4317   2.684   0.483   0.279
 1433SOL    HW2 4318   2.583   0.606   0.317
 1434SOL     OW 4319   3.519   0.604   1.206
 1434SOL    HW1 4320   3.481   0.535   1.268
 1434SOL    HW2 4321   3.601   0.568   1.162
 1435SOL     OW 4322   2.114   1.564   1.744
 1435SOL    HW1 4323   2.084   1.621   1.820
 1435SOL    HW2 4324   2.107   1.467   1.770
 1436SOL     OW 4325   2.533   0.464   1.269
 1436SOL    HW1 4326   2.499   0.375   1.239
 1436SOL    HW2 4327   2.559   0.518   1.189
 1437SOL     OW 4328   2.792   1.678   1.465
 1437SOL    HW1 4329   2.768   1.660   1.370
 1437SOL    HW2 4330   2.822   1.772   1.475
 1438SOL     OW 4331   2.335   0.500   0.191
 1438SOL    HW1 4332   2.396   0.580   0.195
 1438SOL    HW2 4333   2.240   0.531   0.198
 1439SOL     OW 4334   2.021   1.137   1.466
 1439SOL    HW1 4335   2.043   1.076   1.542
 1439SOL    HW2 4336   2.031   1.088   1.380
 1440SOL     OW 4337   3.209   1.059   1.234
 1440SOL    HW1 4338   3.233   0.996   1.160
 1440SOL    HW2 4339   3.119   1.099   1.216
 1441SOL     OW 4340   3.164   0.855   0.309
 1441SOL    HW1 4341   3.078   0.824   0.351
 1441SOL    HW2 4342   3.160   0.841   0.210
 1442SOL     OW 4343   3.621   1.747   1.154
 1442SOL    HW1 4344   3.682   1.777   1.081
 1442SOL    HW2 4345   3.583   1.658   1.132
 1443SOL     OW 4346   3.114   1.731   1.128
 1443SOL    HW1 4347   3.198   1.736   1.074
 1443SOL    HW2 4348   3.091   1.635   1.146
 1444SOL     OW 4349   1.945   1.258   1.022
 1444SOL    HW1 4350   1.940   1.257   1.122
 1444SOL    HW2 4351   1.862   1.217   0.984
 1445SOL     OW 4352   2.550   1.662   1.716
 1445SOL    HW1 4353   2.494   1.743   1.725
 1445SOL    HW2 4354   2.602   1.666   1.630
 1446SOL     OW 4355   2.765   0.086   0.133
 1446SOL    HW1 4356   2.816   0.087   0.047
 1446SOL    HW2 4357   2.821   0.044   0.204
 1447SOL     OW 4358   3.588   0.135   0.523
 1447SOL    HW1 4359   3.661   0.118   0.456
 1447SOL    HW2 4360   3.557   0.048   0.561
 1448SOL     OW 4361   3.250   1.573   0.477
 1448SOL    HW1 4362   3.317   1.585   0.403
 1448SOL    HW2 4363   3.210   1.662   0.500
 1449SOL     OW 4364   1.992   1.794   1.851
 1449SOL    HW1 4365   1.951   1.720   1.904
 1449SOL    HW2 4366   2.056   1.845   1.909
 1450SOL     OW 4367   3.142   0.927   0.672
 1450SOL    HW1 4368   3.202   0.846   0.674
 1450SOL    HW2 4369   3.182   0.996   0.612
 1451SOL     OW 4370   2.692   1.273   1.422
 1451SOL    HW1 4371   2.687   1.306   1.517
 1451SOL    HW2 4372   2.606   1.292   1.376
 1452SOL     OW 4373   2.534   1.616   0.154
 1452SOL    HW1 4374   2.543   1.626   0.055
 1452SOL    HW2 4375   2.494   1.527   0.175
 1453SOL     OW 4376   3.512   1.720   1.394
 1453SOL    HW1 4377   3.565   1.730   1.310
 1453SOL    HW2 4378   3.485   1.810   1.428
 1454SOL     OW 4379   3.703   0.175   0.963
 1454SOL    HW1 4380   3.742   0.090   0.927
 1454SOL    HW2 4381   3.605   0.177   0.944
 1455SOL     OW 4382   2.125   0.326   0.720
 1455SOL    HW1 4383   2.046   0.377   0.686
 1455SOL    HW2 4384   2.116   0.311   0.818
 1456SOL     OW 4385   3.056   1.612   0.031
 1456SOL    HW1 4386   3.062   1.519   0.068
 1456SOL    HW2 4387   2.997   1.612  -0.049
 1457SOL     OW 4388   2.684   1.002   1.372
 1457SOL    HW1 4389   2.724   1.001   1.280
 1457SOL    HW2 4390   2.694   1.094   1.412
 1458SOL     OW 4391   2.778   0.910   0.291
 1458SOL    HW1 4392   2.841   0.948   0.223
 1458SOL    HW2 4393   2.818   0.827   0.330
 1459SOL     OW 4394   3.366   1.607   0.044
 1459SOL    HW1 4395   3.274   1.644   0.051
 1459SOL    HW2 4396   3.404   1.627  -0.046
 1460SOL     OW 4397   2.234   1.288   1.490
 1460SOL    HW1 4398   2.221   1.381   1.456
 1460SOL    HW2 4399   2.150   1.236   1.477
 1461SOL     OW 4400   3.476   1.292   1.289
 1461SOL    HW1 4401   3.536   1.295   1.369
 1461SOL    HW2 4402   3.401   1.356   1.302
 1462SOL     OW 4403   2.901   1.098   0.696
 1462SOL    HW1 4404   2.831   1.051   0.750
 1462SOL    HW2 4405   2.960   1.030   0.653
 1463SOL     OW 4406   2.876   0.236   0.971
 1463SOL    HW1 4407   2.868   0.200   0.878
 1463SOL    HW2 4408   2.874   0.160   1.036
 1464SOL     OW 4409   2.452   1.487   0.491
 1464SOL    HW1 4410   2.494   1.429   0.421
 1464SOL    HW2 4411   2.408   1.566   0.447
 1465SOL     OW 4412   3.571   0.385   1.381
 1465SOL    HW1 4413   3.644   0.454   1.385
 1465SOL    HW2 4414   3.599   0.310   1.322
 1466SOL     OW 4415   2.117   1.348   0.290
 1466SOL    HW1 4416   2.021   1.349   0.263
 1466SOL    HW2 4417   2.129   1.401   0.374
 1467SOL     OW 4418   1.967   1.013   1.726
 1467SOL    HW1 4419   1.890   0.980   1.780
 1467SOL    HW2 4420   2.052   0.983   1.768
 1468SOL     OW 4421   2.534   0.203   1.489
 1468SOL    HW1 4422   2.624   0.187   1.449
 1468SOL    HW2 4423   2.542   0.208   1.588
 1469SOL     OW 4424   1.937   0.345   0.033
 1469SOL    HW1 4425   1.845   0.317   0.004
 1469SOL    HW2 4426   1.968   0.422  -0.023
 1470SOL     OW 4427   3.302   0.856   1.398
 1470SOL    HW1 4428   3.245   0.908   1.335
 1470SOL    HW2 4429   3.398   0.868   1.374
 1471SOL     OW 4430   1.934   0.166   0.318
 1471SOL    HW1 4431   1.917   0.249   0.264
 1471SOL    HW2 4432   2.024   0.129   0.296
 1472SOL     OW 4433   3.045   1.335   0.119
 1472SOL    HW1 4434   2.946   1.324   0.121
 1472SOL    HW2 4435   3.079   1.350   0.212
 1473SOL     OW 4436   2.475   0.842   1.431
 1473SOL    HW1 4437   2.531   0.923   1.414
 1473SOL    HW2 4438   2.534   0.762   1.434
 1474SOL     OW 4439   3.355   1.767   0.959
 1474SOL    HW1 4440   3.388   1.831   0.890
 1474SOL    HW2 4441   3.421   1.761   1.034
 1475SOL     OW 4442   2.578   0.565   1.708
 1475SOL    HW1 4443   2.597   0.630   1.782
 1475SOL    HW2 4444   2.638   0.485   1.717
 1476SOL     OW 4445   3.312   1.220   1.633
 1476SOL    HW1 4446   3.303   1.210   1.732
 1476SOL    HW2 4447   3.408   1.213   1.607
 1477SOL     OW 4448   2.252   1.741   1.560
 1477SOL    HW1 4449   2.161   1.782   1.558
 1477SOL    HW2 4450   2.245   1.647   1.592
 1478SOL     OW 4451   3.536   0.883   1.254
 1478SOL    HW1 4452   3.509   0.794   1.217
 1478SOL    HW2 4453   3.537   0.951   1.181
 1479SOL     OW 4454   3.087   0.325   0.449
 1479SOL    HW1 4455   3.152   0.251   0.438
 1479SOL    HW2 4456   3.107   0.375   0.533
 1480SOL     OW 4457   2.456   0.745   0.652
 1480SOL    HW1 4458   2.506   0.830   0.633
 1480SOL    HW2 4459   2.368   0.747   0.604
 1481SOL     OW 4460   3.639   0.342   1.642
 1481SOL    HW1 4461   3.622   0.373   1.548
 1481SOL    HW2 4462   3.555   0.305   1.680
 1482SOL     OW 4463   3.592   0.934   1.517
 1482SOL    HW1 4464   3.630   1.025   1.532
 1482SOL    HW2 4465   3.584   0.917   1.418
 1483SOL     OW 4466   2.721   1.374   0.016
 1483SOL    HW1 4467   2.675   1.389   0.104
 1483SOL    HW2 4468   2.765   1.459  -0.014
 1484SOL     OW 4469   2.523   1.790   0.953
 1484SOL    HW1 4470   2.477   1.878   0.940
 1484SOL    HW2 4471   2.622   1.802   0.946
 1485SOL     OW 4472   2.721   0.956   0.861
 1485SOL    HW1 4473   2.775   0.887   0.909
 1485SOL    HW2 4474   2.689   1.025   0.927
 1486SOL     OW 4475   2.945   0.984   0.087
 1486SOL    HW1 4476   2.922   1.037   0.005
 1486SOL    HW2 4477   3.026   0.928   0.068
 1487SOL     OW 4478   3.723   1.569   0.851
 1487SOL    HW1 4479   3.652   1.557   0.781
 1487SOL    HW2 4480   3.724   1.490   0.911
 1488SOL     OW 4481   2.083   1.314   1.844
 1488SOL    HW1 4482   2.018   1.241   1.823
 1488SOL    HW2 4483   2.087   1.328   1.942
 1489SOL     OW 4484   1.941   1.240   0.653
 1489SOL    HW1 4485   1.940   1.193   0.741
 1489SOL    HW2 4486   2.023   1.212   0.602
 1490SOL     OW 4487   2.534   1.391   1.624
 1490SOL    HW1 4488   2.456   1.341   1.662
 1490SOL    HW2 4489   2.531   1.486   1.655
 1491SOL     OW 4490   3.686   0.192   1.227
 1491SOL    HW1 4491   3.682   0.102   1.271
 1491SOL    HW2 4492   3.689   0.181   1.128
 1492SOL     OW 4493   2.290   0.424   0.520
 1492SOL    HW1 4494   2.320   0.352   0.458
 1492SOL    HW2 4495   2.251   0.384   0.603
 1493SOL     OW 4496   3.567   1.487   1.104
 1493SOL    HW1 4497   3.474   1.462   1.077
 1493SOL    HW2 4498   3.593   1.437   1.186
 1494SOL     OW 4499   2.179   0.547   1.280
 1494SOL    HW1 4500   2.217   0.488   1.352
 1494SOL    HW2 4501   2.219   0.521   1.192
 1495SOL     OW 4502   2.674   1.586   0.687
 1495SOL    HW1 4503   2.706   1.596   0.593
 1495SOL    HW2 4504   2.595   1.524   0.689
 1496SOL     OW 4505   3.286   0.214   1.112
 1496SOL    HW1 4506   3.338   0.149   1.167
 1496SOL    HW2 4507   3.237   0.277   1.173
 1497SOL     OW 4508   2.863   0.034   1.154
 1497SOL    HW1 4509   2.800  -0.038   1.123
 1497SOL    HW2 4510   2.956  -0.002   1.154
 1498SOL     OW 4511   2.632   1.330   0.301
 1498SOL    HW1 4512   2.586   1.243   0.318
 1498SOL    HW2 4513   2.723   1.327   0.342
 1499SOL     OW 4514   2.480   1.567   1.284
 1499SOL    HW1 4515   2.475   1.649   1.341
 1499SOL    HW2 4516   2.569   1.564   1.239
 1500SOL     OW 4517   3.214   0.052   0.168
 1500SOL    HW1 4518   3.249   0.011   0.084
 1500SOL    HW2 4519   3.124   0.014   0.188
 1501SOL     OW 4520   3.162   0.453   0.691
 1501SOL    HW1 4521   3.103   0.533   0.695
 1501SOL    HW2 4522   3.177   0.418   0.784
 1502SOL     OW 4523   3.455   0.221   0.882
 1502SOL    HW1 4524   3.371   0.220   0.936
 1502SOL    HW2 4525   3.457   0.304   0.826
 1503SOL     OW 4526   1.901   1.077   0.300
 1503SOL    HW1 4527   2.000   1.066   0.291
 1503SOL    HW2 4528   1.861   0.991   0.332
 1504SOL     OW 4529   2.737   1.646   0.337
 1504SOL    HW1 4530   2.660   1.611   0.283
 1504SOL    HW2 4531   2.705   1.717   0.399
 1505SOL     OW 4532   2.092   0.628   1.975
 1505SOL    HW1 4533   1.999   0.626   2.012
 1505SOL    HW2 4534   2.093   0.589   1.883
 1506SOL     OW 4535   2.087   0.275   2.858
 1506SOL    HW1 4536   2.122   0.258   2.950
 1506SOL    HW2 4537   1.999   0.230   2.846
 1507SOL     OW 4538   1.881   0.368   2.509
 1507SOL    HW1 4539   1.799   0.411   2.548
 1507SOL    HW2 4540   1.853   0.295   2.446
 1508SOL     OW 4541   2.431   1.275   3.027
 1508SOL    HW1 4542   2.338   1.268   2.990
 1508SOL    HW2 4543   2.442   1.364   3.071
 1509SOL     OW 4544   3.417   1.511   2.565
 1509SOL    HW1 4545   3.360   1.495   2.646
 1509SOL    HW2 4546   3.358   1.521   2.485
 1510SOL     OW 4547   2.997   0.703   2.579
 1510SOL    HW1 4548   3.054   0.781   2.554
 1510SOL    HW2 4549   2.937   0.729   2.655
 1511SOL     OW 4550   3.617   0.607   2.093
 1511SOL    HW1 4551   3.605   0.594   1.994
 1511SOL    HW2 4552   3.587   0.526   2.142
 1512SOL     OW 4553   2.630   1.144   2.885
 1512SOL    HW1 4554   2.552   1.161   2.945
 1512SOL    HW2 4555   2.664   1.231   2.849
 1513SOL     OW 4556   2.712   0.798   3.685
 1513SOL    HW1 4557   2.708   0.874   3.750
 1513SOL    HW2 4558   2.734   0.834   3.594
 1514SOL     OW 4559   2.547   1.012   2.527
 1514SOL    HW1 4560   2.616   0.996   2.597
 1514SOL    HW2 4561   2.474   1.069   2.565
 1515SOL     OW 4562   2.548   1.161   3.665
 1515SOL    HW1 4563   2.608   1.240   3.679
 1515SOL    HW2 4564   2.462   1.192   3.624
 1516SOL     OW 4565   2.197   1.435   2.923
 1516SOL    HW1 4566   2.119   1.404   2.870
 1516SOL    HW2 4567   2.255   1.493   2.866
 1517SOL     OW 4568   3.322   1.505   3.201
 1517SOL    HW1 4569   3.346   1.599   3.227
 1517SOL    HW2 4570   3.306   1.451   3.283
 1518SOL     OW 4571   2.300   0.392   3.361
 1518SOL    HW1 4572   2.382   0.336   3.370
 1518SOL    HW2 4573   2.219   0.334   3.365
 1519SOL     OW 4574   3.465   0.447   2.599
 1519SOL    HW1 4575   3.391   0.493   2.549
 1519SOL    HW2 4576   3.516   0.515   2.652
 1520SOL     OW 4577   2.093   1.713   2.345
 1520SOL    HW1 4578   2.127   1.790   2.399
 1520SOL    HW2 4579   2.137   1.713   2.255
 1521SOL     OW 4580   2.989   1.341   3.552
 1521SOL    HW1 4581   3.036   1.341   3.640
 1521SOL    HW2 4582   2.941   1.254   3.541
 1522SOL     OW 4583   2.092   1.434   2.400
 1522SOL    HW1 4584   2.066   1.530   2.400
 1522SOL    HW2 4585   2.021   1.380   2.445
 1523SOL     OW 4586   2.102   1.091   2.748
 1523SOL    HW1 4587   2.116   1.007   2.800
 1523SOL    HW2 4588   2.047   1.155   2.803
 1524SOL     OW 4589   2.482   1.786   3.301
 1524SOL    HW1 4590   2.390   1.769   3.336
 1524SOL    HW2 4591   2.510   1.878   3.327
 1525SOL     OW 4592   2.468   0.964   1.985
 1525SOL    HW1 4593   2.475   1.048   1.931
 1525SOL    HW2 4594   2.514   0.977   2.073
 1526SOL     OW 4595   3.456   0.114   3.342
 1526SOL    HW1 4596   3.438   0.181   3.270
 1526SOL    HW2 4597   3.453   0.160   3.431
 1527SOL     OW 4598   1.984   0.643   2.425
 1527SOL    HW1 4599   1.939   0.555   2.442
 1527SOL    HW2 4600   1.983   0.697   2.509
 1528SOL     OW 4601   3.704   1.767   2.221
 1528SOL    HW1 4602   3.758   1.738   2.301
 1528SOL    HW2 4603   3.734   1.857   2.192
 1529SOL     OW 4604   1.889   1.596   1.979
 1529SOL    HW1 4605   1.870   1.500   2.000
 1529SOL    HW2 4606   1.856   1.654   2.054
 1530SOL     OW 4607   3.551   0.922   2.474
 1530SOL    HW1 4608   3.646   0.893   2.482
 1530SOL    HW2 4609   3.543   0.987   2.399
 1531SOL     OW 4610   3.503   1.108   2.294
 1531SOL    HW1 4611   3.589   1.110   2.242
 1531SOL    HW2 4612   3.517   1.155   2.382
 1532SOL     OW 4613   1.975   0.737   3.459
 1532SOL    HW1 4614   2.063   0.724   3.504
 1532SOL    HW2 4615   1.962   0.834   3.437
 1533SOL     OW 4616   2.475   1.365   2.588
 1533SOL    HW1 4617   2.426   1.278   2.597
 1533SOL    HW2 4618   2.452   1.408   2.501
 1534SOL     OW 4619   3.155   1.228   3.285
 1534SOL    HW1 4620   3.192   1.155   3.227
 1534SOL    HW2 4621   3.207   1.233   3.370
 1535SOL     OW 4622   2.671   0.004   2.364
 1535SOL    HW1 4623   2.711   0.095   2.355
 1535SOL    HW2 4624   2.571   0.012   2.370
 1536SOL     OW 4625   2.059   0.976   3.126
 1536SOL    HW1 4626   2.148   0.931   3.112
 1536SOL    HW2 4627   1.986   0.911   3.107
 1537SOL     OW 4628   3.387   0.999   2.052
 1537SOL    HW1 4629   3.324   0.923   2.065
 1537SOL    HW2 4630   3.435   1.017   2.138
 1538SOL     OW 4631   3.049   1.792   3.478
 1538SOL    HW1 4632   3.073   1.852   3.402
 1538SOL    HW2 4633   3.056   1.697   3.448
 1539SOL     OW 4634   2.179   0.251   3.663
 1539SOL    HW1 4635   2.250   0.322   3.669
 1539SOL    HW2 4636   2.091   0.290   3.691
 1540SOL     OW 4637   3.328   1.417   2.815
 1540SOL    HW1 4638   3.269   1.423   2.895
 1540SOL    HW2 4639   3.313   1.329   2.769
 1541SOL     OW 4640   3.529   1.714   2.434
 1541SOL    HW1 4641   3.488   1.691   2.346
 1541SOL    HW2 4642   3.511   1.640   2.499
 1542SOL     OW 4643   2.460   0.729   2.132
 1542SOL    HW1 4644   2.484   0.798   2.064
 1542SOL    HW2 4645   2.382   0.762   2.186
 1543SOL     OW 4646   3.143   0.345   2.806
 1543SOL    HW1 4647   3.057   0.295   2.793
 1543SOL    HW2 4648   3.205   0.291   2.862
 1544SOL     OW 4649   3.438   1.662   2.169
 1544SOL    HW1 4650   3.527   1.708   2.172
 1544SOL    HW2 4651   3.417   1.638   2.074
 1545SOL     OW 4652   2.669   0.605   3.327
 1545SOL    HW1 4653   2.622   0.602   3.416
 1545SOL    HW2 4654   2.618   0.550   3.261
 1546SOL     OW 4655   3.256   0.469   3.536
 1546SOL    HW1 4656   3.236   0.512   3.624
 1546SOL    HW2 4657   3.334   0.407   3.545
 1547SOL     OW 4658   2.835   0.890   3.434
 1547SOL    HW1 4659   2.881   0.806   3.405
 1547SOL    HW2 4660   2.779   0.924   3.359
 1548SOL     OW 4661   2.853   0.410   3.104
 1548SOL    HW1 4662   2.776   0.444   3.158
 1548SOL    HW2 4663   2.819   0.359   3.025
 1549SOL     OW 4664   2.903   0.701   2.291
 1549SOL    HW1 4665   2.929   0.697   2.387
 1549SOL    HW2 4666   2.818   0.650   2.277
 1550SOL     OW 4667   1.938   0.811   2.651
 1550SOL    HW1 4668   2.037   0.799   2.660
 1550SOL    HW2 4669   1.914   0.906   2.672
 1551SOL     OW 4670   1.992   1.821   3.433
 1551SOL    HW1 4671   1.982   1.806   3.532
 1551SOL    HW2 4672   1.906   1.857   3.397
 1552SOL     OW 4673   2.727   0.348   2.057
 1552SOL    HW1 4674   2.786   0.411   2.008
 1552SOL    HW2 4675   2.746   0.254   2.028
 1553SOL     OW 4676   3.581   0.585   3.693
 1553SOL    HW1 4677   3.555   0.674   3.657
 1553SOL    HW2 4678   3.579   0.517   3.620
 1554SOL     OW 4679   3.224   1.144   2.407
 1554SOL    HW1 4680   3.307   1.115   2.359
 1554SOL    HW2 4681   3.175   1.211   2.351
 1555SOL     OW 4682   2.412   0.196   2.747
 1555SOL    HW1 4683   2.407   0.191   2.847
 1555SOL    HW2 4684   2.414   0.292   2.718
 1556SOL     OW 4685   2.870   1.456   2.339
 1556SOL    HW1 4686   2.824   1.528   2.287
 1556SOL    HW2 4687   2.866   1.476   2.437
 1557SOL     OW 4688   2.213   1.801   2.715
 1557SOL    HW1 4689   2.263   1.715   2.721
 1557SOL    HW2 4690   2.278   1.878   2.712
 1558SOL     OW 4691   3.657   1.066   2.735
 1558SOL    HW1 4692   3.595   1.051   2.659
 1558SOL    HW2 4693   3.605   1.077   2.820
 1559SOL     OW 4694   3.089   1.550   3.368
 1559SOL    HW1 4695   3.095   1.473   3.432
 1559SOL    HW2 4696   3.037   1.524   3.288
 1560SOL     OW 4697   2.183   0.943   2.104
 1560SOL    HW1 4698   2.265   0.982   2.062
 1560SOL    HW2 4699   2.156   0.861   2.055
 1561SOL     OW 4700   3.320   0.735   2.590
 1561SOL    HW1 4701   3.315   0.670   2.665
 1561SOL    HW2 4702   3.400   0.794   2.603
 1562SOL     OW 4703   2.323   1.266   3.589
 1562SOL    HW1 4704   2.273   1.267   3.503
 1562SOL    HW2 4705   2.260   1.248   3.665
 1563SOL     OW 4706   2.973   1.776   2.099
 1563SOL    HW1 4707   2.913   1.714   2.149
 1563SOL    HW2 4708   3.004   1.732   2.014
 1564SOL     OW 4709   2.064   0.285   3.360
 1564SOL    HW1 4710   1.984   0.345   3.347
 1564SOL    HW2 4711   2.054   0.236   3.446
 1565SOL     OW 4712   3.494   1.377   1.943
 1565SOL    HW1 4713   3.462   1.471   1.933
 1565SOL    HW2 4714   3.418   1.314   1.931
 1566SOL     OW 4715   2.326   1.743   2.185
 1566SOL    HW1 4716   2.359   1.782   2.271
 1566SOL    HW2 4717   2.402   1.736   2.120
 1567SOL     OW 4718   3.262   0.107   2.288
 1567SOL    HW1 4719   3.238   0.070   2.198
 1567SOL    HW2 4720   3.361   0.123   2.292
 1568SOL     OW 4721   2.111   1.785   3.103
 1568SOL    HW1 4722   2.168   1.720   3.153
 1568SOL    HW2 4723   2.095   1.752   3.010
 1569SOL     OW 4724   2.802   1.698   2.766
 1569SOL    HW1 4725   2.882   1.641   2.787
 1569SOL    HW2 4726   2.753   1.658   2.689
 1570SOL     OW 4727   2.244   0.700   2.342
 1570SOL    HW1 4728   2.289   0.610   2.339
 1570SOL    HW2 4729   2.150   0.689   2.375
 1571SOL     OW 4730   3.409   0.222   3.591
 1571SOL    HW1 4731   3.404   0.259   3.683
 1571SOL    HW2 4732   3.337   0.153   3.579
 1572SOL     OW 4733   2.476   0.122   1.979
 1572SOL    HW1 4734   2.574   0.100   1.986
 1572SOL    HW2 4735   2.445   0.105   1.886
 1573SOL     OW 4736   2.643   0.264   3.611
 1573SOL    HW1 4737   2.710   0.203   3.654
 1573SOL    HW2 4738   2.570   0.283   3.676
 1574SOL     OW 4739   2.750   1.514   3.057
 1574SOL    HW1 4740   2.727   1.489   2.963
 1574SOL    HW2 4741   2.811   1.445   3.096
 1575SOL     OW 4742   3.213   0.590   3.295
 1575SOL    HW1 4743   3.241   0.547   3.380
 1575SOL    HW2 4744   3.238   0.686   3.296
 1576SOL     OW 4745   2.665   1.402   2.786
 1576SOL    HW1 4746   2.755   1.416   2.744
 1576SOL    HW2 4747   2.594   1.404   2.715
 1577SOL     OW 4748   2.784   0.503   2.761
 1577SOL    HW1 4749   2.759   0.494   2.665
 1577SOL    HW2 4750   2.832   0.421   2.792
 1578SOL     OW 4751   2.401   0.064   2.374
 1578SOL    HW1 4752   2.320   0.065   2.432
 1578SOL    HW2 4753   2.404   0.147   2.319
 1579SOL     OW 4754   3.296   1.188   1.903
 1579SOL    HW1 4755   3.328   1.112   1.960
 1579SOL    HW2 4756   3.204   1.215   1.933
 1580SOL     OW 4757   2.159   0.035   2.033
 1580SOL    HW1 4758   2.208   0.119   2.012
 1580SOL    HW2 4759   2.221  -0.030   2.078
 1581SOL     OW 4760   2.797   0.236   2.342
 1581SOL    HW1 4761   2.749   0.277   2.264
 1581SOL    HW2 4762   2.896   0.234   2.323
 1582SOL     OW 4763   2.938   0.683   3.326
 1582SOL    HW1 4764   2.858   0.622   3.329
 1582SOL    HW2 4765   3.019   0.630   3.302
 1583SOL     OW 4766   3.089   1.570   2.655
 1583SOL    HW1 4767   3.110   1.644   2.590
 1583SOL    HW2 4768   3.157   1.570   2.728
 1584SOL     OW 4769   2.321   1.152   2.603
 1584SOL    HW1 4770   2.250   1.125   2.668
 1584SOL    HW2 4771   2.295   1.124   2.510
 1585SOL     OW 4772   3.133   1.797   2.453
 1585SOL    HW1 4773   3.177   1.861   2.389
 1585SOL    HW2 4774   3.083   1.849   2.523
 1586SOL     OW 4775   2.894   0.549   1.878
 1586SOL    HW1 4776   2.853   0.631   1.839
 1586SOL    HW2 4777   2.958   0.575   1.951
 1587SOL     OW 4778   1.940   0.556   3.248
 1587SOL    HW1 4779   2.032   0.555   3.207
 1587SOL    HW2 4780   1.934   0.630   3.315
 1588SOL     OW 4781   2.423   0.222   3.009
 1588SOL    HW1 4782   2.461   0.138   3.046
 1588SOL    HW2 4783   2.335   0.241   3.053
 1589SOL     OW 4784   2.728   0.454   2.504
 1589SOL    HW1 4785   2.696   0.526   2.442
 1589SOL    HW2 4786   2.752   0.373   2.451
 1590SOL     OW 4787   2.879   0.039   2.615
 1590SOL    HW1 4788   2.807   0.044   2.546
 1590SOL    HW2 4789   2.855  -0.030   2.684
 1591SOL     OW 4790   3.291   1.173   2.729
 1591SOL    HW1 4791   3.236   1.089   2.722
 1591SOL    HW2 4792   3.317   1.202   2.637
 1592SOL     OW 4793   3.328   0.590   2.854
 1592SOL    HW1 4794   3.298   0.495   2.861
 1592SOL    HW2 4795   3.401   0.606   2.920
 1593SOL     OW 4796   3.719   0.833   2.239
 1593SOL    HW1 4797   3.761   0.769   2.303
 1593SOL    HW2 4798   3.681   0.782   2.161
 1594SOL     OW 4799   2.350   1.385   2.036
 1594SOL    HW1 4800   2.263   1.370   2.083
 1594SOL    HW2 4801   2.333   1.411   1.941
 1595SOL     OW 4802   3.526   1.280   2.519
 1595SOL    HW1 4803   3.625   1.288   2.533
 1595SOL    HW2 4804   3.481   1.364   2.550
 1596SOL     OW 4805   3.252   0.575   1.940
 1596SOL    HW1 4806   3.198   0.554   2.021
 1596SOL    HW2 4807   3.343   0.534   1.949
 1597SOL     OW 4808   2.389   0.256   2.190
 1597SOL    HW1 4809   2.416   0.197   2.115
 1597SOL    HW2 4810   2.389   0.351   2.159
 1598SOL     OW 4811   3.616   1.223   3.450
 1598SOL    HW1 4812   3.707   1.184   3.437
 1598SOL    HW2 4813   3.624   1.319   3.474
 1599SOL     OW 4814   2.926   1.347   3.202
 1599SOL    HW1 4815   2.846   1.324   3.257
 1599SOL    HW2 4816   3.009   1.321   3.251
 1600SOL     OW 4817   3.454   1.629   3.487
 1600SOL    HW1 4818   3.481   1.663   3.397
 1600SOL    HW2 4819   3.533   1.591   3.533
 1601SOL     OW 4820   2.973   1.195   2.962
 1601SOL    HW1 4821   2.933   1.239   3.043
 1601SOL    HW2 4822   2.932   1.232   2.879
 1602SOL     OW 4823   3.500   1.099   2.941
 1602SOL    HW1 4824   3.505   1.180   3.000
 1602SOL    HW2 4825   3.414   1.101   2.890
 1603SOL     OW 4826   2.777   0.089   3.264
 1603SOL    HW1 4827   2.802   0.069   3.169
 1603SOL    HW2 4828   2.849   0.145   3.306
 1604SOL     OW 4829   2.842   1.116   3.581
 1604SOL    HW1 4830   2.743   1.122   3.591
 1604SOL    HW2 4831   2.865   1.036   3.525
 1605SOL     OW 4832   2.567   1.050   2.230
 1605SOL    HW1 4833   2.553   1.057   2.329
 1605SOL    HW2 4834   2.651   0.999   2.212
 1606SOL     OW 4835   2.272   0.813   3.113
 1606SOL    HW1 4836   2.358   0.825   3.163
 1606SOL    HW2 4837   2.230   0.726   3.140
 1607SOL     OW 4838   3.136   0.386   3.124
 1607SOL    HW1 4839   3.157   0.460   3.188
 1607SOL    HW2 4840   3.047   0.403   3.081
 1608SOL     OW 4841   1.926   1.564   3.193
 1608SOL    HW1 4842   1.880   1.646   3.159
 1608SOL    HW2 4843   2.024   1.583   3.202
 1609SOL     OW 4844   2.229   1.100   2.363
 1609SOL    HW1 4845   2.222   1.183   2.307
 1609SOL    HW2 4846   2.233   1.020   2.303
 1610SOL     OW 4847   2.428   0.537   2.727
 1610SOL    HW1 4848   2.440   0.603   2.653
 1610SOL    HW2 4849   2.474   0.571   2.810
 1611SOL     OW 4850   3.114   1.348   2.250
 1611SOL    HW1 4851   3.164   1.425   2.290
 1611SOL    HW2 4852   3.019   1.350   2.282
 1612SOL     OW 4853   3.134   1.445   3.004
 1612SOL    HW1 4854   3.181   1.458   3.091
 1612SOL    HW2 4855   3.068   1.371   3.013
 1613SOL     OW 4856   3.444   0.639   2.334
 1613SOL    HW1 4857   3.413   0.700   2.407
 1613SOL    HW2 4858   3.494   0.691   2.265
 1614SOL     OW 4859   2.216   1.510   3.191
 1614SOL    HW1 4860   2.195   1.466   3.104
 1614SOL    HW2 4861   2.313   1.536   3.194
 1615SOL     OW 4862   2.264   0.751   3.460
 1615SOL    HW1 4863   2.332   0.806   3.413
 1615SOL    HW2 4864   2.304   0.663   3.487
 1616SOL     OW 4865   3.449   0.779   3.532
 1616SOL    HW1 4866   3.357   0.817   3.527
 1616SOL    HW2 4867   3.509   0.826   3.467
 1617SOL     OW 4868   2.875   0.105   3.632
 1617SOL    HW1 4869   2.881   0.190   3.580
 1617SOL    HW2 4870   2.907   0.029   3.575
 1618SOL     OW 4871   2.366   0.050   3.602
 1618SOL    HW1 4872   2.324  -0.007   3.532
 1618SOL    HW2 4873   2.300   0.119   3.634
 1619SOL     OW 4874   2.435   0.870   2.891
 1619SOL    HW1 4875   2.479   0.959   2.882
 1619SOL    HW2 4876   2.372   0.870   2.968
 1620SOL     OW 4877   3.222   0.862   2.907
 1620SOL    HW1 4878   3.147   0.862   2.841
 1620SOL    HW2 4879   3.259   0.770   2.916
 1621SOL     OW 4880   3.071   0.525   2.137
 1621SOL    HW1 4881   3.084   0.441   2.191
 1621SOL    HW2 4882   3.042   0.599   2.197
 1622SOL     OW 4883   2.169   0.213   3.093
 1622SOL    HW1 4884   2.146   0.250   3.183
 1622SOL    HW2 4885   2.139   0.118   3.087
 1623SOL     OW 4886   1.899   1.310   3.144
 1623SOL    HW1 4887   1.952   1.261   3.212
 1623SOL    HW2 4888   1.921   1.408   3.149
 1624SOL     OW 4889   2.594   0.634   2.926
 1624SOL    HW1 4890   2.653   0.608   2.850
 1624SOL    HW2 4891   2.566   0.730   2.915
 1625SOL     OW 4892   3.590   0.935   3.716
 1625SOL    HW1 4893   3.544   0.928   3.627
 1625SOL    HW2 4894   3.528   0.979   3.782
 1626SOL     OW 4895   2.169   0.063   2.480
 1626SOL    HW1 4896   2.158   0.157   2.513
 1626SOL    HW2 4897   2.164   0.000   2.557
 1627SOL     OW 4898   3.484   0.367   2.236
 1627SOL    HW1 4899   3.486   0.291   2.300
 1627SOL    HW2 4900   3.436   0.444   2.276
 1628SOL     OW 4901   2.885   0.766   2.828
 1628SOL    HW1 4902   2.900   0.787   2.924
 1628SOL    HW2 4903   2.855   0.671   2.819
 1629SOL     OW 4904   2.842   1.573   3.562
 1629SOL    HW1 4905   2.822   1.617   3.474
 1629SOL    HW2 4906   2.881   1.482   3.546
 1630SOL     OW 4907   3.721   1.518   3.467
 1630SOL    HW1 4908   3.735   1.545   3.372
 1630SOL    HW2 4909   3.804   1.540   3.520
 1631SOL     OW 4910   2.212   0.898   3.666
 1631SOL    HW1 4911   2.288   0.942   3.714
 1631SOL    HW2 4912   2.247   0.851   3.584
 1632SOL     OW 4913   3.402   0.274   1.987
 1632SOL    HW1 4914   3.341   0.199   2.010
 1632SOL    HW2 4915   3.424   0.326   2.070
 1633SOL     OW 4916   3.165   0.838   1.904
 1633SOL    HW1 4917   3.199   0.745   1.919
 1633SOL    HW2 4918   3.183   0.865   1.809
 1634SOL     OW 4919   2.930   1.333   2.711
 1634SOL    HW1 4920   2.937   1.249   2.656
 1634SOL    HW2 4921   2.992   1.402   2.675
 1635SOL     OW 4922   2.181   0.810   2.811
 1635SOL    HW1 4923   2.274   0.846   2.816
 1635SOL    HW2 4924   2.175   0.725   2.863
 1636SOL     OW 4925   2.201   0.509   2.868
 1636SOL    HW1 4926   2.149   0.426   2.851
 1636SOL    HW2 4927   2.278   0.514   2.804
 1637SOL     OW 4928   3.000   0.380   3.540
 1637SOL    HW1 4929   2.955   0.443   3.604
 1637SOL    HW2 4930   3.093   0.411   3.523
 1638SOL     OW 4931   3.022   0.207   3.339
 1638SOL    HW1 4932   3.022   0.271   3.416
 1638SOL    HW2 4933   3.050   0.255   3.256
 1639SOL     OW 4934   1.870   1.326   2.062
 1639SOL    HW1 4935   1.777   1.347   2.031
 1639SOL    HW2 4936   1.880   1.227   2.075
 1640SOL     OW 4937   1.950   1.801   2.789
 1640SOL    HW1 4938   1.908   1.715   2.762
 1640SOL    HW2 4939   2.044   1.804   2.755
 1641SOL     OW 4940   2.366   1.568   2.772
 1641SOL    HW1 4941   2.432   1.642   2.781
 1641SOL    HW2 4942   2.410   1.489   2.730
 1642SOL     OW 4943   2.864   0.796   3.100
 1642SOL    HW1 4944   2.905   0.764   3.186
 1642SOL    HW2 4945   2.768   0.769   3.097
 1643SOL     OW 4946   1.902   0.544   2.976
 1643SOL    HW1 4947   1.987   0.511   2.935
 1643SOL    HW2 4948   1.915   0.559   3.074
 1644SOL     OW 4949   2.051   0.520   3.584
 1644SOL    HW1 4950   2.110   0.480   3.514
 1644SOL    HW2 4951   1.993   0.591   3.543
 1645SOL     OW 4952   3.231   0.950   3.522
 1645SOL    HW1 4953   3.270   1.039   3.542
 1645SOL    HW2 4954   3.241   0.930   3.425
 1646SOL     OW 4955   2.677   0.572   2.187
 1646SOL    HW1 4956   2.684   0.483   2.141
 1646SOL    HW2 4957   2.583   0.606   2.179
 1647SOL     OW 4958   3.519   0.604   3.068
 1647SOL    HW1 4959   3.481   0.535   3.130
 1647SOL    HW2 4960   3.601   0.568   3.024
 1648SOL     OW 4961   2.114   1.564   3.606
 1648SOL    HW1 4962   2.084   1.621   3.682
 1648SOL    HW2 4963   2.107   1.467   3.632
 1649SOL     OW 4964   2.533   0.464   3.131
 1649SOL    HW1 4965   2.499   0.375   3.101
 1649SOL    HW2 4966   2.559   0.518   3.051
 1650SOL     OW 4967   2.792   1.678   3.327
 1650SOL    HW1 4968   2.768   1.660   3.232
 1650SOL    HW2 4969   2.822   1.772   3.337
 1651SOL     OW 4970   2.335   0.500   2.053
 1651SOL    HW1 4971   2.396   0.580   2.057
 1651SOL    HW2 4972   2.240   0.531   2.060
 1652SOL     OW 4973   2.021   1.137   3.328
 1652SOL    HW1 4974   2.043   1.076   3.404
 1652SOL    HW2 4975   2.031   1.088   3.242
 1653SOL     OW 4976   3.209   1.059   3.096
 1653SOL    HW1 4977   3.233   0.996   3.022
 1653SOL    HW2 4978   3.119   1.099   3.078
 1654SOL     OW 4979   3.164   0.855   2.171
 1654SOL    HW1 4980   3.078   0.824   2.213
 1654SOL    HW2 4981   3.160   0.841   2.072
 1655SOL     OW 4982   3.621   1.747   3.016
 1655SOL    HW1 4983   3.682   1.777   2.943
 1655SOL    HW2 4984   3.583   1.658   2.994
 1656SOL     OW 4985   3.114   1.731   2.990
 1656SOL    HW1 4986   3.198   1.736   2.936
 1656SOL    HW2 4987   3.091   1.635   3.008
 1657SOL     OW 4988   1.945   1.258   2.884
 1657SOL    HW1 4989   1.940   1.257   2.984
 1657SOL    HW2 4990   1.862   1.217   2.846
 1658SOL     OW 4991   2.550   1.662   3.578
 1658SOL    HW1 4992   2.494   1.743   3.587
 1658SOL    HW2 4993   2.602   1.666   3.492
 1659SOL     OW 4994   3.588   0.135   2.385
 1659SOL    HW1 4995   3.661   0.118   2.318
 1659SOL    HW2 4996   3.557   0.048   2.423
 1660SOL     OW 4997   3.250   1.573   2.339
 1660SOL    HW1 4998   3.317   1.585   2.265
 1660SOL    HW2 4999   3.210   1.662   2.362
 1661SOL     OW 5000   1.992   1.794   3.713
 1661SOL    HW1 5001   1.951   1.720   3.766
 1661SOL    HW2 5002   2.056   1.845   3.771
 1662SOL     OW 5003   3.142   0.927   2.534
 1662SOL    HW1 5004   3.202   0.846   2.536
 1662SOL    HW2 5005   3.182   0.996   2.474
 1663SOL     OW 5006   2.692   1.273   3.284
 1663SOL    HW1 5007   2.687   1.306   3.379
 1663SOL    HW2 5008   2.606   1.292   3.238
 1664SOL     OW 5009   2.534   1.616   2.016
 1664SOL    HW1 5010   2.543   1.626   1.917
 1664SOL    HW2 5011   2.494   1.527   2.037
 1665SOL     OW 5012   3.512   1.720   3.256
 1665SOL    HW1 5013   3.565   1.730   3.172
 1665SOL    HW2 5014   3.485   1.810   3.290
 1666SOL     OW 5015   3.703   0.175   2.825
 1666SOL    HW1 5016   3.742   0.090   2.789
 1666SOL    HW2 5017   3.605   0.177   2.806
 1667SOL     OW 5018   2.125   0.326   2.582
 1667SOL    HW1 5019   2.046   0.377   2.548
 1667SOL    HW2 5020   2.116   0.311   2.680
 1668SOL     OW 5021   3.056   1.612   1.893
 1668SOL    HW1 5022   3.062   1.519   1.930
 1668SOL    HW2 5023   2.997   1.612   1.813
 1669SOL     OW 5024   2.684   1.002   3.234
 1669SOL    HW1 5025   2.724   1.001   3.142
 1669SOL    HW2 5026   2.694   1.094   3.274
 1670SOL     OW 5027   2.778   0.910   2.153
 1670SOL    HW1 5028   2.841   0.948   2.085
 1670SOL    HW2 5029   2.818   0.827   2.192
 1671SOL     OW 5030   3.366   1.607   1.906
 1671SOL    HW1 5031   3.274   1.644   1.913
 1671SOL    HW2 5032   3.404   1.627   1.816
 1672SOL     OW 5033   2.234   1.288   3.352
 1672SOL    HW1 5034   2.221   1.381   3.318
 1672SOL    HW2 5035   2.150   1.236   3.339
 1673SOL     OW 5036   3.476   1.292   3.151
 1673SOL    HW1 5037   3.536   1.295   3.231
 1673SOL    HW2 5038   3.401   1.356   3.164
 1674SOL     OW 5039   2.901   1.098   2.558
 1674SOL    HW1 5040   2.831   1.051   2.612
 1674SOL    HW2 5041   2.960   1.030   2.515
 1675SOL     OW 5042   2.876   0.236   2.833
 1675SOL    HW1 5043   2.868   0.200   2.740
 1675SOL    HW2 5044   2.874   0.160   2.898
 1676SOL     OW 5045   2.452   1.487   2.353
 1676SOL    HW1 5046   2.494   1.429   2.283
 1676SOL    HW2 5047   2.408   1.566   2.309
 1677SOL     OW 5048   3.571   0.385   3.243
 1677SOL    HW1 5049   3.644   0.454   3.247
 1677SOL    HW2 5050   3.599   0.310   3.184
 1678SOL     OW 5051   2.117   1.348   2.152
 1678SOL    HW1 5052   2.021   1.349   2.125
 1678SOL    HW2 5053   2.129   1.401   2.236
 1679SOL     OW 5054   1.967   1.013   3.588
 1679SOL    HW1 5055   1.890   0.980   3.642
 1679SOL    HW2 5056   2.052   0.983   3.630
 1680SOL     OW 5057   2.534   0.203   3.351
 1680SOL    HW1 5058   2.624   0.187   3.311
 1680SOL    HW2 5059   2.542   0.208   3.450
 1681SOL     OW 5060   1.937   0.345   1.895
 1681SOL    HW1 5061   1.845   0.317   1.866
 1681SOL    HW2 5062   1.968   0.422   1.839
 1682SOL     OW 5063   3.302   0.856   3.260
 1682SOL    HW1 5064   3.245   0.908   3.197
 1682SOL    HW2 5065   3.398   0.868   3.236
 1683SOL     OW 5066   1.934   0.166   2.180
 1683SOL    HW1 5067   1.917   0.249   2.126
 1683SOL    HW2 5068   2.024   0.129   2.158
 1684SOL     OW 5069   3.045   1.335   1.981
 1684SOL    HW1 5070   2.946   1.324   1.983
 1684SOL    HW2 5071   3.079   1.350   2.074
 1685SOL     OW 5072   2.475   0.842   3.293
 1685SOL    HW1 5073   2.531   0.923   3.276
 1685SOL    HW2 5074   2.534   0.762   3.296
 1686SOL     OW 5075   3.355   1.767   2.821
 1686SOL    HW1 5076   3.388   1.831   2.752
 1686SOL    HW2 5077   3.421   1.761   2.896
 1687SOL     OW 5078   2.578   0.565   3.570
 1687SOL    HW1 5079   2.597   0.630   3.644
 1687SOL    HW2 5080   2.638   0.485   3.579
 1688SOL     OW 5081   3.312   1.220   3.495
 1688SOL    HW1 5082   3.303   1.210   3.594
 1688SOL    HW2 5083   3.408   1.213   3.469
 1689SOL     OW 5084   2.252   1.741   3.422
 1689SOL    HW1 5085   2.161   1.782   3.420
 1689SOL    HW2 5086   2.245   1.647   3.454
 1690SOL     OW 5087   3.536   0.883   3.116
 1690SOL    HW1 5088   3.509   0.794   3.079
 1690SOL    HW2 5089   3.537   0.951   3.043
 1691SOL     OW 5090   3.087   0.325   2.311
 1691SOL    HW1 5091   3.152   0.251   2.300
 1691SOL    HW2 5092   3.107   0.375   2.395
 1692SOL     OW 5093   2.456   0.745   2.514
 1692SOL    HW1 5094   2.506   0.830   2.495
 1692SOL    HW2 5095   2.368   0.747   2.466
 1693SOL     OW 5096   3.639   0.342   3.504
 1693SOL    HW1 5097   3.622   0.373   3.410
 1693SOL    HW2 5098   3.555   0.305   3.542
 1694SOL     OW 5099   3.592   0.934   3.379
 1694SOL    HW1 5100   3.630   1.025   3.394
 1694SOL    HW2 5101   3.584   0.917   3.280
 1695SOL     OW 5102   2.721   1.374   1.878
 1695SOL    HW1 5103   2.675   1.389   1.966
 1695SOL    HW2 5104   2.765   1.459   1.848
 1696SOL     OW 5105   2.523   1.790   2.815
 1696SOL    HW1 5106   2.477   1.878   2.802
 1696SOL    HW2 5107   2.622   1.802   2.808
 1697SOL     OW 5108   2.721   0.956   2.723
 1697SOL    HW1 5109   2.775   0.887   2.771
 1697SOL    HW2 5110   2.689   1.025   2.789
 1698SOL     OW 5111   2.945   0.984   1.949
 1698SOL    HW1 5112   2.922   1.037   1.867
 1698SOL    HW2 5113   3.026   0.928   1.930
 1699SOL     OW 5114   3.723   1.569   2.713
 1699SOL    HW1 5115   3.652   1.557   2.643
 1699SOL    HW2 5116   3.724   1.490   2.773
 1700SOL     OW 5117   2.083   1.314   3.706
 1700SOL    HW1 5118   2.018   1.241   3.685
 1700SOL    HW2 5119   2.087   1.328   3.804
 1701SOL     OW 5120   1.941   1.240   2.515
 1701SOL    HW1 5121   1.940   1.193   2.603
 1701SOL    HW2 5122   2.023   1.212   2.464
 1702SOL     OW 5123   2.534   1.391   3.486
 1702SOL    HW1 5124   2.456   1.341   3.524
 1702SOL    HW2 5125   2.531   1.486   3.517
 1703SOL     OW 5126   3.686   0.192   3.089
 1703SOL    HW1 5127   3.682   0.102   3.133
 1703SOL    HW2 5128   3.689   0.181   2.990
 1704SOL     OW 5129   2.290   0.424   2.382
 1704SOL    HW1 5130   2.320   0.352   2.320
 1704SOL    HW2 5131   2.251   0.384   2.465
 1705SOL     OW 5132   3.567   1.487   2.966
 1705SOL    HW1 5133   3.474   1.462   2.939
 1705SOL    HW2 5134   3.593   1.437   3.048
 1706SOL     OW 5135   2.179   0.547   3.142
 1706SOL    HW1 5136   2.217   0.488   3.214
 1706SOL    HW2 5137   2.219   0.521   3.054
 1707SOL     OW 5138   2.674   1.586   2.549
 1707SOL    HW1 5139   2.706   1.596   2.455
 1707SOL    HW2 5140   2.595   1.524   2.551
 1708SOL     OW 5141   3.286   0.214   2.974
 1708SOL    HW1 5142   3.338   0.149   3.029
 1708SOL    HW2 5143   3.237   0.277   3.035
 1709SOL     OW 5144   2.863   0.034   3.016
 1709SOL    HW1 5145   2.800  -0.038   2.985
 1709SOL    HW2 5146   2.956  -0.002   3.016
 1710SOL     OW 5147   2.632   1.330   2.163
 1710SOL    HW1 5148   2.586   1.243   2.180
 1710SOL    HW2 5149   2.723   1.327   2.204
 1711SOL     OW 5150   2.480   1.567   3.146
 1711SOL    HW1 5151   2.475   1.649   3.203
 1711SOL    HW2 5152   2.569   1.564   3.101
 1712SOL     OW 5153   3.214   0.052   2.030
 1712SOL    HW1 5154   3.249   0.011   1.946
 1712SOL    HW2 5155   3.124   0.014   2.050
 1713SOL     OW 5156   3.162   0.453   2.553
 1713SOL    HW1 5157   3.103   0.533   2.557
 1713SOL    HW2 5158   3.177   0.418   2.646
 1714SOL     OW 5159   3.455   0.221   2.744
 1714SOL    HW1 5160   3.371   0.220   2.798
 1714SOL    HW2 5161   3.457   0.304   2.688
 1715SOL     OW 5162   1.901   1.077   2.162
 1715SOL    HW1 5163   2.000   1.066   2.153
 1715SOL    HW2 5164   1.861   0.991   2.194
 1716SOL     OW 5165   2.737   1.646   2.199
 1716SOL    HW1 5166   2.660   1.611   2.145
 1716SOL    HW2 5167   2.705   1.717   2.261
 1717SOL     OW 5168   2.092   0.628   3.837
 1717SOL    HW1 5169   1.999   0.626   3.874
 1717SOL    HW2 5170   2.093   0.589   3.745
 1718SOL     OW 5171   1.881   0.368   4.371
 1718SOL    HW1 5172   1.799   0.411   4.410
 1718SOL    HW2 5173   1.853   0.295   4.308
 1719SOL     OW 5174   3.417   1.511   4.427
 1719SOL    HW1 5175   3.360   1.495   4.508
 1719SOL    HW2 5176   3.358   1.521   4.347
 1720SOL     OW 5177   2.997   0.703   4.441
 1720SOL    HW1 5178   3.054   0.781   4.416
 1720SOL    HW2 5179   2.937   0.729   4.517
 1721SOL     OW 5180   3.617   0.607   3.955
 1721SOL    HW1 5181   3.605   0.594   3.856
 1721SOL    HW2 5182   3.587   0.526   4.004
 1722SOL     OW 5183   2.630   1.144   4.747
 1722SOL    HW1 5184   2.552   1.161   4.807
 1722SOL    HW2 5185   2.664   1.231   4.711
 1723SOL     OW 5186   2.547   1.012   4.389
 1723SOL    HW1 5187   2.616   0.996   4.459
 1723SOL    HW2 5188   2.474   1.069   4.427
 1724SOL     OW 5189   3.465   0.447   4.461
 1724SOL    HW1 5190   3.391   0.493   4.411
 1724SOL    HW2 5191   3.516   0.515   4.514
 1725SOL     OW 5192   2.093   1.713   4.207
 1725SOL    HW1 5193   2.127   1.790   4.261
 1725SOL    HW2 5194   2.137   1.713   4.117
 1726SOL     OW 5195   2.092   1.434   4.262
 1726SOL    HW1 5196   2.066   1.530   4.262
 1726SOL    HW2 5197   2.021   1.380   4.307
 1727SOL     OW 5198   2.102   1.091   4.610
 1727SOL    HW1 5199   2.116   1.007   4.662
 1727SOL    HW2 5200   2.047   1.155   4.665
 1728SOL     OW 5201   2.468   0.964   3.847
 1728SOL    HW1 5202   2.475   1.048   3.793
 1728SOL    HW2 5203   2.514   0.977   3.935
 1729SOL     OW 5204   1.984   0.643   4.287
 1729SOL    HW1 5205   1.939   0.555   4.304
 1729SOL    HW2 5206   1.983   0.697   4.371
 1730SOL     OW 5207   3.704   1.767   4.083
 1730SOL    HW1 5208   3.758   1.738   4.163
 1730SOL    HW2 5209   3.734   1.857   4.054
 1731SOL     OW 5210   1.889   1.596   3.841
 1731SOL    HW1 5211   1.870   1.500   3.862
 1731SOL    HW2 5212   1.856   1.654   3.916
 1732SOL     OW 5213   3.551   0.922   4.336
 1732SOL    HW1 5214   3.646   0.893   4.344
 1732SOL    HW2 5215   3.543   0.987   4.261
 1733SOL     OW 5216   3.503   1.108   4.156
 1733SOL    HW1 5217   3.589   1.110   4.104
 1733SOL    HW2 5218   3.517   1.155   4.244
 1734SOL     OW 5219   2.475   1.365   4.450
 1734SOL    HW1 5220   2.426   1.278   4.459
 1734SOL    HW2 5221   2.452   1.408   4.363
 1735SOL     OW 5222   2.671   0.004   4.226
 1735SOL    HW1 5223   2.711   0.095   4.217
 1735SOL    HW2 5224   2.571   0.012   4.232
 1736SOL     OW 5225   3.387   0.999   3.914
 1736SOL    HW1 5226   3.324   0.923   3.927
 1736SOL    HW2 5227   3.435   1.017   4.000
 1737SOL     OW 5228   3.529   1.714   4.296
 1737SOL    HW1 5229   3.488   1.691   4.208
 1737SOL    HW2 5230   3.511   1.640   4.361
 1738SOL     OW 5231   2.460   0.729   3.994
 1738SOL    HW1 5232   2.484   0.798   3.926
 1738SOL    HW2 5233   2.382   0.762   4.048
 1739SOL     OW 5234   3.143   0.345   4.668
 1739SOL    HW1 5235   3.057   0.295   4.655
 1739SOL    HW2 5236   3.205   0.291   4.724
 1740SOL     OW 5237   3.438   1.662   4.031
 1740SOL    HW1 5238   3.527   1.708   4.034
 1740SOL    HW2 5239   3.417   1.638   3.936
 1741SOL     OW 5240   2.903   0.701   4.153
 1741SOL    HW1 5241   2.929   0.697   4.249
 1741SOL    HW2 5242   2.818   0.650   4.139
 1742SOL     OW 5243   1.938   0.811   4.513
 1742SOL    HW1 5244   2.037   0.799   4.522
 1742SOL    HW2 5245   1.914   0.906   4.534
 1743SOL     OW 5246   2.727   0.348   3.919
 1743SOL    HW1 5247   2.786   0.411   3.870
 1743SOL    HW2 5248   2.746   0.254   3.890
 1744SOL     OW 5249   3.224   1.144   4.269
 1744SOL    HW1 5250   3.307   1.115   4.221
 1744SOL    HW2 5251   3.175   1.211   4.213
 1745SOL     OW 5252   2.870   1.456   4.201
 1745SOL    HW1 5253   2.824   1.528   4.149
 1745SOL    HW2 5254   2.866   1.476   4.299
 1746SOL     OW 5255   2.213   1.801   4.577
 1746SOL    HW1 5256   2.263   1.715   4.583
 1746SOL    HW2 5257   2.278   1.878   4.574
 1747SOL     OW 5258   3.657   1.066   4.597
 1747SOL    HW1 5259   3.595   1.051   4.521
 1747SOL    HW2 5260   3.605   1.077   4.682
 1748SOL     OW 5261   2.183   0.943   3.966
 1748SOL    HW1 5262   2.265   0.982   3.924
 1748SOL    HW2 5263   2.156   0.861   3.917
 1749SOL     OW 5264   3.320   0.735   4.452
 1749SOL    HW1 5265   3.315   0.670   4.527
 1749SOL    HW2 5266   3.400   0.794   4.465
 1750SOL     OW 5267   2.973   1.776   3.961
 1750SOL    HW1 5268   2.913   1.714   4.011
 1750SOL    HW2 5269   3.004   1.732   3.876
 1751SOL     OW 5270   3.494   1.377   3.805
 1751SOL    HW1 5271   3.462   1.471   3.795
 1751SOL    HW2 5272   3.418   1.314   3.793
 1752SOL     OW 5273   2.326   1.743   4.047
 1752SOL    HW1 5274   2.359   1.782   4.133
 1752SOL    HW2 5275   2.402   1.736   3.982
 1753SOL     OW 5276   3.262   0.107   4.150
 1753SOL    HW1 5277   3.238   0.070   4.060
 1753SOL    HW2 5278   3.361   0.123   4.154
 1754SOL     OW 5279   2.802   1.698   4.628
 1754SOL    HW1 5280   2.882   1.641   4.649
 1754SOL    HW2 5281   2.753   1.658   4.551
 1755SOL     OW 5282   2.244   0.700   4.204
 1755SOL    HW1 5283   2.289   0.610   4.201
 1755SOL    HW2 5284   2.150   0.689   4.237
 1756SOL     OW 5285   2.476   0.122   3.841
 1756SOL    HW1 5286   2.574   0.100   3.848
 1756SOL    HW2 5287   2.445   0.105   3.748
 1757SOL     OW 5288   2.401   0.064   4.236
 1757SOL    HW1 5289   2.320   0.065   4.294
 1757SOL    HW2 5290   2.404   0.147   4.181
 1758SOL     OW 5291   3.296   1.188   3.765
 1758SOL    HW1 5292   3.328   1.112   3.822
 1758SOL    HW2 5293   3.204   1.215   3.795
 1759SOL     OW 5294   2.159   0.035   3.895
 1759SOL    HW1 5295   2.208   0.119   3.874
 1759SOL    HW2 5296   2.221  -0.030   3.940
 1760SOL     OW 5297   2.797   0.236   4.204
 1760SOL    HW1 5298   2.749   0.277   4.126
 1760SOL    HW2 5299   2.896   0.234   4.185
 1761SOL     OW 5300   2.321   1.152   4.465
 1761SOL    HW1 5301   2.250   1.125   4.530
 1761SOL    HW2 5302   2.295   1.124   4.372
 1762SOL     OW 5303   3.133   1.797   4.315
 1762SOL    HW1 5304   3.177   1.861   4.251
 1762SOL    HW2 5305   3.083   1.849   4.385
 1763SOL     OW 5306   2.894   0.549   3.740
 1763SOL    HW1 5307   2.853   0.631   3.701
 1763SOL    HW2 5308   2.958   0.575   3.813
 1764SOL     OW 5309   2.728   0.454   4.366
 1764SOL    HW1 5310   2.696   0.526   4.304
 1764SOL    HW2 5311   2.752   0.373   4.313
 1765SOL     OW 5312   2.879   0.039   4.477
 1765SOL    HW1 5313   2.807   0.044   4.408
 1765SOL    HW2 5314   2.855  -0.030   4.546
 1766SOL     OW 5315   3.719   0.833   4.101
 1766SOL    HW1 5316   3.761   0.769   4.165
 1766SOL    HW2 5317   3.681   0.782   4.023
 1767SOL     OW 5318   2.350   1.385   3.898
 1767SOL    HW1 5319   2.263   1.370   3.945
 1767SOL    HW2 5320   2.333   1.411   3.803
 1768SOL     OW 5321   3.526   1.280   4.381
 1768SOL    HW1 5322   3.625   1.288   4.395
 1768SOL    HW2 5323   3.481   1.364   4.412
 1769SOL     OW 5324   3.252   0.575   3.802
 1769SOL    HW1 5325   3.198   0.554   3.883
 1769SOL    HW2 5326   3.343   0.534   3.811
 1770SOL     OW 5327   2.389   0.256   4.052
 1770SOL    HW1 5328   2.416   0.197   3.977
 1770SOL    HW2 5329   2.389   0.351   4.021
 1771SOL     OW 5330   2.567   1.050   4.092
 1771SOL    HW1 5331   2.553   1.057   4.191
 1771SOL    HW2 5332   2.651   0.999   4.074
 1772SOL     OW 5333   2.229   1.100   4.225
 1772SOL    HW1 5334   2.222   1.183   4.169
 1772SOL    HW2 5335   2.233   1.020   4.165
 1773SOL     OW 5336   2.428   0.537   4.589
 1773SOL    HW1 5337   2.440   0.603   4.515
 1773SOL    HW2 5338   2.474   0.571   4.672
 1774SOL     OW 5339   3.114   1.348   4.112
 1774SOL    HW1 5340   3.164   1.425   4.152
 1774SOL    HW2 5341   3.019   1.350   4.144
 1775SOL     OW 5342   3.444   0.639   4.196
 1775SOL    HW1 5343   3.413   0.700   4.269
 1775SOL    HW2 5344   3.494   0.691   4.127
 1776SOL     OW 5345   3.071   0.525   3.999
 1776SOL    HW1 5346   3.084   0.441   4.053
 1776SOL    HW2 5347   3.042   0.599   4.059
 1777SOL     OW 5348   2.169   0.063   4.342
 1777SOL    HW1 5349   2.158   0.157   4.375
 1777SOL    HW2 5350   2.164   0.000   4.419
 1778SOL     OW 5351   3.484   0.367   4.098
 1778SOL    HW1 5352   3.486   0.291   4.162
 1778SOL    HW2 5353   3.436   0.444   4.138
 1779SOL     OW 5354   3.402   0.274   3.849
 1779SOL    HW1 5355   3.341   0.199   3.872
 1779SOL    HW2 5356   3.424   0.326   3.932
 1780SOL     OW 5357   3.165   0.838   3.766
 1780SOL    HW1 5358   3.199   0.745   3.781
 1780SOL    HW2 5359   3.183   0.865   3.671
 1781SOL     OW 5360   1.870   1.326   3.924
 1781SOL    HW1 5361   1.777   1.347   3.893
 1781SOL    HW2 5362   1.880   1.227   3.937
 1782SOL     OW 5363   2.677   0.572   4.049
 1782SOL    HW1 5364   2.684   0.483   4.003
 1782SOL    HW2 5365   2.583   0.606   4.041
 1783SOL     OW 5366   2.335   0.500   3.915
 1783SOL    HW1 5367   2.396   0.580   3.919
 1783SOL    HW2 5368   2.240   0.531   3.922
 1784SOL     OW 5369   3.164   0.855   4.033
 1784SOL    HW1 5370   3.078   0.824   4.075
 1784SOL    HW2 5371   3.160   0.841   3.934
 1785SOL     OW 5372   3.588   0.135   4.247
 1785SOL    HW1 5373   3.661   0.118   4.180
 1785SOL    HW2 5374   3.557   0.048   4.285
 1786SOL     OW 5375   3.250   1.573   4.201
 1786SOL    HW1 5376   3.317   1.585   4.127
 1786SOL    HW2 5377   3.210   1.662   4.224
 1787SOL     OW 5378   3.142   0.927   4.396
 1787SOL    HW1 5379   3.202   0.846   4.398
 1787SOL    HW2 5380   3.182   0.996   4.336
 1788SOL     OW 5381   2.534   1.616   3.878
 1788SOL    HW1 5382   2.543   1.626   3.779
 1788SOL    HW2 5383   2.494   1.527   3.899
 1789SOL     OW 5384   3.703   0.175   4.687
 1789SOL    HW1 5385   3.742   0.090   4.651
 1789SOL    HW2 5386   3.605   0.177   4.668
 1790SOL     OW 5387   2.125   0.326   4.444
 1790SOL    HW1 5388   2.046   0.377   4.410
 1790SOL    HW2 5389   2.116   0.311   4.542
 1791SOL     OW 5390   3.056   1.612   3.755
 1791SOL    HW1 5391   3.062   1.519   3.792
 1791SOL    HW2 5392   2.997   1.612   3.675
 1792SOL     OW 5393   2.778   0.910   4.015
 1792SOL    HW1 5394   2.841   0.948   3.947
 1792SOL    HW2 5395   2.818   0.827   4.054
 1793SOL     OW 5396   3.366   1.607   3.768
 1793SOL    HW1 5397   3.274   1.644   3.775
 1793SOL    HW2 5398   3.404   1.627   3.678
 1794SOL     OW 5399   2.901   1.098   4.420
 1794SOL    HW1 5400   2.831   1.051   4.474
 1794SOL    HW2 5401   2.960   1.030   4.377
 1795SOL     OW 5402   2.452   1.487   4.215
 1795SOL    HW1 5403   2.494   1.429   4.145
 1795SOL    HW2 5404   2.408   1.566   4.171
 1796SOL     OW 5405   2.117   1.348   4.014
 1796SOL    HW1 5406   2.021   1.349   3.987
 1796SOL    HW2 5407   2.129   1.401   4.098
 1797SOL     OW 5408   1.937   0.345   3.757
 1797SOL    HW1 5409   1.845   0.317   3.728
 1797SOL    HW2 5410   1.968   0.422   3.701
 1798SOL     OW 5411   1.934   0.166   4.042
 1798SOL    HW1 5412   1.917   0.249   3.988
 1798SOL    HW2 5413   2.024   0.129   4.020
 1799SOL     OW 5414   3.045   1.335   3.843
 1799SOL    HW1 5415   2.946   1.324   3.845
 1799SOL    HW2 5416   3.079   1.350   3.936
 1800SOL     OW 5417   3.087   0.325   4.173
 1800SOL    HW1 5418   3.152   0.251   4.162
 1800SOL    HW2 5419   3.107   0.375   4.257
 1801SOL     OW 5420   2.456   0.745   4.376
 1801SOL    HW1 5421   2.506   0.830   4.357
 1801SOL    HW2 5422   2.368   0.747   4.328
 1802SOL     OW 5423   2.721   1.374   3.740
 1802SOL    HW1 5424   2.675   1.389   3.828
 1802SOL    HW2 5425   2.765   1.459   3.710
 1803SOL     OW 5426   2.523   1.790   4.677
 1803SOL    HW1 5427   2.477   1.878   4.664
 1803SOL    HW2 5428   2.622   1.802   4.670
 1804SOL     OW 5429   2.721   0.956   4.585
 1804SOL    HW1 5430   2.775   0.887   4.633
 1804SOL    HW2 5431   2.689   1.025   4.651
 1805SOL     OW 5432   2.945   0.984   3.811
 1805SOL    HW1 5433   2.922   1.037   3.729
 1805SOL    HW2 5434   3.026   0.928   3.792
 1806SOL     OW 5435   1.941   1.240   4.377
 1806SOL    HW1 5436   1.940   1.193   4.465
 1806SOL    HW2 5437   2.023   1.212   4.326
 1807SOL     OW 5438   2.290   0.424   4.244
 1807SOL    HW1 5439   2.320   0.352   4.182
 1807SOL    HW2 5440   2.251   0.384   4.327
 1808SOL     OW 5441   2.674   1.586   4.411
 1808SOL    HW1 5442   2.706   1.596   4.317
 1808SOL    HW2 5443   2.595   1.524   4.413
 1809SOL     OW 5444   2.632   1.330   4.025
 1809SOL    HW1 5445   2.586   1.243   4.042
 1809SOL    HW2 5446   2.723   1.327   4.066
 1810SOL     OW 5447   3.214   0.052   3.892
 1810SOL    HW1 5448   3.249   0.011   3.808
 1810SOL    HW2 5449   3.124   0.014   3.912
 1811SOL     OW 5450   3.162   0.453   4.415
 1811SOL    HW1 5451   3.103   0.533   4.419
 1811SOL    HW2 5452   3.177   0.418   4.508
 1812SOL     OW 5453   1.901   1.077   4.024
 1812SOL    HW1 5454   2.000   1.066   4.015
 1812SOL    HW2 5455   1.861   0.991   4.056
 1813SOL     OW 5456   2.737   1.646   4.061
 1813SOL    HW1 5457   2.660   1.611   4.007
 1813SOL    HW2 5458   2.705   1.717   4.123
 1814SOL     OW 5459   2.092   2.490   0.113
 1814SOL    HW1 5460   1.999   2.488   0.150
 1814SOL    HW2 5461   2.093   2.451   0.021
 1815SOL     OW 5462   2.087   2.137   0.996
 1815SOL    HW1 5463   2.122   2.120   1.088
 1815SOL    HW2 5464   1.999   2.092   0.984
 1816SOL     OW 5465   1.881   2.230   0.647
 1816SOL    HW1 5466   1.799   2.273   0.686
 1816SOL    HW2 5467   1.853   2.157   0.584
 1817SOL     OW 5468   2.431   3.137   1.165
 1817SOL    HW1 5469   2.338   3.130   1.128
 1817SOL    HW2 5470   2.442   3.226   1.209
 1818SOL     OW 5471   3.417   3.373   0.703
 1818SOL    HW1 5472   3.360   3.357   0.784
 1818SOL    HW2 5473   3.358   3.383   0.623
 1819SOL     OW 5474   2.997   2.565   0.717
 1819SOL    HW1 5475   3.054   2.643   0.692
 1819SOL    HW2 5476   2.937   2.591   0.793
 1820SOL     OW 5477   3.617   2.469   0.231
 1820SOL    HW1 5478   3.605   2.456   0.132
 1820SOL    HW2 5479   3.587   2.388   0.280
 1821SOL     OW 5480   2.630   3.006   1.023
 1821SOL    HW1 5481   2.552   3.023   1.083
 1821SOL    HW2 5482   2.664   3.093   0.987
 1822SOL     OW 5483   2.712   2.660   1.823
 1822SOL    HW1 5484   2.708   2.736   1.888
 1822SOL    HW2 5485   2.734   2.696   1.732
 1823SOL     OW 5486   2.547   2.874   0.665
 1823SOL    HW1 5487   2.616   2.858   0.735
 1823SOL    HW2 5488   2.474   2.931   0.703
 1824SOL     OW 5489   2.548   3.023   1.803
 1824SOL    HW1 5490   2.608   3.102   1.817
 1824SOL    HW2 5491   2.462   3.054   1.762
 1825SOL     OW 5492   2.197   3.297   1.061
 1825SOL    HW1 5493   2.119   3.266   1.008
 1825SOL    HW2 5494   2.255   3.355   1.004
 1826SOL     OW 5495   3.322   3.367   1.339
 1826SOL    HW1 5496   3.346   3.461   1.365
 1826SOL    HW2 5497   3.306   3.313   1.421
 1827SOL     OW 5498   2.300   2.254   1.499
 1827SOL    HW1 5499   2.382   2.198   1.508
 1827SOL    HW2 5500   2.219   2.196   1.503
 1828SOL     OW 5501   3.465   2.309   0.737
 1828SOL    HW1 5502   3.391   2.355   0.687
 1828SOL    HW2 5503   3.516   2.377   0.790
 1829SOL     OW 5504   2.093   3.575   0.483
 1829SOL    HW1 5505   2.127   3.652   0.537
 1829SOL    HW2 5506   2.137   3.575   0.393
 1830SOL     OW 5507   2.989   3.203   1.690
 1830SOL    HW1 5508   3.036   3.203   1.778
 1830SOL    HW2 5509   2.941   3.116   1.679
 1831SOL     OW 5510   2.092   3.296   0.538
 1831SOL    HW1 5511   2.066   3.392   0.538
 1831SOL    HW2 5512   2.021   3.242   0.583
 1832SOL     OW 5513   2.102   2.953   0.886
 1832SOL    HW1 5514   2.116   2.869   0.938
 1832SOL    HW2 5515   2.047   3.017   0.941
 1833SOL     OW 5516   2.482   3.648   1.439
 1833SOL    HW1 5517   2.390   3.631   1.474
 1833SOL    HW2 5518   2.510   3.740   1.465
 1834SOL     OW 5519   2.468   2.826   0.123
 1834SOL    HW1 5520   2.475   2.910   0.069
 1834SOL    HW2 5521   2.514   2.839   0.211
 1835SOL     OW 5522   3.456   1.976   1.480
 1835SOL    HW1 5523   3.438   2.043   1.408
 1835SOL    HW2 5524   3.453   2.022   1.569
 1836SOL     OW 5525   1.984   2.505   0.563
 1836SOL    HW1 5526   1.939   2.417   0.580
 1836SOL    HW2 5527   1.983   2.559   0.647
 1837SOL     OW 5528   3.704   3.629   0.359
 1837SOL    HW1 5529   3.758   3.600   0.439
 1837SOL    HW2 5530   3.734   3.719   0.330
 1838SOL     OW 5531   1.889   3.458   0.117
 1838SOL    HW1 5532   1.870   3.362   0.138
 1838SOL    HW2 5533   1.856   3.516   0.192
 1839SOL     OW 5534   3.551   2.784   0.612
 1839SOL    HW1 5535   3.646   2.755   0.620
 1839SOL    HW2 5536   3.543   2.849   0.537
 1840SOL     OW 5537   3.503   2.970   0.432
 1840SOL    HW1 5538   3.589   2.972   0.380
 1840SOL    HW2 5539   3.517   3.017   0.520
 1841SOL     OW 5540   1.975   2.599   1.597
 1841SOL    HW1 5541   2.063   2.586   1.642
 1841SOL    HW2 5542   1.962   2.696   1.575
 1842SOL     OW 5543   2.475   3.227   0.726
 1842SOL    HW1 5544   2.426   3.140   0.735
 1842SOL    HW2 5545   2.452   3.270   0.639
 1843SOL     OW 5546   3.155   3.090   1.423
 1843SOL    HW1 5547   3.192   3.017   1.365
 1843SOL    HW2 5548   3.207   3.095   1.508
 1844SOL     OW 5549   2.671   1.866   0.502
 1844SOL    HW1 5550   2.711   1.957   0.493
 1844SOL    HW2 5551   2.571   1.874   0.508
 1845SOL     OW 5552   2.059   2.838   1.264
 1845SOL    HW1 5553   2.148   2.793   1.250
 1845SOL    HW2 5554   1.986   2.773   1.245
 1846SOL     OW 5555   3.387   2.861   0.190
 1846SOL    HW1 5556   3.324   2.785   0.203
 1846SOL    HW2 5557   3.435   2.879   0.276
 1847SOL     OW 5558   3.049   3.654   1.616
 1847SOL    HW1 5559   3.073   3.714   1.540
 1847SOL    HW2 5560   3.056   3.559   1.586
 1848SOL     OW 5561   2.179   2.113   1.801
 1848SOL    HW1 5562   2.250   2.184   1.807
 1848SOL    HW2 5563   2.091   2.152   1.829
 1849SOL     OW 5564   3.328   3.279   0.953
 1849SOL    HW1 5565   3.269   3.285   1.033
 1849SOL    HW2 5566   3.313   3.191   0.907
 1850SOL     OW 5567   3.529   3.576   0.572
 1850SOL    HW1 5568   3.488   3.553   0.484
 1850SOL    HW2 5569   3.511   3.502   0.637
 1851SOL     OW 5570   2.460   2.591   0.270
 1851SOL    HW1 5571   2.484   2.660   0.202
 1851SOL    HW2 5572   2.382   2.624   0.324
 1852SOL     OW 5573   3.143   2.207   0.944
 1852SOL    HW1 5574   3.057   2.157   0.931
 1852SOL    HW2 5575   3.205   2.153   1.000
 1853SOL     OW 5576   3.438   3.524   0.307
 1853SOL    HW1 5577   3.527   3.570   0.310
 1853SOL    HW2 5578   3.417   3.500   0.212
 1854SOL     OW 5579   2.669   2.467   1.465
 1854SOL    HW1 5580   2.622   2.464   1.554
 1854SOL    HW2 5581   2.618   2.412   1.399
 1855SOL     OW 5582   3.256   2.331   1.674
 1855SOL    HW1 5583   3.236   2.374   1.762
 1855SOL    HW2 5584   3.334   2.269   1.683
 1856SOL     OW 5585   2.835   2.752   1.572
 1856SOL    HW1 5586   2.881   2.668   1.543
 1856SOL    HW2 5587   2.779   2.786   1.497
 1857SOL     OW 5588   2.853   2.272   1.242
 1857SOL    HW1 5589   2.776   2.306   1.296
 1857SOL    HW2 5590   2.819   2.221   1.163
 1858SOL     OW 5591   2.903   2.563   0.429
 1858SOL    HW1 5592   2.929   2.559   0.525
 1858SOL    HW2 5593   2.818   2.512   0.415
 1859SOL     OW 5594   1.938   2.673   0.789
 1859SOL    HW1 5595   2.037   2.661   0.798
 1859SOL    HW2 5596   1.914   2.768   0.810
 1860SOL     OW 5597   1.992   3.683   1.571
 1860SOL    HW1 5598   1.982   3.668   1.670
 1860SOL    HW2 5599   1.906   3.719   1.535
 1861SOL     OW 5600   2.727   2.210   0.195
 1861SOL    HW1 5601   2.786   2.273   0.146
 1861SOL    HW2 5602   2.746   2.116   0.166
 1862SOL     OW 5603   3.581   2.447   1.831
 1862SOL    HW1 5604   3.555   2.536   1.795
 1862SOL    HW2 5605   3.579   2.379   1.758
 1863SOL     OW 5606   3.224   3.006   0.545
 1863SOL    HW1 5607   3.307   2.977   0.497
 1863SOL    HW2 5608   3.175   3.073   0.489
 1864SOL     OW 5609   2.412   2.058   0.885
 1864SOL    HW1 5610   2.407   2.053   0.985
 1864SOL    HW2 5611   2.414   2.154   0.856
 1865SOL     OW 5612   2.870   3.318   0.477
 1865SOL    HW1 5613   2.824   3.390   0.425
 1865SOL    HW2 5614   2.866   3.338   0.575
 1866SOL     OW 5615   2.213   3.663   0.853
 1866SOL    HW1 5616   2.263   3.577   0.859
 1866SOL    HW2 5617   2.278   3.740   0.850
 1867SOL     OW 5618   3.657   2.928   0.873
 1867SOL    HW1 5619   3.595   2.913   0.797
 1867SOL    HW2 5620   3.605   2.939   0.958
 1868SOL     OW 5621   3.089   3.412   1.506
 1868SOL    HW1 5622   3.095   3.335   1.570
 1868SOL    HW2 5623   3.037   3.386   1.426
 1869SOL     OW 5624   2.183   2.805   0.242
 1869SOL    HW1 5625   2.265   2.844   0.200
 1869SOL    HW2 5626   2.156   2.723   0.193
 1870SOL     OW 5627   3.320   2.597   0.728
 1870SOL    HW1 5628   3.315   2.532   0.803
 1870SOL    HW2 5629   3.400   2.656   0.741
 1871SOL     OW 5630   2.323   3.128   1.727
 1871SOL    HW1 5631   2.273   3.129   1.641
 1871SOL    HW2 5632   2.260   3.110   1.803
 1872SOL     OW 5633   2.973   3.638   0.237
 1872SOL    HW1 5634   2.913   3.576   0.287
 1872SOL    HW2 5635   3.004   3.594   0.152
 1873SOL     OW 5636   2.064   2.147   1.498
 1873SOL    HW1 5637   1.984   2.207   1.485
 1873SOL    HW2 5638   2.054   2.098   1.584
 1874SOL     OW 5639   3.494   3.239   0.081
 1874SOL    HW1 5640   3.462   3.333   0.071
 1874SOL    HW2 5641   3.418   3.176   0.069
 1875SOL     OW 5642   2.326   3.605   0.323
 1875SOL    HW1 5643   2.359   3.644   0.409
 1875SOL    HW2 5644   2.402   3.598   0.258
 1876SOL     OW 5645   3.262   1.969   0.426
 1876SOL    HW1 5646   3.238   1.932   0.336
 1876SOL    HW2 5647   3.361   1.985   0.430
 1877SOL     OW 5648   2.111   3.647   1.241
 1877SOL    HW1 5649   2.168   3.582   1.291
 1877SOL    HW2 5650   2.095   3.614   1.148
 1878SOL     OW 5651   2.802   3.560   0.904
 1878SOL    HW1 5652   2.882   3.503   0.925
 1878SOL    HW2 5653   2.753   3.520   0.827
 1879SOL     OW 5654   2.244   2.562   0.480
 1879SOL    HW1 5655   2.289   2.472   0.477
 1879SOL    HW2 5656   2.150   2.551   0.513
 1880SOL     OW 5657   3.409   2.084   1.729
 1880SOL    HW1 5658   3.404   2.121   1.821
 1880SOL    HW2 5659   3.337   2.015   1.717
 1881SOL     OW 5660   2.643   2.126   1.749
 1881SOL    HW1 5661   2.710   2.065   1.792
 1881SOL    HW2 5662   2.570   2.145   1.814
 1882SOL     OW 5663   2.750   3.376   1.195
 1882SOL    HW1 5664   2.727   3.351   1.101
 1882SOL    HW2 5665   2.811   3.307   1.234
 1883SOL     OW 5666   3.213   2.452   1.433
 1883SOL    HW1 5667   3.241   2.409   1.518
 1883SOL    HW2 5668   3.238   2.548   1.434
 1884SOL     OW 5669   2.665   3.264   0.924
 1884SOL    HW1 5670   2.755   3.278   0.882
 1884SOL    HW2 5671   2.594   3.266   0.853
 1885SOL     OW 5672   2.784   2.365   0.899
 1885SOL    HW1 5673   2.759   2.356   0.803
 1885SOL    HW2 5674   2.832   2.283   0.930
 1886SOL     OW 5675   2.401   1.926   0.512
 1886SOL    HW1 5676   2.320   1.927   0.570
 1886SOL    HW2 5677   2.404   2.009   0.457
 1887SOL     OW 5678   3.296   3.050   0.041
 1887SOL    HW1 5679   3.328   2.974   0.098
 1887SOL    HW2 5680   3.204   3.077   0.071
 1888SOL     OW 5681   2.159   1.897   0.171
 1888SOL    HW1 5682   2.208   1.981   0.150
 1888SOL    HW2 5683   2.221   1.832   0.216
 1889SOL     OW 5684   2.797   2.098   0.480
 1889SOL    HW1 5685   2.749   2.139   0.402
 1889SOL    HW2 5686   2.896   2.096   0.461
 1890SOL     OW 5687   2.938   2.545   1.464
 1890SOL    HW1 5688   2.858   2.484   1.467
 1890SOL    HW2 5689   3.019   2.492   1.440
 1891SOL     OW 5690   3.089   3.432   0.793
 1891SOL    HW1 5691   3.110   3.506   0.728
 1891SOL    HW2 5692   3.157   3.432   0.866
 1892SOL     OW 5693   2.321   3.014   0.741
 1892SOL    HW1 5694   2.250   2.987   0.806
 1892SOL    HW2 5695   2.295   2.986   0.648
 1893SOL     OW 5696   3.133   3.659   0.591
 1893SOL    HW1 5697   3.177   3.723   0.527
 1893SOL    HW2 5698   3.083   3.711   0.661
 1894SOL     OW 5699   2.894   2.411   0.016
 1894SOL    HW1 5700   2.853   2.493  -0.023
 1894SOL    HW2 5701   2.958   2.437   0.089
 1895SOL     OW 5702   1.940   2.418   1.386
 1895SOL    HW1 5703   2.032   2.417   1.345
 1895SOL    HW2 5704   1.934   2.492   1.453
 1896SOL     OW 5705   2.423   2.084   1.147
 1896SOL    HW1 5706   2.461   2.000   1.184
 1896SOL    HW2 5707   2.335   2.103   1.191
 1897SOL     OW 5708   2.728   2.316   0.642
 1897SOL    HW1 5709   2.696   2.388   0.580
 1897SOL    HW2 5710   2.752   2.235   0.589
 1898SOL     OW 5711   2.879   1.901   0.753
 1898SOL    HW1 5712   2.807   1.906   0.684
 1898SOL    HW2 5713   2.855   1.832   0.822
 1899SOL     OW 5714   3.291   3.035   0.867
 1899SOL    HW1 5715   3.236   2.951   0.860
 1899SOL    HW2 5716   3.317   3.064   0.775
 1900SOL     OW 5717   3.328   2.452   0.992
 1900SOL    HW1 5718   3.298   2.357   0.999
 1900SOL    HW2 5719   3.401   2.468   1.058
 1901SOL     OW 5720   3.719   2.695   0.377
 1901SOL    HW1 5721   3.761   2.631   0.441
 1901SOL    HW2 5722   3.681   2.644   0.299
 1902SOL     OW 5723   2.350   3.247   0.174
 1902SOL    HW1 5724   2.263   3.232   0.221
 1902SOL    HW2 5725   2.333   3.273   0.079
 1903SOL     OW 5726   3.526   3.142   0.657
 1903SOL    HW1 5727   3.625   3.150   0.671
 1903SOL    HW2 5728   3.481   3.226   0.688
 1904SOL     OW 5729   3.252   2.437   0.078
 1904SOL    HW1 5730   3.198   2.416   0.159
 1904SOL    HW2 5731   3.343   2.396   0.087
 1905SOL     OW 5732   2.389   2.118   0.328
 1905SOL    HW1 5733   2.416   2.059   0.253
 1905SOL    HW2 5734   2.389   2.213   0.297
 1906SOL     OW 5735   3.616   3.085   1.588
 1906SOL    HW1 5736   3.707   3.046   1.575
 1906SOL    HW2 5737   3.624   3.181   1.612
 1907SOL     OW 5738   2.926   3.209   1.340
 1907SOL    HW1 5739   2.846   3.186   1.395
 1907SOL    HW2 5740   3.009   3.183   1.389
 1908SOL     OW 5741   3.454   3.491   1.625
 1908SOL    HW1 5742   3.481   3.525   1.535
 1908SOL    HW2 5743   3.533   3.453   1.671
 1909SOL     OW 5744   2.973   3.057   1.100
 1909SOL    HW1 5745   2.933   3.101   1.181
 1909SOL    HW2 5746   2.932   3.094   1.017
 1910SOL     OW 5747   3.500   2.961   1.079
 1910SOL    HW1 5748   3.505   3.042   1.138
 1910SOL    HW2 5749   3.414   2.963   1.028
 1911SOL     OW 5750   2.777   1.951   1.402
 1911SOL    HW1 5751   2.802   1.931   1.307
 1911SOL    HW2 5752   2.849   2.007   1.444
 1912SOL     OW 5753   2.842   2.978   1.719
 1912SOL    HW1 5754   2.743   2.984   1.729
 1912SOL    HW2 5755   2.865   2.898   1.663
 1913SOL     OW 5756   2.567   2.912   0.368
 1913SOL    HW1 5757   2.553   2.919   0.467
 1913SOL    HW2 5758   2.651   2.861   0.350
 1914SOL     OW 5759   2.272   2.675   1.251
 1914SOL    HW1 5760   2.358   2.687   1.301
 1914SOL    HW2 5761   2.230   2.588   1.278
 1915SOL     OW 5762   3.136   2.248   1.262
 1915SOL    HW1 5763   3.157   2.322   1.326
 1915SOL    HW2 5764   3.047   2.265   1.219
 1916SOL     OW 5765   1.926   3.426   1.331
 1916SOL    HW1 5766   1.880   3.508   1.297
 1916SOL    HW2 5767   2.024   3.445   1.340
 1917SOL     OW 5768   2.229   2.962   0.501
 1917SOL    HW1 5769   2.222   3.045   0.445
 1917SOL    HW2 5770   2.233   2.882   0.441
 1918SOL     OW 5771   2.428   2.399   0.865
 1918SOL    HW1 5772   2.440   2.465   0.791
 1918SOL    HW2 5773   2.474   2.433   0.948
 1919SOL     OW 5774   3.114   3.210   0.388
 1919SOL    HW1 5775   3.164   3.287   0.428
 1919SOL    HW2 5776   3.019   3.212   0.420
 1920SOL     OW 5777   3.134   3.307   1.142
 1920SOL    HW1 5778   3.181   3.320   1.229
 1920SOL    HW2 5779   3.068   3.233   1.151
 1921SOL     OW 5780   3.444   2.501   0.472
 1921SOL    HW1 5781   3.413   2.562   0.545
 1921SOL    HW2 5782   3.494   2.553   0.403
 1922SOL     OW 5783   2.216   3.372   1.329
 1922SOL    HW1 5784   2.195   3.328   1.242
 1922SOL    HW2 5785   2.313   3.398   1.332
 1923SOL     OW 5786   2.264   2.613   1.598
 1923SOL    HW1 5787   2.332   2.668   1.551
 1923SOL    HW2 5788   2.304   2.525   1.625
 1924SOL     OW 5789   3.449   2.641   1.670
 1924SOL    HW1 5790   3.357   2.679   1.665
 1924SOL    HW2 5791   3.509   2.688   1.605
 1925SOL     OW 5792   2.875   1.967   1.770
 1925SOL    HW1 5793   2.881   2.052   1.718
 1925SOL    HW2 5794   2.907   1.891   1.713
 1926SOL     OW 5795   2.366   1.912   1.740
 1926SOL    HW1 5796   2.324   1.855   1.670
 1926SOL    HW2 5797   2.300   1.981   1.772
 1927SOL     OW 5798   2.435   2.732   1.029
 1927SOL    HW1 5799   2.479   2.821   1.020
 1927SOL    HW2 5800   2.372   2.732   1.106
 1928SOL     OW 5801   3.222   2.724   1.045
 1928SOL    HW1 5802   3.147   2.724   0.979
 1928SOL    HW2 5803   3.259   2.632   1.054
 1929SOL     OW 5804   3.071   2.387   0.275
 1929SOL    HW1 5805   3.084   2.303   0.329
 1929SOL    HW2 5806   3.042   2.461   0.335
 1930SOL     OW 5807   2.169   2.075   1.231
 1930SOL    HW1 5808   2.146   2.112   1.321
 1930SOL    HW2 5809   2.139   1.980   1.225
 1931SOL     OW 5810   1.899   3.172   1.282
 1931SOL    HW1 5811   1.952   3.123   1.350
 1931SOL    HW2 5812   1.921   3.270   1.287
 1932SOL     OW 5813   2.594   2.496   1.064
 1932SOL    HW1 5814   2.653   2.470   0.988
 1932SOL    HW2 5815   2.566   2.592   1.053
 1933SOL     OW 5816   3.590   2.797   1.854
 1933SOL    HW1 5817   3.544   2.790   1.765
 1933SOL    HW2 5818   3.528   2.841   1.920
 1934SOL     OW 5819   2.169   1.925   0.618
 1934SOL    HW1 5820   2.158   2.019   0.651
 1934SOL    HW2 5821   2.164   1.862   0.695
 1935SOL     OW 5822   3.484   2.229   0.374
 1935SOL    HW1 5823   3.486   2.153   0.438
 1935SOL    HW2 5824   3.436   2.306   0.414
 1936SOL     OW 5825   2.885   2.628   0.966
 1936SOL    HW1 5826   2.900   2.649   1.062
 1936SOL    HW2 5827   2.855   2.533   0.957
 1937SOL     OW 5828   2.842   3.435   1.700
 1937SOL    HW1 5829   2.822   3.479   1.612
 1937SOL    HW2 5830   2.881   3.344   1.684
 1938SOL     OW 5831   3.721   3.380   1.605
 1938SOL    HW1 5832   3.735   3.407   1.510
 1938SOL    HW2 5833   3.804   3.402   1.658
 1939SOL     OW 5834   2.212   2.760   1.804
 1939SOL    HW1 5835   2.288   2.804   1.852
 1939SOL    HW2 5836   2.247   2.713   1.722
 1940SOL     OW 5837   3.402   2.136   0.125
 1940SOL    HW1 5838   3.341   2.061   0.148
 1940SOL    HW2 5839   3.424   2.188   0.208
 1941SOL     OW 5840   3.165   2.700   0.042
 1941SOL    HW1 5841   3.199   2.607   0.057
 1941SOL    HW2 5842   3.183   2.727  -0.053
 1942SOL     OW 5843   2.930   3.195   0.849
 1942SOL    HW1 5844   2.937   3.111   0.794
 1942SOL    HW2 5845   2.992   3.264   0.813
 1943SOL     OW 5846   2.181   2.672   0.949
 1943SOL    HW1 5847   2.274   2.708   0.954
 1943SOL    HW2 5848   2.175   2.587   1.001
 1944SOL     OW 5849   2.201   2.371   1.006
 1944SOL    HW1 5850   2.149   2.288   0.989
 1944SOL    HW2 5851   2.278   2.376   0.942
 1945SOL     OW 5852   3.000   2.242   1.678
 1945SOL    HW1 5853   2.955   2.305   1.742
 1945SOL    HW2 5854   3.093   2.273   1.661
 1946SOL     OW 5855   3.022   2.069   1.477
 1946SOL    HW1 5856   3.022   2.133   1.554
 1946SOL    HW2 5857   3.050   2.117   1.394
 1947SOL     OW 5858   1.870   3.188   0.200
 1947SOL    HW1 5859   1.777   3.209   0.169
 1947SOL    HW2 5860   1.880   3.089   0.213
 1948SOL     OW 5861   1.950   3.663   0.927
 1948SOL    HW1 5862   1.908   3.577   0.900
 1948SOL    HW2 5863   2.044   3.666   0.893
 1949SOL     OW 5864   2.366   3.430   0.910
 1949SOL    HW1 5865   2.432   3.504   0.919
 1949SOL    HW2 5866   2.410   3.351   0.868
 1950SOL     OW 5867   2.864   2.658   1.238
 1950SOL    HW1 5868   2.905   2.626   1.324
 1950SOL    HW2 5869   2.768   2.631   1.235
 1951SOL     OW 5870   1.902   2.406   1.114
 1951SOL    HW1 5871   1.987   2.373   1.073
 1951SOL    HW2 5872   1.915   2.421   1.212
 1952SOL     OW 5873   2.051   2.382   1.722
 1952SOL    HW1 5874   2.110   2.342   1.652
 1952SOL    HW2 5875   1.993   2.453   1.681
 1953SOL     OW 5876   3.231   2.812   1.660
 1953SOL    HW1 5877   3.270   2.901   1.680
 1953SOL    HW2 5878   3.241   2.792   1.563
 1954SOL     OW 5879   2.677   2.434   0.325
 1954SOL    HW1 5880   2.684   2.345   0.279
 1954SOL    HW2 5881   2.583   2.468   0.317
 1955SOL     OW 5882   3.519   2.466   1.206
 1955SOL    HW1 5883   3.481   2.397   1.268
 1955SOL    HW2 5884   3.601   2.430   1.162
 1956SOL     OW 5885   2.114   3.426   1.744
 1956SOL    HW1 5886   2.084   3.483   1.820
 1956SOL    HW2 5887   2.107   3.329   1.770
 1957SOL     OW 5888   2.533   2.326   1.269
 1957SOL    HW1 5889   2.499   2.237   1.239
 1957SOL    HW2 5890   2.559   2.380   1.189
 1958SOL     OW 5891   2.792   3.540   1.465
 1958SOL    HW1 5892   2.768   3.522   1.370
 1958SOL    HW2 5893   2.822   3.634   1.475
 1959SOL     OW 5894   2.335   2.362   0.191
 1959SOL    HW1 5895   2.396   2.442   0.195
 1959SOL    HW2 5896   2.240   2.393   0.198
 1960SOL     OW 5897   2.021   2.999   1.466
 1960SOL    HW1 5898   2.043   2.938   1.542
 1960SOL    HW2 5899   2.031   2.950   1.380
 1961SOL     OW 5900   3.209   2.921   1.234
 1961SOL    HW1 5901   3.233   2.858   1.160
 1961SOL    HW2 5902   3.119   2.961   1.216
 1962SOL     OW 5903   3.164   2.717   0.309
 1962SOL    HW1 5904   3.078   2.686   0.351
 1962SOL    HW2 5905   3.160   2.703   0.210
 1963SOL     OW 5906   3.621   3.609   1.154
 1963SOL    HW1 5907   3.682   3.639   1.081
 1963SOL    HW2 5908   3.583   3.520   1.132
 1964SOL     OW 5909   3.114   3.593   1.128
 1964SOL    HW1 5910   3.198   3.598   1.074
 1964SOL    HW2 5911   3.091   3.497   1.146
 1965SOL     OW 5912   1.945   3.120   1.022
 1965SOL    HW1 5913   1.940   3.119   1.122
 1965SOL    HW2 5914   1.862   3.079   0.984
 1966SOL     OW 5915   2.550   3.524   1.716
 1966SOL    HW1 5916   2.494   3.605   1.725
 1966SOL    HW2 5917   2.602   3.528   1.630
 1967SOL     OW 5918   2.765   1.948   0.133
 1967SOL    HW1 5919   2.816   1.949   0.047
 1967SOL    HW2 5920   2.821   1.906   0.204
 1968SOL     OW 5921   3.588   1.997   0.523
 1968SOL    HW1 5922   3.661   1.980   0.456
 1968SOL    HW2 5923   3.557   1.910   0.561
 1969SOL     OW 5924   3.250   3.435   0.477
 1969SOL    HW1 5925   3.317   3.447   0.403
 1969SOL    HW2 5926   3.210   3.524   0.500
 1970SOL     OW 5927   1.992   3.656   1.851
 1970SOL    HW1 5928   1.951   3.582   1.904
 1970SOL    HW2 5929   2.056   3.707   1.909
 1971SOL     OW 5930   3.142   2.789   0.672
 1971SOL    HW1 5931   3.202   2.708   0.674
 1971SOL    HW2 5932   3.182   2.858   0.612
 1972SOL     OW 5933   2.692   3.135   1.422
 1972SOL    HW1 5934   2.687   3.168   1.517
 1972SOL    HW2 5935   2.606   3.154   1.376
 1973SOL     OW 5936   2.534   3.478   0.154
 1973SOL    HW1 5937   2.543   3.488   0.055
 1973SOL    HW2 5938   2.494   3.389   0.175
 1974SOL     OW 5939   3.512   3.582   1.394
 1974SOL    HW1 5940   3.565   3.592   1.310
 1974SOL    HW2 5941   3.485   3.672   1.428
 1975SOL     OW 5942   3.703   2.037   0.963
 1975SOL    HW1 5943   3.742   1.952   0.927
 1975SOL    HW2 5944   3.605   2.039   0.944
 1976SOL     OW 5945   2.125   2.188   0.720
 1976SOL    HW1 5946   2.046   2.239   0.686
 1976SOL    HW2 5947   2.116   2.173   0.818
 1977SOL     OW 5948   3.056   3.474   0.031
 1977SOL    HW1 5949   3.062   3.381   0.068
 1977SOL    HW2 5950   2.997   3.474  -0.049
 1978SOL     OW 5951   2.684   2.864   1.372
 1978SOL    HW1 5952   2.724   2.863   1.280
 1978SOL    HW2 5953   2.694   2.956   1.412
 1979SOL     OW 5954   2.778   2.772   0.291
 1979SOL    HW1 5955   2.841   2.810   0.223
 1979SOL    HW2 5956   2.818   2.689   0.330
 1980SOL     OW 5957   3.366   3.469   0.044
 1980SOL    HW1 5958   3.274   3.506   0.051
 1980SOL    HW2 5959   3.404   3.489  -0.046
 1981SOL     OW 5960   2.234   3.150   1.490
 1981SOL    HW1 5961   2.221   3.243   1.456
 1981SOL    HW2 5962   2.150   3.098   1.477
 1982SOL     OW 5963   3.476   3.154   1.289
 1982SOL    HW1 5964   3.536   3.157   1.369
 1982SOL    HW2 5965   3.401   3.218   1.302
 1983SOL     OW 5966   2.901   2.960   0.696
 1983SOL    HW1 5967   2.831   2.913   0.750
 1983SOL    HW2 5968   2.960   2.892   0.653
 1984SOL     OW 5969   2.876   2.098   0.971
 1984SOL    HW1 5970   2.868   2.062   0.878
 1984SOL    HW2 5971   2.874   2.022   1.036
 1985SOL     OW 5972   2.452   3.349   0.491
 1985SOL    HW1 5973   2.494   3.291   0.421
 1985SOL    HW2 5974   2.408   3.428   0.447
 1986SOL     OW 5975   3.571   2.247   1.381
 1986SOL    HW1 5976   3.644   2.316   1.385
 1986SOL    HW2 5977   3.599   2.172   1.322
 1987SOL     OW 5978   2.117   3.210   0.290
 1987SOL    HW1 5979   2.021   3.211   0.263
 1987SOL    HW2 5980   2.129   3.263   0.374
 1988SOL     OW 5981   1.967   2.875   1.726
 1988SOL    HW1 5982   1.890   2.842   1.780
 1988SOL    HW2 5983   2.052   2.845   1.768
 1989SOL     OW 5984   2.534   2.065   1.489
 1989SOL    HW1 5985   2.624   2.049   1.449
 1989SOL    HW2 5986   2.542   2.070   1.588
 1990SOL     OW 5987   1.937   2.207   0.033
 1990SOL    HW1 5988   1.845   2.179   0.004
 1990SOL    HW2 5989   1.968   2.284  -0.023
 1991SOL     OW 5990   3.302   2.718   1.398
 1991SOL    HW1 5991   3.245   2.770   1.335
 1991SOL    HW2 5992   3.398   2.730   1.374
 1992SOL     OW 5993   1.934   2.028   0.318
 1992SOL    HW1 5994   1.917   2.111   0.264
 1992SOL    HW2 5995   2.024   1.991   0.296
 1993SOL     OW 5996   3.045   3.197   0.119
 1993SOL    HW1 5997   2.946   3.186   0.121
 1993SOL    HW2 5998   3.079   3.212   0.212
 1994SOL     OW 5999   2.475   2.704   1.431
 1994SOL    HW1 6000   2.531   2.785   1.414
 1994SOL    HW2 6001   2.534   2.624   1.434
 1995SOL     OW 6002   3.355   3.629   0.959
 1995SOL    HW1 6003   3.388   3.693   0.890
 1995SOL    HW2 6004   3.421   3.623   1.034
 1996SOL     OW 6005   2.578   2.427   1.708
 1996SOL    HW1 6006   2.597   2.492   1.782
 1996SOL    HW2 6007   2.638   2.347   1.717
 1997SOL     OW 6008   3.312   3.082   1.633
 1997SOL    HW1 6009   3.303   3.072   1.732
 1997SOL    HW2 6010   3.408   3.075   1.607
 1998SOL     OW 6011   2.252   3.603   1.560
 1998SOL    HW1 6012   2.161   3.644   1.558
 1998SOL    HW2 6013   2.245   3.509   1.592
 1999SOL     OW 6014   3.536   2.745   1.254
 1999SOL    HW1 6015   3.509   2.656   1.217
 1999SOL    HW2 6016   3.537   2.813   1.181
 2000SOL     OW 6017   3.087   2.187   0.449
 2000SOL    HW1 6018   3.152   2.113   0.438
 2000SOL    HW2 6019   3.107   2.237   0.533
 2001SOL     OW 6020   2.456   2.607   0.652
 2001SOL    HW1 6021   2.506   2.692   0.633
 2001SOL    HW2 6022   2.368   2.609   0.604
 2002SOL     OW 6023   3.639   2.204   1.642
 2002SOL    HW1 6024   3.622   2.235   1.548
 2002SOL    HW2 6025   3.555   2.167   1.680
 2003SOL     OW 6026   3.592   2.796   1.517
 2003SOL    HW1 6027   3.630   2.887   1.532
 2003SOL    HW2 6028   3.584   2.779   1.418
 2004SOL     OW 6029   2.721   3.236   0.016
 2004SOL    HW1 6030   2.675   3.251   0.104
 2004SOL    HW2 6031   2.765   3.321  -0.014
 2005SOL     OW 6032   2.523   3.652   0.953
 2005SOL    HW1 6033   2.477   3.740   0.940
 2005SOL    HW2 6034   2.622   3.664   0.946
 2006SOL     OW 6035   2.721   2.818   0.861
 2006SOL    HW1 6036   2.775   2.749   0.909
 2006SOL    HW2 6037   2.689   2.887   0.927
 2007SOL     OW 6038   2.945   2.846   0.087
 2007SOL    HW1 6039   2.922   2.899   0.005
 2007SOL    HW2 6040   3.026   2.790   0.068
 2008SOL     OW 6041   3.723   3.431   0.851
 2008SOL    HW1 6042   3.652   3.419   0.781
 2008SOL    HW2 6043   3.724   3.352   0.911
 2009SOL     OW 6044   2.083   3.176   1.844
 2009SOL    HW1 6045   2.018   3.103   1.823
 2009SOL    HW2 6046   2.087   3.190   1.942
 2010SOL     OW 6047   1.941   3.102   0.653
 2010SOL    HW1 6048   1.940   3.055   0.741
 2010SOL    HW2 6049   2.023   3.074   0.602
 2011SOL     OW 6050   2.534   3.253   1.624
 2011SOL    HW1 6051   2.456   3.203   1.662
 2011SOL    HW2 6052   2.531   3.348   1.655
 2012SOL     OW 6053   3.686   2.054   1.227
 2012SOL    HW1 6054   3.682   1.964   1.271
 2012SOL    HW2 6055   3.689   2.043   1.128
 2013SOL     OW 6056   2.290   2.286   0.520
 2013SOL    HW1 6057   2.320   2.214   0.458
 2013SOL    HW2 6058   2.251   2.246   0.603
 2014SOL     OW 6059   3.567   3.349   1.104
 2014SOL    HW1 6060   3.474   3.324   1.077
 2014SOL    HW2 6061   3.593   3.299   1.186
 2015SOL     OW 6062   2.179   2.409   1.280
 2015SOL    HW1 6063   2.217   2.350   1.352
 2015SOL    HW2 6064   2.219   2.383   1.192
 2016SOL     OW 6065   2.674   3.448   0.687
 2016SOL    HW1 6066   2.706   3.458   0.593
 2016SOL    HW2 6067   2.595   3.386   0.689
 2017SOL     OW 6068   3.286   2.076   1.112
 2017SOL    HW1 6069   3.338   2.011   1.167
 2017SOL    HW2 6070   3.237   2.139   1.173
 2018SOL     OW 6071   2.863   1.896   1.154
 2018SOL    HW1 6072   2.800   1.824   1.123
 2018SOL    HW2 6073   2.956   1.860   1.154
 2019SOL     OW 6074   2.632   3.192   0.301
 2019SOL    HW1 6075   2.586   3.105   0.318
 2019SOL    HW2 6076   2.723   3.189   0.342
 2020SOL     OW 6077   2.480   3.429   1.284
 2020SOL    HW1 6078   2.475   3.511   1.341
 2020SOL    HW2 6079   2.569   3.426   1.239
 2021SOL     OW 6080   3.214   1.914   0.168
 2021SOL    HW1 6081   3.249   1.873   0.084
 2021SOL    HW2 6082   3.124   1.876   0.188
 2022SOL     OW 6083   3.162   2.315   0.691
 2022SOL    HW1 6084   3.103   2.395   0.695
 2022SOL    HW2 6085   3.177   2.280   0.784
 2023SOL     OW 6086   3.455   2.083   0.882
 2023SOL    HW1 6087   3.371   2.082   0.936
 2023SOL    HW2 6088   3.457   2.166   0.826
 2024SOL     OW 6089   1.901   2.939   0.300
 2024SOL    HW1 6090   2.000   2.928   0.291
 2024SOL    HW2 6091   1.861   2.853   0.332
 2025SOL     OW 6092   2.737   3.508   0.337
 2025SOL    HW1 6093   2.660   3.473   0.283
 2025SOL    HW2 6094   2.705   3.579   0.399
 2026SOL     OW 6095   2.092   2.490   1.975
 2026SOL    HW1 6096   1.999   2.488   2.012
 2026SOL    HW2 6097   2.093   2.451   1.883
 2027SOL     OW 6098   2.087   2.137   2.858
 2027SOL    HW1 6099   2.122   2.120   2.950
 2027SOL    HW2 6100   1.999   2.092   2.846
 2028SOL     OW 6101   1.881   2.230   2.509
 2028SOL    HW1 6102   1.799   2.273   2.548
 2028SOL    HW2 6103   1.853   2.157   2.446
 2029SOL     OW 6104   2.431   3.137   3.027
 2029SOL    HW1 6105   2.338   3.130   2.990
 2029SOL    HW2 6106   2.442   3.226   3.071
 2030SOL     OW 6107   3.417   3.373   2.565
 2030SOL    HW1 6108   3.360   3.357   2.646
 2030SOL    HW2 6109   3.358   3.383   2.485
 2031SOL     OW 6110   2.997   2.565   2.579
 2031SOL    HW1 6111   3.054   2.643   2.554
 2031SOL    HW2 6112   2.937   2.591   2.655
 2032SOL     OW 6113   3.617   2.469   2.093
 2032SOL    HW1 6114   3.605   2.456   1.994
 2032SOL    HW2 6115   3.587   2.388   2.142
 2033SOL     OW 6116   2.630   3.006   2.885
 2033SOL    HW1 6117   2.552   3.023   2.945
 2033SOL    HW2 6118   2.664   3.093   2.849
 2034SOL     OW 6119   2.712   2.660   3.685
 2034SOL    HW1 6120   2.708   2.736   3.750
 2034SOL    HW2 6121   2.734   2.696   3.594
 2035SOL     OW 6122   2.547   2.874   2.527
 2035SOL    HW1 6123   2.616   2.858   2.597
 2035SOL    HW2 6124   2.474   2.931   2.565
 2036SOL     OW 6125   2.548   3.023   3.665
 2036SOL    HW1 6126   2.608   3.102   3.679
 2036SOL    HW2 6127   2.462   3.054   3.624
 2037SOL     OW 6128   2.197   3.297   2.923
 2037SOL    HW1 6129   2.119   3.266   2.870
 2037SOL    HW2 6130   2.255   3.355   2.866
 2038SOL     OW 6131   3.322   3.367   3.201
 2038SOL    HW1 6132   3.346   3.461   3.227
 2038SOL    HW2 6133   3.306   3.313   3.283
 2039SOL     OW 6134   2.300   2.254   3.361
 2039SOL    HW1 6135   2.382   2.198   3.370
 2039SOL    HW2 6136   2.219   2.196   3.365
 2040SOL     OW 6137   3.465   2.309   2.599
 2040SOL    HW1 6138   3.391   2.355   2.549
 2040SOL    HW2 6139   3.516   2.377   2.652
 2041SOL     OW 6140   2.093   3.575   2.345
 2041SOL    HW1 6141   2.127   3.652   2.399
 2041SOL    HW2 6142   2.137   3.575   2.255
 2042SOL     OW 6143   2.989   3.203   3.552
 2042SOL    HW1 6144   3.036   3.203   3.640
 2042SOL    HW2 6145   2.941   3.116   3.541
 2043SOL     OW 6146   2.092   3.296   2.400
 2043SOL    HW1 6147   2.066   3.392   2.400
 2043SOL    HW2 6148   2.021   3.242   2.445
 2044SOL     OW 6149   2.102   2.953   2.748
 2044SOL    HW1 6150   2.116   2.869   2.800
 2044SOL    HW2 6151   2.047   3.017   2.803
 2045SOL     OW 6152   2.482   3.648   3.301
 2045SOL    HW1 6153   2.390   3.631   3.336
 2045SOL    HW2 6154   2.510   3.740   3.327
 2046SOL     OW 6155   2.468   2.826   1.985
 2046SOL    HW1 6156   2.475   2.910   1.931
 2046SOL    HW2 6157   2.514   2.839   2.073
 2047SOL     OW 6158   3.456   1.976   3.342
 2047SOL    HW1 6159   3.438   2.043   3.270
 2047SOL    HW2 6160   3.453   2.022   3.431
 2048SOL     OW 6161   1.984   2.505   2.425
 2048SOL    HW1 6162   1.939   2.417   2.442
 2048SOL    HW2 6163   1.983   2.559   2.509
 2049SOL     OW 6164   3.704   3.629   2.221
 2049SOL    HW1 6165   3.758   3.600   2.301
 2049SOL    HW2 6166   3.734   3.719   2.192
 2050SOL     OW 6167   1.889   3.458   1.979
 2050SOL    HW1 6168   1.870   3.362   2.000
 2050SOL    HW2 6169   1.856   3.516   2.054
 2051SOL     OW 6170   3.551   2.784   2.474
 2051SOL    HW1 6171   3.646   2.755   2.482
 2051SOL    HW2 6172   3.543   2.849   2.399
 2052SOL     OW 6173   3.503   2.970   2.294
 2052SOL    HW1 6174   3.589   2.972   2.242
 2052SOL    HW2 6175   3.517   3.017   2.382
 2053SOL     OW 6176   1.975   2.599   3.459
 2053SOL    HW1 6177   2.063   2.586   3.504
 2053SOL    HW2 6178   1.962   2.696   3.437
 2054SOL     OW 6179   2.475   3.227   2.588
 2054SOL    HW1 6180   2.426   3.140   2.597
 2054SOL    HW2 6181   2.452   3.270   2.501
 2055SOL     OW 6182   3.155   3.090   3.285
 2055SOL    HW1 6183   3.192   3.017   3.227
 2055SOL    HW2 6184   3.207   3.095   3.370
 2056SOL     OW 6185   2.671   1.866   2.364
 2056SOL    HW1 6186   2.711   1.957   2.355
 2056SOL    HW2 6187   2.571   1.874   2.370
 2057SOL     OW 6188   2.059   2.838   3.126
 2057SOL    HW1 6189   2.148   2.793   3.112
 2057SOL    HW2 6190   1.986   2.773   3.107
 2058SOL     OW 6191   3.387   2.861   2.052
 2058SOL    HW1 6192   3.324   2.785   2.065
 2058SOL    HW2 6193   3.435   2.879   2.138
 2059SOL     OW 6194   3.049   3.654   3.478
 2059SOL    HW1 6195   3.073   3.714   3.402
 2059SOL    HW2 6196   3.056   3.559   3.448
 2060SOL     OW 6197   2.179   2.113   3.663
 2060SOL    HW1 6198   2.250   2.184   3.669
 2060SOL    HW2 6199   2.091   2.152   3.691
 2061SOL     OW 6200   3.328   3.279   2.815
 2061SOL    HW1 6201   3.269   3.285   2.895
 2061SOL    HW2 6202   3.313   3.191   2.769
 2062SOL     OW 6203   3.529   3.576   2.434
 2062SOL    HW1 6204   3.488   3.553   2.346
 2062SOL    HW2 6205   3.511   3.502   2.499
 2063SOL     OW 6206   2.460   2.591   2.132
 2063SOL    HW1 6207   2.484   2.660   2.064
 2063SOL    HW2 6208   2.382   2.624   2.186
 2064SOL     OW 6209   3.143   2.207   2.806
 2064SOL    HW1 6210   3.057   2.157   2.793
 2064SOL    HW2 6211   3.205   2.153   2.862
 2065SOL     OW 6212   3.438   3.524   2.169
 2065SOL    HW1 6213   3.527   3.570   2.172
 2065SOL    HW2 6214   3.417   3.500   2.074
 2066SOL     OW 6215   2.669   2.467   3.327
 2066SOL    HW1 6216   2.622   2.464   3.416
 2066SOL    HW2 6217   2.618   2.412   3.261
 2067SOL     OW 6218   3.256   2.331   3.536
 2067SOL    HW1 6219   3.236   2.374   3.624
 2067SOL    HW2 6220   3.334   2.269   3.545
 2068SOL     OW 6221   2.835   2.752   3.434
 2068SOL    HW1 6222   2.881   2.668   3.405
 2068SOL    HW2 6223   2.779   2.786   3.359
 2069SOL     OW 6224   2.853   2.272   3.104
 2069SOL    HW1 6225   2.776   2.306   3.158
 2069SOL    HW2 6226   2.819   2.221   3.025
 2070SOL     OW 6227   2.903   2.563   2.291
 2070SOL    HW1 6228   2.929   2.559   2.387
 2070SOL    HW2 6229   2.818   2.512   2.277
 2071SOL     OW 6230   1.938   2.673   2.651
 2071SOL    HW1 6231   2.037   2.661   2.660
 2071SOL    HW2 6232   1.914   2.768   2.672
 2072SOL     OW 6233   1.992   3.683   3.433
 2072SOL    HW1 6234   1.982   3.668   3.532
 2072SOL    HW2 6235   1.906   3.719   3.397
 2073SOL     OW 6236   2.727   2.210   2.057
 2073SOL    HW1 6237   2.786   2.273   2.008
 2073SOL    HW2 6238   2.746   2.116   2.028
 2074SOL     OW 6239   3.581   2.447   3.693
 2074SOL    HW1 6240   3.555   2.536   3.657
 2074SOL    HW2 6241   3.579   2.379   3.620
 2075SOL     OW 6242   3.224   3.006   2.407
 2075SOL    HW1 6243   3.307   2.977   2.359
 2075SOL    HW2 6244   3.175   3.073   2.351
 2076SOL     OW 6245   2.412   2.058   2.747
 2076SOL    HW1 6246   2.407   2.053   2.847
 2076SOL    HW2 6247   2.414   2.154   2.718
 2077SOL     OW 6248   2.870   3.318   2.339
 2077SOL    HW1 6249   2.824   3.390   2.287
 2077SOL    HW2 6250   2.866   3.338   2.437
 2078SOL     OW 6251   2.213   3.663   2.715
 2078SOL    HW1 6252   2.263   3.577   2.721
 2078SOL    HW2 6253   2.278   3.740   2.712
 2079SOL     OW 6254   3.657   2.928   2.735
 2079SOL    HW1 6255   3.595   2.913   2.659
 2079SOL    HW2 6256   3.605   2.939   2.820
 2080SOL     OW 6257   3.089   3.412   3.368
 2080SOL    HW1 6258   3.095   3.335   3.432
 2080SOL    HW2 6259   3.037   3.386   3.288
 2081SOL     OW 6260   2.183   2.805   2.104
 2081SOL    HW1 6261   2.265   2.844   2.062
 2081SOL    HW2 6262   2.156   2.723   2.055
 2082SOL     OW 6263   3.320   2.597   2.590
 2082SOL    HW1 6264   3.315   2.532   2.665
 2082SOL    HW2 6265   3.400   2.656   2.603
 2083SOL     OW 6266   2.323   3.128   3.589
 2083SOL    HW1 6267   2.273   3.129   3.503
 2083SOL    HW2 6268   2.260   3.110   3.665
 2084SOL     OW 6269   2.973   3.638   2.099
 2084SOL    HW1 6270   2.913   3.576   2.149
 2084SOL    HW2 6271   3.004   3.594   2.014
 2085SOL     OW 6272   2.064   2.147   3.360
 2085SOL    HW1 6273   1.984   2.207   3.347
 2085SOL    HW2 6274   2.054   2.098   3.446
 2086SOL     OW 6275   3.494   3.239   1.943
 2086SOL    HW1 6276   3.462   3.333   1.933
 2086SOL    HW2 6277   3.418   3.176   1.931
 2087SOL     OW 6278   2.326   3.605   2.185
 2087SOL    HW1 6279   2.359   3.644   2.271
 2087SOL    HW2 6280   2.402   3.598   2.120
 2088SOL     OW 6281   3.262   1.969   2.288
 2088SOL    HW1 6282   3.238   1.932   2.198
 2088SOL    HW2 6283   3.361   1.985   2.292
 2089SOL     OW 6284   2.111   3.647   3.103
 2089SOL    HW1 6285   2.168   3.582   3.153
 2089SOL    HW2 6286   2.095   3.614   3.010
 2090SOL     OW 6287   2.802   3.560   2.766
 2090SOL    HW1 6288   2.882   3.503   2.787
 2090SOL    HW2 6289   2.753   3.520   2.689
 2091SOL     OW 6290   3.409   2.084   3.591
 2091SOL    HW1 6291   3.404   2.121   3.683
 2091SOL    HW2 6292   3.337   2.015   3.579
 2092SOL     OW 6293   2.476   1.984   1.979
 2092SOL    HW1 6294   2.574   1.962   1.986
 2092SOL    HW2 6295   2.445   1.967   1.886
 2093SOL     OW 6296   2.643   2.126   3.611
 2093SOL    HW1 6297   2.710   2.065   3.654
 2093SOL    HW2 6298   2.570   2.145   3.676
 2094SOL     OW 6299   2.750   3.376   3.057
 2094SOL    HW1 6300   2.727   3.351   2.963
 2094SOL    HW2 6301   2.811   3.307   3.096
 2095SOL     OW 6302   3.213   2.452   3.295
 2095SOL    HW1 6303   3.241   2.409   3.380
 2095SOL    HW2 6304   3.238   2.548   3.296
 2096SOL     OW 6305   2.665   3.264   2.786
 2096SOL    HW1 6306   2.755   3.278   2.744
 2096SOL    HW2 6307   2.594   3.266   2.715
 2097SOL     OW 6308   2.784   2.365   2.761
 2097SOL    HW1 6309   2.759   2.356   2.665
 2097SOL    HW2 6310   2.832   2.283   2.792
 2098SOL     OW 6311   2.401   1.926   2.374
 2098SOL    HW1 6312   2.320   1.927   2.432
 2098SOL    HW2 6313   2.404   2.009   2.319
 2099SOL     OW 6314   3.296   3.050   1.903
 2099SOL    HW1 6315   3.328   2.974   1.960
 2099SOL    HW2 6316   3.204   3.077   1.933
 2100SOL     OW 6317   2.159   1.897   2.033
 2100SOL    HW1 6318   2.208   1.981   2.012
 2100SOL    HW2 6319   2.221   1.832   2.078
 2101SOL     OW 6320   2.797   2.098   2.342
 2101SOL    HW1 6321   2.749   2.139   2.264
 2101SOL    HW2 6322   2.896   2.096   2.323
 2102SOL     OW 6323   2.938   2.545   3.326
 2102SOL    HW1 6324   2.858   2.484   3.329
 2102SOL    HW2 6325   3.019   2.492   3.302
 2103SOL     OW 6326   3.089   3.432   2.655
 2103SOL    HW1 6327   3.110   3.506   2.590
 2103SOL    HW2 6328   3.157   3.432   2.728
 2104SOL     OW 6329   2.321   3.014   2.603
 2104SOL    HW1 6330   2.250   2.987   2.668
 2104SOL    HW2 6331   2.295   2.986   2.510
 2105SOL     OW 6332   3.133   3.659   2.453
 2105SOL    HW1 6333   3.177   3.723   2.389
 2105SOL    HW2 6334   3.083   3.711   2.523
 2106SOL     OW 6335   2.894   2.411   1.878
 2106SOL    HW1 6336   2.853   2.493   1.839
 2106SOL    HW2 6337   2.958   2.437   1.951
 2107SOL     OW 6338   1.940   2.418   3.248
 2107SOL    HW1 6339   2.032   2.417   3.207
 2107SOL    HW2 6340   1.934   2.492   3.315
 2108SOL     OW 6341   2.423   2.084   3.009
 2108SOL    HW1 6342   2.461   2.000   3.046
 2108SOL    HW2 6343   2.335   2.103   3.053
 2109SOL     OW 6344   2.728   2.316   2.504
 2109SOL    HW1 6345   2.696   2.388   2.442
 2109SOL    HW2 6346   2.752   2.235   2.451
 2110SOL     OW 6347   2.879   1.901   2.615
 2110SOL    HW1 6348   2.807   1.906   2.546
 2110SOL    HW2 6349   2.855   1.832   2.684
 2111SOL     OW 6350   3.291   3.035   2.729
 2111SOL    HW1 6351   3.236   2.951   2.722
 2111SOL    HW2 6352   3.317   3.064   2.637
 2112SOL     OW 6353   3.328   2.452   2.854
 2112SOL    HW1 6354   3.298   2.357   2.861
 2112SOL    HW2 6355   3.401   2.468   2.920
 2113SOL     OW 6356   3.719   2.695   2.239
 2113SOL    HW1 6357   3.761   2.631   2.303
 2113SOL    HW2 6358   3.681   2.644   2.161
 2114SOL     OW 6359   2.350   3.247   2.036
 2114SOL    HW1 6360   2.263   3.232   2.083
 2114SOL    HW2 6361   2.333   3.273   1.941
 2115SOL     OW 6362   3.526   3.142   2.519
 2115SOL    HW1 6363   3.625   3.150   2.533
 2115SOL    HW2 6364   3.481   3.226   2.550
 2116SOL     OW 6365   3.252   2.437   1.940
 2116SOL    HW1 6366   3.198   2.416   2.021
 2116SOL    HW2 6367   3.343   2.396   1.949
 2117SOL     OW 6368   3.616   3.085   3.450
 2117SOL    HW1 6369   3.707   3.046   3.437
 2117SOL    HW2 6370   3.624   3.181   3.474
 2118SOL     OW 6371   2.926   3.209   3.202
 2118SOL    HW1 6372   2.846   3.186   3.257
 2118SOL    HW2 6373   3.009   3.183   3.251
 2119SOL     OW 6374   3.454   3.491   3.487
 2119SOL    HW1 6375   3.481   3.525   3.397
 2119SOL    HW2 6376   3.533   3.453   3.533
 2120SOL     OW 6377   2.973   3.057   2.962
 2120SOL    HW1 6378   2.933   3.101   3.043
 2120SOL    HW2 6379   2.932   3.094   2.879
 2121SOL     OW 6380   3.500   2.961   2.941
 2121SOL    HW1 6381   3.505   3.042   3.000
 2121SOL    HW2 6382   3.414   2.963   2.890
 2122SOL     OW 6383   2.777   1.951   3.264
 2122SOL    HW1 6384   2.802   1.931   3.169
 2122SOL    HW2 6385   2.849   2.007   3.306
 2123SOL     OW 6386   2.842   2.978   3.581
 2123SOL    HW1 6387   2.743   2.984   3.591
 2123SOL    HW2 6388   2.865   2.898   3.525
 2124SOL     OW 6389   2.567   2.912   2.230
 2124SOL    HW1 6390   2.553   2.919   2.329
 2124SOL    HW2 6391   2.651   2.861   2.212
 2125SOL     OW 6392   2.272   2.675   3.113
 2125SOL    HW1 6393   2.358   2.687   3.163
 2125SOL    HW2 6394   2.230   2.588   3.140
 2126SOL     OW 6395   3.136   2.248   3.124
 2126SOL    HW1 6396   3.157   2.322   3.188
 2126SOL    HW2 6397   3.047   2.265   3.081
 2127SOL     OW 6398   1.926   3.426   3.193
 2127SOL    HW1 6399   1.880   3.508   3.159
 2127SOL    HW2 6400   2.024   3.445   3.202
 2128SOL     OW 6401   2.229   2.962   2.363
 2128SOL    HW1 6402   2.222   3.045   2.307
 2128SOL    HW2 6403   2.233   2.882   2.303
 2129SOL     OW 6404   2.428   2.399   2.727
 2129SOL    HW1 6405   2.440   2.465   2.653
 2129SOL    HW2 6406   2.474   2.433   2.810
 2130SOL     OW 6407   3.114   3.210   2.250
 2130SOL    HW1 6408   3.164   3.287   2.290
 2130SOL    HW2 6409   3.019   3.212   2.282
 2131SOL     OW 6410   3.134   3.307   3.004
 2131SOL    HW1 6411   3.181   3.320   3.091
 2131SOL    HW2 6412   3.068   3.233   3.013
 2132SOL     OW 6413   3.444   2.501   2.334
 2132SOL    HW1 6414   3.413   2.562   2.407
 2132SOL    HW2 6415   3.494   2.553   2.265
 2133SOL     OW 6416   2.216   3.372   3.191
 2133SOL    HW1 6417   2.195   3.328   3.104
 2133SOL    HW2 6418   2.313   3.398   3.194
 2134SOL     OW 6419   2.264   2.613   3.460
 2134SOL    HW1 6420   2.332   2.668   3.413
 2134SOL    HW2 6421   2.304   2.525   3.487
 2135SOL     OW 6422   3.449   2.641   3.532
 2135SOL    HW1 6423   3.357   2.679   3.527
 2135SOL    HW2 6424   3.509   2.688   3.467
 2136SOL     OW 6425   2.875   1.967   3.632
 2136SOL    HW1 6426   2.881   2.052   3.580
 2136SOL    HW2 6427   2.907   1.891   3.575
 2137SOL     OW 6428   2.366   1.912   3.602
 2137SOL    HW1 6429   2.324   1.855   3.532
 2137SOL    HW2 6430   2.300   1.981   3.634
 2138SOL     OW 6431   2.435   2.732   2.891
 2138SOL    HW1 6432   2.479   2.821   2.882
 2138SOL    HW2 6433   2.372   2.732   2.968
 2139SOL     OW 6434   3.222   2.724   2.907
 2139SOL    HW1 6435   3.147   2.724   2.841
 2139SOL    HW2 6436   3.259   2.632   2.916
 2140SOL     OW 6437   3.071   2.387   2.137
 2140SOL    HW1 6438   3.084   2.303   2.191
 2140SOL    HW2 6439   3.042   2.461   2.197
 2141SOL     OW 6440   2.169   2.075   3.093
 2141SOL    HW1 6441   2.146   2.112   3.183
 2141SOL    HW2 6442   2.139   1.980   3.087
 2142SOL     OW 6443   1.899   3.172   3.144
 2142SOL    HW1 6444   1.952   3.123   3.212
 2142SOL    HW2 6445   1.921   3.270   3.149
 2143SOL     OW 6446   2.594   2.496   2.926
 2143SOL    HW1 6447   2.653   2.470   2.850
 2143SOL    HW2 6448   2.566   2.592   2.915
 2144SOL     OW 6449   3.590   2.797   3.716
 2144SOL    HW1 6450   3.544   2.790   3.627
 2144SOL    HW2 6451   3.528   2.841   3.782
 2145SOL     OW 6452   2.169   1.925   2.480
 2145SOL    HW1 6453   2.158   2.019   2.513
 2145SOL    HW2 6454   2.164   1.862   2.557
 2146SOL     OW 6455   3.484   2.229   2.236
 2146SOL    HW1 6456   3.486   2.153   2.300
 2146SOL    HW2 6457   3.436   2.306   2.276
 2147SOL     OW 6458   2.885   2.628   2.828
 2147SOL    HW1 6459   2.900   2.649   2.924
 2147SOL    HW2 6460   2.855   2.533   2.819
 2148SOL     OW 6461   2.842   3.435   3.562
 2148SOL    HW1 6462   2.822   3.479   3.474
 2148SOL    HW2 6463   2.881   3.344   3.546
 2149SOL     OW 6464   3.721   3.380   3.467
 2149SOL    HW1 6465   3.735   3.407   3.372
 2149SOL    HW2 6466   3.804   3.402   3.520
 2150SOL     OW 6467   2.212   2.760   3.666
 2150SOL    HW1 6468   2.288   2.804   3.714
 2150SOL    HW2 6469   2.247   2.713   3.584
 2151SOL     OW 6470   3.402   2.136   1.987
 2151SOL    HW1 6471   3.341   2.061   2.010
 2151SOL    HW2 6472   3.424   2.188   2.070
 2152SOL     OW 6473   3.165   2.700   1.904
 2152SOL    HW1 6474   3.199   2.607   1.919
 2152SOL    HW2 6475   3.183   2.727   1.809
 2153SOL     OW 6476   2.930   3.195   2.711
 2153SOL    HW1 6477   2.937   3.111   2.656
 2153SOL    HW2 6478   2.992   3.264   2.675
 2154SOL     OW 6479   2.181   2.672   2.811
 2154SOL    HW1 6480   2.274   2.708   2.816
 2154SOL    HW2 6481   2.175   2.587   2.863
 2155SOL     OW 6482   2.201   2.371   2.868
 2155SOL    HW1 6483   2.149   2.288   2.851
 2155SOL    HW2 6484   2.278   2.376   2.804
 2156SOL     OW 6485   3.000   2.242   3.540
 2156SOL    HW1 6486   2.955   2.305   3.604
 2156SOL    HW2 6487   3.093   2.273   3.523
 2157SOL     OW 6488   3.022   2.069   3.339
 2157SOL    HW1 6489   3.022   2.133   3.416
 2157SOL    HW2 6490   3.050   2.117   3.256
 2158SOL     OW 6491   1.870   3.188   2.062
 2158SOL    HW1 6492   1.777   3.209   2.031
 2158SOL    HW2 6493   1.880   3.089   2.075
 2159SOL     OW 6494   1.950   3.663   2.789
 2159SOL    HW1 6495   1.908   3.577   2.762
 2159SOL    HW2 6496   2.044   3.666   2.755
 2160SOL     OW 6497   2.366   3.430   2.772
 2160SOL    HW1 6498   2.432   3.504   2.781
 2160SOL    HW2 6499   2.410   3.351   2.730
 2161SOL     OW 6500   2.864   2.658   3.100
 2161SOL    HW1 6501   2.905   2.626   3.186
 2161SOL    HW2 6502   2.768   2.631   3.097
 2162SOL     OW 6503   1.902   2.406   2.976
 2162SOL    HW1 6504   1.987   2.373   2.935
 2162SOL    HW2 6505   1.915   2.421   3.074
 2163SOL     OW 6506   2.051   2.382   3.584
 2163SOL    HW1 6507   2.110   2.342   3.514
 2163SOL    HW2 6508   1.993   2.453   3.543
 2164SOL     OW 6509   3.231   2.812   3.522
 2164SOL    HW1 6510   3.270   2.901   3.542
 2164SOL    HW2 6511   3.241   2.792   3.425
 2165SOL     OW 6512   2.677   2.434   2.187
 2165SOL    HW1 6513   2.684   2.345   2.141
 2165SOL    HW2 6514   2.583   2.468   2.179
 2166SOL     OW 6515   3.519   2.466   3.068
 2166SOL    HW1 6516   3.481   2.397   3.130
 2166SOL    HW2 6517   3.601   2.430   3.024
 2167SOL     OW 6518   2.114   3.426   3.606
 2167SOL    HW1 6519   2.084   3.483   3.682
 2167SOL    HW2 6520   2.107   3.329   3.632
 2168SOL     OW 6521   2.533   2.326   3.131
 2168SOL    HW1 6522   2.499   2.237   3.101
 2168SOL    HW2 6523   2.559   2.380   3.051
 2169SOL     OW 6524   2.792   3.540   3.327
 2169SOL    HW1 6525   2.768   3.522   3.232
 2169SOL    HW2 6526   2.822   3.634   3.337
 2170SOL     OW 6527   2.021   2.999   3.328
 2170SOL    HW1 6528   2.043   2.938   3.404
 2170SOL    HW2 6529   2.031   2.950   3.242
 2171SOL     OW 6530   3.209   2.921   3.096
 2171SOL    HW1 6531   3.233   2.858   3.022
 2171SOL    HW2 6532   3.119   2.961   3.078
 2172SOL     OW 6533   3.164   2.717   2.171
 2172SOL    HW1 6534   3.078   2.686   2.213
 2172SOL    HW2 6535   3.160   2.703   2.072
 2173SOL     OW 6536   3.621   3.609   3.016
 2173SOL    HW1 6537   3.682   3.639   2.943
 2173SOL    HW2 6538   3.583   3.520   2.994
 2174SOL     OW 6539   3.114   3.593   2.990
 2174SOL    HW1 6540   3.198   3.598   2.936
 2174SOL    HW2 6541   3.091   3.497   3.008
 2175SOL     OW 6542   1.945   3.120   2.884
 2175SOL    HW1 6543   1.940   3.119   2.984
 2175SOL    HW2 6544   1.862   3.079   2.846
 2176SOL     OW 6545   2.550   3.524   3.578
 2176SOL    HW1 6546   2.494   3.605   3.587
 2176SOL    HW2 6547   2.602   3.528   3.492
 2177SOL     OW 6548   3.588   1.997   2.385
 2177SOL    HW1 6549   3.661   1.980   2.318
 2177SOL    HW2 6550   3.557   1.910   2.423
 2178SOL     OW 6551   3.250   3.435   2.339
 2178SOL    HW1 6552   3.317   3.447   2.265
 2178SOL    HW2 6553   3.210   3.524   2.362
 2179SOL     OW 6554   1.992   3.656   3.713
 2179SOL    HW1 6555   1.951   3.582   3.766
 2179SOL    HW2 6556   2.056   3.707   3.771
 2180SOL     OW 6557   3.142   2.789   2.534
 2180SOL    HW1 6558   3.202   2.708   2.536
 2180SOL    HW2 6559   3.182   2.858   2.474
 2181SOL     OW 6560   2.692   3.135   3.284
 2181SOL    HW1 6561   2.687   3.168   3.379
 2181SOL    HW2 6562   2.606   3.154   3.238
 2182SOL     OW 6563   2.534   3.478   2.016
 2182SOL    HW1 6564   2.543   3.488   1.917
 2182SOL    HW2 6565   2.494   3.389   2.037
 2183SOL     OW 6566   3.512   3.582   3.256
 2183SOL    HW1 6567   3.565   3.592   3.172
 2183SOL    HW2 6568   3.485   3.672   3.290
 2184SOL     OW 6569   3.703   2.037   2.825
 2184SOL    HW1 6570   3.742   1.952   2.789
 2184SOL    HW2 6571   3.605   2.039   2.806
 2185SOL     OW 6572   2.125   2.188   2.582
 2185SOL    HW1 6573   2.046   2.239   2.548
 2185SOL    HW2 6574   2.116   2.173   2.680
 2186SOL     OW 6575   3.056   3.474   1.893
 2186SOL    HW1 6576   3.062   3.381   1.930
 2186SOL    HW2 6577   2.997   3.474   1.813
 2187SOL     OW 6578   2.684   2.864   3.234
 2187SOL    HW1 6579   2.724   2.863   3.142
 2187SOL    HW2 6580   2.694   2.956   3.274
 2188SOL     OW 6581   2.778   2.772   2.153
 2188SOL    HW1 6582   2.841   2.810   2.085
 2188SOL    HW2 6583   2.818   2.689   2.192
 2189SOL     OW 6584   3.366   3.469   1.906
 2189SOL    HW1 6585   3.274   3.506   1.913
 2189SOL    HW2 6586   3.404   3.489   1.816
 2190SOL     OW 6587   2.234   3.150   3.352
 2190SOL    HW1 6588   2.221   3.243   3.318
 2190SOL    HW2 6589   2.150   3.098   3.339
 2191SOL     OW 6590   3.476   3.154   3.151
 2191SOL    HW1 6591   3.536   3.157   3.231
 2191SOL    HW2 6592   3.401   3.218   3.164
 2192SOL     OW 6593   2.901   2.960   2.558
 2192SOL    HW1 6594   2.831   2.913   2.612
 2192SOL    HW2 6595   2.960   2.892   2.515
 2193SOL     OW 6596   2.876   2.098   2.833
 2193SOL    HW1 6597   2.868   2.062   2.740
 2193SOL    HW2 6598   2.874   2.022   2.898
 2194SOL     OW 6599   2.452   3.349   2.353
 2194SOL    HW1 6600   2.494   3.291   2.283
 2194SOL    HW2 6601   2.408   3.428   2.309
 2195SOL     OW 6602   3.571   2.247   3.243
 2195SOL    HW1 6603   3.644   2.316   3.247
 2195SOL    HW2 6604   3.599   2.172   3.184
 2196SOL     OW 6605   2.117   3.210   2.152
 2196SOL    HW1 6606   2.021   3.211   2.125
 2196SOL    HW2 6607   2.129   3.263   2.236
 2197SOL     OW 6608   1.967   2.875   3.588
 2197SOL    HW1 6609   1.890   2.842   3.642
 2197SOL    HW2 6610   2.052   2.845   3.630
 2198SOL     OW 6611   2.534   2.065   3.351
 2198SOL    HW1 6612   2.624   2.049   3.311
 2198SOL    HW2 6613   2.542   2.070   3.450
 2199SOL     OW 6614   1.937   2.207   1.895
 2199SOL    HW1 6615   1.845   2.179   1.866
 2199SOL    HW2 6616   1.968   2.284   1.839
 2200SOL     OW 6617   3.302   2.718   3.260
 2200SOL    HW1 6618   3.245   2.770   3.197
 2200SOL    HW2 6619   3.398   2.730   3.236
 2201SOL     OW 6620   3.045   3.197   1.981
 2201SOL    HW1 6621   2.946   3.186   1.983
 2201SOL    HW2 6622   3.079   3.212   2.074
 2202SOL     OW 6623   2.475   2.704   3.293
 2202SOL    HW1 6624   2.531   2.785   3.276
 2202SOL    HW2 6625   2.534   2.624   3.296
 2203SOL     OW 6626   3.355   3.629   2.821
 2203SOL    HW1 6627   3.388   3.693   2.752
 2203SOL    HW2 6628   3.421   3.623   2.896
 2204SOL     OW 6629   2.578   2.427   3.570
 2204SOL    HW1 6630   2.597   2.492   3.644
 2204SOL    HW2 6631   2.638   2.347   3.579
 2205SOL     OW 6632   3.312   3.082   3.495
 2205SOL    HW1 6633   3.303   3.072   3.594
 2205SOL    HW2 6634   3.408   3.075   3.469
 2206SOL     OW 6635   2.252   3.603   3.422
 2206SOL    HW1 6636   2.161   3.644   3.420
 2206SOL    HW2 6637   2.245   3.509   3.454
 2207SOL     OW 6638   3.536   2.745   3.116
 2207SOL    HW1 6639   3.509   2.656   3.079
 2207SOL    HW2 6640   3.537   2.813   3.043
 2208SOL     OW 6641   3.087   2.187   2.311
 2208SOL    HW1 6642   3.152   2.113   2.300
 2208SOL    HW2 6643   3.107   2.237   2.395
 2209SOL     OW 6644   3.639   2.204   3.504
 2209SOL    HW1 6645   3.622   2.235   3.410
 2209SOL    HW2 6646   3.555   2.167   3.542
 2210SOL     OW 6647   3.592   2.796   3.379
 2210SOL    HW1 6648   3.630   2.887   3.394
 2210SOL    HW2 6649   3.584   2.779   3.280
 2211SOL     OW 6650   2.721   3.236   1.878
 2211SOL    HW1 6651   2.675   3.251   1.966
 2211SOL    HW2 6652   2.765   3.321   1.848
 2212SOL     OW 6653   2.523   3.652   2.815
 2212SOL    HW1 6654   2.477   3.740   2.802
 2212SOL    HW2 6655   2.622   3.664   2.808
 2213SOL     OW 6656   2.721   2.818   2.723
 2213SOL    HW1 6657   2.775   2.749   2.771
 2213SOL    HW2 6658   2.689   2.887   2.789
 2214SOL     OW 6659   2.945   2.846   1.949
 2214SOL    HW1 6660   2.922   2.899   1.867
 2214SOL    HW2 6661   3.026   2.790   1.930
 2215SOL     OW 6662   3.723   3.431   2.713
 2215SOL    HW1 6663   3.652   3.419   2.643
 2215SOL    HW2 6664   3.724   3.352   2.773
 2216SOL     OW 6665   2.083   3.176   3.706
 2216SOL    HW1 6666   2.018   3.103   3.685
 2216SOL    HW2 6667   2.087   3.190   3.804
 2217SOL     OW 6668   1.941   3.102   2.515
 2217SOL    HW1 6669   1.940   3.055   2.603
 2217SOL    HW2 6670   2.023   3.074   2.464
 2218SOL     OW 6671   2.534   3.253   3.486
 2218SOL    HW1 6672   2.456   3.203   3.524
 2218SOL    HW2 6673   2.531   3.348   3.517
 2219SOL     OW 6674   3.686   2.054   3.089
 2219SOL    HW1 6675   3.682   1.964   3.133
 2219SOL    HW2 6676   3.689   2.043   2.990
 2220SOL     OW 6677   3.567   3.349   2.966
 2220SOL    HW1 6678   3.474   3.324   2.939
 2220SOL    HW2 6679   3.593   3.299   3.048
 2221SOL     OW 6680   2.179   2.409   3.142
 2221SOL    HW1 6681   2.217   2.350   3.214
 2221SOL    HW2 6682   2.219   2.383   3.054
 2222SOL     OW 6683   2.674   3.448   2.549
 2222SOL    HW1 6684   2.706   3.458   2.455
 2222SOL    HW2 6685   2.595   3.386   2.551
 2223SOL     OW 6686   3.286   2.076   2.974
 2223SOL    HW1 6687   3.338   2.011   3.029
 2223SOL    HW2 6688   3.237   2.139   3.035
 2224SOL     OW 6689   2.863   1.896   3.016
 2224SOL    HW1 6690   2.800   1.824   2.985
 2224SOL    HW2 6691   2.956   1.860   3.016
 2225SOL     OW 6692   2.632   3.192   2.163
 2225SOL    HW1 6693   2.586   3.105   2.180
 2225SOL    HW2 6694   2.723   3.189   2.204
 2226SOL     OW 6695   2.480   3.429   3.146
 2226SOL    HW1 6696   2.475   3.511   3.203
 2226SOL    HW2 6697   2.569   3.426   3.101
 2227SOL     OW 6698   3.214   1.914   2.030
 2227SOL    HW1 6699   3.249   1.873   1.946
 2227SOL    HW2 6700   3.124   1.876   2.050
 2228SOL     OW 6701   3.162   2.315   2.553
 2228SOL    HW1 6702   3.103   2.395   2.557
 2228SOL    HW2 6703   3.177   2.280   2.646
 2229SOL     OW 6704   3.455   2.083   2.744
 2229SOL    HW1 6705   3.371   2.082   2.798
 2229SOL    HW2 6706   3.457   2.166   2.688
 2230SOL     OW 6707   1.901   2.939   2.162
 2230SOL    HW1 6708   2.000   2.928   2.153
 2230SOL    HW2 6709   1.861   2.853   2.194
 2231SOL     OW 6710   2.737   3.508   2.199
 2231SOL    HW1 6711   2.660   3.473   2.145
 2231SOL    HW2 6712   2.705   3.579   2.261
 2232SOL     OW 6713   2.092   2.490   3.837
 2232SOL    HW1 6714   1.999   2.488   3.874
 2232SOL    HW2 6715   2.093   2.451   3.745
 2233SOL     OW 6716   1.881   2.230   4.371
 2233SOL    HW1 6717   1.799   2.273   4.410
 2233SOL    HW2 6718   1.853   2.157   4.308
 2234SOL     OW 6719   3.417   3.373   4.427
 2234SOL    HW1 6720   3.360   3.357   4.508
 2234SOL    HW2 6721   3.358   3.383   4.347
 2235SOL     OW 6722   2.997   2.565   4.441
 2235SOL    HW1 6723   3.054   2.643   4.416
 2235SOL    HW2 6724   2.937   2.591   4.517
 2236SOL     OW 6725   3.617   2.469   3.955
 2236SOL    HW1 6726   3.605   2.456   3.856
 2236SOL    HW2 6727   3.587   2.388   4.004
 2237SOL     OW 6728   2.630   3.006   4.747
 2237SOL    HW1 6729   2.552   3.023   4.807
 2237SOL    HW2 6730   2.664   3.093   4.711
 2238SOL     OW 6731   2.547   2.874   4.389
 2238SOL    HW1 6732   2.616   2.858   4.459
 2238SOL    HW2 6733   2.474   2.931   4.427
 2239SOL     OW 6734   3.465   2.309   4.461
 2239SOL    HW1 6735   3.391   2.355   4.411
 2239SOL    HW2 6736   3.516   2.377   4.514
 2240SOL     OW 6737   2.093   3.575   4.207
 2240SOL    HW1 6738   2.127   3.652   4.261
 2240SOL    HW2 6739   2.137   3.575   4.117
 2241SOL     OW 6740   2.092   3.296   4.262
 2241SOL    HW1 6741   2.066   3.392   4.262
 2241SOL    HW2 6742   2.021   3.242   4.307
 2242SOL     OW 6743   2.102   2.953   4.610
 2242SOL    HW1 6744   2.116   2.869   4.662
 2242SOL    HW2 6745   2.047   3.017   4.665
 2243SOL     OW 6746   2.468   2.826   3.847
 2243SOL    HW1 6747   2.475   2.910   3.793
 2243SOL    HW2 6748   2.514   2.839   3.935
 2244SOL     OW 6749   1.984   2.505   4.287
 2244SOL    HW1 6750   1.939   2.417   4.304
 2244SOL    HW2 6751   1.983   2.559   4.371
 2245SOL     OW 6752   3.704   3.629   4.083
 2245SOL    HW1 6753   3.758   3.600   4.163
 2245SOL    HW2 6754   3.734   3.719   4.054
 2246SOL     OW 6755   1.889   3.458   3.841
 2246SOL    HW1 6756   1.870   3.362   3.862
 2246SOL    HW2 6757   1.856   3.516   3.916
 2247SOL     OW 6758   3.551   2.784   4.336
 2247SOL    HW1 6759   3.646   2.755   4.344
 2247SOL    HW2 6760   3.543   2.849   4.261
 2248SOL     OW 6761   3.503   2.970   4.156
 2248SOL    HW1 6762   3.589   2.972   4.104
 2248SOL    HW2 6763   3.517   3.017   4.244
 2249SOL     OW 6764   2.475   3.227   4.450
 2249SOL    HW1 6765   2.426   3.140   4.459
 2249SOL    HW2 6766   2.452   3.270   4.363
 2250SOL     OW 6767   2.671   1.866   4.226
 2250SOL    HW1 6768   2.711   1.957   4.217
 2250SOL    HW2 6769   2.571   1.874   4.232
 2251SOL     OW 6770   3.387   2.861   3.914
 2251SOL    HW1 6771   3.324   2.785   3.927
 2251SOL    HW2 6772   3.435   2.879   4.000
 2252SOL     OW 6773   3.529   3.576   4.296
 2252SOL    HW1 6774   3.488   3.553   4.208
 2252SOL    HW2 6775   3.511   3.502   4.361
 2253SOL     OW 6776   2.460   2.591   3.994
 2253SOL    HW1 6777   2.484   2.660   3.926
 2253SOL    HW2 6778   2.382   2.624   4.048
 2254SOL     OW 6779   3.143   2.207   4.668
 2254SOL    HW1 6780   3.057   2.157   4.655
 2254SOL    HW2 6781   3.205   2.153   4.724
 2255SOL     OW 6782   3.438   3.524   4.031
 2255SOL    HW1 6783   3.527   3.570   4.034
 2255SOL    HW2 6784   3.417   3.500   3.936
 2256SOL     OW 6785   2.903   2.563   4.153
 2256SOL    HW1 6786   2.929   2.559   4.249
 2256SOL    HW2 6787   2.818   2.512   4.139
 2257SOL     OW 6788   1.938   2.673   4.513
 2257SOL    HW1 6789   2.037   2.661   4.522
 2257SOL    HW2 6790   1.914   2.768   4.534
 2258SOL     OW 6791   2.727   2.210   3.919
 2258SOL    HW1 6792   2.786   2.273   3.870
 2258SOL    HW2 6793   2.746   2.116   3.890
 2259SOL     OW 6794   3.224   3.006   4.269
 2259SOL    HW1 6795   3.307   2.977   4.221
 2259SOL    HW2 6796   3.175   3.073   4.213
 2260SOL     OW 6797   2.412   2.058   4.609
 2260SOL    HW1 6798   2.407   2.053   4.709
 2260SOL    HW2 6799   2.414   2.154   4.580
 2261SOL     OW 6800   2.870   3.318   4.201
 2261SOL    HW1 6801   2.824   3.390   4.149
 2261SOL    HW2 6802   2.866   3.338   4.299
 2262SOL     OW 6803   2.213   3.663   4.577
 2262SOL    HW1 6804   2.263   3.577   4.583
 2262SOL    HW2 6805   2.278   3.740   4.574
 2263SOL     OW 6806   3.657   2.928   4.597
 2263SOL    HW1 6807   3.595   2.913   4.521
 2263SOL    HW2 6808   3.605   2.939   4.682
 2264SOL     OW 6809   2.183   2.805   3.966
 2264SOL    HW1 6810   2.265   2.844   3.924
 2264SOL    HW2 6811   2.156   2.723   3.917
 2265SOL     OW 6812   3.320   2.597   4.452
 2265SOL    HW1 6813   3.315   2.532   4.527
 2265SOL    HW2 6814   3.400   2.656   4.465
 2266SOL     OW 6815   2.973   3.638   3.961
 2266SOL    HW1 6816   2.913   3.576   4.011
 2266SOL    HW2 6817   3.004   3.594   3.876
 2267SOL     OW 6818   3.494   3.239   3.805
 2267SOL    HW1 6819   3.462   3.333   3.795
 2267SOL    HW2 6820   3.418   3.176   3.793
 2268SOL     OW 6821   2.326   3.605   4.047
 2268SOL    HW1 6822   2.359   3.644   4.133
 2268SOL    HW2 6823   2.402   3.598   3.982
 2269SOL     OW 6824   3.262   1.969   4.150
 2269SOL    HW1 6825   3.238   1.932   4.060
 2269SOL    HW2 6826   3.361   1.985   4.154
 2270SOL     OW 6827   2.802   3.560   4.628
 2270SOL    HW1 6828   2.882   3.503   4.649
 2270SOL    HW2 6829   2.753   3.520   4.551
 2271SOL     OW 6830   2.244   2.562   4.204
 2271SOL    HW1 6831   2.289   2.472   4.201
 2271SOL    HW2 6832   2.150   2.551   4.237
 2272SOL     OW 6833   2.476   1.984   3.841
 2272SOL    HW1 6834   2.574   1.962   3.848
 2272SOL    HW2 6835   2.445   1.967   3.748
 2273SOL     OW 6836   2.401   1.926   4.236
 2273SOL    HW1 6837   2.320   1.927   4.294
 2273SOL    HW2 6838   2.404   2.009   4.181
 2274SOL     OW 6839   3.296   3.050   3.765
 2274SOL    HW1 6840   3.328   2.974   3.822
 2274SOL    HW2 6841   3.204   3.077   3.795
 2275SOL     OW 6842   2.159   1.897   3.895
 2275SOL    HW1 6843   2.208   1.981   3.874
 2275SOL    HW2 6844   2.221   1.832   3.940
 2276SOL     OW 6845   2.797   2.098   4.204
 2276SOL    HW1 6846   2.749   2.139   4.126
 2276SOL    HW2 6847   2.896   2.096   4.185
 2277SOL     OW 6848   2.321   3.014   4.465
 2277SOL    HW1 6849   2.250   2.987   4.530
 2277SOL    HW2 6850   2.295   2.986   4.372
 2278SOL     OW 6851   3.133   3.659   4.315
 2278SOL    HW1 6852   3.177   3.723   4.251
 2278SOL    HW2 6853   3.083   3.711   4.385
 2279SOL     OW 6854   2.894   2.411   3.740
 2279SOL    HW1 6855   2.853   2.493   3.701
 2279SOL    HW2 6856   2.958   2.437   3.813
 2280SOL     OW 6857   2.728   2.316   4.366
 2280SOL    HW1 6858   2.696   2.388   4.304
 2280SOL    HW2 6859   2.752   2.235   4.313
 2281SOL     OW 6860   2.879   1.901   4.477
 2281SOL    HW1 6861   2.807   1.906   4.408
 2281SOL    HW2 6862   2.855   1.832   4.546
 2282SOL     OW 6863   3.719   2.695   4.101
 2282SOL    HW1 6864   3.761   2.631   4.165
 2282SOL    HW2 6865   3.681   2.644   4.023
 2283SOL     OW 6866   2.350   3.247   3.898
 2283SOL    HW1 6867   2.263   3.232   3.945
 2283SOL    HW2 6868   2.333   3.273   3.803
 2284SOL     OW 6869   3.526   3.142   4.381
 2284SOL    HW1 6870   3.625   3.150   4.395
 2284SOL    HW2 6871   3.481   3.226   4.412
 2285SOL     OW 6872   3.252   2.437   3.802
 2285SOL    HW1 6873   3.198   2.416   3.883
 2285SOL    HW2 6874   3.343   2.396   3.811
 2286SOL     OW 6875   2.389   2.118   4.052
 2286SOL    HW1 6876   2.416   2.059   3.977
 2286SOL    HW2 6877   2.389   2.213   4.021
 2287SOL     OW 6878   2.567   2.912   4.092
 2287SOL    HW1 6879   2.553   2.919   4.191
 2287SOL    HW2 6880   2.651   2.861   4.074
 2288SOL     OW 6881   2.229   2.962   4.225
 2288SOL    HW1 6882   2.222   3.045   4.169
 2288SOL    HW2 6883   2.233   2.882   4.165
 2289SOL     OW 6884   2.428   2.399   4.589
 2289SOL    HW1 6885   2.440   2.465   4.515
 2289SOL    HW2 6886   2.474   2.433   4.672
 2290SOL     OW 6887   3.114   3.210   4.112
 2290SOL    HW1 6888   3.164   3.287   4.152
 2290SOL    HW2 6889   3.019   3.212   4.144
 2291SOL     OW 6890   3.444   2.501   4.196
 2291SOL    HW1 6891   3.413   2.562   4.269
 2291SOL    HW2 6892   3.494   2.553   4.127
 2292SOL     OW 6893   3.071   2.387   3.999
 2292SOL    HW1 6894   3.084   2.303   4.053
 2292SOL    HW2 6895   3.042   2.461   4.059
 2293SOL     OW 6896   2.169   1.925   4.342
 2293SOL    HW1 6897   2.158   2.019   4.375
 2293SOL    HW2 6898   2.164   1.862   4.419
 2294SOL     OW 6899   3.484   2.229   4.098
 2294SOL    HW1 6900   3.486   2.153   4.162
 2294SOL    HW2 6901   3.436   2.306   4.138
 2295SOL     OW 6902   3.402   2.136   3.849
 2295SOL    HW1 6903   3.341   2.061   3.872
 2295SOL    HW2 6904   3.424   2.188   3.932
 2296SOL     OW 6905   3.165   2.700   3.766
 2296SOL    HW1 6906   3.199   2.607   3.781
 2296SOL    HW2 6907   3.183   2.727   3.671
 2297SOL     OW 6908   1.870   3.188   3.924
 2297SOL    HW1 6909   1.777   3.209   3.893
 2297SOL    HW2 6910   1.880   3.089   3.937
 2298SOL     OW 6911   2.677   2.434   4.049
 2298SOL    HW1 6912   2.684   2.345   4.003
 2298SOL    HW2 6913   2.583   2.468   4.041
 2299SOL     OW 6914   2.335   2.362   3.915
 2299SOL    HW1 6915   2.396   2.442   3.919
 2299SOL    HW2 6916   2.240   2.393   3.922
 2300SOL     OW 6917   3.164   2.717   4.033
 2300SOL    HW1 6918   3.078   2.686   4.075
 2300SOL    HW2 6919   3.160   2.703   3.934
 2301SOL     OW 6920   3.588   1.997   4.247
 2301SOL    HW1 6921   3.661   1.980   4.180
 2301SOL    HW2 6922   3.557   1.910   4.285
 2302SOL     OW 6923   3.250   3.435   4.201
 2302SOL    HW1 6924   3.317   3.447   4.127
 2302SOL    HW2 6925   3.210   3.524   4.224
 2303SOL     OW 6926   3.142   2.789   4.396
 2303SOL    HW1 6927   3.202   2.708   4.398
 2303SOL    HW2 6928   3.182   2.858   4.336
 2304SOL     OW 6929   2.534   3.478   3.878
 2304SOL    HW1 6930   2.543   3.488   3.779
 2304SOL    HW2 6931   2.494   3.389   3.899
 2305SOL     OW 6932   3.703   2.037   4.687
 2305SOL    HW1 6933   3.742   1.952   4.651
 2305SOL    HW2 6934   3.605   2.039   4.668
 2306SOL     OW 6935   2.125   2.188   4.444
 2306SOL    HW1 6936   2.046   2.239   4.410
 2306SOL    HW2 6937   2.116   2.173   4.542
 2307SOL     OW 6938   3.056   3.474   3.755
 2307SOL    HW1 6939   3.062   3.381   3.792
 2307SOL    HW2 6940   2.997   3.474   3.675
 2308SOL     OW 6941   2.778   2.772   4.015
 2308SOL    HW1 6942   2.841   2.810   3.947
 2308SOL    HW2 6943   2.818   2.689   4.054
 2309SOL     OW 6944   3.366   3.469   3.768
 2309SOL    HW1 6945   3.274   3.506   3.775
 2309SOL    HW2 6946   3.404   3.489   3.678
 2310SOL     OW 6947   2.901   2.960   4.420
 2310SOL    HW1 6948   2.831   2.913   4.474
 2310SOL    HW2 6949   2.960   2.892   4.377
 2311SOL     OW 6950   2.452   3.349   4.215
 2311SOL    HW1 6951   2.494   3.291   4.145
 2311SOL    HW2 6952   2.408   3.428   4.171
 2312SOL     OW 6953   2.117   3.210   4.014
 2312SOL    HW1 6954   2.021   3.211   3.987
 2312SOL    HW2 6955   2.129   3.263   4.098
 2313SOL     OW 6956   1.937   2.207   3.757
 2313SOL    HW1 6957   1.845   2.179   3.728
 2313SOL    HW2 6958   1.968   2.284   3.701
 2314SOL     OW 6959   1.934   2.028   4.042
 2314SOL    HW1 6960   1.917   2.111   3.988
 2314SOL    HW2 6961   2.024   1.991   4.020
 2315SOL     OW 6962   3.045   3.197   3.843
 2315SOL    HW1 6963   2.946   3.186   3.845
 2315SOL    HW2 6964   3.079   3.212   3.936
 2316SOL     OW 6965   3.087   2.187   4.173
 2316SOL    HW1 6966   3.152   2.113   4.162
 2316SOL    HW2 6967   3.107   2.237   4.257
 2317SOL     OW 6968   2.456   2.607   4.376
 2317SOL    HW1 6969   2.506   2.692   4.357
 2317SOL    HW2 6970   2.368   2.609   4.328
 2318SOL     OW 6971   2.721   3.236   3.740
 2318SOL    HW1 6972   2.675   3.251   3.828
 2318SOL    HW2 6973   2.765   3.321   3.710
 2319SOL     OW 6974   2.523   3.652   4.677
 2319SOL    HW1 6975   2.477   3.740   4.664
 2319SOL    HW2 6976   2.622   3.664   4.670
 2320SOL     OW 6977   2.721   2.818   4.585
 2320SOL    HW1 6978   2.775   2.749   4.633
 2320SOL    HW2 6979   2.689   2.887   4.651
 2321SOL     OW 6980   2.945   2.846   3.811
 2321SOL    HW1 6981   2.922   2.899   3.729
 2321SOL    HW2 6982   3.026   2.790   3.792
 2322SOL     OW 6983   1.941   3.102   4.377
 2322SOL    HW1 6984   1.940   3.055   4.465
 2322SOL    HW2 6985   2.023   3.074   4.326
 2323SOL     OW 6986   2.290   2.286   4.244
 2323SOL    HW1 6987   2.320   2.214   4.182
 2323SOL    HW2 6988   2.251   2.246   4.327
 2324SOL     OW 6989   2.674   3.448   4.411
 2324SOL    HW1 6990   2.706   3.458   4.317
 2324SOL    HW2 6991   2.595   3.386   4.413
 2325SOL     OW 6992   2.632   3.192   4.025
 2325SOL    HW1 6993   2.586   3.105   4.042
 2325SOL    HW2 6994   2.723   3.189   4.066
 2326SOL     OW 6995   3.214   1.914   3.892
 2326SOL    HW1 6996   3.249   1.873   3.808
 2326SOL    HW2 6997   3.124   1.876   3.912
 2327SOL     OW 6998   3.162   2.315   4.415
 2327SOL    HW1 6999   3.103   2.395   4.419
 2327SOL    HW2 7000   3.177   2.280   4.508
 2328SOL     OW 7001   1.901   2.939   4.024
 2328SOL    HW1 7002   2.000   2.928   4.015
 2328SOL    HW2 7003   1.861   2.853   4.056
 2329SOL     OW 7004   2.737   3.508   4.061
 2329SOL    HW1 7005   2.660   3.473   4.007
 2329SOL    HW2 7006   2.705   3.579   4.123
 2330SOL     OW 7007   2.092   4.352   0.113
 2330SOL    HW1 7008   1.999   4.350   0.150
 2330SOL    HW2 7009   2.093   4.313   0.021
 2331SOL     OW 7010   2.087   3.999   0.996
 2331SOL    HW1 7011   2.122   3.982   1.088
 2331SOL    HW2 7012   1.999   3.954   0.984
 2332SOL     OW 7013   1.881   4.092   0.647
 2332SOL    HW1 7014   1.799   4.135   0.686
 2332SOL    HW2 7015   1.853   4.019   0.584
 2333SOL     OW 7016   2.997   4.427   0.717
 2333SOL    HW1 7017   3.054   4.505   0.692
 2333SOL    HW2 7018   2.937   4.453   0.793
 2334SOL     OW 7019   3.617   4.331   0.231
 2334SOL    HW1 7020   3.605   4.318   0.132
 2334SOL    HW2 7021   3.587   4.250   0.280
 2335SOL     OW 7022   2.712   4.522   1.823
 2335SOL    HW1 7023   2.708   4.598   1.888
 2335SOL    HW2 7024   2.734   4.558   1.732
 2336SOL     OW 7025   2.547   4.736   0.665
 2336SOL    HW1 7026   2.616   4.720   0.735
 2336SOL    HW2 7027   2.474   4.793   0.703
 2337SOL     OW 7028   2.300   4.116   1.499
 2337SOL    HW1 7029   2.382   4.060   1.508
 2337SOL    HW2 7030   2.219   4.058   1.503
 2338SOL     OW 7031   3.465   4.171   0.737
 2338SOL    HW1 7032   3.391   4.217   0.687
 2338SOL    HW2 7033   3.516   4.239   0.790
 2339SOL     OW 7034   3.456   3.838   1.480
 2339SOL    HW1 7035   3.438   3.905   1.408
 2339SOL    HW2 7036   3.453   3.884   1.569
 2340SOL     OW 7037   1.984   4.367   0.563
 2340SOL    HW1 7038   1.939   4.279   0.580
 2340SOL    HW2 7039   1.983   4.421   0.647
 2341SOL     OW 7040   1.975   4.461   1.597
 2341SOL    HW1 7041   2.063   4.448   1.642
 2341SOL    HW2 7042   1.962   4.558   1.575
 2342SOL     OW 7043   2.671   3.728   0.502
 2342SOL    HW1 7044   2.711   3.819   0.493
 2342SOL    HW2 7045   2.571   3.736   0.508
 2343SOL     OW 7046   2.179   3.975   1.801
 2343SOL    HW1 7047   2.250   4.046   1.807
 2343SOL    HW2 7048   2.091   4.014   1.829
 2344SOL     OW 7049   2.460   4.453   0.270
 2344SOL    HW1 7050   2.484   4.522   0.202
 2344SOL    HW2 7051   2.382   4.486   0.324
 2345SOL     OW 7052   3.143   4.069   0.944
 2345SOL    HW1 7053   3.057   4.019   0.931
 2345SOL    HW2 7054   3.205   4.015   1.000
 2346SOL     OW 7055   2.669   4.329   1.465
 2346SOL    HW1 7056   2.622   4.326   1.554
 2346SOL    HW2 7057   2.618   4.274   1.399
 2347SOL     OW 7058   3.256   4.193   1.674
 2347SOL    HW1 7059   3.236   4.236   1.762
 2347SOL    HW2 7060   3.334   4.131   1.683
 2348SOL     OW 7061   2.853   4.134   1.242
 2348SOL    HW1 7062   2.776   4.168   1.296
 2348SOL    HW2 7063   2.819   4.083   1.163
 2349SOL     OW 7064   2.903   4.425   0.429
 2349SOL    HW1 7065   2.929   4.421   0.525
 2349SOL    HW2 7066   2.818   4.374   0.415
 2350SOL     OW 7067   2.727   4.072   0.195
 2350SOL    HW1 7068   2.786   4.135   0.146
 2350SOL    HW2 7069   2.746   3.978   0.166
 2351SOL     OW 7070   3.581   4.309   1.831
 2351SOL    HW1 7071   3.555   4.398   1.795
 2351SOL    HW2 7072   3.579   4.241   1.758
 2352SOL     OW 7073   2.412   3.920   0.885
 2352SOL    HW1 7074   2.407   3.915   0.985
 2352SOL    HW2 7075   2.414   4.016   0.856
 2353SOL     OW 7076   3.320   4.459   0.728
 2353SOL    HW1 7077   3.315   4.394   0.803
 2353SOL    HW2 7078   3.400   4.518   0.741
 2354SOL     OW 7079   2.064   4.009   1.498
 2354SOL    HW1 7080   1.984   4.069   1.485
 2354SOL    HW2 7081   2.054   3.960   1.584
 2355SOL     OW 7082   3.262   3.831   0.426
 2355SOL    HW1 7083   3.238   3.794   0.336
 2355SOL    HW2 7084   3.361   3.847   0.430
 2356SOL     OW 7085   2.244   4.424   0.480
 2356SOL    HW1 7086   2.289   4.334   0.477
 2356SOL    HW2 7087   2.150   4.413   0.513
 2357SOL     OW 7088   3.409   3.946   1.729
 2357SOL    HW1 7089   3.404   3.983   1.821
 2357SOL    HW2 7090   3.337   3.877   1.717
 2358SOL     OW 7091   2.643   3.988   1.749
 2358SOL    HW1 7092   2.710   3.927   1.792
 2358SOL    HW2 7093   2.570   4.007   1.814
 2359SOL     OW 7094   3.213   4.314   1.433
 2359SOL    HW1 7095   3.241   4.271   1.518
 2359SOL    HW2 7096   3.238   4.410   1.434
 2360SOL     OW 7097   2.784   4.227   0.899
 2360SOL    HW1 7098   2.759   4.218   0.803
 2360SOL    HW2 7099   2.832   4.145   0.930
 2361SOL     OW 7100   2.401   3.788   0.512
 2361SOL    HW1 7101   2.320   3.789   0.570
 2361SOL    HW2 7102   2.404   3.871   0.457
 2362SOL     OW 7103   2.159   3.759   0.171
 2362SOL    HW1 7104   2.208   3.843   0.150
 2362SOL    HW2 7105   2.221   3.694   0.216
 2363SOL     OW 7106   2.797   3.960   0.480
 2363SOL    HW1 7107   2.749   4.001   0.402
 2363SOL    HW2 7108   2.896   3.958   0.461
 2364SOL     OW 7109   2.938   4.407   1.464
 2364SOL    HW1 7110   2.858   4.346   1.467
 2364SOL    HW2 7111   3.019   4.354   1.440
 2365SOL     OW 7112   2.894   4.273   0.016
 2365SOL    HW1 7113   2.853   4.355  -0.023
 2365SOL    HW2 7114   2.958   4.299   0.089
 2366SOL     OW 7115   1.940   4.280   1.386
 2366SOL    HW1 7116   2.032   4.279   1.345
 2366SOL    HW2 7117   1.934   4.354   1.453
 2367SOL     OW 7118   2.423   3.946   1.147
 2367SOL    HW1 7119   2.461   3.862   1.184
 2367SOL    HW2 7120   2.335   3.965   1.191
 2368SOL     OW 7121   2.728   4.178   0.642
 2368SOL    HW1 7122   2.696   4.250   0.580
 2368SOL    HW2 7123   2.752   4.097   0.589
 2369SOL     OW 7124   2.879   3.763   0.753
 2369SOL    HW1 7125   2.807   3.768   0.684
 2369SOL    HW2 7126   2.855   3.694   0.822
 2370SOL     OW 7127   3.328   4.314   0.992
 2370SOL    HW1 7128   3.298   4.219   0.999
 2370SOL    HW2 7129   3.401   4.330   1.058
 2371SOL     OW 7130   3.719   4.557   0.377
 2371SOL    HW1 7131   3.761   4.493   0.441
 2371SOL    HW2 7132   3.681   4.506   0.299
 2372SOL     OW 7133   3.252   4.299   0.078
 2372SOL    HW1 7134   3.198   4.278   0.159
 2372SOL    HW2 7135   3.343   4.258   0.087
 2373SOL     OW 7136   2.389   3.980   0.328
 2373SOL    HW1 7137   2.416   3.921   0.253
 2373SOL    HW2 7138   2.389   4.075   0.297
 2374SOL     OW 7139   2.777   3.813   1.402
 2374SOL    HW1 7140   2.802   3.793   1.307
 2374SOL    HW2 7141   2.849   3.869   1.444
 2375SOL     OW 7142   2.567   4.774   0.368
 2375SOL    HW1 7143   2.553   4.781   0.467
 2375SOL    HW2 7144   2.651   4.723   0.350
 2376SOL     OW 7145   2.272   4.537   1.251
 2376SOL    HW1 7146   2.358   4.549   1.301
 2376SOL    HW2 7147   2.230   4.450   1.278
 2377SOL     OW 7148   3.136   4.110   1.262
 2377SOL    HW1 7149   3.157   4.184   1.326
 2377SOL    HW2 7150   3.047   4.127   1.219
 2378SOL     OW 7151   2.428   4.261   0.865
 2378SOL    HW1 7152   2.440   4.327   0.791
 2378SOL    HW2 7153   2.474   4.295   0.948
 2379SOL     OW 7154   3.444   4.363   0.472
 2379SOL    HW1 7155   3.413   4.424   0.545
 2379SOL    HW2 7156   3.494   4.415   0.403
 2380SOL     OW 7157   3.449   4.503   1.670
 2380SOL    HW1 7158   3.357   4.541   1.665
 2380SOL    HW2 7159   3.509   4.550   1.605
 2381SOL     OW 7160   2.875   3.829   1.770
 2381SOL    HW1 7161   2.881   3.914   1.718
 2381SOL    HW2 7162   2.907   3.753   1.713
 2382SOL     OW 7163   2.366   3.774   1.740
 2382SOL    HW1 7164   2.324   3.717   1.670
 2382SOL    HW2 7165   2.300   3.843   1.772
 2383SOL     OW 7166   3.222   4.586   1.045
 2383SOL    HW1 7167   3.147   4.586   0.979
 2383SOL    HW2 7168   3.259   4.494   1.054
 2384SOL     OW 7169   3.071   4.249   0.275
 2384SOL    HW1 7170   3.084   4.165   0.329
 2384SOL    HW2 7171   3.042   4.323   0.335
 2385SOL     OW 7172   2.169   3.937   1.231
 2385SOL    HW1 7173   2.146   3.974   1.321
 2385SOL    HW2 7174   2.139   3.842   1.225
 2386SOL     OW 7175   2.594   4.358   1.064
 2386SOL    HW1 7176   2.653   4.332   0.988
 2386SOL    HW2 7177   2.566   4.454   1.053
 2387SOL     OW 7178   3.590   4.659   1.854
 2387SOL    HW1 7179   3.544   4.652   1.765
 2387SOL    HW2 7180   3.528   4.703   1.920
 2388SOL     OW 7181   2.169   3.787   0.618
 2388SOL    HW1 7182   2.158   3.881   0.651
 2388SOL    HW2 7183   2.164   3.724   0.695
 2389SOL     OW 7184   3.484   4.091   0.374
 2389SOL    HW1 7185   3.486   4.015   0.438
 2389SOL    HW2 7186   3.436   4.168   0.414
 2390SOL     OW 7187   3.402   3.998   0.125
 2390SOL    HW1 7188   3.341   3.923   0.148
 2390SOL    HW2 7189   3.424   4.050   0.208
 2391SOL     OW 7190   2.181   4.534   0.949
 2391SOL    HW1 7191   2.274   4.570   0.954
 2391SOL    HW2 7192   2.175   4.449   1.001
 2392SOL     OW 7193   2.201   4.233   1.006
 2392SOL    HW1 7194   2.149   4.150   0.989
 2392SOL    HW2 7195   2.278   4.238   0.942
 2393SOL     OW 7196   3.000   4.104   1.678
 2393SOL    HW1 7197   2.955   4.167   1.742
 2393SOL    HW2 7198   3.093   4.135   1.661
 2394SOL     OW 7199   3.022   3.931   1.477
 2394SOL    HW1 7200   3.022   3.995   1.554
 2394SOL    HW2 7201   3.050   3.979   1.394
 2395SOL     OW 7202   1.902   4.268   1.114
 2395SOL    HW1 7203   1.987   4.235   1.073
 2395SOL    HW2 7204   1.915   4.283   1.212
 2396SOL     OW 7205   2.051   4.244   1.722
 2396SOL    HW1 7206   2.110   4.204   1.652
 2396SOL    HW2 7207   1.993   4.315   1.681
 2397SOL     OW 7208   2.677   4.296   0.325
 2397SOL    HW1 7209   2.684   4.207   0.279
 2397SOL    HW2 7210   2.583   4.330   0.317
 2398SOL     OW 7211   3.519   4.328   1.206
 2398SOL    HW1 7212   3.481   4.259   1.268
 2398SOL    HW2 7213   3.601   4.292   1.162
 2399SOL     OW 7214   2.533   4.188   1.269
 2399SOL    HW1 7215   2.499   4.099   1.239
 2399SOL    HW2 7216   2.559   4.242   1.189
 2400SOL     OW 7217   2.335   4.224   0.191
 2400SOL    HW1 7218   2.396   4.304   0.195
 2400SOL    HW2 7219   2.240   4.255   0.198
 2401SOL     OW 7220   2.765   3.810   0.133
 2401SOL    HW1 7221   2.816   3.811   0.047
 2401SOL    HW2 7222   2.821   3.768   0.204
 2402SOL     OW 7223   3.588   3.859   0.523
 2402SOL    HW1 7224   3.661   3.842   0.456
 2402SOL    HW2 7225   3.557   3.772   0.561
 2403SOL     OW 7226   3.142   4.651   0.672
 2403SOL    HW1 7227   3.202   4.570   0.674
 2403SOL    HW2 7228   3.182   4.720   0.612
 2404SOL     OW 7229   3.703   3.899   0.963
 2404SOL    HW1 7230   3.742   3.814   0.927
 2404SOL    HW2 7231   3.605   3.901   0.944
 2405SOL     OW 7232   2.125   4.050   0.720
 2405SOL    HW1 7233   2.046   4.101   0.686
 2405SOL    HW2 7234   2.116   4.035   0.818
 2406SOL     OW 7235   2.876   3.960   0.971
 2406SOL    HW1 7236   2.868   3.924   0.878
 2406SOL    HW2 7237   2.874   3.884   1.036
 2407SOL     OW 7238   3.571   4.109   1.381
 2407SOL    HW1 7239   3.644   4.178   1.385
 2407SOL    HW2 7240   3.599   4.034   1.322
 2408SOL     OW 7241   1.967   4.737   1.726
 2408SOL    HW1 7242   1.890   4.704   1.780
 2408SOL    HW2 7243   2.052   4.707   1.768
 2409SOL     OW 7244   2.534   3.927   1.489
 2409SOL    HW1 7245   2.624   3.911   1.449
 2409SOL    HW2 7246   2.542   3.932   1.588
 2410SOL     OW 7247   1.937   4.069   0.033
 2410SOL    HW1 7248   1.845   4.041   0.004
 2410SOL    HW2 7249   1.968   4.146  -0.023
 2411SOL     OW 7250   3.302   4.580   1.398
 2411SOL    HW1 7251   3.245   4.632   1.335
 2411SOL    HW2 7252   3.398   4.592   1.374
 2412SOL     OW 7253   1.934   3.890   0.318
 2412SOL    HW1 7254   1.917   3.973   0.264
 2412SOL    HW2 7255   2.024   3.853   0.296
 2413SOL     OW 7256   2.475   4.566   1.431
 2413SOL    HW1 7257   2.531   4.647   1.414
 2413SOL    HW2 7258   2.534   4.486   1.434
 2414SOL     OW 7259   2.578   4.289   1.708
 2414SOL    HW1 7260   2.597   4.354   1.782
 2414SOL    HW2 7261   2.638   4.209   1.717
 2415SOL     OW 7262   3.536   4.607   1.254
 2415SOL    HW1 7263   3.509   4.518   1.217
 2415SOL    HW2 7264   3.537   4.675   1.181
 2416SOL     OW 7265   3.087   4.049   0.449
 2416SOL    HW1 7266   3.152   3.975   0.438
 2416SOL    HW2 7267   3.107   4.099   0.533
 2417SOL     OW 7268   2.456   4.469   0.652
 2417SOL    HW1 7269   2.506   4.554   0.633
 2417SOL    HW2 7270   2.368   4.471   0.604
 2418SOL     OW 7271   3.639   4.066   1.642
 2418SOL    HW1 7272   3.622   4.097   1.548
 2418SOL    HW2 7273   3.555   4.029   1.680
 2419SOL     OW 7274   3.686   3.916   1.227
 2419SOL    HW1 7275   3.682   3.826   1.271
 2419SOL    HW2 7276   3.689   3.905   1.128
 2420SOL     OW 7277   2.290   4.148   0.520
 2420SOL    HW1 7278   2.320   4.076   0.458
 2420SOL    HW2 7279   2.251   4.108   0.603
 2421SOL     OW 7280   2.179   4.271   1.280
 2421SOL    HW1 7281   2.217   4.212   1.352
 2421SOL    HW2 7282   2.219   4.245   1.192
 2422SOL     OW 7283   3.286   3.938   1.112
 2422SOL    HW1 7284   3.338   3.873   1.167
 2422SOL    HW2 7285   3.237   4.001   1.173
 2423SOL     OW 7286   2.863   3.758   1.154
 2423SOL    HW1 7287   2.800   3.686   1.123
 2423SOL    HW2 7288   2.956   3.722   1.154
 2424SOL     OW 7289   3.214   3.776   0.168
 2424SOL    HW1 7290   3.249   3.735   0.084
 2424SOL    HW2 7291   3.124   3.738   0.188
 2425SOL     OW 7292   3.162   4.177   0.691
 2425SOL    HW1 7293   3.103   4.257   0.695
 2425SOL    HW2 7294   3.177   4.142   0.784
 2426SOL     OW 7295   3.455   3.945   0.882
 2426SOL    HW1 7296   3.371   3.944   0.936
 2426SOL    HW2 7297   3.457   4.028   0.826
 2427SOL     OW 7298   2.092   4.352   1.975
 2427SOL    HW1 7299   1.999   4.350   2.012
 2427SOL    HW2 7300   2.093   4.313   1.883
 2428SOL     OW 7301   2.087   3.999   2.858
 2428SOL    HW1 7302   2.122   3.982   2.950
 2428SOL    HW2 7303   1.999   3.954   2.846
 2429SOL     OW 7304   1.881   4.092   2.509
 2429SOL    HW1 7305   1.799   4.135   2.548
 2429SOL    HW2 7306   1.853   4.019   2.446
 2430SOL     OW 7307   2.997   4.427   2.579
 2430SOL    HW1 7308   3.054   4.505   2.554
 2430SOL    HW2 7309   2.937   4.453   2.655
 2431SOL     OW 7310   3.617   4.331   2.093
 2431SOL    HW1 7311   3.605   4.318   1.994
 2431SOL    HW2 7312   3.587   4.250   2.142
 2432SOL     OW 7313   2.712   4.522   3.685
 2432SOL    HW1 7314   2.708   4.598   3.750
 2432SOL    HW2 7315   2.734   4.558   3.594
 2433SOL     OW 7316   2.547   4.736   2.527
 2433SOL    HW1 7317   2.616   4.720   2.597
 2433SOL    HW2 7318   2.474   4.793   2.565
 2434SOL     OW 7319   2.300   4.116   3.361
 2434SOL    HW1 7320   2.382   4.060   3.370
 2434SOL    HW2 7321   2.219   4.058   3.365
 2435SOL     OW 7322   3.465   4.171   2.599
 2435SOL    HW1 7323   3.391   4.217   2.549
 2435SOL    HW2 7324   3.516   4.239   2.652
 2436SOL     OW 7325   3.456   3.838   3.342
 2436SOL    HW1 7326   3.438   3.905   3.270
 2436SOL    HW2 7327   3.453   3.884   3.431
 2437SOL     OW 7328   1.984   4.367   2.425
 2437SOL    HW1 7329   1.939   4.279   2.442
 2437SOL    HW2 7330   1.983   4.421   2.509
 2438SOL     OW 7331   1.975   4.461   3.459
 2438SOL    HW1 7332   2.063   4.448   3.504
 2438SOL    HW2 7333   1.962   4.558   3.437
 2439SOL     OW 7334   2.671   3.728   2.364
 2439SOL    HW1 7335   2.711   3.819   2.355
 2439SOL    HW2 7336   2.571   3.736   2.370
 2440SOL     OW 7337   2.179   3.975   3.663
 2440SOL    HW1 7338   2.250   4.046   3.669
 2440SOL    HW2 7339   2.091   4.014   3.691
 2441SOL     OW 7340   2.460   4.453   2.132
 2441SOL    HW1 7341   2.484   4.522   2.064
 2441SOL    HW2 7342   2.382   4.486   2.186
 2442SOL     OW 7343   3.143   4.069   2.806
 2442SOL    HW1 7344   3.057   4.019   2.793
 2442SOL    HW2 7345   3.205   4.015   2.862
 2443SOL     OW 7346   2.669   4.329   3.327
 2443SOL    HW1 7347   2.622   4.326   3.416
 2443SOL    HW2 7348   2.618   4.274   3.261
 2444SOL     OW 7349   3.256   4.193   3.536
 2444SOL    HW1 7350   3.236   4.236   3.624
 2444SOL    HW2 7351   3.334   4.131   3.545
 2445SOL     OW 7352   2.853   4.134   3.104
 2445SOL    HW1 7353   2.776   4.168   3.158
 2445SOL    HW2 7354   2.819   4.083   3.025
 2446SOL     OW 7355   2.903   4.425   2.291
 2446SOL    HW1 7356   2.929   4.421   2.387
 2446SOL    HW2 7357   2.818   4.374   2.277
 2447SOL     OW 7358   2.727   4.072   2.057
 2447SOL    HW1 7359   2.786   4.135   2.008
 2447SOL    HW2 7360   2.746   3.978   2.028
 2448SOL     OW 7361   3.581   4.309   3.693
 2448SOL    HW1 7362   3.555   4.398   3.657
 2448SOL    HW2 7363   3.579   4.241   3.620
 2449SOL     OW 7364   2.412   3.920   2.747
 2449SOL    HW1 7365   2.407   3.915   2.847
 2449SOL    HW2 7366   2.414   4.016   2.718
 2450SOL     OW 7367   3.320   4.459   2.590
 2450SOL    HW1 7368   3.315   4.394   2.665
 2450SOL    HW2 7369   3.400   4.518   2.603
 2451SOL     OW 7370   2.064   4.009   3.360
 2451SOL    HW1 7371   1.984   4.069   3.347
 2451SOL    HW2 7372   2.054   3.960   3.446
 2452SOL     OW 7373   3.262   3.831   2.288
 2452SOL    HW1 7374   3.238   3.794   2.198
 2452SOL    HW2 7375   3.361   3.847   2.292
 2453SOL     OW 7376   2.244   4.424   2.342
 2453SOL    HW1 7377   2.289   4.334   2.339
 2453SOL    HW2 7378   2.150   4.413   2.375
 2454SOL     OW 7379   3.409   3.946   3.591
 2454SOL    HW1 7380   3.404   3.983   3.683
 2454SOL    HW2 7381   3.337   3.877   3.579
 2455SOL     OW 7382   2.476   3.846   1.979
 2455SOL    HW1 7383   2.574   3.824   1.986
 2455SOL    HW2 7384   2.445   3.829   1.886
 2456SOL     OW 7385   2.643   3.988   3.611
 2456SOL    HW1 7386   2.710   3.927   3.654
 2456SOL    HW2 7387   2.570   4.007   3.676
 2457SOL     OW 7388   3.213   4.314   3.295
 2457SOL    HW1 7389   3.241   4.271   3.380
 2457SOL    HW2 7390   3.238   4.410   3.296
 2458SOL     OW 7391   2.784   4.227   2.761
 2458SOL    HW1 7392   2.759   4.218   2.665
 2458SOL    HW2 7393   2.832   4.145   2.792
 2459SOL     OW 7394   2.401   3.788   2.374
 2459SOL    HW1 7395   2.320   3.789   2.432
 2459SOL    HW2 7396   2.404   3.871   2.319
 2460SOL     OW 7397   2.159   3.759   2.033
 2460SOL    HW1 7398   2.208   3.843   2.012
 2460SOL    HW2 7399   2.221   3.694   2.078
 2461SOL     OW 7400   2.797   3.960   2.342
 2461SOL    HW1 7401   2.749   4.001   2.264
 2461SOL    HW2 7402   2.896   3.958   2.323
 2462SOL     OW 7403   2.938   4.407   3.326
 2462SOL    HW1 7404   2.858   4.346   3.329
 2462SOL    HW2 7405   3.019   4.354   3.302
 2463SOL     OW 7406   2.894   4.273   1.878
 2463SOL    HW1 7407   2.853   4.355   1.839
 2463SOL    HW2 7408   2.958   4.299   1.951
 2464SOL     OW 7409   1.940   4.280   3.248
 2464SOL    HW1 7410   2.032   4.279   3.207
 2464SOL    HW2 7411   1.934   4.354   3.315
 2465SOL     OW 7412   2.423   3.946   3.009
 2465SOL    HW1 7413   2.461   3.862   3.046
 2465SOL    HW2 7414   2.335   3.965   3.053
 2466SOL     OW 7415   2.728   4.178   2.504
 2466SOL    HW1 7416   2.696   4.250   2.442
 2466SOL    HW2 7417   2.752   4.097   2.451
 2467SOL     OW 7418   2.879   3.763   2.615
 2467SOL    HW1 7419   2.807   3.768   2.546
 2467SOL    HW2 7420   2.855   3.694   2.684
 2468SOL     OW 7421   3.328   4.314   2.854
 2468SOL    HW1 7422   3.298   4.219   2.861
 2468SOL    HW2 7423   3.401   4.330   2.920
 2469SOL     OW 7424   3.719   4.557   2.239
 2469SOL    HW1 7425   3.761   4.493   2.303
 2469SOL    HW2 7426   3.681   4.506   2.161
 2470SOL     OW 7427   3.252   4.299   1.940
 2470SOL    HW1 7428   3.198   4.278   2.021
 2470SOL    HW2 7429   3.343   4.258   1.949
 2471SOL     OW 7430   2.389   3.980   2.190
 2471SOL    HW1 7431   2.416   3.921   2.115
 2471SOL    HW2 7432   2.389   4.075   2.159
 2472SOL     OW 7433   2.777   3.813   3.264
 2472SOL    HW1 7434   2.802   3.793   3.169
 2472SOL    HW2 7435   2.849   3.869   3.306
 2473SOL     OW 7436   2.567   4.774   2.230
 2473SOL    HW1 7437   2.553   4.781   2.329
 2473SOL    HW2 7438   2.651   4.723   2.212
 2474SOL     OW 7439   2.272   4.537   3.113
 2474SOL    HW1 7440   2.358   4.549   3.163
 2474SOL    HW2 7441   2.230   4.450   3.140
 2475SOL     OW 7442   3.136   4.110   3.124
 2475SOL    HW1 7443   3.157   4.184   3.188
 2475SOL    HW2 7444   3.047   4.127   3.081
 2476SOL     OW 7445   2.428   4.261   2.727
 2476SOL    HW1 7446   2.440   4.327   2.653
 2476SOL    HW2 7447   2.474   4.295   2.810
 2477SOL     OW 7448   3.444   4.363   2.334
 2477SOL    HW1 7449   3.413   4.424   2.407
 2477SOL    HW2 7450   3.494   4.415   2.265
 2478SOL     OW 7451   3.449   4.503   3.532
 2478SOL    HW1 7452   3.357   4.541   3.527
 2478SOL    HW2 7453   3.509   4.550   3.467
 2479SOL     OW 7454   2.875   3.829   3.632
 2479SOL    HW1 7455   2.881   3.914   3.580
 2479SOL    HW2 7456   2.907   3.753   3.575
 2480SOL     OW 7457   2.366   3.774   3.602
 2480SOL    HW1 7458   2.324   3.717   3.532
 2480SOL    HW2 7459   2.300   3.843   3.634
 2481SOL     OW 7460   3.222   4.586   2.907
 2481SOL    HW1 7461   3.147   4.586   2.841
 2481SOL    HW2 7462   3.259   4.494   2.916
 2482SOL     OW 7463   3.071   4.249   2.137
 2482SOL    HW1 7464   3.084   4.165   2.191
 2482SOL    HW2 7465   3.042   4.323   2.197
 2483SOL     OW 7466   2.169   3.937   3.093
 2483SOL    HW1 7467   2.146   3.974   3.183
 2483SOL    HW2 7468   2.139   3.842   3.087
 2484SOL     OW 7469   2.594   4.358   2.926
 2484SOL    HW1 7470   2.653   4.332   2.850
 2484SOL    HW2 7471   2.566   4.454   2.915
 2485SOL     OW 7472   3.590   4.659   3.716
 2485SOL    HW1 7473   3.544   4.652   3.627
 2485SOL    HW2 7474   3.528   4.703   3.782
 2486SOL     OW 7475   2.169   3.787   2.480
 2486SOL    HW1 7476   2.158   3.881   2.513
 2486SOL    HW2 7477   2.164   3.724   2.557
 2487SOL     OW 7478   3.484   4.091   2.236
 2487SOL    HW1 7479   3.486   4.015   2.300
 2487SOL    HW2 7480   3.436   4.168   2.276
 2488SOL     OW 7481   3.402   3.998   1.987
 2488SOL    HW1 7482   3.341   3.923   2.010
 2488SOL    HW2 7483   3.424   4.050   2.070
 2489SOL     OW 7484   2.181   4.534   2.811
 2489SOL    HW1 7485   2.274   4.570   2.816
 2489SOL    HW2 7486   2.175   4.449   2.863
 2490SOL     OW 7487   2.201   4.233   2.868
 2490SOL    HW1 7488   2.149   4.150   2.851
 2490SOL    HW2 7489   2.278   4.238   2.804
 2491SOL     OW 7490   3.000   4.104   3.540
 2491SOL    HW1 7491   2.955   4.167   3.604
 2491SOL    HW2 7492   3.093   4.135   3.523
 2492SOL     OW 7493   3.022   3.931   3.339
 2492SOL    HW1 7494   3.022   3.995   3.416
 2492SOL    HW2 7495   3.050   3.979   3.256
 2493SOL     OW 7496   1.902   4.268   2.976
 2493SOL    HW1 7497   1.987   4.235   2.935
 2493SOL    HW2 7498   1.915   4.283   3.074
 2494SOL     OW 7499   2.051   4.244   3.584
 2494SOL    HW1 7500   2.110   4.204   3.514
 2494SOL    HW2 7501   1.993   4.315   3.543
 2495SOL     OW 7502   2.677   4.296   2.187
 2495SOL    HW1 7503   2.684   4.207   2.141
 2495SOL    HW2 7504   2.583   4.330   2.179
 2496SOL     OW 7505   3.519   4.328   3.068
 2496SOL    HW1 7506   3.481   4.259   3.130
 2496SOL    HW2 7507   3.601   4.292   3.024
 2497SOL     OW 7508   2.533   4.188   3.131
 2497SOL    HW1 7509   2.499   4.099   3.101
 2497SOL    HW2 7510   2.559   4.242   3.051
 2498SOL     OW 7511   2.335   4.224   2.053
 2498SOL    HW1 7512   2.396   4.304   2.057
 2498SOL    HW2 7513   2.240   4.255   2.060
 2499SOL     OW 7514   3.588   3.859   2.385
 2499SOL    HW1 7515   3.661   3.842   2.318
 2499SOL    HW2 7516   3.557   3.772   2.423
 2500SOL     OW 7517   3.142   4.651   2.534
 2500SOL    HW1 7518   3.202   4.570   2.536
 2500SOL    HW2 7519   3.182   4.720   2.474
 2501SOL     OW 7520   3.703   3.899   2.825
 2501SOL    HW1 7521   3.742   3.814   2.789
 2501SOL    HW2 7522   3.605   3.901   2.806
 2502SOL     OW 7523   2.125   4.050   2.582
 2502SOL    HW1 7524   2.046   4.101   2.548
 2502SOL    HW2 7525   2.116   4.035   2.680
 2503SOL     OW 7526   2.778   4.634   2.153
 2503SOL    HW1 7527   2.841   4.672   2.085
 2503SOL    HW2 7528   2.818   4.551   2.192
 2504SOL     OW 7529   2.876   3.960   2.833
 2504SOL    HW1 7530   2.868   3.924   2.740
 2504SOL    HW2 7531   2.874   3.884   2.898
 2505SOL     OW 7532   3.571   4.109   3.243
 2505SOL    HW1 7533   3.644   4.178   3.247
 2505SOL    HW2 7534   3.599   4.034   3.184
 2506SOL     OW 7535   1.967   4.737   3.588
 2506SOL    HW1 7536   1.890   4.704   3.642
 2506SOL    HW2 7537   2.052   4.707   3.630
 2507SOL     OW 7538   2.534   3.927   3.351
 2507SOL    HW1 7539   2.624   3.911   3.311
 2507SOL    HW2 7540   2.542   3.932   3.450
 2508SOL     OW 7541   1.937   4.069   1.895
 2508SOL    HW1 7542   1.845   4.041   1.866
 2508SOL    HW2 7543   1.968   4.146   1.839
 2509SOL     OW 7544   3.302   4.580   3.260
 2509SOL    HW1 7545   3.245   4.632   3.197
 2509SOL    HW2 7546   3.398   4.592   3.236
 2510SOL     OW 7547   1.934   3.890   2.180
 2510SOL    HW1 7548   1.917   3.973   2.126
 2510SOL    HW2 7549   2.024   3.853   2.158
 2511SOL     OW 7550   2.475   4.566   3.293
 2511SOL    HW1 7551   2.531   4.647   3.276
 2511SOL    HW2 7552   2.534   4.486   3.296
 2512SOL     OW 7553   2.578   4.289   3.570
 2512SOL    HW1 7554   2.597   4.354   3.644
 2512SOL    HW2 7555   2.638   4.209   3.579
 2513SOL     OW 7556   3.536   4.607   3.116
 2513SOL    HW1 7557   3.509   4.518   3.079
 2513SOL    HW2 7558   3.537   4.675   3.043
 2514SOL     OW 7559   3.087   4.049   2.311
 2514SOL    HW1 7560   3.152   3.975   2.300
 2514SOL    HW2 7561   3.107   4.099   2.395
 2515SOL     OW 7562   2.456   4.469   2.514
 2515SOL    HW1 7563   2.506   4.554   2.495
 2515SOL    HW2 7564   2.368   4.471   2.466
 2516SOL     OW 7565   3.639   4.066   3.504
 2516SOL    HW1 7566   3.622   4.097   3.410
 2516SOL    HW2 7567   3.555   4.029   3.542
 2517SOL     OW 7568   3.686   3.916   3.089
 2517SOL    HW1 7569   3.682   3.826   3.133
 2517SOL    HW2 7570   3.689   3.905   2.990
 2518SOL     OW 7571   2.290   4.148   2.382
 2518SOL    HW1 7572   2.320   4.076   2.320
 2518SOL    HW2 7573   2.251   4.108   2.465
 2519SOL     OW 7574   2.179   4.271   3.142
 2519SOL    HW1 7575   2.217   4.212   3.214
 2519SOL    HW2 7576   2.219   4.245   3.054
 2520SOL     OW 7577   3.286   3.938   2.974
 2520SOL    HW1 7578   3.338   3.873   3.029
 2520SOL    HW2 7579   3.237   4.001   3.035
 2521SOL     OW 7580   2.863   3.758   3.016
 2521SOL    HW1 7581   2.800   3.686   2.985
 2521SOL    HW2 7582   2.956   3.722   3.016
 2522SOL     OW 7583   3.214   3.776   2.030
 2522SOL    HW1 7584   3.249   3.735   1.946
 2522SOL    HW2 7585   3.124   3.738   2.050
 2523SOL     OW 7586   3.162   4.177   2.553
 2523SOL    HW1 7587   3.103   4.257   2.557
 2523SOL    HW2 7588   3.177   4.142   2.646
 2524SOL     OW 7589   3.455   3.945   2.744
 2524SOL    HW1 7590   3.371   3.944   2.798
 2524SOL    HW2 7591   3.457   4.028   2.688
 2525SOL     OW 7592   2.092   4.352   3.837
 2525SOL    HW1 7593   1.999   4.350   3.874
 2525SOL    HW2 7594   2.093   4.313   3.745
 2526SOL     OW 7595   1.881   4.092   4.371
 2526SOL    HW1 7596   1.799   4.135   4.410
 2526SOL    HW2 7597   1.853   4.019   4.308
 2527SOL     OW 7598   2.997   4.427   4.441
 2527SOL    HW1 7599   3.054   4.505   4.416
 2527SOL    HW2 7600   2.937   4.453   4.517
 2528SOL     OW 7601   3.617   4.331   3.955
 2528SOL    HW1 7602   3.605   4.318   3.856
 2528SOL    HW2 7603   3.587   4.250   4.004
 2529SOL     OW 7604   2.547   4.736   4.389
 2529SOL    HW1 7605   2.616   4.720   4.459
 2529SOL    HW2 7606   2.474   4.793   4.427
 2530SOL     OW 7607   3.465   4.171   4.461
 2530SOL    HW1 7608   3.391   4.217   4.411
 2530SOL    HW2 7609   3.516   4.239   4.514
 2531SOL     OW 7610   1.984   4.367   4.287
 2531SOL    HW1 7611   1.939   4.279   4.304
 2531SOL    HW2 7612   1.983   4.421   4.371
 2532SOL     OW 7613   2.671   3.728   4.226
 2532SOL    HW1 7614   2.711   3.819   4.217
 2532SOL    HW2 7615   2.571   3.736   4.232
 2533SOL     OW 7616   2.460   4.453   3.994
 2533SOL    HW1 7617   2.484   4.522   3.926
 2533SOL    HW2 7618   2.382   4.486   4.048
 2534SOL     OW 7619   3.143   4.069   4.668
 2534SOL    HW1 7620   3.057   4.019   4.655
 2534SOL    HW2 7621   3.205   4.015   4.724
 2535SOL     OW 7622   2.903   4.425   4.153
 2535SOL    HW1 7623   2.929   4.421   4.249
 2535SOL    HW2 7624   2.818   4.374   4.139
 2536SOL     OW 7625   2.727   4.072   3.919
 2536SOL    HW1 7626   2.786   4.135   3.870
 2536SOL    HW2 7627   2.746   3.978   3.890
 2537SOL     OW 7628   2.412   3.920   4.609
 2537SOL    HW1 7629   2.407   3.915   4.709
 2537SOL    HW2 7630   2.414   4.016   4.580
 2538SOL     OW 7631   3.320   4.459   4.452
 2538SOL    HW1 7632   3.315   4.394   4.527
 2538SOL    HW2 7633   3.400   4.518   4.465
 2539SOL     OW 7634   3.262   3.831   4.150
 2539SOL    HW1 7635   3.238   3.794   4.060
 2539SOL    HW2 7636   3.361   3.847   4.154
 2540SOL     OW 7637   2.244   4.424   4.204
 2540SOL    HW1 7638   2.289   4.334   4.201
 2540SOL    HW2 7639   2.150   4.413   4.237
 2541SOL     OW 7640   2.476   3.846   3.841
 2541SOL    HW1 7641   2.574   3.824   3.848
 2541SOL    HW2 7642   2.445   3.829   3.748
 2542SOL     OW 7643   2.401   3.788   4.236
 2542SOL    HW1 7644   2.320   3.789   4.294
 2542SOL    HW2 7645   2.404   3.871   4.181
 2543SOL     OW 7646   2.159   3.759   3.895
 2543SOL    HW1 7647   2.208   3.843   3.874
 2543SOL    HW2 7648   2.221   3.694   3.940
 2544SOL     OW 7649   2.797   3.960   4.204
 2544SOL    HW1 7650   2.749   4.001   4.126
 2544SOL    HW2 7651   2.896   3.958   4.185
 2545SOL     OW 7652   2.321   4.876   4.465
 2545SOL    HW1 7653   2.250   4.849   4.530
 2545SOL    HW2 7654   2.295   4.848   4.372
 2546SOL     OW 7655   2.894   4.273   3.740
 2546SOL    HW1 7656   2.853   4.355   3.701
 2546SOL    HW2 7657   2.958   4.299   3.813
 2547SOL     OW 7658   2.728   4.178   4.366
 2547SOL    HW1 7659   2.696   4.250   4.304
 2547SOL    HW2 7660   2.752   4.097   4.313
 2548SOL     OW 7661   2.879   3.763   4.477
 2548SOL    HW1 7662   2.807   3.768   4.408
 2548SOL    HW2 7663   2.855   3.694   4.546
 2549SOL     OW 7664   3.719   4.557   4.101
 2549SOL    HW1 7665   3.761   4.493   4.165
 2549SOL    HW2 7666   3.681   4.506   4.023
 2550SOL     OW 7667   3.252   4.299   3.802
 2550SOL    HW1 7668   3.198   4.278   3.883
 2550SOL    HW2 7669   3.343   4.258   3.811
 2551SOL     OW 7670   2.389   3.980   4.052
 2551SOL    HW1 7671   2.416   3.921   3.977
 2551SOL    HW2 7672   2.389   4.075   4.021
 2552SOL     OW 7673   2.567   4.774   4.092
 2552SOL    HW1 7674   2.553   4.781   4.191
 2552SOL    HW2 7675   2.651   4.723   4.074
 2553SOL     OW 7676   2.428   4.261   4.589
 2553SOL    HW1 7677   2.440   4.327   4.515
 2553SOL    HW2 7678   2.474   4.295   4.672
 2554SOL     OW 7679   3.444   4.363   4.196
 2554SOL    HW1 7680   3.413   4.424   4.269
 2554SOL    HW2 7681   3.494   4.415   4.127
 2555SOL     OW 7682   3.071   4.249   3.999
 2555SOL    HW1 7683   3.084   4.165   4.053
 2555SOL    HW2 7684   3.042   4.323   4.059
 2556SOL     OW 7685   2.169   3.787   4.342
 2556SOL    HW1 7686   2.158   3.881   4.375
 2556SOL    HW2 7687   2.164   3.724   4.419
 2557SOL     OW 7688   3.484   4.091   4.098
 2557SOL    HW1 7689   3.486   4.015   4.162
 2557SOL    HW2 7690   3.436   4.168   4.138
 2558SOL     OW 7691   3.402   3.998   3.849
 2558SOL    HW1 7692   3.341   3.923   3.872
 2558SOL    HW2 7693   3.424   4.050   3.932
 2559SOL     OW 7694   2.677   4.296   4.049
 2559SOL    HW1 7695   2.684   4.207   4.003
 2559SOL    HW2 7696   2.583   4.330   4.041
 2560SOL     OW 7697   2.335   4.224   3.915
 2560SOL    HW1 7698   2.396   4.304   3.919
 2560SOL    HW2 7699   2.240   4.255   3.922
 2561SOL     OW 7700   3.588   3.859   4.247
 2561SOL    HW1 7701   3.661   3.842   4.180
 2561SOL    HW2 7702   3.557   3.772   4.285
 2562SOL     OW 7703   3.142   4.651   4.396
 2562SOL    HW1 7704   3.202   4.570   4.398
 2562SOL    HW2 7705   3.182   4.720   4.336
 2563SOL     OW 7706   3.703   3.899   4.687
 2563SOL    HW1 7707   3.742   3.814   4.651
 2563SOL    HW2 7708   3.605   3.901   4.668
 2564SOL     OW 7709   2.125   4.050   4.444
 2564SOL    HW1 7710   2.046   4.101   4.410
 2564SOL    HW2 7711   2.116   4.035   4.542
 2565SOL     OW 7712   2.778   4.634   4.015
 2565SOL    HW1 7713   2.841   4.672   3.947
 2565SOL    HW2 7714   2.818   4.551   4.054
 2566SOL     OW 7715   1.937   4.069   3.757
 2566SOL    HW1 7716   1.845   4.041   3.728
 2566SOL    HW2 7717   1.968   4.146   3.701
 2567SOL     OW 7718   1.934   3.890   4.042
 2567SOL    HW1 7719   1.917   3.973   3.988
 2567SOL    HW2 7720   2.024   3.853   4.020
 2568SOL     OW 7721   3.087   4.049   4.173
 2568SOL    HW1 7722   3.152   3.975   4.162
 2568SOL    HW2 7723   3.107   4.099   4.257
 2569SOL     OW 7724   2.456   4.469   4.376
 2569SOL    HW1 7725   2.506   4.554   4.357
 2569SOL    HW2 7726   2.368   4.471   4.328
 2570SOL     OW 7727   2.290   4.148   4.244
 2570SOL    HW1 7728   2.320   4.076   4.182
 2570SOL    HW2 7729   2.251   4.108   4.327
 2571SOL     OW 7730   3.214   3.776   3.892
 2571SOL    HW1 7731   3.249   3.735   3.808
 2571SOL    HW2 7732   3.124   3.738   3.912
 2572SOL     OW 7733   3.162   4.177   4.415
 2572SOL    HW1 7734   3.103   4.257   4.419
 2572SOL    HW2 7735   3.177   4.142   4.508
 2573SOL     OW 7736   3.954   0.628   0.113
 2573SOL    HW1 7737   3.861   0.626   0.150
 2573SOL    HW2 7738   3.955   0.589   0.021
 2574SOL     OW 7739   3.949   0.275   0.996
 2574SOL    HW1 7740   3.984   0.258   1.088
 2574SOL    HW2 7741   3.861   0.230   0.984
 2575SOL     OW 7742   3.743   0.368   0.647
 2575SOL    HW1 7743   3.661   0.411   0.686
 2575SOL    HW2 7744   3.715   0.295   0.584
 2576SOL     OW 7745   4.293   1.275   1.165
 2576SOL    HW1 7746   4.200   1.268   1.128
 2576SOL    HW2 7747   4.304   1.364   1.209
 2577SOL     OW 7748   4.574   0.798   1.823
 2577SOL    HW1 7749   4.570   0.874   1.888
 2577SOL    HW2 7750   4.596   0.834   1.732
 2578SOL     OW 7751   4.409   1.012   0.665
 2578SOL    HW1 7752   4.478   0.996   0.735
 2578SOL    HW2 7753   4.336   1.069   0.703
 2579SOL     OW 7754   4.410   1.161   1.803
 2579SOL    HW1 7755   4.470   1.240   1.817
 2579SOL    HW2 7756   4.324   1.192   1.762
 2580SOL     OW 7757   4.059   1.435   1.061
 2580SOL    HW1 7758   3.981   1.404   1.008
 2580SOL    HW2 7759   4.117   1.493   1.004
 2581SOL     OW 7760   4.162   0.392   1.499
 2581SOL    HW1 7761   4.244   0.336   1.508
 2581SOL    HW2 7762   4.081   0.334   1.503
 2582SOL     OW 7763   3.955   1.713   0.483
 2582SOL    HW1 7764   3.989   1.790   0.537
 2582SOL    HW2 7765   3.999   1.713   0.393
 2583SOL     OW 7766   3.954   1.434   0.538
 2583SOL    HW1 7767   3.928   1.530   0.538
 2583SOL    HW2 7768   3.883   1.380   0.583
 2584SOL     OW 7769   3.964   1.091   0.886
 2584SOL    HW1 7770   3.978   1.007   0.938
 2584SOL    HW2 7771   3.909   1.155   0.941
 2585SOL     OW 7772   4.344   1.786   1.439
 2585SOL    HW1 7773   4.252   1.769   1.474
 2585SOL    HW2 7774   4.372   1.878   1.465
 2586SOL     OW 7775   4.330   0.964   0.123
 2586SOL    HW1 7776   4.337   1.048   0.069
 2586SOL    HW2 7777   4.376   0.977   0.211
 2587SOL     OW 7778   3.846   0.643   0.563
 2587SOL    HW1 7779   3.801   0.555   0.580
 2587SOL    HW2 7780   3.845   0.697   0.647
 2588SOL     OW 7781   3.751   1.596   0.117
 2588SOL    HW1 7782   3.732   1.500   0.138
 2588SOL    HW2 7783   3.718   1.654   0.192
 2589SOL     OW 7784   3.837   0.737   1.597
 2589SOL    HW1 7785   3.925   0.724   1.642
 2589SOL    HW2 7786   3.824   0.834   1.575
 2590SOL     OW 7787   4.337   1.365   0.726
 2590SOL    HW1 7788   4.288   1.278   0.735
 2590SOL    HW2 7789   4.314   1.408   0.639
 2591SOL     OW 7790   4.533   0.004   0.502
 2591SOL    HW1 7791   4.573   0.095   0.493
 2591SOL    HW2 7792   4.433   0.012   0.508
 2592SOL     OW 7793   3.921   0.976   1.264
 2592SOL    HW1 7794   4.010   0.931   1.250
 2592SOL    HW2 7795   3.848   0.911   1.245
 2593SOL     OW 7796   4.041   0.251   1.801
 2593SOL    HW1 7797   4.112   0.322   1.807
 2593SOL    HW2 7798   3.953   0.290   1.829
 2594SOL     OW 7799   4.322   0.729   0.270
 2594SOL    HW1 7800   4.346   0.798   0.202
 2594SOL    HW2 7801   4.244   0.762   0.324
 2595SOL     OW 7802   3.800   0.811   0.789
 2595SOL    HW1 7803   3.899   0.799   0.798
 2595SOL    HW2 7804   3.776   0.906   0.810
 2596SOL     OW 7805   3.854   1.821   1.571
 2596SOL    HW1 7806   3.844   1.806   1.670
 2596SOL    HW2 7807   3.768   1.857   1.535
 2597SOL     OW 7808   4.274   0.196   0.885
 2597SOL    HW1 7809   4.269   0.191   0.985
 2597SOL    HW2 7810   4.276   0.292   0.856
 2598SOL     OW 7811   4.075   1.801   0.853
 2598SOL    HW1 7812   4.125   1.715   0.859
 2598SOL    HW2 7813   4.140   1.878   0.850
 2599SOL     OW 7814   4.045   0.943   0.242
 2599SOL    HW1 7815   4.127   0.982   0.200
 2599SOL    HW2 7816   4.018   0.861   0.193
 2600SOL     OW 7817   4.185   1.266   1.727
 2600SOL    HW1 7818   4.135   1.267   1.641
 2600SOL    HW2 7819   4.122   1.248   1.803
 2601SOL     OW 7820   3.926   0.285   1.498
 2601SOL    HW1 7821   3.846   0.345   1.485
 2601SOL    HW2 7822   3.916   0.236   1.584
 2602SOL     OW 7823   4.188   1.743   0.323
 2602SOL    HW1 7824   4.221   1.782   0.409
 2602SOL    HW2 7825   4.264   1.736   0.258
 2603SOL     OW 7826   3.973   1.785   1.241
 2603SOL    HW1 7827   4.030   1.720   1.291
 2603SOL    HW2 7828   3.957   1.752   1.148
 2604SOL     OW 7829   4.106   0.700   0.480
 2604SOL    HW1 7830   4.151   0.610   0.477
 2604SOL    HW2 7831   4.012   0.689   0.513
 2605SOL     OW 7832   4.338   0.122   0.117
 2605SOL    HW1 7833   4.436   0.100   0.124
 2605SOL    HW2 7834   4.307   0.105   0.024
 2606SOL     OW 7835   4.527   1.402   0.924
 2606SOL    HW1 7836   4.617   1.416   0.882
 2606SOL    HW2 7837   4.456   1.404   0.853
 2607SOL     OW 7838   4.646   0.503   0.899
 2607SOL    HW1 7839   4.621   0.494   0.803
 2607SOL    HW2 7840   4.694   0.421   0.930
 2608SOL     OW 7841   4.263   0.064   0.512
 2608SOL    HW1 7842   4.182   0.065   0.570
 2608SOL    HW2 7843   4.266   0.147   0.457
 2609SOL     OW 7844   4.021   0.035   0.171
 2609SOL    HW1 7845   4.070   0.119   0.150
 2609SOL    HW2 7846   4.083  -0.030   0.216
 2610SOL     OW 7847   4.183   1.152   0.741
 2610SOL    HW1 7848   4.112   1.125   0.806
 2610SOL    HW2 7849   4.157   1.124   0.648
 2611SOL     OW 7850   3.802   0.556   1.386
 2611SOL    HW1 7851   3.894   0.555   1.345
 2611SOL    HW2 7852   3.796   0.630   1.453
 2612SOL     OW 7853   4.285   0.222   1.147
 2612SOL    HW1 7854   4.323   0.138   1.184
 2612SOL    HW2 7855   4.197   0.241   1.191
 2613SOL     OW 7856   4.212   1.385   0.174
 2613SOL    HW1 7857   4.125   1.370   0.221
 2613SOL    HW2 7858   4.195   1.411   0.079
 2614SOL     OW 7859   4.251   0.256   0.328
 2614SOL    HW1 7860   4.278   0.197   0.253
 2614SOL    HW2 7861   4.251   0.351   0.297
 2615SOL     OW 7862   4.639   0.089   1.402
 2615SOL    HW1 7863   4.664   0.069   1.307
 2615SOL    HW2 7864   4.711   0.145   1.444
 2616SOL     OW 7865   4.134   0.813   1.251
 2616SOL    HW1 7866   4.220   0.825   1.301
 2616SOL    HW2 7867   4.092   0.726   1.278
 2617SOL     OW 7868   3.788   1.564   1.331
 2617SOL    HW1 7869   3.742   1.646   1.297
 2617SOL    HW2 7870   3.886   1.583   1.340
 2618SOL     OW 7871   4.091   1.100   0.501
 2618SOL    HW1 7872   4.084   1.183   0.445
 2618SOL    HW2 7873   4.095   1.020   0.441
 2619SOL     OW 7874   4.290   0.537   0.865
 2619SOL    HW1 7875   4.302   0.603   0.791
 2619SOL    HW2 7876   4.336   0.571   0.948
 2620SOL     OW 7877   4.078   1.510   1.329
 2620SOL    HW1 7878   4.057   1.466   1.242
 2620SOL    HW2 7879   4.175   1.536   1.332
 2621SOL     OW 7880   4.126   0.751   1.598
 2621SOL    HW1 7881   4.194   0.806   1.551
 2621SOL    HW2 7882   4.166   0.663   1.625
 2622SOL     OW 7883   4.228   0.050   1.740
 2622SOL    HW1 7884   4.186  -0.007   1.670
 2622SOL    HW2 7885   4.162   0.119   1.772
 2623SOL     OW 7886   4.297   0.870   1.029
 2623SOL    HW1 7887   4.341   0.959   1.020
 2623SOL    HW2 7888   4.234   0.870   1.106
 2624SOL     OW 7889   4.031   0.213   1.231
 2624SOL    HW1 7890   4.008   0.250   1.321
 2624SOL    HW2 7891   4.001   0.118   1.225
 2625SOL     OW 7892   3.761   1.310   1.282
 2625SOL    HW1 7893   3.814   1.261   1.350
 2625SOL    HW2 7894   3.783   1.408   1.287
 2626SOL     OW 7895   4.456   0.634   1.064
 2626SOL    HW1 7896   4.515   0.608   0.988
 2626SOL    HW2 7897   4.428   0.730   1.053
 2627SOL     OW 7898   4.031   0.063   0.618
 2627SOL    HW1 7899   4.020   0.157   0.651
 2627SOL    HW2 7900   4.026   0.000   0.695
 2628SOL     OW 7901   4.074   0.898   1.804
 2628SOL    HW1 7902   4.150   0.942   1.852
 2628SOL    HW2 7903   4.109   0.851   1.722
 2629SOL     OW 7904   4.792   1.333   0.849
 2629SOL    HW1 7905   4.799   1.249   0.794
 2629SOL    HW2 7906   4.854   1.402   0.813
 2630SOL     OW 7907   4.043   0.810   0.949
 2630SOL    HW1 7908   4.136   0.846   0.954
 2630SOL    HW2 7909   4.037   0.725   1.001
 2631SOL     OW 7910   4.063   0.509   1.006
 2631SOL    HW1 7911   4.011   0.426   0.989
 2631SOL    HW2 7912   4.140   0.514   0.942
 2632SOL     OW 7913   3.732   1.326   0.200
 2632SOL    HW1 7914   3.639   1.347   0.169
 2632SOL    HW2 7915   3.742   1.227   0.213
 2633SOL     OW 7916   3.812   1.801   0.927
 2633SOL    HW1 7917   3.770   1.715   0.900
 2633SOL    HW2 7918   3.906   1.804   0.893
 2634SOL     OW 7919   4.228   1.568   0.910
 2634SOL    HW1 7920   4.294   1.642   0.919
 2634SOL    HW2 7921   4.272   1.489   0.868
 2635SOL     OW 7922   3.764   0.544   1.114
 2635SOL    HW1 7923   3.849   0.511   1.073
 2635SOL    HW2 7924   3.777   0.559   1.212
 2636SOL     OW 7925   3.913   0.520   1.722
 2636SOL    HW1 7926   3.972   0.480   1.652
 2636SOL    HW2 7927   3.855   0.591   1.681
 2637SOL     OW 7928   4.539   0.572   0.325
 2637SOL    HW1 7929   4.546   0.483   0.279
 2637SOL    HW2 7930   4.445   0.606   0.317
 2638SOL     OW 7931   3.976   1.564   1.744
 2638SOL    HW1 7932   3.946   1.621   1.820
 2638SOL    HW2 7933   3.969   1.467   1.770
 2639SOL     OW 7934   4.395   0.464   1.269
 2639SOL    HW1 7935   4.361   0.375   1.239
 2639SOL    HW2 7936   4.421   0.518   1.189
 2640SOL     OW 7937   4.197   0.500   0.191
 2640SOL    HW1 7938   4.258   0.580   0.195
 2640SOL    HW2 7939   4.102   0.531   0.198
 2641SOL     OW 7940   3.883   1.137   1.466
 2641SOL    HW1 7941   3.905   1.076   1.542
 2641SOL    HW2 7942   3.893   1.088   1.380
 2642SOL     OW 7943   3.807   1.258   1.022
 2642SOL    HW1 7944   3.802   1.257   1.122
 2642SOL    HW2 7945   3.724   1.217   0.984
 2643SOL     OW 7946   4.412   1.662   1.716
 2643SOL    HW1 7947   4.356   1.743   1.725
 2643SOL    HW2 7948   4.464   1.666   1.630
 2644SOL     OW 7949   3.854   1.794   1.851
 2644SOL    HW1 7950   3.813   1.720   1.904
 2644SOL    HW2 7951   3.918   1.845   1.909
 2645SOL     OW 7952   4.396   1.616   0.154
 2645SOL    HW1 7953   4.405   1.626   0.055
 2645SOL    HW2 7954   4.356   1.527   0.175
 2646SOL     OW 7955   3.987   0.326   0.720
 2646SOL    HW1 7956   3.908   0.377   0.686
 2646SOL    HW2 7957   3.978   0.311   0.818
 2647SOL     OW 7958   4.546   1.002   1.372
 2647SOL    HW1 7959   4.586   1.001   1.280
 2647SOL    HW2 7960   4.556   1.094   1.412
 2648SOL     OW 7961   4.096   1.288   1.490
 2648SOL    HW1 7962   4.083   1.381   1.456
 2648SOL    HW2 7963   4.012   1.236   1.477
 2649SOL     OW 7964   4.314   1.487   0.491
 2649SOL    HW1 7965   4.356   1.429   0.421
 2649SOL    HW2 7966   4.270   1.566   0.447
 2650SOL     OW 7967   3.979   1.348   0.290
 2650SOL    HW1 7968   3.883   1.349   0.263
 2650SOL    HW2 7969   3.991   1.401   0.374
 2651SOL     OW 7970   3.829   1.013   1.726
 2651SOL    HW1 7971   3.752   0.980   1.780
 2651SOL    HW2 7972   3.914   0.983   1.768
 2652SOL     OW 7973   4.396   0.203   1.489
 2652SOL    HW1 7974   4.486   0.187   1.449
 2652SOL    HW2 7975   4.404   0.208   1.588
 2653SOL     OW 7976   3.799   0.345   0.033
 2653SOL    HW1 7977   3.707   0.317   0.004
 2653SOL    HW2 7978   3.830   0.422  -0.023
 2654SOL     OW 7979   3.796   0.166   0.318
 2654SOL    HW1 7980   3.779   0.249   0.264
 2654SOL    HW2 7981   3.886   0.129   0.296
 2655SOL     OW 7982   4.337   0.842   1.431
 2655SOL    HW1 7983   4.393   0.923   1.414
 2655SOL    HW2 7984   4.396   0.762   1.434
 2656SOL     OW 7985   4.440   0.565   1.708
 2656SOL    HW1 7986   4.459   0.630   1.782
 2656SOL    HW2 7987   4.500   0.485   1.717
 2657SOL     OW 7988   4.114   1.741   1.560
 2657SOL    HW1 7989   4.023   1.782   1.558
 2657SOL    HW2 7990   4.107   1.647   1.592
 2658SOL     OW 7991   4.318   0.745   0.652
 2658SOL    HW1 7992   4.368   0.830   0.633
 2658SOL    HW2 7993   4.230   0.747   0.604
 2659SOL     OW 7994   4.385   1.790   0.953
 2659SOL    HW1 7995   4.339   1.878   0.940
 2659SOL    HW2 7996   4.484   1.802   0.946
 2660SOL     OW 7997   3.945   1.314   1.844
 2660SOL    HW1 7998   3.880   1.241   1.823
 2660SOL    HW2 7999   3.949   1.328   1.942
 2661SOL     OW 8000   3.803   1.240   0.653
 2661SOL    HW1 8001   3.802   1.193   0.741
 2661SOL    HW2 8002   3.885   1.212   0.602
 2662SOL     OW 8003   4.396   1.391   1.624
 2662SOL    HW1 8004   4.318   1.341   1.662
 2662SOL    HW2 8005   4.393   1.486   1.655
 2663SOL     OW 8006   4.152   0.424   0.520
 2663SOL    HW1 8007   4.182   0.352   0.458
 2663SOL    HW2 8008   4.113   0.384   0.603
 2664SOL     OW 8009   4.041   0.547   1.280
 2664SOL    HW1 8010   4.079   0.488   1.352
 2664SOL    HW2 8011   4.081   0.521   1.192
 2665SOL     OW 8012   4.536   1.586   0.687
 2665SOL    HW1 8013   4.568   1.596   0.593
 2665SOL    HW2 8014   4.457   1.524   0.689
 2666SOL     OW 8015   4.725   0.034   1.154
 2666SOL    HW1 8016   4.662  -0.038   1.123
 2666SOL    HW2 8017   4.818  -0.002   1.154
 2667SOL     OW 8018   4.342   1.567   1.284
 2667SOL    HW1 8019   4.337   1.649   1.341
 2667SOL    HW2 8020   4.431   1.564   1.239
 2668SOL     OW 8021   3.763   1.077   0.300
 2668SOL    HW1 8022   3.862   1.066   0.291
 2668SOL    HW2 8023   3.723   0.991   0.332
 2669SOL     OW 8024   3.954   0.628   1.975
 2669SOL    HW1 8025   3.861   0.626   2.012
 2669SOL    HW2 8026   3.955   0.589   1.883
 2670SOL     OW 8027   3.949   0.275   2.858
 2670SOL    HW1 8028   3.984   0.258   2.950
 2670SOL    HW2 8029   3.861   0.230   2.846
 2671SOL     OW 8030   3.743   0.368   2.509
 2671SOL    HW1 8031   3.661   0.411   2.548
 2671SOL    HW2 8032   3.715   0.295   2.446
 2672SOL     OW 8033   4.293   1.275   3.027
 2672SOL    HW1 8034   4.200   1.268   2.990
 2672SOL    HW2 8035   4.304   1.364   3.071
 2673SOL     OW 8036   4.574   0.798   3.685
 2673SOL    HW1 8037   4.570   0.874   3.750
 2673SOL    HW2 8038   4.596   0.834   3.594
 2674SOL     OW 8039   4.409   1.012   2.527
 2674SOL    HW1 8040   4.478   0.996   2.597
 2674SOL    HW2 8041   4.336   1.069   2.565
 2675SOL     OW 8042   4.410   1.161   3.665
 2675SOL    HW1 8043   4.470   1.240   3.679
 2675SOL    HW2 8044   4.324   1.192   3.624
 2676SOL     OW 8045   4.059   1.435   2.923
 2676SOL    HW1 8046   3.981   1.404   2.870
 2676SOL    HW2 8047   4.117   1.493   2.866
 2677SOL     OW 8048   4.162   0.392   3.361
 2677SOL    HW1 8049   4.244   0.336   3.370
 2677SOL    HW2 8050   4.081   0.334   3.365
 2678SOL     OW 8051   3.955   1.713   2.345
 2678SOL    HW1 8052   3.989   1.790   2.399
 2678SOL    HW2 8053   3.999   1.713   2.255
 2679SOL     OW 8054   3.954   1.434   2.400
 2679SOL    HW1 8055   3.928   1.530   2.400
 2679SOL    HW2 8056   3.883   1.380   2.445
 2680SOL     OW 8057   3.964   1.091   2.748
 2680SOL    HW1 8058   3.978   1.007   2.800
 2680SOL    HW2 8059   3.909   1.155   2.803
 2681SOL     OW 8060   4.344   1.786   3.301
 2681SOL    HW1 8061   4.252   1.769   3.336
 2681SOL    HW2 8062   4.372   1.878   3.327
 2682SOL     OW 8063   4.330   0.964   1.985
 2682SOL    HW1 8064   4.337   1.048   1.931
 2682SOL    HW2 8065   4.376   0.977   2.073
 2683SOL     OW 8066   3.846   0.643   2.425
 2683SOL    HW1 8067   3.801   0.555   2.442
 2683SOL    HW2 8068   3.845   0.697   2.509
 2684SOL     OW 8069   3.751   1.596   1.979
 2684SOL    HW1 8070   3.732   1.500   2.000
 2684SOL    HW2 8071   3.718   1.654   2.054
 2685SOL     OW 8072   3.837   0.737   3.459
 2685SOL    HW1 8073   3.925   0.724   3.504
 2685SOL    HW2 8074   3.824   0.834   3.437
 2686SOL     OW 8075   4.337   1.365   2.588
 2686SOL    HW1 8076   4.288   1.278   2.597
 2686SOL    HW2 8077   4.314   1.408   2.501
 2687SOL     OW 8078   4.533   0.004   2.364
 2687SOL    HW1 8079   4.573   0.095   2.355
 2687SOL    HW2 8080   4.433   0.012   2.370
 2688SOL     OW 8081   3.921   0.976   3.126
 2688SOL    HW1 8082   4.010   0.931   3.112
 2688SOL    HW2 8083   3.848   0.911   3.107
 2689SOL     OW 8084   4.041   0.251   3.663
 2689SOL    HW1 8085   4.112   0.322   3.669
 2689SOL    HW2 8086   3.953   0.290   3.691
 2690SOL     OW 8087   4.322   0.729   2.132
 2690SOL    HW1 8088   4.346   0.798   2.064
 2690SOL    HW2 8089   4.244   0.762   2.186
 2691SOL     OW 8090   3.800   0.811   2.651
 2691SOL    HW1 8091   3.899   0.799   2.660
 2691SOL    HW2 8092   3.776   0.906   2.672
 2692SOL     OW 8093   3.854   1.821   3.433
 2692SOL    HW1 8094   3.844   1.806   3.532
 2692SOL    HW2 8095   3.768   1.857   3.397
 2693SOL     OW 8096   4.274   0.196   2.747
 2693SOL    HW1 8097   4.269   0.191   2.847
 2693SOL    HW2 8098   4.276   0.292   2.718
 2694SOL     OW 8099   4.075   1.801   2.715
 2694SOL    HW1 8100   4.125   1.715   2.721
 2694SOL    HW2 8101   4.140   1.878   2.712
 2695SOL     OW 8102   4.045   0.943   2.104
 2695SOL    HW1 8103   4.127   0.982   2.062
 2695SOL    HW2 8104   4.018   0.861   2.055
 2696SOL     OW 8105   4.185   1.266   3.589
 2696SOL    HW1 8106   4.135   1.267   3.503
 2696SOL    HW2 8107   4.122   1.248   3.665
 2697SOL     OW 8108   3.926   0.285   3.360
 2697SOL    HW1 8109   3.846   0.345   3.347
 2697SOL    HW2 8110   3.916   0.236   3.446
 2698SOL     OW 8111   4.188   1.743   2.185
 2698SOL    HW1 8112   4.221   1.782   2.271
 2698SOL    HW2 8113   4.264   1.736   2.120
 2699SOL     OW 8114   3.973   1.785   3.103
 2699SOL    HW1 8115   4.030   1.720   3.153
 2699SOL    HW2 8116   3.957   1.752   3.010
 2700SOL     OW 8117   4.106   0.700   2.342
 2700SOL    HW1 8118   4.151   0.610   2.339
 2700SOL    HW2 8119   4.012   0.689   2.375
 2701SOL     OW 8120   4.338   0.122   1.979
 2701SOL    HW1 8121   4.436   0.100   1.986
 2701SOL    HW2 8122   4.307   0.105   1.886
 2702SOL     OW 8123   4.527   1.402   2.786
 2702SOL    HW1 8124   4.617   1.416   2.744
 2702SOL    HW2 8125   4.456   1.404   2.715
 2703SOL     OW 8126   4.646   0.503   2.761
 2703SOL    HW1 8127   4.621   0.494   2.665
 2703SOL    HW2 8128   4.694   0.421   2.792
 2704SOL     OW 8129   4.263   0.064   2.374
 2704SOL    HW1 8130   4.182   0.065   2.432
 2704SOL    HW2 8131   4.266   0.147   2.319
 2705SOL     OW 8132   4.021   0.035   2.033
 2705SOL    HW1 8133   4.070   0.119   2.012
 2705SOL    HW2 8134   4.083  -0.030   2.078
 2706SOL     OW 8135   4.183   1.152   2.603
 2706SOL    HW1 8136   4.112   1.125   2.668
 2706SOL    HW2 8137   4.157   1.124   2.510
 2707SOL     OW 8138   3.802   0.556   3.248
 2707SOL    HW1 8139   3.894   0.555   3.207
 2707SOL    HW2 8140   3.796   0.630   3.315
 2708SOL     OW 8141   4.285   0.222   3.009
 2708SOL    HW1 8142   4.323   0.138   3.046
 2708SOL    HW2 8143   4.197   0.241   3.053
 2709SOL     OW 8144   4.212   1.385   2.036
 2709SOL    HW1 8145   4.125   1.370   2.083
 2709SOL    HW2 8146   4.195   1.411   1.941
 2710SOL     OW 8147   4.251   0.256   2.190
 2710SOL    HW1 8148   4.278   0.197   2.115
 2710SOL    HW2 8149   4.251   0.351   2.159
 2711SOL     OW 8150   4.639   0.089   3.264
 2711SOL    HW1 8151   4.664   0.069   3.169
 2711SOL    HW2 8152   4.711   0.145   3.306
 2712SOL     OW 8153   4.134   0.813   3.113
 2712SOL    HW1 8154   4.220   0.825   3.163
 2712SOL    HW2 8155   4.092   0.726   3.140
 2713SOL     OW 8156   3.788   1.564   3.193
 2713SOL    HW1 8157   3.742   1.646   3.159
 2713SOL    HW2 8158   3.886   1.583   3.202
 2714SOL     OW 8159   4.091   1.100   2.363
 2714SOL    HW1 8160   4.084   1.183   2.307
 2714SOL    HW2 8161   4.095   1.020   2.303
 2715SOL     OW 8162   4.290   0.537   2.727
 2715SOL    HW1 8163   4.302   0.603   2.653
 2715SOL    HW2 8164   4.336   0.571   2.810
 2716SOL     OW 8165   4.078   1.510   3.191
 2716SOL    HW1 8166   4.057   1.466   3.104
 2716SOL    HW2 8167   4.175   1.536   3.194
 2717SOL     OW 8168   4.126   0.751   3.460
 2717SOL    HW1 8169   4.194   0.806   3.413
 2717SOL    HW2 8170   4.166   0.663   3.487
 2718SOL     OW 8171   4.228   0.050   3.602
 2718SOL    HW1 8172   4.186  -0.007   3.532
 2718SOL    HW2 8173   4.162   0.119   3.634
 2719SOL     OW 8174   4.297   0.870   2.891
 2719SOL    HW1 8175   4.341   0.959   2.882
 2719SOL    HW2 8176   4.234   0.870   2.968
 2720SOL     OW 8177   4.031   0.213   3.093
 2720SOL    HW1 8178   4.008   0.250   3.183
 2720SOL    HW2 8179   4.001   0.118   3.087
 2721SOL     OW 8180   3.761   1.310   3.144
 2721SOL    HW1 8181   3.814   1.261   3.212
 2721SOL    HW2 8182   3.783   1.408   3.149
 2722SOL     OW 8183   4.456   0.634   2.926
 2722SOL    HW1 8184   4.515   0.608   2.850
 2722SOL    HW2 8185   4.428   0.730   2.915
 2723SOL     OW 8186   4.031   0.063   2.480
 2723SOL    HW1 8187   4.020   0.157   2.513
 2723SOL    HW2 8188   4.026   0.000   2.557
 2724SOL     OW 8189   4.074   0.898   3.666
 2724SOL    HW1 8190   4.150   0.942   3.714
 2724SOL    HW2 8191   4.109   0.851   3.584
 2725SOL     OW 8192   4.792   1.333   2.711
 2725SOL    HW1 8193   4.799   1.249   2.656
 2725SOL    HW2 8194   4.854   1.402   2.675
 2726SOL     OW 8195   4.043   0.810   2.811
 2726SOL    HW1 8196   4.136   0.846   2.816
 2726SOL    HW2 8197   4.037   0.725   2.863
 2727SOL     OW 8198   4.063   0.509   2.868
 2727SOL    HW1 8199   4.011   0.426   2.851
 2727SOL    HW2 8200   4.140   0.514   2.804
 2728SOL     OW 8201   3.732   1.326   2.062
 2728SOL    HW1 8202   3.639   1.347   2.031
 2728SOL    HW2 8203   3.742   1.227   2.075
 2729SOL     OW 8204   3.812   1.801   2.789
 2729SOL    HW1 8205   3.770   1.715   2.762
 2729SOL    HW2 8206   3.906   1.804   2.755
 2730SOL     OW 8207   4.228   1.568   2.772
 2730SOL    HW1 8208   4.294   1.642   2.781
 2730SOL    HW2 8209   4.272   1.489   2.730
 2731SOL     OW 8210   3.764   0.544   2.976
 2731SOL    HW1 8211   3.849   0.511   2.935
 2731SOL    HW2 8212   3.777   0.559   3.074
 2732SOL     OW 8213   3.913   0.520   3.584
 2732SOL    HW1 8214   3.972   0.480   3.514
 2732SOL    HW2 8215   3.855   0.591   3.543
 2733SOL     OW 8216   4.539   0.572   2.187
 2733SOL    HW1 8217   4.546   0.483   2.141
 2733SOL    HW2 8218   4.445   0.606   2.179
 2734SOL     OW 8219   3.976   1.564   3.606
 2734SOL    HW1 8220   3.946   1.621   3.682
 2734SOL    HW2 8221   3.969   1.467   3.632
 2735SOL     OW 8222   4.395   0.464   3.131
 2735SOL    HW1 8223   4.361   0.375   3.101
 2735SOL    HW2 8224   4.421   0.518   3.051
 2736SOL     OW 8225   4.197   0.500   2.053
 2736SOL    HW1 8226   4.258   0.580   2.057
 2736SOL    HW2 8227   4.102   0.531   2.060
 2737SOL     OW 8228   3.883   1.137   3.328
 2737SOL    HW1 8229   3.905   1.076   3.404
 2737SOL    HW2 8230   3.893   1.088   3.242
 2738SOL     OW 8231   3.807   1.258   2.884
 2738SOL    HW1 8232   3.802   1.257   2.984
 2738SOL    HW2 8233   3.724   1.217   2.846
 2739SOL     OW 8234   4.412   1.662   3.578
 2739SOL    HW1 8235   4.356   1.743   3.587
 2739SOL    HW2 8236   4.464   1.666   3.492
 2740SOL     OW 8237   4.627   0.086   1.995
 2740SOL    HW1 8238   4.678   0.087   1.909
 2740SOL    HW2 8239   4.683   0.044   2.066
 2741SOL     OW 8240   3.854   1.794   3.713
 2741SOL    HW1 8241   3.813   1.720   3.766
 2741SOL    HW2 8242   3.918   1.845   3.771
 2742SOL     OW 8243   4.396   1.616   2.016
 2742SOL    HW1 8244   4.405   1.626   1.917
 2742SOL    HW2 8245   4.356   1.527   2.037
 2743SOL     OW 8246   3.987   0.326   2.582
 2743SOL    HW1 8247   3.908   0.377   2.548
 2743SOL    HW2 8248   3.978   0.311   2.680
 2744SOL     OW 8249   4.546   1.002   3.234
 2744SOL    HW1 8250   4.586   1.001   3.142
 2744SOL    HW2 8251   4.556   1.094   3.274
 2745SOL     OW 8252   4.096   1.288   3.352
 2745SOL    HW1 8253   4.083   1.381   3.318
 2745SOL    HW2 8254   4.012   1.236   3.339
 2746SOL     OW 8255   4.314   1.487   2.353
 2746SOL    HW1 8256   4.356   1.429   2.283
 2746SOL    HW2 8257   4.270   1.566   2.309
 2747SOL     OW 8258   3.979   1.348   2.152
 2747SOL    HW1 8259   3.883   1.349   2.125
 2747SOL    HW2 8260   3.991   1.401   2.236
 2748SOL     OW 8261   3.829   1.013   3.588
 2748SOL    HW1 8262   3.752   0.980   3.642
 2748SOL    HW2 8263   3.914   0.983   3.630
 2749SOL     OW 8264   4.396   0.203   3.351
 2749SOL    HW1 8265   4.486   0.187   3.311
 2749SOL    HW2 8266   4.404   0.208   3.450
 2750SOL     OW 8267   3.799   0.345   1.895
 2750SOL    HW1 8268   3.707   0.317   1.866
 2750SOL    HW2 8269   3.830   0.422   1.839
 2751SOL     OW 8270   3.796   0.166   2.180
 2751SOL    HW1 8271   3.779   0.249   2.126
 2751SOL    HW2 8272   3.886   0.129   2.158
 2752SOL     OW 8273   4.337   0.842   3.293
 2752SOL    HW1 8274   4.393   0.923   3.276
 2752SOL    HW2 8275   4.396   0.762   3.296
 2753SOL     OW 8276   4.440   0.565   3.570
 2753SOL    HW1 8277   4.459   0.630   3.644
 2753SOL    HW2 8278   4.500   0.485   3.579
 2754SOL     OW 8279   4.114   1.741   3.422
 2754SOL    HW1 8280   4.023   1.782   3.420
 2754SOL    HW2 8281   4.107   1.647   3.454
 2755SOL     OW 8282   4.318   0.745   2.514
 2755SOL    HW1 8283   4.368   0.830   2.495
 2755SOL    HW2 8284   4.230   0.747   2.466
 2756SOL     OW 8285   4.385   1.790   2.815
 2756SOL    HW1 8286   4.339   1.878   2.802
 2756SOL    HW2 8287   4.484   1.802   2.808
 2757SOL     OW 8288   3.945   1.314   3.706
 2757SOL    HW1 8289   3.880   1.241   3.685
 2757SOL    HW2 8290   3.949   1.328   3.804
 2758SOL     OW 8291   3.803   1.240   2.515
 2758SOL    HW1 8292   3.802   1.193   2.603
 2758SOL    HW2 8293   3.885   1.212   2.464
 2759SOL     OW 8294   4.396   1.391   3.486
 2759SOL    HW1 8295   4.318   1.341   3.524
 2759SOL    HW2 8296   4.393   1.486   3.517
 2760SOL     OW 8297   4.152   0.424   2.382
 2760SOL    HW1 8298   4.182   0.352   2.320
 2760SOL    HW2 8299   4.113   0.384   2.465
 2761SOL     OW 8300   4.041   0.547   3.142
 2761SOL    HW1 8301   4.079   0.488   3.214
 2761SOL    HW2 8302   4.081   0.521   3.054
 2762SOL     OW 8303   4.536   1.586   2.549
 2762SOL    HW1 8304   4.568   1.596   2.455
 2762SOL    HW2 8305   4.457   1.524   2.551
 2763SOL     OW 8306   4.725   0.034   3.016
 2763SOL    HW1 8307   4.662  -0.038   2.985
 2763SOL    HW2 8308   4.818  -0.002   3.016
 2764SOL     OW 8309   4.342   1.567   3.146
 2764SOL    HW1 8310   4.337   1.649   3.203
 2764SOL    HW2 8311   4.431   1.564   3.101
 2765SOL     OW 8312   3.763   1.077   2.162
 2765SOL    HW1 8313   3.862   1.066   2.153
 2765SOL    HW2 8314   3.723   0.991   2.194
 2766SOL     OW 8315   3.954   0.628   3.837
 2766SOL    HW1 8316   3.861   0.626   3.874
 2766SOL    HW2 8317   3.955   0.589   3.745
 2767SOL     OW 8318   3.743   0.368   4.371
 2767SOL    HW1 8319   3.661   0.411   4.410
 2767SOL    HW2 8320   3.715   0.295   4.308
 2768SOL     OW 8321   4.409   1.012   4.389
 2768SOL    HW1 8322   4.478   0.996   4.459
 2768SOL    HW2 8323   4.336   1.069   4.427
 2769SOL     OW 8324   3.955   1.713   4.207
 2769SOL    HW1 8325   3.989   1.790   4.261
 2769SOL    HW2 8326   3.999   1.713   4.117
 2770SOL     OW 8327   3.954   1.434   4.262
 2770SOL    HW1 8328   3.928   1.530   4.262
 2770SOL    HW2 8329   3.883   1.380   4.307
 2771SOL     OW 8330   3.964   1.091   4.610
 2771SOL    HW1 8331   3.978   1.007   4.662
 2771SOL    HW2 8332   3.909   1.155   4.665
 2772SOL     OW 8333   4.330   0.964   3.847
 2772SOL    HW1 8334   4.337   1.048   3.793
 2772SOL    HW2 8335   4.376   0.977   3.935
 2773SOL     OW 8336   3.846   0.643   4.287
 2773SOL    HW1 8337   3.801   0.555   4.304
 2773SOL    HW2 8338   3.845   0.697   4.371
 2774SOL     OW 8339   3.751   1.596   3.841
 2774SOL    HW1 8340   3.732   1.500   3.862
 2774SOL    HW2 8341   3.718   1.654   3.916
 2775SOL     OW 8342   4.337   1.365   4.450
 2775SOL    HW1 8343   4.288   1.278   4.459
 2775SOL    HW2 8344   4.314   1.408   4.363
 2776SOL     OW 8345   4.533   0.004   4.226
 2776SOL    HW1 8346   4.573   0.095   4.217
 2776SOL    HW2 8347   4.433   0.012   4.232
 2777SOL     OW 8348   4.322   0.729   3.994
 2777SOL    HW1 8349   4.346   0.798   3.926
 2777SOL    HW2 8350   4.244   0.762   4.048
 2778SOL     OW 8351   3.800   0.811   4.513
 2778SOL    HW1 8352   3.899   0.799   4.522
 2778SOL    HW2 8353   3.776   0.906   4.534
 2779SOL     OW 8354   4.075   1.801   4.577
 2779SOL    HW1 8355   4.125   1.715   4.583
 2779SOL    HW2 8356   4.140   1.878   4.574
 2780SOL     OW 8357   4.045   0.943   3.966
 2780SOL    HW1 8358   4.127   0.982   3.924
 2780SOL    HW2 8359   4.018   0.861   3.917
 2781SOL     OW 8360   4.188   1.743   4.047
 2781SOL    HW1 8361   4.221   1.782   4.133
 2781SOL    HW2 8362   4.264   1.736   3.982
 2782SOL     OW 8363   4.106   0.700   4.204
 2782SOL    HW1 8364   4.151   0.610   4.201
 2782SOL    HW2 8365   4.012   0.689   4.237
 2783SOL     OW 8366   4.338   0.122   3.841
 2783SOL    HW1 8367   4.436   0.100   3.848
 2783SOL    HW2 8368   4.307   0.105   3.748
 2784SOL     OW 8369   4.263   0.064   4.236
 2784SOL    HW1 8370   4.182   0.065   4.294
 2784SOL    HW2 8371   4.266   0.147   4.181
 2785SOL     OW 8372   4.021   0.035   3.895
 2785SOL    HW1 8373   4.070   0.119   3.874
 2785SOL    HW2 8374   4.083  -0.030   3.940
 2786SOL     OW 8375   4.183   1.152   4.465
 2786SOL    HW1 8376   4.112   1.125   4.530
 2786SOL    HW2 8377   4.157   1.124   4.372
 2787SOL     OW 8378   4.212   1.385   3.898
 2787SOL    HW1 8379   4.125   1.370   3.945
 2787SOL    HW2 8380   4.195   1.411   3.803
 2788SOL     OW 8381   4.251   0.256   4.052
 2788SOL    HW1 8382   4.278   0.197   3.977
 2788SOL    HW2 8383   4.251   0.351   4.021
 2789SOL     OW 8384   4.091   1.100   4.225
 2789SOL    HW1 8385   4.084   1.183   4.169
 2789SOL    HW2 8386   4.095   1.020   4.165
 2790SOL     OW 8387   4.290   0.537   4.589
 2790SOL    HW1 8388   4.302   0.603   4.515
 2790SOL    HW2 8389   4.336   0.571   4.672
 2791SOL     OW 8390   4.031   0.063   4.342
 2791SOL    HW1 8391   4.020   0.157   4.375
 2791SOL    HW2 8392   4.026   0.000   4.419
 2792SOL     OW 8393   4.792   1.333   4.573
 2792SOL    HW1 8394   4.799   1.249   4.518
 2792SOL    HW2 8395   4.854   1.402   4.537
 2793SOL     OW 8396   3.732   1.326   3.924
 2793SOL    HW1 8397   3.639   1.347   3.893
 2793SOL    HW2 8398   3.742   1.227   3.937
 2794SOL     OW 8399   4.539   0.572   4.049
 2794SOL    HW1 8400   4.546   0.483   4.003
 2794SOL    HW2 8401   4.445   0.606   4.041
 2795SOL     OW 8402   4.197   0.500   3.915
 2795SOL    HW1 8403   4.258   0.580   3.919
 2795SOL    HW2 8404   4.102   0.531   3.922
 2796SOL     OW 8405   4.627   0.086   3.857
 2796SOL    HW1 8406   4.678   0.087   3.771
 2796SOL    HW2 8407   4.683   0.044   3.928
 2797SOL     OW 8408   4.396   1.616   3.878
 2797SOL    HW1 8409   4.405   1.626   3.779
 2797SOL    HW2 8410   4.356   1.527   3.899
 2798SOL     OW 8411   3.987   0.326   4.444
 2798SOL    HW1 8412   3.908   0.377   4.410
 2798SOL    HW2 8413   3.978   0.311   4.542
 2799SOL     OW 8414   4.314   1.487   4.215
 2799SOL    HW1 8415   4.356   1.429   4.145
 2799SOL    HW2 8416   4.270   1.566   4.171
 2800SOL     OW 8417   3.979   1.348   4.014
 2800SOL    HW1 8418   3.883   1.349   3.987
 2800SOL    HW2 8419   3.991   1.401   4.098
 2801SOL     OW 8420   3.799   0.345   3.757
 2801SOL    HW1 8421   3.707   0.317   3.728
 2801SOL    HW2 8422   3.830   0.422   3.701
 2802SOL     OW 8423   3.796   0.166   4.042
 2802SOL    HW1 8424   3.779   0.249   3.988
 2802SOL    HW2 8425   3.886   0.129   4.020
 2803SOL     OW 8426   4.318   0.745   4.376
 2803SOL    HW1 8427   4.368   0.830   4.357
 2803SOL    HW2 8428   4.230   0.747   4.328
 2804SOL     OW 8429   4.385   1.790   4.677
 2804SOL    HW1 8430   4.339   1.878   4.664
 2804SOL    HW2 8431   4.484   1.802   4.670
 2805SOL     OW 8432   3.803   1.240   4.377
 2805SOL    HW1 8433   3.802   1.193   4.465
 2805SOL    HW2 8434   3.885   1.212   4.326
 2806SOL     OW 8435   4.152   0.424   4.244
 2806SOL    HW1 8436   4.182   0.352   4.182
 2806SOL    HW2 8437   4.113   0.384   4.327
 2807SOL     OW 8438   4.536   1.586   4.411
 2807SOL    HW1 8439   4.568   1.596   4.317
 2807SOL    HW2 8440   4.457   1.524   4.413
 2808SOL     OW 8441   3.763   1.077   4.024
 2808SOL    HW1 8442   3.862   1.066   4.015
 2808SOL    HW2 8443   3.723   0.991   4.056
 2809SOL     OW 8444   3.954   2.490   0.113
 2809SOL    HW1 8445   3.861   2.488   0.150
 2809SOL    HW2 8446   3.955   2.451   0.021
 2810SOL     OW 8447   3.949   2.137   0.996
 2810SOL    HW1 8448   3.984   2.120   1.088
 2810SOL    HW2 8449   3.861   2.092   0.984
 2811SOL     OW 8450   3.743   2.230   0.647
 2811SOL    HW1 8451   3.661   2.273   0.686
 2811SOL    HW2 8452   3.715   2.157   0.584
 2812SOL     OW 8453   4.293   3.137   1.165
 2812SOL    HW1 8454   4.200   3.130   1.128
 2812SOL    HW2 8455   4.304   3.226   1.209
 2813SOL     OW 8456   4.574   2.660   1.823
 2813SOL    HW1 8457   4.570   2.736   1.888
 2813SOL    HW2 8458   4.596   2.696   1.732
 2814SOL     OW 8459   4.409   2.874   0.665
 2814SOL    HW1 8460   4.478   2.858   0.735
 2814SOL    HW2 8461   4.336   2.931   0.703
 2815SOL     OW 8462   4.410   3.023   1.803
 2815SOL    HW1 8463   4.470   3.102   1.817
 2815SOL    HW2 8464   4.324   3.054   1.762
 2816SOL     OW 8465   4.059   3.297   1.061
 2816SOL    HW1 8466   3.981   3.266   1.008
 2816SOL    HW2 8467   4.117   3.355   1.004
 2817SOL     OW 8468   4.162   2.254   1.499
 2817SOL    HW1 8469   4.244   2.198   1.508
 2817SOL    HW2 8470   4.081   2.196   1.503
 2818SOL     OW 8471   3.955   3.575   0.483
 2818SOL    HW1 8472   3.989   3.652   0.537
 2818SOL    HW2 8473   3.999   3.575   0.393
 2819SOL     OW 8474   3.954   3.296   0.538
 2819SOL    HW1 8475   3.928   3.392   0.538
 2819SOL    HW2 8476   3.883   3.242   0.583
 2820SOL     OW 8477   3.964   2.953   0.886
 2820SOL    HW1 8478   3.978   2.869   0.938
 2820SOL    HW2 8479   3.909   3.017   0.941
 2821SOL     OW 8480   4.344   3.648   1.439
 2821SOL    HW1 8481   4.252   3.631   1.474
 2821SOL    HW2 8482   4.372   3.740   1.465
 2822SOL     OW 8483   4.330   2.826   0.123
 2822SOL    HW1 8484   4.337   2.910   0.069
 2822SOL    HW2 8485   4.376   2.839   0.211
 2823SOL     OW 8486   3.846   2.505   0.563
 2823SOL    HW1 8487   3.801   2.417   0.580
 2823SOL    HW2 8488   3.845   2.559   0.647
 2824SOL     OW 8489   3.751   3.458   0.117
 2824SOL    HW1 8490   3.732   3.362   0.138
 2824SOL    HW2 8491   3.718   3.516   0.192
 2825SOL     OW 8492   3.837   2.599   1.597
 2825SOL    HW1 8493   3.925   2.586   1.642
 2825SOL    HW2 8494   3.824   2.696   1.575
 2826SOL     OW 8495   4.337   3.227   0.726
 2826SOL    HW1 8496   4.288   3.140   0.735
 2826SOL    HW2 8497   4.314   3.270   0.639
 2827SOL     OW 8498   4.533   1.866   0.502
 2827SOL    HW1 8499   4.573   1.957   0.493
 2827SOL    HW2 8500   4.433   1.874   0.508
 2828SOL     OW 8501   3.921   2.838   1.264
 2828SOL    HW1 8502   4.010   2.793   1.250
 2828SOL    HW2 8503   3.848   2.773   1.245
 2829SOL     OW 8504   4.041   2.113   1.801
 2829SOL    HW1 8505   4.112   2.184   1.807
 2829SOL    HW2 8506   3.953   2.152   1.829
 2830SOL     OW 8507   4.322   2.591   0.270
 2830SOL    HW1 8508   4.346   2.660   0.202
 2830SOL    HW2 8509   4.244   2.624   0.324
 2831SOL     OW 8510   3.800   2.673   0.789
 2831SOL    HW1 8511   3.899   2.661   0.798
 2831SOL    HW2 8512   3.776   2.768   0.810
 2832SOL     OW 8513   3.854   3.683   1.571
 2832SOL    HW1 8514   3.844   3.668   1.670
 2832SOL    HW2 8515   3.768   3.719   1.535
 2833SOL     OW 8516   4.274   2.058   0.885
 2833SOL    HW1 8517   4.269   2.053   0.985
 2833SOL    HW2 8518   4.276   2.154   0.856
 2834SOL     OW 8519   4.075   3.663   0.853
 2834SOL    HW1 8520   4.125   3.577   0.859
 2834SOL    HW2 8521   4.140   3.740   0.850
 2835SOL     OW 8522   4.045   2.805   0.242
 2835SOL    HW1 8523   4.127   2.844   0.200
 2835SOL    HW2 8524   4.018   2.723   0.193
 2836SOL     OW 8525   4.185   3.128   1.727
 2836SOL    HW1 8526   4.135   3.129   1.641
 2836SOL    HW2 8527   4.122   3.110   1.803
 2837SOL     OW 8528   3.926   2.147   1.498
 2837SOL    HW1 8529   3.846   2.207   1.485
 2837SOL    HW2 8530   3.916   2.098   1.584
 2838SOL     OW 8531   4.188   3.605   0.323
 2838SOL    HW1 8532   4.221   3.644   0.409
 2838SOL    HW2 8533   4.264   3.598   0.258
 2839SOL     OW 8534   3.973   3.647   1.241
 2839SOL    HW1 8535   4.030   3.582   1.291
 2839SOL    HW2 8536   3.957   3.614   1.148
 2840SOL     OW 8537   4.106   2.562   0.480
 2840SOL    HW1 8538   4.151   2.472   0.477
 2840SOL    HW2 8539   4.012   2.551   0.513
 2841SOL     OW 8540   4.527   3.264   0.924
 2841SOL    HW1 8541   4.617   3.278   0.882
 2841SOL    HW2 8542   4.456   3.266   0.853
 2842SOL     OW 8543   4.646   2.365   0.899
 2842SOL    HW1 8544   4.621   2.356   0.803
 2842SOL    HW2 8545   4.694   2.283   0.930
 2843SOL     OW 8546   4.263   1.926   0.512
 2843SOL    HW1 8547   4.182   1.927   0.570
 2843SOL    HW2 8548   4.266   2.009   0.457
 2844SOL     OW 8549   4.021   1.897   0.171
 2844SOL    HW1 8550   4.070   1.981   0.150
 2844SOL    HW2 8551   4.083   1.832   0.216
 2845SOL     OW 8552   4.183   3.014   0.741
 2845SOL    HW1 8553   4.112   2.987   0.806
 2845SOL    HW2 8554   4.157   2.986   0.648
 2846SOL     OW 8555   3.802   2.418   1.386
 2846SOL    HW1 8556   3.894   2.417   1.345
 2846SOL    HW2 8557   3.796   2.492   1.453
 2847SOL     OW 8558   4.285   2.084   1.147
 2847SOL    HW1 8559   4.323   2.000   1.184
 2847SOL    HW2 8560   4.197   2.103   1.191
 2848SOL     OW 8561   4.212   3.247   0.174
 2848SOL    HW1 8562   4.125   3.232   0.221
 2848SOL    HW2 8563   4.195   3.273   0.079
 2849SOL     OW 8564   4.251   2.118   0.328
 2849SOL    HW1 8565   4.278   2.059   0.253
 2849SOL    HW2 8566   4.251   2.213   0.297
 2850SOL     OW 8567   4.639   1.951   1.402
 2850SOL    HW1 8568   4.664   1.931   1.307
 2850SOL    HW2 8569   4.711   2.007   1.444
 2851SOL     OW 8570   4.134   2.675   1.251
 2851SOL    HW1 8571   4.220   2.687   1.301
 2851SOL    HW2 8572   4.092   2.588   1.278
 2852SOL     OW 8573   3.788   3.426   1.331
 2852SOL    HW1 8574   3.742   3.508   1.297
 2852SOL    HW2 8575   3.886   3.445   1.340
 2853SOL     OW 8576   4.091   2.962   0.501
 2853SOL    HW1 8577   4.084   3.045   0.445
 2853SOL    HW2 8578   4.095   2.882   0.441
 2854SOL     OW 8579   4.290   2.399   0.865
 2854SOL    HW1 8580   4.302   2.465   0.791
 2854SOL    HW2 8581   4.336   2.433   0.948
 2855SOL     OW 8582   4.078   3.372   1.329
 2855SOL    HW1 8583   4.057   3.328   1.242
 2855SOL    HW2 8584   4.175   3.398   1.332
 2856SOL     OW 8585   4.126   2.613   1.598
 2856SOL    HW1 8586   4.194   2.668   1.551
 2856SOL    HW2 8587   4.166   2.525   1.625
 2857SOL     OW 8588   4.228   1.912   1.740
 2857SOL    HW1 8589   4.186   1.855   1.670
 2857SOL    HW2 8590   4.162   1.981   1.772
 2858SOL     OW 8591   4.297   2.732   1.029
 2858SOL    HW1 8592   4.341   2.821   1.020
 2858SOL    HW2 8593   4.234   2.732   1.106
 2859SOL     OW 8594   4.031   2.075   1.231
 2859SOL    HW1 8595   4.008   2.112   1.321
 2859SOL    HW2 8596   4.001   1.980   1.225
 2860SOL     OW 8597   3.761   3.172   1.282
 2860SOL    HW1 8598   3.814   3.123   1.350
 2860SOL    HW2 8599   3.783   3.270   1.287
 2861SOL     OW 8600   4.456   2.496   1.064
 2861SOL    HW1 8601   4.515   2.470   0.988
 2861SOL    HW2 8602   4.428   2.592   1.053
 2862SOL     OW 8603   4.031   1.925   0.618
 2862SOL    HW1 8604   4.020   2.019   0.651
 2862SOL    HW2 8605   4.026   1.862   0.695
 2863SOL     OW 8606   4.074   2.760   1.804
 2863SOL    HW1 8607   4.150   2.804   1.852
 2863SOL    HW2 8608   4.109   2.713   1.722
 2864SOL     OW 8609   4.792   3.195   0.849
 2864SOL    HW1 8610   4.799   3.111   0.794
 2864SOL    HW2 8611   4.854   3.264   0.813
 2865SOL     OW 8612   4.043   2.672   0.949
 2865SOL    HW1 8613   4.136   2.708   0.954
 2865SOL    HW2 8614   4.037   2.587   1.001
 2866SOL     OW 8615   4.063   2.371   1.006
 2866SOL    HW1 8616   4.011   2.288   0.989
 2866SOL    HW2 8617   4.140   2.376   0.942
 2867SOL     OW 8618   3.732   3.188   0.200
 2867SOL    HW1 8619   3.639   3.209   0.169
 2867SOL    HW2 8620   3.742   3.089   0.213
 2868SOL     OW 8621   3.812   3.663   0.927
 2868SOL    HW1 8622   3.770   3.577   0.900
 2868SOL    HW2 8623   3.906   3.666   0.893
 2869SOL     OW 8624   4.228   3.430   0.910
 2869SOL    HW1 8625   4.294   3.504   0.919
 2869SOL    HW2 8626   4.272   3.351   0.868
 2870SOL     OW 8627   3.764   2.406   1.114
 2870SOL    HW1 8628   3.849   2.373   1.073
 2870SOL    HW2 8629   3.777   2.421   1.212
 2871SOL     OW 8630   3.913   2.382   1.722
 2871SOL    HW1 8631   3.972   2.342   1.652
 2871SOL    HW2 8632   3.855   2.453   1.681
 2872SOL     OW 8633   4.539   2.434   0.325
 2872SOL    HW1 8634   4.546   2.345   0.279
 2872SOL    HW2 8635   4.445   2.468   0.317
 2873SOL     OW 8636   3.976   3.426   1.744
 2873SOL    HW1 8637   3.946   3.483   1.820
 2873SOL    HW2 8638   3.969   3.329   1.770
 2874SOL     OW 8639   4.395   2.326   1.269
 2874SOL    HW1 8640   4.361   2.237   1.239
 2874SOL    HW2 8641   4.421   2.380   1.189
 2875SOL     OW 8642   4.197   2.362   0.191
 2875SOL    HW1 8643   4.258   2.442   0.195
 2875SOL    HW2 8644   4.102   2.393   0.198
 2876SOL     OW 8645   3.883   2.999   1.466
 2876SOL    HW1 8646   3.905   2.938   1.542
 2876SOL    HW2 8647   3.893   2.950   1.380
 2877SOL     OW 8648   3.807   3.120   1.022
 2877SOL    HW1 8649   3.802   3.119   1.122
 2877SOL    HW2 8650   3.724   3.079   0.984
 2878SOL     OW 8651   4.412   3.524   1.716
 2878SOL    HW1 8652   4.356   3.605   1.725
 2878SOL    HW2 8653   4.464   3.528   1.630
 2879SOL     OW 8654   4.627   1.948   0.133
 2879SOL    HW1 8655   4.678   1.949   0.047
 2879SOL    HW2 8656   4.683   1.906   0.204
 2880SOL     OW 8657   3.854   3.656   1.851
 2880SOL    HW1 8658   3.813   3.582   1.904
 2880SOL    HW2 8659   3.918   3.707   1.909
 2881SOL     OW 8660   4.396   3.478   0.154
 2881SOL    HW1 8661   4.405   3.488   0.055
 2881SOL    HW2 8662   4.356   3.389   0.175
 2882SOL     OW 8663   3.987   2.188   0.720
 2882SOL    HW1 8664   3.908   2.239   0.686
 2882SOL    HW2 8665   3.978   2.173   0.818
 2883SOL     OW 8666   4.546   2.864   1.372
 2883SOL    HW1 8667   4.586   2.863   1.280
 2883SOL    HW2 8668   4.556   2.956   1.412
 2884SOL     OW 8669   4.096   3.150   1.490
 2884SOL    HW1 8670   4.083   3.243   1.456
 2884SOL    HW2 8671   4.012   3.098   1.477
 2885SOL     OW 8672   4.314   3.349   0.491
 2885SOL    HW1 8673   4.356   3.291   0.421
 2885SOL    HW2 8674   4.270   3.428   0.447
 2886SOL     OW 8675   3.979   3.210   0.290
 2886SOL    HW1 8676   3.883   3.211   0.263
 2886SOL    HW2 8677   3.991   3.263   0.374
 2887SOL     OW 8678   3.829   2.875   1.726
 2887SOL    HW1 8679   3.752   2.842   1.780
 2887SOL    HW2 8680   3.914   2.845   1.768
 2888SOL     OW 8681   4.396   2.065   1.489
 2888SOL    HW1 8682   4.486   2.049   1.449
 2888SOL    HW2 8683   4.404   2.070   1.588
 2889SOL     OW 8684   3.799   2.207   0.033
 2889SOL    HW1 8685   3.707   2.179   0.004
 2889SOL    HW2 8686   3.830   2.284  -0.023
 2890SOL     OW 8687   3.796   2.028   0.318
 2890SOL    HW1 8688   3.779   2.111   0.264
 2890SOL    HW2 8689   3.886   1.991   0.296
 2891SOL     OW 8690   4.337   2.704   1.431
 2891SOL    HW1 8691   4.393   2.785   1.414
 2891SOL    HW2 8692   4.396   2.624   1.434
 2892SOL     OW 8693   4.440   2.427   1.708
 2892SOL    HW1 8694   4.459   2.492   1.782
 2892SOL    HW2 8695   4.500   2.347   1.717
 2893SOL     OW 8696   4.114   3.603   1.560
 2893SOL    HW1 8697   4.023   3.644   1.558
 2893SOL    HW2 8698   4.107   3.509   1.592
 2894SOL     OW 8699   4.318   2.607   0.652
 2894SOL    HW1 8700   4.368   2.692   0.633
 2894SOL    HW2 8701   4.230   2.609   0.604
 2895SOL     OW 8702   4.385   3.652   0.953
 2895SOL    HW1 8703   4.339   3.740   0.940
 2895SOL    HW2 8704   4.484   3.664   0.946
 2896SOL     OW 8705   3.945   3.176   1.844
 2896SOL    HW1 8706   3.880   3.103   1.823
 2896SOL    HW2 8707   3.949   3.190   1.942
 2897SOL     OW 8708   3.803   3.102   0.653
 2897SOL    HW1 8709   3.802   3.055   0.741
 2897SOL    HW2 8710   3.885   3.074   0.602
 2898SOL     OW 8711   4.396   3.253   1.624
 2898SOL    HW1 8712   4.318   3.203   1.662
 2898SOL    HW2 8713   4.393   3.348   1.655
 2899SOL     OW 8714   4.152   2.286   0.520
 2899SOL    HW1 8715   4.182   2.214   0.458
 2899SOL    HW2 8716   4.113   2.246   0.603
 2900SOL     OW 8717   4.041   2.409   1.280
 2900SOL    HW1 8718   4.079   2.350   1.352
 2900SOL    HW2 8719   4.081   2.383   1.192
 2901SOL     OW 8720   4.536   3.448   0.687
 2901SOL    HW1 8721   4.568   3.458   0.593
 2901SOL    HW2 8722   4.457   3.386   0.689
 2902SOL     OW 8723   4.342   3.429   1.284
 2902SOL    HW1 8724   4.337   3.511   1.341
 2902SOL    HW2 8725   4.431   3.426   1.239
 2903SOL     OW 8726   3.763   2.939   0.300
 2903SOL    HW1 8727   3.862   2.928   0.291
 2903SOL    HW2 8728   3.723   2.853   0.332
 2904SOL     OW 8729   3.954   2.490   1.975
 2904SOL    HW1 8730   3.861   2.488   2.012
 2904SOL    HW2 8731   3.955   2.451   1.883
 2905SOL     OW 8732   3.949   2.137   2.858
 2905SOL    HW1 8733   3.984   2.120   2.950
 2905SOL    HW2 8734   3.861   2.092   2.846
 2906SOL     OW 8735   3.743   2.230   2.509
 2906SOL    HW1 8736   3.661   2.273   2.548
 2906SOL    HW2 8737   3.715   2.157   2.446
 2907SOL     OW 8738   4.293   3.137   3.027
 2907SOL    HW1 8739   4.200   3.130   2.990
 2907SOL    HW2 8740   4.304   3.226   3.071
 2908SOL     OW 8741   4.574   2.660   3.685
 2908SOL    HW1 8742   4.570   2.736   3.750
 2908SOL    HW2 8743   4.596   2.696   3.594
 2909SOL     OW 8744   4.409   2.874   2.527
 2909SOL    HW1 8745   4.478   2.858   2.597
 2909SOL    HW2 8746   4.336   2.931   2.565
 2910SOL     OW 8747   4.410   3.023   3.665
 2910SOL    HW1 8748   4.470   3.102   3.679
 2910SOL    HW2 8749   4.324   3.054   3.624
 2911SOL     OW 8750   4.059   3.297   2.923
 2911SOL    HW1 8751   3.981   3.266   2.870
 2911SOL    HW2 8752   4.117   3.355   2.866
 2912SOL     OW 8753   4.162   2.254   3.361
 2912SOL    HW1 8754   4.244   2.198   3.370
 2912SOL    HW2 8755   4.081   2.196   3.365
 2913SOL     OW 8756   3.955   3.575   2.345
 2913SOL    HW1 8757   3.989   3.652   2.399
 2913SOL    HW2 8758   3.999   3.575   2.255
 2914SOL     OW 8759   3.954   3.296   2.400
 2914SOL    HW1 8760   3.928   3.392   2.400
 2914SOL    HW2 8761   3.883   3.242   2.445
 2915SOL     OW 8762   3.964   2.953   2.748
 2915SOL    HW1 8763   3.978   2.869   2.800
 2915SOL    HW2 8764   3.909   3.017   2.803
 2916SOL     OW 8765   4.344   3.648   3.301
 2916SOL    HW1 8766   4.252   3.631   3.336
 2916SOL    HW2 8767   4.372   3.740   3.327
 2917SOL     OW 8768   4.330   2.826   1.985
 2917SOL    HW1 8769   4.337   2.910   1.931
 2917SOL    HW2 8770   4.376   2.839   2.073
 2918SOL     OW 8771   3.846   2.505   2.425
 2918SOL    HW1 8772   3.801   2.417   2.442
 2918SOL    HW2 8773   3.845   2.559   2.509
 2919SOL     OW 8774   3.751   3.458   1.979
 2919SOL    HW1 8775   3.732   3.362   2.000
 2919SOL    HW2 8776   3.718   3.516   2.054
 2920SOL     OW 8777   3.837   2.599   3.459
 2920SOL    HW1 8778   3.925   2.586   3.504
 2920SOL    HW2 8779   3.824   2.696   3.437
 2921SOL     OW 8780   4.337   3.227   2.588
 2921SOL    HW1 8781   4.288   3.140   2.597
 2921SOL    HW2 8782   4.314   3.270   2.501
 2922SOL     OW 8783   4.533   1.866   2.364
 2922SOL    HW1 8784   4.573   1.957   2.355
 2922SOL    HW2 8785   4.433   1.874   2.370
 2923SOL     OW 8786   3.921   2.838   3.126
 2923SOL    HW1 8787   4.010   2.793   3.112
 2923SOL    HW2 8788   3.848   2.773   3.107
 2924SOL     OW 8789   4.041   2.113   3.663
 2924SOL    HW1 8790   4.112   2.184   3.669
 2924SOL    HW2 8791   3.953   2.152   3.691
 2925SOL     OW 8792   4.322   2.591   2.132
 2925SOL    HW1 8793   4.346   2.660   2.064
 2925SOL    HW2 8794   4.244   2.624   2.186
 2926SOL     OW 8795   3.800   2.673   2.651
 2926SOL    HW1 8796   3.899   2.661   2.660
 2926SOL    HW2 8797   3.776   2.768   2.672
 2927SOL     OW 8798   3.854   3.683   3.433
 2927SOL    HW1 8799   3.844   3.668   3.532
 2927SOL    HW2 8800   3.768   3.719   3.397
 2928SOL     OW 8801   4.274   2.058   2.747
 2928SOL    HW1 8802   4.269   2.053   2.847
 2928SOL    HW2 8803   4.276   2.154   2.718
 2929SOL     OW 8804   4.075   3.663   2.715
 2929SOL    HW1 8805   4.125   3.577   2.721
 2929SOL    HW2 8806   4.140   3.740   2.712
 2930SOL     OW 8807   4.045   2.805   2.104
 2930SOL    HW1 8808   4.127   2.844   2.062
 2930SOL    HW2 8809   4.018   2.723   2.055
 2931SOL     OW 8810   4.185   3.128   3.589
 2931SOL    HW1 8811   4.135   3.129   3.503
 2931SOL    HW2 8812   4.122   3.110   3.665
 2932SOL     OW 8813   3.926   2.147   3.360
 2932SOL    HW1 8814   3.846   2.207   3.347
 2932SOL    HW2 8815   3.916   2.098   3.446
 2933SOL     OW 8816   4.188   3.605   2.185
 2933SOL    HW1 8817   4.221   3.644   2.271
 2933SOL    HW2 8818   4.264   3.598   2.120
 2934SOL     OW 8819   3.973   3.647   3.103
 2934SOL    HW1 8820   4.030   3.582   3.153
 2934SOL    HW2 8821   3.957   3.614   3.010
 2935SOL     OW 8822   4.106   2.562   2.342
 2935SOL    HW1 8823   4.151   2.472   2.339
 2935SOL    HW2 8824   4.012   2.551   2.375
 2936SOL     OW 8825   4.338   1.984   1.979
 2936SOL    HW1 8826   4.436   1.962   1.986
 2936SOL    HW2 8827   4.307   1.967   1.886
 2937SOL     OW 8828   4.527   3.264   2.786
 2937SOL    HW1 8829   4.617   3.278   2.744
 2937SOL    HW2 8830   4.456   3.266   2.715
 2938SOL     OW 8831   4.646   2.365   2.761
 2938SOL    HW1 8832   4.621   2.356   2.665
 2938SOL    HW2 8833   4.694   2.283   2.792
 2939SOL     OW 8834   4.263   1.926   2.374
 2939SOL    HW1 8835   4.182   1.927   2.432
 2939SOL    HW2 8836   4.266   2.009   2.319
 2940SOL     OW 8837   4.021   1.897   2.033
 2940SOL    HW1 8838   4.070   1.981   2.012
 2940SOL    HW2 8839   4.083   1.832   2.078
 2941SOL     OW 8840   4.183   3.014   2.603
 2941SOL    HW1 8841   4.112   2.987   2.668
 2941SOL    HW2 8842   4.157   2.986   2.510
 2942SOL     OW 8843   3.802   2.418   3.248
 2942SOL    HW1 8844   3.894   2.417   3.207
 2942SOL    HW2 8845   3.796   2.492   3.315
 2943SOL     OW 8846   4.285   2.084   3.009
 2943SOL    HW1 8847   4.323   2.000   3.046
 2943SOL    HW2 8848   4.197   2.103   3.053
 2944SOL     OW 8849   4.212   3.247   2.036
 2944SOL    HW1 8850   4.125   3.232   2.083
 2944SOL    HW2 8851   4.195   3.273   1.941
 2945SOL     OW 8852   4.251   2.118   2.190
 2945SOL    HW1 8853   4.278   2.059   2.115
 2945SOL    HW2 8854   4.251   2.213   2.159
 2946SOL     OW 8855   4.639   1.951   3.264
 2946SOL    HW1 8856   4.664   1.931   3.169
 2946SOL    HW2 8857   4.711   2.007   3.306
 2947SOL     OW 8858   4.134   2.675   3.113
 2947SOL    HW1 8859   4.220   2.687   3.163
 2947SOL    HW2 8860   4.092   2.588   3.140
 2948SOL     OW 8861   3.788   3.426   3.193
 2948SOL    HW1 8862   3.742   3.508   3.159
 2948SOL    HW2 8863   3.886   3.445   3.202
 2949SOL     OW 8864   4.091   2.962   2.363
 2949SOL    HW1 8865   4.084   3.045   2.307
 2949SOL    HW2 8866   4.095   2.882   2.303
 2950SOL     OW 8867   4.290   2.399   2.727
 2950SOL    HW1 8868   4.302   2.465   2.653
 2950SOL    HW2 8869   4.336   2.433   2.810
 2951SOL     OW 8870   4.078   3.372   3.191
 2951SOL    HW1 8871   4.057   3.328   3.104
 2951SOL    HW2 8872   4.175   3.398   3.194
 2952SOL     OW 8873   4.126   2.613   3.460
 2952SOL    HW1 8874   4.194   2.668   3.413
 2952SOL    HW2 8875   4.166   2.525   3.487
 2953SOL     OW 8876   4.228   1.912   3.602
 2953SOL    HW1 8877   4.186   1.855   3.532
 2953SOL    HW2 8878   4.162   1.981   3.634
 2954SOL     OW 8879   4.297   2.732   2.891
 2954SOL    HW1 8880   4.341   2.821   2.882
 2954SOL    HW2 8881   4.234   2.732   2.968
 2955SOL     OW 8882   4.031   2.075   3.093
 2955SOL    HW1 8883   4.008   2.112   3.183
 2955SOL    HW2 8884   4.001   1.980   3.087
 2956SOL     OW 8885   3.761   3.172   3.144
 2956SOL    HW1 8886   3.814   3.123   3.212
 2956SOL    HW2 8887   3.783   3.270   3.149
 2957SOL     OW 8888   4.456   2.496   2.926
 2957SOL    HW1 8889   4.515   2.470   2.850
 2957SOL    HW2 8890   4.428   2.592   2.915
 2958SOL     OW 8891   4.031   1.925   2.480
 2958SOL    HW1 8892   4.020   2.019   2.513
 2958SOL    HW2 8893   4.026   1.862   2.557
 2959SOL     OW 8894   4.074   2.760   3.666
 2959SOL    HW1 8895   4.150   2.804   3.714
 2959SOL    HW2 8896   4.109   2.713   3.584
 2960SOL     OW 8897   4.792   3.195   2.711
 2960SOL    HW1 8898   4.799   3.111   2.656
 2960SOL    HW2 8899   4.854   3.264   2.675
 2961SOL     OW 8900   4.043   2.672   2.811
 2961SOL    HW1 8901   4.136   2.708   2.816
 2961SOL    HW2 8902   4.037   2.587   2.863
 2962SOL     OW 8903   4.063   2.371   2.868
 2962SOL    HW1 8904   4.011   2.288   2.851
 2962SOL    HW2 8905   4.140   2.376   2.804
 2963SOL     OW 8906   3.732   3.188   2.062
 2963SOL    HW1 8907   3.639   3.209   2.031
 2963SOL    HW2 8908   3.742   3.089   2.075
 2964SOL     OW 8909   3.812   3.663   2.789
 2964SOL    HW1 8910   3.770   3.577   2.762
 2964SOL    HW2 8911   3.906   3.666   2.755
 2965SOL     OW 8912   4.228   3.430   2.772
 2965SOL    HW1 8913   4.294   3.504   2.781
 2965SOL    HW2 8914   4.272   3.351   2.730
 2966SOL     OW 8915   3.764   2.406   2.976
 2966SOL    HW1 8916   3.849   2.373   2.935
 2966SOL    HW2 8917   3.777   2.421   3.074
 2967SOL     OW 8918   3.913   2.382   3.584
 2967SOL    HW1 8919   3.972   2.342   3.514
 2967SOL    HW2 8920   3.855   2.453   3.543
 2968SOL     OW 8921   4.539   2.434   2.187
 2968SOL    HW1 8922   4.546   2.345   2.141
 2968SOL    HW2 8923   4.445   2.468   2.179
 2969SOL     OW 8924   3.976   3.426   3.606
 2969SOL    HW1 8925   3.946   3.483   3.682
 2969SOL    HW2 8926   3.969   3.329   3.632
 2970SOL     OW 8927   4.395   2.326   3.131
 2970SOL    HW1 8928   4.361   2.237   3.101
 2970SOL    HW2 8929   4.421   2.380   3.051
 2971SOL     OW 8930   4.197   2.362   2.053
 2971SOL    HW1 8931   4.258   2.442   2.057
 2971SOL    HW2 8932   4.102   2.393   2.060
 2972SOL     OW 8933   3.883   2.999   3.328
 2972SOL    HW1 8934   3.905   2.938   3.404
 2972SOL    HW2 8935   3.893   2.950   3.242
 2973SOL     OW 8936   3.807   3.120   2.884
 2973SOL    HW1 8937   3.802   3.119   2.984
 2973SOL    HW2 8938   3.724   3.079   2.846
 2974SOL     OW 8939   4.412   3.524   3.578
 2974SOL    HW1 8940   4.356   3.605   3.587
 2974SOL    HW2 8941   4.464   3.528   3.492
 2975SOL     OW 8942   4.627   1.948   1.995
 2975SOL    HW1 8943   4.678   1.949   1.909
 2975SOL    HW2 8944   4.683   1.906   2.066
 2976SOL     OW 8945   3.854   3.656   3.713
 2976SOL    HW1 8946   3.813   3.582   3.766
 2976SOL    HW2 8947   3.918   3.707   3.771
 2977SOL     OW 8948   4.396   3.478   2.016
 2977SOL    HW1 8949   4.405   3.488   1.917
 2977SOL    HW2 8950   4.356   3.389   2.037
 2978SOL     OW 8951   3.987   2.188   2.582
 2978SOL    HW1 8952   3.908   2.239   2.548
 2978SOL    HW2 8953   3.978   2.173   2.680
 2979SOL     OW 8954   4.546   2.864   3.234
 2979SOL    HW1 8955   4.586   2.863   3.142
 2979SOL    HW2 8956   4.556   2.956   3.274
 2980SOL     OW 8957   4.096   3.150   3.352
 2980SOL    HW1 8958   4.083   3.243   3.318
 2980SOL    HW2 8959   4.012   3.098   3.339
 2981SOL     OW 8960   4.314   3.349   2.353
 2981SOL    HW1 8961   4.356   3.291   2.283
 2981SOL    HW2 8962   4.270   3.428   2.309
 2982SOL     OW 8963   3.979   3.210   2.152
 2982SOL    HW1 8964   3.883   3.211   2.125
 2982SOL    HW2 8965   3.991   3.263   2.236
 2983SOL     OW 8966   3.829   2.875   3.588
 2983SOL    HW1 8967   3.752   2.842   3.642
 2983SOL    HW2 8968   3.914   2.845   3.630
 2984SOL     OW 8969   4.396   2.065   3.351
 2984SOL    HW1 8970   4.486   2.049   3.311
 2984SOL    HW2 8971   4.404   2.070   3.450
 2985SOL     OW 8972   3.799   2.207   1.895
 2985SOL    HW1 8973   3.707   2.179   1.866
 2985SOL    HW2 8974   3.830   2.284   1.839
 2986SOL     OW 8975   3.796   2.028   2.180
 2986SOL    HW1 8976   3.779   2.111   2.126
 2986SOL    HW2 8977   3.886   1.991   2.158
 2987SOL     OW 8978   4.337   2.704   3.293
 2987SOL    HW1 8979   4.393   2.785   3.276
 2987SOL    HW2 8980   4.396   2.624   3.296
 2988SOL     OW 8981   4.440   2.427   3.570
 2988SOL    HW1 8982   4.459   2.492   3.644
 2988SOL    HW2 8983   4.500   2.347   3.579
 2989SOL     OW 8984   4.114   3.603   3.422
 2989SOL    HW1 8985   4.023   3.644   3.420
 2989SOL    HW2 8986   4.107   3.509   3.454
 2990SOL     OW 8987   4.318   2.607   2.514
 2990SOL    HW1 8988   4.368   2.692   2.495
 2990SOL    HW2 8989   4.230   2.609   2.466
 2991SOL     OW 8990   4.385   3.652   2.815
 2991SOL    HW1 8991   4.339   3.740   2.802
 2991SOL    HW2 8992   4.484   3.664   2.808
 2992SOL     OW 8993   3.945   3.176   3.706
 2992SOL    HW1 8994   3.880   3.103   3.685
 2992SOL    HW2 8995   3.949   3.190   3.804
 2993SOL     OW 8996   3.803   3.102   2.515
 2993SOL    HW1 8997   3.802   3.055   2.603
 2993SOL    HW2 8998   3.885   3.074   2.464
 2994SOL     OW 8999   4.396   3.253   3.486
 2994SOL    HW1 9000   4.318   3.203   3.524
 2994SOL    HW2 9001   4.393   3.348   3.517
 2995SOL     OW 9002   4.152   2.286   2.382
 2995SOL    HW1 9003   4.182   2.214   2.320
 2995SOL    HW2 9004   4.113   2.246   2.465
 2996SOL     OW 9005   4.041   2.409   3.142
 2996SOL    HW1 9006   4.079   2.350   3.214
 2996SOL    HW2 9007   4.081   2.383   3.054
 2997SOL     OW 9008   4.536   3.448   2.549
 2997SOL    HW1 9009   4.568   3.458   2.455
 2997SOL    HW2 9010   4.457   3.386   2.551
 2998SOL     OW 9011   4.342   3.429   3.146
 2998SOL    HW1 9012   4.337   3.511   3.203
 2998SOL    HW2 9013   4.431   3.426   3.101
 2999SOL     OW 9014   3.763   2.939   2.162
 2999SOL    HW1 9015   3.862   2.928   2.153
 2999SOL    HW2 9016   3.723   2.853   2.194
 3000SOL     OW 9017   3.954   2.490   3.837
 3000SOL    HW1 9018   3.861   2.488   3.874
 3000SOL    HW2 9019   3.955   2.451   3.745
 3001SOL     OW 9020   3.743   2.230   4.371
 3001SOL    HW1 9021   3.661   2.273   4.410
 3001SOL    HW2 9022   3.715   2.157   4.308
 3002SOL     OW 9023   4.409   2.874   4.389
 3002SOL    HW1 9024   4.478   2.858   4.459
 3002SOL    HW2 9025   4.336   2.931   4.427
 3003SOL     OW 9026   3.955   3.575   4.207
 3003SOL    HW1 9027   3.989   3.652   4.261
 3003SOL    HW2 9028   3.999   3.575   4.117
 3004SOL     OW 9029   3.954   3.296   4.262
 3004SOL    HW1 9030   3.928   3.392   4.262
 3004SOL    HW2 9031   3.883   3.242   4.307
 3005SOL     OW 9032   3.964   2.953   4.610
 3005SOL    HW1 9033   3.978   2.869   4.662
 3005SOL    HW2 9034   3.909   3.017   4.665
 3006SOL     OW 9035   4.330   2.826   3.847
 3006SOL    HW1 9036   4.337   2.910   3.793
 3006SOL    HW2 9037   4.376   2.839   3.935
 3007SOL     OW 9038   3.846   2.505   4.287
 3007SOL    HW1 9039   3.801   2.417   4.304
 3007SOL    HW2 9040   3.845   2.559   4.371
 3008SOL     OW 9041   3.751   3.458   3.841
 3008SOL    HW1 9042   3.732   3.362   3.862
 3008SOL    HW2 9043   3.718   3.516   3.916
 3009SOL     OW 9044   4.337   3.227   4.450
 3009SOL    HW1 9045   4.288   3.140   4.459
 3009SOL    HW2 9046   4.314   3.270   4.363
 3010SOL     OW 9047   4.533   1.866   4.226
 3010SOL    HW1 9048   4.573   1.957   4.217
 3010SOL    HW2 9049   4.433   1.874   4.232
 3011SOL     OW 9050   4.322   2.591   3.994
 3011SOL    HW1 9051   4.346   2.660   3.926
 3011SOL    HW2 9052   4.244   2.624   4.048
 3012SOL     OW 9053   3.800   2.673   4.513
 3012SOL    HW1 9054   3.899   2.661   4.522
 3012SOL    HW2 9055   3.776   2.768   4.534
 3013SOL     OW 9056   4.274   2.058   4.609
 3013SOL    HW1 9057   4.269   2.053   4.709
 3013SOL    HW2 9058   4.276   2.154   4.580
 3014SOL     OW 9059   4.075   3.663   4.577
 3014SOL    HW1 9060   4.125   3.577   4.583
 3014SOL    HW2 9061   4.140   3.740   4.574
 3015SOL     OW 9062   4.045   2.805   3.966
 3015SOL    HW1 9063   4.127   2.844   3.924
 3015SOL    HW2 9064   4.018   2.723   3.917
 3016SOL     OW 9065   4.188   3.605   4.047
 3016SOL    HW1 9066   4.221   3.644   4.133
 3016SOL    HW2 9067   4.264   3.598   3.982
 3017SOL     OW 9068   4.106   2.562   4.204
 3017SOL    HW1 9069   4.151   2.472   4.201
 3017SOL    HW2 9070   4.012   2.551   4.237
 3018SOL     OW 9071   4.338   1.984   3.841
 3018SOL    HW1 9072   4.436   1.962   3.848
 3018SOL    HW2 9073   4.307   1.967   3.748
 3019SOL     OW 9074   4.263   1.926   4.236
 3019SOL    HW1 9075   4.182   1.927   4.294
 3019SOL    HW2 9076   4.266   2.009   4.181
 3020SOL     OW 9077   4.021   1.897   3.895
 3020SOL    HW1 9078   4.070   1.981   3.874
 3020SOL    HW2 9079   4.083   1.832   3.940
 3021SOL     OW 9080   4.183   3.014   4.465
 3021SOL    HW1 9081   4.112   2.987   4.530
 3021SOL    HW2 9082   4.157   2.986   4.372
 3022SOL     OW 9083   4.741   1.901   4.477
 3022SOL    HW1 9084   4.669   1.906   4.408
 3022SOL    HW2 9085   4.717   1.832   4.546
 3023SOL     OW 9086   4.212   3.247   3.898
 3023SOL    HW1 9087   4.125   3.232   3.945
 3023SOL    HW2 9088   4.195   3.273   3.803
 3024SOL     OW 9089   4.251   2.118   4.052
 3024SOL    HW1 9090   4.278   2.059   3.977
 3024SOL    HW2 9091   4.251   2.213   4.021
 3025SOL     OW 9092   4.091   2.962   4.225
 3025SOL    HW1 9093   4.084   3.045   4.169
 3025SOL    HW2 9094   4.095   2.882   4.165
 3026SOL     OW 9095   4.290   2.399   4.589
 3026SOL    HW1 9096   4.302   2.465   4.515
 3026SOL    HW2 9097   4.336   2.433   4.672
 3027SOL     OW 9098   4.031   1.925   4.342
 3027SOL    HW1 9099   4.020   2.019   4.375
 3027SOL    HW2 9100   4.026   1.862   4.419
 3028SOL     OW 9101   4.792   3.195   4.573
 3028SOL    HW1 9102   4.799   3.111   4.518
 3028SOL    HW2 9103   4.854   3.264   4.537
 3029SOL     OW 9104   3.732   3.188   3.924
 3029SOL    HW1 9105   3.639   3.209   3.893
 3029SOL    HW2 9106   3.742   3.089   3.937
 3030SOL     OW 9107   4.539   2.434   4.049
 3030SOL    HW1 9108   4.546   2.345   4.003
 3030SOL    HW2 9109   4.445   2.468   4.041
 3031SOL     OW 9110   4.197   2.362   3.915
 3031SOL    HW1 9111   4.258   2.442   3.919
 3031SOL    HW2 9112   4.102   2.393   3.922
 3032SOL     OW 9113   4.627   1.948   3.857
 3032SOL    HW1 9114   4.678   1.949   3.771
 3032SOL    HW2 9115   4.683   1.906   3.928
 3033SOL     OW 9116   4.396   3.478   3.878
 3033SOL    HW1 9117   4.405   3.488   3.779
 3033SOL    HW2 9118   4.356   3.389   3.899
 3034SOL     OW 9119   3.987   2.188   4.444
 3034SOL    HW1 9120   3.908   2.239   4.410
 3034SOL    HW2 9121   3.978   2.173   4.542
 3035SOL     OW 9122   4.314   3.349   4.215
 3035SOL    HW1 9123   4.356   3.291   4.145
 3035SOL    HW2 9124   4.270   3.428   4.171
 3036SOL     OW 9125   3.979   3.210   4.014
 3036SOL    HW1 9126   3.883   3.211   3.987
 3036SOL    HW2 9127   3.991   3.263   4.098
 3037SOL     OW 9128   3.799   2.207   3.757
 3037SOL    HW1 9129   3.707   2.179   3.728
 3037SOL    HW2 9130   3.830   2.284   3.701
 3038SOL     OW 9131   3.796   2.028   4.042
 3038SOL    HW1 9132   3.779   2.111   3.988
 3038SOL    HW2 9133   3.886   1.991   4.020
 3039SOL     OW 9134   4.318   2.607   4.376
 3039SOL    HW1 9135   4.368   2.692   4.357
 3039SOL    HW2 9136   4.230   2.609   4.328
 3040SOL     OW 9137   4.385   3.652   4.677
 3040SOL    HW1 9138   4.339   3.740   4.664
 3040SOL    HW2 9139   4.484   3.664   4.670
 3041SOL     OW 9140   3.803   3.102   4.377
 3041SOL    HW1 9141   3.802   3.055   4.465
 3041SOL    HW2 9142   3.885   3.074   4.326
 3042SOL     OW 9143   4.152   2.286   4.244
 3042SOL    HW1 9144   4.182   2.214   4.182
 3042SOL    HW2 9145   4.113   2.246   4.327
 3043SOL     OW 9146   4.536   3.448   4.411
 3043SOL    HW1 9147   4.568   3.458   4.317
 3043SOL    HW2 9148   4.457   3.386   4.413
 3044SOL     OW 9149   3.763   2.939   4.024
 3044SOL    HW1 9150   3.862   2.928   4.015
 3044SOL    HW2 9151   3.723   2.853   4.056
 3045SOL     OW 9152   3.954   4.352   0.113
 3045SOL    HW1 9153   3.861   4.350   0.150
 3045SOL    HW2 9154   3.955   4.313   0.021
 3046SOL     OW 9155   3.949   3.999   0.996
 3046SOL    HW1 9156   3.984   3.982   1.088
 3046SOL    HW2 9157   3.861   3.954   0.984
 3047SOL     OW 9158   3.743   4.092   0.647
 3047SOL    HW1 9159   3.661   4.135   0.686
 3047SOL    HW2 9160   3.715   4.019   0.584
 3048SOL     OW 9161   4.409   4.736   0.665
 3048SOL    HW1 9162   4.478   4.720   0.735
 3048SOL    HW2 9163   4.336   4.793   0.703
 3049SOL     OW 9164   4.162   4.116   1.499
 3049SOL    HW1 9165   4.244   4.060   1.508
 3049SOL    HW2 9166   4.081   4.058   1.503
 3050SOL     OW 9167   3.846   4.367   0.563
 3050SOL    HW1 9168   3.801   4.279   0.580
 3050SOL    HW2 9169   3.845   4.421   0.647
 3051SOL     OW 9170   3.837   4.461   1.597
 3051SOL    HW1 9171   3.925   4.448   1.642
 3051SOL    HW2 9172   3.824   4.558   1.575
 3052SOL     OW 9173   4.533   3.728   0.502
 3052SOL    HW1 9174   4.573   3.819   0.493
 3052SOL    HW2 9175   4.433   3.736   0.508
 3053SOL     OW 9176   4.041   3.975   1.801
 3053SOL    HW1 9177   4.112   4.046   1.807
 3053SOL    HW2 9178   3.953   4.014   1.829
 3054SOL     OW 9179   4.322   4.453   0.270
 3054SOL    HW1 9180   4.346   4.522   0.202
 3054SOL    HW2 9181   4.244   4.486   0.324
 3055SOL     OW 9182   4.274   3.920   0.885
 3055SOL    HW1 9183   4.269   3.915   0.985
 3055SOL    HW2 9184   4.276   4.016   0.856
 3056SOL     OW 9185   3.926   4.009   1.498
 3056SOL    HW1 9186   3.846   4.069   1.485
 3056SOL    HW2 9187   3.916   3.960   1.584
 3057SOL     OW 9188   4.106   4.424   0.480
 3057SOL    HW1 9189   4.151   4.334   0.477
 3057SOL    HW2 9190   4.012   4.413   0.513
 3058SOL     OW 9191   4.646   4.227   0.899
 3058SOL    HW1 9192   4.621   4.218   0.803
 3058SOL    HW2 9193   4.694   4.145   0.930
 3059SOL     OW 9194   4.263   3.788   0.512
 3059SOL    HW1 9195   4.182   3.789   0.570
 3059SOL    HW2 9196   4.266   3.871   0.457
 3060SOL     OW 9197   4.021   3.759   0.171
 3060SOL    HW1 9198   4.070   3.843   0.150
 3060SOL    HW2 9199   4.083   3.694   0.216
 3061SOL     OW 9200   3.802   4.280   1.386
 3061SOL    HW1 9201   3.894   4.279   1.345
 3061SOL    HW2 9202   3.796   4.354   1.453
 3062SOL     OW 9203   4.285   3.946   1.147
 3062SOL    HW1 9204   4.323   3.862   1.184
 3062SOL    HW2 9205   4.197   3.965   1.191
 3063SOL     OW 9206   4.251   3.980   0.328
 3063SOL    HW1 9207   4.278   3.921   0.253
 3063SOL    HW2 9208   4.251   4.075   0.297
 3064SOL     OW 9209   4.639   3.813   1.402
 3064SOL    HW1 9210   4.664   3.793   1.307
 3064SOL    HW2 9211   4.711   3.869   1.444
 3065SOL     OW 9212   4.429   4.774   0.368
 3065SOL    HW1 9213   4.415   4.781   0.467
 3065SOL    HW2 9214   4.513   4.723   0.350
 3066SOL     OW 9215   4.134   4.537   1.251
 3066SOL    HW1 9216   4.220   4.549   1.301
 3066SOL    HW2 9217   4.092   4.450   1.278
 3067SOL     OW 9218   4.290   4.261   0.865
 3067SOL    HW1 9219   4.302   4.327   0.791
 3067SOL    HW2 9220   4.336   4.295   0.948
 3068SOL     OW 9221   4.228   3.774   1.740
 3068SOL    HW1 9222   4.186   3.717   1.670
 3068SOL    HW2 9223   4.162   3.843   1.772
 3069SOL     OW 9224   4.031   3.937   1.231
 3069SOL    HW1 9225   4.008   3.974   1.321
 3069SOL    HW2 9226   4.001   3.842   1.225
 3070SOL     OW 9227   4.456   4.358   1.064
 3070SOL    HW1 9228   4.515   4.332   0.988
 3070SOL    HW2 9229   4.428   4.454   1.053
 3071SOL     OW 9230   4.031   3.787   0.618
 3071SOL    HW1 9231   4.020   3.881   0.651
 3071SOL    HW2 9232   4.026   3.724   0.695
 3072SOL     OW 9233   4.043   4.534   0.949
 3072SOL    HW1 9234   4.136   4.570   0.954
 3072SOL    HW2 9235   4.037   4.449   1.001
 3073SOL     OW 9236   4.063   4.233   1.006
 3073SOL    HW1 9237   4.011   4.150   0.989
 3073SOL    HW2 9238   4.140   4.238   0.942
 3074SOL     OW 9239   3.764   4.268   1.114
 3074SOL    HW1 9240   3.849   4.235   1.073
 3074SOL    HW2 9241   3.777   4.283   1.212
 3075SOL     OW 9242   3.913   4.244   1.722
 3075SOL    HW1 9243   3.972   4.204   1.652
 3075SOL    HW2 9244   3.855   4.315   1.681
 3076SOL     OW 9245   4.539   4.296   0.325
 3076SOL    HW1 9246   4.546   4.207   0.279
 3076SOL    HW2 9247   4.445   4.330   0.317
 3077SOL     OW 9248   4.395   4.188   1.269
 3077SOL    HW1 9249   4.361   4.099   1.239
 3077SOL    HW2 9250   4.421   4.242   1.189
 3078SOL     OW 9251   4.197   4.224   0.191
 3078SOL    HW1 9252   4.258   4.304   0.195
 3078SOL    HW2 9253   4.102   4.255   0.198
 3079SOL     OW 9254   4.627   3.810   0.133
 3079SOL    HW1 9255   4.678   3.811   0.047
 3079SOL    HW2 9256   4.683   3.768   0.204
 3080SOL     OW 9257   3.987   4.050   0.720
 3080SOL    HW1 9258   3.908   4.101   0.686
 3080SOL    HW2 9259   3.978   4.035   0.818
 3081SOL     OW 9260   3.829   4.737   1.726
 3081SOL    HW1 9261   3.752   4.704   1.780
 3081SOL    HW2 9262   3.914   4.707   1.768
 3082SOL     OW 9263   4.396   3.927   1.489
 3082SOL    HW1 9264   4.486   3.911   1.449
 3082SOL    HW2 9265   4.404   3.932   1.588
 3083SOL     OW 9266   3.799   4.069   0.033
 3083SOL    HW1 9267   3.707   4.041   0.004
 3083SOL    HW2 9268   3.830   4.146  -0.023
 3084SOL     OW 9269   3.796   3.890   0.318
 3084SOL    HW1 9270   3.779   3.973   0.264
 3084SOL    HW2 9271   3.886   3.853   0.296
 3085SOL     OW 9272   4.337   4.566   1.431
 3085SOL    HW1 9273   4.393   4.647   1.414
 3085SOL    HW2 9274   4.396   4.486   1.434
 3086SOL     OW 9275   4.440   4.289   1.708
 3086SOL    HW1 9276   4.459   4.354   1.782
 3086SOL    HW2 9277   4.500   4.209   1.717
 3087SOL     OW 9278   4.318   4.469   0.652
 3087SOL    HW1 9279   4.368   4.554   0.633
 3087SOL    HW2 9280   4.230   4.471   0.604
 3088SOL     OW 9281   4.152   4.148   0.520
 3088SOL    HW1 9282   4.182   4.076   0.458
 3088SOL    HW2 9283   4.113   4.108   0.603
 3089SOL     OW 9284   4.041   4.271   1.280
 3089SOL    HW1 9285   4.079   4.212   1.352
 3089SOL    HW2 9286   4.081   4.245   1.192
 3090SOL     OW 9287   3.954   4.352   1.975
 3090SOL    HW1 9288   3.861   4.350   2.012
 3090SOL    HW2 9289   3.955   4.313   1.883
 3091SOL     OW 9290   3.949   3.999   2.858
 3091SOL    HW1 9291   3.984   3.982   2.950
 3091SOL    HW2 9292   3.861   3.954   2.846
 3092SOL     OW 9293   3.743   4.092   2.509
 3092SOL    HW1 9294   3.661   4.135   2.548
 3092SOL    HW2 9295   3.715   4.019   2.446
 3093SOL     OW 9296   4.409   4.736   2.527
 3093SOL    HW1 9297   4.478   4.720   2.597
 3093SOL    HW2 9298   4.336   4.793   2.565
 3094SOL     OW 9299   4.162   4.116   3.361
 3094SOL    HW1 9300   4.244   4.060   3.370
 3094SOL    HW2 9301   4.081   4.058   3.365
 3095SOL     OW 9302   3.846   4.367   2.425
 3095SOL    HW1 9303   3.801   4.279   2.442
 3095SOL    HW2 9304   3.845   4.421   2.509
 3096SOL     OW 9305   3.837   4.461   3.459
 3096SOL    HW1 9306   3.925   4.448   3.504
 3096SOL    HW2 9307   3.824   4.558   3.437
 3097SOL     OW 9308   4.533   3.728   2.364
 3097SOL    HW1 9309   4.573   3.819   2.355
 3097SOL    HW2 9310   4.433   3.736   2.370
 3098SOL     OW 9311   4.041   3.975   3.663
 3098SOL    HW1 9312   4.112   4.046   3.669
 3098SOL    HW2 9313   3.953   4.014   3.691
 3099SOL     OW 9314   4.322   4.453   2.132
 3099SOL    HW1 9315   4.346   4.522   2.064
 3099SOL    HW2 9316   4.244   4.486   2.186
 3100SOL     OW 9317   4.274   3.920   2.747
 3100SOL    HW1 9318   4.269   3.915   2.847
 3100SOL    HW2 9319   4.276   4.016   2.718
 3101SOL     OW 9320   3.926   4.009   3.360
 3101SOL    HW1 9321   3.846   4.069   3.347
 3101SOL    HW2 9322   3.916   3.960   3.446
 3102SOL     OW 9323   4.106   4.424   2.342
 3102SOL    HW1 9324   4.151   4.334   2.339
 3102SOL    HW2 9325   4.012   4.413   2.375
 3103SOL     OW 9326   4.338   3.846   1.979
 3103SOL    HW1 9327   4.436   3.824   1.986
 3103SOL    HW2 9328   4.307   3.829   1.886
 3104SOL     OW 9329   4.646   4.227   2.761
 3104SOL    HW1 9330   4.621   4.218   2.665
 3104SOL    HW2 9331   4.694   4.145   2.792
 3105SOL     OW 9332   4.263   3.788   2.374
 3105SOL    HW1 9333   4.182   3.789   2.432
 3105SOL    HW2 9334   4.266   3.871   2.319
 3106SOL     OW 9335   4.021   3.759   2.033
 3106SOL    HW1 9336   4.070   3.843   2.012
 3106SOL    HW2 9337   4.083   3.694   2.078
 3107SOL     OW 9338   3.802   4.280   3.248
 3107SOL    HW1 9339   3.894   4.279   3.207
 3107SOL    HW2 9340   3.796   4.354   3.315
 3108SOL     OW 9341   4.285   3.946   3.009
 3108SOL    HW1 9342   4.323   3.862   3.046
 3108SOL    HW2 9343   4.197   3.965   3.053
 3109SOL     OW 9344   4.251   3.980   2.190
 3109SOL    HW1 9345   4.278   3.921   2.115
 3109SOL    HW2 9346   4.251   4.075   2.159
 3110SOL     OW 9347   4.639   3.813   3.264
 3110SOL    HW1 9348   4.664   3.793   3.169
 3110SOL    HW2 9349   4.711   3.869   3.306
 3111SOL     OW 9350   4.429   4.774   2.230
 3111SOL    HW1 9351   4.415   4.781   2.329
 3111SOL    HW2 9352   4.513   4.723   2.212
 3112SOL     OW 9353   4.134   4.537   3.113
 3112SOL    HW1 9354   4.220   4.549   3.163
 3112SOL    HW2 9355   4.092   4.450   3.140
 3113SOL     OW 9356   4.290   4.261   2.727
 3113SOL    HW1 9357   4.302   4.327   2.653
 3113SOL    HW2 9358   4.336   4.295   2.810
 3114SOL     OW 9359   4.228   3.774   3.602
 3114SOL    HW1 9360   4.186   3.717   3.532
 3114SOL    HW2 9361   4.162   3.843   3.634
 3115SOL     OW 9362   4.031   3.937   3.093
 3115SOL    HW1 9363   4.008   3.974   3.183
 3115SOL    HW2 9364   4.001   3.842   3.087
 3116SOL     OW 9365   4.456   4.358   2.926
 3116SOL    HW1 9366   4.515   4.332   2.850
 3116SOL    HW2 9367   4.428   4.454   2.915
 3117SOL     OW 9368   4.031   3.787   2.480
 3117SOL    HW1 9369   4.020   3.881   2.513
 3117SOL    HW2 9370   4.026   3.724   2.557
 3118SOL     OW 9371   4.043   4.534   2.811
 3118SOL    HW1 9372   4.136   4.570   2.816
 3118SOL    HW2 9373   4.037   4.449   2.863
 3119SOL     OW 9374   4.063   4.233   2.868
 3119SOL    HW1 9375   4.011   4.150   2.851
 3119SOL    HW2 9376   4.140   4.238   2.804
 3120SOL     OW 9377   3.764   4.268   2.976
 3120SOL    HW1 9378   3.849   4.235   2.935
 3120SOL    HW2 9379   3.777   4.283   3.074
 3121SOL     OW 9380   3.913   4.244   3.584
 3121SOL    HW1 9381   3.972   4.204   3.514
 3121SOL    HW2 9382   3.855   4.315   3.543
 3122SOL     OW 9383   4.539   4.296   2.187
 3122SOL    HW1 9384   4.546   4.207   2.141
 3122SOL    HW2 9385   4.445   4.330   2.179
 3123SOL     OW 9386   4.395   4.188   3.131
 3123SOL    HW1 9387   4.361   4.099   3.101
 3123SOL    HW2 9388   4.421   4.242   3.051
 3124SOL     OW 9389   4.197   4.224   2.053
 3124SOL    HW1 9390   4.258   4.304   2.057
 3124SOL    HW2 9391   4.102   4.255   2.060
 3125SOL     OW 9392   4.627   3.810   1.995
 3125SOL    HW1 9393   4.678   3.811   1.909
 3125SOL    HW2 9394   4.683   3.768   2.066
 3126SOL     OW 9395   3.987   4.050   2.582
 3126SOL    HW1 9396   3.908   4.101   2.548
 3126SOL    HW2 9397   3.978   4.035   2.680
 3127SOL     OW 9398   3.829   4.737   3.588
 3127SOL    HW1 9399   3.752   4.704   3.642
 3127SOL    HW2 9400   3.914   4.707   3.630
 3128SOL     OW 9401   4.396   3.927   3.351
 3128SOL    HW1 9402   4.486   3.911   3.311
 3128SOL    HW2 9403   4.404   3.932   3.450
 3129SOL     OW 9404   3.799   4.069   1.895
 3129SOL    HW1 9405   3.707   4.041   1.866
 3129SOL    HW2 9406   3.830   4.146   1.839
 3130SOL     OW 9407   3.796   3.890   2.180
 3130SOL    HW1 9408   3.779   3.973   2.126
 3130SOL    HW2 9409   3.886   3.853   2.158
 3131SOL     OW 9410   4.337   4.566   3.293
 3131SOL    HW1 9411   4.393   4.647   3.276
 3131SOL    HW2 9412   4.396   4.486   3.296
 3132SOL     OW 9413   4.440   4.289   3.570
 3132SOL    HW1 9414   4.459   4.354   3.644
 3132SOL    HW2 9415   4.500   4.209   3.579
 3133SOL     OW 9416   4.318   4.469   2.514
 3133SOL    HW1 9417   4.368   4.554   2.495
 3133SOL    HW2 9418   4.230   4.471   2.466
 3134SOL     OW 9419   4.152   4.148   2.382
 3134SOL    HW1 9420   4.182   4.076   2.320
 3134SOL    HW2 9421   4.113   4.108   2.465
 3135SOL     OW 9422   4.041   4.271   3.142
 3135SOL    HW1 9423   4.079   4.212   3.214
 3135SOL    HW2 9424   4.081   4.245   3.054
 3136SOL     OW 9425   3.954   4.352   3.837
 3136SOL    HW1 9426   3.861   4.350   3.874
 3136SOL    HW2 9427   3.955   4.313   3.745
 3137SOL     OW 9428   3.743   4.092   4.371
 3137SOL    HW1 9429   3.661   4.135   4.410
 3137SOL    HW2 9430   3.715   4.019   4.308
 3138SOL     OW 9431   4.409   4.736   4.389
 3138SOL    HW1 9432   4.478   4.720   4.459
 3138SOL    HW2 9433   4.336   4.793   4.427
 3139SOL     OW 9434   3.846   4.367   4.287
 3139SOL    HW1 9435   3.801   4.279   4.304
 3139SOL    HW2 9436   3.845   4.421   4.371
 3140SOL     OW 9437   4.533   3.728   4.226
 3140SOL    HW1 9438   4.573   3.819   4.217
 3140SOL    HW2 9439   4.433   3.736   4.232
 3141SOL     OW 9440   4.322   4.453   3.994
 3141SOL    HW1 9441   4.346   4.522   3.926
 3141SOL    HW2 9442   4.244   4.486   4.048
 3142SOL     OW 9443   4.274   3.920   4.609
 3142SOL    HW1 9444   4.269   3.915   4.709
 3142SOL    HW2 9445   4.276   4.016   4.580
 3143SOL     OW 9446   4.106   4.424   4.204
 3143SOL    HW1 9447   4.151   4.334   4.201
 3143SOL    HW2 9448   4.012   4.413   4.237
 3144SOL     OW 9449   4.338   3.846   3.841
 3144SOL    HW1 9450   4.436   3.824   3.848
 3144SOL    HW2 9451   4.307   3.829   3.748
 3145SOL     OW 9452   4.263   3.788   4.236
 3145SOL    HW1 9453   4.182   3.789   4.294
 3145SOL    HW2 9454   4.266   3.871   4.181
 3146SOL     OW 9455   4.021   3.759   3.895
 3146SOL    HW1 9456   4.070   3.843   3.874
 3146SOL    HW2 9457   4.083   3.694   3.940
 3147SOL     OW 9458   4.183   4.876   4.465
 3147SOL    HW1 9459   4.112   4.849   4.530
 3147SOL    HW2 9460   4.157   4.848   4.372
 3148SOL     OW 9461   4.741   3.763   4.477
 3148SOL    HW1 9462   4.669   3.768   4.408
 3148SOL    HW2 9463   4.717   3.694   4.546
 3149SOL     OW 9464   4.251   3.980   4.052
 3149SOL    HW1 9465   4.278   3.921   3.977
 3149SOL    HW2 9466   4.251   4.075   4.021
 3150SOL     OW 9467   4.429   4.774   4.092
 3150SOL    HW1 9468   4.415   4.781   4.191
 3150SOL    HW2 9469   4.513   4.723   4.074
 3151SOL     OW 9470   4.290   4.261   4.589
 3151SOL    HW1 9471   4.302   4.327   4.515
 3151SOL    HW2 9472   4.336   4.295   4.672
 3152SOL     OW 9473   4.031   3.787   4.342
 3152SOL    HW1 9474   4.020   3.881   4.375
 3152SOL    HW2 9475   4.026   3.724   4.419
 3153SOL     OW 9476   4.539   4.296   4.049
 3153SOL    HW1 9477   4.546   4.207   4.003
 3153SOL    HW2 9478   4.445   4.330   4.041
 3154SOL     OW 9479   4.197   4.224   3.915
 3154SOL    HW1 9480   4.258   4.304   3.919
 3154SOL    HW2 9481   4.102   4.255   3.922
 3155SOL     OW 9482   4.627   3.810   3.857
 3155SOL    HW1 9483   4.678   3.811   3.771
 3155SOL    HW2 9484   4.683   3.768   3.928
 3156SOL     OW 9485   3.987   4.050   4.444
 3156SOL    HW1 9486   3.908   4.101   4.410
 3156SOL    HW2 9487   3.978   4.035   4.542
 3157SOL     OW 9488   3.799   4.069   3.757
 3157SOL    HW1 9489   3.707   4.041   3.728
 3157SOL    HW2 9490   3.830   4.146   3.701
 3158SOL     OW 9491   3.796   3.890   4.042
 3158SOL    HW1 9492   3.779   3.973   3.988
 3158SOL    HW2 9493   3.886   3.853   4.020
 3159SOL     OW 9494   4.318   4.469   4.376
 3159SOL    HW1 9495   4.368   4.554   4.357
 3159SOL    HW2 9496   4.230   4.471   4.328
 3160SOL     OW 9497   4.152   4.148   4.244
 3160SOL    HW1 9498   4.182   4.076   4.182
 3160SOL    HW2 9499   4.113   4.108   4.327
   4.59343   4.59343   4.59343
