mobley_3746675_GMX.gro created by acpype (v: 2023.10.27) on Wed May 20 23:46:34 2026
   19
    1MOL     C1    1   2.360   2.365   2.083
    1MOL     C2    2   2.253   2.425   2.150
    1MOL     C3    3   2.465   2.309   2.155
    1MOL     C4    4   2.251   2.428   2.290
    1MOL     C5    5   2.463   2.312   2.295
    1MOL     C6    6   2.356   2.371   2.362
    1MOL     C7    7   2.294   2.474   2.577
    1MOL     C8    8   2.354   2.374   2.507
    1MOL     C9    9   2.424   2.263   2.584
    1MOL     H1   10   2.361   2.363   1.974
    1MOL     H2   11   2.171   2.469   2.094
    1MOL     H3   12   2.548   2.262   2.103
    1MOL     H4   13   2.167   2.475   2.341
    1MOL     H5   14   2.545   2.267   2.350
    1MOL     H6   15   2.294   2.476   2.686
    1MOL     H7   16   2.245   2.557   2.527
    1MOL     H8   17   2.533   2.272   2.576
    1MOL     H9   18   2.393   2.166   2.546
    1MOL    H10   19   2.400   2.265   2.691
   4.72472   4.72472   4.72472
