mobley_3274817_GMX.gro created by acpype (v: 2023.10.27) on Wed May 20 23:46:17 2026
11048
    1MOL     C1    1   2.401   2.383   2.275
    1MOL     C2    2   2.259   2.192   2.329
    1MOL     C3    3   2.385   2.435   2.405
    1MOL     C4    4   2.338   2.263   2.238
    1MOL     C5    5   2.243   2.243   2.459
    1MOL     C6    6   2.305   2.364   2.497
    1MOL     C7    7   2.670   2.456   2.527
    1MOL     C8    8   2.400   2.682   2.359
    1MOL     C9    9   2.608   2.558   2.432
    1MOL    C10   10   2.454   2.565   2.444
    1MOL     N1   11   2.357   2.211   2.102
    1MOL     N2   12   2.159   2.168   2.553
    1MOL     O1   13   2.428   2.276   2.024
    1MOL     O2   14   2.300   2.104   2.073
    1MOL     O3   15   2.107   2.063   2.513
    1MOL     O4   16   2.146   2.214   2.667
    1MOL     O5   17   2.293   2.419   2.622
    1MOL     H1   18   2.462   2.436   2.203
    1MOL     H2   19   2.211   2.099   2.300
    1MOL     H3   20   2.639   2.354   2.503
    1MOL     H4   21   2.779   2.461   2.520
    1MOL     H5   22   2.642   2.477   2.631
    1MOL     H6   23   2.425   2.671   2.253
    1MOL     H7   24   2.291   2.689   2.367
    1MOL     H8   25   2.442   2.777   2.394
    1MOL     H9   26   2.650   2.656   2.455
    1MOL    H10   27   2.639   2.534   2.329
    1MOL    H11   28   2.431   2.590   2.548
    1MOL    H12   29   2.236   2.363   2.679
    2SOL     OW   30   0.230   0.628   0.113
    2SOL    HW1   31   0.137   0.626   0.150
    2SOL    HW2   32   0.231   0.589   0.021
    3SOL     OW   33   0.225   0.275   0.996
    3SOL    HW1   34   0.260   0.258   1.088
    3SOL    HW2   35   0.137   0.230   0.984
    4SOL     OW   36   0.019   0.368   0.647
    4SOL    HW1   37  -0.063   0.411   0.686
    4SOL    HW2   38  -0.009   0.295   0.584
    5SOL     OW   39   0.569   1.275   1.165
    5SOL    HW1   40   0.476   1.268   1.128
    5SOL    HW2   41   0.580   1.364   1.209
    6SOL     OW   42   1.555   1.511   0.703
    6SOL    HW1   43   1.498   1.495   0.784
    6SOL    HW2   44   1.496   1.521   0.623
    7SOL     OW   45   1.135   0.703   0.717
    7SOL    HW1   46   1.192   0.781   0.692
    7SOL    HW2   47   1.075   0.729   0.793
    8SOL     OW   48   1.755   0.607   0.231
    8SOL    HW1   49   1.743   0.594   0.132
    8SOL    HW2   50   1.725   0.526   0.280
    9SOL     OW   51   0.768   1.144   1.023
    9SOL    HW1   52   0.690   1.161   1.083
    9SOL    HW2   53   0.802   1.231   0.987
   10SOL     OW   54   0.850   0.798   1.823
   10SOL    HW1   55   0.846   0.874   1.888
   10SOL    HW2   56   0.872   0.834   1.732
   11SOL     OW   57   0.685   1.012   0.665
   11SOL    HW1   58   0.754   0.996   0.735
   11SOL    HW2   59   0.612   1.069   0.703
   12SOL     OW   60   0.686   1.161   1.803
   12SOL    HW1   61   0.746   1.240   1.817
   12SOL    HW2   62   0.600   1.192   1.762
   13SOL     OW   63   0.335   1.435   1.061
   13SOL    HW1   64   0.257   1.404   1.008
   13SOL    HW2   65   0.393   1.493   1.004
   14SOL     OW   66   1.460   1.505   1.339
   14SOL    HW1   67   1.484   1.599   1.365
   14SOL    HW2   68   1.444   1.451   1.421
   15SOL     OW   69   0.438   0.392   1.499
   15SOL    HW1   70   0.520   0.336   1.508
   15SOL    HW2   71   0.357   0.334   1.503
   16SOL     OW   72   1.603   0.447   0.737
   16SOL    HW1   73   1.529   0.493   0.687
   16SOL    HW2   74   1.654   0.515   0.790
   17SOL     OW   75   0.231   1.713   0.483
   17SOL    HW1   76   0.265   1.790   0.537
   17SOL    HW2   77   0.275   1.713   0.393
   18SOL     OW   78   1.127   1.341   1.690
   18SOL    HW1   79   1.174   1.341   1.778
   18SOL    HW2   80   1.079   1.254   1.679
   19SOL     OW   81   0.230   1.434   0.538
   19SOL    HW1   82   0.204   1.530   0.538
   19SOL    HW2   83   0.159   1.380   0.583
   20SOL     OW   84   0.240   1.091   0.886
   20SOL    HW1   85   0.254   1.007   0.938
   20SOL    HW2   86   0.185   1.155   0.941
   21SOL     OW   87   0.620   1.786   1.439
   21SOL    HW1   88   0.528   1.769   1.474
   21SOL    HW2   89   0.648   1.878   1.465
   22SOL     OW   90   0.606   0.964   0.123
   22SOL    HW1   91   0.613   1.048   0.069
   22SOL    HW2   92   0.652   0.977   0.211
   23SOL     OW   93   1.594   0.114   1.480
   23SOL    HW1   94   1.576   0.181   1.408
   23SOL    HW2   95   1.591   0.160   1.569
   24SOL     OW   96   0.122   0.643   0.563
   24SOL    HW1   97   0.077   0.555   0.580
   24SOL    HW2   98   0.121   0.697   0.647
   25SOL     OW   99   1.842   1.767   0.359
   25SOL    HW1  100   1.896   1.738   0.439
   25SOL    HW2  101   1.872   1.857   0.330
   26SOL     OW  102   0.027   1.596   0.117
   26SOL    HW1  103   0.008   1.500   0.138
   26SOL    HW2  104  -0.006   1.654   0.192
   27SOL     OW  105   1.689   0.922   0.612
   27SOL    HW1  106   1.784   0.893   0.620
   27SOL    HW2  107   1.681   0.987   0.537
   28SOL     OW  108   1.641   1.108   0.432
   28SOL    HW1  109   1.727   1.110   0.380
   28SOL    HW2  110   1.655   1.155   0.520
   29SOL     OW  111   0.113   0.737   1.597
   29SOL    HW1  112   0.201   0.724   1.642
   29SOL    HW2  113   0.100   0.834   1.575
   30SOL     OW  114   0.613   1.365   0.726
   30SOL    HW1  115   0.564   1.278   0.735
   30SOL    HW2  116   0.590   1.408   0.639
   31SOL     OW  117   1.293   1.228   1.423
   31SOL    HW1  118   1.330   1.155   1.365
   31SOL    HW2  119   1.345   1.233   1.508
   32SOL     OW  120   0.809   0.004   0.502
   32SOL    HW1  121   0.849   0.095   0.493
   32SOL    HW2  122   0.709   0.012   0.508
   33SOL     OW  123   0.197   0.976   1.264
   33SOL    HW1  124   0.286   0.931   1.250
   33SOL    HW2  125   0.124   0.911   1.245
   34SOL     OW  126   1.525   0.999   0.190
   34SOL    HW1  127   1.462   0.923   0.203
   34SOL    HW2  128   1.573   1.017   0.276
   35SOL     OW  129   1.187   1.792   1.616
   35SOL    HW1  130   1.211   1.852   1.540
   35SOL    HW2  131   1.194   1.697   1.586
   36SOL     OW  132   0.317   0.251   1.801
   36SOL    HW1  133   0.388   0.322   1.807
   36SOL    HW2  134   0.229   0.290   1.829
   37SOL     OW  135   1.466   1.417   0.953
   37SOL    HW1  136   1.407   1.423   1.033
   37SOL    HW2  137   1.451   1.329   0.907
   38SOL     OW  138   1.667   1.714   0.572
   38SOL    HW1  139   1.626   1.691   0.484
   38SOL    HW2  140   1.649   1.640   0.637
   39SOL     OW  141   0.598   0.729   0.270
   39SOL    HW1  142   0.622   0.798   0.202
   39SOL    HW2  143   0.520   0.762   0.324
   40SOL     OW  144   1.281   0.345   0.944
   40SOL    HW1  145   1.195   0.295   0.931
   40SOL    HW2  146   1.343   0.291   1.000
   41SOL     OW  147   1.576   1.662   0.307
   41SOL    HW1  148   1.665   1.708   0.310
   41SOL    HW2  149   1.555   1.638   0.212
   42SOL     OW  150   0.807   0.605   1.465
   42SOL    HW1  151   0.760   0.602   1.554
   42SOL    HW2  152   0.756   0.550   1.399
   43SOL     OW  153   1.394   0.469   1.674
   43SOL    HW1  154   1.374   0.512   1.762
   43SOL    HW2  155   1.472   0.407   1.683
   44SOL     OW  156   0.973   0.890   1.572
   44SOL    HW1  157   1.019   0.806   1.543
   44SOL    HW2  158   0.917   0.924   1.497
   45SOL     OW  159   0.991   0.410   1.242
   45SOL    HW1  160   0.914   0.444   1.296
   45SOL    HW2  161   0.957   0.359   1.163
   46SOL     OW  162   1.041   0.701   0.429
   46SOL    HW1  163   1.067   0.697   0.525
   46SOL    HW2  164   0.956   0.650   0.415
   47SOL     OW  165   0.076   0.811   0.789
   47SOL    HW1  166   0.175   0.799   0.798
   47SOL    HW2  167   0.052   0.906   0.810
   48SOL     OW  168   0.130   1.821   1.571
   48SOL    HW1  169   0.120   1.806   1.670
   48SOL    HW2  170   0.044   1.857   1.535
   49SOL     OW  171   0.865   0.348   0.195
   49SOL    HW1  172   0.924   0.411   0.146
   49SOL    HW2  173   0.884   0.254   0.166
   50SOL     OW  174   1.719   0.585   1.831
   50SOL    HW1  175   1.693   0.674   1.795
   50SOL    HW2  176   1.717   0.517   1.758
   51SOL     OW  177   1.362   1.144   0.545
   51SOL    HW1  178   1.445   1.115   0.497
   51SOL    HW2  179   1.313   1.211   0.489
   52SOL     OW  180   0.550   0.196   0.885
   52SOL    HW1  181   0.545   0.191   0.985
   52SOL    HW2  182   0.552   0.292   0.856
   53SOL     OW  183   1.008   1.456   0.477
   53SOL    HW1  184   0.962   1.528   0.425
   53SOL    HW2  185   1.004   1.476   0.575
   54SOL     OW  186   0.351   1.801   0.853
   54SOL    HW1  187   0.401   1.715   0.859
   54SOL    HW2  188   0.416   1.878   0.850
   55SOL     OW  189   1.795   1.066   0.873
   55SOL    HW1  190   1.733   1.051   0.797
   55SOL    HW2  191   1.743   1.077   0.958
   56SOL     OW  192   1.227   1.550   1.506
   56SOL    HW1  193   1.233   1.473   1.570
   56SOL    HW2  194   1.175   1.524   1.426
   57SOL     OW  195   0.321   0.943   0.242
   57SOL    HW1  196   0.403   0.982   0.200
   57SOL    HW2  197   0.294   0.861   0.193
   58SOL     OW  198   1.458   0.735   0.728
   58SOL    HW1  199   1.453   0.670   0.803
   58SOL    HW2  200   1.538   0.794   0.741
   59SOL     OW  201   0.461   1.266   1.727
   59SOL    HW1  202   0.411   1.267   1.641
   59SOL    HW2  203   0.398   1.248   1.803
   60SOL     OW  204   1.111   1.776   0.237
   60SOL    HW1  205   1.051   1.714   0.287
   60SOL    HW2  206   1.142   1.732   0.152
   61SOL     OW  207   0.202   0.285   1.498
   61SOL    HW1  208   0.122   0.345   1.485
   61SOL    HW2  209   0.192   0.236   1.584
   62SOL     OW  210   1.632   1.377   0.081
   62SOL    HW1  211   1.600   1.471   0.071
   62SOL    HW2  212   1.556   1.314   0.069
   63SOL     OW  213   0.464   1.743   0.323
   63SOL    HW1  214   0.497   1.782   0.409
   63SOL    HW2  215   0.540   1.736   0.258
   64SOL     OW  216   1.400   0.107   0.426
   64SOL    HW1  217   1.376   0.070   0.336
   64SOL    HW2  218   1.499   0.123   0.430
   65SOL     OW  219   0.249   1.785   1.241
   65SOL    HW1  220   0.306   1.720   1.291
   65SOL    HW2  221   0.233   1.752   1.148
   66SOL     OW  222   0.940   1.698   0.904
   66SOL    HW1  223   1.020   1.641   0.925
   66SOL    HW2  224   0.891   1.658   0.827
   67SOL     OW  225   0.382   0.700   0.480
   67SOL    HW1  226   0.427   0.610   0.477
   67SOL    HW2  227   0.288   0.689   0.513
   68SOL     OW  228   1.547   0.222   1.729
   68SOL    HW1  229   1.542   0.259   1.821
   68SOL    HW2  230   1.475   0.153   1.717
   69SOL     OW  231   0.614   0.122   0.117
   69SOL    HW1  232   0.712   0.100   0.124
   69SOL    HW2  233   0.583   0.105   0.024
   70SOL     OW  234   0.781   0.264   1.749
   70SOL    HW1  235   0.848   0.203   1.792
   70SOL    HW2  236   0.708   0.283   1.814
   71SOL     OW  237   0.888   1.514   1.195
   71SOL    HW1  238   0.865   1.489   1.101
   71SOL    HW2  239   0.949   1.445   1.234
   72SOL     OW  240   1.351   0.590   1.433
   72SOL    HW1  241   1.379   0.547   1.518
   72SOL    HW2  242   1.376   0.686   1.434
   73SOL     OW  243   0.803   1.402   0.924
   73SOL    HW1  244   0.893   1.416   0.882
   73SOL    HW2  245   0.732   1.404   0.853
   74SOL     OW  246   0.922   0.503   0.899
   74SOL    HW1  247   0.897   0.494   0.803
   74SOL    HW2  248   0.970   0.421   0.930
   75SOL     OW  249   0.539   0.064   0.512
   75SOL    HW1  250   0.458   0.065   0.570
   75SOL    HW2  251   0.542   0.147   0.457
   76SOL     OW  252   1.434   1.188   0.041
   76SOL    HW1  253   1.466   1.112   0.098
   76SOL    HW2  254   1.342   1.215   0.071
   77SOL     OW  255   0.297   0.035   0.171
   77SOL    HW1  256   0.346   0.119   0.150
   77SOL    HW2  257   0.359  -0.030   0.216
   78SOL     OW  258   0.935   0.236   0.480
   78SOL    HW1  259   0.887   0.277   0.402
   78SOL    HW2  260   1.034   0.234   0.461
   79SOL     OW  261   1.076   0.683   1.464
   79SOL    HW1  262   0.996   0.622   1.467
   79SOL    HW2  263   1.157   0.630   1.440
   80SOL     OW  264   1.227   1.570   0.793
   80SOL    HW1  265   1.248   1.644   0.728
   80SOL    HW2  266   1.295   1.570   0.866
   81SOL     OW  267   0.459   1.152   0.741
   81SOL    HW1  268   0.388   1.125   0.806
   81SOL    HW2  269   0.433   1.124   0.648
   82SOL     OW  270   1.271   1.797   0.591
   82SOL    HW1  271   1.315   1.861   0.527
   82SOL    HW2  272   1.221   1.849   0.661
   83SOL     OW  273   1.032   0.549   0.016
   83SOL    HW1  274   0.991   0.631  -0.023
   83SOL    HW2  275   1.096   0.575   0.089
   84SOL     OW  276   0.078   0.556   1.386
   84SOL    HW1  277   0.170   0.555   1.345
   84SOL    HW2  278   0.072   0.630   1.453
   85SOL     OW  279   0.561   0.222   1.147
   85SOL    HW1  280   0.599   0.138   1.184
   85SOL    HW2  281   0.473   0.241   1.191
   86SOL     OW  282   0.866   0.454   0.642
   86SOL    HW1  283   0.834   0.526   0.580
   86SOL    HW2  284   0.890   0.373   0.589
   87SOL     OW  285   1.017   0.039   0.753
   87SOL    HW1  286   0.945   0.044   0.684
   87SOL    HW2  287   0.993  -0.030   0.822
   88SOL     OW  288   1.429   1.173   0.867
   88SOL    HW1  289   1.374   1.089   0.860
   88SOL    HW2  290   1.455   1.202   0.775
   89SOL     OW  291   1.466   0.590   0.992
   89SOL    HW1  292   1.436   0.495   0.999
   89SOL    HW2  293   1.539   0.606   1.058
   90SOL     OW  294   1.857   0.833   0.377
   90SOL    HW1  295   1.899   0.769   0.441
   90SOL    HW2  296   1.819   0.782   0.299
   91SOL     OW  297   0.488   1.385   0.174
   91SOL    HW1  298   0.401   1.370   0.221
   91SOL    HW2  299   0.471   1.411   0.079
   92SOL     OW  300   1.664   1.280   0.657
   92SOL    HW1  301   1.763   1.288   0.671
   92SOL    HW2  302   1.619   1.364   0.688
   93SOL     OW  303   1.390   0.575   0.078
   93SOL    HW1  304   1.336   0.554   0.159
   93SOL    HW2  305   1.481   0.534   0.087
   94SOL     OW  306   0.527   0.256   0.328
   94SOL    HW1  307   0.554   0.197   0.253
   94SOL    HW2  308   0.527   0.351   0.297
   95SOL     OW  309   1.754   1.223   1.588
   95SOL    HW1  310   1.845   1.184   1.575
   95SOL    HW2  311   1.762   1.319   1.612
   96SOL     OW  312   1.064   1.347   1.340
   96SOL    HW1  313   0.984   1.324   1.395
   96SOL    HW2  314   1.147   1.321   1.389
   97SOL     OW  315   1.592   1.629   1.625
   97SOL    HW1  316   1.619   1.663   1.535
   97SOL    HW2  317   1.671   1.591   1.671
   98SOL     OW  318   1.111   1.195   1.100
   98SOL    HW1  319   1.071   1.239   1.181
   98SOL    HW2  320   1.070   1.232   1.017
   99SOL     OW  321   1.638   1.099   1.079
   99SOL    HW1  322   1.643   1.180   1.138
   99SOL    HW2  323   1.552   1.101   1.028
  100SOL     OW  324   0.915   0.089   1.402
  100SOL    HW1  325   0.940   0.069   1.307
  100SOL    HW2  326   0.987   0.145   1.444
  101SOL     OW  327   0.980   1.116   1.719
  101SOL    HW1  328   0.881   1.122   1.729
  101SOL    HW2  329   1.003   1.036   1.663
  102SOL     OW  330   0.705   1.050   0.368
  102SOL    HW1  331   0.691   1.057   0.467
  102SOL    HW2  332   0.789   0.999   0.350
  103SOL     OW  333   0.410   0.813   1.251
  103SOL    HW1  334   0.496   0.825   1.301
  103SOL    HW2  335   0.368   0.726   1.278
  104SOL     OW  336   1.274   0.386   1.262
  104SOL    HW1  337   1.295   0.460   1.326
  104SOL    HW2  338   1.185   0.403   1.219
  105SOL     OW  339   0.064   1.564   1.331
  105SOL    HW1  340   0.018   1.646   1.297
  105SOL    HW2  341   0.162   1.583   1.340
  106SOL     OW  342   0.367   1.100   0.501
  106SOL    HW1  343   0.360   1.183   0.445
  106SOL    HW2  344   0.371   1.020   0.441
  107SOL     OW  345   0.566   0.537   0.865
  107SOL    HW1  346   0.578   0.603   0.791
  107SOL    HW2  347   0.612   0.571   0.948
  108SOL     OW  348   1.252   1.348   0.388
  108SOL    HW1  349   1.302   1.425   0.428
  108SOL    HW2  350   1.157   1.350   0.420
  109SOL     OW  351   1.272   1.445   1.142
  109SOL    HW1  352   1.319   1.458   1.229
  109SOL    HW2  353   1.206   1.371   1.151
  110SOL     OW  354   1.582   0.639   0.472
  110SOL    HW1  355   1.551   0.700   0.545
  110SOL    HW2  356   1.632   0.691   0.403
  111SOL     OW  357   0.354   1.510   1.329
  111SOL    HW1  358   0.333   1.466   1.242
  111SOL    HW2  359   0.451   1.536   1.332
  112SOL     OW  360   0.402   0.751   1.598
  112SOL    HW1  361   0.470   0.806   1.551
  112SOL    HW2  362   0.442   0.663   1.625
  113SOL     OW  363   1.587   0.779   1.670
  113SOL    HW1  364   1.495   0.817   1.665
  113SOL    HW2  365   1.647   0.826   1.605
  114SOL     OW  366   1.013   0.105   1.770
  114SOL    HW1  367   1.019   0.190   1.718
  114SOL    HW2  368   1.045   0.029   1.713
  115SOL     OW  369   0.504   0.050   1.740
  115SOL    HW1  370   0.462  -0.007   1.670
  115SOL    HW2  371   0.438   0.119   1.772
  116SOL     OW  372   0.573   0.870   1.029
  116SOL    HW1  373   0.617   0.959   1.020
  116SOL    HW2  374   0.510   0.870   1.106
  117SOL     OW  375   1.360   0.862   1.045
  117SOL    HW1  376   1.285   0.862   0.979
  117SOL    HW2  377   1.397   0.770   1.054
  118SOL     OW  378   1.209   0.525   0.275
  118SOL    HW1  379   1.222   0.441   0.329
  118SOL    HW2  380   1.180   0.599   0.335
  119SOL     OW  381   0.307   0.213   1.231
  119SOL    HW1  382   0.284   0.250   1.321
  119SOL    HW2  383   0.277   0.118   1.225
  120SOL     OW  384   0.037   1.310   1.282
  120SOL    HW1  385   0.090   1.261   1.350
  120SOL    HW2  386   0.059   1.408   1.287
  121SOL     OW  387   0.732   0.634   1.064
  121SOL    HW1  388   0.791   0.608   0.988
  121SOL    HW2  389   0.704   0.730   1.053
  122SOL     OW  390   1.728   0.935   1.854
  122SOL    HW1  391   1.682   0.928   1.765
  122SOL    HW2  392   1.666   0.979   1.920
  123SOL     OW  393   0.307   0.063   0.618
  123SOL    HW1  394   0.296   0.157   0.651
  123SOL    HW2  395   0.302   0.000   0.695
  124SOL     OW  396   1.622   0.367   0.374
  124SOL    HW1  397   1.624   0.291   0.438
  124SOL    HW2  398   1.574   0.444   0.414
  125SOL     OW  399   1.023   0.766   0.966
  125SOL    HW1  400   1.038   0.787   1.062
  125SOL    HW2  401   0.993   0.671   0.957
  126SOL     OW  402   0.980   1.573   1.700
  126SOL    HW1  403   0.960   1.617   1.612
  126SOL    HW2  404   1.019   1.482   1.684
  127SOL     OW  405   1.859   1.518   1.605
  127SOL    HW1  406   1.873   1.545   1.510
  127SOL    HW2  407   1.942   1.540   1.658
  128SOL     OW  408   0.350   0.898   1.804
  128SOL    HW1  409   0.426   0.942   1.852
  128SOL    HW2  410   0.385   0.851   1.722
  129SOL     OW  411   1.540   0.274   0.125
  129SOL    HW1  412   1.479   0.199   0.148
  129SOL    HW2  413   1.562   0.326   0.208
  130SOL     OW  414   1.303   0.838   0.042
  130SOL    HW1  415   1.337   0.745   0.057
  130SOL    HW2  416   1.321   0.865  -0.053
  131SOL     OW  417   1.068   1.333   0.849
  131SOL    HW1  418   1.075   1.249   0.794
  131SOL    HW2  419   1.130   1.402   0.813
  132SOL     OW  420   0.319   0.810   0.949
  132SOL    HW1  421   0.412   0.846   0.954
  132SOL    HW2  422   0.313   0.725   1.001
  133SOL     OW  423   0.339   0.509   1.006
  133SOL    HW1  424   0.287   0.426   0.989
  133SOL    HW2  425   0.416   0.514   0.942
  134SOL     OW  426   1.138   0.380   1.678
  134SOL    HW1  427   1.093   0.443   1.742
  134SOL    HW2  428   1.231   0.411   1.661
  135SOL     OW  429   1.160   0.207   1.477
  135SOL    HW1  430   1.160   0.271   1.554
  135SOL    HW2  431   1.188   0.255   1.394
  136SOL     OW  432   0.008   1.326   0.200
  136SOL    HW1  433  -0.085   1.347   0.169
  136SOL    HW2  434   0.018   1.227   0.213
  137SOL     OW  435   0.088   1.801   0.927
  137SOL    HW1  436   0.046   1.715   0.900
  137SOL    HW2  437   0.182   1.804   0.893
  138SOL     OW  438   0.504   1.568   0.910
  138SOL    HW1  439   0.570   1.642   0.919
  138SOL    HW2  440   0.548   1.489   0.868
  139SOL     OW  441   1.002   0.796   1.238
  139SOL    HW1  442   1.043   0.764   1.324
  139SOL    HW2  443   0.906   0.769   1.235
  140SOL     OW  444   0.040   0.544   1.114
  140SOL    HW1  445   0.125   0.511   1.073
  140SOL    HW2  446   0.053   0.559   1.212
  141SOL     OW  447   0.189   0.520   1.722
  141SOL    HW1  448   0.248   0.480   1.652
  141SOL    HW2  449   0.131   0.591   1.681
  142SOL     OW  450   1.369   0.950   1.660
  142SOL    HW1  451   1.408   1.039   1.680
  142SOL    HW2  452   1.379   0.930   1.563
  143SOL     OW  453   0.815   0.572   0.325
  143SOL    HW1  454   0.822   0.483   0.279
  143SOL    HW2  455   0.721   0.606   0.317
  144SOL     OW  456   1.657   0.604   1.206
  144SOL    HW1  457   1.619   0.535   1.268
  144SOL    HW2  458   1.739   0.568   1.162
  145SOL     OW  459   0.252   1.564   1.744
  145SOL    HW1  460   0.222   1.621   1.820
  145SOL    HW2  461   0.245   1.467   1.770
  146SOL     OW  462   0.671   0.464   1.269
  146SOL    HW1  463   0.637   0.375   1.239
  146SOL    HW2  464   0.697   0.518   1.189
  147SOL     OW  465   0.930   1.678   1.465
  147SOL    HW1  466   0.906   1.660   1.370
  147SOL    HW2  467   0.960   1.772   1.475
  148SOL     OW  468   0.473   0.500   0.191
  148SOL    HW1  469   0.534   0.580   0.195
  148SOL    HW2  470   0.378   0.531   0.198
  149SOL     OW  471   0.159   1.137   1.466
  149SOL    HW1  472   0.181   1.076   1.542
  149SOL    HW2  473   0.169   1.088   1.380
  150SOL     OW  474   1.347   1.059   1.234
  150SOL    HW1  475   1.371   0.996   1.160
  150SOL    HW2  476   1.257   1.099   1.216
  151SOL     OW  477   1.302   0.855   0.309
  151SOL    HW1  478   1.216   0.824   0.351
  151SOL    HW2  479   1.298   0.841   0.210
  152SOL     OW  480   1.759   1.747   1.154
  152SOL    HW1  481   1.820   1.777   1.081
  152SOL    HW2  482   1.721   1.658   1.132
  153SOL     OW  483   1.252   1.731   1.128
  153SOL    HW1  484   1.336   1.736   1.074
  153SOL    HW2  485   1.229   1.635   1.146
  154SOL     OW  486   0.083   1.258   1.022
  154SOL    HW1  487   0.078   1.257   1.122
  154SOL    HW2  488   0.000   1.217   0.984
  155SOL     OW  489   0.688   1.662   1.716
  155SOL    HW1  490   0.632   1.743   1.725
  155SOL    HW2  491   0.740   1.666   1.630
  156SOL     OW  492   0.903   0.086   0.133
  156SOL    HW1  493   0.954   0.087   0.047
  156SOL    HW2  494   0.959   0.044   0.204
  157SOL     OW  495   1.726   0.135   0.523
  157SOL    HW1  496   1.799   0.118   0.456
  157SOL    HW2  497   1.695   0.048   0.561
  158SOL     OW  498   1.388   1.573   0.477
  158SOL    HW1  499   1.455   1.585   0.403
  158SOL    HW2  500   1.348   1.662   0.500
  159SOL     OW  501   0.130   1.794   1.851
  159SOL    HW1  502   0.089   1.720   1.904
  159SOL    HW2  503   0.194   1.845   1.909
  160SOL     OW  504   1.280   0.927   0.672
  160SOL    HW1  505   1.340   0.846   0.674
  160SOL    HW2  506   1.320   0.996   0.612
  161SOL     OW  507   0.830   1.273   1.422
  161SOL    HW1  508   0.825   1.306   1.517
  161SOL    HW2  509   0.744   1.292   1.376
  162SOL     OW  510   0.672   1.616   0.154
  162SOL    HW1  511   0.681   1.626   0.055
  162SOL    HW2  512   0.632   1.527   0.175
  163SOL     OW  513   1.650   1.720   1.394
  163SOL    HW1  514   1.703   1.730   1.310
  163SOL    HW2  515   1.623   1.810   1.428
  164SOL     OW  516   1.841   0.175   0.963
  164SOL    HW1  517   1.880   0.090   0.927
  164SOL    HW2  518   1.743   0.177   0.944
  165SOL     OW  519   0.263   0.326   0.720
  165SOL    HW1  520   0.184   0.377   0.686
  165SOL    HW2  521   0.254   0.311   0.818
  166SOL     OW  522   1.194   1.612   0.031
  166SOL    HW1  523   1.200   1.519   0.068
  166SOL    HW2  524   1.135   1.612  -0.049
  167SOL     OW  525   0.822   1.002   1.372
  167SOL    HW1  526   0.862   1.001   1.280
  167SOL    HW2  527   0.832   1.094   1.412
  168SOL     OW  528   0.916   0.910   0.291
  168SOL    HW1  529   0.979   0.948   0.223
  168SOL    HW2  530   0.956   0.827   0.330
  169SOL     OW  531   1.504   1.607   0.044
  169SOL    HW1  532   1.412   1.644   0.051
  169SOL    HW2  533   1.542   1.627  -0.046
  170SOL     OW  534   0.372   1.288   1.490
  170SOL    HW1  535   0.359   1.381   1.456
  170SOL    HW2  536   0.288   1.236   1.477
  171SOL     OW  537   1.614   1.292   1.289
  171SOL    HW1  538   1.674   1.295   1.369
  171SOL    HW2  539   1.539   1.356   1.302
  172SOL     OW  540   1.039   1.098   0.696
  172SOL    HW1  541   0.969   1.051   0.750
  172SOL    HW2  542   1.098   1.030   0.653
  173SOL     OW  543   1.014   0.236   0.971
  173SOL    HW1  544   1.006   0.200   0.878
  173SOL    HW2  545   1.012   0.160   1.036
  174SOL     OW  546   0.590   1.487   0.491
  174SOL    HW1  547   0.632   1.429   0.421
  174SOL    HW2  548   0.546   1.566   0.447
  175SOL     OW  549   1.709   0.385   1.381
  175SOL    HW1  550   1.782   0.454   1.385
  175SOL    HW2  551   1.737   0.310   1.322
  176SOL     OW  552   0.255   1.348   0.290
  176SOL    HW1  553   0.159   1.349   0.263
  176SOL    HW2  554   0.267   1.401   0.374
  177SOL     OW  555   0.105   1.013   1.726
  177SOL    HW1  556   0.028   0.980   1.780
  177SOL    HW2  557   0.190   0.983   1.768
  178SOL     OW  558   0.672   0.203   1.489
  178SOL    HW1  559   0.762   0.187   1.449
  178SOL    HW2  560   0.680   0.208   1.588
  179SOL     OW  561   0.075   0.345   0.033
  179SOL    HW1  562  -0.017   0.317   0.004
  179SOL    HW2  563   0.106   0.422  -0.023
  180SOL     OW  564   1.440   0.856   1.398
  180SOL    HW1  565   1.383   0.908   1.335
  180SOL    HW2  566   1.536   0.868   1.374
  181SOL     OW  567   0.072   0.166   0.318
  181SOL    HW1  568   0.055   0.249   0.264
  181SOL    HW2  569   0.162   0.129   0.296
  182SOL     OW  570   1.183   1.335   0.119
  182SOL    HW1  571   1.084   1.324   0.121
  182SOL    HW2  572   1.217   1.350   0.212
  183SOL     OW  573   0.613   0.842   1.431
  183SOL    HW1  574   0.669   0.923   1.414
  183SOL    HW2  575   0.672   0.762   1.434
  184SOL     OW  576   1.493   1.767   0.959
  184SOL    HW1  577   1.526   1.831   0.890
  184SOL    HW2  578   1.559   1.761   1.034
  185SOL     OW  579   0.716   0.565   1.708
  185SOL    HW1  580   0.735   0.630   1.782
  185SOL    HW2  581   0.776   0.485   1.717
  186SOL     OW  582   1.450   1.220   1.633
  186SOL    HW1  583   1.441   1.210   1.732
  186SOL    HW2  584   1.546   1.213   1.607
  187SOL     OW  585   0.390   1.741   1.560
  187SOL    HW1  586   0.299   1.782   1.558
  187SOL    HW2  587   0.383   1.647   1.592
  188SOL     OW  588   1.674   0.883   1.254
  188SOL    HW1  589   1.647   0.794   1.217
  188SOL    HW2  590   1.675   0.951   1.181
  189SOL     OW  591   1.225   0.325   0.449
  189SOL    HW1  592   1.290   0.251   0.438
  189SOL    HW2  593   1.245   0.375   0.533
  190SOL     OW  594   0.594   0.745   0.652
  190SOL    HW1  595   0.644   0.830   0.633
  190SOL    HW2  596   0.506   0.747   0.604
  191SOL     OW  597   1.777   0.342   1.642
  191SOL    HW1  598   1.760   0.373   1.548
  191SOL    HW2  599   1.693   0.305   1.680
  192SOL     OW  600   1.730   0.934   1.517
  192SOL    HW1  601   1.768   1.025   1.532
  192SOL    HW2  602   1.722   0.917   1.418
  193SOL     OW  603   0.859   1.374   0.016
  193SOL    HW1  604   0.813   1.389   0.104
  193SOL    HW2  605   0.903   1.459  -0.014
  194SOL     OW  606   0.661   1.790   0.953
  194SOL    HW1  607   0.615   1.878   0.940
  194SOL    HW2  608   0.760   1.802   0.946
  195SOL     OW  609   0.859   0.956   0.861
  195SOL    HW1  610   0.913   0.887   0.909
  195SOL    HW2  611   0.827   1.025   0.927
  196SOL     OW  612   1.083   0.984   0.087
  196SOL    HW1  613   1.060   1.037   0.005
  196SOL    HW2  614   1.164   0.928   0.068
  197SOL     OW  615   1.861   1.569   0.851
  197SOL    HW1  616   1.790   1.557   0.781
  197SOL    HW2  617   1.862   1.490   0.911
  198SOL     OW  618   0.221   1.314   1.844
  198SOL    HW1  619   0.156   1.241   1.823
  198SOL    HW2  620   0.225   1.328   1.942
  199SOL     OW  621   0.079   1.240   0.653
  199SOL    HW1  622   0.078   1.193   0.741
  199SOL    HW2  623   0.161   1.212   0.602
  200SOL     OW  624   0.672   1.391   1.624
  200SOL    HW1  625   0.594   1.341   1.662
  200SOL    HW2  626   0.669   1.486   1.655
  201SOL     OW  627   1.824   0.192   1.227
  201SOL    HW1  628   1.820   0.102   1.271
  201SOL    HW2  629   1.827   0.181   1.128
  202SOL     OW  630   0.428   0.424   0.520
  202SOL    HW1  631   0.458   0.352   0.458
  202SOL    HW2  632   0.389   0.384   0.603
  203SOL     OW  633   1.705   1.487   1.104
  203SOL    HW1  634   1.612   1.462   1.077
  203SOL    HW2  635   1.731   1.437   1.186
  204SOL     OW  636   0.317   0.547   1.280
  204SOL    HW1  637   0.355   0.488   1.352
  204SOL    HW2  638   0.357   0.521   1.192
  205SOL     OW  639   0.812   1.586   0.687
  205SOL    HW1  640   0.844   1.596   0.593
  205SOL    HW2  641   0.733   1.524   0.689
  206SOL     OW  642   1.424   0.214   1.112
  206SOL    HW1  643   1.476   0.149   1.167
  206SOL    HW2  644   1.375   0.277   1.173
  207SOL     OW  645   1.001   0.034   1.154
  207SOL    HW1  646   0.938  -0.038   1.123
  207SOL    HW2  647   1.094  -0.002   1.154
  208SOL     OW  648   0.770   1.330   0.301
  208SOL    HW1  649   0.724   1.243   0.318
  208SOL    HW2  650   0.861   1.327   0.342
  209SOL     OW  651   0.618   1.567   1.284
  209SOL    HW1  652   0.613   1.649   1.341
  209SOL    HW2  653   0.707   1.564   1.239
  210SOL     OW  654   1.352   0.052   0.168
  210SOL    HW1  655   1.387   0.011   0.084
  210SOL    HW2  656   1.262   0.014   0.188
  211SOL     OW  657   1.300   0.453   0.691
  211SOL    HW1  658   1.241   0.533   0.695
  211SOL    HW2  659   1.315   0.418   0.784
  212SOL     OW  660   1.593   0.221   0.882
  212SOL    HW1  661   1.509   0.220   0.936
  212SOL    HW2  662   1.595   0.304   0.826
  213SOL     OW  663   0.039   1.077   0.300
  213SOL    HW1  664   0.138   1.066   0.291
  213SOL    HW2  665  -0.001   0.991   0.332
  214SOL     OW  666   0.875   1.646   0.337
  214SOL    HW1  667   0.798   1.611   0.283
  214SOL    HW2  668   0.843   1.717   0.399
  215SOL     OW  669   0.230   0.628   1.975
  215SOL    HW1  670   0.137   0.626   2.012
  215SOL    HW2  671   0.231   0.589   1.883
  216SOL     OW  672   0.225   0.275   2.858
  216SOL    HW1  673   0.260   0.258   2.950
  216SOL    HW2  674   0.137   0.230   2.846
  217SOL     OW  675   0.019   0.368   2.509
  217SOL    HW1  676  -0.063   0.411   2.548
  217SOL    HW2  677  -0.009   0.295   2.446
  218SOL     OW  678   0.569   1.275   3.027
  218SOL    HW1  679   0.476   1.268   2.990
  218SOL    HW2  680   0.580   1.364   3.071
  219SOL     OW  681   1.555   1.511   2.565
  219SOL    HW1  682   1.498   1.495   2.646
  219SOL    HW2  683   1.496   1.521   2.485
  220SOL     OW  684   1.135   0.703   2.579
  220SOL    HW1  685   1.192   0.781   2.554
  220SOL    HW2  686   1.075   0.729   2.655
  221SOL     OW  687   1.755   0.607   2.093
  221SOL    HW1  688   1.743   0.594   1.994
  221SOL    HW2  689   1.725   0.526   2.142
  222SOL     OW  690   0.768   1.144   2.885
  222SOL    HW1  691   0.690   1.161   2.945
  222SOL    HW2  692   0.802   1.231   2.849
  223SOL     OW  693   0.850   0.798   3.685
  223SOL    HW1  694   0.846   0.874   3.750
  223SOL    HW2  695   0.872   0.834   3.594
  224SOL     OW  696   0.685   1.012   2.527
  224SOL    HW1  697   0.754   0.996   2.597
  224SOL    HW2  698   0.612   1.069   2.565
  225SOL     OW  699   0.686   1.161   3.665
  225SOL    HW1  700   0.746   1.240   3.679
  225SOL    HW2  701   0.600   1.192   3.624
  226SOL     OW  702   0.335   1.435   2.923
  226SOL    HW1  703   0.257   1.404   2.870
  226SOL    HW2  704   0.393   1.493   2.866
  227SOL     OW  705   1.460   1.505   3.201
  227SOL    HW1  706   1.484   1.599   3.227
  227SOL    HW2  707   1.444   1.451   3.283
  228SOL     OW  708   0.438   0.392   3.361
  228SOL    HW1  709   0.520   0.336   3.370
  228SOL    HW2  710   0.357   0.334   3.365
  229SOL     OW  711   1.603   0.447   2.599
  229SOL    HW1  712   1.529   0.493   2.549
  229SOL    HW2  713   1.654   0.515   2.652
  230SOL     OW  714   0.231   1.713   2.345
  230SOL    HW1  715   0.265   1.790   2.399
  230SOL    HW2  716   0.275   1.713   2.255
  231SOL     OW  717   1.127   1.341   3.552
  231SOL    HW1  718   1.174   1.341   3.640
  231SOL    HW2  719   1.079   1.254   3.541
  232SOL     OW  720   0.230   1.434   2.400
  232SOL    HW1  721   0.204   1.530   2.400
  232SOL    HW2  722   0.159   1.380   2.445
  233SOL     OW  723   0.240   1.091   2.748
  233SOL    HW1  724   0.254   1.007   2.800
  233SOL    HW2  725   0.185   1.155   2.803
  234SOL     OW  726   0.620   1.786   3.301
  234SOL    HW1  727   0.528   1.769   3.336
  234SOL    HW2  728   0.648   1.878   3.327
  235SOL     OW  729   0.606   0.964   1.985
  235SOL    HW1  730   0.613   1.048   1.931
  235SOL    HW2  731   0.652   0.977   2.073
  236SOL     OW  732   1.594   0.114   3.342
  236SOL    HW1  733   1.576   0.181   3.270
  236SOL    HW2  734   1.591   0.160   3.431
  237SOL     OW  735   0.122   0.643   2.425
  237SOL    HW1  736   0.077   0.555   2.442
  237SOL    HW2  737   0.121   0.697   2.509
  238SOL     OW  738   1.842   1.767   2.221
  238SOL    HW1  739   1.896   1.738   2.301
  238SOL    HW2  740   1.872   1.857   2.192
  239SOL     OW  741   0.027   1.596   1.979
  239SOL    HW1  742   0.008   1.500   2.000
  239SOL    HW2  743  -0.006   1.654   2.054
  240SOL     OW  744   1.689   0.922   2.474
  240SOL    HW1  745   1.784   0.893   2.482
  240SOL    HW2  746   1.681   0.987   2.399
  241SOL     OW  747   1.641   1.108   2.294
  241SOL    HW1  748   1.727   1.110   2.242
  241SOL    HW2  749   1.655   1.155   2.382
  242SOL     OW  750   0.113   0.737   3.459
  242SOL    HW1  751   0.201   0.724   3.504
  242SOL    HW2  752   0.100   0.834   3.437
  243SOL     OW  753   0.613   1.365   2.588
  243SOL    HW1  754   0.564   1.278   2.597
  243SOL    HW2  755   0.590   1.408   2.501
  244SOL     OW  756   1.293   1.228   3.285
  244SOL    HW1  757   1.330   1.155   3.227
  244SOL    HW2  758   1.345   1.233   3.370
  245SOL     OW  759   0.809   0.004   2.364
  245SOL    HW1  760   0.849   0.095   2.355
  245SOL    HW2  761   0.709   0.012   2.370
  246SOL     OW  762   0.197   0.976   3.126
  246SOL    HW1  763   0.286   0.931   3.112
  246SOL    HW2  764   0.124   0.911   3.107
  247SOL     OW  765   1.525   0.999   2.052
  247SOL    HW1  766   1.462   0.923   2.065
  247SOL    HW2  767   1.573   1.017   2.138
  248SOL     OW  768   1.187   1.792   3.478
  248SOL    HW1  769   1.211   1.852   3.402
  248SOL    HW2  770   1.194   1.697   3.448
  249SOL     OW  771   0.317   0.251   3.663
  249SOL    HW1  772   0.388   0.322   3.669
  249SOL    HW2  773   0.229   0.290   3.691
  250SOL     OW  774   1.466   1.417   2.815
  250SOL    HW1  775   1.407   1.423   2.895
  250SOL    HW2  776   1.451   1.329   2.769
  251SOL     OW  777   1.667   1.714   2.434
  251SOL    HW1  778   1.626   1.691   2.346
  251SOL    HW2  779   1.649   1.640   2.499
  252SOL     OW  780   0.598   0.729   2.132
  252SOL    HW1  781   0.622   0.798   2.064
  252SOL    HW2  782   0.520   0.762   2.186
  253SOL     OW  783   1.281   0.345   2.806
  253SOL    HW1  784   1.195   0.295   2.793
  253SOL    HW2  785   1.343   0.291   2.862
  254SOL     OW  786   1.576   1.662   2.169
  254SOL    HW1  787   1.665   1.708   2.172
  254SOL    HW2  788   1.555   1.638   2.074
  255SOL     OW  789   0.807   0.605   3.327
  255SOL    HW1  790   0.760   0.602   3.416
  255SOL    HW2  791   0.756   0.550   3.261
  256SOL     OW  792   1.394   0.469   3.536
  256SOL    HW1  793   1.374   0.512   3.624
  256SOL    HW2  794   1.472   0.407   3.545
  257SOL     OW  795   0.973   0.890   3.434
  257SOL    HW1  796   1.019   0.806   3.405
  257SOL    HW2  797   0.917   0.924   3.359
  258SOL     OW  798   0.991   0.410   3.104
  258SOL    HW1  799   0.914   0.444   3.158
  258SOL    HW2  800   0.957   0.359   3.025
  259SOL     OW  801   1.041   0.701   2.291
  259SOL    HW1  802   1.067   0.697   2.387
  259SOL    HW2  803   0.956   0.650   2.277
  260SOL     OW  804   0.076   0.811   2.651
  260SOL    HW1  805   0.175   0.799   2.660
  260SOL    HW2  806   0.052   0.906   2.672
  261SOL     OW  807   0.130   1.821   3.433
  261SOL    HW1  808   0.120   1.806   3.532
  261SOL    HW2  809   0.044   1.857   3.397
  262SOL     OW  810   0.865   0.348   2.057
  262SOL    HW1  811   0.924   0.411   2.008
  262SOL    HW2  812   0.884   0.254   2.028
  263SOL     OW  813   1.719   0.585   3.693
  263SOL    HW1  814   1.693   0.674   3.657
  263SOL    HW2  815   1.717   0.517   3.620
  264SOL     OW  816   1.362   1.144   2.407
  264SOL    HW1  817   1.445   1.115   2.359
  264SOL    HW2  818   1.313   1.211   2.351
  265SOL     OW  819   0.550   0.196   2.747
  265SOL    HW1  820   0.545   0.191   2.847
  265SOL    HW2  821   0.552   0.292   2.718
  266SOL     OW  822   1.008   1.456   2.339
  266SOL    HW1  823   0.962   1.528   2.287
  266SOL    HW2  824   1.004   1.476   2.437
  267SOL     OW  825   0.351   1.801   2.715
  267SOL    HW1  826   0.401   1.715   2.721
  267SOL    HW2  827   0.416   1.878   2.712
  268SOL     OW  828   1.795   1.066   2.735
  268SOL    HW1  829   1.733   1.051   2.659
  268SOL    HW2  830   1.743   1.077   2.820
  269SOL     OW  831   1.227   1.550   3.368
  269SOL    HW1  832   1.233   1.473   3.432
  269SOL    HW2  833   1.175   1.524   3.288
  270SOL     OW  834   0.321   0.943   2.104
  270SOL    HW1  835   0.403   0.982   2.062
  270SOL    HW2  836   0.294   0.861   2.055
  271SOL     OW  837   1.458   0.735   2.590
  271SOL    HW1  838   1.453   0.670   2.665
  271SOL    HW2  839   1.538   0.794   2.603
  272SOL     OW  840   0.461   1.266   3.589
  272SOL    HW1  841   0.411   1.267   3.503
  272SOL    HW2  842   0.398   1.248   3.665
  273SOL     OW  843   1.111   1.776   2.099
  273SOL    HW1  844   1.051   1.714   2.149
  273SOL    HW2  845   1.142   1.732   2.014
  274SOL     OW  846   0.202   0.285   3.360
  274SOL    HW1  847   0.122   0.345   3.347
  274SOL    HW2  848   0.192   0.236   3.446
  275SOL     OW  849   1.632   1.377   1.943
  275SOL    HW1  850   1.600   1.471   1.933
  275SOL    HW2  851   1.556   1.314   1.931
  276SOL     OW  852   0.464   1.743   2.185
  276SOL    HW1  853   0.497   1.782   2.271
  276SOL    HW2  854   0.540   1.736   2.120
  277SOL     OW  855   1.400   0.107   2.288
  277SOL    HW1  856   1.376   0.070   2.198
  277SOL    HW2  857   1.499   0.123   2.292
  278SOL     OW  858   0.249   1.785   3.103
  278SOL    HW1  859   0.306   1.720   3.153
  278SOL    HW2  860   0.233   1.752   3.010
  279SOL     OW  861   0.940   1.698   2.766
  279SOL    HW1  862   1.020   1.641   2.787
  279SOL    HW2  863   0.891   1.658   2.689
  280SOL     OW  864   0.382   0.700   2.342
  280SOL    HW1  865   0.427   0.610   2.339
  280SOL    HW2  866   0.288   0.689   2.375
  281SOL     OW  867   1.547   0.222   3.591
  281SOL    HW1  868   1.542   0.259   3.683
  281SOL    HW2  869   1.475   0.153   3.579
  282SOL     OW  870   0.614   0.122   1.979
  282SOL    HW1  871   0.712   0.100   1.986
  282SOL    HW2  872   0.583   0.105   1.886
  283SOL     OW  873   0.781   0.264   3.611
  283SOL    HW1  874   0.848   0.203   3.654
  283SOL    HW2  875   0.708   0.283   3.676
  284SOL     OW  876   0.888   1.514   3.057
  284SOL    HW1  877   0.865   1.489   2.963
  284SOL    HW2  878   0.949   1.445   3.096
  285SOL     OW  879   1.351   0.590   3.295
  285SOL    HW1  880   1.379   0.547   3.380
  285SOL    HW2  881   1.376   0.686   3.296
  286SOL     OW  882   0.803   1.402   2.786
  286SOL    HW1  883   0.893   1.416   2.744
  286SOL    HW2  884   0.732   1.404   2.715
  287SOL     OW  885   0.922   0.503   2.761
  287SOL    HW1  886   0.897   0.494   2.665
  287SOL    HW2  887   0.970   0.421   2.792
  288SOL     OW  888   0.539   0.064   2.374
  288SOL    HW1  889   0.458   0.065   2.432
  288SOL    HW2  890   0.542   0.147   2.319
  289SOL     OW  891   1.434   1.188   1.903
  289SOL    HW1  892   1.466   1.112   1.960
  289SOL    HW2  893   1.342   1.215   1.933
  290SOL     OW  894   0.297   0.035   2.033
  290SOL    HW1  895   0.346   0.119   2.012
  290SOL    HW2  896   0.359  -0.030   2.078
  291SOL     OW  897   0.935   0.236   2.342
  291SOL    HW1  898   0.887   0.277   2.264
  291SOL    HW2  899   1.034   0.234   2.323
  292SOL     OW  900   1.076   0.683   3.326
  292SOL    HW1  901   0.996   0.622   3.329
  292SOL    HW2  902   1.157   0.630   3.302
  293SOL     OW  903   1.227   1.570   2.655
  293SOL    HW1  904   1.248   1.644   2.590
  293SOL    HW2  905   1.295   1.570   2.728
  294SOL     OW  906   0.459   1.152   2.603
  294SOL    HW1  907   0.388   1.125   2.668
  294SOL    HW2  908   0.433   1.124   2.510
  295SOL     OW  909   1.271   1.797   2.453
  295SOL    HW1  910   1.315   1.861   2.389
  295SOL    HW2  911   1.221   1.849   2.523
  296SOL     OW  912   1.032   0.549   1.878
  296SOL    HW1  913   0.991   0.631   1.839
  296SOL    HW2  914   1.096   0.575   1.951
  297SOL     OW  915   0.078   0.556   3.248
  297SOL    HW1  916   0.170   0.555   3.207
  297SOL    HW2  917   0.072   0.630   3.315
  298SOL     OW  918   0.561   0.222   3.009
  298SOL    HW1  919   0.599   0.138   3.046
  298SOL    HW2  920   0.473   0.241   3.053
  299SOL     OW  921   0.866   0.454   2.504
  299SOL    HW1  922   0.834   0.526   2.442
  299SOL    HW2  923   0.890   0.373   2.451
  300SOL     OW  924   1.017   0.039   2.615
  300SOL    HW1  925   0.945   0.044   2.546
  300SOL    HW2  926   0.993  -0.030   2.684
  301SOL     OW  927   1.429   1.173   2.729
  301SOL    HW1  928   1.374   1.089   2.722
  301SOL    HW2  929   1.455   1.202   2.637
  302SOL     OW  930   1.466   0.590   2.854
  302SOL    HW1  931   1.436   0.495   2.861
  302SOL    HW2  932   1.539   0.606   2.920
  303SOL     OW  933   1.857   0.833   2.239
  303SOL    HW1  934   1.899   0.769   2.303
  303SOL    HW2  935   1.819   0.782   2.161
  304SOL     OW  936   0.488   1.385   2.036
  304SOL    HW1  937   0.401   1.370   2.083
  304SOL    HW2  938   0.471   1.411   1.941
  305SOL     OW  939   1.664   1.280   2.519
  305SOL    HW1  940   1.763   1.288   2.533
  305SOL    HW2  941   1.619   1.364   2.550
  306SOL     OW  942   1.390   0.575   1.940
  306SOL    HW1  943   1.336   0.554   2.021
  306SOL    HW2  944   1.481   0.534   1.949
  307SOL     OW  945   0.527   0.256   2.190
  307SOL    HW1  946   0.554   0.197   2.115
  307SOL    HW2  947   0.527   0.351   2.159
  308SOL     OW  948   1.754   1.223   3.450
  308SOL    HW1  949   1.845   1.184   3.437
  308SOL    HW2  950   1.762   1.319   3.474
  309SOL     OW  951   1.064   1.347   3.202
  309SOL    HW1  952   0.984   1.324   3.257
  309SOL    HW2  953   1.147   1.321   3.251
  310SOL     OW  954   1.592   1.629   3.487
  310SOL    HW1  955   1.619   1.663   3.397
  310SOL    HW2  956   1.671   1.591   3.533
  311SOL     OW  957   1.111   1.195   2.962
  311SOL    HW1  958   1.071   1.239   3.043
  311SOL    HW2  959   1.070   1.232   2.879
  312SOL     OW  960   1.638   1.099   2.941
  312SOL    HW1  961   1.643   1.180   3.000
  312SOL    HW2  962   1.552   1.101   2.890
  313SOL     OW  963   0.915   0.089   3.264
  313SOL    HW1  964   0.940   0.069   3.169
  313SOL    HW2  965   0.987   0.145   3.306
  314SOL     OW  966   0.980   1.116   3.581
  314SOL    HW1  967   0.881   1.122   3.591
  314SOL    HW2  968   1.003   1.036   3.525
  315SOL     OW  969   0.705   1.050   2.230
  315SOL    HW1  970   0.691   1.057   2.329
  315SOL    HW2  971   0.789   0.999   2.212
  316SOL     OW  972   0.410   0.813   3.113
  316SOL    HW1  973   0.496   0.825   3.163
  316SOL    HW2  974   0.368   0.726   3.140
  317SOL     OW  975   1.274   0.386   3.124
  317SOL    HW1  976   1.295   0.460   3.188
  317SOL    HW2  977   1.185   0.403   3.081
  318SOL     OW  978   0.064   1.564   3.193
  318SOL    HW1  979   0.018   1.646   3.159
  318SOL    HW2  980   0.162   1.583   3.202
  319SOL     OW  981   0.367   1.100   2.363
  319SOL    HW1  982   0.360   1.183   2.307
  319SOL    HW2  983   0.371   1.020   2.303
  320SOL     OW  984   0.566   0.537   2.727
  320SOL    HW1  985   0.578   0.603   2.653
  320SOL    HW2  986   0.612   0.571   2.810
  321SOL     OW  987   1.252   1.348   2.250
  321SOL    HW1  988   1.302   1.425   2.290
  321SOL    HW2  989   1.157   1.350   2.282
  322SOL     OW  990   1.272   1.445   3.004
  322SOL    HW1  991   1.319   1.458   3.091
  322SOL    HW2  992   1.206   1.371   3.013
  323SOL     OW  993   1.582   0.639   2.334
  323SOL    HW1  994   1.551   0.700   2.407
  323SOL    HW2  995   1.632   0.691   2.265
  324SOL     OW  996   0.354   1.510   3.191
  324SOL    HW1  997   0.333   1.466   3.104
  324SOL    HW2  998   0.451   1.536   3.194
  325SOL     OW  999   0.402   0.751   3.460
  325SOL    HW1 1000   0.470   0.806   3.413
  325SOL    HW2 1001   0.442   0.663   3.487
  326SOL     OW 1002   1.587   0.779   3.532
  326SOL    HW1 1003   1.495   0.817   3.527
  326SOL    HW2 1004   1.647   0.826   3.467
  327SOL     OW 1005   1.013   0.105   3.632
  327SOL    HW1 1006   1.019   0.190   3.580
  327SOL    HW2 1007   1.045   0.029   3.575
  328SOL     OW 1008   0.504   0.050   3.602
  328SOL    HW1 1009   0.462  -0.007   3.532
  328SOL    HW2 1010   0.438   0.119   3.634
  329SOL     OW 1011   0.573   0.870   2.891
  329SOL    HW1 1012   0.617   0.959   2.882
  329SOL    HW2 1013   0.510   0.870   2.968
  330SOL     OW 1014   1.360   0.862   2.907
  330SOL    HW1 1015   1.285   0.862   2.841
  330SOL    HW2 1016   1.397   0.770   2.916
  331SOL     OW 1017   1.209   0.525   2.137
  331SOL    HW1 1018   1.222   0.441   2.191
  331SOL    HW2 1019   1.180   0.599   2.197
  332SOL     OW 1020   0.307   0.213   3.093
  332SOL    HW1 1021   0.284   0.250   3.183
  332SOL    HW2 1022   0.277   0.118   3.087
  333SOL     OW 1023   0.037   1.310   3.144
  333SOL    HW1 1024   0.090   1.261   3.212
  333SOL    HW2 1025   0.059   1.408   3.149
  334SOL     OW 1026   0.732   0.634   2.926
  334SOL    HW1 1027   0.791   0.608   2.850
  334SOL    HW2 1028   0.704   0.730   2.915
  335SOL     OW 1029   1.728   0.935   3.716
  335SOL    HW1 1030   1.682   0.928   3.627
  335SOL    HW2 1031   1.666   0.979   3.782
  336SOL     OW 1032   0.307   0.063   2.480
  336SOL    HW1 1033   0.296   0.157   2.513
  336SOL    HW2 1034   0.302   0.000   2.557
  337SOL     OW 1035   1.622   0.367   2.236
  337SOL    HW1 1036   1.624   0.291   2.300
  337SOL    HW2 1037   1.574   0.444   2.276
  338SOL     OW 1038   1.023   0.766   2.828
  338SOL    HW1 1039   1.038   0.787   2.924
  338SOL    HW2 1040   0.993   0.671   2.819
  339SOL     OW 1041   0.980   1.573   3.562
  339SOL    HW1 1042   0.960   1.617   3.474
  339SOL    HW2 1043   1.019   1.482   3.546
  340SOL     OW 1044   1.859   1.518   3.467
  340SOL    HW1 1045   1.873   1.545   3.372
  340SOL    HW2 1046   1.942   1.540   3.520
  341SOL     OW 1047   0.350   0.898   3.666
  341SOL    HW1 1048   0.426   0.942   3.714
  341SOL    HW2 1049   0.385   0.851   3.584
  342SOL     OW 1050   1.540   0.274   1.987
  342SOL    HW1 1051   1.479   0.199   2.010
  342SOL    HW2 1052   1.562   0.326   2.070
  343SOL     OW 1053   1.303   0.838   1.904
  343SOL    HW1 1054   1.337   0.745   1.919
  343SOL    HW2 1055   1.321   0.865   1.809
  344SOL     OW 1056   1.068   1.333   2.711
  344SOL    HW1 1057   1.075   1.249   2.656
  344SOL    HW2 1058   1.130   1.402   2.675
  345SOL     OW 1059   0.319   0.810   2.811
  345SOL    HW1 1060   0.412   0.846   2.816
  345SOL    HW2 1061   0.313   0.725   2.863
  346SOL     OW 1062   0.339   0.509   2.868
  346SOL    HW1 1063   0.287   0.426   2.851
  346SOL    HW2 1064   0.416   0.514   2.804
  347SOL     OW 1065   1.138   0.380   3.540
  347SOL    HW1 1066   1.093   0.443   3.604
  347SOL    HW2 1067   1.231   0.411   3.523
  348SOL     OW 1068   1.160   0.207   3.339
  348SOL    HW1 1069   1.160   0.271   3.416
  348SOL    HW2 1070   1.188   0.255   3.256
  349SOL     OW 1071   0.008   1.326   2.062
  349SOL    HW1 1072  -0.085   1.347   2.031
  349SOL    HW2 1073   0.018   1.227   2.075
  350SOL     OW 1074   0.088   1.801   2.789
  350SOL    HW1 1075   0.046   1.715   2.762
  350SOL    HW2 1076   0.182   1.804   2.755
  351SOL     OW 1077   0.504   1.568   2.772
  351SOL    HW1 1078   0.570   1.642   2.781
  351SOL    HW2 1079   0.548   1.489   2.730
  352SOL     OW 1080   1.002   0.796   3.100
  352SOL    HW1 1081   1.043   0.764   3.186
  352SOL    HW2 1082   0.906   0.769   3.097
  353SOL     OW 1083   0.040   0.544   2.976
  353SOL    HW1 1084   0.125   0.511   2.935
  353SOL    HW2 1085   0.053   0.559   3.074
  354SOL     OW 1086   0.189   0.520   3.584
  354SOL    HW1 1087   0.248   0.480   3.514
  354SOL    HW2 1088   0.131   0.591   3.543
  355SOL     OW 1089   1.369   0.950   3.522
  355SOL    HW1 1090   1.408   1.039   3.542
  355SOL    HW2 1091   1.379   0.930   3.425
  356SOL     OW 1092   0.815   0.572   2.187
  356SOL    HW1 1093   0.822   0.483   2.141
  356SOL    HW2 1094   0.721   0.606   2.179
  357SOL     OW 1095   1.657   0.604   3.068
  357SOL    HW1 1096   1.619   0.535   3.130
  357SOL    HW2 1097   1.739   0.568   3.024
  358SOL     OW 1098   0.252   1.564   3.606
  358SOL    HW1 1099   0.222   1.621   3.682
  358SOL    HW2 1100   0.245   1.467   3.632
  359SOL     OW 1101   0.671   0.464   3.131
  359SOL    HW1 1102   0.637   0.375   3.101
  359SOL    HW2 1103   0.697   0.518   3.051
  360SOL     OW 1104   0.930   1.678   3.327
  360SOL    HW1 1105   0.906   1.660   3.232
  360SOL    HW2 1106   0.960   1.772   3.337
  361SOL     OW 1107   0.473   0.500   2.053
  361SOL    HW1 1108   0.534   0.580   2.057
  361SOL    HW2 1109   0.378   0.531   2.060
  362SOL     OW 1110   0.159   1.137   3.328
  362SOL    HW1 1111   0.181   1.076   3.404
  362SOL    HW2 1112   0.169   1.088   3.242
  363SOL     OW 1113   1.347   1.059   3.096
  363SOL    HW1 1114   1.371   0.996   3.022
  363SOL    HW2 1115   1.257   1.099   3.078
  364SOL     OW 1116   1.302   0.855   2.171
  364SOL    HW1 1117   1.216   0.824   2.213
  364SOL    HW2 1118   1.298   0.841   2.072
  365SOL     OW 1119   1.759   1.747   3.016
  365SOL    HW1 1120   1.820   1.777   2.943
  365SOL    HW2 1121   1.721   1.658   2.994
  366SOL     OW 1122   1.252   1.731   2.990
  366SOL    HW1 1123   1.336   1.736   2.936
  366SOL    HW2 1124   1.229   1.635   3.008
  367SOL     OW 1125   0.083   1.258   2.884
  367SOL    HW1 1126   0.078   1.257   2.984
  367SOL    HW2 1127   0.000   1.217   2.846
  368SOL     OW 1128   0.688   1.662   3.578
  368SOL    HW1 1129   0.632   1.743   3.587
  368SOL    HW2 1130   0.740   1.666   3.492
  369SOL     OW 1131   1.726   0.135   2.385
  369SOL    HW1 1132   1.799   0.118   2.318
  369SOL    HW2 1133   1.695   0.048   2.423
  370SOL     OW 1134   1.388   1.573   2.339
  370SOL    HW1 1135   1.455   1.585   2.265
  370SOL    HW2 1136   1.348   1.662   2.362
  371SOL     OW 1137   0.130   1.794   3.713
  371SOL    HW1 1138   0.089   1.720   3.766
  371SOL    HW2 1139   0.194   1.845   3.771
  372SOL     OW 1140   1.280   0.927   2.534
  372SOL    HW1 1141   1.340   0.846   2.536
  372SOL    HW2 1142   1.320   0.996   2.474
  373SOL     OW 1143   0.830   1.273   3.284
  373SOL    HW1 1144   0.825   1.306   3.379
  373SOL    HW2 1145   0.744   1.292   3.238
  374SOL     OW 1146   0.672   1.616   2.016
  374SOL    HW1 1147   0.681   1.626   1.917
  374SOL    HW2 1148   0.632   1.527   2.037
  375SOL     OW 1149   1.650   1.720   3.256
  375SOL    HW1 1150   1.703   1.730   3.172
  375SOL    HW2 1151   1.623   1.810   3.290
  376SOL     OW 1152   1.841   0.175   2.825
  376SOL    HW1 1153   1.880   0.090   2.789
  376SOL    HW2 1154   1.743   0.177   2.806
  377SOL     OW 1155   0.263   0.326   2.582
  377SOL    HW1 1156   0.184   0.377   2.548
  377SOL    HW2 1157   0.254   0.311   2.680
  378SOL     OW 1158   1.194   1.612   1.893
  378SOL    HW1 1159   1.200   1.519   1.930
  378SOL    HW2 1160   1.135   1.612   1.813
  379SOL     OW 1161   0.822   1.002   3.234
  379SOL    HW1 1162   0.862   1.001   3.142
  379SOL    HW2 1163   0.832   1.094   3.274
  380SOL     OW 1164   0.916   0.910   2.153
  380SOL    HW1 1165   0.979   0.948   2.085
  380SOL    HW2 1166   0.956   0.827   2.192
  381SOL     OW 1167   1.504   1.607   1.906
  381SOL    HW1 1168   1.412   1.644   1.913
  381SOL    HW2 1169   1.542   1.627   1.816
  382SOL     OW 1170   0.372   1.288   3.352
  382SOL    HW1 1171   0.359   1.381   3.318
  382SOL    HW2 1172   0.288   1.236   3.339
  383SOL     OW 1173   1.614   1.292   3.151
  383SOL    HW1 1174   1.674   1.295   3.231
  383SOL    HW2 1175   1.539   1.356   3.164
  384SOL     OW 1176   1.039   1.098   2.558
  384SOL    HW1 1177   0.969   1.051   2.612
  384SOL    HW2 1178   1.098   1.030   2.515
  385SOL     OW 1179   1.014   0.236   2.833
  385SOL    HW1 1180   1.006   0.200   2.740
  385SOL    HW2 1181   1.012   0.160   2.898
  386SOL     OW 1182   0.590   1.487   2.353
  386SOL    HW1 1183   0.632   1.429   2.283
  386SOL    HW2 1184   0.546   1.566   2.309
  387SOL     OW 1185   1.709   0.385   3.243
  387SOL    HW1 1186   1.782   0.454   3.247
  387SOL    HW2 1187   1.737   0.310   3.184
  388SOL     OW 1188   0.255   1.348   2.152
  388SOL    HW1 1189   0.159   1.349   2.125
  388SOL    HW2 1190   0.267   1.401   2.236
  389SOL     OW 1191   0.105   1.013   3.588
  389SOL    HW1 1192   0.028   0.980   3.642
  389SOL    HW2 1193   0.190   0.983   3.630
  390SOL     OW 1194   0.672   0.203   3.351
  390SOL    HW1 1195   0.762   0.187   3.311
  390SOL    HW2 1196   0.680   0.208   3.450
  391SOL     OW 1197   0.075   0.345   1.895
  391SOL    HW1 1198  -0.017   0.317   1.866
  391SOL    HW2 1199   0.106   0.422   1.839
  392SOL     OW 1200   1.440   0.856   3.260
  392SOL    HW1 1201   1.383   0.908   3.197
  392SOL    HW2 1202   1.536   0.868   3.236
  393SOL     OW 1203   0.072   0.166   2.180
  393SOL    HW1 1204   0.055   0.249   2.126
  393SOL    HW2 1205   0.162   0.129   2.158
  394SOL     OW 1206   1.183   1.335   1.981
  394SOL    HW1 1207   1.084   1.324   1.983
  394SOL    HW2 1208   1.217   1.350   2.074
  395SOL     OW 1209   0.613   0.842   3.293
  395SOL    HW1 1210   0.669   0.923   3.276
  395SOL    HW2 1211   0.672   0.762   3.296
  396SOL     OW 1212   1.493   1.767   2.821
  396SOL    HW1 1213   1.526   1.831   2.752
  396SOL    HW2 1214   1.559   1.761   2.896
  397SOL     OW 1215   0.716   0.565   3.570
  397SOL    HW1 1216   0.735   0.630   3.644
  397SOL    HW2 1217   0.776   0.485   3.579
  398SOL     OW 1218   1.450   1.220   3.495
  398SOL    HW1 1219   1.441   1.210   3.594
  398SOL    HW2 1220   1.546   1.213   3.469
  399SOL     OW 1221   0.390   1.741   3.422
  399SOL    HW1 1222   0.299   1.782   3.420
  399SOL    HW2 1223   0.383   1.647   3.454
  400SOL     OW 1224   1.674   0.883   3.116
  400SOL    HW1 1225   1.647   0.794   3.079
  400SOL    HW2 1226   1.675   0.951   3.043
  401SOL     OW 1227   1.225   0.325   2.311
  401SOL    HW1 1228   1.290   0.251   2.300
  401SOL    HW2 1229   1.245   0.375   2.395
  402SOL     OW 1230   0.594   0.745   2.514
  402SOL    HW1 1231   0.644   0.830   2.495
  402SOL    HW2 1232   0.506   0.747   2.466
  403SOL     OW 1233   1.777   0.342   3.504
  403SOL    HW1 1234   1.760   0.373   3.410
  403SOL    HW2 1235   1.693   0.305   3.542
  404SOL     OW 1236   1.730   0.934   3.379
  404SOL    HW1 1237   1.768   1.025   3.394
  404SOL    HW2 1238   1.722   0.917   3.280
  405SOL     OW 1239   0.859   1.374   1.878
  405SOL    HW1 1240   0.813   1.389   1.966
  405SOL    HW2 1241   0.903   1.459   1.848
  406SOL     OW 1242   0.661   1.790   2.815
  406SOL    HW1 1243   0.615   1.878   2.802
  406SOL    HW2 1244   0.760   1.802   2.808
  407SOL     OW 1245   0.859   0.956   2.723
  407SOL    HW1 1246   0.913   0.887   2.771
  407SOL    HW2 1247   0.827   1.025   2.789
  408SOL     OW 1248   1.083   0.984   1.949
  408SOL    HW1 1249   1.060   1.037   1.867
  408SOL    HW2 1250   1.164   0.928   1.930
  409SOL     OW 1251   1.861   1.569   2.713
  409SOL    HW1 1252   1.790   1.557   2.643
  409SOL    HW2 1253   1.862   1.490   2.773
  410SOL     OW 1254   0.221   1.314   3.706
  410SOL    HW1 1255   0.156   1.241   3.685
  410SOL    HW2 1256   0.225   1.328   3.804
  411SOL     OW 1257   0.079   1.240   2.515
  411SOL    HW1 1258   0.078   1.193   2.603
  411SOL    HW2 1259   0.161   1.212   2.464
  412SOL     OW 1260   0.672   1.391   3.486
  412SOL    HW1 1261   0.594   1.341   3.524
  412SOL    HW2 1262   0.669   1.486   3.517
  413SOL     OW 1263   1.824   0.192   3.089
  413SOL    HW1 1264   1.820   0.102   3.133
  413SOL    HW2 1265   1.827   0.181   2.990
  414SOL     OW 1266   0.428   0.424   2.382
  414SOL    HW1 1267   0.458   0.352   2.320
  414SOL    HW2 1268   0.389   0.384   2.465
  415SOL     OW 1269   1.705   1.487   2.966
  415SOL    HW1 1270   1.612   1.462   2.939
  415SOL    HW2 1271   1.731   1.437   3.048
  416SOL     OW 1272   0.317   0.547   3.142
  416SOL    HW1 1273   0.355   0.488   3.214
  416SOL    HW2 1274   0.357   0.521   3.054
  417SOL     OW 1275   0.812   1.586   2.549
  417SOL    HW1 1276   0.844   1.596   2.455
  417SOL    HW2 1277   0.733   1.524   2.551
  418SOL     OW 1278   1.424   0.214   2.974
  418SOL    HW1 1279   1.476   0.149   3.029
  418SOL    HW2 1280   1.375   0.277   3.035
  419SOL     OW 1281   1.001   0.034   3.016
  419SOL    HW1 1282   0.938  -0.038   2.985
  419SOL    HW2 1283   1.094  -0.002   3.016
  420SOL     OW 1284   0.770   1.330   2.163
  420SOL    HW1 1285   0.724   1.243   2.180
  420SOL    HW2 1286   0.861   1.327   2.204
  421SOL     OW 1287   0.618   1.567   3.146
  421SOL    HW1 1288   0.613   1.649   3.203
  421SOL    HW2 1289   0.707   1.564   3.101
  422SOL     OW 1290   1.352   0.052   2.030
  422SOL    HW1 1291   1.387   0.011   1.946
  422SOL    HW2 1292   1.262   0.014   2.050
  423SOL     OW 1293   1.300   0.453   2.553
  423SOL    HW1 1294   1.241   0.533   2.557
  423SOL    HW2 1295   1.315   0.418   2.646
  424SOL     OW 1296   1.593   0.221   2.744
  424SOL    HW1 1297   1.509   0.220   2.798
  424SOL    HW2 1298   1.595   0.304   2.688
  425SOL     OW 1299   0.039   1.077   2.162
  425SOL    HW1 1300   0.138   1.066   2.153
  425SOL    HW2 1301  -0.001   0.991   2.194
  426SOL     OW 1302   0.875   1.646   2.199
  426SOL    HW1 1303   0.798   1.611   2.145
  426SOL    HW2 1304   0.843   1.717   2.261
  427SOL     OW 1305   0.230   0.628   3.837
  427SOL    HW1 1306   0.137   0.626   3.874
  427SOL    HW2 1307   0.231   0.589   3.745
  428SOL     OW 1308   0.225   0.275   4.720
  428SOL    HW1 1309   0.260   0.258   4.812
  428SOL    HW2 1310   0.137   0.230   4.708
  429SOL     OW 1311   0.019   0.368   4.371
  429SOL    HW1 1312  -0.063   0.411   4.410
  429SOL    HW2 1313  -0.009   0.295   4.308
  430SOL     OW 1314   1.555   1.511   4.427
  430SOL    HW1 1315   1.498   1.495   4.508
  430SOL    HW2 1316   1.496   1.521   4.347
  431SOL     OW 1317   1.135   0.703   4.441
  431SOL    HW1 1318   1.192   0.781   4.416
  431SOL    HW2 1319   1.075   0.729   4.517
  432SOL     OW 1320   1.755   0.607   3.955
  432SOL    HW1 1321   1.743   0.594   3.856
  432SOL    HW2 1322   1.725   0.526   4.004
  433SOL     OW 1323   0.768   1.144   4.747
  433SOL    HW1 1324   0.690   1.161   4.807
  433SOL    HW2 1325   0.802   1.231   4.711
  434SOL     OW 1326   0.685   1.012   4.389
  434SOL    HW1 1327   0.754   0.996   4.459
  434SOL    HW2 1328   0.612   1.069   4.427
  435SOL     OW 1329   0.335   1.435   4.785
  435SOL    HW1 1330   0.257   1.404   4.732
  435SOL    HW2 1331   0.393   1.493   4.728
  436SOL     OW 1332   1.603   0.447   4.461
  436SOL    HW1 1333   1.529   0.493   4.411
  436SOL    HW2 1334   1.654   0.515   4.514
  437SOL     OW 1335   0.231   1.713   4.207
  437SOL    HW1 1336   0.265   1.790   4.261
  437SOL    HW2 1337   0.275   1.713   4.117
  438SOL     OW 1338   0.230   1.434   4.262
  438SOL    HW1 1339   0.204   1.530   4.262
  438SOL    HW2 1340   0.159   1.380   4.307
  439SOL     OW 1341   0.240   1.091   4.610
  439SOL    HW1 1342   0.254   1.007   4.662
  439SOL    HW2 1343   0.185   1.155   4.665
  440SOL     OW 1344   0.606   0.964   3.847
  440SOL    HW1 1345   0.613   1.048   3.793
  440SOL    HW2 1346   0.652   0.977   3.935
  441SOL     OW 1347   0.122   0.643   4.287
  441SOL    HW1 1348   0.077   0.555   4.304
  441SOL    HW2 1349   0.121   0.697   4.371
  442SOL     OW 1350   1.842   1.767   4.083
  442SOL    HW1 1351   1.896   1.738   4.163
  442SOL    HW2 1352   1.872   1.857   4.054
  443SOL     OW 1353   0.027   1.596   3.841
  443SOL    HW1 1354   0.008   1.500   3.862
  443SOL    HW2 1355  -0.006   1.654   3.916
  444SOL     OW 1356   1.689   0.922   4.336
  444SOL    HW1 1357   1.784   0.893   4.344
  444SOL    HW2 1358   1.681   0.987   4.261
  445SOL     OW 1359   1.641   1.108   4.156
  445SOL    HW1 1360   1.727   1.110   4.104
  445SOL    HW2 1361   1.655   1.155   4.244
  446SOL     OW 1362   0.613   1.365   4.450
  446SOL    HW1 1363   0.564   1.278   4.459
  446SOL    HW2 1364   0.590   1.408   4.363
  447SOL     OW 1365   0.809   0.004   4.226
  447SOL    HW1 1366   0.849   0.095   4.217
  447SOL    HW2 1367   0.709   0.012   4.232
  448SOL     OW 1368   1.525   0.999   3.914
  448SOL    HW1 1369   1.462   0.923   3.927
  448SOL    HW2 1370   1.573   1.017   4.000
  449SOL     OW 1371   1.466   1.417   4.677
  449SOL    HW1 1372   1.407   1.423   4.757
  449SOL    HW2 1373   1.451   1.329   4.631
  450SOL     OW 1374   1.667   1.714   4.296
  450SOL    HW1 1375   1.626   1.691   4.208
  450SOL    HW2 1376   1.649   1.640   4.361
  451SOL     OW 1377   0.598   0.729   3.994
  451SOL    HW1 1378   0.622   0.798   3.926
  451SOL    HW2 1379   0.520   0.762   4.048
  452SOL     OW 1380   1.281   0.345   4.668
  452SOL    HW1 1381   1.195   0.295   4.655
  452SOL    HW2 1382   1.343   0.291   4.724
  453SOL     OW 1383   1.576   1.662   4.031
  453SOL    HW1 1384   1.665   1.708   4.034
  453SOL    HW2 1385   1.555   1.638   3.936
  454SOL     OW 1386   1.041   0.701   4.153
  454SOL    HW1 1387   1.067   0.697   4.249
  454SOL    HW2 1388   0.956   0.650   4.139
  455SOL     OW 1389   0.076   0.811   4.513
  455SOL    HW1 1390   0.175   0.799   4.522
  455SOL    HW2 1391   0.052   0.906   4.534
  456SOL     OW 1392   0.865   0.348   3.919
  456SOL    HW1 1393   0.924   0.411   3.870
  456SOL    HW2 1394   0.884   0.254   3.890
  457SOL     OW 1395   1.362   1.144   4.269
  457SOL    HW1 1396   1.445   1.115   4.221
  457SOL    HW2 1397   1.313   1.211   4.213
  458SOL     OW 1398   0.550   0.196   4.609
  458SOL    HW1 1399   0.545   0.191   4.709
  458SOL    HW2 1400   0.552   0.292   4.580
  459SOL     OW 1401   1.008   1.456   4.201
  459SOL    HW1 1402   0.962   1.528   4.149
  459SOL    HW2 1403   1.004   1.476   4.299
  460SOL     OW 1404   0.351   1.801   4.577
  460SOL    HW1 1405   0.401   1.715   4.583
  460SOL    HW2 1406   0.416   1.878   4.574
  461SOL     OW 1407   1.795   1.066   4.597
  461SOL    HW1 1408   1.733   1.051   4.521
  461SOL    HW2 1409   1.743   1.077   4.682
  462SOL     OW 1410   0.321   0.943   3.966
  462SOL    HW1 1411   0.403   0.982   3.924
  462SOL    HW2 1412   0.294   0.861   3.917
  463SOL     OW 1413   1.458   0.735   4.452
  463SOL    HW1 1414   1.453   0.670   4.527
  463SOL    HW2 1415   1.538   0.794   4.465
  464SOL     OW 1416   1.111   1.776   3.961
  464SOL    HW1 1417   1.051   1.714   4.011
  464SOL    HW2 1418   1.142   1.732   3.876
  465SOL     OW 1419   1.632   1.377   3.805
  465SOL    HW1 1420   1.600   1.471   3.795
  465SOL    HW2 1421   1.556   1.314   3.793
  466SOL     OW 1422   0.464   1.743   4.047
  466SOL    HW1 1423   0.497   1.782   4.133
  466SOL    HW2 1424   0.540   1.736   3.982
  467SOL     OW 1425   1.400   0.107   4.150
  467SOL    HW1 1426   1.376   0.070   4.060
  467SOL    HW2 1427   1.499   0.123   4.154
  468SOL     OW 1428   0.249   1.785   4.965
  468SOL    HW1 1429   0.306   1.720   5.015
  468SOL    HW2 1430   0.233   1.752   4.872
  469SOL     OW 1431   0.940   1.698   4.628
  469SOL    HW1 1432   1.020   1.641   4.649
  469SOL    HW2 1433   0.891   1.658   4.551
  470SOL     OW 1434   0.382   0.700   4.204
  470SOL    HW1 1435   0.427   0.610   4.201
  470SOL    HW2 1436   0.288   0.689   4.237
  471SOL     OW 1437   0.614   0.122   3.841
  471SOL    HW1 1438   0.712   0.100   3.848
  471SOL    HW2 1439   0.583   0.105   3.748
  472SOL     OW 1440   0.803   1.402   4.648
  472SOL    HW1 1441   0.893   1.416   4.606
  472SOL    HW2 1442   0.732   1.404   4.577
  473SOL     OW 1443   0.922   0.503   4.623
  473SOL    HW1 1444   0.897   0.494   4.527
  473SOL    HW2 1445   0.970   0.421   4.654
  474SOL     OW 1446   0.539   0.064   4.236
  474SOL    HW1 1447   0.458   0.065   4.294
  474SOL    HW2 1448   0.542   0.147   4.181
  475SOL     OW 1449   1.434   1.188   3.765
  475SOL    HW1 1450   1.466   1.112   3.822
  475SOL    HW2 1451   1.342   1.215   3.795
  476SOL     OW 1452   0.297   0.035   3.895
  476SOL    HW1 1453   0.346   0.119   3.874
  476SOL    HW2 1454   0.359  -0.030   3.940
  477SOL     OW 1455   0.935   0.236   4.204
  477SOL    HW1 1456   0.887   0.277   4.126
  477SOL    HW2 1457   1.034   0.234   4.185
  478SOL     OW 1458   1.227   1.570   4.517
  478SOL    HW1 1459   1.248   1.644   4.452
  478SOL    HW2 1460   1.295   1.570   4.590
  479SOL     OW 1461   0.459   1.152   4.465
  479SOL    HW1 1462   0.388   1.125   4.530
  479SOL    HW2 1463   0.433   1.124   4.372
  480SOL     OW 1464   1.271   1.797   4.315
  480SOL    HW1 1465   1.315   1.861   4.251
  480SOL    HW2 1466   1.221   1.849   4.385
  481SOL     OW 1467   1.032   0.549   3.740
  481SOL    HW1 1468   0.991   0.631   3.701
  481SOL    HW2 1469   1.096   0.575   3.813
  482SOL     OW 1470   0.866   0.454   4.366
  482SOL    HW1 1471   0.834   0.526   4.304
  482SOL    HW2 1472   0.890   0.373   4.313
  483SOL     OW 1473   1.017   0.039   4.477
  483SOL    HW1 1474   0.945   0.044   4.408
  483SOL    HW2 1475   0.993  -0.030   4.546
  484SOL     OW 1476   1.429   1.173   4.591
  484SOL    HW1 1477   1.374   1.089   4.584
  484SOL    HW2 1478   1.455   1.202   4.499
  485SOL     OW 1479   1.466   0.590   4.716
  485SOL    HW1 1480   1.436   0.495   4.723
  485SOL    HW2 1481   1.539   0.606   4.782
  486SOL     OW 1482   1.857   0.833   4.101
  486SOL    HW1 1483   1.899   0.769   4.165
  486SOL    HW2 1484   1.819   0.782   4.023
  487SOL     OW 1485   0.488   1.385   3.898
  487SOL    HW1 1486   0.401   1.370   3.945
  487SOL    HW2 1487   0.471   1.411   3.803
  488SOL     OW 1488   1.664   1.280   4.381
  488SOL    HW1 1489   1.763   1.288   4.395
  488SOL    HW2 1490   1.619   1.364   4.412
  489SOL     OW 1491   1.390   0.575   3.802
  489SOL    HW1 1492   1.336   0.554   3.883
  489SOL    HW2 1493   1.481   0.534   3.811
  490SOL     OW 1494   0.527   0.256   4.052
  490SOL    HW1 1495   0.554   0.197   3.977
  490SOL    HW2 1496   0.527   0.351   4.021
  491SOL     OW 1497   1.638   1.099   4.803
  491SOL    HW1 1498   1.643   1.180   4.862
  491SOL    HW2 1499   1.552   1.101   4.752
  492SOL     OW 1500   0.705   1.050   4.092
  492SOL    HW1 1501   0.691   1.057   4.191
  492SOL    HW2 1502   0.789   0.999   4.074
  493SOL     OW 1503   0.367   1.100   4.225
  493SOL    HW1 1504   0.360   1.183   4.169
  493SOL    HW2 1505   0.371   1.020   4.165
  494SOL     OW 1506   0.566   0.537   4.589
  494SOL    HW1 1507   0.578   0.603   4.515
  494SOL    HW2 1508   0.612   0.571   4.672
  495SOL     OW 1509   1.252   1.348   4.112
  495SOL    HW1 1510   1.302   1.425   4.152
  495SOL    HW2 1511   1.157   1.350   4.144
  496SOL     OW 1512   1.582   0.639   4.196
  496SOL    HW1 1513   1.551   0.700   4.269
  496SOL    HW2 1514   1.632   0.691   4.127
  497SOL     OW 1515   0.573   0.870   4.753
  497SOL    HW1 1516   0.617   0.959   4.744
  497SOL    HW2 1517   0.510   0.870   4.830
  498SOL     OW 1518   1.209   0.525   3.999
  498SOL    HW1 1519   1.222   0.441   4.053
  498SOL    HW2 1520   1.180   0.599   4.059
  499SOL     OW 1521   0.732   0.634   4.788
  499SOL    HW1 1522   0.791   0.608   4.712
  499SOL    HW2 1523   0.704   0.730   4.777
  500SOL     OW 1524   0.307   0.063   4.342
  500SOL    HW1 1525   0.296   0.157   4.375
  500SOL    HW2 1526   0.302   0.000   4.419
  501SOL     OW 1527   1.622   0.367   4.098
  501SOL    HW1 1528   1.624   0.291   4.162
  501SOL    HW2 1529   1.574   0.444   4.138
  502SOL     OW 1530   1.540   0.274   3.849
  502SOL    HW1 1531   1.479   0.199   3.872
  502SOL    HW2 1532   1.562   0.326   3.932
  503SOL     OW 1533   1.303   0.838   3.766
  503SOL    HW1 1534   1.337   0.745   3.781
  503SOL    HW2 1535   1.321   0.865   3.671
  504SOL     OW 1536   1.068   1.333   4.573
  504SOL    HW1 1537   1.075   1.249   4.518
  504SOL    HW2 1538   1.130   1.402   4.537
  505SOL     OW 1539   0.319   0.810   4.673
  505SOL    HW1 1540   0.412   0.846   4.678
  505SOL    HW2 1541   0.313   0.725   4.725
  506SOL     OW 1542   0.339   0.509   4.730
  506SOL    HW1 1543   0.287   0.426   4.713
  506SOL    HW2 1544   0.416   0.514   4.666
  507SOL     OW 1545   0.008   1.326   3.924
  507SOL    HW1 1546  -0.085   1.347   3.893
  507SOL    HW2 1547   0.018   1.227   3.937
  508SOL     OW 1548   0.088   1.801   4.651
  508SOL    HW1 1549   0.046   1.715   4.624
  508SOL    HW2 1550   0.182   1.804   4.617
  509SOL     OW 1551   0.504   1.568   4.634
  509SOL    HW1 1552   0.570   1.642   4.643
  509SOL    HW2 1553   0.548   1.489   4.592
  510SOL     OW 1554   1.002   0.796   4.962
  510SOL    HW1 1555   1.043   0.764   5.048
  510SOL    HW2 1556   0.906   0.769   4.959
  511SOL     OW 1557   0.815   0.572   4.049
  511SOL    HW1 1558   0.822   0.483   4.003
  511SOL    HW2 1559   0.721   0.606   4.041
  512SOL     OW 1560   0.671   0.464   4.993
  512SOL    HW1 1561   0.637   0.375   4.963
  512SOL    HW2 1562   0.697   0.518   4.913
  513SOL     OW 1563   0.473   0.500   3.915
  513SOL    HW1 1564   0.534   0.580   3.919
  513SOL    HW2 1565   0.378   0.531   3.922
  514SOL     OW 1566   1.302   0.855   4.033
  514SOL    HW1 1567   1.216   0.824   4.075
  514SOL    HW2 1568   1.298   0.841   3.934
  515SOL     OW 1569   1.759   1.747   4.878
  515SOL    HW1 1570   1.820   1.777   4.805
  515SOL    HW2 1571   1.721   1.658   4.856
  516SOL     OW 1572   0.083   1.258   4.746
  516SOL    HW1 1573   0.078   1.257   4.846
  516SOL    HW2 1574   0.000   1.217   4.708
  517SOL     OW 1575   1.726   0.135   4.247
  517SOL    HW1 1576   1.799   0.118   4.180
  517SOL    HW2 1577   1.695   0.048   4.285
  518SOL     OW 1578   1.388   1.573   4.201
  518SOL    HW1 1579   1.455   1.585   4.127
  518SOL    HW2 1580   1.348   1.662   4.224
  519SOL     OW 1581   1.280   0.927   4.396
  519SOL    HW1 1582   1.340   0.846   4.398
  519SOL    HW2 1583   1.320   0.996   4.336
  520SOL     OW 1584   0.672   1.616   3.878
  520SOL    HW1 1585   0.681   1.626   3.779
  520SOL    HW2 1586   0.632   1.527   3.899
  521SOL     OW 1587   1.841   0.175   4.687
  521SOL    HW1 1588   1.880   0.090   4.651
  521SOL    HW2 1589   1.743   0.177   4.668
  522SOL     OW 1590   0.263   0.326   4.444
  522SOL    HW1 1591   0.184   0.377   4.410
  522SOL    HW2 1592   0.254   0.311   4.542
  523SOL     OW 1593   1.194   1.612   3.755
  523SOL    HW1 1594   1.200   1.519   3.792
  523SOL    HW2 1595   1.135   1.612   3.675
  524SOL     OW 1596   0.916   0.910   4.015
  524SOL    HW1 1597   0.979   0.948   3.947
  524SOL    HW2 1598   0.956   0.827   4.054
  525SOL     OW 1599   1.504   1.607   3.768
  525SOL    HW1 1600   1.412   1.644   3.775
  525SOL    HW2 1601   1.542   1.627   3.678
  526SOL     OW 1602   1.039   1.098   4.420
  526SOL    HW1 1603   0.969   1.051   4.474
  526SOL    HW2 1604   1.098   1.030   4.377
  527SOL     OW 1605   0.590   1.487   4.215
  527SOL    HW1 1606   0.632   1.429   4.145
  527SOL    HW2 1607   0.546   1.566   4.171
  528SOL     OW 1608   0.255   1.348   4.014
  528SOL    HW1 1609   0.159   1.349   3.987
  528SOL    HW2 1610   0.267   1.401   4.098
  529SOL     OW 1611   0.075   0.345   3.757
  529SOL    HW1 1612  -0.017   0.317   3.728
  529SOL    HW2 1613   0.106   0.422   3.701
  530SOL     OW 1614   0.072   0.166   4.042
  530SOL    HW1 1615   0.055   0.249   3.988
  530SOL    HW2 1616   0.162   0.129   4.020
  531SOL     OW 1617   1.183   1.335   3.843
  531SOL    HW1 1618   1.084   1.324   3.845
  531SOL    HW2 1619   1.217   1.350   3.936
  532SOL     OW 1620   1.674   0.883   4.978
  532SOL    HW1 1621   1.647   0.794   4.941
  532SOL    HW2 1622   1.675   0.951   4.905
  533SOL     OW 1623   1.225   0.325   4.173
  533SOL    HW1 1624   1.290   0.251   4.162
  533SOL    HW2 1625   1.245   0.375   4.257
  534SOL     OW 1626   0.594   0.745   4.376
  534SOL    HW1 1627   0.644   0.830   4.357
  534SOL    HW2 1628   0.506   0.747   4.328
  535SOL     OW 1629   0.859   1.374   3.740
  535SOL    HW1 1630   0.813   1.389   3.828
  535SOL    HW2 1631   0.903   1.459   3.710
  536SOL     OW 1632   0.661   1.790   4.677
  536SOL    HW1 1633   0.615   1.878   4.664
  536SOL    HW2 1634   0.760   1.802   4.670
  537SOL     OW 1635   0.859   0.956   4.585
  537SOL    HW1 1636   0.913   0.887   4.633
  537SOL    HW2 1637   0.827   1.025   4.651
  538SOL     OW 1638   1.083   0.984   3.811
  538SOL    HW1 1639   1.060   1.037   3.729
  538SOL    HW2 1640   1.164   0.928   3.792
  539SOL     OW 1641   1.861   1.569   4.575
  539SOL    HW1 1642   1.790   1.557   4.505
  539SOL    HW2 1643   1.862   1.490   4.635
  540SOL     OW 1644   0.079   1.240   4.377
  540SOL    HW1 1645   0.078   1.193   4.465
  540SOL    HW2 1646   0.161   1.212   4.326
  541SOL     OW 1647   1.824   0.192   4.951
  541SOL    HW1 1648   1.820   0.102   4.995
  541SOL    HW2 1649   1.827   0.181   4.852
  542SOL     OW 1650   0.428   0.424   4.244
  542SOL    HW1 1651   0.458   0.352   4.182
  542SOL    HW2 1652   0.389   0.384   4.327
  543SOL     OW 1653   0.812   1.586   4.411
  543SOL    HW1 1654   0.844   1.596   4.317
  543SOL    HW2 1655   0.733   1.524   4.413
  544SOL     OW 1656   0.770   1.330   4.025
  544SOL    HW1 1657   0.724   1.243   4.042
  544SOL    HW2 1658   0.861   1.327   4.066
  545SOL     OW 1659   1.352   0.052   3.892
  545SOL    HW1 1660   1.387   0.011   3.808
  545SOL    HW2 1661   1.262   0.014   3.912
  546SOL     OW 1662   1.300   0.453   4.415
  546SOL    HW1 1663   1.241   0.533   4.419
  546SOL    HW2 1664   1.315   0.418   4.508
  547SOL     OW 1665   1.593   0.221   4.606
  547SOL    HW1 1666   1.509   0.220   4.660
  547SOL    HW2 1667   1.595   0.304   4.550
  548SOL     OW 1668   0.039   1.077   4.024
  548SOL    HW1 1669   0.138   1.066   4.015
  548SOL    HW2 1670  -0.001   0.991   4.056
  549SOL     OW 1671   0.875   1.646   4.061
  549SOL    HW1 1672   0.798   1.611   4.007
  549SOL    HW2 1673   0.843   1.717   4.123
  550SOL     OW 1674   0.230   2.490   0.113
  550SOL    HW1 1675   0.137   2.488   0.150
  550SOL    HW2 1676   0.231   2.451   0.021
  551SOL     OW 1677   0.225   2.137   0.996
  551SOL    HW1 1678   0.260   2.120   1.088
  551SOL    HW2 1679   0.137   2.092   0.984
  552SOL     OW 1680   0.019   2.230   0.647
  552SOL    HW1 1681  -0.063   2.273   0.686
  552SOL    HW2 1682  -0.009   2.157   0.584
  553SOL     OW 1683   0.569   3.137   1.165
  553SOL    HW1 1684   0.476   3.130   1.128
  553SOL    HW2 1685   0.580   3.226   1.209
  554SOL     OW 1686   1.555   3.373   0.703
  554SOL    HW1 1687   1.498   3.357   0.784
  554SOL    HW2 1688   1.496   3.383   0.623
  555SOL     OW 1689   1.135   2.565   0.717
  555SOL    HW1 1690   1.192   2.643   0.692
  555SOL    HW2 1691   1.075   2.591   0.793
  556SOL     OW 1692   1.755   2.469   0.231
  556SOL    HW1 1693   1.743   2.456   0.132
  556SOL    HW2 1694   1.725   2.388   0.280
  557SOL     OW 1695   0.768   3.006   1.023
  557SOL    HW1 1696   0.690   3.023   1.083
  557SOL    HW2 1697   0.802   3.093   0.987
  558SOL     OW 1698   0.850   2.660   1.823
  558SOL    HW1 1699   0.846   2.736   1.888
  558SOL    HW2 1700   0.872   2.696   1.732
  559SOL     OW 1701   0.685   2.874   0.665
  559SOL    HW1 1702   0.754   2.858   0.735
  559SOL    HW2 1703   0.612   2.931   0.703
  560SOL     OW 1704   0.686   3.023   1.803
  560SOL    HW1 1705   0.746   3.102   1.817
  560SOL    HW2 1706   0.600   3.054   1.762
  561SOL     OW 1707   0.335   3.297   1.061
  561SOL    HW1 1708   0.257   3.266   1.008
  561SOL    HW2 1709   0.393   3.355   1.004
  562SOL     OW 1710   1.460   3.367   1.339
  562SOL    HW1 1711   1.484   3.461   1.365
  562SOL    HW2 1712   1.444   3.313   1.421
  563SOL     OW 1713   0.438   2.254   1.499
  563SOL    HW1 1714   0.520   2.198   1.508
  563SOL    HW2 1715   0.357   2.196   1.503
  564SOL     OW 1716   1.603   2.309   0.737
  564SOL    HW1 1717   1.529   2.355   0.687
  564SOL    HW2 1718   1.654   2.377   0.790
  565SOL     OW 1719   0.231   3.575   0.483
  565SOL    HW1 1720   0.265   3.652   0.537
  565SOL    HW2 1721   0.275   3.575   0.393
  566SOL     OW 1722   1.127   3.203   1.690
  566SOL    HW1 1723   1.174   3.203   1.778
  566SOL    HW2 1724   1.079   3.116   1.679
  567SOL     OW 1725   0.230   3.296   0.538
  567SOL    HW1 1726   0.204   3.392   0.538
  567SOL    HW2 1727   0.159   3.242   0.583
  568SOL     OW 1728   0.240   2.953   0.886
  568SOL    HW1 1729   0.254   2.869   0.938
  568SOL    HW2 1730   0.185   3.017   0.941
  569SOL     OW 1731   0.620   3.648   1.439
  569SOL    HW1 1732   0.528   3.631   1.474
  569SOL    HW2 1733   0.648   3.740   1.465
  570SOL     OW 1734   0.606   2.826   0.123
  570SOL    HW1 1735   0.613   2.910   0.069
  570SOL    HW2 1736   0.652   2.839   0.211
  571SOL     OW 1737   1.594   1.976   1.480
  571SOL    HW1 1738   1.576   2.043   1.408
  571SOL    HW2 1739   1.591   2.022   1.569
  572SOL     OW 1740   0.122   2.505   0.563
  572SOL    HW1 1741   0.077   2.417   0.580
  572SOL    HW2 1742   0.121   2.559   0.647
  573SOL     OW 1743   1.842   3.629   0.359
  573SOL    HW1 1744   1.896   3.600   0.439
  573SOL    HW2 1745   1.872   3.719   0.330
  574SOL     OW 1746   0.027   3.458   0.117
  574SOL    HW1 1747   0.008   3.362   0.138
  574SOL    HW2 1748  -0.006   3.516   0.192
  575SOL     OW 1749   1.689   2.784   0.612
  575SOL    HW1 1750   1.784   2.755   0.620
  575SOL    HW2 1751   1.681   2.849   0.537
  576SOL     OW 1752   1.641   2.970   0.432
  576SOL    HW1 1753   1.727   2.972   0.380
  576SOL    HW2 1754   1.655   3.017   0.520
  577SOL     OW 1755   0.113   2.599   1.597
  577SOL    HW1 1756   0.201   2.586   1.642
  577SOL    HW2 1757   0.100   2.696   1.575
  578SOL     OW 1758   0.613   3.227   0.726
  578SOL    HW1 1759   0.564   3.140   0.735
  578SOL    HW2 1760   0.590   3.270   0.639
  579SOL     OW 1761   1.293   3.090   1.423
  579SOL    HW1 1762   1.330   3.017   1.365
  579SOL    HW2 1763   1.345   3.095   1.508
  580SOL     OW 1764   0.809   1.866   0.502
  580SOL    HW1 1765   0.849   1.957   0.493
  580SOL    HW2 1766   0.709   1.874   0.508
  581SOL     OW 1767   0.197   2.838   1.264
  581SOL    HW1 1768   0.286   2.793   1.250
  581SOL    HW2 1769   0.124   2.773   1.245
  582SOL     OW 1770   1.525   2.861   0.190
  582SOL    HW1 1771   1.462   2.785   0.203
  582SOL    HW2 1772   1.573   2.879   0.276
  583SOL     OW 1773   1.187   3.654   1.616
  583SOL    HW1 1774   1.211   3.714   1.540
  583SOL    HW2 1775   1.194   3.559   1.586
  584SOL     OW 1776   0.317   2.113   1.801
  584SOL    HW1 1777   0.388   2.184   1.807
  584SOL    HW2 1778   0.229   2.152   1.829
  585SOL     OW 1779   1.466   3.279   0.953
  585SOL    HW1 1780   1.407   3.285   1.033
  585SOL    HW2 1781   1.451   3.191   0.907
  586SOL     OW 1782   1.667   3.576   0.572
  586SOL    HW1 1783   1.626   3.553   0.484
  586SOL    HW2 1784   1.649   3.502   0.637
  587SOL     OW 1785   0.598   2.591   0.270
  587SOL    HW1 1786   0.622   2.660   0.202
  587SOL    HW2 1787   0.520   2.624   0.324
  588SOL     OW 1788   1.281   2.207   0.944
  588SOL    HW1 1789   1.195   2.157   0.931
  588SOL    HW2 1790   1.343   2.153   1.000
  589SOL     OW 1791   1.576   3.524   0.307
  589SOL    HW1 1792   1.665   3.570   0.310
  589SOL    HW2 1793   1.555   3.500   0.212
  590SOL     OW 1794   0.807   2.467   1.465
  590SOL    HW1 1795   0.760   2.464   1.554
  590SOL    HW2 1796   0.756   2.412   1.399
  591SOL     OW 1797   1.394   2.331   1.674
  591SOL    HW1 1798   1.374   2.374   1.762
  591SOL    HW2 1799   1.472   2.269   1.683
  592SOL     OW 1800   0.973   2.752   1.572
  592SOL    HW1 1801   1.019   2.668   1.543
  592SOL    HW2 1802   0.917   2.786   1.497
  593SOL     OW 1803   0.991   2.272   1.242
  593SOL    HW1 1804   0.914   2.306   1.296
  593SOL    HW2 1805   0.957   2.221   1.163
  594SOL     OW 1806   1.041   2.563   0.429
  594SOL    HW1 1807   1.067   2.559   0.525
  594SOL    HW2 1808   0.956   2.512   0.415
  595SOL     OW 1809   0.076   2.673   0.789
  595SOL    HW1 1810   0.175   2.661   0.798
  595SOL    HW2 1811   0.052   2.768   0.810
  596SOL     OW 1812   0.130   3.683   1.571
  596SOL    HW1 1813   0.120   3.668   1.670
  596SOL    HW2 1814   0.044   3.719   1.535
  597SOL     OW 1815   0.865   2.210   0.195
  597SOL    HW1 1816   0.924   2.273   0.146
  597SOL    HW2 1817   0.884   2.116   0.166
  598SOL     OW 1818   1.719   2.447   1.831
  598SOL    HW1 1819   1.693   2.536   1.795
  598SOL    HW2 1820   1.717   2.379   1.758
  599SOL     OW 1821   1.362   3.006   0.545
  599SOL    HW1 1822   1.445   2.977   0.497
  599SOL    HW2 1823   1.313   3.073   0.489
  600SOL     OW 1824   0.550   2.058   0.885
  600SOL    HW1 1825   0.545   2.053   0.985
  600SOL    HW2 1826   0.552   2.154   0.856
  601SOL     OW 1827   1.008   3.318   0.477
  601SOL    HW1 1828   0.962   3.390   0.425
  601SOL    HW2 1829   1.004   3.338   0.575
  602SOL     OW 1830   0.351   3.663   0.853
  602SOL    HW1 1831   0.401   3.577   0.859
  602SOL    HW2 1832   0.416   3.740   0.850
  603SOL     OW 1833   1.795   2.928   0.873
  603SOL    HW1 1834   1.733   2.913   0.797
  603SOL    HW2 1835   1.743   2.939   0.958
  604SOL     OW 1836   1.227   3.412   1.506
  604SOL    HW1 1837   1.233   3.335   1.570
  604SOL    HW2 1838   1.175   3.386   1.426
  605SOL     OW 1839   0.321   2.805   0.242
  605SOL    HW1 1840   0.403   2.844   0.200
  605SOL    HW2 1841   0.294   2.723   0.193
  606SOL     OW 1842   1.458   2.597   0.728
  606SOL    HW1 1843   1.453   2.532   0.803
  606SOL    HW2 1844   1.538   2.656   0.741
  607SOL     OW 1845   0.461   3.128   1.727
  607SOL    HW1 1846   0.411   3.129   1.641
  607SOL    HW2 1847   0.398   3.110   1.803
  608SOL     OW 1848   1.111   3.638   0.237
  608SOL    HW1 1849   1.051   3.576   0.287
  608SOL    HW2 1850   1.142   3.594   0.152
  609SOL     OW 1851   0.202   2.147   1.498
  609SOL    HW1 1852   0.122   2.207   1.485
  609SOL    HW2 1853   0.192   2.098   1.584
  610SOL     OW 1854   1.632   3.239   0.081
  610SOL    HW1 1855   1.600   3.333   0.071
  610SOL    HW2 1856   1.556   3.176   0.069
  611SOL     OW 1857   0.464   3.605   0.323
  611SOL    HW1 1858   0.497   3.644   0.409
  611SOL    HW2 1859   0.540   3.598   0.258
  612SOL     OW 1860   1.400   1.969   0.426
  612SOL    HW1 1861   1.376   1.932   0.336
  612SOL    HW2 1862   1.499   1.985   0.430
  613SOL     OW 1863   0.249   3.647   1.241
  613SOL    HW1 1864   0.306   3.582   1.291
  613SOL    HW2 1865   0.233   3.614   1.148
  614SOL     OW 1866   0.940   3.560   0.904
  614SOL    HW1 1867   1.020   3.503   0.925
  614SOL    HW2 1868   0.891   3.520   0.827
  615SOL     OW 1869   0.382   2.562   0.480
  615SOL    HW1 1870   0.427   2.472   0.477
  615SOL    HW2 1871   0.288   2.551   0.513
  616SOL     OW 1872   1.547   2.084   1.729
  616SOL    HW1 1873   1.542   2.121   1.821
  616SOL    HW2 1874   1.475   2.015   1.717
  617SOL     OW 1875   0.614   1.984   0.117
  617SOL    HW1 1876   0.712   1.962   0.124
  617SOL    HW2 1877   0.583   1.967   0.024
  618SOL     OW 1878   0.781   2.126   1.749
  618SOL    HW1 1879   0.848   2.065   1.792
  618SOL    HW2 1880   0.708   2.145   1.814
  619SOL     OW 1881   0.888   3.376   1.195
  619SOL    HW1 1882   0.865   3.351   1.101
  619SOL    HW2 1883   0.949   3.307   1.234
  620SOL     OW 1884   1.351   2.452   1.433
  620SOL    HW1 1885   1.379   2.409   1.518
  620SOL    HW2 1886   1.376   2.548   1.434
  621SOL     OW 1887   0.803   3.264   0.924
  621SOL    HW1 1888   0.893   3.278   0.882
  621SOL    HW2 1889   0.732   3.266   0.853
  622SOL     OW 1890   0.922   2.365   0.899
  622SOL    HW1 1891   0.897   2.356   0.803
  622SOL    HW2 1892   0.970   2.283   0.930
  623SOL     OW 1893   0.539   1.926   0.512
  623SOL    HW1 1894   0.458   1.927   0.570
  623SOL    HW2 1895   0.542   2.009   0.457
  624SOL     OW 1896   1.434   3.050   0.041
  624SOL    HW1 1897   1.466   2.974   0.098
  624SOL    HW2 1898   1.342   3.077   0.071
  625SOL     OW 1899   0.935   2.098   0.480
  625SOL    HW1 1900   0.887   2.139   0.402
  625SOL    HW2 1901   1.034   2.096   0.461
  626SOL     OW 1902   1.076   2.545   1.464
  626SOL    HW1 1903   0.996   2.484   1.467
  626SOL    HW2 1904   1.157   2.492   1.440
  627SOL     OW 1905   1.227   3.432   0.793
  627SOL    HW1 1906   1.248   3.506   0.728
  627SOL    HW2 1907   1.295   3.432   0.866
  628SOL     OW 1908   0.459   3.014   0.741
  628SOL    HW1 1909   0.388   2.987   0.806
  628SOL    HW2 1910   0.433   2.986   0.648
  629SOL     OW 1911   1.271   3.659   0.591
  629SOL    HW1 1912   1.315   3.723   0.527
  629SOL    HW2 1913   1.221   3.711   0.661
  630SOL     OW 1914   1.032   2.411   0.016
  630SOL    HW1 1915   0.991   2.493  -0.023
  630SOL    HW2 1916   1.096   2.437   0.089
  631SOL     OW 1917   0.078   2.418   1.386
  631SOL    HW1 1918   0.170   2.417   1.345
  631SOL    HW2 1919   0.072   2.492   1.453
  632SOL     OW 1920   0.561   2.084   1.147
  632SOL    HW1 1921   0.599   2.000   1.184
  632SOL    HW2 1922   0.473   2.103   1.191
  633SOL     OW 1923   0.866   2.316   0.642
  633SOL    HW1 1924   0.834   2.388   0.580
  633SOL    HW2 1925   0.890   2.235   0.589
  634SOL     OW 1926   1.017   1.901   0.753
  634SOL    HW1 1927   0.945   1.906   0.684
  634SOL    HW2 1928   0.993   1.832   0.822
  635SOL     OW 1929   1.429   3.035   0.867
  635SOL    HW1 1930   1.374   2.951   0.860
  635SOL    HW2 1931   1.455   3.064   0.775
  636SOL     OW 1932   1.466   2.452   0.992
  636SOL    HW1 1933   1.436   2.357   0.999
  636SOL    HW2 1934   1.539   2.468   1.058
  637SOL     OW 1935   1.857   2.695   0.377
  637SOL    HW1 1936   1.899   2.631   0.441
  637SOL    HW2 1937   1.819   2.644   0.299
  638SOL     OW 1938   0.488   3.247   0.174
  638SOL    HW1 1939   0.401   3.232   0.221
  638SOL    HW2 1940   0.471   3.273   0.079
  639SOL     OW 1941   1.664   3.142   0.657
  639SOL    HW1 1942   1.763   3.150   0.671
  639SOL    HW2 1943   1.619   3.226   0.688
  640SOL     OW 1944   1.390   2.437   0.078
  640SOL    HW1 1945   1.336   2.416   0.159
  640SOL    HW2 1946   1.481   2.396   0.087
  641SOL     OW 1947   0.527   2.118   0.328
  641SOL    HW1 1948   0.554   2.059   0.253
  641SOL    HW2 1949   0.527   2.213   0.297
  642SOL     OW 1950   1.754   3.085   1.588
  642SOL    HW1 1951   1.845   3.046   1.575
  642SOL    HW2 1952   1.762   3.181   1.612
  643SOL     OW 1953   1.064   3.209   1.340
  643SOL    HW1 1954   0.984   3.186   1.395
  643SOL    HW2 1955   1.147   3.183   1.389
  644SOL     OW 1956   1.592   3.491   1.625
  644SOL    HW1 1957   1.619   3.525   1.535
  644SOL    HW2 1958   1.671   3.453   1.671
  645SOL     OW 1959   1.111   3.057   1.100
  645SOL    HW1 1960   1.071   3.101   1.181
  645SOL    HW2 1961   1.070   3.094   1.017
  646SOL     OW 1962   1.638   2.961   1.079
  646SOL    HW1 1963   1.643   3.042   1.138
  646SOL    HW2 1964   1.552   2.963   1.028
  647SOL     OW 1965   0.915   1.951   1.402
  647SOL    HW1 1966   0.940   1.931   1.307
  647SOL    HW2 1967   0.987   2.007   1.444
  648SOL     OW 1968   0.980   2.978   1.719
  648SOL    HW1 1969   0.881   2.984   1.729
  648SOL    HW2 1970   1.003   2.898   1.663
  649SOL     OW 1971   0.705   2.912   0.368
  649SOL    HW1 1972   0.691   2.919   0.467
  649SOL    HW2 1973   0.789   2.861   0.350
  650SOL     OW 1974   0.410   2.675   1.251
  650SOL    HW1 1975   0.496   2.687   1.301
  650SOL    HW2 1976   0.368   2.588   1.278
  651SOL     OW 1977   1.274   2.248   1.262
  651SOL    HW1 1978   1.295   2.322   1.326
  651SOL    HW2 1979   1.185   2.265   1.219
  652SOL     OW 1980   0.064   3.426   1.331
  652SOL    HW1 1981   0.018   3.508   1.297
  652SOL    HW2 1982   0.162   3.445   1.340
  653SOL     OW 1983   0.367   2.962   0.501
  653SOL    HW1 1984   0.360   3.045   0.445
  653SOL    HW2 1985   0.371   2.882   0.441
  654SOL     OW 1986   0.566   2.399   0.865
  654SOL    HW1 1987   0.578   2.465   0.791
  654SOL    HW2 1988   0.612   2.433   0.948
  655SOL     OW 1989   1.252   3.210   0.388
  655SOL    HW1 1990   1.302   3.287   0.428
  655SOL    HW2 1991   1.157   3.212   0.420
  656SOL     OW 1992   1.272   3.307   1.142
  656SOL    HW1 1993   1.319   3.320   1.229
  656SOL    HW2 1994   1.206   3.233   1.151
  657SOL     OW 1995   1.582   2.501   0.472
  657SOL    HW1 1996   1.551   2.562   0.545
  657SOL    HW2 1997   1.632   2.553   0.403
  658SOL     OW 1998   0.354   3.372   1.329
  658SOL    HW1 1999   0.333   3.328   1.242
  658SOL    HW2 2000   0.451   3.398   1.332
  659SOL     OW 2001   0.402   2.613   1.598
  659SOL    HW1 2002   0.470   2.668   1.551
  659SOL    HW2 2003   0.442   2.525   1.625
  660SOL     OW 2004   1.587   2.641   1.670
  660SOL    HW1 2005   1.495   2.679   1.665
  660SOL    HW2 2006   1.647   2.688   1.605
  661SOL     OW 2007   1.013   1.967   1.770
  661SOL    HW1 2008   1.019   2.052   1.718
  661SOL    HW2 2009   1.045   1.891   1.713
  662SOL     OW 2010   0.504   1.912   1.740
  662SOL    HW1 2011   0.462   1.855   1.670
  662SOL    HW2 2012   0.438   1.981   1.772
  663SOL     OW 2013   0.573   2.732   1.029
  663SOL    HW1 2014   0.617   2.821   1.020
  663SOL    HW2 2015   0.510   2.732   1.106
  664SOL     OW 2016   1.360   2.724   1.045
  664SOL    HW1 2017   1.285   2.724   0.979
  664SOL    HW2 2018   1.397   2.632   1.054
  665SOL     OW 2019   1.209   2.387   0.275
  665SOL    HW1 2020   1.222   2.303   0.329
  665SOL    HW2 2021   1.180   2.461   0.335
  666SOL     OW 2022   0.307   2.075   1.231
  666SOL    HW1 2023   0.284   2.112   1.321
  666SOL    HW2 2024   0.277   1.980   1.225
  667SOL     OW 2025   0.037   3.172   1.282
  667SOL    HW1 2026   0.090   3.123   1.350
  667SOL    HW2 2027   0.059   3.270   1.287
  668SOL     OW 2028   0.732   2.496   1.064
  668SOL    HW1 2029   0.791   2.470   0.988
  668SOL    HW2 2030   0.704   2.592   1.053
  669SOL     OW 2031   1.728   2.797   1.854
  669SOL    HW1 2032   1.682   2.790   1.765
  669SOL    HW2 2033   1.666   2.841   1.920
  670SOL     OW 2034   0.307   1.925   0.618
  670SOL    HW1 2035   0.296   2.019   0.651
  670SOL    HW2 2036   0.302   1.862   0.695
  671SOL     OW 2037   1.622   2.229   0.374
  671SOL    HW1 2038   1.624   2.153   0.438
  671SOL    HW2 2039   1.574   2.306   0.414
  672SOL     OW 2040   1.023   2.628   0.966
  672SOL    HW1 2041   1.038   2.649   1.062
  672SOL    HW2 2042   0.993   2.533   0.957
  673SOL     OW 2043   0.980   3.435   1.700
  673SOL    HW1 2044   0.960   3.479   1.612
  673SOL    HW2 2045   1.019   3.344   1.684
  674SOL     OW 2046   1.859   3.380   1.605
  674SOL    HW1 2047   1.873   3.407   1.510
  674SOL    HW2 2048   1.942   3.402   1.658
  675SOL     OW 2049   0.350   2.760   1.804
  675SOL    HW1 2050   0.426   2.804   1.852
  675SOL    HW2 2051   0.385   2.713   1.722
  676SOL     OW 2052   1.540   2.136   0.125
  676SOL    HW1 2053   1.479   2.061   0.148
  676SOL    HW2 2054   1.562   2.188   0.208
  677SOL     OW 2055   1.303   2.700   0.042
  677SOL    HW1 2056   1.337   2.607   0.057
  677SOL    HW2 2057   1.321   2.727  -0.053
  678SOL     OW 2058   1.068   3.195   0.849
  678SOL    HW1 2059   1.075   3.111   0.794
  678SOL    HW2 2060   1.130   3.264   0.813
  679SOL     OW 2061   0.319   2.672   0.949
  679SOL    HW1 2062   0.412   2.708   0.954
  679SOL    HW2 2063   0.313   2.587   1.001
  680SOL     OW 2064   0.339   2.371   1.006
  680SOL    HW1 2065   0.287   2.288   0.989
  680SOL    HW2 2066   0.416   2.376   0.942
  681SOL     OW 2067   1.138   2.242   1.678
  681SOL    HW1 2068   1.093   2.305   1.742
  681SOL    HW2 2069   1.231   2.273   1.661
  682SOL     OW 2070   1.160   2.069   1.477
  682SOL    HW1 2071   1.160   2.133   1.554
  682SOL    HW2 2072   1.188   2.117   1.394
  683SOL     OW 2073   0.008   3.188   0.200
  683SOL    HW1 2074  -0.085   3.209   0.169
  683SOL    HW2 2075   0.018   3.089   0.213
  684SOL     OW 2076   0.088   3.663   0.927
  684SOL    HW1 2077   0.046   3.577   0.900
  684SOL    HW2 2078   0.182   3.666   0.893
  685SOL     OW 2079   0.504   3.430   0.910
  685SOL    HW1 2080   0.570   3.504   0.919
  685SOL    HW2 2081   0.548   3.351   0.868
  686SOL     OW 2082   1.002   2.658   1.238
  686SOL    HW1 2083   1.043   2.626   1.324
  686SOL    HW2 2084   0.906   2.631   1.235
  687SOL     OW 2085   0.040   2.406   1.114
  687SOL    HW1 2086   0.125   2.373   1.073
  687SOL    HW2 2087   0.053   2.421   1.212
  688SOL     OW 2088   0.189   2.382   1.722
  688SOL    HW1 2089   0.248   2.342   1.652
  688SOL    HW2 2090   0.131   2.453   1.681
  689SOL     OW 2091   1.369   2.812   1.660
  689SOL    HW1 2092   1.408   2.901   1.680
  689SOL    HW2 2093   1.379   2.792   1.563
  690SOL     OW 2094   0.815   2.434   0.325
  690SOL    HW1 2095   0.822   2.345   0.279
  690SOL    HW2 2096   0.721   2.468   0.317
  691SOL     OW 2097   1.657   2.466   1.206
  691SOL    HW1 2098   1.619   2.397   1.268
  691SOL    HW2 2099   1.739   2.430   1.162
  692SOL     OW 2100   0.252   3.426   1.744
  692SOL    HW1 2101   0.222   3.483   1.820
  692SOL    HW2 2102   0.245   3.329   1.770
  693SOL     OW 2103   0.671   2.326   1.269
  693SOL    HW1 2104   0.637   2.237   1.239
  693SOL    HW2 2105   0.697   2.380   1.189
  694SOL     OW 2106   0.930   3.540   1.465
  694SOL    HW1 2107   0.906   3.522   1.370
  694SOL    HW2 2108   0.960   3.634   1.475
  695SOL     OW 2109   0.473   2.362   0.191
  695SOL    HW1 2110   0.534   2.442   0.195
  695SOL    HW2 2111   0.378   2.393   0.198
  696SOL     OW 2112   0.159   2.999   1.466
  696SOL    HW1 2113   0.181   2.938   1.542
  696SOL    HW2 2114   0.169   2.950   1.380
  697SOL     OW 2115   1.347   2.921   1.234
  697SOL    HW1 2116   1.371   2.858   1.160
  697SOL    HW2 2117   1.257   2.961   1.216
  698SOL     OW 2118   1.302   2.717   0.309
  698SOL    HW1 2119   1.216   2.686   0.351
  698SOL    HW2 2120   1.298   2.703   0.210
  699SOL     OW 2121   1.759   3.609   1.154
  699SOL    HW1 2122   1.820   3.639   1.081
  699SOL    HW2 2123   1.721   3.520   1.132
  700SOL     OW 2124   1.252   3.593   1.128
  700SOL    HW1 2125   1.336   3.598   1.074
  700SOL    HW2 2126   1.229   3.497   1.146
  701SOL     OW 2127   0.083   3.120   1.022
  701SOL    HW1 2128   0.078   3.119   1.122
  701SOL    HW2 2129   0.000   3.079   0.984
  702SOL     OW 2130   0.688   3.524   1.716
  702SOL    HW1 2131   0.632   3.605   1.725
  702SOL    HW2 2132   0.740   3.528   1.630
  703SOL     OW 2133   0.903   1.948   0.133
  703SOL    HW1 2134   0.954   1.949   0.047
  703SOL    HW2 2135   0.959   1.906   0.204
  704SOL     OW 2136   1.726   1.997   0.523
  704SOL    HW1 2137   1.799   1.980   0.456
  704SOL    HW2 2138   1.695   1.910   0.561
  705SOL     OW 2139   1.388   3.435   0.477
  705SOL    HW1 2140   1.455   3.447   0.403
  705SOL    HW2 2141   1.348   3.524   0.500
  706SOL     OW 2142   0.130   3.656   1.851
  706SOL    HW1 2143   0.089   3.582   1.904
  706SOL    HW2 2144   0.194   3.707   1.909
  707SOL     OW 2145   1.280   2.789   0.672
  707SOL    HW1 2146   1.340   2.708   0.674
  707SOL    HW2 2147   1.320   2.858   0.612
  708SOL     OW 2148   0.830   3.135   1.422
  708SOL    HW1 2149   0.825   3.168   1.517
  708SOL    HW2 2150   0.744   3.154   1.376
  709SOL     OW 2151   0.672   3.478   0.154
  709SOL    HW1 2152   0.681   3.488   0.055
  709SOL    HW2 2153   0.632   3.389   0.175
  710SOL     OW 2154   1.650   3.582   1.394
  710SOL    HW1 2155   1.703   3.592   1.310
  710SOL    HW2 2156   1.623   3.672   1.428
  711SOL     OW 2157   1.841   2.037   0.963
  711SOL    HW1 2158   1.880   1.952   0.927
  711SOL    HW2 2159   1.743   2.039   0.944
  712SOL     OW 2160   0.263   2.188   0.720
  712SOL    HW1 2161   0.184   2.239   0.686
  712SOL    HW2 2162   0.254   2.173   0.818
  713SOL     OW 2163   1.194   3.474   0.031
  713SOL    HW1 2164   1.200   3.381   0.068
  713SOL    HW2 2165   1.135   3.474  -0.049
  714SOL     OW 2166   0.822   2.864   1.372
  714SOL    HW1 2167   0.862   2.863   1.280
  714SOL    HW2 2168   0.832   2.956   1.412
  715SOL     OW 2169   0.916   2.772   0.291
  715SOL    HW1 2170   0.979   2.810   0.223
  715SOL    HW2 2171   0.956   2.689   0.330
  716SOL     OW 2172   1.504   3.469   0.044
  716SOL    HW1 2173   1.412   3.506   0.051
  716SOL    HW2 2174   1.542   3.489  -0.046
  717SOL     OW 2175   0.372   3.150   1.490
  717SOL    HW1 2176   0.359   3.243   1.456
  717SOL    HW2 2177   0.288   3.098   1.477
  718SOL     OW 2178   1.614   3.154   1.289
  718SOL    HW1 2179   1.674   3.157   1.369
  718SOL    HW2 2180   1.539   3.218   1.302
  719SOL     OW 2181   1.039   2.960   0.696
  719SOL    HW1 2182   0.969   2.913   0.750
  719SOL    HW2 2183   1.098   2.892   0.653
  720SOL     OW 2184   1.014   2.098   0.971
  720SOL    HW1 2185   1.006   2.062   0.878
  720SOL    HW2 2186   1.012   2.022   1.036
  721SOL     OW 2187   0.590   3.349   0.491
  721SOL    HW1 2188   0.632   3.291   0.421
  721SOL    HW2 2189   0.546   3.428   0.447
  722SOL     OW 2190   1.709   2.247   1.381
  722SOL    HW1 2191   1.782   2.316   1.385
  722SOL    HW2 2192   1.737   2.172   1.322
  723SOL     OW 2193   0.255   3.210   0.290
  723SOL    HW1 2194   0.159   3.211   0.263
  723SOL    HW2 2195   0.267   3.263   0.374
  724SOL     OW 2196   0.105   2.875   1.726
  724SOL    HW1 2197   0.028   2.842   1.780
  724SOL    HW2 2198   0.190   2.845   1.768
  725SOL     OW 2199   0.672   2.065   1.489
  725SOL    HW1 2200   0.762   2.049   1.449
  725SOL    HW2 2201   0.680   2.070   1.588
  726SOL     OW 2202   0.075   2.207   0.033
  726SOL    HW1 2203  -0.017   2.179   0.004
  726SOL    HW2 2204   0.106   2.284  -0.023
  727SOL     OW 2205   1.440   2.718   1.398
  727SOL    HW1 2206   1.383   2.770   1.335
  727SOL    HW2 2207   1.536   2.730   1.374
  728SOL     OW 2208   0.072   2.028   0.318
  728SOL    HW1 2209   0.055   2.111   0.264
  728SOL    HW2 2210   0.162   1.991   0.296
  729SOL     OW 2211   1.183   3.197   0.119
  729SOL    HW1 2212   1.084   3.186   0.121
  729SOL    HW2 2213   1.217   3.212   0.212
  730SOL     OW 2214   0.613   2.704   1.431
  730SOL    HW1 2215   0.669   2.785   1.414
  730SOL    HW2 2216   0.672   2.624   1.434
  731SOL     OW 2217   1.493   3.629   0.959
  731SOL    HW1 2218   1.526   3.693   0.890
  731SOL    HW2 2219   1.559   3.623   1.034
  732SOL     OW 2220   0.716   2.427   1.708
  732SOL    HW1 2221   0.735   2.492   1.782
  732SOL    HW2 2222   0.776   2.347   1.717
  733SOL     OW 2223   1.450   3.082   1.633
  733SOL    HW1 2224   1.441   3.072   1.732
  733SOL    HW2 2225   1.546   3.075   1.607
  734SOL     OW 2226   0.390   3.603   1.560
  734SOL    HW1 2227   0.299   3.644   1.558
  734SOL    HW2 2228   0.383   3.509   1.592
  735SOL     OW 2229   1.674   2.745   1.254
  735SOL    HW1 2230   1.647   2.656   1.217
  735SOL    HW2 2231   1.675   2.813   1.181
  736SOL     OW 2232   1.225   2.187   0.449
  736SOL    HW1 2233   1.290   2.113   0.438
  736SOL    HW2 2234   1.245   2.237   0.533
  737SOL     OW 2235   0.594   2.607   0.652
  737SOL    HW1 2236   0.644   2.692   0.633
  737SOL    HW2 2237   0.506   2.609   0.604
  738SOL     OW 2238   1.777   2.204   1.642
  738SOL    HW1 2239   1.760   2.235   1.548
  738SOL    HW2 2240   1.693   2.167   1.680
  739SOL     OW 2241   1.730   2.796   1.517
  739SOL    HW1 2242   1.768   2.887   1.532
  739SOL    HW2 2243   1.722   2.779   1.418
  740SOL     OW 2244   0.859   3.236   0.016
  740SOL    HW1 2245   0.813   3.251   0.104
  740SOL    HW2 2246   0.903   3.321  -0.014
  741SOL     OW 2247   0.661   3.652   0.953
  741SOL    HW1 2248   0.615   3.740   0.940
  741SOL    HW2 2249   0.760   3.664   0.946
  742SOL     OW 2250   0.859   2.818   0.861
  742SOL    HW1 2251   0.913   2.749   0.909
  742SOL    HW2 2252   0.827   2.887   0.927
  743SOL     OW 2253   1.083   2.846   0.087
  743SOL    HW1 2254   1.060   2.899   0.005
  743SOL    HW2 2255   1.164   2.790   0.068
  744SOL     OW 2256   1.861   3.431   0.851
  744SOL    HW1 2257   1.790   3.419   0.781
  744SOL    HW2 2258   1.862   3.352   0.911
  745SOL     OW 2259   0.221   3.176   1.844
  745SOL    HW1 2260   0.156   3.103   1.823
  745SOL    HW2 2261   0.225   3.190   1.942
  746SOL     OW 2262   0.079   3.102   0.653
  746SOL    HW1 2263   0.078   3.055   0.741
  746SOL    HW2 2264   0.161   3.074   0.602
  747SOL     OW 2265   0.672   3.253   1.624
  747SOL    HW1 2266   0.594   3.203   1.662
  747SOL    HW2 2267   0.669   3.348   1.655
  748SOL     OW 2268   1.824   2.054   1.227
  748SOL    HW1 2269   1.820   1.964   1.271
  748SOL    HW2 2270   1.827   2.043   1.128
  749SOL     OW 2271   0.428   2.286   0.520
  749SOL    HW1 2272   0.458   2.214   0.458
  749SOL    HW2 2273   0.389   2.246   0.603
  750SOL     OW 2274   1.705   3.349   1.104
  750SOL    HW1 2275   1.612   3.324   1.077
  750SOL    HW2 2276   1.731   3.299   1.186
  751SOL     OW 2277   0.317   2.409   1.280
  751SOL    HW1 2278   0.355   2.350   1.352
  751SOL    HW2 2279   0.357   2.383   1.192
  752SOL     OW 2280   0.812   3.448   0.687
  752SOL    HW1 2281   0.844   3.458   0.593
  752SOL    HW2 2282   0.733   3.386   0.689
  753SOL     OW 2283   1.424   2.076   1.112
  753SOL    HW1 2284   1.476   2.011   1.167
  753SOL    HW2 2285   1.375   2.139   1.173
  754SOL     OW 2286   1.001   1.896   1.154
  754SOL    HW1 2287   0.938   1.824   1.123
  754SOL    HW2 2288   1.094   1.860   1.154
  755SOL     OW 2289   0.770   3.192   0.301
  755SOL    HW1 2290   0.724   3.105   0.318
  755SOL    HW2 2291   0.861   3.189   0.342
  756SOL     OW 2292   0.618   3.429   1.284
  756SOL    HW1 2293   0.613   3.511   1.341
  756SOL    HW2 2294   0.707   3.426   1.239
  757SOL     OW 2295   1.352   1.914   0.168
  757SOL    HW1 2296   1.387   1.873   0.084
  757SOL    HW2 2297   1.262   1.876   0.188
  758SOL     OW 2298   1.300   2.315   0.691
  758SOL    HW1 2299   1.241   2.395   0.695
  758SOL    HW2 2300   1.315   2.280   0.784
  759SOL     OW 2301   1.593   2.083   0.882
  759SOL    HW1 2302   1.509   2.082   0.936
  759SOL    HW2 2303   1.595   2.166   0.826
  760SOL     OW 2304   0.039   2.939   0.300
  760SOL    HW1 2305   0.138   2.928   0.291
  760SOL    HW2 2306  -0.001   2.853   0.332
  761SOL     OW 2307   0.875   3.508   0.337
  761SOL    HW1 2308   0.798   3.473   0.283
  761SOL    HW2 2309   0.843   3.579   0.399
  762SOL     OW 2310   0.230   2.490   1.975
  762SOL    HW1 2311   0.137   2.488   2.012
  762SOL    HW2 2312   0.231   2.451   1.883
  763SOL     OW 2313   0.225   2.137   2.858
  763SOL    HW1 2314   0.260   2.120   2.950
  763SOL    HW2 2315   0.137   2.092   2.846
  764SOL     OW 2316   0.019   2.230   2.509
  764SOL    HW1 2317  -0.063   2.273   2.548
  764SOL    HW2 2318  -0.009   2.157   2.446
  765SOL     OW 2319   0.569   3.137   3.027
  765SOL    HW1 2320   0.476   3.130   2.990
  765SOL    HW2 2321   0.580   3.226   3.071
  766SOL     OW 2322   1.555   3.373   2.565
  766SOL    HW1 2323   1.498   3.357   2.646
  766SOL    HW2 2324   1.496   3.383   2.485
  767SOL     OW 2325   1.135   2.565   2.579
  767SOL    HW1 2326   1.192   2.643   2.554
  767SOL    HW2 2327   1.075   2.591   2.655
  768SOL     OW 2328   1.755   2.469   2.093
  768SOL    HW1 2329   1.743   2.456   1.994
  768SOL    HW2 2330   1.725   2.388   2.142
  769SOL     OW 2331   0.768   3.006   2.885
  769SOL    HW1 2332   0.690   3.023   2.945
  769SOL    HW2 2333   0.802   3.093   2.849
  770SOL     OW 2334   0.850   2.660   3.685
  770SOL    HW1 2335   0.846   2.736   3.750
  770SOL    HW2 2336   0.872   2.696   3.594
  771SOL     OW 2337   0.685   2.874   2.527
  771SOL    HW1 2338   0.754   2.858   2.597
  771SOL    HW2 2339   0.612   2.931   2.565
  772SOL     OW 2340   0.686   3.023   3.665
  772SOL    HW1 2341   0.746   3.102   3.679
  772SOL    HW2 2342   0.600   3.054   3.624
  773SOL     OW 2343   0.335   3.297   2.923
  773SOL    HW1 2344   0.257   3.266   2.870
  773SOL    HW2 2345   0.393   3.355   2.866
  774SOL     OW 2346   1.460   3.367   3.201
  774SOL    HW1 2347   1.484   3.461   3.227
  774SOL    HW2 2348   1.444   3.313   3.283
  775SOL     OW 2349   0.438   2.254   3.361
  775SOL    HW1 2350   0.520   2.198   3.370
  775SOL    HW2 2351   0.357   2.196   3.365
  776SOL     OW 2352   1.603   2.309   2.599
  776SOL    HW1 2353   1.529   2.355   2.549
  776SOL    HW2 2354   1.654   2.377   2.652
  777SOL     OW 2355   0.231   3.575   2.345
  777SOL    HW1 2356   0.265   3.652   2.399
  777SOL    HW2 2357   0.275   3.575   2.255
  778SOL     OW 2358   1.127   3.203   3.552
  778SOL    HW1 2359   1.174   3.203   3.640
  778SOL    HW2 2360   1.079   3.116   3.541
  779SOL     OW 2361   0.230   3.296   2.400
  779SOL    HW1 2362   0.204   3.392   2.400
  779SOL    HW2 2363   0.159   3.242   2.445
  780SOL     OW 2364   0.240   2.953   2.748
  780SOL    HW1 2365   0.254   2.869   2.800
  780SOL    HW2 2366   0.185   3.017   2.803
  781SOL     OW 2367   0.620   3.648   3.301
  781SOL    HW1 2368   0.528   3.631   3.336
  781SOL    HW2 2369   0.648   3.740   3.327
  782SOL     OW 2370   0.606   2.826   1.985
  782SOL    HW1 2371   0.613   2.910   1.931
  782SOL    HW2 2372   0.652   2.839   2.073
  783SOL     OW 2373   1.594   1.976   3.342
  783SOL    HW1 2374   1.576   2.043   3.270
  783SOL    HW2 2375   1.591   2.022   3.431
  784SOL     OW 2376   0.122   2.505   2.425
  784SOL    HW1 2377   0.077   2.417   2.442
  784SOL    HW2 2378   0.121   2.559   2.509
  785SOL     OW 2379   1.842   3.629   2.221
  785SOL    HW1 2380   1.896   3.600   2.301
  785SOL    HW2 2381   1.872   3.719   2.192
  786SOL     OW 2382   0.027   3.458   1.979
  786SOL    HW1 2383   0.008   3.362   2.000
  786SOL    HW2 2384  -0.006   3.516   2.054
  787SOL     OW 2385   1.689   2.784   2.474
  787SOL    HW1 2386   1.784   2.755   2.482
  787SOL    HW2 2387   1.681   2.849   2.399
  788SOL     OW 2388   1.641   2.970   2.294
  788SOL    HW1 2389   1.727   2.972   2.242
  788SOL    HW2 2390   1.655   3.017   2.382
  789SOL     OW 2391   0.113   2.599   3.459
  789SOL    HW1 2392   0.201   2.586   3.504
  789SOL    HW2 2393   0.100   2.696   3.437
  790SOL     OW 2394   0.613   3.227   2.588
  790SOL    HW1 2395   0.564   3.140   2.597
  790SOL    HW2 2396   0.590   3.270   2.501
  791SOL     OW 2397   1.293   3.090   3.285
  791SOL    HW1 2398   1.330   3.017   3.227
  791SOL    HW2 2399   1.345   3.095   3.370
  792SOL     OW 2400   0.809   1.866   2.364
  792SOL    HW1 2401   0.849   1.957   2.355
  792SOL    HW2 2402   0.709   1.874   2.370
  793SOL     OW 2403   0.197   2.838   3.126
  793SOL    HW1 2404   0.286   2.793   3.112
  793SOL    HW2 2405   0.124   2.773   3.107
  794SOL     OW 2406   1.525   2.861   2.052
  794SOL    HW1 2407   1.462   2.785   2.065
  794SOL    HW2 2408   1.573   2.879   2.138
  795SOL     OW 2409   1.187   3.654   3.478
  795SOL    HW1 2410   1.211   3.714   3.402
  795SOL    HW2 2411   1.194   3.559   3.448
  796SOL     OW 2412   0.317   2.113   3.663
  796SOL    HW1 2413   0.388   2.184   3.669
  796SOL    HW2 2414   0.229   2.152   3.691
  797SOL     OW 2415   1.466   3.279   2.815
  797SOL    HW1 2416   1.407   3.285   2.895
  797SOL    HW2 2417   1.451   3.191   2.769
  798SOL     OW 2418   1.667   3.576   2.434
  798SOL    HW1 2419   1.626   3.553   2.346
  798SOL    HW2 2420   1.649   3.502   2.499
  799SOL     OW 2421   0.598   2.591   2.132
  799SOL    HW1 2422   0.622   2.660   2.064
  799SOL    HW2 2423   0.520   2.624   2.186
  800SOL     OW 2424   1.281   2.207   2.806
  800SOL    HW1 2425   1.195   2.157   2.793
  800SOL    HW2 2426   1.343   2.153   2.862
  801SOL     OW 2427   1.576   3.524   2.169
  801SOL    HW1 2428   1.665   3.570   2.172
  801SOL    HW2 2429   1.555   3.500   2.074
  802SOL     OW 2430   0.807   2.467   3.327
  802SOL    HW1 2431   0.760   2.464   3.416
  802SOL    HW2 2432   0.756   2.412   3.261
  803SOL     OW 2433   1.394   2.331   3.536
  803SOL    HW1 2434   1.374   2.374   3.624
  803SOL    HW2 2435   1.472   2.269   3.545
  804SOL     OW 2436   0.973   2.752   3.434
  804SOL    HW1 2437   1.019   2.668   3.405
  804SOL    HW2 2438   0.917   2.786   3.359
  805SOL     OW 2439   0.991   2.272   3.104
  805SOL    HW1 2440   0.914   2.306   3.158
  805SOL    HW2 2441   0.957   2.221   3.025
  806SOL     OW 2442   1.041   2.563   2.291
  806SOL    HW1 2443   1.067   2.559   2.387
  806SOL    HW2 2444   0.956   2.512   2.277
  807SOL     OW 2445   0.076   2.673   2.651
  807SOL    HW1 2446   0.175   2.661   2.660
  807SOL    HW2 2447   0.052   2.768   2.672
  808SOL     OW 2448   0.130   3.683   3.433
  808SOL    HW1 2449   0.120   3.668   3.532
  808SOL    HW2 2450   0.044   3.719   3.397
  809SOL     OW 2451   0.865   2.210   2.057
  809SOL    HW1 2452   0.924   2.273   2.008
  809SOL    HW2 2453   0.884   2.116   2.028
  810SOL     OW 2454   1.719   2.447   3.693
  810SOL    HW1 2455   1.693   2.536   3.657
  810SOL    HW2 2456   1.717   2.379   3.620
  811SOL     OW 2457   1.362   3.006   2.407
  811SOL    HW1 2458   1.445   2.977   2.359
  811SOL    HW2 2459   1.313   3.073   2.351
  812SOL     OW 2460   0.550   2.058   2.747
  812SOL    HW1 2461   0.545   2.053   2.847
  812SOL    HW2 2462   0.552   2.154   2.718
  813SOL     OW 2463   1.008   3.318   2.339
  813SOL    HW1 2464   0.962   3.390   2.287
  813SOL    HW2 2465   1.004   3.338   2.437
  814SOL     OW 2466   0.351   3.663   2.715
  814SOL    HW1 2467   0.401   3.577   2.721
  814SOL    HW2 2468   0.416   3.740   2.712
  815SOL     OW 2469   1.795   2.928   2.735
  815SOL    HW1 2470   1.733   2.913   2.659
  815SOL    HW2 2471   1.743   2.939   2.820
  816SOL     OW 2472   1.227   3.412   3.368
  816SOL    HW1 2473   1.233   3.335   3.432
  816SOL    HW2 2474   1.175   3.386   3.288
  817SOL     OW 2475   0.321   2.805   2.104
  817SOL    HW1 2476   0.403   2.844   2.062
  817SOL    HW2 2477   0.294   2.723   2.055
  818SOL     OW 2478   1.458   2.597   2.590
  818SOL    HW1 2479   1.453   2.532   2.665
  818SOL    HW2 2480   1.538   2.656   2.603
  819SOL     OW 2481   0.461   3.128   3.589
  819SOL    HW1 2482   0.411   3.129   3.503
  819SOL    HW2 2483   0.398   3.110   3.665
  820SOL     OW 2484   1.111   3.638   2.099
  820SOL    HW1 2485   1.051   3.576   2.149
  820SOL    HW2 2486   1.142   3.594   2.014
  821SOL     OW 2487   0.202   2.147   3.360
  821SOL    HW1 2488   0.122   2.207   3.347
  821SOL    HW2 2489   0.192   2.098   3.446
  822SOL     OW 2490   1.632   3.239   1.943
  822SOL    HW1 2491   1.600   3.333   1.933
  822SOL    HW2 2492   1.556   3.176   1.931
  823SOL     OW 2493   0.464   3.605   2.185
  823SOL    HW1 2494   0.497   3.644   2.271
  823SOL    HW2 2495   0.540   3.598   2.120
  824SOL     OW 2496   1.400   1.969   2.288
  824SOL    HW1 2497   1.376   1.932   2.198
  824SOL    HW2 2498   1.499   1.985   2.292
  825SOL     OW 2499   0.249   3.647   3.103
  825SOL    HW1 2500   0.306   3.582   3.153
  825SOL    HW2 2501   0.233   3.614   3.010
  826SOL     OW 2502   0.940   3.560   2.766
  826SOL    HW1 2503   1.020   3.503   2.787
  826SOL    HW2 2504   0.891   3.520   2.689
  827SOL     OW 2505   0.382   2.562   2.342
  827SOL    HW1 2506   0.427   2.472   2.339
  827SOL    HW2 2507   0.288   2.551   2.375
  828SOL     OW 2508   1.547   2.084   3.591
  828SOL    HW1 2509   1.542   2.121   3.683
  828SOL    HW2 2510   1.475   2.015   3.579
  829SOL     OW 2511   0.614   1.984   1.979
  829SOL    HW1 2512   0.712   1.962   1.986
  829SOL    HW2 2513   0.583   1.967   1.886
  830SOL     OW 2514   0.781   2.126   3.611
  830SOL    HW1 2515   0.848   2.065   3.654
  830SOL    HW2 2516   0.708   2.145   3.676
  831SOL     OW 2517   0.888   3.376   3.057
  831SOL    HW1 2518   0.865   3.351   2.963
  831SOL    HW2 2519   0.949   3.307   3.096
  832SOL     OW 2520   1.351   2.452   3.295
  832SOL    HW1 2521   1.379   2.409   3.380
  832SOL    HW2 2522   1.376   2.548   3.296
  833SOL     OW 2523   0.803   3.264   2.786
  833SOL    HW1 2524   0.893   3.278   2.744
  833SOL    HW2 2525   0.732   3.266   2.715
  834SOL     OW 2526   0.922   2.365   2.761
  834SOL    HW1 2527   0.897   2.356   2.665
  834SOL    HW2 2528   0.970   2.283   2.792
  835SOL     OW 2529   0.539   1.926   2.374
  835SOL    HW1 2530   0.458   1.927   2.432
  835SOL    HW2 2531   0.542   2.009   2.319
  836SOL     OW 2532   1.434   3.050   1.903
  836SOL    HW1 2533   1.466   2.974   1.960
  836SOL    HW2 2534   1.342   3.077   1.933
  837SOL     OW 2535   0.297   1.897   2.033
  837SOL    HW1 2536   0.346   1.981   2.012
  837SOL    HW2 2537   0.359   1.832   2.078
  838SOL     OW 2538   0.935   2.098   2.342
  838SOL    HW1 2539   0.887   2.139   2.264
  838SOL    HW2 2540   1.034   2.096   2.323
  839SOL     OW 2541   1.076   2.545   3.326
  839SOL    HW1 2542   0.996   2.484   3.329
  839SOL    HW2 2543   1.157   2.492   3.302
  840SOL     OW 2544   1.227   3.432   2.655
  840SOL    HW1 2545   1.248   3.506   2.590
  840SOL    HW2 2546   1.295   3.432   2.728
  841SOL     OW 2547   0.459   3.014   2.603
  841SOL    HW1 2548   0.388   2.987   2.668
  841SOL    HW2 2549   0.433   2.986   2.510
  842SOL     OW 2550   1.271   3.659   2.453
  842SOL    HW1 2551   1.315   3.723   2.389
  842SOL    HW2 2552   1.221   3.711   2.523
  843SOL     OW 2553   1.032   2.411   1.878
  843SOL    HW1 2554   0.991   2.493   1.839
  843SOL    HW2 2555   1.096   2.437   1.951
  844SOL     OW 2556   0.078   2.418   3.248
  844SOL    HW1 2557   0.170   2.417   3.207
  844SOL    HW2 2558   0.072   2.492   3.315
  845SOL     OW 2559   0.561   2.084   3.009
  845SOL    HW1 2560   0.599   2.000   3.046
  845SOL    HW2 2561   0.473   2.103   3.053
  846SOL     OW 2562   0.866   2.316   2.504
  846SOL    HW1 2563   0.834   2.388   2.442
  846SOL    HW2 2564   0.890   2.235   2.451
  847SOL     OW 2565   1.017   1.901   2.615
  847SOL    HW1 2566   0.945   1.906   2.546
  847SOL    HW2 2567   0.993   1.832   2.684
  848SOL     OW 2568   1.429   3.035   2.729
  848SOL    HW1 2569   1.374   2.951   2.722
  848SOL    HW2 2570   1.455   3.064   2.637
  849SOL     OW 2571   1.466   2.452   2.854
  849SOL    HW1 2572   1.436   2.357   2.861
  849SOL    HW2 2573   1.539   2.468   2.920
  850SOL     OW 2574   1.857   2.695   2.239
  850SOL    HW1 2575   1.899   2.631   2.303
  850SOL    HW2 2576   1.819   2.644   2.161
  851SOL     OW 2577   0.488   3.247   2.036
  851SOL    HW1 2578   0.401   3.232   2.083
  851SOL    HW2 2579   0.471   3.273   1.941
  852SOL     OW 2580   1.664   3.142   2.519
  852SOL    HW1 2581   1.763   3.150   2.533
  852SOL    HW2 2582   1.619   3.226   2.550
  853SOL     OW 2583   1.390   2.437   1.940
  853SOL    HW1 2584   1.336   2.416   2.021
  853SOL    HW2 2585   1.481   2.396   1.949
  854SOL     OW 2586   0.527   2.118   2.190
  854SOL    HW1 2587   0.554   2.059   2.115
  854SOL    HW2 2588   0.527   2.213   2.159
  855SOL     OW 2589   1.754   3.085   3.450
  855SOL    HW1 2590   1.845   3.046   3.437
  855SOL    HW2 2591   1.762   3.181   3.474
  856SOL     OW 2592   1.064   3.209   3.202
  856SOL    HW1 2593   0.984   3.186   3.257
  856SOL    HW2 2594   1.147   3.183   3.251
  857SOL     OW 2595   1.592   3.491   3.487
  857SOL    HW1 2596   1.619   3.525   3.397
  857SOL    HW2 2597   1.671   3.453   3.533
  858SOL     OW 2598   1.111   3.057   2.962
  858SOL    HW1 2599   1.071   3.101   3.043
  858SOL    HW2 2600   1.070   3.094   2.879
  859SOL     OW 2601   1.638   2.961   2.941
  859SOL    HW1 2602   1.643   3.042   3.000
  859SOL    HW2 2603   1.552   2.963   2.890
  860SOL     OW 2604   0.915   1.951   3.264
  860SOL    HW1 2605   0.940   1.931   3.169
  860SOL    HW2 2606   0.987   2.007   3.306
  861SOL     OW 2607   0.980   2.978   3.581
  861SOL    HW1 2608   0.881   2.984   3.591
  861SOL    HW2 2609   1.003   2.898   3.525
  862SOL     OW 2610   0.705   2.912   2.230
  862SOL    HW1 2611   0.691   2.919   2.329
  862SOL    HW2 2612   0.789   2.861   2.212
  863SOL     OW 2613   0.410   2.675   3.113
  863SOL    HW1 2614   0.496   2.687   3.163
  863SOL    HW2 2615   0.368   2.588   3.140
  864SOL     OW 2616   1.274   2.248   3.124
  864SOL    HW1 2617   1.295   2.322   3.188
  864SOL    HW2 2618   1.185   2.265   3.081
  865SOL     OW 2619   0.064   3.426   3.193
  865SOL    HW1 2620   0.018   3.508   3.159
  865SOL    HW2 2621   0.162   3.445   3.202
  866SOL     OW 2622   0.367   2.962   2.363
  866SOL    HW1 2623   0.360   3.045   2.307
  866SOL    HW2 2624   0.371   2.882   2.303
  867SOL     OW 2625   0.566   2.399   2.727
  867SOL    HW1 2626   0.578   2.465   2.653
  867SOL    HW2 2627   0.612   2.433   2.810
  868SOL     OW 2628   1.252   3.210   2.250
  868SOL    HW1 2629   1.302   3.287   2.290
  868SOL    HW2 2630   1.157   3.212   2.282
  869SOL     OW 2631   1.272   3.307   3.004
  869SOL    HW1 2632   1.319   3.320   3.091
  869SOL    HW2 2633   1.206   3.233   3.013
  870SOL     OW 2634   1.582   2.501   2.334
  870SOL    HW1 2635   1.551   2.562   2.407
  870SOL    HW2 2636   1.632   2.553   2.265
  871SOL     OW 2637   0.354   3.372   3.191
  871SOL    HW1 2638   0.333   3.328   3.104
  871SOL    HW2 2639   0.451   3.398   3.194
  872SOL     OW 2640   0.402   2.613   3.460
  872SOL    HW1 2641   0.470   2.668   3.413
  872SOL    HW2 2642   0.442   2.525   3.487
  873SOL     OW 2643   1.587   2.641   3.532
  873SOL    HW1 2644   1.495   2.679   3.527
  873SOL    HW2 2645   1.647   2.688   3.467
  874SOL     OW 2646   1.013   1.967   3.632
  874SOL    HW1 2647   1.019   2.052   3.580
  874SOL    HW2 2648   1.045   1.891   3.575
  875SOL     OW 2649   0.504   1.912   3.602
  875SOL    HW1 2650   0.462   1.855   3.532
  875SOL    HW2 2651   0.438   1.981   3.634
  876SOL     OW 2652   0.573   2.732   2.891
  876SOL    HW1 2653   0.617   2.821   2.882
  876SOL    HW2 2654   0.510   2.732   2.968
  877SOL     OW 2655   1.360   2.724   2.907
  877SOL    HW1 2656   1.285   2.724   2.841
  877SOL    HW2 2657   1.397   2.632   2.916
  878SOL     OW 2658   1.209   2.387   2.137
  878SOL    HW1 2659   1.222   2.303   2.191
  878SOL    HW2 2660   1.180   2.461   2.197
  879SOL     OW 2661   0.307   2.075   3.093
  879SOL    HW1 2662   0.284   2.112   3.183
  879SOL    HW2 2663   0.277   1.980   3.087
  880SOL     OW 2664   0.037   3.172   3.144
  880SOL    HW1 2665   0.090   3.123   3.212
  880SOL    HW2 2666   0.059   3.270   3.149
  881SOL     OW 2667   0.732   2.496   2.926
  881SOL    HW1 2668   0.791   2.470   2.850
  881SOL    HW2 2669   0.704   2.592   2.915
  882SOL     OW 2670   1.728   2.797   3.716
  882SOL    HW1 2671   1.682   2.790   3.627
  882SOL    HW2 2672   1.666   2.841   3.782
  883SOL     OW 2673   0.307   1.925   2.480
  883SOL    HW1 2674   0.296   2.019   2.513
  883SOL    HW2 2675   0.302   1.862   2.557
  884SOL     OW 2676   1.622   2.229   2.236
  884SOL    HW1 2677   1.624   2.153   2.300
  884SOL    HW2 2678   1.574   2.306   2.276
  885SOL     OW 2679   1.023   2.628   2.828
  885SOL    HW1 2680   1.038   2.649   2.924
  885SOL    HW2 2681   0.993   2.533   2.819
  886SOL     OW 2682   0.980   3.435   3.562
  886SOL    HW1 2683   0.960   3.479   3.474
  886SOL    HW2 2684   1.019   3.344   3.546
  887SOL     OW 2685   1.859   3.380   3.467
  887SOL    HW1 2686   1.873   3.407   3.372
  887SOL    HW2 2687   1.942   3.402   3.520
  888SOL     OW 2688   0.350   2.760   3.666
  888SOL    HW1 2689   0.426   2.804   3.714
  888SOL    HW2 2690   0.385   2.713   3.584
  889SOL     OW 2691   1.540   2.136   1.987
  889SOL    HW1 2692   1.479   2.061   2.010
  889SOL    HW2 2693   1.562   2.188   2.070
  890SOL     OW 2694   1.303   2.700   1.904
  890SOL    HW1 2695   1.337   2.607   1.919
  890SOL    HW2 2696   1.321   2.727   1.809
  891SOL     OW 2697   1.068   3.195   2.711
  891SOL    HW1 2698   1.075   3.111   2.656
  891SOL    HW2 2699   1.130   3.264   2.675
  892SOL     OW 2700   0.319   2.672   2.811
  892SOL    HW1 2701   0.412   2.708   2.816
  892SOL    HW2 2702   0.313   2.587   2.863
  893SOL     OW 2703   0.339   2.371   2.868
  893SOL    HW1 2704   0.287   2.288   2.851
  893SOL    HW2 2705   0.416   2.376   2.804
  894SOL     OW 2706   1.138   2.242   3.540
  894SOL    HW1 2707   1.093   2.305   3.604
  894SOL    HW2 2708   1.231   2.273   3.523
  895SOL     OW 2709   1.160   2.069   3.339
  895SOL    HW1 2710   1.160   2.133   3.416
  895SOL    HW2 2711   1.188   2.117   3.256
  896SOL     OW 2712   0.008   3.188   2.062
  896SOL    HW1 2713  -0.085   3.209   2.031
  896SOL    HW2 2714   0.018   3.089   2.075
  897SOL     OW 2715   0.088   3.663   2.789
  897SOL    HW1 2716   0.046   3.577   2.762
  897SOL    HW2 2717   0.182   3.666   2.755
  898SOL     OW 2718   0.504   3.430   2.772
  898SOL    HW1 2719   0.570   3.504   2.781
  898SOL    HW2 2720   0.548   3.351   2.730
  899SOL     OW 2721   1.002   2.658   3.100
  899SOL    HW1 2722   1.043   2.626   3.186
  899SOL    HW2 2723   0.906   2.631   3.097
  900SOL     OW 2724   0.040   2.406   2.976
  900SOL    HW1 2725   0.125   2.373   2.935
  900SOL    HW2 2726   0.053   2.421   3.074
  901SOL     OW 2727   0.189   2.382   3.584
  901SOL    HW1 2728   0.248   2.342   3.514
  901SOL    HW2 2729   0.131   2.453   3.543
  902SOL     OW 2730   1.369   2.812   3.522
  902SOL    HW1 2731   1.408   2.901   3.542
  902SOL    HW2 2732   1.379   2.792   3.425
  903SOL     OW 2733   0.815   2.434   2.187
  903SOL    HW1 2734   0.822   2.345   2.141
  903SOL    HW2 2735   0.721   2.468   2.179
  904SOL     OW 2736   1.657   2.466   3.068
  904SOL    HW1 2737   1.619   2.397   3.130
  904SOL    HW2 2738   1.739   2.430   3.024
  905SOL     OW 2739   0.252   3.426   3.606
  905SOL    HW1 2740   0.222   3.483   3.682
  905SOL    HW2 2741   0.245   3.329   3.632
  906SOL     OW 2742   0.671   2.326   3.131
  906SOL    HW1 2743   0.637   2.237   3.101
  906SOL    HW2 2744   0.697   2.380   3.051
  907SOL     OW 2745   0.930   3.540   3.327
  907SOL    HW1 2746   0.906   3.522   3.232
  907SOL    HW2 2747   0.960   3.634   3.337
  908SOL     OW 2748   0.473   2.362   2.053
  908SOL    HW1 2749   0.534   2.442   2.057
  908SOL    HW2 2750   0.378   2.393   2.060
  909SOL     OW 2751   0.159   2.999   3.328
  909SOL    HW1 2752   0.181   2.938   3.404
  909SOL    HW2 2753   0.169   2.950   3.242
  910SOL     OW 2754   1.347   2.921   3.096
  910SOL    HW1 2755   1.371   2.858   3.022
  910SOL    HW2 2756   1.257   2.961   3.078
  911SOL     OW 2757   1.302   2.717   2.171
  911SOL    HW1 2758   1.216   2.686   2.213
  911SOL    HW2 2759   1.298   2.703   2.072
  912SOL     OW 2760   1.759   3.609   3.016
  912SOL    HW1 2761   1.820   3.639   2.943
  912SOL    HW2 2762   1.721   3.520   2.994
  913SOL     OW 2763   1.252   3.593   2.990
  913SOL    HW1 2764   1.336   3.598   2.936
  913SOL    HW2 2765   1.229   3.497   3.008
  914SOL     OW 2766   0.083   3.120   2.884
  914SOL    HW1 2767   0.078   3.119   2.984
  914SOL    HW2 2768   0.000   3.079   2.846
  915SOL     OW 2769   0.688   3.524   3.578
  915SOL    HW1 2770   0.632   3.605   3.587
  915SOL    HW2 2771   0.740   3.528   3.492
  916SOL     OW 2772   1.726   1.997   2.385
  916SOL    HW1 2773   1.799   1.980   2.318
  916SOL    HW2 2774   1.695   1.910   2.423
  917SOL     OW 2775   1.388   3.435   2.339
  917SOL    HW1 2776   1.455   3.447   2.265
  917SOL    HW2 2777   1.348   3.524   2.362
  918SOL     OW 2778   0.130   3.656   3.713
  918SOL    HW1 2779   0.089   3.582   3.766
  918SOL    HW2 2780   0.194   3.707   3.771
  919SOL     OW 2781   1.280   2.789   2.534
  919SOL    HW1 2782   1.340   2.708   2.536
  919SOL    HW2 2783   1.320   2.858   2.474
  920SOL     OW 2784   0.830   3.135   3.284
  920SOL    HW1 2785   0.825   3.168   3.379
  920SOL    HW2 2786   0.744   3.154   3.238
  921SOL     OW 2787   0.672   3.478   2.016
  921SOL    HW1 2788   0.681   3.488   1.917
  921SOL    HW2 2789   0.632   3.389   2.037
  922SOL     OW 2790   1.650   3.582   3.256
  922SOL    HW1 2791   1.703   3.592   3.172
  922SOL    HW2 2792   1.623   3.672   3.290
  923SOL     OW 2793   1.841   2.037   2.825
  923SOL    HW1 2794   1.880   1.952   2.789
  923SOL    HW2 2795   1.743   2.039   2.806
  924SOL     OW 2796   0.263   2.188   2.582
  924SOL    HW1 2797   0.184   2.239   2.548
  924SOL    HW2 2798   0.254   2.173   2.680
  925SOL     OW 2799   1.194   3.474   1.893
  925SOL    HW1 2800   1.200   3.381   1.930
  925SOL    HW2 2801   1.135   3.474   1.813
  926SOL     OW 2802   0.822   2.864   3.234
  926SOL    HW1 2803   0.862   2.863   3.142
  926SOL    HW2 2804   0.832   2.956   3.274
  927SOL     OW 2805   0.916   2.772   2.153
  927SOL    HW1 2806   0.979   2.810   2.085
  927SOL    HW2 2807   0.956   2.689   2.192
  928SOL     OW 2808   1.504   3.469   1.906
  928SOL    HW1 2809   1.412   3.506   1.913
  928SOL    HW2 2810   1.542   3.489   1.816
  929SOL     OW 2811   0.372   3.150   3.352
  929SOL    HW1 2812   0.359   3.243   3.318
  929SOL    HW2 2813   0.288   3.098   3.339
  930SOL     OW 2814   1.614   3.154   3.151
  930SOL    HW1 2815   1.674   3.157   3.231
  930SOL    HW2 2816   1.539   3.218   3.164
  931SOL     OW 2817   1.039   2.960   2.558
  931SOL    HW1 2818   0.969   2.913   2.612
  931SOL    HW2 2819   1.098   2.892   2.515
  932SOL     OW 2820   1.014   2.098   2.833
  932SOL    HW1 2821   1.006   2.062   2.740
  932SOL    HW2 2822   1.012   2.022   2.898
  933SOL     OW 2823   0.590   3.349   2.353
  933SOL    HW1 2824   0.632   3.291   2.283
  933SOL    HW2 2825   0.546   3.428   2.309
  934SOL     OW 2826   1.709   2.247   3.243
  934SOL    HW1 2827   1.782   2.316   3.247
  934SOL    HW2 2828   1.737   2.172   3.184
  935SOL     OW 2829   0.255   3.210   2.152
  935SOL    HW1 2830   0.159   3.211   2.125
  935SOL    HW2 2831   0.267   3.263   2.236
  936SOL     OW 2832   0.105   2.875   3.588
  936SOL    HW1 2833   0.028   2.842   3.642
  936SOL    HW2 2834   0.190   2.845   3.630
  937SOL     OW 2835   0.672   2.065   3.351
  937SOL    HW1 2836   0.762   2.049   3.311
  937SOL    HW2 2837   0.680   2.070   3.450
  938SOL     OW 2838   0.075   2.207   1.895
  938SOL    HW1 2839  -0.017   2.179   1.866
  938SOL    HW2 2840   0.106   2.284   1.839
  939SOL     OW 2841   1.440   2.718   3.260
  939SOL    HW1 2842   1.383   2.770   3.197
  939SOL    HW2 2843   1.536   2.730   3.236
  940SOL     OW 2844   0.072   2.028   2.180
  940SOL    HW1 2845   0.055   2.111   2.126
  940SOL    HW2 2846   0.162   1.991   2.158
  941SOL     OW 2847   1.183   3.197   1.981
  941SOL    HW1 2848   1.084   3.186   1.983
  941SOL    HW2 2849   1.217   3.212   2.074
  942SOL     OW 2850   0.613   2.704   3.293
  942SOL    HW1 2851   0.669   2.785   3.276
  942SOL    HW2 2852   0.672   2.624   3.296
  943SOL     OW 2853   1.493   3.629   2.821
  943SOL    HW1 2854   1.526   3.693   2.752
  943SOL    HW2 2855   1.559   3.623   2.896
  944SOL     OW 2856   0.716   2.427   3.570
  944SOL    HW1 2857   0.735   2.492   3.644
  944SOL    HW2 2858   0.776   2.347   3.579
  945SOL     OW 2859   1.450   3.082   3.495
  945SOL    HW1 2860   1.441   3.072   3.594
  945SOL    HW2 2861   1.546   3.075   3.469
  946SOL     OW 2862   0.390   3.603   3.422
  946SOL    HW1 2863   0.299   3.644   3.420
  946SOL    HW2 2864   0.383   3.509   3.454
  947SOL     OW 2865   1.674   2.745   3.116
  947SOL    HW1 2866   1.647   2.656   3.079
  947SOL    HW2 2867   1.675   2.813   3.043
  948SOL     OW 2868   1.225   2.187   2.311
  948SOL    HW1 2869   1.290   2.113   2.300
  948SOL    HW2 2870   1.245   2.237   2.395
  949SOL     OW 2871   0.594   2.607   2.514
  949SOL    HW1 2872   0.644   2.692   2.495
  949SOL    HW2 2873   0.506   2.609   2.466
  950SOL     OW 2874   1.777   2.204   3.504
  950SOL    HW1 2875   1.760   2.235   3.410
  950SOL    HW2 2876   1.693   2.167   3.542
  951SOL     OW 2877   1.730   2.796   3.379
  951SOL    HW1 2878   1.768   2.887   3.394
  951SOL    HW2 2879   1.722   2.779   3.280
  952SOL     OW 2880   0.859   3.236   1.878
  952SOL    HW1 2881   0.813   3.251   1.966
  952SOL    HW2 2882   0.903   3.321   1.848
  953SOL     OW 2883   0.661   3.652   2.815
  953SOL    HW1 2884   0.615   3.740   2.802
  953SOL    HW2 2885   0.760   3.664   2.808
  954SOL     OW 2886   0.859   2.818   2.723
  954SOL    HW1 2887   0.913   2.749   2.771
  954SOL    HW2 2888   0.827   2.887   2.789
  955SOL     OW 2889   1.083   2.846   1.949
  955SOL    HW1 2890   1.060   2.899   1.867
  955SOL    HW2 2891   1.164   2.790   1.930
  956SOL     OW 2892   1.861   3.431   2.713
  956SOL    HW1 2893   1.790   3.419   2.643
  956SOL    HW2 2894   1.862   3.352   2.773
  957SOL     OW 2895   0.221   3.176   3.706
  957SOL    HW1 2896   0.156   3.103   3.685
  957SOL    HW2 2897   0.225   3.190   3.804
  958SOL     OW 2898   0.079   3.102   2.515
  958SOL    HW1 2899   0.078   3.055   2.603
  958SOL    HW2 2900   0.161   3.074   2.464
  959SOL     OW 2901   0.672   3.253   3.486
  959SOL    HW1 2902   0.594   3.203   3.524
  959SOL    HW2 2903   0.669   3.348   3.517
  960SOL     OW 2904   1.824   2.054   3.089
  960SOL    HW1 2905   1.820   1.964   3.133
  960SOL    HW2 2906   1.827   2.043   2.990
  961SOL     OW 2907   0.428   2.286   2.382
  961SOL    HW1 2908   0.458   2.214   2.320
  961SOL    HW2 2909   0.389   2.246   2.465
  962SOL     OW 2910   1.705   3.349   2.966
  962SOL    HW1 2911   1.612   3.324   2.939
  962SOL    HW2 2912   1.731   3.299   3.048
  963SOL     OW 2913   0.317   2.409   3.142
  963SOL    HW1 2914   0.355   2.350   3.214
  963SOL    HW2 2915   0.357   2.383   3.054
  964SOL     OW 2916   0.812   3.448   2.549
  964SOL    HW1 2917   0.844   3.458   2.455
  964SOL    HW2 2918   0.733   3.386   2.551
  965SOL     OW 2919   1.424   2.076   2.974
  965SOL    HW1 2920   1.476   2.011   3.029
  965SOL    HW2 2921   1.375   2.139   3.035
  966SOL     OW 2922   1.001   1.896   3.016
  966SOL    HW1 2923   0.938   1.824   2.985
  966SOL    HW2 2924   1.094   1.860   3.016
  967SOL     OW 2925   0.770   3.192   2.163
  967SOL    HW1 2926   0.724   3.105   2.180
  967SOL    HW2 2927   0.861   3.189   2.204
  968SOL     OW 2928   0.618   3.429   3.146
  968SOL    HW1 2929   0.613   3.511   3.203
  968SOL    HW2 2930   0.707   3.426   3.101
  969SOL     OW 2931   1.352   1.914   2.030
  969SOL    HW1 2932   1.387   1.873   1.946
  969SOL    HW2 2933   1.262   1.876   2.050
  970SOL     OW 2934   1.300   2.315   2.553
  970SOL    HW1 2935   1.241   2.395   2.557
  970SOL    HW2 2936   1.315   2.280   2.646
  971SOL     OW 2937   1.593   2.083   2.744
  971SOL    HW1 2938   1.509   2.082   2.798
  971SOL    HW2 2939   1.595   2.166   2.688
  972SOL     OW 2940   0.039   2.939   2.162
  972SOL    HW1 2941   0.138   2.928   2.153
  972SOL    HW2 2942  -0.001   2.853   2.194
  973SOL     OW 2943   0.875   3.508   2.199
  973SOL    HW1 2944   0.798   3.473   2.145
  973SOL    HW2 2945   0.843   3.579   2.261
  974SOL     OW 2946   0.230   2.490   3.837
  974SOL    HW1 2947   0.137   2.488   3.874
  974SOL    HW2 2948   0.231   2.451   3.745
  975SOL     OW 2949   0.225   2.137   4.720
  975SOL    HW1 2950   0.260   2.120   4.812
  975SOL    HW2 2951   0.137   2.092   4.708
  976SOL     OW 2952   0.019   2.230   4.371
  976SOL    HW1 2953  -0.063   2.273   4.410
  976SOL    HW2 2954  -0.009   2.157   4.308
  977SOL     OW 2955   1.555   3.373   4.427
  977SOL    HW1 2956   1.498   3.357   4.508
  977SOL    HW2 2957   1.496   3.383   4.347
  978SOL     OW 2958   1.135   2.565   4.441
  978SOL    HW1 2959   1.192   2.643   4.416
  978SOL    HW2 2960   1.075   2.591   4.517
  979SOL     OW 2961   1.755   2.469   3.955
  979SOL    HW1 2962   1.743   2.456   3.856
  979SOL    HW2 2963   1.725   2.388   4.004
  980SOL     OW 2964   0.768   3.006   4.747
  980SOL    HW1 2965   0.690   3.023   4.807
  980SOL    HW2 2966   0.802   3.093   4.711
  981SOL     OW 2967   0.685   2.874   4.389
  981SOL    HW1 2968   0.754   2.858   4.459
  981SOL    HW2 2969   0.612   2.931   4.427
  982SOL     OW 2970   0.335   3.297   4.785
  982SOL    HW1 2971   0.257   3.266   4.732
  982SOL    HW2 2972   0.393   3.355   4.728
  983SOL     OW 2973   1.603   2.309   4.461
  983SOL    HW1 2974   1.529   2.355   4.411
  983SOL    HW2 2975   1.654   2.377   4.514
  984SOL     OW 2976   0.231   3.575   4.207
  984SOL    HW1 2977   0.265   3.652   4.261
  984SOL    HW2 2978   0.275   3.575   4.117
  985SOL     OW 2979   0.230   3.296   4.262
  985SOL    HW1 2980   0.204   3.392   4.262
  985SOL    HW2 2981   0.159   3.242   4.307
  986SOL     OW 2982   0.240   2.953   4.610
  986SOL    HW1 2983   0.254   2.869   4.662
  986SOL    HW2 2984   0.185   3.017   4.665
  987SOL     OW 2985   0.606   2.826   3.847
  987SOL    HW1 2986   0.613   2.910   3.793
  987SOL    HW2 2987   0.652   2.839   3.935
  988SOL     OW 2988   0.122   2.505   4.287
  988SOL    HW1 2989   0.077   2.417   4.304
  988SOL    HW2 2990   0.121   2.559   4.371
  989SOL     OW 2991   1.842   3.629   4.083
  989SOL    HW1 2992   1.896   3.600   4.163
  989SOL    HW2 2993   1.872   3.719   4.054
  990SOL     OW 2994   0.027   3.458   3.841
  990SOL    HW1 2995   0.008   3.362   3.862
  990SOL    HW2 2996  -0.006   3.516   3.916
  991SOL     OW 2997   1.689   2.784   4.336
  991SOL    HW1 2998   1.784   2.755   4.344
  991SOL    HW2 2999   1.681   2.849   4.261
  992SOL     OW 3000   1.641   2.970   4.156
  992SOL    HW1 3001   1.727   2.972   4.104
  992SOL    HW2 3002   1.655   3.017   4.244
  993SOL     OW 3003   0.613   3.227   4.450
  993SOL    HW1 3004   0.564   3.140   4.459
  993SOL    HW2 3005   0.590   3.270   4.363
  994SOL     OW 3006   0.809   1.866   4.226
  994SOL    HW1 3007   0.849   1.957   4.217
  994SOL    HW2 3008   0.709   1.874   4.232
  995SOL     OW 3009   1.525   2.861   3.914
  995SOL    HW1 3010   1.462   2.785   3.927
  995SOL    HW2 3011   1.573   2.879   4.000
  996SOL     OW 3012   1.466   3.279   4.677
  996SOL    HW1 3013   1.407   3.285   4.757
  996SOL    HW2 3014   1.451   3.191   4.631
  997SOL     OW 3015   1.667   3.576   4.296
  997SOL    HW1 3016   1.626   3.553   4.208
  997SOL    HW2 3017   1.649   3.502   4.361
  998SOL     OW 3018   0.598   2.591   3.994
  998SOL    HW1 3019   0.622   2.660   3.926
  998SOL    HW2 3020   0.520   2.624   4.048
  999SOL     OW 3021   1.281   2.207   4.668
  999SOL    HW1 3022   1.195   2.157   4.655
  999SOL    HW2 3023   1.343   2.153   4.724
 1000SOL     OW 3024   1.576   3.524   4.031
 1000SOL    HW1 3025   1.665   3.570   4.034
 1000SOL    HW2 3026   1.555   3.500   3.936
 1001SOL     OW 3027   1.041   2.563   4.153
 1001SOL    HW1 3028   1.067   2.559   4.249
 1001SOL    HW2 3029   0.956   2.512   4.139
 1002SOL     OW 3030   0.076   2.673   4.513
 1002SOL    HW1 3031   0.175   2.661   4.522
 1002SOL    HW2 3032   0.052   2.768   4.534
 1003SOL     OW 3033   0.865   2.210   3.919
 1003SOL    HW1 3034   0.924   2.273   3.870
 1003SOL    HW2 3035   0.884   2.116   3.890
 1004SOL     OW 3036   1.362   3.006   4.269
 1004SOL    HW1 3037   1.445   2.977   4.221
 1004SOL    HW2 3038   1.313   3.073   4.213
 1005SOL     OW 3039   0.550   2.058   4.609
 1005SOL    HW1 3040   0.545   2.053   4.709
 1005SOL    HW2 3041   0.552   2.154   4.580
 1006SOL     OW 3042   1.008   3.318   4.201
 1006SOL    HW1 3043   0.962   3.390   4.149
 1006SOL    HW2 3044   1.004   3.338   4.299
 1007SOL     OW 3045   0.351   3.663   4.577
 1007SOL    HW1 3046   0.401   3.577   4.583
 1007SOL    HW2 3047   0.416   3.740   4.574
 1008SOL     OW 3048   1.795   2.928   4.597
 1008SOL    HW1 3049   1.733   2.913   4.521
 1008SOL    HW2 3050   1.743   2.939   4.682
 1009SOL     OW 3051   0.321   2.805   3.966
 1009SOL    HW1 3052   0.403   2.844   3.924
 1009SOL    HW2 3053   0.294   2.723   3.917
 1010SOL     OW 3054   1.458   2.597   4.452
 1010SOL    HW1 3055   1.453   2.532   4.527
 1010SOL    HW2 3056   1.538   2.656   4.465
 1011SOL     OW 3057   1.111   3.638   3.961
 1011SOL    HW1 3058   1.051   3.576   4.011
 1011SOL    HW2 3059   1.142   3.594   3.876
 1012SOL     OW 3060   1.632   3.239   3.805
 1012SOL    HW1 3061   1.600   3.333   3.795
 1012SOL    HW2 3062   1.556   3.176   3.793
 1013SOL     OW 3063   0.464   3.605   4.047
 1013SOL    HW1 3064   0.497   3.644   4.133
 1013SOL    HW2 3065   0.540   3.598   3.982
 1014SOL     OW 3066   1.400   1.969   4.150
 1014SOL    HW1 3067   1.376   1.932   4.060
 1014SOL    HW2 3068   1.499   1.985   4.154
 1015SOL     OW 3069   0.249   3.647   4.965
 1015SOL    HW1 3070   0.306   3.582   5.015
 1015SOL    HW2 3071   0.233   3.614   4.872
 1016SOL     OW 3072   0.940   3.560   4.628
 1016SOL    HW1 3073   1.020   3.503   4.649
 1016SOL    HW2 3074   0.891   3.520   4.551
 1017SOL     OW 3075   0.382   2.562   4.204
 1017SOL    HW1 3076   0.427   2.472   4.201
 1017SOL    HW2 3077   0.288   2.551   4.237
 1018SOL     OW 3078   0.614   1.984   3.841
 1018SOL    HW1 3079   0.712   1.962   3.848
 1018SOL    HW2 3080   0.583   1.967   3.748
 1019SOL     OW 3081   0.803   3.264   4.648
 1019SOL    HW1 3082   0.893   3.278   4.606
 1019SOL    HW2 3083   0.732   3.266   4.577
 1020SOL     OW 3084   0.922   2.365   4.623
 1020SOL    HW1 3085   0.897   2.356   4.527
 1020SOL    HW2 3086   0.970   2.283   4.654
 1021SOL     OW 3087   0.539   1.926   4.236
 1021SOL    HW1 3088   0.458   1.927   4.294
 1021SOL    HW2 3089   0.542   2.009   4.181
 1022SOL     OW 3090   1.434   3.050   3.765
 1022SOL    HW1 3091   1.466   2.974   3.822
 1022SOL    HW2 3092   1.342   3.077   3.795
 1023SOL     OW 3093   0.297   1.897   3.895
 1023SOL    HW1 3094   0.346   1.981   3.874
 1023SOL    HW2 3095   0.359   1.832   3.940
 1024SOL     OW 3096   0.935   2.098   4.204
 1024SOL    HW1 3097   0.887   2.139   4.126
 1024SOL    HW2 3098   1.034   2.096   4.185
 1025SOL     OW 3099   1.227   3.432   4.517
 1025SOL    HW1 3100   1.248   3.506   4.452
 1025SOL    HW2 3101   1.295   3.432   4.590
 1026SOL     OW 3102   0.459   3.014   4.465
 1026SOL    HW1 3103   0.388   2.987   4.530
 1026SOL    HW2 3104   0.433   2.986   4.372
 1027SOL     OW 3105   1.271   3.659   4.315
 1027SOL    HW1 3106   1.315   3.723   4.251
 1027SOL    HW2 3107   1.221   3.711   4.385
 1028SOL     OW 3108   1.032   2.411   3.740
 1028SOL    HW1 3109   0.991   2.493   3.701
 1028SOL    HW2 3110   1.096   2.437   3.813
 1029SOL     OW 3111   0.866   2.316   4.366
 1029SOL    HW1 3112   0.834   2.388   4.304
 1029SOL    HW2 3113   0.890   2.235   4.313
 1030SOL     OW 3114   1.017   1.901   4.477
 1030SOL    HW1 3115   0.945   1.906   4.408
 1030SOL    HW2 3116   0.993   1.832   4.546
 1031SOL     OW 3117   1.429   3.035   4.591
 1031SOL    HW1 3118   1.374   2.951   4.584
 1031SOL    HW2 3119   1.455   3.064   4.499
 1032SOL     OW 3120   1.466   2.452   4.716
 1032SOL    HW1 3121   1.436   2.357   4.723
 1032SOL    HW2 3122   1.539   2.468   4.782
 1033SOL     OW 3123   1.857   2.695   4.101
 1033SOL    HW1 3124   1.899   2.631   4.165
 1033SOL    HW2 3125   1.819   2.644   4.023
 1034SOL     OW 3126   0.488   3.247   3.898
 1034SOL    HW1 3127   0.401   3.232   3.945
 1034SOL    HW2 3128   0.471   3.273   3.803
 1035SOL     OW 3129   1.664   3.142   4.381
 1035SOL    HW1 3130   1.763   3.150   4.395
 1035SOL    HW2 3131   1.619   3.226   4.412
 1036SOL     OW 3132   1.390   2.437   3.802
 1036SOL    HW1 3133   1.336   2.416   3.883
 1036SOL    HW2 3134   1.481   2.396   3.811
 1037SOL     OW 3135   0.527   2.118   4.052
 1037SOL    HW1 3136   0.554   2.059   3.977
 1037SOL    HW2 3137   0.527   2.213   4.021
 1038SOL     OW 3138   1.638   2.961   4.803
 1038SOL    HW1 3139   1.643   3.042   4.862
 1038SOL    HW2 3140   1.552   2.963   4.752
 1039SOL     OW 3141   0.705   2.912   4.092
 1039SOL    HW1 3142   0.691   2.919   4.191
 1039SOL    HW2 3143   0.789   2.861   4.074
 1040SOL     OW 3144   0.367   2.962   4.225
 1040SOL    HW1 3145   0.360   3.045   4.169
 1040SOL    HW2 3146   0.371   2.882   4.165
 1041SOL     OW 3147   0.566   2.399   4.589
 1041SOL    HW1 3148   0.578   2.465   4.515
 1041SOL    HW2 3149   0.612   2.433   4.672
 1042SOL     OW 3150   1.252   3.210   4.112
 1042SOL    HW1 3151   1.302   3.287   4.152
 1042SOL    HW2 3152   1.157   3.212   4.144
 1043SOL     OW 3153   1.582   2.501   4.196
 1043SOL    HW1 3154   1.551   2.562   4.269
 1043SOL    HW2 3155   1.632   2.553   4.127
 1044SOL     OW 3156   0.573   2.732   4.753
 1044SOL    HW1 3157   0.617   2.821   4.744
 1044SOL    HW2 3158   0.510   2.732   4.830
 1045SOL     OW 3159   1.209   2.387   3.999
 1045SOL    HW1 3160   1.222   2.303   4.053
 1045SOL    HW2 3161   1.180   2.461   4.059
 1046SOL     OW 3162   0.307   2.075   4.955
 1046SOL    HW1 3163   0.284   2.112   5.045
 1046SOL    HW2 3164   0.277   1.980   4.949
 1047SOL     OW 3165   0.732   2.496   4.788
 1047SOL    HW1 3166   0.791   2.470   4.712
 1047SOL    HW2 3167   0.704   2.592   4.777
 1048SOL     OW 3168   0.307   1.925   4.342
 1048SOL    HW1 3169   0.296   2.019   4.375
 1048SOL    HW2 3170   0.302   1.862   4.419
 1049SOL     OW 3171   1.622   2.229   4.098
 1049SOL    HW1 3172   1.624   2.153   4.162
 1049SOL    HW2 3173   1.574   2.306   4.138
 1050SOL     OW 3174   1.540   2.136   3.849
 1050SOL    HW1 3175   1.479   2.061   3.872
 1050SOL    HW2 3176   1.562   2.188   3.932
 1051SOL     OW 3177   1.303   2.700   3.766
 1051SOL    HW1 3178   1.337   2.607   3.781
 1051SOL    HW2 3179   1.321   2.727   3.671
 1052SOL     OW 3180   1.068   3.195   4.573
 1052SOL    HW1 3181   1.075   3.111   4.518
 1052SOL    HW2 3182   1.130   3.264   4.537
 1053SOL     OW 3183   0.319   2.672   4.673
 1053SOL    HW1 3184   0.412   2.708   4.678
 1053SOL    HW2 3185   0.313   2.587   4.725
 1054SOL     OW 3186   0.339   2.371   4.730
 1054SOL    HW1 3187   0.287   2.288   4.713
 1054SOL    HW2 3188   0.416   2.376   4.666
 1055SOL     OW 3189   0.008   3.188   3.924
 1055SOL    HW1 3190  -0.085   3.209   3.893
 1055SOL    HW2 3191   0.018   3.089   3.937
 1056SOL     OW 3192   0.088   3.663   4.651
 1056SOL    HW1 3193   0.046   3.577   4.624
 1056SOL    HW2 3194   0.182   3.666   4.617
 1057SOL     OW 3195   0.504   3.430   4.634
 1057SOL    HW1 3196   0.570   3.504   4.643
 1057SOL    HW2 3197   0.548   3.351   4.592
 1058SOL     OW 3198   1.002   2.658   4.962
 1058SOL    HW1 3199   1.043   2.626   5.048
 1058SOL    HW2 3200   0.906   2.631   4.959
 1059SOL     OW 3201   0.815   2.434   4.049
 1059SOL    HW1 3202   0.822   2.345   4.003
 1059SOL    HW2 3203   0.721   2.468   4.041
 1060SOL     OW 3204   0.671   2.326   4.993
 1060SOL    HW1 3205   0.637   2.237   4.963
 1060SOL    HW2 3206   0.697   2.380   4.913
 1061SOL     OW 3207   0.473   2.362   3.915
 1061SOL    HW1 3208   0.534   2.442   3.919
 1061SOL    HW2 3209   0.378   2.393   3.922
 1062SOL     OW 3210   1.302   2.717   4.033
 1062SOL    HW1 3211   1.216   2.686   4.075
 1062SOL    HW2 3212   1.298   2.703   3.934
 1063SOL     OW 3213   1.759   3.609   4.878
 1063SOL    HW1 3214   1.820   3.639   4.805
 1063SOL    HW2 3215   1.721   3.520   4.856
 1064SOL     OW 3216   0.083   3.120   4.746
 1064SOL    HW1 3217   0.078   3.119   4.846
 1064SOL    HW2 3218   0.000   3.079   4.708
 1065SOL     OW 3219   1.726   1.997   4.247
 1065SOL    HW1 3220   1.799   1.980   4.180
 1065SOL    HW2 3221   1.695   1.910   4.285
 1066SOL     OW 3222   1.388   3.435   4.201
 1066SOL    HW1 3223   1.455   3.447   4.127
 1066SOL    HW2 3224   1.348   3.524   4.224
 1067SOL     OW 3225   1.280   2.789   4.396
 1067SOL    HW1 3226   1.340   2.708   4.398
 1067SOL    HW2 3227   1.320   2.858   4.336
 1068SOL     OW 3228   0.672   3.478   3.878
 1068SOL    HW1 3229   0.681   3.488   3.779
 1068SOL    HW2 3230   0.632   3.389   3.899
 1069SOL     OW 3231   1.841   2.037   4.687
 1069SOL    HW1 3232   1.880   1.952   4.651
 1069SOL    HW2 3233   1.743   2.039   4.668
 1070SOL     OW 3234   0.263   2.188   4.444
 1070SOL    HW1 3235   0.184   2.239   4.410
 1070SOL    HW2 3236   0.254   2.173   4.542
 1071SOL     OW 3237   1.194   3.474   3.755
 1071SOL    HW1 3238   1.200   3.381   3.792
 1071SOL    HW2 3239   1.135   3.474   3.675
 1072SOL     OW 3240   0.916   2.772   4.015
 1072SOL    HW1 3241   0.979   2.810   3.947
 1072SOL    HW2 3242   0.956   2.689   4.054
 1073SOL     OW 3243   1.504   3.469   3.768
 1073SOL    HW1 3244   1.412   3.506   3.775
 1073SOL    HW2 3245   1.542   3.489   3.678
 1074SOL     OW 3246   1.039   2.960   4.420
 1074SOL    HW1 3247   0.969   2.913   4.474
 1074SOL    HW2 3248   1.098   2.892   4.377
 1075SOL     OW 3249   0.590   3.349   4.215
 1075SOL    HW1 3250   0.632   3.291   4.145
 1075SOL    HW2 3251   0.546   3.428   4.171
 1076SOL     OW 3252   0.255   3.210   4.014
 1076SOL    HW1 3253   0.159   3.211   3.987
 1076SOL    HW2 3254   0.267   3.263   4.098
 1077SOL     OW 3255   0.075   2.207   3.757
 1077SOL    HW1 3256  -0.017   2.179   3.728
 1077SOL    HW2 3257   0.106   2.284   3.701
 1078SOL     OW 3258   0.072   2.028   4.042
 1078SOL    HW1 3259   0.055   2.111   3.988
 1078SOL    HW2 3260   0.162   1.991   4.020
 1079SOL     OW 3261   1.183   3.197   3.843
 1079SOL    HW1 3262   1.084   3.186   3.845
 1079SOL    HW2 3263   1.217   3.212   3.936
 1080SOL     OW 3264   1.674   2.745   4.978
 1080SOL    HW1 3265   1.647   2.656   4.941
 1080SOL    HW2 3266   1.675   2.813   4.905
 1081SOL     OW 3267   1.225   2.187   4.173
 1081SOL    HW1 3268   1.290   2.113   4.162
 1081SOL    HW2 3269   1.245   2.237   4.257
 1082SOL     OW 3270   0.594   2.607   4.376
 1082SOL    HW1 3271   0.644   2.692   4.357
 1082SOL    HW2 3272   0.506   2.609   4.328
 1083SOL     OW 3273   0.859   3.236   3.740
 1083SOL    HW1 3274   0.813   3.251   3.828
 1083SOL    HW2 3275   0.903   3.321   3.710
 1084SOL     OW 3276   0.661   3.652   4.677
 1084SOL    HW1 3277   0.615   3.740   4.664
 1084SOL    HW2 3278   0.760   3.664   4.670
 1085SOL     OW 3279   0.859   2.818   4.585
 1085SOL    HW1 3280   0.913   2.749   4.633
 1085SOL    HW2 3281   0.827   2.887   4.651
 1086SOL     OW 3282   1.083   2.846   3.811
 1086SOL    HW1 3283   1.060   2.899   3.729
 1086SOL    HW2 3284   1.164   2.790   3.792
 1087SOL     OW 3285   1.861   3.431   4.575
 1087SOL    HW1 3286   1.790   3.419   4.505
 1087SOL    HW2 3287   1.862   3.352   4.635
 1088SOL     OW 3288   0.079   3.102   4.377
 1088SOL    HW1 3289   0.078   3.055   4.465
 1088SOL    HW2 3290   0.161   3.074   4.326
 1089SOL     OW 3291   1.824   2.054   4.951
 1089SOL    HW1 3292   1.820   1.964   4.995
 1089SOL    HW2 3293   1.827   2.043   4.852
 1090SOL     OW 3294   0.428   2.286   4.244
 1090SOL    HW1 3295   0.458   2.214   4.182
 1090SOL    HW2 3296   0.389   2.246   4.327
 1091SOL     OW 3297   0.812   3.448   4.411
 1091SOL    HW1 3298   0.844   3.458   4.317
 1091SOL    HW2 3299   0.733   3.386   4.413
 1092SOL     OW 3300   0.770   3.192   4.025
 1092SOL    HW1 3301   0.724   3.105   4.042
 1092SOL    HW2 3302   0.861   3.189   4.066
 1093SOL     OW 3303   1.352   1.914   3.892
 1093SOL    HW1 3304   1.387   1.873   3.808
 1093SOL    HW2 3305   1.262   1.876   3.912
 1094SOL     OW 3306   1.300   2.315   4.415
 1094SOL    HW1 3307   1.241   2.395   4.419
 1094SOL    HW2 3308   1.315   2.280   4.508
 1095SOL     OW 3309   1.593   2.083   4.606
 1095SOL    HW1 3310   1.509   2.082   4.660
 1095SOL    HW2 3311   1.595   2.166   4.550
 1096SOL     OW 3312   0.039   2.939   4.024
 1096SOL    HW1 3313   0.138   2.928   4.015
 1096SOL    HW2 3314  -0.001   2.853   4.056
 1097SOL     OW 3315   0.875   3.508   4.061
 1097SOL    HW1 3316   0.798   3.473   4.007
 1097SOL    HW2 3317   0.843   3.579   4.123
 1098SOL     OW 3318   0.230   4.352   0.113
 1098SOL    HW1 3319   0.137   4.350   0.150
 1098SOL    HW2 3320   0.231   4.313   0.021
 1099SOL     OW 3321   0.225   3.999   0.996
 1099SOL    HW1 3322   0.260   3.982   1.088
 1099SOL    HW2 3323   0.137   3.954   0.984
 1100SOL     OW 3324   0.019   4.092   0.647
 1100SOL    HW1 3325  -0.063   4.135   0.686
 1100SOL    HW2 3326  -0.009   4.019   0.584
 1101SOL     OW 3327   1.135   4.427   0.717
 1101SOL    HW1 3328   1.192   4.505   0.692
 1101SOL    HW2 3329   1.075   4.453   0.793
 1102SOL     OW 3330   1.755   4.331   0.231
 1102SOL    HW1 3331   1.743   4.318   0.132
 1102SOL    HW2 3332   1.725   4.250   0.280
 1103SOL     OW 3333   0.768   4.868   1.023
 1103SOL    HW1 3334   0.690   4.885   1.083
 1103SOL    HW2 3335   0.802   4.955   0.987
 1104SOL     OW 3336   0.850   4.522   1.823
 1104SOL    HW1 3337   0.846   4.598   1.888
 1104SOL    HW2 3338   0.872   4.558   1.732
 1105SOL     OW 3339   0.685   4.736   0.665
 1105SOL    HW1 3340   0.754   4.720   0.735
 1105SOL    HW2 3341   0.612   4.793   0.703
 1106SOL     OW 3342   0.438   4.116   1.499
 1106SOL    HW1 3343   0.520   4.060   1.508
 1106SOL    HW2 3344   0.357   4.058   1.503
 1107SOL     OW 3345   1.603   4.171   0.737
 1107SOL    HW1 3346   1.529   4.217   0.687
 1107SOL    HW2 3347   1.654   4.239   0.790
 1108SOL     OW 3348   0.240   4.815   0.886
 1108SOL    HW1 3349   0.254   4.731   0.938
 1108SOL    HW2 3350   0.185   4.879   0.941
 1109SOL     OW 3351   0.606   4.688   0.123
 1109SOL    HW1 3352   0.613   4.772   0.069
 1109SOL    HW2 3353   0.652   4.701   0.211
 1110SOL     OW 3354   1.594   3.838   1.480
 1110SOL    HW1 3355   1.576   3.905   1.408
 1110SOL    HW2 3356   1.591   3.884   1.569
 1111SOL     OW 3357   0.122   4.367   0.563
 1111SOL    HW1 3358   0.077   4.279   0.580
 1111SOL    HW2 3359   0.121   4.421   0.647
 1112SOL     OW 3360   1.689   4.646   0.612
 1112SOL    HW1 3361   1.784   4.617   0.620
 1112SOL    HW2 3362   1.681   4.711   0.537
 1113SOL     OW 3363   0.113   4.461   1.597
 1113SOL    HW1 3364   0.201   4.448   1.642
 1113SOL    HW2 3365   0.100   4.558   1.575
 1114SOL     OW 3366   0.809   3.728   0.502
 1114SOL    HW1 3367   0.849   3.819   0.493
 1114SOL    HW2 3368   0.709   3.736   0.508
 1115SOL     OW 3369   0.197   4.700   1.264
 1115SOL    HW1 3370   0.286   4.655   1.250
 1115SOL    HW2 3371   0.124   4.635   1.245
 1116SOL     OW 3372   1.525   4.723   0.190
 1116SOL    HW1 3373   1.462   4.647   0.203
 1116SOL    HW2 3374   1.573   4.741   0.276
 1117SOL     OW 3375   0.317   3.975   1.801
 1117SOL    HW1 3376   0.388   4.046   1.807
 1117SOL    HW2 3377   0.229   4.014   1.829
 1118SOL     OW 3378   0.598   4.453   0.270
 1118SOL    HW1 3379   0.622   4.522   0.202
 1118SOL    HW2 3380   0.520   4.486   0.324
 1119SOL     OW 3381   1.281   4.069   0.944
 1119SOL    HW1 3382   1.195   4.019   0.931
 1119SOL    HW2 3383   1.343   4.015   1.000
 1120SOL     OW 3384   0.807   4.329   1.465
 1120SOL    HW1 3385   0.760   4.326   1.554
 1120SOL    HW2 3386   0.756   4.274   1.399
 1121SOL     OW 3387   1.394   4.193   1.674
 1121SOL    HW1 3388   1.374   4.236   1.762
 1121SOL    HW2 3389   1.472   4.131   1.683
 1122SOL     OW 3390   0.973   4.614   1.572
 1122SOL    HW1 3391   1.019   4.530   1.543
 1122SOL    HW2 3392   0.917   4.648   1.497
 1123SOL     OW 3393   0.991   4.134   1.242
 1123SOL    HW1 3394   0.914   4.168   1.296
 1123SOL    HW2 3395   0.957   4.083   1.163
 1124SOL     OW 3396   1.041   4.425   0.429
 1124SOL    HW1 3397   1.067   4.421   0.525
 1124SOL    HW2 3398   0.956   4.374   0.415
 1125SOL     OW 3399   0.076   4.535   0.789
 1125SOL    HW1 3400   0.175   4.523   0.798
 1125SOL    HW2 3401   0.052   4.630   0.810
 1126SOL     OW 3402   0.865   4.072   0.195
 1126SOL    HW1 3403   0.924   4.135   0.146
 1126SOL    HW2 3404   0.884   3.978   0.166
 1127SOL     OW 3405   1.719   4.309   1.831
 1127SOL    HW1 3406   1.693   4.398   1.795
 1127SOL    HW2 3407   1.717   4.241   1.758
 1128SOL     OW 3408   0.550   3.920   0.885
 1128SOL    HW1 3409   0.545   3.915   0.985
 1128SOL    HW2 3410   0.552   4.016   0.856
 1129SOL     OW 3411   1.458   4.459   0.728
 1129SOL    HW1 3412   1.453   4.394   0.803
 1129SOL    HW2 3413   1.538   4.518   0.741
 1130SOL     OW 3414   0.202   4.009   1.498
 1130SOL    HW1 3415   0.122   4.069   1.485
 1130SOL    HW2 3416   0.192   3.960   1.584
 1131SOL     OW 3417   1.400   3.831   0.426
 1131SOL    HW1 3418   1.376   3.794   0.336
 1131SOL    HW2 3419   1.499   3.847   0.430
 1132SOL     OW 3420   0.382   4.424   0.480
 1132SOL    HW1 3421   0.427   4.334   0.477
 1132SOL    HW2 3422   0.288   4.413   0.513
 1133SOL     OW 3423   1.547   3.946   1.729
 1133SOL    HW1 3424   1.542   3.983   1.821
 1133SOL    HW2 3425   1.475   3.877   1.717
 1134SOL     OW 3426   0.614   3.846   0.117
 1134SOL    HW1 3427   0.712   3.824   0.124
 1134SOL    HW2 3428   0.583   3.829   0.024
 1135SOL     OW 3429   0.781   3.988   1.749
 1135SOL    HW1 3430   0.848   3.927   1.792
 1135SOL    HW2 3431   0.708   4.007   1.814
 1136SOL     OW 3432   1.351   4.314   1.433
 1136SOL    HW1 3433   1.379   4.271   1.518
 1136SOL    HW2 3434   1.376   4.410   1.434
 1137SOL     OW 3435   0.922   4.227   0.899
 1137SOL    HW1 3436   0.897   4.218   0.803
 1137SOL    HW2 3437   0.970   4.145   0.930
 1138SOL     OW 3438   0.539   3.788   0.512
 1138SOL    HW1 3439   0.458   3.789   0.570
 1138SOL    HW2 3440   0.542   3.871   0.457
 1139SOL     OW 3441   0.935   3.960   0.480
 1139SOL    HW1 3442   0.887   4.001   0.402
 1139SOL    HW2 3443   1.034   3.958   0.461
 1140SOL     OW 3444   1.076   4.407   1.464
 1140SOL    HW1 3445   0.996   4.346   1.467
 1140SOL    HW2 3446   1.157   4.354   1.440
 1141SOL     OW 3447   1.032   4.273   0.016
 1141SOL    HW1 3448   0.991   4.355  -0.023
 1141SOL    HW2 3449   1.096   4.299   0.089
 1142SOL     OW 3450   0.078   4.280   1.386
 1142SOL    HW1 3451   0.170   4.279   1.345
 1142SOL    HW2 3452   0.072   4.354   1.453
 1143SOL     OW 3453   0.561   3.946   1.147
 1143SOL    HW1 3454   0.599   3.862   1.184
 1143SOL    HW2 3455   0.473   3.965   1.191
 1144SOL     OW 3456   0.866   4.178   0.642
 1144SOL    HW1 3457   0.834   4.250   0.580
 1144SOL    HW2 3458   0.890   4.097   0.589
 1145SOL     OW 3459   1.017   3.763   0.753
 1145SOL    HW1 3460   0.945   3.768   0.684
 1145SOL    HW2 3461   0.993   3.694   0.822
 1146SOL     OW 3462   1.429   4.897   0.867
 1146SOL    HW1 3463   1.374   4.813   0.860
 1146SOL    HW2 3464   1.455   4.926   0.775
 1147SOL     OW 3465   1.466   4.314   0.992
 1147SOL    HW1 3466   1.436   4.219   0.999
 1147SOL    HW2 3467   1.539   4.330   1.058
 1148SOL     OW 3468   1.857   4.557   0.377
 1148SOL    HW1 3469   1.899   4.493   0.441
 1148SOL    HW2 3470   1.819   4.506   0.299
 1149SOL     OW 3471   1.390   4.299   0.078
 1149SOL    HW1 3472   1.336   4.278   0.159
 1149SOL    HW2 3473   1.481   4.258   0.087
 1150SOL     OW 3474   0.527   3.980   0.328
 1150SOL    HW1 3475   0.554   3.921   0.253
 1150SOL    HW2 3476   0.527   4.075   0.297
 1151SOL     OW 3477   1.638   4.823   1.079
 1151SOL    HW1 3478   1.643   4.904   1.138
 1151SOL    HW2 3479   1.552   4.825   1.028
 1152SOL     OW 3480   0.915   3.813   1.402
 1152SOL    HW1 3481   0.940   3.793   1.307
 1152SOL    HW2 3482   0.987   3.869   1.444
 1153SOL     OW 3483   0.410   4.537   1.251
 1153SOL    HW1 3484   0.496   4.549   1.301
 1153SOL    HW2 3485   0.368   4.450   1.278
 1154SOL     OW 3486   1.274   4.110   1.262
 1154SOL    HW1 3487   1.295   4.184   1.326
 1154SOL    HW2 3488   1.185   4.127   1.219
 1155SOL     OW 3489   0.566   4.261   0.865
 1155SOL    HW1 3490   0.578   4.327   0.791
 1155SOL    HW2 3491   0.612   4.295   0.948
 1156SOL     OW 3492   1.582   4.363   0.472
 1156SOL    HW1 3493   1.551   4.424   0.545
 1156SOL    HW2 3494   1.632   4.415   0.403
 1157SOL     OW 3495   0.402   4.475   1.598
 1157SOL    HW1 3496   0.470   4.530   1.551
 1157SOL    HW2 3497   0.442   4.387   1.625
 1158SOL     OW 3498   1.587   4.503   1.670
 1158SOL    HW1 3499   1.495   4.541   1.665
 1158SOL    HW2 3500   1.647   4.550   1.605
 1159SOL     OW 3501   1.013   3.829   1.770
 1159SOL    HW1 3502   1.019   3.914   1.718
 1159SOL    HW2 3503   1.045   3.753   1.713
 1160SOL     OW 3504   0.504   3.774   1.740
 1160SOL    HW1 3505   0.462   3.717   1.670
 1160SOL    HW2 3506   0.438   3.843   1.772
 1161SOL     OW 3507   0.573   4.594   1.029
 1161SOL    HW1 3508   0.617   4.683   1.020
 1161SOL    HW2 3509   0.510   4.594   1.106
 1162SOL     OW 3510   1.360   4.586   1.045
 1162SOL    HW1 3511   1.285   4.586   0.979
 1162SOL    HW2 3512   1.397   4.494   1.054
 1163SOL     OW 3513   1.209   4.249   0.275
 1163SOL    HW1 3514   1.222   4.165   0.329
 1163SOL    HW2 3515   1.180   4.323   0.335
 1164SOL     OW 3516   0.307   3.937   1.231
 1164SOL    HW1 3517   0.284   3.974   1.321
 1164SOL    HW2 3518   0.277   3.842   1.225
 1165SOL     OW 3519   0.037   5.034   1.282
 1165SOL    HW1 3520   0.090   4.985   1.350
 1165SOL    HW2 3521   0.059   5.132   1.287
 1166SOL     OW 3522   0.732   4.358   1.064
 1166SOL    HW1 3523   0.791   4.332   0.988
 1166SOL    HW2 3524   0.704   4.454   1.053
 1167SOL     OW 3525   1.728   4.659   1.854
 1167SOL    HW1 3526   1.682   4.652   1.765
 1167SOL    HW2 3527   1.666   4.703   1.920
 1168SOL     OW 3528   0.307   3.787   0.618
 1168SOL    HW1 3529   0.296   3.881   0.651
 1168SOL    HW2 3530   0.302   3.724   0.695
 1169SOL     OW 3531   1.622   4.091   0.374
 1169SOL    HW1 3532   1.624   4.015   0.438
 1169SOL    HW2 3533   1.574   4.168   0.414
 1170SOL     OW 3534   1.023   4.490   0.966
 1170SOL    HW1 3535   1.038   4.511   1.062
 1170SOL    HW2 3536   0.993   4.395   0.957
 1171SOL     OW 3537   0.350   4.622   1.804
 1171SOL    HW1 3538   0.426   4.666   1.852
 1171SOL    HW2 3539   0.385   4.575   1.722
 1172SOL     OW 3540   1.540   3.998   0.125
 1172SOL    HW1 3541   1.479   3.923   0.148
 1172SOL    HW2 3542   1.562   4.050   0.208
 1173SOL     OW 3543   1.303   4.562   0.042
 1173SOL    HW1 3544   1.337   4.469   0.057
 1173SOL    HW2 3545   1.321   4.589  -0.053
 1174SOL     OW 3546   0.319   4.534   0.949
 1174SOL    HW1 3547   0.412   4.570   0.954
 1174SOL    HW2 3548   0.313   4.449   1.001
 1175SOL     OW 3549   0.339   4.233   1.006
 1175SOL    HW1 3550   0.287   4.150   0.989
 1175SOL    HW2 3551   0.416   4.238   0.942
 1176SOL     OW 3552   1.138   4.104   1.678
 1176SOL    HW1 3553   1.093   4.167   1.742
 1176SOL    HW2 3554   1.231   4.135   1.661
 1177SOL     OW 3555   1.160   3.931   1.477
 1177SOL    HW1 3556   1.160   3.995   1.554
 1177SOL    HW2 3557   1.188   3.979   1.394
 1178SOL     OW 3558   1.002   4.520   1.238
 1178SOL    HW1 3559   1.043   4.488   1.324
 1178SOL    HW2 3560   0.906   4.493   1.235
 1179SOL     OW 3561   0.040   4.268   1.114
 1179SOL    HW1 3562   0.125   4.235   1.073
 1179SOL    HW2 3563   0.053   4.283   1.212
 1180SOL     OW 3564   0.189   4.244   1.722
 1180SOL    HW1 3565   0.248   4.204   1.652
 1180SOL    HW2 3566   0.131   4.315   1.681
 1181SOL     OW 3567   1.369   4.674   1.660
 1181SOL    HW1 3568   1.408   4.763   1.680
 1181SOL    HW2 3569   1.379   4.654   1.563
 1182SOL     OW 3570   0.815   4.296   0.325
 1182SOL    HW1 3571   0.822   4.207   0.279
 1182SOL    HW2 3572   0.721   4.330   0.317
 1183SOL     OW 3573   1.657   4.328   1.206
 1183SOL    HW1 3574   1.619   4.259   1.268
 1183SOL    HW2 3575   1.739   4.292   1.162
 1184SOL     OW 3576   0.671   4.188   1.269
 1184SOL    HW1 3577   0.637   4.099   1.239
 1184SOL    HW2 3578   0.697   4.242   1.189
 1185SOL     OW 3579   0.473   4.224   0.191
 1185SOL    HW1 3580   0.534   4.304   0.195
 1185SOL    HW2 3581   0.378   4.255   0.198
 1186SOL     OW 3582   0.159   4.861   1.466
 1186SOL    HW1 3583   0.181   4.800   1.542
 1186SOL    HW2 3584   0.169   4.812   1.380
 1187SOL     OW 3585   1.347   4.783   1.234
 1187SOL    HW1 3586   1.371   4.720   1.160
 1187SOL    HW2 3587   1.257   4.823   1.216
 1188SOL     OW 3588   1.302   4.579   0.309
 1188SOL    HW1 3589   1.216   4.548   0.351
 1188SOL    HW2 3590   1.298   4.565   0.210
 1189SOL     OW 3591   0.903   3.810   0.133
 1189SOL    HW1 3592   0.954   3.811   0.047
 1189SOL    HW2 3593   0.959   3.768   0.204
 1190SOL     OW 3594   1.726   3.859   0.523
 1190SOL    HW1 3595   1.799   3.842   0.456
 1190SOL    HW2 3596   1.695   3.772   0.561
 1191SOL     OW 3597   1.280   4.651   0.672
 1191SOL    HW1 3598   1.340   4.570   0.674
 1191SOL    HW2 3599   1.320   4.720   0.612
 1192SOL     OW 3600   1.841   3.899   0.963
 1192SOL    HW1 3601   1.880   3.814   0.927
 1192SOL    HW2 3602   1.743   3.901   0.944
 1193SOL     OW 3603   0.263   4.050   0.720
 1193SOL    HW1 3604   0.184   4.101   0.686
 1193SOL    HW2 3605   0.254   4.035   0.818
 1194SOL     OW 3606   0.916   4.634   0.291
 1194SOL    HW1 3607   0.979   4.672   0.223
 1194SOL    HW2 3608   0.956   4.551   0.330
 1195SOL     OW 3609   1.014   3.960   0.971
 1195SOL    HW1 3610   1.006   3.924   0.878
 1195SOL    HW2 3611   1.012   3.884   1.036
 1196SOL     OW 3612   1.709   4.109   1.381
 1196SOL    HW1 3613   1.782   4.178   1.385
 1196SOL    HW2 3614   1.737   4.034   1.322
 1197SOL     OW 3615   0.105   4.737   1.726
 1197SOL    HW1 3616   0.028   4.704   1.780
 1197SOL    HW2 3617   0.190   4.707   1.768
 1198SOL     OW 3618   0.672   3.927   1.489
 1198SOL    HW1 3619   0.762   3.911   1.449
 1198SOL    HW2 3620   0.680   3.932   1.588
 1199SOL     OW 3621   0.075   4.069   0.033
 1199SOL    HW1 3622  -0.017   4.041   0.004
 1199SOL    HW2 3623   0.106   4.146  -0.023
 1200SOL     OW 3624   1.440   4.580   1.398
 1200SOL    HW1 3625   1.383   4.632   1.335
 1200SOL    HW2 3626   1.536   4.592   1.374
 1201SOL     OW 3627   0.072   3.890   0.318
 1201SOL    HW1 3628   0.055   3.973   0.264
 1201SOL    HW2 3629   0.162   3.853   0.296
 1202SOL     OW 3630   1.183   5.059   0.119
 1202SOL    HW1 3631   1.084   5.048   0.121
 1202SOL    HW2 3632   1.217   5.074   0.212
 1203SOL     OW 3633   0.613   4.566   1.431
 1203SOL    HW1 3634   0.669   4.647   1.414
 1203SOL    HW2 3635   0.672   4.486   1.434
 1204SOL     OW 3636   0.716   4.289   1.708
 1204SOL    HW1 3637   0.735   4.354   1.782
 1204SOL    HW2 3638   0.776   4.209   1.717
 1205SOL     OW 3639   1.674   4.607   1.254
 1205SOL    HW1 3640   1.647   4.518   1.217
 1205SOL    HW2 3641   1.675   4.675   1.181
 1206SOL     OW 3642   1.225   4.049   0.449
 1206SOL    HW1 3643   1.290   3.975   0.438
 1206SOL    HW2 3644   1.245   4.099   0.533
 1207SOL     OW 3645   0.594   4.469   0.652
 1207SOL    HW1 3646   0.644   4.554   0.633
 1207SOL    HW2 3647   0.506   4.471   0.604
 1208SOL     OW 3648   1.777   4.066   1.642
 1208SOL    HW1 3649   1.760   4.097   1.548
 1208SOL    HW2 3650   1.693   4.029   1.680
 1209SOL     OW 3651   1.730   4.658   1.517
 1209SOL    HW1 3652   1.768   4.749   1.532
 1209SOL    HW2 3653   1.722   4.641   1.418
 1210SOL     OW 3654   0.859   4.680   0.861
 1210SOL    HW1 3655   0.913   4.611   0.909
 1210SOL    HW2 3656   0.827   4.749   0.927
 1211SOL     OW 3657   1.083   4.708   0.087
 1211SOL    HW1 3658   1.060   4.761   0.005
 1211SOL    HW2 3659   1.164   4.652   0.068
 1212SOL     OW 3660   0.079   4.964   0.653
 1212SOL    HW1 3661   0.078   4.917   0.741
 1212SOL    HW2 3662   0.161   4.936   0.602
 1213SOL     OW 3663   1.824   3.916   1.227
 1213SOL    HW1 3664   1.820   3.826   1.271
 1213SOL    HW2 3665   1.827   3.905   1.128
 1214SOL     OW 3666   0.428   4.148   0.520
 1214SOL    HW1 3667   0.458   4.076   0.458
 1214SOL    HW2 3668   0.389   4.108   0.603
 1215SOL     OW 3669   0.317   4.271   1.280
 1215SOL    HW1 3670   0.355   4.212   1.352
 1215SOL    HW2 3671   0.357   4.245   1.192
 1216SOL     OW 3672   1.424   3.938   1.112
 1216SOL    HW1 3673   1.476   3.873   1.167
 1216SOL    HW2 3674   1.375   4.001   1.173
 1217SOL     OW 3675   1.001   3.758   1.154
 1217SOL    HW1 3676   0.938   3.686   1.123
 1217SOL    HW2 3677   1.094   3.722   1.154
 1218SOL     OW 3678   1.352   3.776   0.168
 1218SOL    HW1 3679   1.387   3.735   0.084
 1218SOL    HW2 3680   1.262   3.738   0.188
 1219SOL     OW 3681   1.300   4.177   0.691
 1219SOL    HW1 3682   1.241   4.257   0.695
 1219SOL    HW2 3683   1.315   4.142   0.784
 1220SOL     OW 3684   1.593   3.945   0.882
 1220SOL    HW1 3685   1.509   3.944   0.936
 1220SOL    HW2 3686   1.595   4.028   0.826
 1221SOL     OW 3687   0.039   4.801   0.300
 1221SOL    HW1 3688   0.138   4.790   0.291
 1221SOL    HW2 3689  -0.001   4.715   0.332
 1222SOL     OW 3690   0.230   4.352   1.975
 1222SOL    HW1 3691   0.137   4.350   2.012
 1222SOL    HW2 3692   0.231   4.313   1.883
 1223SOL     OW 3693   0.225   3.999   2.858
 1223SOL    HW1 3694   0.260   3.982   2.950
 1223SOL    HW2 3695   0.137   3.954   2.846
 1224SOL     OW 3696   0.019   4.092   2.509
 1224SOL    HW1 3697  -0.063   4.135   2.548
 1224SOL    HW2 3698  -0.009   4.019   2.446
 1225SOL     OW 3699   1.135   4.427   2.579
 1225SOL    HW1 3700   1.192   4.505   2.554
 1225SOL    HW2 3701   1.075   4.453   2.655
 1226SOL     OW 3702   1.755   4.331   2.093
 1226SOL    HW1 3703   1.743   4.318   1.994
 1226SOL    HW2 3704   1.725   4.250   2.142
 1227SOL     OW 3705   0.768   4.868   2.885
 1227SOL    HW1 3706   0.690   4.885   2.945
 1227SOL    HW2 3707   0.802   4.955   2.849
 1228SOL     OW 3708   0.850   4.522   3.685
 1228SOL    HW1 3709   0.846   4.598   3.750
 1228SOL    HW2 3710   0.872   4.558   3.594
 1229SOL     OW 3711   0.685   4.736   2.527
 1229SOL    HW1 3712   0.754   4.720   2.597
 1229SOL    HW2 3713   0.612   4.793   2.565
 1230SOL     OW 3714   0.438   4.116   3.361
 1230SOL    HW1 3715   0.520   4.060   3.370
 1230SOL    HW2 3716   0.357   4.058   3.365
 1231SOL     OW 3717   1.603   4.171   2.599
 1231SOL    HW1 3718   1.529   4.217   2.549
 1231SOL    HW2 3719   1.654   4.239   2.652
 1232SOL     OW 3720   0.240   4.815   2.748
 1232SOL    HW1 3721   0.254   4.731   2.800
 1232SOL    HW2 3722   0.185   4.879   2.803
 1233SOL     OW 3723   0.606   4.688   1.985
 1233SOL    HW1 3724   0.613   4.772   1.931
 1233SOL    HW2 3725   0.652   4.701   2.073
 1234SOL     OW 3726   1.594   3.838   3.342
 1234SOL    HW1 3727   1.576   3.905   3.270
 1234SOL    HW2 3728   1.591   3.884   3.431
 1235SOL     OW 3729   0.122   4.367   2.425
 1235SOL    HW1 3730   0.077   4.279   2.442
 1235SOL    HW2 3731   0.121   4.421   2.509
 1236SOL     OW 3732   1.689   4.646   2.474
 1236SOL    HW1 3733   1.784   4.617   2.482
 1236SOL    HW2 3734   1.681   4.711   2.399
 1237SOL     OW 3735   0.113   4.461   3.459
 1237SOL    HW1 3736   0.201   4.448   3.504
 1237SOL    HW2 3737   0.100   4.558   3.437
 1238SOL     OW 3738   0.809   3.728   2.364
 1238SOL    HW1 3739   0.849   3.819   2.355
 1238SOL    HW2 3740   0.709   3.736   2.370
 1239SOL     OW 3741   0.197   4.700   3.126
 1239SOL    HW1 3742   0.286   4.655   3.112
 1239SOL    HW2 3743   0.124   4.635   3.107
 1240SOL     OW 3744   1.525   4.723   2.052
 1240SOL    HW1 3745   1.462   4.647   2.065
 1240SOL    HW2 3746   1.573   4.741   2.138
 1241SOL     OW 3747   0.317   3.975   3.663
 1241SOL    HW1 3748   0.388   4.046   3.669
 1241SOL    HW2 3749   0.229   4.014   3.691
 1242SOL     OW 3750   0.598   4.453   2.132
 1242SOL    HW1 3751   0.622   4.522   2.064
 1242SOL    HW2 3752   0.520   4.486   2.186
 1243SOL     OW 3753   1.281   4.069   2.806
 1243SOL    HW1 3754   1.195   4.019   2.793
 1243SOL    HW2 3755   1.343   4.015   2.862
 1244SOL     OW 3756   0.807   4.329   3.327
 1244SOL    HW1 3757   0.760   4.326   3.416
 1244SOL    HW2 3758   0.756   4.274   3.261
 1245SOL     OW 3759   1.394   4.193   3.536
 1245SOL    HW1 3760   1.374   4.236   3.624
 1245SOL    HW2 3761   1.472   4.131   3.545
 1246SOL     OW 3762   0.973   4.614   3.434
 1246SOL    HW1 3763   1.019   4.530   3.405
 1246SOL    HW2 3764   0.917   4.648   3.359
 1247SOL     OW 3765   0.991   4.134   3.104
 1247SOL    HW1 3766   0.914   4.168   3.158
 1247SOL    HW2 3767   0.957   4.083   3.025
 1248SOL     OW 3768   1.041   4.425   2.291
 1248SOL    HW1 3769   1.067   4.421   2.387
 1248SOL    HW2 3770   0.956   4.374   2.277
 1249SOL     OW 3771   0.076   4.535   2.651
 1249SOL    HW1 3772   0.175   4.523   2.660
 1249SOL    HW2 3773   0.052   4.630   2.672
 1250SOL     OW 3774   0.865   4.072   2.057
 1250SOL    HW1 3775   0.924   4.135   2.008
 1250SOL    HW2 3776   0.884   3.978   2.028
 1251SOL     OW 3777   1.719   4.309   3.693
 1251SOL    HW1 3778   1.693   4.398   3.657
 1251SOL    HW2 3779   1.717   4.241   3.620
 1252SOL     OW 3780   0.550   3.920   2.747
 1252SOL    HW1 3781   0.545   3.915   2.847
 1252SOL    HW2 3782   0.552   4.016   2.718
 1253SOL     OW 3783   1.458   4.459   2.590
 1253SOL    HW1 3784   1.453   4.394   2.665
 1253SOL    HW2 3785   1.538   4.518   2.603
 1254SOL     OW 3786   0.202   4.009   3.360
 1254SOL    HW1 3787   0.122   4.069   3.347
 1254SOL    HW2 3788   0.192   3.960   3.446
 1255SOL     OW 3789   1.400   3.831   2.288
 1255SOL    HW1 3790   1.376   3.794   2.198
 1255SOL    HW2 3791   1.499   3.847   2.292
 1256SOL     OW 3792   0.382   4.424   2.342
 1256SOL    HW1 3793   0.427   4.334   2.339
 1256SOL    HW2 3794   0.288   4.413   2.375
 1257SOL     OW 3795   1.547   3.946   3.591
 1257SOL    HW1 3796   1.542   3.983   3.683
 1257SOL    HW2 3797   1.475   3.877   3.579
 1258SOL     OW 3798   0.614   3.846   1.979
 1258SOL    HW1 3799   0.712   3.824   1.986
 1258SOL    HW2 3800   0.583   3.829   1.886
 1259SOL     OW 3801   0.781   3.988   3.611
 1259SOL    HW1 3802   0.848   3.927   3.654
 1259SOL    HW2 3803   0.708   4.007   3.676
 1260SOL     OW 3804   1.351   4.314   3.295
 1260SOL    HW1 3805   1.379   4.271   3.380
 1260SOL    HW2 3806   1.376   4.410   3.296
 1261SOL     OW 3807   0.922   4.227   2.761
 1261SOL    HW1 3808   0.897   4.218   2.665
 1261SOL    HW2 3809   0.970   4.145   2.792
 1262SOL     OW 3810   0.539   3.788   2.374
 1262SOL    HW1 3811   0.458   3.789   2.432
 1262SOL    HW2 3812   0.542   3.871   2.319
 1263SOL     OW 3813   0.297   3.759   2.033
 1263SOL    HW1 3814   0.346   3.843   2.012
 1263SOL    HW2 3815   0.359   3.694   2.078
 1264SOL     OW 3816   0.935   3.960   2.342
 1264SOL    HW1 3817   0.887   4.001   2.264
 1264SOL    HW2 3818   1.034   3.958   2.323
 1265SOL     OW 3819   1.076   4.407   3.326
 1265SOL    HW1 3820   0.996   4.346   3.329
 1265SOL    HW2 3821   1.157   4.354   3.302
 1266SOL     OW 3822   1.032   4.273   1.878
 1266SOL    HW1 3823   0.991   4.355   1.839
 1266SOL    HW2 3824   1.096   4.299   1.951
 1267SOL     OW 3825   0.078   4.280   3.248
 1267SOL    HW1 3826   0.170   4.279   3.207
 1267SOL    HW2 3827   0.072   4.354   3.315
 1268SOL     OW 3828   0.561   3.946   3.009
 1268SOL    HW1 3829   0.599   3.862   3.046
 1268SOL    HW2 3830   0.473   3.965   3.053
 1269SOL     OW 3831   0.866   4.178   2.504
 1269SOL    HW1 3832   0.834   4.250   2.442
 1269SOL    HW2 3833   0.890   4.097   2.451
 1270SOL     OW 3834   1.017   3.763   2.615
 1270SOL    HW1 3835   0.945   3.768   2.546
 1270SOL    HW2 3836   0.993   3.694   2.684
 1271SOL     OW 3837   1.429   4.897   2.729
 1271SOL    HW1 3838   1.374   4.813   2.722
 1271SOL    HW2 3839   1.455   4.926   2.637
 1272SOL     OW 3840   1.466   4.314   2.854
 1272SOL    HW1 3841   1.436   4.219   2.861
 1272SOL    HW2 3842   1.539   4.330   2.920
 1273SOL     OW 3843   1.857   4.557   2.239
 1273SOL    HW1 3844   1.899   4.493   2.303
 1273SOL    HW2 3845   1.819   4.506   2.161
 1274SOL     OW 3846   1.390   4.299   1.940
 1274SOL    HW1 3847   1.336   4.278   2.021
 1274SOL    HW2 3848   1.481   4.258   1.949
 1275SOL     OW 3849   0.527   3.980   2.190
 1275SOL    HW1 3850   0.554   3.921   2.115
 1275SOL    HW2 3851   0.527   4.075   2.159
 1276SOL     OW 3852   1.638   4.823   2.941
 1276SOL    HW1 3853   1.643   4.904   3.000
 1276SOL    HW2 3854   1.552   4.825   2.890
 1277SOL     OW 3855   0.915   3.813   3.264
 1277SOL    HW1 3856   0.940   3.793   3.169
 1277SOL    HW2 3857   0.987   3.869   3.306
 1278SOL     OW 3858   0.410   4.537   3.113
 1278SOL    HW1 3859   0.496   4.549   3.163
 1278SOL    HW2 3860   0.368   4.450   3.140
 1279SOL     OW 3861   1.274   4.110   3.124
 1279SOL    HW1 3862   1.295   4.184   3.188
 1279SOL    HW2 3863   1.185   4.127   3.081
 1280SOL     OW 3864   0.566   4.261   2.727
 1280SOL    HW1 3865   0.578   4.327   2.653
 1280SOL    HW2 3866   0.612   4.295   2.810
 1281SOL     OW 3867   1.582   4.363   2.334
 1281SOL    HW1 3868   1.551   4.424   2.407
 1281SOL    HW2 3869   1.632   4.415   2.265
 1282SOL     OW 3870   0.402   4.475   3.460
 1282SOL    HW1 3871   0.470   4.530   3.413
 1282SOL    HW2 3872   0.442   4.387   3.487
 1283SOL     OW 3873   1.587   4.503   3.532
 1283SOL    HW1 3874   1.495   4.541   3.527
 1283SOL    HW2 3875   1.647   4.550   3.467
 1284SOL     OW 3876   1.013   3.829   3.632
 1284SOL    HW1 3877   1.019   3.914   3.580
 1284SOL    HW2 3878   1.045   3.753   3.575
 1285SOL     OW 3879   0.504   3.774   3.602
 1285SOL    HW1 3880   0.462   3.717   3.532
 1285SOL    HW2 3881   0.438   3.843   3.634
 1286SOL     OW 3882   0.573   4.594   2.891
 1286SOL    HW1 3883   0.617   4.683   2.882
 1286SOL    HW2 3884   0.510   4.594   2.968
 1287SOL     OW 3885   1.360   4.586   2.907
 1287SOL    HW1 3886   1.285   4.586   2.841
 1287SOL    HW2 3887   1.397   4.494   2.916
 1288SOL     OW 3888   1.209   4.249   2.137
 1288SOL    HW1 3889   1.222   4.165   2.191
 1288SOL    HW2 3890   1.180   4.323   2.197
 1289SOL     OW 3891   0.307   3.937   3.093
 1289SOL    HW1 3892   0.284   3.974   3.183
 1289SOL    HW2 3893   0.277   3.842   3.087
 1290SOL     OW 3894   0.037   5.034   3.144
 1290SOL    HW1 3895   0.090   4.985   3.212
 1290SOL    HW2 3896   0.059   5.132   3.149
 1291SOL     OW 3897   0.732   4.358   2.926
 1291SOL    HW1 3898   0.791   4.332   2.850
 1291SOL    HW2 3899   0.704   4.454   2.915
 1292SOL     OW 3900   1.728   4.659   3.716
 1292SOL    HW1 3901   1.682   4.652   3.627
 1292SOL    HW2 3902   1.666   4.703   3.782
 1293SOL     OW 3903   0.307   3.787   2.480
 1293SOL    HW1 3904   0.296   3.881   2.513
 1293SOL    HW2 3905   0.302   3.724   2.557
 1294SOL     OW 3906   1.622   4.091   2.236
 1294SOL    HW1 3907   1.624   4.015   2.300
 1294SOL    HW2 3908   1.574   4.168   2.276
 1295SOL     OW 3909   1.023   4.490   2.828
 1295SOL    HW1 3910   1.038   4.511   2.924
 1295SOL    HW2 3911   0.993   4.395   2.819
 1296SOL     OW 3912   0.350   4.622   3.666
 1296SOL    HW1 3913   0.426   4.666   3.714
 1296SOL    HW2 3914   0.385   4.575   3.584
 1297SOL     OW 3915   1.540   3.998   1.987
 1297SOL    HW1 3916   1.479   3.923   2.010
 1297SOL    HW2 3917   1.562   4.050   2.070
 1298SOL     OW 3918   1.303   4.562   1.904
 1298SOL    HW1 3919   1.337   4.469   1.919
 1298SOL    HW2 3920   1.321   4.589   1.809
 1299SOL     OW 3921   0.319   4.534   2.811
 1299SOL    HW1 3922   0.412   4.570   2.816
 1299SOL    HW2 3923   0.313   4.449   2.863
 1300SOL     OW 3924   0.339   4.233   2.868
 1300SOL    HW1 3925   0.287   4.150   2.851
 1300SOL    HW2 3926   0.416   4.238   2.804
 1301SOL     OW 3927   1.138   4.104   3.540
 1301SOL    HW1 3928   1.093   4.167   3.604
 1301SOL    HW2 3929   1.231   4.135   3.523
 1302SOL     OW 3930   1.160   3.931   3.339
 1302SOL    HW1 3931   1.160   3.995   3.416
 1302SOL    HW2 3932   1.188   3.979   3.256
 1303SOL     OW 3933   1.002   4.520   3.100
 1303SOL    HW1 3934   1.043   4.488   3.186
 1303SOL    HW2 3935   0.906   4.493   3.097
 1304SOL     OW 3936   0.040   4.268   2.976
 1304SOL    HW1 3937   0.125   4.235   2.935
 1304SOL    HW2 3938   0.053   4.283   3.074
 1305SOL     OW 3939   0.189   4.244   3.584
 1305SOL    HW1 3940   0.248   4.204   3.514
 1305SOL    HW2 3941   0.131   4.315   3.543
 1306SOL     OW 3942   1.369   4.674   3.522
 1306SOL    HW1 3943   1.408   4.763   3.542
 1306SOL    HW2 3944   1.379   4.654   3.425
 1307SOL     OW 3945   0.815   4.296   2.187
 1307SOL    HW1 3946   0.822   4.207   2.141
 1307SOL    HW2 3947   0.721   4.330   2.179
 1308SOL     OW 3948   1.657   4.328   3.068
 1308SOL    HW1 3949   1.619   4.259   3.130
 1308SOL    HW2 3950   1.739   4.292   3.024
 1309SOL     OW 3951   0.671   4.188   3.131
 1309SOL    HW1 3952   0.637   4.099   3.101
 1309SOL    HW2 3953   0.697   4.242   3.051
 1310SOL     OW 3954   0.473   4.224   2.053
 1310SOL    HW1 3955   0.534   4.304   2.057
 1310SOL    HW2 3956   0.378   4.255   2.060
 1311SOL     OW 3957   0.159   4.861   3.328
 1311SOL    HW1 3958   0.181   4.800   3.404
 1311SOL    HW2 3959   0.169   4.812   3.242
 1312SOL     OW 3960   1.347   4.783   3.096
 1312SOL    HW1 3961   1.371   4.720   3.022
 1312SOL    HW2 3962   1.257   4.823   3.078
 1313SOL     OW 3963   1.302   4.579   2.171
 1313SOL    HW1 3964   1.216   4.548   2.213
 1313SOL    HW2 3965   1.298   4.565   2.072
 1314SOL     OW 3966   1.726   3.859   2.385
 1314SOL    HW1 3967   1.799   3.842   2.318
 1314SOL    HW2 3968   1.695   3.772   2.423
 1315SOL     OW 3969   1.280   4.651   2.534
 1315SOL    HW1 3970   1.340   4.570   2.536
 1315SOL    HW2 3971   1.320   4.720   2.474
 1316SOL     OW 3972   1.841   3.899   2.825
 1316SOL    HW1 3973   1.880   3.814   2.789
 1316SOL    HW2 3974   1.743   3.901   2.806
 1317SOL     OW 3975   0.263   4.050   2.582
 1317SOL    HW1 3976   0.184   4.101   2.548
 1317SOL    HW2 3977   0.254   4.035   2.680
 1318SOL     OW 3978   0.916   4.634   2.153
 1318SOL    HW1 3979   0.979   4.672   2.085
 1318SOL    HW2 3980   0.956   4.551   2.192
 1319SOL     OW 3981   1.014   3.960   2.833
 1319SOL    HW1 3982   1.006   3.924   2.740
 1319SOL    HW2 3983   1.012   3.884   2.898
 1320SOL     OW 3984   1.709   4.109   3.243
 1320SOL    HW1 3985   1.782   4.178   3.247
 1320SOL    HW2 3986   1.737   4.034   3.184
 1321SOL     OW 3987   0.105   4.737   3.588
 1321SOL    HW1 3988   0.028   4.704   3.642
 1321SOL    HW2 3989   0.190   4.707   3.630
 1322SOL     OW 3990   0.672   3.927   3.351
 1322SOL    HW1 3991   0.762   3.911   3.311
 1322SOL    HW2 3992   0.680   3.932   3.450
 1323SOL     OW 3993   0.075   4.069   1.895
 1323SOL    HW1 3994  -0.017   4.041   1.866
 1323SOL    HW2 3995   0.106   4.146   1.839
 1324SOL     OW 3996   1.440   4.580   3.260
 1324SOL    HW1 3997   1.383   4.632   3.197
 1324SOL    HW2 3998   1.536   4.592   3.236
 1325SOL     OW 3999   0.072   3.890   2.180
 1325SOL    HW1 4000   0.055   3.973   2.126
 1325SOL    HW2 4001   0.162   3.853   2.158
 1326SOL     OW 4002   1.183   5.059   1.981
 1326SOL    HW1 4003   1.084   5.048   1.983
 1326SOL    HW2 4004   1.217   5.074   2.074
 1327SOL     OW 4005   0.613   4.566   3.293
 1327SOL    HW1 4006   0.669   4.647   3.276
 1327SOL    HW2 4007   0.672   4.486   3.296
 1328SOL     OW 4008   0.716   4.289   3.570
 1328SOL    HW1 4009   0.735   4.354   3.644
 1328SOL    HW2 4010   0.776   4.209   3.579
 1329SOL     OW 4011   1.674   4.607   3.116
 1329SOL    HW1 4012   1.647   4.518   3.079
 1329SOL    HW2 4013   1.675   4.675   3.043
 1330SOL     OW 4014   1.225   4.049   2.311
 1330SOL    HW1 4015   1.290   3.975   2.300
 1330SOL    HW2 4016   1.245   4.099   2.395
 1331SOL     OW 4017   0.594   4.469   2.514
 1331SOL    HW1 4018   0.644   4.554   2.495
 1331SOL    HW2 4019   0.506   4.471   2.466
 1332SOL     OW 4020   1.777   4.066   3.504
 1332SOL    HW1 4021   1.760   4.097   3.410
 1332SOL    HW2 4022   1.693   4.029   3.542
 1333SOL     OW 4023   1.730   4.658   3.379
 1333SOL    HW1 4024   1.768   4.749   3.394
 1333SOL    HW2 4025   1.722   4.641   3.280
 1334SOL     OW 4026   0.859   4.680   2.723
 1334SOL    HW1 4027   0.913   4.611   2.771
 1334SOL    HW2 4028   0.827   4.749   2.789
 1335SOL     OW 4029   1.083   4.708   1.949
 1335SOL    HW1 4030   1.060   4.761   1.867
 1335SOL    HW2 4031   1.164   4.652   1.930
 1336SOL     OW 4032   0.079   4.964   2.515
 1336SOL    HW1 4033   0.078   4.917   2.603
 1336SOL    HW2 4034   0.161   4.936   2.464
 1337SOL     OW 4035   1.824   3.916   3.089
 1337SOL    HW1 4036   1.820   3.826   3.133
 1337SOL    HW2 4037   1.827   3.905   2.990
 1338SOL     OW 4038   0.428   4.148   2.382
 1338SOL    HW1 4039   0.458   4.076   2.320
 1338SOL    HW2 4040   0.389   4.108   2.465
 1339SOL     OW 4041   0.317   4.271   3.142
 1339SOL    HW1 4042   0.355   4.212   3.214
 1339SOL    HW2 4043   0.357   4.245   3.054
 1340SOL     OW 4044   1.424   3.938   2.974
 1340SOL    HW1 4045   1.476   3.873   3.029
 1340SOL    HW2 4046   1.375   4.001   3.035
 1341SOL     OW 4047   1.001   3.758   3.016
 1341SOL    HW1 4048   0.938   3.686   2.985
 1341SOL    HW2 4049   1.094   3.722   3.016
 1342SOL     OW 4050   1.352   3.776   2.030
 1342SOL    HW1 4051   1.387   3.735   1.946
 1342SOL    HW2 4052   1.262   3.738   2.050
 1343SOL     OW 4053   1.300   4.177   2.553
 1343SOL    HW1 4054   1.241   4.257   2.557
 1343SOL    HW2 4055   1.315   4.142   2.646
 1344SOL     OW 4056   1.593   3.945   2.744
 1344SOL    HW1 4057   1.509   3.944   2.798
 1344SOL    HW2 4058   1.595   4.028   2.688
 1345SOL     OW 4059   0.039   4.801   2.162
 1345SOL    HW1 4060   0.138   4.790   2.153
 1345SOL    HW2 4061  -0.001   4.715   2.194
 1346SOL     OW 4062   0.230   4.352   3.837
 1346SOL    HW1 4063   0.137   4.350   3.874
 1346SOL    HW2 4064   0.231   4.313   3.745
 1347SOL     OW 4065   0.225   3.999   4.720
 1347SOL    HW1 4066   0.260   3.982   4.812
 1347SOL    HW2 4067   0.137   3.954   4.708
 1348SOL     OW 4068   0.019   4.092   4.371
 1348SOL    HW1 4069  -0.063   4.135   4.410
 1348SOL    HW2 4070  -0.009   4.019   4.308
 1349SOL     OW 4071   1.135   4.427   4.441
 1349SOL    HW1 4072   1.192   4.505   4.416
 1349SOL    HW2 4073   1.075   4.453   4.517
 1350SOL     OW 4074   1.755   4.331   3.955
 1350SOL    HW1 4075   1.743   4.318   3.856
 1350SOL    HW2 4076   1.725   4.250   4.004
 1351SOL     OW 4077   0.685   4.736   4.389
 1351SOL    HW1 4078   0.754   4.720   4.459
 1351SOL    HW2 4079   0.612   4.793   4.427
 1352SOL     OW 4080   1.603   4.171   4.461
 1352SOL    HW1 4081   1.529   4.217   4.411
 1352SOL    HW2 4082   1.654   4.239   4.514
 1353SOL     OW 4083   0.240   4.815   4.610
 1353SOL    HW1 4084   0.254   4.731   4.662
 1353SOL    HW2 4085   0.185   4.879   4.665
 1354SOL     OW 4086   0.606   4.688   3.847
 1354SOL    HW1 4087   0.613   4.772   3.793
 1354SOL    HW2 4088   0.652   4.701   3.935
 1355SOL     OW 4089   0.122   4.367   4.287
 1355SOL    HW1 4090   0.077   4.279   4.304
 1355SOL    HW2 4091   0.121   4.421   4.371
 1356SOL     OW 4092   1.689   4.646   4.336
 1356SOL    HW1 4093   1.784   4.617   4.344
 1356SOL    HW2 4094   1.681   4.711   4.261
 1357SOL     OW 4095   0.809   3.728   4.226
 1357SOL    HW1 4096   0.849   3.819   4.217
 1357SOL    HW2 4097   0.709   3.736   4.232
 1358SOL     OW 4098   1.525   4.723   3.914
 1358SOL    HW1 4099   1.462   4.647   3.927
 1358SOL    HW2 4100   1.573   4.741   4.000
 1359SOL     OW 4101   0.598   4.453   3.994
 1359SOL    HW1 4102   0.622   4.522   3.926
 1359SOL    HW2 4103   0.520   4.486   4.048
 1360SOL     OW 4104   1.281   4.069   4.668
 1360SOL    HW1 4105   1.195   4.019   4.655
 1360SOL    HW2 4106   1.343   4.015   4.724
 1361SOL     OW 4107   1.041   4.425   4.153
 1361SOL    HW1 4108   1.067   4.421   4.249
 1361SOL    HW2 4109   0.956   4.374   4.139
 1362SOL     OW 4110   0.076   4.535   4.513
 1362SOL    HW1 4111   0.175   4.523   4.522
 1362SOL    HW2 4112   0.052   4.630   4.534
 1363SOL     OW 4113   0.865   4.072   3.919
 1363SOL    HW1 4114   0.924   4.135   3.870
 1363SOL    HW2 4115   0.884   3.978   3.890
 1364SOL     OW 4116   0.550   3.920   4.609
 1364SOL    HW1 4117   0.545   3.915   4.709
 1364SOL    HW2 4118   0.552   4.016   4.580
 1365SOL     OW 4119   1.458   4.459   4.452
 1365SOL    HW1 4120   1.453   4.394   4.527
 1365SOL    HW2 4121   1.538   4.518   4.465
 1366SOL     OW 4122   1.400   3.831   4.150
 1366SOL    HW1 4123   1.376   3.794   4.060
 1366SOL    HW2 4124   1.499   3.847   4.154
 1367SOL     OW 4125   0.382   4.424   4.204
 1367SOL    HW1 4126   0.427   4.334   4.201
 1367SOL    HW2 4127   0.288   4.413   4.237
 1368SOL     OW 4128   0.614   3.846   3.841
 1368SOL    HW1 4129   0.712   3.824   3.848
 1368SOL    HW2 4130   0.583   3.829   3.748
 1369SOL     OW 4131   0.922   4.227   4.623
 1369SOL    HW1 4132   0.897   4.218   4.527
 1369SOL    HW2 4133   0.970   4.145   4.654
 1370SOL     OW 4134   0.539   3.788   4.236
 1370SOL    HW1 4135   0.458   3.789   4.294
 1370SOL    HW2 4136   0.542   3.871   4.181
 1371SOL     OW 4137   0.297   3.759   3.895
 1371SOL    HW1 4138   0.346   3.843   3.874
 1371SOL    HW2 4139   0.359   3.694   3.940
 1372SOL     OW 4140   0.935   3.960   4.204
 1372SOL    HW1 4141   0.887   4.001   4.126
 1372SOL    HW2 4142   1.034   3.958   4.185
 1373SOL     OW 4143   1.032   4.273   3.740
 1373SOL    HW1 4144   0.991   4.355   3.701
 1373SOL    HW2 4145   1.096   4.299   3.813
 1374SOL     OW 4146   0.866   4.178   4.366
 1374SOL    HW1 4147   0.834   4.250   4.304
 1374SOL    HW2 4148   0.890   4.097   4.313
 1375SOL     OW 4149   1.017   3.763   4.477
 1375SOL    HW1 4150   0.945   3.768   4.408
 1375SOL    HW2 4151   0.993   3.694   4.546
 1376SOL     OW 4152   1.429   4.897   4.591
 1376SOL    HW1 4153   1.374   4.813   4.584
 1376SOL    HW2 4154   1.455   4.926   4.499
 1377SOL     OW 4155   1.466   4.314   4.716
 1377SOL    HW1 4156   1.436   4.219   4.723
 1377SOL    HW2 4157   1.539   4.330   4.782
 1378SOL     OW 4158   1.857   4.557   4.101
 1378SOL    HW1 4159   1.899   4.493   4.165
 1378SOL    HW2 4160   1.819   4.506   4.023
 1379SOL     OW 4161   1.390   4.299   3.802
 1379SOL    HW1 4162   1.336   4.278   3.883
 1379SOL    HW2 4163   1.481   4.258   3.811
 1380SOL     OW 4164   0.527   3.980   4.052
 1380SOL    HW1 4165   0.554   3.921   3.977
 1380SOL    HW2 4166   0.527   4.075   4.021
 1381SOL     OW 4167   1.638   4.823   4.803
 1381SOL    HW1 4168   1.643   4.904   4.862
 1381SOL    HW2 4169   1.552   4.825   4.752
 1382SOL     OW 4170   0.566   4.261   4.589
 1382SOL    HW1 4171   0.578   4.327   4.515
 1382SOL    HW2 4172   0.612   4.295   4.672
 1383SOL     OW 4173   1.582   4.363   4.196
 1383SOL    HW1 4174   1.551   4.424   4.269
 1383SOL    HW2 4175   1.632   4.415   4.127
 1384SOL     OW 4176   0.573   4.594   4.753
 1384SOL    HW1 4177   0.617   4.683   4.744
 1384SOL    HW2 4178   0.510   4.594   4.830
 1385SOL     OW 4179   1.209   4.249   3.999
 1385SOL    HW1 4180   1.222   4.165   4.053
 1385SOL    HW2 4181   1.180   4.323   4.059
 1386SOL     OW 4182   0.307   3.937   4.955
 1386SOL    HW1 4183   0.284   3.974   5.045
 1386SOL    HW2 4184   0.277   3.842   4.949
 1387SOL     OW 4185   0.732   4.358   4.788
 1387SOL    HW1 4186   0.791   4.332   4.712
 1387SOL    HW2 4187   0.704   4.454   4.777
 1388SOL     OW 4188   0.307   3.787   4.342
 1388SOL    HW1 4189   0.296   3.881   4.375
 1388SOL    HW2 4190   0.302   3.724   4.419
 1389SOL     OW 4191   1.622   4.091   4.098
 1389SOL    HW1 4192   1.624   4.015   4.162
 1389SOL    HW2 4193   1.574   4.168   4.138
 1390SOL     OW 4194   1.540   3.998   3.849
 1390SOL    HW1 4195   1.479   3.923   3.872
 1390SOL    HW2 4196   1.562   4.050   3.932
 1391SOL     OW 4197   1.303   4.562   3.766
 1391SOL    HW1 4198   1.337   4.469   3.781
 1391SOL    HW2 4199   1.321   4.589   3.671
 1392SOL     OW 4200   0.319   4.534   4.673
 1392SOL    HW1 4201   0.412   4.570   4.678
 1392SOL    HW2 4202   0.313   4.449   4.725
 1393SOL     OW 4203   0.339   4.233   4.730
 1393SOL    HW1 4204   0.287   4.150   4.713
 1393SOL    HW2 4205   0.416   4.238   4.666
 1394SOL     OW 4206   1.002   4.520   4.962
 1394SOL    HW1 4207   1.043   4.488   5.048
 1394SOL    HW2 4208   0.906   4.493   4.959
 1395SOL     OW 4209   0.815   4.296   4.049
 1395SOL    HW1 4210   0.822   4.207   4.003
 1395SOL    HW2 4211   0.721   4.330   4.041
 1396SOL     OW 4212   0.671   4.188   4.993
 1396SOL    HW1 4213   0.637   4.099   4.963
 1396SOL    HW2 4214   0.697   4.242   4.913
 1397SOL     OW 4215   0.473   4.224   3.915
 1397SOL    HW1 4216   0.534   4.304   3.919
 1397SOL    HW2 4217   0.378   4.255   3.922
 1398SOL     OW 4218   1.302   4.579   4.033
 1398SOL    HW1 4219   1.216   4.548   4.075
 1398SOL    HW2 4220   1.298   4.565   3.934
 1399SOL     OW 4221   1.726   3.859   4.247
 1399SOL    HW1 4222   1.799   3.842   4.180
 1399SOL    HW2 4223   1.695   3.772   4.285
 1400SOL     OW 4224   1.280   4.651   4.396
 1400SOL    HW1 4225   1.340   4.570   4.398
 1400SOL    HW2 4226   1.320   4.720   4.336
 1401SOL     OW 4227   1.841   3.899   4.687
 1401SOL    HW1 4228   1.880   3.814   4.651
 1401SOL    HW2 4229   1.743   3.901   4.668
 1402SOL     OW 4230   0.263   4.050   4.444
 1402SOL    HW1 4231   0.184   4.101   4.410
 1402SOL    HW2 4232   0.254   4.035   4.542
 1403SOL     OW 4233   0.916   4.634   4.015
 1403SOL    HW1 4234   0.979   4.672   3.947
 1403SOL    HW2 4235   0.956   4.551   4.054
 1404SOL     OW 4236   0.075   4.069   3.757
 1404SOL    HW1 4237  -0.017   4.041   3.728
 1404SOL    HW2 4238   0.106   4.146   3.701
 1405SOL     OW 4239   0.072   3.890   4.042
 1405SOL    HW1 4240   0.055   3.973   3.988
 1405SOL    HW2 4241   0.162   3.853   4.020
 1406SOL     OW 4242   1.183   5.059   3.843
 1406SOL    HW1 4243   1.084   5.048   3.845
 1406SOL    HW2 4244   1.217   5.074   3.936
 1407SOL     OW 4245   1.674   4.607   4.978
 1407SOL    HW1 4246   1.647   4.518   4.941
 1407SOL    HW2 4247   1.675   4.675   4.905
 1408SOL     OW 4248   1.225   4.049   4.173
 1408SOL    HW1 4249   1.290   3.975   4.162
 1408SOL    HW2 4250   1.245   4.099   4.257
 1409SOL     OW 4251   0.594   4.469   4.376
 1409SOL    HW1 4252   0.644   4.554   4.357
 1409SOL    HW2 4253   0.506   4.471   4.328
 1410SOL     OW 4254   0.859   4.680   4.585
 1410SOL    HW1 4255   0.913   4.611   4.633
 1410SOL    HW2 4256   0.827   4.749   4.651
 1411SOL     OW 4257   1.083   4.708   3.811
 1411SOL    HW1 4258   1.060   4.761   3.729
 1411SOL    HW2 4259   1.164   4.652   3.792
 1412SOL     OW 4260   0.079   4.964   4.377
 1412SOL    HW1 4261   0.078   4.917   4.465
 1412SOL    HW2 4262   0.161   4.936   4.326
 1413SOL     OW 4263   1.824   3.916   4.951
 1413SOL    HW1 4264   1.820   3.826   4.995
 1413SOL    HW2 4265   1.827   3.905   4.852
 1414SOL     OW 4266   0.428   4.148   4.244
 1414SOL    HW1 4267   0.458   4.076   4.182
 1414SOL    HW2 4268   0.389   4.108   4.327
 1415SOL     OW 4269   1.352   3.776   3.892
 1415SOL    HW1 4270   1.387   3.735   3.808
 1415SOL    HW2 4271   1.262   3.738   3.912
 1416SOL     OW 4272   1.300   4.177   4.415
 1416SOL    HW1 4273   1.241   4.257   4.419
 1416SOL    HW2 4274   1.315   4.142   4.508
 1417SOL     OW 4275   1.593   3.945   4.606
 1417SOL    HW1 4276   1.509   3.944   4.660
 1417SOL    HW2 4277   1.595   4.028   4.550
 1418SOL     OW 4278   0.039   4.801   4.024
 1418SOL    HW1 4279   0.138   4.790   4.015
 1418SOL    HW2 4280  -0.001   4.715   4.056
 1419SOL     OW 4281   2.092   0.628   0.113
 1419SOL    HW1 4282   1.999   0.626   0.150
 1419SOL    HW2 4283   2.093   0.589   0.021
 1420SOL     OW 4284   2.087   0.275   0.996
 1420SOL    HW1 4285   2.122   0.258   1.088
 1420SOL    HW2 4286   1.999   0.230   0.984
 1421SOL     OW 4287   1.881   0.368   0.647
 1421SOL    HW1 4288   1.799   0.411   0.686
 1421SOL    HW2 4289   1.853   0.295   0.584
 1422SOL     OW 4290   2.431   1.275   1.165
 1422SOL    HW1 4291   2.338   1.268   1.128
 1422SOL    HW2 4292   2.442   1.364   1.209
 1423SOL     OW 4293   3.417   1.511   0.703
 1423SOL    HW1 4294   3.360   1.495   0.784
 1423SOL    HW2 4295   3.358   1.521   0.623
 1424SOL     OW 4296   2.997   0.703   0.717
 1424SOL    HW1 4297   3.054   0.781   0.692
 1424SOL    HW2 4298   2.937   0.729   0.793
 1425SOL     OW 4299   3.617   0.607   0.231
 1425SOL    HW1 4300   3.605   0.594   0.132
 1425SOL    HW2 4301   3.587   0.526   0.280
 1426SOL     OW 4302   2.630   1.144   1.023
 1426SOL    HW1 4303   2.552   1.161   1.083
 1426SOL    HW2 4304   2.664   1.231   0.987
 1427SOL     OW 4305   2.712   0.798   1.823
 1427SOL    HW1 4306   2.708   0.874   1.888
 1427SOL    HW2 4307   2.734   0.834   1.732
 1428SOL     OW 4308   2.547   1.012   0.665
 1428SOL    HW1 4309   2.616   0.996   0.735
 1428SOL    HW2 4310   2.474   1.069   0.703
 1429SOL     OW 4311   2.548   1.161   1.803
 1429SOL    HW1 4312   2.608   1.240   1.817
 1429SOL    HW2 4313   2.462   1.192   1.762
 1430SOL     OW 4314   2.197   1.435   1.061
 1430SOL    HW1 4315   2.119   1.404   1.008
 1430SOL    HW2 4316   2.255   1.493   1.004
 1431SOL     OW 4317   3.322   1.505   1.339
 1431SOL    HW1 4318   3.346   1.599   1.365
 1431SOL    HW2 4319   3.306   1.451   1.421
 1432SOL     OW 4320   2.300   0.392   1.499
 1432SOL    HW1 4321   2.382   0.336   1.508
 1432SOL    HW2 4322   2.219   0.334   1.503
 1433SOL     OW 4323   3.465   0.447   0.737
 1433SOL    HW1 4324   3.391   0.493   0.687
 1433SOL    HW2 4325   3.516   0.515   0.790
 1434SOL     OW 4326   2.093   1.713   0.483
 1434SOL    HW1 4327   2.127   1.790   0.537
 1434SOL    HW2 4328   2.137   1.713   0.393
 1435SOL     OW 4329   2.989   1.341   1.690
 1435SOL    HW1 4330   3.036   1.341   1.778
 1435SOL    HW2 4331   2.941   1.254   1.679
 1436SOL     OW 4332   2.092   1.434   0.538
 1436SOL    HW1 4333   2.066   1.530   0.538
 1436SOL    HW2 4334   2.021   1.380   0.583
 1437SOL     OW 4335   2.102   1.091   0.886
 1437SOL    HW1 4336   2.116   1.007   0.938
 1437SOL    HW2 4337   2.047   1.155   0.941
 1438SOL     OW 4338   2.482   1.786   1.439
 1438SOL    HW1 4339   2.390   1.769   1.474
 1438SOL    HW2 4340   2.510   1.878   1.465
 1439SOL     OW 4341   2.468   0.964   0.123
 1439SOL    HW1 4342   2.475   1.048   0.069
 1439SOL    HW2 4343   2.514   0.977   0.211
 1440SOL     OW 4344   3.456   0.114   1.480
 1440SOL    HW1 4345   3.438   0.181   1.408
 1440SOL    HW2 4346   3.453   0.160   1.569
 1441SOL     OW 4347   1.984   0.643   0.563
 1441SOL    HW1 4348   1.939   0.555   0.580
 1441SOL    HW2 4349   1.983   0.697   0.647
 1442SOL     OW 4350   3.704   1.767   0.359
 1442SOL    HW1 4351   3.758   1.738   0.439
 1442SOL    HW2 4352   3.734   1.857   0.330
 1443SOL     OW 4353   1.889   1.596   0.117
 1443SOL    HW1 4354   1.870   1.500   0.138
 1443SOL    HW2 4355   1.856   1.654   0.192
 1444SOL     OW 4356   3.551   0.922   0.612
 1444SOL    HW1 4357   3.646   0.893   0.620
 1444SOL    HW2 4358   3.543   0.987   0.537
 1445SOL     OW 4359   3.503   1.108   0.432
 1445SOL    HW1 4360   3.589   1.110   0.380
 1445SOL    HW2 4361   3.517   1.155   0.520
 1446SOL     OW 4362   1.975   0.737   1.597
 1446SOL    HW1 4363   2.063   0.724   1.642
 1446SOL    HW2 4364   1.962   0.834   1.575
 1447SOL     OW 4365   2.475   1.365   0.726
 1447SOL    HW1 4366   2.426   1.278   0.735
 1447SOL    HW2 4367   2.452   1.408   0.639
 1448SOL     OW 4368   3.155   1.228   1.423
 1448SOL    HW1 4369   3.192   1.155   1.365
 1448SOL    HW2 4370   3.207   1.233   1.508
 1449SOL     OW 4371   2.671   0.004   0.502
 1449SOL    HW1 4372   2.711   0.095   0.493
 1449SOL    HW2 4373   2.571   0.012   0.508
 1450SOL     OW 4374   2.059   0.976   1.264
 1450SOL    HW1 4375   2.148   0.931   1.250
 1450SOL    HW2 4376   1.986   0.911   1.245
 1451SOL     OW 4377   3.387   0.999   0.190
 1451SOL    HW1 4378   3.324   0.923   0.203
 1451SOL    HW2 4379   3.435   1.017   0.276
 1452SOL     OW 4380   3.049   1.792   1.616
 1452SOL    HW1 4381   3.073   1.852   1.540
 1452SOL    HW2 4382   3.056   1.697   1.586
 1453SOL     OW 4383   2.179   0.251   1.801
 1453SOL    HW1 4384   2.250   0.322   1.807
 1453SOL    HW2 4385   2.091   0.290   1.829
 1454SOL     OW 4386   3.328   1.417   0.953
 1454SOL    HW1 4387   3.269   1.423   1.033
 1454SOL    HW2 4388   3.313   1.329   0.907
 1455SOL     OW 4389   3.529   1.714   0.572
 1455SOL    HW1 4390   3.488   1.691   0.484
 1455SOL    HW2 4391   3.511   1.640   0.637
 1456SOL     OW 4392   2.460   0.729   0.270
 1456SOL    HW1 4393   2.484   0.798   0.202
 1456SOL    HW2 4394   2.382   0.762   0.324
 1457SOL     OW 4395   3.143   0.345   0.944
 1457SOL    HW1 4396   3.057   0.295   0.931
 1457SOL    HW2 4397   3.205   0.291   1.000
 1458SOL     OW 4398   3.438   1.662   0.307
 1458SOL    HW1 4399   3.527   1.708   0.310
 1458SOL    HW2 4400   3.417   1.638   0.212
 1459SOL     OW 4401   2.669   0.605   1.465
 1459SOL    HW1 4402   2.622   0.602   1.554
 1459SOL    HW2 4403   2.618   0.550   1.399
 1460SOL     OW 4404   3.256   0.469   1.674
 1460SOL    HW1 4405   3.236   0.512   1.762
 1460SOL    HW2 4406   3.334   0.407   1.683
 1461SOL     OW 4407   2.835   0.890   1.572
 1461SOL    HW1 4408   2.881   0.806   1.543
 1461SOL    HW2 4409   2.779   0.924   1.497
 1462SOL     OW 4410   2.853   0.410   1.242
 1462SOL    HW1 4411   2.776   0.444   1.296
 1462SOL    HW2 4412   2.819   0.359   1.163
 1463SOL     OW 4413   2.903   0.701   0.429
 1463SOL    HW1 4414   2.929   0.697   0.525
 1463SOL    HW2 4415   2.818   0.650   0.415
 1464SOL     OW 4416   1.938   0.811   0.789
 1464SOL    HW1 4417   2.037   0.799   0.798
 1464SOL    HW2 4418   1.914   0.906   0.810
 1465SOL     OW 4419   1.992   1.821   1.571
 1465SOL    HW1 4420   1.982   1.806   1.670
 1465SOL    HW2 4421   1.906   1.857   1.535
 1466SOL     OW 4422   2.727   0.348   0.195
 1466SOL    HW1 4423   2.786   0.411   0.146
 1466SOL    HW2 4424   2.746   0.254   0.166
 1467SOL     OW 4425   3.581   0.585   1.831
 1467SOL    HW1 4426   3.555   0.674   1.795
 1467SOL    HW2 4427   3.579   0.517   1.758
 1468SOL     OW 4428   3.224   1.144   0.545
 1468SOL    HW1 4429   3.307   1.115   0.497
 1468SOL    HW2 4430   3.175   1.211   0.489
 1469SOL     OW 4431   2.412   0.196   0.885
 1469SOL    HW1 4432   2.407   0.191   0.985
 1469SOL    HW2 4433   2.414   0.292   0.856
 1470SOL     OW 4434   2.870   1.456   0.477
 1470SOL    HW1 4435   2.824   1.528   0.425
 1470SOL    HW2 4436   2.866   1.476   0.575
 1471SOL     OW 4437   2.213   1.801   0.853
 1471SOL    HW1 4438   2.263   1.715   0.859
 1471SOL    HW2 4439   2.278   1.878   0.850
 1472SOL     OW 4440   3.657   1.066   0.873
 1472SOL    HW1 4441   3.595   1.051   0.797
 1472SOL    HW2 4442   3.605   1.077   0.958
 1473SOL     OW 4443   3.089   1.550   1.506
 1473SOL    HW1 4444   3.095   1.473   1.570
 1473SOL    HW2 4445   3.037   1.524   1.426
 1474SOL     OW 4446   2.183   0.943   0.242
 1474SOL    HW1 4447   2.265   0.982   0.200
 1474SOL    HW2 4448   2.156   0.861   0.193
 1475SOL     OW 4449   3.320   0.735   0.728
 1475SOL    HW1 4450   3.315   0.670   0.803
 1475SOL    HW2 4451   3.400   0.794   0.741
 1476SOL     OW 4452   2.323   1.266   1.727
 1476SOL    HW1 4453   2.273   1.267   1.641
 1476SOL    HW2 4454   2.260   1.248   1.803
 1477SOL     OW 4455   2.973   1.776   0.237
 1477SOL    HW1 4456   2.913   1.714   0.287
 1477SOL    HW2 4457   3.004   1.732   0.152
 1478SOL     OW 4458   2.064   0.285   1.498
 1478SOL    HW1 4459   1.984   0.345   1.485
 1478SOL    HW2 4460   2.054   0.236   1.584
 1479SOL     OW 4461   3.494   1.377   0.081
 1479SOL    HW1 4462   3.462   1.471   0.071
 1479SOL    HW2 4463   3.418   1.314   0.069
 1480SOL     OW 4464   2.326   1.743   0.323
 1480SOL    HW1 4465   2.359   1.782   0.409
 1480SOL    HW2 4466   2.402   1.736   0.258
 1481SOL     OW 4467   3.262   0.107   0.426
 1481SOL    HW1 4468   3.238   0.070   0.336
 1481SOL    HW2 4469   3.361   0.123   0.430
 1482SOL     OW 4470   2.111   1.785   1.241
 1482SOL    HW1 4471   2.168   1.720   1.291
 1482SOL    HW2 4472   2.095   1.752   1.148
 1483SOL     OW 4473   2.802   1.698   0.904
 1483SOL    HW1 4474   2.882   1.641   0.925
 1483SOL    HW2 4475   2.753   1.658   0.827
 1484SOL     OW 4476   2.244   0.700   0.480
 1484SOL    HW1 4477   2.289   0.610   0.477
 1484SOL    HW2 4478   2.150   0.689   0.513
 1485SOL     OW 4479   3.409   0.222   1.729
 1485SOL    HW1 4480   3.404   0.259   1.821
 1485SOL    HW2 4481   3.337   0.153   1.717
 1486SOL     OW 4482   2.476   0.122   0.117
 1486SOL    HW1 4483   2.574   0.100   0.124
 1486SOL    HW2 4484   2.445   0.105   0.024
 1487SOL     OW 4485   2.643   0.264   1.749
 1487SOL    HW1 4486   2.710   0.203   1.792
 1487SOL    HW2 4487   2.570   0.283   1.814
 1488SOL     OW 4488   2.750   1.514   1.195
 1488SOL    HW1 4489   2.727   1.489   1.101
 1488SOL    HW2 4490   2.811   1.445   1.234
 1489SOL     OW 4491   3.213   0.590   1.433
 1489SOL    HW1 4492   3.241   0.547   1.518
 1489SOL    HW2 4493   3.238   0.686   1.434
 1490SOL     OW 4494   2.665   1.402   0.924
 1490SOL    HW1 4495   2.755   1.416   0.882
 1490SOL    HW2 4496   2.594   1.404   0.853
 1491SOL     OW 4497   2.784   0.503   0.899
 1491SOL    HW1 4498   2.759   0.494   0.803
 1491SOL    HW2 4499   2.832   0.421   0.930
 1492SOL     OW 4500   2.401   0.064   0.512
 1492SOL    HW1 4501   2.320   0.065   0.570
 1492SOL    HW2 4502   2.404   0.147   0.457
 1493SOL     OW 4503   3.296   1.188   0.041
 1493SOL    HW1 4504   3.328   1.112   0.098
 1493SOL    HW2 4505   3.204   1.215   0.071
 1494SOL     OW 4506   2.159   0.035   0.171
 1494SOL    HW1 4507   2.208   0.119   0.150
 1494SOL    HW2 4508   2.221  -0.030   0.216
 1495SOL     OW 4509   2.797   0.236   0.480
 1495SOL    HW1 4510   2.749   0.277   0.402
 1495SOL    HW2 4511   2.896   0.234   0.461
 1496SOL     OW 4512   2.938   0.683   1.464
 1496SOL    HW1 4513   2.858   0.622   1.467
 1496SOL    HW2 4514   3.019   0.630   1.440
 1497SOL     OW 4515   3.089   1.570   0.793
 1497SOL    HW1 4516   3.110   1.644   0.728
 1497SOL    HW2 4517   3.157   1.570   0.866
 1498SOL     OW 4518   2.321   1.152   0.741
 1498SOL    HW1 4519   2.250   1.125   0.806
 1498SOL    HW2 4520   2.295   1.124   0.648
 1499SOL     OW 4521   3.133   1.797   0.591
 1499SOL    HW1 4522   3.177   1.861   0.527
 1499SOL    HW2 4523   3.083   1.849   0.661
 1500SOL     OW 4524   2.894   0.549   0.016
 1500SOL    HW1 4525   2.853   0.631  -0.023
 1500SOL    HW2 4526   2.958   0.575   0.089
 1501SOL     OW 4527   1.940   0.556   1.386
 1501SOL    HW1 4528   2.032   0.555   1.345
 1501SOL    HW2 4529   1.934   0.630   1.453
 1502SOL     OW 4530   2.423   0.222   1.147
 1502SOL    HW1 4531   2.461   0.138   1.184
 1502SOL    HW2 4532   2.335   0.241   1.191
 1503SOL     OW 4533   2.728   0.454   0.642
 1503SOL    HW1 4534   2.696   0.526   0.580
 1503SOL    HW2 4535   2.752   0.373   0.589
 1504SOL     OW 4536   2.879   0.039   0.753
 1504SOL    HW1 4537   2.807   0.044   0.684
 1504SOL    HW2 4538   2.855  -0.030   0.822
 1505SOL     OW 4539   3.291   1.173   0.867
 1505SOL    HW1 4540   3.236   1.089   0.860
 1505SOL    HW2 4541   3.317   1.202   0.775
 1506SOL     OW 4542   3.328   0.590   0.992
 1506SOL    HW1 4543   3.298   0.495   0.999
 1506SOL    HW2 4544   3.401   0.606   1.058
 1507SOL     OW 4545   3.719   0.833   0.377
 1507SOL    HW1 4546   3.761   0.769   0.441
 1507SOL    HW2 4547   3.681   0.782   0.299
 1508SOL     OW 4548   2.350   1.385   0.174
 1508SOL    HW1 4549   2.263   1.370   0.221
 1508SOL    HW2 4550   2.333   1.411   0.079
 1509SOL     OW 4551   3.526   1.280   0.657
 1509SOL    HW1 4552   3.625   1.288   0.671
 1509SOL    HW2 4553   3.481   1.364   0.688
 1510SOL     OW 4554   3.252   0.575   0.078
 1510SOL    HW1 4555   3.198   0.554   0.159
 1510SOL    HW2 4556   3.343   0.534   0.087
 1511SOL     OW 4557   2.389   0.256   0.328
 1511SOL    HW1 4558   2.416   0.197   0.253
 1511SOL    HW2 4559   2.389   0.351   0.297
 1512SOL     OW 4560   3.616   1.223   1.588
 1512SOL    HW1 4561   3.707   1.184   1.575
 1512SOL    HW2 4562   3.624   1.319   1.612
 1513SOL     OW 4563   2.926   1.347   1.340
 1513SOL    HW1 4564   2.846   1.324   1.395
 1513SOL    HW2 4565   3.009   1.321   1.389
 1514SOL     OW 4566   3.454   1.629   1.625
 1514SOL    HW1 4567   3.481   1.663   1.535
 1514SOL    HW2 4568   3.533   1.591   1.671
 1515SOL     OW 4569   2.973   1.195   1.100
 1515SOL    HW1 4570   2.933   1.239   1.181
 1515SOL    HW2 4571   2.932   1.232   1.017
 1516SOL     OW 4572   3.500   1.099   1.079
 1516SOL    HW1 4573   3.505   1.180   1.138
 1516SOL    HW2 4574   3.414   1.101   1.028
 1517SOL     OW 4575   2.777   0.089   1.402
 1517SOL    HW1 4576   2.802   0.069   1.307
 1517SOL    HW2 4577   2.849   0.145   1.444
 1518SOL     OW 4578   2.842   1.116   1.719
 1518SOL    HW1 4579   2.743   1.122   1.729
 1518SOL    HW2 4580   2.865   1.036   1.663
 1519SOL     OW 4581   2.567   1.050   0.368
 1519SOL    HW1 4582   2.553   1.057   0.467
 1519SOL    HW2 4583   2.651   0.999   0.350
 1520SOL     OW 4584   2.272   0.813   1.251
 1520SOL    HW1 4585   2.358   0.825   1.301
 1520SOL    HW2 4586   2.230   0.726   1.278
 1521SOL     OW 4587   3.136   0.386   1.262
 1521SOL    HW1 4588   3.157   0.460   1.326
 1521SOL    HW2 4589   3.047   0.403   1.219
 1522SOL     OW 4590   1.926   1.564   1.331
 1522SOL    HW1 4591   1.880   1.646   1.297
 1522SOL    HW2 4592   2.024   1.583   1.340
 1523SOL     OW 4593   2.229   1.100   0.501
 1523SOL    HW1 4594   2.222   1.183   0.445
 1523SOL    HW2 4595   2.233   1.020   0.441
 1524SOL     OW 4596   2.428   0.537   0.865
 1524SOL    HW1 4597   2.440   0.603   0.791
 1524SOL    HW2 4598   2.474   0.571   0.948
 1525SOL     OW 4599   3.114   1.348   0.388
 1525SOL    HW1 4600   3.164   1.425   0.428
 1525SOL    HW2 4601   3.019   1.350   0.420
 1526SOL     OW 4602   3.134   1.445   1.142
 1526SOL    HW1 4603   3.181   1.458   1.229
 1526SOL    HW2 4604   3.068   1.371   1.151
 1527SOL     OW 4605   3.444   0.639   0.472
 1527SOL    HW1 4606   3.413   0.700   0.545
 1527SOL    HW2 4607   3.494   0.691   0.403
 1528SOL     OW 4608   2.216   1.510   1.329
 1528SOL    HW1 4609   2.195   1.466   1.242
 1528SOL    HW2 4610   2.313   1.536   1.332
 1529SOL     OW 4611   2.264   0.751   1.598
 1529SOL    HW1 4612   2.332   0.806   1.551
 1529SOL    HW2 4613   2.304   0.663   1.625
 1530SOL     OW 4614   3.449   0.779   1.670
 1530SOL    HW1 4615   3.357   0.817   1.665
 1530SOL    HW2 4616   3.509   0.826   1.605
 1531SOL     OW 4617   2.875   0.105   1.770
 1531SOL    HW1 4618   2.881   0.190   1.718
 1531SOL    HW2 4619   2.907   0.029   1.713
 1532SOL     OW 4620   2.366   0.050   1.740
 1532SOL    HW1 4621   2.324  -0.007   1.670
 1532SOL    HW2 4622   2.300   0.119   1.772
 1533SOL     OW 4623   2.435   0.870   1.029
 1533SOL    HW1 4624   2.479   0.959   1.020
 1533SOL    HW2 4625   2.372   0.870   1.106
 1534SOL     OW 4626   3.222   0.862   1.045
 1534SOL    HW1 4627   3.147   0.862   0.979
 1534SOL    HW2 4628   3.259   0.770   1.054
 1535SOL     OW 4629   3.071   0.525   0.275
 1535SOL    HW1 4630   3.084   0.441   0.329
 1535SOL    HW2 4631   3.042   0.599   0.335
 1536SOL     OW 4632   2.169   0.213   1.231
 1536SOL    HW1 4633   2.146   0.250   1.321
 1536SOL    HW2 4634   2.139   0.118   1.225
 1537SOL     OW 4635   1.899   1.310   1.282
 1537SOL    HW1 4636   1.952   1.261   1.350
 1537SOL    HW2 4637   1.921   1.408   1.287
 1538SOL     OW 4638   2.594   0.634   1.064
 1538SOL    HW1 4639   2.653   0.608   0.988
 1538SOL    HW2 4640   2.566   0.730   1.053
 1539SOL     OW 4641   3.590   0.935   1.854
 1539SOL    HW1 4642   3.544   0.928   1.765
 1539SOL    HW2 4643   3.528   0.979   1.920
 1540SOL     OW 4644   2.169   0.063   0.618
 1540SOL    HW1 4645   2.158   0.157   0.651
 1540SOL    HW2 4646   2.164   0.000   0.695
 1541SOL     OW 4647   3.484   0.367   0.374
 1541SOL    HW1 4648   3.486   0.291   0.438
 1541SOL    HW2 4649   3.436   0.444   0.414
 1542SOL     OW 4650   2.885   0.766   0.966
 1542SOL    HW1 4651   2.900   0.787   1.062
 1542SOL    HW2 4652   2.855   0.671   0.957
 1543SOL     OW 4653   2.842   1.573   1.700
 1543SOL    HW1 4654   2.822   1.617   1.612
 1543SOL    HW2 4655   2.881   1.482   1.684
 1544SOL     OW 4656   3.721   1.518   1.605
 1544SOL    HW1 4657   3.735   1.545   1.510
 1544SOL    HW2 4658   3.804   1.540   1.658
 1545SOL     OW 4659   2.212   0.898   1.804
 1545SOL    HW1 4660   2.288   0.942   1.852
 1545SOL    HW2 4661   2.247   0.851   1.722
 1546SOL     OW 4662   3.402   0.274   0.125
 1546SOL    HW1 4663   3.341   0.199   0.148
 1546SOL    HW2 4664   3.424   0.326   0.208
 1547SOL     OW 4665   3.165   0.838   0.042
 1547SOL    HW1 4666   3.199   0.745   0.057
 1547SOL    HW2 4667   3.183   0.865  -0.053
 1548SOL     OW 4668   2.930   1.333   0.849
 1548SOL    HW1 4669   2.937   1.249   0.794
 1548SOL    HW2 4670   2.992   1.402   0.813
 1549SOL     OW 4671   2.181   0.810   0.949
 1549SOL    HW1 4672   2.274   0.846   0.954
 1549SOL    HW2 4673   2.175   0.725   1.001
 1550SOL     OW 4674   2.201   0.509   1.006
 1550SOL    HW1 4675   2.149   0.426   0.989
 1550SOL    HW2 4676   2.278   0.514   0.942
 1551SOL     OW 4677   3.000   0.380   1.678
 1551SOL    HW1 4678   2.955   0.443   1.742
 1551SOL    HW2 4679   3.093   0.411   1.661
 1552SOL     OW 4680   3.022   0.207   1.477
 1552SOL    HW1 4681   3.022   0.271   1.554
 1552SOL    HW2 4682   3.050   0.255   1.394
 1553SOL     OW 4683   1.870   1.326   0.200
 1553SOL    HW1 4684   1.777   1.347   0.169
 1553SOL    HW2 4685   1.880   1.227   0.213
 1554SOL     OW 4686   1.950   1.801   0.927
 1554SOL    HW1 4687   1.908   1.715   0.900
 1554SOL    HW2 4688   2.044   1.804   0.893
 1555SOL     OW 4689   2.366   1.568   0.910
 1555SOL    HW1 4690   2.432   1.642   0.919
 1555SOL    HW2 4691   2.410   1.489   0.868
 1556SOL     OW 4692   2.864   0.796   1.238
 1556SOL    HW1 4693   2.905   0.764   1.324
 1556SOL    HW2 4694   2.768   0.769   1.235
 1557SOL     OW 4695   1.902   0.544   1.114
 1557SOL    HW1 4696   1.987   0.511   1.073
 1557SOL    HW2 4697   1.915   0.559   1.212
 1558SOL     OW 4698   2.051   0.520   1.722
 1558SOL    HW1 4699   2.110   0.480   1.652
 1558SOL    HW2 4700   1.993   0.591   1.681
 1559SOL     OW 4701   3.231   0.950   1.660
 1559SOL    HW1 4702   3.270   1.039   1.680
 1559SOL    HW2 4703   3.241   0.930   1.563
 1560SOL     OW 4704   2.677   0.572   0.325
 1560SOL    HW1 4705   2.684   0.483   0.279
 1560SOL    HW2 4706   2.583   0.606   0.317
 1561SOL     OW 4707   3.519   0.604   1.206
 1561SOL    HW1 4708   3.481   0.535   1.268
 1561SOL    HW2 4709   3.601   0.568   1.162
 1562SOL     OW 4710   2.114   1.564   1.744
 1562SOL    HW1 4711   2.084   1.621   1.820
 1562SOL    HW2 4712   2.107   1.467   1.770
 1563SOL     OW 4713   2.533   0.464   1.269
 1563SOL    HW1 4714   2.499   0.375   1.239
 1563SOL    HW2 4715   2.559   0.518   1.189
 1564SOL     OW 4716   2.792   1.678   1.465
 1564SOL    HW1 4717   2.768   1.660   1.370
 1564SOL    HW2 4718   2.822   1.772   1.475
 1565SOL     OW 4719   2.335   0.500   0.191
 1565SOL    HW1 4720   2.396   0.580   0.195
 1565SOL    HW2 4721   2.240   0.531   0.198
 1566SOL     OW 4722   2.021   1.137   1.466
 1566SOL    HW1 4723   2.043   1.076   1.542
 1566SOL    HW2 4724   2.031   1.088   1.380
 1567SOL     OW 4725   3.209   1.059   1.234
 1567SOL    HW1 4726   3.233   0.996   1.160
 1567SOL    HW2 4727   3.119   1.099   1.216
 1568SOL     OW 4728   3.164   0.855   0.309
 1568SOL    HW1 4729   3.078   0.824   0.351
 1568SOL    HW2 4730   3.160   0.841   0.210
 1569SOL     OW 4731   3.621   1.747   1.154
 1569SOL    HW1 4732   3.682   1.777   1.081
 1569SOL    HW2 4733   3.583   1.658   1.132
 1570SOL     OW 4734   3.114   1.731   1.128
 1570SOL    HW1 4735   3.198   1.736   1.074
 1570SOL    HW2 4736   3.091   1.635   1.146
 1571SOL     OW 4737   1.945   1.258   1.022
 1571SOL    HW1 4738   1.940   1.257   1.122
 1571SOL    HW2 4739   1.862   1.217   0.984
 1572SOL     OW 4740   2.550   1.662   1.716
 1572SOL    HW1 4741   2.494   1.743   1.725
 1572SOL    HW2 4742   2.602   1.666   1.630
 1573SOL     OW 4743   2.765   0.086   0.133
 1573SOL    HW1 4744   2.816   0.087   0.047
 1573SOL    HW2 4745   2.821   0.044   0.204
 1574SOL     OW 4746   3.588   0.135   0.523
 1574SOL    HW1 4747   3.661   0.118   0.456
 1574SOL    HW2 4748   3.557   0.048   0.561
 1575SOL     OW 4749   3.250   1.573   0.477
 1575SOL    HW1 4750   3.317   1.585   0.403
 1575SOL    HW2 4751   3.210   1.662   0.500
 1576SOL     OW 4752   1.992   1.794   1.851
 1576SOL    HW1 4753   1.951   1.720   1.904
 1576SOL    HW2 4754   2.056   1.845   1.909
 1577SOL     OW 4755   3.142   0.927   0.672
 1577SOL    HW1 4756   3.202   0.846   0.674
 1577SOL    HW2 4757   3.182   0.996   0.612
 1578SOL     OW 4758   2.692   1.273   1.422
 1578SOL    HW1 4759   2.687   1.306   1.517
 1578SOL    HW2 4760   2.606   1.292   1.376
 1579SOL     OW 4761   2.534   1.616   0.154
 1579SOL    HW1 4762   2.543   1.626   0.055
 1579SOL    HW2 4763   2.494   1.527   0.175
 1580SOL     OW 4764   3.512   1.720   1.394
 1580SOL    HW1 4765   3.565   1.730   1.310
 1580SOL    HW2 4766   3.485   1.810   1.428
 1581SOL     OW 4767   3.703   0.175   0.963
 1581SOL    HW1 4768   3.742   0.090   0.927
 1581SOL    HW2 4769   3.605   0.177   0.944
 1582SOL     OW 4770   2.125   0.326   0.720
 1582SOL    HW1 4771   2.046   0.377   0.686
 1582SOL    HW2 4772   2.116   0.311   0.818
 1583SOL     OW 4773   3.056   1.612   0.031
 1583SOL    HW1 4774   3.062   1.519   0.068
 1583SOL    HW2 4775   2.997   1.612  -0.049
 1584SOL     OW 4776   2.684   1.002   1.372
 1584SOL    HW1 4777   2.724   1.001   1.280
 1584SOL    HW2 4778   2.694   1.094   1.412
 1585SOL     OW 4779   2.778   0.910   0.291
 1585SOL    HW1 4780   2.841   0.948   0.223
 1585SOL    HW2 4781   2.818   0.827   0.330
 1586SOL     OW 4782   3.366   1.607   0.044
 1586SOL    HW1 4783   3.274   1.644   0.051
 1586SOL    HW2 4784   3.404   1.627  -0.046
 1587SOL     OW 4785   2.234   1.288   1.490
 1587SOL    HW1 4786   2.221   1.381   1.456
 1587SOL    HW2 4787   2.150   1.236   1.477
 1588SOL     OW 4788   3.476   1.292   1.289
 1588SOL    HW1 4789   3.536   1.295   1.369
 1588SOL    HW2 4790   3.401   1.356   1.302
 1589SOL     OW 4791   2.901   1.098   0.696
 1589SOL    HW1 4792   2.831   1.051   0.750
 1589SOL    HW2 4793   2.960   1.030   0.653
 1590SOL     OW 4794   2.876   0.236   0.971
 1590SOL    HW1 4795   2.868   0.200   0.878
 1590SOL    HW2 4796   2.874   0.160   1.036
 1591SOL     OW 4797   2.452   1.487   0.491
 1591SOL    HW1 4798   2.494   1.429   0.421
 1591SOL    HW2 4799   2.408   1.566   0.447
 1592SOL     OW 4800   3.571   0.385   1.381
 1592SOL    HW1 4801   3.644   0.454   1.385
 1592SOL    HW2 4802   3.599   0.310   1.322
 1593SOL     OW 4803   2.117   1.348   0.290
 1593SOL    HW1 4804   2.021   1.349   0.263
 1593SOL    HW2 4805   2.129   1.401   0.374
 1594SOL     OW 4806   1.967   1.013   1.726
 1594SOL    HW1 4807   1.890   0.980   1.780
 1594SOL    HW2 4808   2.052   0.983   1.768
 1595SOL     OW 4809   2.534   0.203   1.489
 1595SOL    HW1 4810   2.624   0.187   1.449
 1595SOL    HW2 4811   2.542   0.208   1.588
 1596SOL     OW 4812   1.937   0.345   0.033
 1596SOL    HW1 4813   1.845   0.317   0.004
 1596SOL    HW2 4814   1.968   0.422  -0.023
 1597SOL     OW 4815   3.302   0.856   1.398
 1597SOL    HW1 4816   3.245   0.908   1.335
 1597SOL    HW2 4817   3.398   0.868   1.374
 1598SOL     OW 4818   1.934   0.166   0.318
 1598SOL    HW1 4819   1.917   0.249   0.264
 1598SOL    HW2 4820   2.024   0.129   0.296
 1599SOL     OW 4821   3.045   1.335   0.119
 1599SOL    HW1 4822   2.946   1.324   0.121
 1599SOL    HW2 4823   3.079   1.350   0.212
 1600SOL     OW 4824   2.475   0.842   1.431
 1600SOL    HW1 4825   2.531   0.923   1.414
 1600SOL    HW2 4826   2.534   0.762   1.434
 1601SOL     OW 4827   3.355   1.767   0.959
 1601SOL    HW1 4828   3.388   1.831   0.890
 1601SOL    HW2 4829   3.421   1.761   1.034
 1602SOL     OW 4830   2.578   0.565   1.708
 1602SOL    HW1 4831   2.597   0.630   1.782
 1602SOL    HW2 4832   2.638   0.485   1.717
 1603SOL     OW 4833   3.312   1.220   1.633
 1603SOL    HW1 4834   3.303   1.210   1.732
 1603SOL    HW2 4835   3.408   1.213   1.607
 1604SOL     OW 4836   2.252   1.741   1.560
 1604SOL    HW1 4837   2.161   1.782   1.558
 1604SOL    HW2 4838   2.245   1.647   1.592
 1605SOL     OW 4839   3.536   0.883   1.254
 1605SOL    HW1 4840   3.509   0.794   1.217
 1605SOL    HW2 4841   3.537   0.951   1.181
 1606SOL     OW 4842   3.087   0.325   0.449
 1606SOL    HW1 4843   3.152   0.251   0.438
 1606SOL    HW2 4844   3.107   0.375   0.533
 1607SOL     OW 4845   2.456   0.745   0.652
 1607SOL    HW1 4846   2.506   0.830   0.633
 1607SOL    HW2 4847   2.368   0.747   0.604
 1608SOL     OW 4848   3.639   0.342   1.642
 1608SOL    HW1 4849   3.622   0.373   1.548
 1608SOL    HW2 4850   3.555   0.305   1.680
 1609SOL     OW 4851   3.592   0.934   1.517
 1609SOL    HW1 4852   3.630   1.025   1.532
 1609SOL    HW2 4853   3.584   0.917   1.418
 1610SOL     OW 4854   2.721   1.374   0.016
 1610SOL    HW1 4855   2.675   1.389   0.104
 1610SOL    HW2 4856   2.765   1.459  -0.014
 1611SOL     OW 4857   2.523   1.790   0.953
 1611SOL    HW1 4858   2.477   1.878   0.940
 1611SOL    HW2 4859   2.622   1.802   0.946
 1612SOL     OW 4860   2.721   0.956   0.861
 1612SOL    HW1 4861   2.775   0.887   0.909
 1612SOL    HW2 4862   2.689   1.025   0.927
 1613SOL     OW 4863   2.945   0.984   0.087
 1613SOL    HW1 4864   2.922   1.037   0.005
 1613SOL    HW2 4865   3.026   0.928   0.068
 1614SOL     OW 4866   3.723   1.569   0.851
 1614SOL    HW1 4867   3.652   1.557   0.781
 1614SOL    HW2 4868   3.724   1.490   0.911
 1615SOL     OW 4869   2.083   1.314   1.844
 1615SOL    HW1 4870   2.018   1.241   1.823
 1615SOL    HW2 4871   2.087   1.328   1.942
 1616SOL     OW 4872   1.941   1.240   0.653
 1616SOL    HW1 4873   1.940   1.193   0.741
 1616SOL    HW2 4874   2.023   1.212   0.602
 1617SOL     OW 4875   2.534   1.391   1.624
 1617SOL    HW1 4876   2.456   1.341   1.662
 1617SOL    HW2 4877   2.531   1.486   1.655
 1618SOL     OW 4878   3.686   0.192   1.227
 1618SOL    HW1 4879   3.682   0.102   1.271
 1618SOL    HW2 4880   3.689   0.181   1.128
 1619SOL     OW 4881   2.290   0.424   0.520
 1619SOL    HW1 4882   2.320   0.352   0.458
 1619SOL    HW2 4883   2.251   0.384   0.603
 1620SOL     OW 4884   3.567   1.487   1.104
 1620SOL    HW1 4885   3.474   1.462   1.077
 1620SOL    HW2 4886   3.593   1.437   1.186
 1621SOL     OW 4887   2.179   0.547   1.280
 1621SOL    HW1 4888   2.217   0.488   1.352
 1621SOL    HW2 4889   2.219   0.521   1.192
 1622SOL     OW 4890   2.674   1.586   0.687
 1622SOL    HW1 4891   2.706   1.596   0.593
 1622SOL    HW2 4892   2.595   1.524   0.689
 1623SOL     OW 4893   3.286   0.214   1.112
 1623SOL    HW1 4894   3.338   0.149   1.167
 1623SOL    HW2 4895   3.237   0.277   1.173
 1624SOL     OW 4896   2.863   0.034   1.154
 1624SOL    HW1 4897   2.800  -0.038   1.123
 1624SOL    HW2 4898   2.956  -0.002   1.154
 1625SOL     OW 4899   2.632   1.330   0.301
 1625SOL    HW1 4900   2.586   1.243   0.318
 1625SOL    HW2 4901   2.723   1.327   0.342
 1626SOL     OW 4902   2.480   1.567   1.284
 1626SOL    HW1 4903   2.475   1.649   1.341
 1626SOL    HW2 4904   2.569   1.564   1.239
 1627SOL     OW 4905   3.214   0.052   0.168
 1627SOL    HW1 4906   3.249   0.011   0.084
 1627SOL    HW2 4907   3.124   0.014   0.188
 1628SOL     OW 4908   3.162   0.453   0.691
 1628SOL    HW1 4909   3.103   0.533   0.695
 1628SOL    HW2 4910   3.177   0.418   0.784
 1629SOL     OW 4911   3.455   0.221   0.882
 1629SOL    HW1 4912   3.371   0.220   0.936
 1629SOL    HW2 4913   3.457   0.304   0.826
 1630SOL     OW 4914   1.901   1.077   0.300
 1630SOL    HW1 4915   2.000   1.066   0.291
 1630SOL    HW2 4916   1.861   0.991   0.332
 1631SOL     OW 4917   2.737   1.646   0.337
 1631SOL    HW1 4918   2.660   1.611   0.283
 1631SOL    HW2 4919   2.705   1.717   0.399
 1632SOL     OW 4920   2.092   0.628   1.975
 1632SOL    HW1 4921   1.999   0.626   2.012
 1632SOL    HW2 4922   2.093   0.589   1.883
 1633SOL     OW 4923   2.087   0.275   2.858
 1633SOL    HW1 4924   2.122   0.258   2.950
 1633SOL    HW2 4925   1.999   0.230   2.846
 1634SOL     OW 4926   1.881   0.368   2.509
 1634SOL    HW1 4927   1.799   0.411   2.548
 1634SOL    HW2 4928   1.853   0.295   2.446
 1635SOL     OW 4929   2.431   1.275   3.027
 1635SOL    HW1 4930   2.338   1.268   2.990
 1635SOL    HW2 4931   2.442   1.364   3.071
 1636SOL     OW 4932   3.417   1.511   2.565
 1636SOL    HW1 4933   3.360   1.495   2.646
 1636SOL    HW2 4934   3.358   1.521   2.485
 1637SOL     OW 4935   2.997   0.703   2.579
 1637SOL    HW1 4936   3.054   0.781   2.554
 1637SOL    HW2 4937   2.937   0.729   2.655
 1638SOL     OW 4938   3.617   0.607   2.093
 1638SOL    HW1 4939   3.605   0.594   1.994
 1638SOL    HW2 4940   3.587   0.526   2.142
 1639SOL     OW 4941   2.630   1.144   2.885
 1639SOL    HW1 4942   2.552   1.161   2.945
 1639SOL    HW2 4943   2.664   1.231   2.849
 1640SOL     OW 4944   2.712   0.798   3.685
 1640SOL    HW1 4945   2.708   0.874   3.750
 1640SOL    HW2 4946   2.734   0.834   3.594
 1641SOL     OW 4947   2.547   1.012   2.527
 1641SOL    HW1 4948   2.616   0.996   2.597
 1641SOL    HW2 4949   2.474   1.069   2.565
 1642SOL     OW 4950   2.548   1.161   3.665
 1642SOL    HW1 4951   2.608   1.240   3.679
 1642SOL    HW2 4952   2.462   1.192   3.624
 1643SOL     OW 4953   2.197   1.435   2.923
 1643SOL    HW1 4954   2.119   1.404   2.870
 1643SOL    HW2 4955   2.255   1.493   2.866
 1644SOL     OW 4956   3.322   1.505   3.201
 1644SOL    HW1 4957   3.346   1.599   3.227
 1644SOL    HW2 4958   3.306   1.451   3.283
 1645SOL     OW 4959   2.300   0.392   3.361
 1645SOL    HW1 4960   2.382   0.336   3.370
 1645SOL    HW2 4961   2.219   0.334   3.365
 1646SOL     OW 4962   3.465   0.447   2.599
 1646SOL    HW1 4963   3.391   0.493   2.549
 1646SOL    HW2 4964   3.516   0.515   2.652
 1647SOL     OW 4965   2.093   1.713   2.345
 1647SOL    HW1 4966   2.127   1.790   2.399
 1647SOL    HW2 4967   2.137   1.713   2.255
 1648SOL     OW 4968   2.989   1.341   3.552
 1648SOL    HW1 4969   3.036   1.341   3.640
 1648SOL    HW2 4970   2.941   1.254   3.541
 1649SOL     OW 4971   2.092   1.434   2.400
 1649SOL    HW1 4972   2.066   1.530   2.400
 1649SOL    HW2 4973   2.021   1.380   2.445
 1650SOL     OW 4974   2.102   1.091   2.748
 1650SOL    HW1 4975   2.116   1.007   2.800
 1650SOL    HW2 4976   2.047   1.155   2.803
 1651SOL     OW 4977   2.482   1.786   3.301
 1651SOL    HW1 4978   2.390   1.769   3.336
 1651SOL    HW2 4979   2.510   1.878   3.327
 1652SOL     OW 4980   2.468   0.964   1.985
 1652SOL    HW1 4981   2.475   1.048   1.931
 1652SOL    HW2 4982   2.514   0.977   2.073
 1653SOL     OW 4983   3.456   0.114   3.342
 1653SOL    HW1 4984   3.438   0.181   3.270
 1653SOL    HW2 4985   3.453   0.160   3.431
 1654SOL     OW 4986   1.984   0.643   2.425
 1654SOL    HW1 4987   1.939   0.555   2.442
 1654SOL    HW2 4988   1.983   0.697   2.509
 1655SOL     OW 4989   3.704   1.767   2.221
 1655SOL    HW1 4990   3.758   1.738   2.301
 1655SOL    HW2 4991   3.734   1.857   2.192
 1656SOL     OW 4992   1.889   1.596   1.979
 1656SOL    HW1 4993   1.870   1.500   2.000
 1656SOL    HW2 4994   1.856   1.654   2.054
 1657SOL     OW 4995   3.551   0.922   2.474
 1657SOL    HW1 4996   3.646   0.893   2.482
 1657SOL    HW2 4997   3.543   0.987   2.399
 1658SOL     OW 4998   3.503   1.108   2.294
 1658SOL    HW1 4999   3.589   1.110   2.242
 1658SOL    HW2 5000   3.517   1.155   2.382
 1659SOL     OW 5001   1.975   0.737   3.459
 1659SOL    HW1 5002   2.063   0.724   3.504
 1659SOL    HW2 5003   1.962   0.834   3.437
 1660SOL     OW 5004   2.475   1.365   2.588
 1660SOL    HW1 5005   2.426   1.278   2.597
 1660SOL    HW2 5006   2.452   1.408   2.501
 1661SOL     OW 5007   3.155   1.228   3.285
 1661SOL    HW1 5008   3.192   1.155   3.227
 1661SOL    HW2 5009   3.207   1.233   3.370
 1662SOL     OW 5010   2.671   0.004   2.364
 1662SOL    HW1 5011   2.711   0.095   2.355
 1662SOL    HW2 5012   2.571   0.012   2.370
 1663SOL     OW 5013   2.059   0.976   3.126
 1663SOL    HW1 5014   2.148   0.931   3.112
 1663SOL    HW2 5015   1.986   0.911   3.107
 1664SOL     OW 5016   3.387   0.999   2.052
 1664SOL    HW1 5017   3.324   0.923   2.065
 1664SOL    HW2 5018   3.435   1.017   2.138
 1665SOL     OW 5019   3.049   1.792   3.478
 1665SOL    HW1 5020   3.073   1.852   3.402
 1665SOL    HW2 5021   3.056   1.697   3.448
 1666SOL     OW 5022   2.179   0.251   3.663
 1666SOL    HW1 5023   2.250   0.322   3.669
 1666SOL    HW2 5024   2.091   0.290   3.691
 1667SOL     OW 5025   3.328   1.417   2.815
 1667SOL    HW1 5026   3.269   1.423   2.895
 1667SOL    HW2 5027   3.313   1.329   2.769
 1668SOL     OW 5028   3.529   1.714   2.434
 1668SOL    HW1 5029   3.488   1.691   2.346
 1668SOL    HW2 5030   3.511   1.640   2.499
 1669SOL     OW 5031   2.460   0.729   2.132
 1669SOL    HW1 5032   2.484   0.798   2.064
 1669SOL    HW2 5033   2.382   0.762   2.186
 1670SOL     OW 5034   3.143   0.345   2.806
 1670SOL    HW1 5035   3.057   0.295   2.793
 1670SOL    HW2 5036   3.205   0.291   2.862
 1671SOL     OW 5037   3.438   1.662   2.169
 1671SOL    HW1 5038   3.527   1.708   2.172
 1671SOL    HW2 5039   3.417   1.638   2.074
 1672SOL     OW 5040   2.669   0.605   3.327
 1672SOL    HW1 5041   2.622   0.602   3.416
 1672SOL    HW2 5042   2.618   0.550   3.261
 1673SOL     OW 5043   3.256   0.469   3.536
 1673SOL    HW1 5044   3.236   0.512   3.624
 1673SOL    HW2 5045   3.334   0.407   3.545
 1674SOL     OW 5046   2.835   0.890   3.434
 1674SOL    HW1 5047   2.881   0.806   3.405
 1674SOL    HW2 5048   2.779   0.924   3.359
 1675SOL     OW 5049   2.853   0.410   3.104
 1675SOL    HW1 5050   2.776   0.444   3.158
 1675SOL    HW2 5051   2.819   0.359   3.025
 1676SOL     OW 5052   2.903   0.701   2.291
 1676SOL    HW1 5053   2.929   0.697   2.387
 1676SOL    HW2 5054   2.818   0.650   2.277
 1677SOL     OW 5055   1.938   0.811   2.651
 1677SOL    HW1 5056   2.037   0.799   2.660
 1677SOL    HW2 5057   1.914   0.906   2.672
 1678SOL     OW 5058   1.992   1.821   3.433
 1678SOL    HW1 5059   1.982   1.806   3.532
 1678SOL    HW2 5060   1.906   1.857   3.397
 1679SOL     OW 5061   2.727   0.348   2.057
 1679SOL    HW1 5062   2.786   0.411   2.008
 1679SOL    HW2 5063   2.746   0.254   2.028
 1680SOL     OW 5064   3.581   0.585   3.693
 1680SOL    HW1 5065   3.555   0.674   3.657
 1680SOL    HW2 5066   3.579   0.517   3.620
 1681SOL     OW 5067   3.224   1.144   2.407
 1681SOL    HW1 5068   3.307   1.115   2.359
 1681SOL    HW2 5069   3.175   1.211   2.351
 1682SOL     OW 5070   2.412   0.196   2.747
 1682SOL    HW1 5071   2.407   0.191   2.847
 1682SOL    HW2 5072   2.414   0.292   2.718
 1683SOL     OW 5073   2.870   1.456   2.339
 1683SOL    HW1 5074   2.824   1.528   2.287
 1683SOL    HW2 5075   2.866   1.476   2.437
 1684SOL     OW 5076   2.213   1.801   2.715
 1684SOL    HW1 5077   2.263   1.715   2.721
 1684SOL    HW2 5078   2.278   1.878   2.712
 1685SOL     OW 5079   3.657   1.066   2.735
 1685SOL    HW1 5080   3.595   1.051   2.659
 1685SOL    HW2 5081   3.605   1.077   2.820
 1686SOL     OW 5082   3.089   1.550   3.368
 1686SOL    HW1 5083   3.095   1.473   3.432
 1686SOL    HW2 5084   3.037   1.524   3.288
 1687SOL     OW 5085   2.183   0.943   2.104
 1687SOL    HW1 5086   2.265   0.982   2.062
 1687SOL    HW2 5087   2.156   0.861   2.055
 1688SOL     OW 5088   3.320   0.735   2.590
 1688SOL    HW1 5089   3.315   0.670   2.665
 1688SOL    HW2 5090   3.400   0.794   2.603
 1689SOL     OW 5091   2.323   1.266   3.589
 1689SOL    HW1 5092   2.273   1.267   3.503
 1689SOL    HW2 5093   2.260   1.248   3.665
 1690SOL     OW 5094   2.973   1.776   2.099
 1690SOL    HW1 5095   2.913   1.714   2.149
 1690SOL    HW2 5096   3.004   1.732   2.014
 1691SOL     OW 5097   2.064   0.285   3.360
 1691SOL    HW1 5098   1.984   0.345   3.347
 1691SOL    HW2 5099   2.054   0.236   3.446
 1692SOL     OW 5100   3.494   1.377   1.943
 1692SOL    HW1 5101   3.462   1.471   1.933
 1692SOL    HW2 5102   3.418   1.314   1.931
 1693SOL     OW 5103   2.326   1.743   2.185
 1693SOL    HW1 5104   2.359   1.782   2.271
 1693SOL    HW2 5105   2.402   1.736   2.120
 1694SOL     OW 5106   3.262   0.107   2.288
 1694SOL    HW1 5107   3.238   0.070   2.198
 1694SOL    HW2 5108   3.361   0.123   2.292
 1695SOL     OW 5109   2.111   1.785   3.103
 1695SOL    HW1 5110   2.168   1.720   3.153
 1695SOL    HW2 5111   2.095   1.752   3.010
 1696SOL     OW 5112   2.802   1.698   2.766
 1696SOL    HW1 5113   2.882   1.641   2.787
 1696SOL    HW2 5114   2.753   1.658   2.689
 1697SOL     OW 5115   2.244   0.700   2.342
 1697SOL    HW1 5116   2.289   0.610   2.339
 1697SOL    HW2 5117   2.150   0.689   2.375
 1698SOL     OW 5118   3.409   0.222   3.591
 1698SOL    HW1 5119   3.404   0.259   3.683
 1698SOL    HW2 5120   3.337   0.153   3.579
 1699SOL     OW 5121   2.476   0.122   1.979
 1699SOL    HW1 5122   2.574   0.100   1.986
 1699SOL    HW2 5123   2.445   0.105   1.886
 1700SOL     OW 5124   2.643   0.264   3.611
 1700SOL    HW1 5125   2.710   0.203   3.654
 1700SOL    HW2 5126   2.570   0.283   3.676
 1701SOL     OW 5127   2.750   1.514   3.057
 1701SOL    HW1 5128   2.727   1.489   2.963
 1701SOL    HW2 5129   2.811   1.445   3.096
 1702SOL     OW 5130   3.213   0.590   3.295
 1702SOL    HW1 5131   3.241   0.547   3.380
 1702SOL    HW2 5132   3.238   0.686   3.296
 1703SOL     OW 5133   2.665   1.402   2.786
 1703SOL    HW1 5134   2.755   1.416   2.744
 1703SOL    HW2 5135   2.594   1.404   2.715
 1704SOL     OW 5136   2.784   0.503   2.761
 1704SOL    HW1 5137   2.759   0.494   2.665
 1704SOL    HW2 5138   2.832   0.421   2.792
 1705SOL     OW 5139   2.401   0.064   2.374
 1705SOL    HW1 5140   2.320   0.065   2.432
 1705SOL    HW2 5141   2.404   0.147   2.319
 1706SOL     OW 5142   3.296   1.188   1.903
 1706SOL    HW1 5143   3.328   1.112   1.960
 1706SOL    HW2 5144   3.204   1.215   1.933
 1707SOL     OW 5145   2.159   0.035   2.033
 1707SOL    HW1 5146   2.208   0.119   2.012
 1707SOL    HW2 5147   2.221  -0.030   2.078
 1708SOL     OW 5148   2.797   0.236   2.342
 1708SOL    HW1 5149   2.749   0.277   2.264
 1708SOL    HW2 5150   2.896   0.234   2.323
 1709SOL     OW 5151   2.938   0.683   3.326
 1709SOL    HW1 5152   2.858   0.622   3.329
 1709SOL    HW2 5153   3.019   0.630   3.302
 1710SOL     OW 5154   3.089   1.570   2.655
 1710SOL    HW1 5155   3.110   1.644   2.590
 1710SOL    HW2 5156   3.157   1.570   2.728
 1711SOL     OW 5157   2.321   1.152   2.603
 1711SOL    HW1 5158   2.250   1.125   2.668
 1711SOL    HW2 5159   2.295   1.124   2.510
 1712SOL     OW 5160   3.133   1.797   2.453
 1712SOL    HW1 5161   3.177   1.861   2.389
 1712SOL    HW2 5162   3.083   1.849   2.523
 1713SOL     OW 5163   2.894   0.549   1.878
 1713SOL    HW1 5164   2.853   0.631   1.839
 1713SOL    HW2 5165   2.958   0.575   1.951
 1714SOL     OW 5166   1.940   0.556   3.248
 1714SOL    HW1 5167   2.032   0.555   3.207
 1714SOL    HW2 5168   1.934   0.630   3.315
 1715SOL     OW 5169   2.423   0.222   3.009
 1715SOL    HW1 5170   2.461   0.138   3.046
 1715SOL    HW2 5171   2.335   0.241   3.053
 1716SOL     OW 5172   2.728   0.454   2.504
 1716SOL    HW1 5173   2.696   0.526   2.442
 1716SOL    HW2 5174   2.752   0.373   2.451
 1717SOL     OW 5175   2.879   0.039   2.615
 1717SOL    HW1 5176   2.807   0.044   2.546
 1717SOL    HW2 5177   2.855  -0.030   2.684
 1718SOL     OW 5178   3.291   1.173   2.729
 1718SOL    HW1 5179   3.236   1.089   2.722
 1718SOL    HW2 5180   3.317   1.202   2.637
 1719SOL     OW 5181   3.328   0.590   2.854
 1719SOL    HW1 5182   3.298   0.495   2.861
 1719SOL    HW2 5183   3.401   0.606   2.920
 1720SOL     OW 5184   3.719   0.833   2.239
 1720SOL    HW1 5185   3.761   0.769   2.303
 1720SOL    HW2 5186   3.681   0.782   2.161
 1721SOL     OW 5187   2.350   1.385   2.036
 1721SOL    HW1 5188   2.263   1.370   2.083
 1721SOL    HW2 5189   2.333   1.411   1.941
 1722SOL     OW 5190   3.526   1.280   2.519
 1722SOL    HW1 5191   3.625   1.288   2.533
 1722SOL    HW2 5192   3.481   1.364   2.550
 1723SOL     OW 5193   3.252   0.575   1.940
 1723SOL    HW1 5194   3.198   0.554   2.021
 1723SOL    HW2 5195   3.343   0.534   1.949
 1724SOL     OW 5196   2.389   0.256   2.190
 1724SOL    HW1 5197   2.416   0.197   2.115
 1724SOL    HW2 5198   2.389   0.351   2.159
 1725SOL     OW 5199   3.616   1.223   3.450
 1725SOL    HW1 5200   3.707   1.184   3.437
 1725SOL    HW2 5201   3.624   1.319   3.474
 1726SOL     OW 5202   2.926   1.347   3.202
 1726SOL    HW1 5203   2.846   1.324   3.257
 1726SOL    HW2 5204   3.009   1.321   3.251
 1727SOL     OW 5205   3.454   1.629   3.487
 1727SOL    HW1 5206   3.481   1.663   3.397
 1727SOL    HW2 5207   3.533   1.591   3.533
 1728SOL     OW 5208   2.973   1.195   2.962
 1728SOL    HW1 5209   2.933   1.239   3.043
 1728SOL    HW2 5210   2.932   1.232   2.879
 1729SOL     OW 5211   3.500   1.099   2.941
 1729SOL    HW1 5212   3.505   1.180   3.000
 1729SOL    HW2 5213   3.414   1.101   2.890
 1730SOL     OW 5214   2.777   0.089   3.264
 1730SOL    HW1 5215   2.802   0.069   3.169
 1730SOL    HW2 5216   2.849   0.145   3.306
 1731SOL     OW 5217   2.842   1.116   3.581
 1731SOL    HW1 5218   2.743   1.122   3.591
 1731SOL    HW2 5219   2.865   1.036   3.525
 1732SOL     OW 5220   2.567   1.050   2.230
 1732SOL    HW1 5221   2.553   1.057   2.329
 1732SOL    HW2 5222   2.651   0.999   2.212
 1733SOL     OW 5223   2.272   0.813   3.113
 1733SOL    HW1 5224   2.358   0.825   3.163
 1733SOL    HW2 5225   2.230   0.726   3.140
 1734SOL     OW 5226   3.136   0.386   3.124
 1734SOL    HW1 5227   3.157   0.460   3.188
 1734SOL    HW2 5228   3.047   0.403   3.081
 1735SOL     OW 5229   1.926   1.564   3.193
 1735SOL    HW1 5230   1.880   1.646   3.159
 1735SOL    HW2 5231   2.024   1.583   3.202
 1736SOL     OW 5232   2.229   1.100   2.363
 1736SOL    HW1 5233   2.222   1.183   2.307
 1736SOL    HW2 5234   2.233   1.020   2.303
 1737SOL     OW 5235   2.428   0.537   2.727
 1737SOL    HW1 5236   2.440   0.603   2.653
 1737SOL    HW2 5237   2.474   0.571   2.810
 1738SOL     OW 5238   3.114   1.348   2.250
 1738SOL    HW1 5239   3.164   1.425   2.290
 1738SOL    HW2 5240   3.019   1.350   2.282
 1739SOL     OW 5241   3.134   1.445   3.004
 1739SOL    HW1 5242   3.181   1.458   3.091
 1739SOL    HW2 5243   3.068   1.371   3.013
 1740SOL     OW 5244   3.444   0.639   2.334
 1740SOL    HW1 5245   3.413   0.700   2.407
 1740SOL    HW2 5246   3.494   0.691   2.265
 1741SOL     OW 5247   2.216   1.510   3.191
 1741SOL    HW1 5248   2.195   1.466   3.104
 1741SOL    HW2 5249   2.313   1.536   3.194
 1742SOL     OW 5250   2.264   0.751   3.460
 1742SOL    HW1 5251   2.332   0.806   3.413
 1742SOL    HW2 5252   2.304   0.663   3.487
 1743SOL     OW 5253   3.449   0.779   3.532
 1743SOL    HW1 5254   3.357   0.817   3.527
 1743SOL    HW2 5255   3.509   0.826   3.467
 1744SOL     OW 5256   2.875   0.105   3.632
 1744SOL    HW1 5257   2.881   0.190   3.580
 1744SOL    HW2 5258   2.907   0.029   3.575
 1745SOL     OW 5259   2.366   0.050   3.602
 1745SOL    HW1 5260   2.324  -0.007   3.532
 1745SOL    HW2 5261   2.300   0.119   3.634
 1746SOL     OW 5262   2.435   0.870   2.891
 1746SOL    HW1 5263   2.479   0.959   2.882
 1746SOL    HW2 5264   2.372   0.870   2.968
 1747SOL     OW 5265   3.222   0.862   2.907
 1747SOL    HW1 5266   3.147   0.862   2.841
 1747SOL    HW2 5267   3.259   0.770   2.916
 1748SOL     OW 5268   3.071   0.525   2.137
 1748SOL    HW1 5269   3.084   0.441   2.191
 1748SOL    HW2 5270   3.042   0.599   2.197
 1749SOL     OW 5271   2.169   0.213   3.093
 1749SOL    HW1 5272   2.146   0.250   3.183
 1749SOL    HW2 5273   2.139   0.118   3.087
 1750SOL     OW 5274   1.899   1.310   3.144
 1750SOL    HW1 5275   1.952   1.261   3.212
 1750SOL    HW2 5276   1.921   1.408   3.149
 1751SOL     OW 5277   2.594   0.634   2.926
 1751SOL    HW1 5278   2.653   0.608   2.850
 1751SOL    HW2 5279   2.566   0.730   2.915
 1752SOL     OW 5280   3.590   0.935   3.716
 1752SOL    HW1 5281   3.544   0.928   3.627
 1752SOL    HW2 5282   3.528   0.979   3.782
 1753SOL     OW 5283   2.169   0.063   2.480
 1753SOL    HW1 5284   2.158   0.157   2.513
 1753SOL    HW2 5285   2.164   0.000   2.557
 1754SOL     OW 5286   3.484   0.367   2.236
 1754SOL    HW1 5287   3.486   0.291   2.300
 1754SOL    HW2 5288   3.436   0.444   2.276
 1755SOL     OW 5289   2.885   0.766   2.828
 1755SOL    HW1 5290   2.900   0.787   2.924
 1755SOL    HW2 5291   2.855   0.671   2.819
 1756SOL     OW 5292   2.842   1.573   3.562
 1756SOL    HW1 5293   2.822   1.617   3.474
 1756SOL    HW2 5294   2.881   1.482   3.546
 1757SOL     OW 5295   3.721   1.518   3.467
 1757SOL    HW1 5296   3.735   1.545   3.372
 1757SOL    HW2 5297   3.804   1.540   3.520
 1758SOL     OW 5298   2.212   0.898   3.666
 1758SOL    HW1 5299   2.288   0.942   3.714
 1758SOL    HW2 5300   2.247   0.851   3.584
 1759SOL     OW 5301   3.402   0.274   1.987
 1759SOL    HW1 5302   3.341   0.199   2.010
 1759SOL    HW2 5303   3.424   0.326   2.070
 1760SOL     OW 5304   3.165   0.838   1.904
 1760SOL    HW1 5305   3.199   0.745   1.919
 1760SOL    HW2 5306   3.183   0.865   1.809
 1761SOL     OW 5307   2.930   1.333   2.711
 1761SOL    HW1 5308   2.937   1.249   2.656
 1761SOL    HW2 5309   2.992   1.402   2.675
 1762SOL     OW 5310   2.181   0.810   2.811
 1762SOL    HW1 5311   2.274   0.846   2.816
 1762SOL    HW2 5312   2.175   0.725   2.863
 1763SOL     OW 5313   2.201   0.509   2.868
 1763SOL    HW1 5314   2.149   0.426   2.851
 1763SOL    HW2 5315   2.278   0.514   2.804
 1764SOL     OW 5316   3.000   0.380   3.540
 1764SOL    HW1 5317   2.955   0.443   3.604
 1764SOL    HW2 5318   3.093   0.411   3.523
 1765SOL     OW 5319   3.022   0.207   3.339
 1765SOL    HW1 5320   3.022   0.271   3.416
 1765SOL    HW2 5321   3.050   0.255   3.256
 1766SOL     OW 5322   1.870   1.326   2.062
 1766SOL    HW1 5323   1.777   1.347   2.031
 1766SOL    HW2 5324   1.880   1.227   2.075
 1767SOL     OW 5325   1.950   1.801   2.789
 1767SOL    HW1 5326   1.908   1.715   2.762
 1767SOL    HW2 5327   2.044   1.804   2.755
 1768SOL     OW 5328   2.366   1.568   2.772
 1768SOL    HW1 5329   2.432   1.642   2.781
 1768SOL    HW2 5330   2.410   1.489   2.730
 1769SOL     OW 5331   2.864   0.796   3.100
 1769SOL    HW1 5332   2.905   0.764   3.186
 1769SOL    HW2 5333   2.768   0.769   3.097
 1770SOL     OW 5334   1.902   0.544   2.976
 1770SOL    HW1 5335   1.987   0.511   2.935
 1770SOL    HW2 5336   1.915   0.559   3.074
 1771SOL     OW 5337   2.051   0.520   3.584
 1771SOL    HW1 5338   2.110   0.480   3.514
 1771SOL    HW2 5339   1.993   0.591   3.543
 1772SOL     OW 5340   3.231   0.950   3.522
 1772SOL    HW1 5341   3.270   1.039   3.542
 1772SOL    HW2 5342   3.241   0.930   3.425
 1773SOL     OW 5343   2.677   0.572   2.187
 1773SOL    HW1 5344   2.684   0.483   2.141
 1773SOL    HW2 5345   2.583   0.606   2.179
 1774SOL     OW 5346   3.519   0.604   3.068
 1774SOL    HW1 5347   3.481   0.535   3.130
 1774SOL    HW2 5348   3.601   0.568   3.024
 1775SOL     OW 5349   2.114   1.564   3.606
 1775SOL    HW1 5350   2.084   1.621   3.682
 1775SOL    HW2 5351   2.107   1.467   3.632
 1776SOL     OW 5352   2.533   0.464   3.131
 1776SOL    HW1 5353   2.499   0.375   3.101
 1776SOL    HW2 5354   2.559   0.518   3.051
 1777SOL     OW 5355   2.792   1.678   3.327
 1777SOL    HW1 5356   2.768   1.660   3.232
 1777SOL    HW2 5357   2.822   1.772   3.337
 1778SOL     OW 5358   2.335   0.500   2.053
 1778SOL    HW1 5359   2.396   0.580   2.057
 1778SOL    HW2 5360   2.240   0.531   2.060
 1779SOL     OW 5361   2.021   1.137   3.328
 1779SOL    HW1 5362   2.043   1.076   3.404
 1779SOL    HW2 5363   2.031   1.088   3.242
 1780SOL     OW 5364   3.209   1.059   3.096
 1780SOL    HW1 5365   3.233   0.996   3.022
 1780SOL    HW2 5366   3.119   1.099   3.078
 1781SOL     OW 5367   3.164   0.855   2.171
 1781SOL    HW1 5368   3.078   0.824   2.213
 1781SOL    HW2 5369   3.160   0.841   2.072
 1782SOL     OW 5370   3.621   1.747   3.016
 1782SOL    HW1 5371   3.682   1.777   2.943
 1782SOL    HW2 5372   3.583   1.658   2.994
 1783SOL     OW 5373   3.114   1.731   2.990
 1783SOL    HW1 5374   3.198   1.736   2.936
 1783SOL    HW2 5375   3.091   1.635   3.008
 1784SOL     OW 5376   1.945   1.258   2.884
 1784SOL    HW1 5377   1.940   1.257   2.984
 1784SOL    HW2 5378   1.862   1.217   2.846
 1785SOL     OW 5379   2.550   1.662   3.578
 1785SOL    HW1 5380   2.494   1.743   3.587
 1785SOL    HW2 5381   2.602   1.666   3.492
 1786SOL     OW 5382   3.588   0.135   2.385
 1786SOL    HW1 5383   3.661   0.118   2.318
 1786SOL    HW2 5384   3.557   0.048   2.423
 1787SOL     OW 5385   3.250   1.573   2.339
 1787SOL    HW1 5386   3.317   1.585   2.265
 1787SOL    HW2 5387   3.210   1.662   2.362
 1788SOL     OW 5388   1.992   1.794   3.713
 1788SOL    HW1 5389   1.951   1.720   3.766
 1788SOL    HW2 5390   2.056   1.845   3.771
 1789SOL     OW 5391   3.142   0.927   2.534
 1789SOL    HW1 5392   3.202   0.846   2.536
 1789SOL    HW2 5393   3.182   0.996   2.474
 1790SOL     OW 5394   2.692   1.273   3.284
 1790SOL    HW1 5395   2.687   1.306   3.379
 1790SOL    HW2 5396   2.606   1.292   3.238
 1791SOL     OW 5397   2.534   1.616   2.016
 1791SOL    HW1 5398   2.543   1.626   1.917
 1791SOL    HW2 5399   2.494   1.527   2.037
 1792SOL     OW 5400   3.512   1.720   3.256
 1792SOL    HW1 5401   3.565   1.730   3.172
 1792SOL    HW2 5402   3.485   1.810   3.290
 1793SOL     OW 5403   3.703   0.175   2.825
 1793SOL    HW1 5404   3.742   0.090   2.789
 1793SOL    HW2 5405   3.605   0.177   2.806
 1794SOL     OW 5406   2.125   0.326   2.582
 1794SOL    HW1 5407   2.046   0.377   2.548
 1794SOL    HW2 5408   2.116   0.311   2.680
 1795SOL     OW 5409   3.056   1.612   1.893
 1795SOL    HW1 5410   3.062   1.519   1.930
 1795SOL    HW2 5411   2.997   1.612   1.813
 1796SOL     OW 5412   2.684   1.002   3.234
 1796SOL    HW1 5413   2.724   1.001   3.142
 1796SOL    HW2 5414   2.694   1.094   3.274
 1797SOL     OW 5415   2.778   0.910   2.153
 1797SOL    HW1 5416   2.841   0.948   2.085
 1797SOL    HW2 5417   2.818   0.827   2.192
 1798SOL     OW 5418   3.366   1.607   1.906
 1798SOL    HW1 5419   3.274   1.644   1.913
 1798SOL    HW2 5420   3.404   1.627   1.816
 1799SOL     OW 5421   2.234   1.288   3.352
 1799SOL    HW1 5422   2.221   1.381   3.318
 1799SOL    HW2 5423   2.150   1.236   3.339
 1800SOL     OW 5424   3.476   1.292   3.151
 1800SOL    HW1 5425   3.536   1.295   3.231
 1800SOL    HW2 5426   3.401   1.356   3.164
 1801SOL     OW 5427   2.901   1.098   2.558
 1801SOL    HW1 5428   2.831   1.051   2.612
 1801SOL    HW2 5429   2.960   1.030   2.515
 1802SOL     OW 5430   2.876   0.236   2.833
 1802SOL    HW1 5431   2.868   0.200   2.740
 1802SOL    HW2 5432   2.874   0.160   2.898
 1803SOL     OW 5433   2.452   1.487   2.353
 1803SOL    HW1 5434   2.494   1.429   2.283
 1803SOL    HW2 5435   2.408   1.566   2.309
 1804SOL     OW 5436   3.571   0.385   3.243
 1804SOL    HW1 5437   3.644   0.454   3.247
 1804SOL    HW2 5438   3.599   0.310   3.184
 1805SOL     OW 5439   2.117   1.348   2.152
 1805SOL    HW1 5440   2.021   1.349   2.125
 1805SOL    HW2 5441   2.129   1.401   2.236
 1806SOL     OW 5442   1.967   1.013   3.588
 1806SOL    HW1 5443   1.890   0.980   3.642
 1806SOL    HW2 5444   2.052   0.983   3.630
 1807SOL     OW 5445   2.534   0.203   3.351
 1807SOL    HW1 5446   2.624   0.187   3.311
 1807SOL    HW2 5447   2.542   0.208   3.450
 1808SOL     OW 5448   1.937   0.345   1.895
 1808SOL    HW1 5449   1.845   0.317   1.866
 1808SOL    HW2 5450   1.968   0.422   1.839
 1809SOL     OW 5451   3.302   0.856   3.260
 1809SOL    HW1 5452   3.245   0.908   3.197
 1809SOL    HW2 5453   3.398   0.868   3.236
 1810SOL     OW 5454   1.934   0.166   2.180
 1810SOL    HW1 5455   1.917   0.249   2.126
 1810SOL    HW2 5456   2.024   0.129   2.158
 1811SOL     OW 5457   3.045   1.335   1.981
 1811SOL    HW1 5458   2.946   1.324   1.983
 1811SOL    HW2 5459   3.079   1.350   2.074
 1812SOL     OW 5460   2.475   0.842   3.293
 1812SOL    HW1 5461   2.531   0.923   3.276
 1812SOL    HW2 5462   2.534   0.762   3.296
 1813SOL     OW 5463   3.355   1.767   2.821
 1813SOL    HW1 5464   3.388   1.831   2.752
 1813SOL    HW2 5465   3.421   1.761   2.896
 1814SOL     OW 5466   2.578   0.565   3.570
 1814SOL    HW1 5467   2.597   0.630   3.644
 1814SOL    HW2 5468   2.638   0.485   3.579
 1815SOL     OW 5469   3.312   1.220   3.495
 1815SOL    HW1 5470   3.303   1.210   3.594
 1815SOL    HW2 5471   3.408   1.213   3.469
 1816SOL     OW 5472   2.252   1.741   3.422
 1816SOL    HW1 5473   2.161   1.782   3.420
 1816SOL    HW2 5474   2.245   1.647   3.454
 1817SOL     OW 5475   3.536   0.883   3.116
 1817SOL    HW1 5476   3.509   0.794   3.079
 1817SOL    HW2 5477   3.537   0.951   3.043
 1818SOL     OW 5478   3.087   0.325   2.311
 1818SOL    HW1 5479   3.152   0.251   2.300
 1818SOL    HW2 5480   3.107   0.375   2.395
 1819SOL     OW 5481   2.456   0.745   2.514
 1819SOL    HW1 5482   2.506   0.830   2.495
 1819SOL    HW2 5483   2.368   0.747   2.466
 1820SOL     OW 5484   3.639   0.342   3.504
 1820SOL    HW1 5485   3.622   0.373   3.410
 1820SOL    HW2 5486   3.555   0.305   3.542
 1821SOL     OW 5487   3.592   0.934   3.379
 1821SOL    HW1 5488   3.630   1.025   3.394
 1821SOL    HW2 5489   3.584   0.917   3.280
 1822SOL     OW 5490   2.721   1.374   1.878
 1822SOL    HW1 5491   2.675   1.389   1.966
 1822SOL    HW2 5492   2.765   1.459   1.848
 1823SOL     OW 5493   2.523   1.790   2.815
 1823SOL    HW1 5494   2.477   1.878   2.802
 1823SOL    HW2 5495   2.622   1.802   2.808
 1824SOL     OW 5496   2.721   0.956   2.723
 1824SOL    HW1 5497   2.775   0.887   2.771
 1824SOL    HW2 5498   2.689   1.025   2.789
 1825SOL     OW 5499   2.945   0.984   1.949
 1825SOL    HW1 5500   2.922   1.037   1.867
 1825SOL    HW2 5501   3.026   0.928   1.930
 1826SOL     OW 5502   3.723   1.569   2.713
 1826SOL    HW1 5503   3.652   1.557   2.643
 1826SOL    HW2 5504   3.724   1.490   2.773
 1827SOL     OW 5505   2.083   1.314   3.706
 1827SOL    HW1 5506   2.018   1.241   3.685
 1827SOL    HW2 5507   2.087   1.328   3.804
 1828SOL     OW 5508   1.941   1.240   2.515
 1828SOL    HW1 5509   1.940   1.193   2.603
 1828SOL    HW2 5510   2.023   1.212   2.464
 1829SOL     OW 5511   2.534   1.391   3.486
 1829SOL    HW1 5512   2.456   1.341   3.524
 1829SOL    HW2 5513   2.531   1.486   3.517
 1830SOL     OW 5514   3.686   0.192   3.089
 1830SOL    HW1 5515   3.682   0.102   3.133
 1830SOL    HW2 5516   3.689   0.181   2.990
 1831SOL     OW 5517   2.290   0.424   2.382
 1831SOL    HW1 5518   2.320   0.352   2.320
 1831SOL    HW2 5519   2.251   0.384   2.465
 1832SOL     OW 5520   3.567   1.487   2.966
 1832SOL    HW1 5521   3.474   1.462   2.939
 1832SOL    HW2 5522   3.593   1.437   3.048
 1833SOL     OW 5523   2.179   0.547   3.142
 1833SOL    HW1 5524   2.217   0.488   3.214
 1833SOL    HW2 5525   2.219   0.521   3.054
 1834SOL     OW 5526   2.674   1.586   2.549
 1834SOL    HW1 5527   2.706   1.596   2.455
 1834SOL    HW2 5528   2.595   1.524   2.551
 1835SOL     OW 5529   3.286   0.214   2.974
 1835SOL    HW1 5530   3.338   0.149   3.029
 1835SOL    HW2 5531   3.237   0.277   3.035
 1836SOL     OW 5532   2.863   0.034   3.016
 1836SOL    HW1 5533   2.800  -0.038   2.985
 1836SOL    HW2 5534   2.956  -0.002   3.016
 1837SOL     OW 5535   2.632   1.330   2.163
 1837SOL    HW1 5536   2.586   1.243   2.180
 1837SOL    HW2 5537   2.723   1.327   2.204
 1838SOL     OW 5538   2.480   1.567   3.146
 1838SOL    HW1 5539   2.475   1.649   3.203
 1838SOL    HW2 5540   2.569   1.564   3.101
 1839SOL     OW 5541   3.214   0.052   2.030
 1839SOL    HW1 5542   3.249   0.011   1.946
 1839SOL    HW2 5543   3.124   0.014   2.050
 1840SOL     OW 5544   3.162   0.453   2.553
 1840SOL    HW1 5545   3.103   0.533   2.557
 1840SOL    HW2 5546   3.177   0.418   2.646
 1841SOL     OW 5547   3.455   0.221   2.744
 1841SOL    HW1 5548   3.371   0.220   2.798
 1841SOL    HW2 5549   3.457   0.304   2.688
 1842SOL     OW 5550   1.901   1.077   2.162
 1842SOL    HW1 5551   2.000   1.066   2.153
 1842SOL    HW2 5552   1.861   0.991   2.194
 1843SOL     OW 5553   2.737   1.646   2.199
 1843SOL    HW1 5554   2.660   1.611   2.145
 1843SOL    HW2 5555   2.705   1.717   2.261
 1844SOL     OW 5556   2.092   0.628   3.837
 1844SOL    HW1 5557   1.999   0.626   3.874
 1844SOL    HW2 5558   2.093   0.589   3.745
 1845SOL     OW 5559   2.087   0.275   4.720
 1845SOL    HW1 5560   2.122   0.258   4.812
 1845SOL    HW2 5561   1.999   0.230   4.708
 1846SOL     OW 5562   1.881   0.368   4.371
 1846SOL    HW1 5563   1.799   0.411   4.410
 1846SOL    HW2 5564   1.853   0.295   4.308
 1847SOL     OW 5565   3.417   1.511   4.427
 1847SOL    HW1 5566   3.360   1.495   4.508
 1847SOL    HW2 5567   3.358   1.521   4.347
 1848SOL     OW 5568   2.997   0.703   4.441
 1848SOL    HW1 5569   3.054   0.781   4.416
 1848SOL    HW2 5570   2.937   0.729   4.517
 1849SOL     OW 5571   3.617   0.607   3.955
 1849SOL    HW1 5572   3.605   0.594   3.856
 1849SOL    HW2 5573   3.587   0.526   4.004
 1850SOL     OW 5574   2.630   1.144   4.747
 1850SOL    HW1 5575   2.552   1.161   4.807
 1850SOL    HW2 5576   2.664   1.231   4.711
 1851SOL     OW 5577   2.547   1.012   4.389
 1851SOL    HW1 5578   2.616   0.996   4.459
 1851SOL    HW2 5579   2.474   1.069   4.427
 1852SOL     OW 5580   2.197   1.435   4.785
 1852SOL    HW1 5581   2.119   1.404   4.732
 1852SOL    HW2 5582   2.255   1.493   4.728
 1853SOL     OW 5583   3.465   0.447   4.461
 1853SOL    HW1 5584   3.391   0.493   4.411
 1853SOL    HW2 5585   3.516   0.515   4.514
 1854SOL     OW 5586   2.093   1.713   4.207
 1854SOL    HW1 5587   2.127   1.790   4.261
 1854SOL    HW2 5588   2.137   1.713   4.117
 1855SOL     OW 5589   2.092   1.434   4.262
 1855SOL    HW1 5590   2.066   1.530   4.262
 1855SOL    HW2 5591   2.021   1.380   4.307
 1856SOL     OW 5592   2.102   1.091   4.610
 1856SOL    HW1 5593   2.116   1.007   4.662
 1856SOL    HW2 5594   2.047   1.155   4.665
 1857SOL     OW 5595   2.468   0.964   3.847
 1857SOL    HW1 5596   2.475   1.048   3.793
 1857SOL    HW2 5597   2.514   0.977   3.935
 1858SOL     OW 5598   1.984   0.643   4.287
 1858SOL    HW1 5599   1.939   0.555   4.304
 1858SOL    HW2 5600   1.983   0.697   4.371
 1859SOL     OW 5601   3.704   1.767   4.083
 1859SOL    HW1 5602   3.758   1.738   4.163
 1859SOL    HW2 5603   3.734   1.857   4.054
 1860SOL     OW 5604   1.889   1.596   3.841
 1860SOL    HW1 5605   1.870   1.500   3.862
 1860SOL    HW2 5606   1.856   1.654   3.916
 1861SOL     OW 5607   3.551   0.922   4.336
 1861SOL    HW1 5608   3.646   0.893   4.344
 1861SOL    HW2 5609   3.543   0.987   4.261
 1862SOL     OW 5610   3.503   1.108   4.156
 1862SOL    HW1 5611   3.589   1.110   4.104
 1862SOL    HW2 5612   3.517   1.155   4.244
 1863SOL     OW 5613   2.475   1.365   4.450
 1863SOL    HW1 5614   2.426   1.278   4.459
 1863SOL    HW2 5615   2.452   1.408   4.363
 1864SOL     OW 5616   2.671   0.004   4.226
 1864SOL    HW1 5617   2.711   0.095   4.217
 1864SOL    HW2 5618   2.571   0.012   4.232
 1865SOL     OW 5619   3.387   0.999   3.914
 1865SOL    HW1 5620   3.324   0.923   3.927
 1865SOL    HW2 5621   3.435   1.017   4.000
 1866SOL     OW 5622   3.328   1.417   4.677
 1866SOL    HW1 5623   3.269   1.423   4.757
 1866SOL    HW2 5624   3.313   1.329   4.631
 1867SOL     OW 5625   3.529   1.714   4.296
 1867SOL    HW1 5626   3.488   1.691   4.208
 1867SOL    HW2 5627   3.511   1.640   4.361
 1868SOL     OW 5628   2.460   0.729   3.994
 1868SOL    HW1 5629   2.484   0.798   3.926
 1868SOL    HW2 5630   2.382   0.762   4.048
 1869SOL     OW 5631   3.143   0.345   4.668
 1869SOL    HW1 5632   3.057   0.295   4.655
 1869SOL    HW2 5633   3.205   0.291   4.724
 1870SOL     OW 5634   3.438   1.662   4.031
 1870SOL    HW1 5635   3.527   1.708   4.034
 1870SOL    HW2 5636   3.417   1.638   3.936
 1871SOL     OW 5637   2.903   0.701   4.153
 1871SOL    HW1 5638   2.929   0.697   4.249
 1871SOL    HW2 5639   2.818   0.650   4.139
 1872SOL     OW 5640   1.938   0.811   4.513
 1872SOL    HW1 5641   2.037   0.799   4.522
 1872SOL    HW2 5642   1.914   0.906   4.534
 1873SOL     OW 5643   2.727   0.348   3.919
 1873SOL    HW1 5644   2.786   0.411   3.870
 1873SOL    HW2 5645   2.746   0.254   3.890
 1874SOL     OW 5646   3.224   1.144   4.269
 1874SOL    HW1 5647   3.307   1.115   4.221
 1874SOL    HW2 5648   3.175   1.211   4.213
 1875SOL     OW 5649   2.412   0.196   4.609
 1875SOL    HW1 5650   2.407   0.191   4.709
 1875SOL    HW2 5651   2.414   0.292   4.580
 1876SOL     OW 5652   2.870   1.456   4.201
 1876SOL    HW1 5653   2.824   1.528   4.149
 1876SOL    HW2 5654   2.866   1.476   4.299
 1877SOL     OW 5655   2.213   1.801   4.577
 1877SOL    HW1 5656   2.263   1.715   4.583
 1877SOL    HW2 5657   2.278   1.878   4.574
 1878SOL     OW 5658   3.657   1.066   4.597
 1878SOL    HW1 5659   3.595   1.051   4.521
 1878SOL    HW2 5660   3.605   1.077   4.682
 1879SOL     OW 5661   2.183   0.943   3.966
 1879SOL    HW1 5662   2.265   0.982   3.924
 1879SOL    HW2 5663   2.156   0.861   3.917
 1880SOL     OW 5664   3.320   0.735   4.452
 1880SOL    HW1 5665   3.315   0.670   4.527
 1880SOL    HW2 5666   3.400   0.794   4.465
 1881SOL     OW 5667   2.973   1.776   3.961
 1881SOL    HW1 5668   2.913   1.714   4.011
 1881SOL    HW2 5669   3.004   1.732   3.876
 1882SOL     OW 5670   3.494   1.377   3.805
 1882SOL    HW1 5671   3.462   1.471   3.795
 1882SOL    HW2 5672   3.418   1.314   3.793
 1883SOL     OW 5673   2.326   1.743   4.047
 1883SOL    HW1 5674   2.359   1.782   4.133
 1883SOL    HW2 5675   2.402   1.736   3.982
 1884SOL     OW 5676   3.262   0.107   4.150
 1884SOL    HW1 5677   3.238   0.070   4.060
 1884SOL    HW2 5678   3.361   0.123   4.154
 1885SOL     OW 5679   2.111   1.785   4.965
 1885SOL    HW1 5680   2.168   1.720   5.015
 1885SOL    HW2 5681   2.095   1.752   4.872
 1886SOL     OW 5682   2.802   1.698   4.628
 1886SOL    HW1 5683   2.882   1.641   4.649
 1886SOL    HW2 5684   2.753   1.658   4.551
 1887SOL     OW 5685   2.244   0.700   4.204
 1887SOL    HW1 5686   2.289   0.610   4.201
 1887SOL    HW2 5687   2.150   0.689   4.237
 1888SOL     OW 5688   2.476   0.122   3.841
 1888SOL    HW1 5689   2.574   0.100   3.848
 1888SOL    HW2 5690   2.445   0.105   3.748
 1889SOL     OW 5691   2.665   1.402   4.648
 1889SOL    HW1 5692   2.755   1.416   4.606
 1889SOL    HW2 5693   2.594   1.404   4.577
 1890SOL     OW 5694   2.784   0.503   4.623
 1890SOL    HW1 5695   2.759   0.494   4.527
 1890SOL    HW2 5696   2.832   0.421   4.654
 1891SOL     OW 5697   2.401   0.064   4.236
 1891SOL    HW1 5698   2.320   0.065   4.294
 1891SOL    HW2 5699   2.404   0.147   4.181
 1892SOL     OW 5700   3.296   1.188   3.765
 1892SOL    HW1 5701   3.328   1.112   3.822
 1892SOL    HW2 5702   3.204   1.215   3.795
 1893SOL     OW 5703   2.159   0.035   3.895
 1893SOL    HW1 5704   2.208   0.119   3.874
 1893SOL    HW2 5705   2.221  -0.030   3.940
 1894SOL     OW 5706   2.797   0.236   4.204
 1894SOL    HW1 5707   2.749   0.277   4.126
 1894SOL    HW2 5708   2.896   0.234   4.185
 1895SOL     OW 5709   3.089   1.570   4.517
 1895SOL    HW1 5710   3.110   1.644   4.452
 1895SOL    HW2 5711   3.157   1.570   4.590
 1896SOL     OW 5712   2.321   1.152   4.465
 1896SOL    HW1 5713   2.250   1.125   4.530
 1896SOL    HW2 5714   2.295   1.124   4.372
 1897SOL     OW 5715   3.133   1.797   4.315
 1897SOL    HW1 5716   3.177   1.861   4.251
 1897SOL    HW2 5717   3.083   1.849   4.385
 1898SOL     OW 5718   2.894   0.549   3.740
 1898SOL    HW1 5719   2.853   0.631   3.701
 1898SOL    HW2 5720   2.958   0.575   3.813
 1899SOL     OW 5721   2.728   0.454   4.366
 1899SOL    HW1 5722   2.696   0.526   4.304
 1899SOL    HW2 5723   2.752   0.373   4.313
 1900SOL     OW 5724   2.879   0.039   4.477
 1900SOL    HW1 5725   2.807   0.044   4.408
 1900SOL    HW2 5726   2.855  -0.030   4.546
 1901SOL     OW 5727   3.291   1.173   4.591
 1901SOL    HW1 5728   3.236   1.089   4.584
 1901SOL    HW2 5729   3.317   1.202   4.499
 1902SOL     OW 5730   3.328   0.590   4.716
 1902SOL    HW1 5731   3.298   0.495   4.723
 1902SOL    HW2 5732   3.401   0.606   4.782
 1903SOL     OW 5733   3.719   0.833   4.101
 1903SOL    HW1 5734   3.761   0.769   4.165
 1903SOL    HW2 5735   3.681   0.782   4.023
 1904SOL     OW 5736   2.350   1.385   3.898
 1904SOL    HW1 5737   2.263   1.370   3.945
 1904SOL    HW2 5738   2.333   1.411   3.803
 1905SOL     OW 5739   3.526   1.280   4.381
 1905SOL    HW1 5740   3.625   1.288   4.395
 1905SOL    HW2 5741   3.481   1.364   4.412
 1906SOL     OW 5742   3.252   0.575   3.802
 1906SOL    HW1 5743   3.198   0.554   3.883
 1906SOL    HW2 5744   3.343   0.534   3.811
 1907SOL     OW 5745   2.389   0.256   4.052
 1907SOL    HW1 5746   2.416   0.197   3.977
 1907SOL    HW2 5747   2.389   0.351   4.021
 1908SOL     OW 5748   3.500   1.099   4.803
 1908SOL    HW1 5749   3.505   1.180   4.862
 1908SOL    HW2 5750   3.414   1.101   4.752
 1909SOL     OW 5751   2.567   1.050   4.092
 1909SOL    HW1 5752   2.553   1.057   4.191
 1909SOL    HW2 5753   2.651   0.999   4.074
 1910SOL     OW 5754   2.229   1.100   4.225
 1910SOL    HW1 5755   2.222   1.183   4.169
 1910SOL    HW2 5756   2.233   1.020   4.165
 1911SOL     OW 5757   2.428   0.537   4.589
 1911SOL    HW1 5758   2.440   0.603   4.515
 1911SOL    HW2 5759   2.474   0.571   4.672
 1912SOL     OW 5760   3.114   1.348   4.112
 1912SOL    HW1 5761   3.164   1.425   4.152
 1912SOL    HW2 5762   3.019   1.350   4.144
 1913SOL     OW 5763   3.444   0.639   4.196
 1913SOL    HW1 5764   3.413   0.700   4.269
 1913SOL    HW2 5765   3.494   0.691   4.127
 1914SOL     OW 5766   2.435   0.870   4.753
 1914SOL    HW1 5767   2.479   0.959   4.744
 1914SOL    HW2 5768   2.372   0.870   4.830
 1915SOL     OW 5769   3.071   0.525   3.999
 1915SOL    HW1 5770   3.084   0.441   4.053
 1915SOL    HW2 5771   3.042   0.599   4.059
 1916SOL     OW 5772   2.594   0.634   4.788
 1916SOL    HW1 5773   2.653   0.608   4.712
 1916SOL    HW2 5774   2.566   0.730   4.777
 1917SOL     OW 5775   2.169   0.063   4.342
 1917SOL    HW1 5776   2.158   0.157   4.375
 1917SOL    HW2 5777   2.164   0.000   4.419
 1918SOL     OW 5778   3.484   0.367   4.098
 1918SOL    HW1 5779   3.486   0.291   4.162
 1918SOL    HW2 5780   3.436   0.444   4.138
 1919SOL     OW 5781   3.402   0.274   3.849
 1919SOL    HW1 5782   3.341   0.199   3.872
 1919SOL    HW2 5783   3.424   0.326   3.932
 1920SOL     OW 5784   3.165   0.838   3.766
 1920SOL    HW1 5785   3.199   0.745   3.781
 1920SOL    HW2 5786   3.183   0.865   3.671
 1921SOL     OW 5787   2.930   1.333   4.573
 1921SOL    HW1 5788   2.937   1.249   4.518
 1921SOL    HW2 5789   2.992   1.402   4.537
 1922SOL     OW 5790   2.181   0.810   4.673
 1922SOL    HW1 5791   2.274   0.846   4.678
 1922SOL    HW2 5792   2.175   0.725   4.725
 1923SOL     OW 5793   2.201   0.509   4.730
 1923SOL    HW1 5794   2.149   0.426   4.713
 1923SOL    HW2 5795   2.278   0.514   4.666
 1924SOL     OW 5796   1.870   1.326   3.924
 1924SOL    HW1 5797   1.777   1.347   3.893
 1924SOL    HW2 5798   1.880   1.227   3.937
 1925SOL     OW 5799   1.950   1.801   4.651
 1925SOL    HW1 5800   1.908   1.715   4.624
 1925SOL    HW2 5801   2.044   1.804   4.617
 1926SOL     OW 5802   2.366   1.568   4.634
 1926SOL    HW1 5803   2.432   1.642   4.643
 1926SOL    HW2 5804   2.410   1.489   4.592
 1927SOL     OW 5805   2.864   0.796   4.962
 1927SOL    HW1 5806   2.905   0.764   5.048
 1927SOL    HW2 5807   2.768   0.769   4.959
 1928SOL     OW 5808   2.677   0.572   4.049
 1928SOL    HW1 5809   2.684   0.483   4.003
 1928SOL    HW2 5810   2.583   0.606   4.041
 1929SOL     OW 5811   2.533   0.464   4.993
 1929SOL    HW1 5812   2.499   0.375   4.963
 1929SOL    HW2 5813   2.559   0.518   4.913
 1930SOL     OW 5814   2.335   0.500   3.915
 1930SOL    HW1 5815   2.396   0.580   3.919
 1930SOL    HW2 5816   2.240   0.531   3.922
 1931SOL     OW 5817   3.164   0.855   4.033
 1931SOL    HW1 5818   3.078   0.824   4.075
 1931SOL    HW2 5819   3.160   0.841   3.934
 1932SOL     OW 5820   3.621   1.747   4.878
 1932SOL    HW1 5821   3.682   1.777   4.805
 1932SOL    HW2 5822   3.583   1.658   4.856
 1933SOL     OW 5823   1.945   1.258   4.746
 1933SOL    HW1 5824   1.940   1.257   4.846
 1933SOL    HW2 5825   1.862   1.217   4.708
 1934SOL     OW 5826   3.588   0.135   4.247
 1934SOL    HW1 5827   3.661   0.118   4.180
 1934SOL    HW2 5828   3.557   0.048   4.285
 1935SOL     OW 5829   3.250   1.573   4.201
 1935SOL    HW1 5830   3.317   1.585   4.127
 1935SOL    HW2 5831   3.210   1.662   4.224
 1936SOL     OW 5832   3.142   0.927   4.396
 1936SOL    HW1 5833   3.202   0.846   4.398
 1936SOL    HW2 5834   3.182   0.996   4.336
 1937SOL     OW 5835   2.534   1.616   3.878
 1937SOL    HW1 5836   2.543   1.626   3.779
 1937SOL    HW2 5837   2.494   1.527   3.899
 1938SOL     OW 5838   3.703   0.175   4.687
 1938SOL    HW1 5839   3.742   0.090   4.651
 1938SOL    HW2 5840   3.605   0.177   4.668
 1939SOL     OW 5841   2.125   0.326   4.444
 1939SOL    HW1 5842   2.046   0.377   4.410
 1939SOL    HW2 5843   2.116   0.311   4.542
 1940SOL     OW 5844   3.056   1.612   3.755
 1940SOL    HW1 5845   3.062   1.519   3.792
 1940SOL    HW2 5846   2.997   1.612   3.675
 1941SOL     OW 5847   2.778   0.910   4.015
 1941SOL    HW1 5848   2.841   0.948   3.947
 1941SOL    HW2 5849   2.818   0.827   4.054
 1942SOL     OW 5850   3.366   1.607   3.768
 1942SOL    HW1 5851   3.274   1.644   3.775
 1942SOL    HW2 5852   3.404   1.627   3.678
 1943SOL     OW 5853   2.901   1.098   4.420
 1943SOL    HW1 5854   2.831   1.051   4.474
 1943SOL    HW2 5855   2.960   1.030   4.377
 1944SOL     OW 5856   2.452   1.487   4.215
 1944SOL    HW1 5857   2.494   1.429   4.145
 1944SOL    HW2 5858   2.408   1.566   4.171
 1945SOL     OW 5859   2.117   1.348   4.014
 1945SOL    HW1 5860   2.021   1.349   3.987
 1945SOL    HW2 5861   2.129   1.401   4.098
 1946SOL     OW 5862   1.937   0.345   3.757
 1946SOL    HW1 5863   1.845   0.317   3.728
 1946SOL    HW2 5864   1.968   0.422   3.701
 1947SOL     OW 5865   1.934   0.166   4.042
 1947SOL    HW1 5866   1.917   0.249   3.988
 1947SOL    HW2 5867   2.024   0.129   4.020
 1948SOL     OW 5868   3.045   1.335   3.843
 1948SOL    HW1 5869   2.946   1.324   3.845
 1948SOL    HW2 5870   3.079   1.350   3.936
 1949SOL     OW 5871   3.536   0.883   4.978
 1949SOL    HW1 5872   3.509   0.794   4.941
 1949SOL    HW2 5873   3.537   0.951   4.905
 1950SOL     OW 5874   3.087   0.325   4.173
 1950SOL    HW1 5875   3.152   0.251   4.162
 1950SOL    HW2 5876   3.107   0.375   4.257
 1951SOL     OW 5877   2.456   0.745   4.376
 1951SOL    HW1 5878   2.506   0.830   4.357
 1951SOL    HW2 5879   2.368   0.747   4.328
 1952SOL     OW 5880   2.721   1.374   3.740
 1952SOL    HW1 5881   2.675   1.389   3.828
 1952SOL    HW2 5882   2.765   1.459   3.710
 1953SOL     OW 5883   2.523   1.790   4.677
 1953SOL    HW1 5884   2.477   1.878   4.664
 1953SOL    HW2 5885   2.622   1.802   4.670
 1954SOL     OW 5886   2.721   0.956   4.585
 1954SOL    HW1 5887   2.775   0.887   4.633
 1954SOL    HW2 5888   2.689   1.025   4.651
 1955SOL     OW 5889   2.945   0.984   3.811
 1955SOL    HW1 5890   2.922   1.037   3.729
 1955SOL    HW2 5891   3.026   0.928   3.792
 1956SOL     OW 5892   3.723   1.569   4.575
 1956SOL    HW1 5893   3.652   1.557   4.505
 1956SOL    HW2 5894   3.724   1.490   4.635
 1957SOL     OW 5895   1.941   1.240   4.377
 1957SOL    HW1 5896   1.940   1.193   4.465
 1957SOL    HW2 5897   2.023   1.212   4.326
 1958SOL     OW 5898   3.686   0.192   4.951
 1958SOL    HW1 5899   3.682   0.102   4.995
 1958SOL    HW2 5900   3.689   0.181   4.852
 1959SOL     OW 5901   2.290   0.424   4.244
 1959SOL    HW1 5902   2.320   0.352   4.182
 1959SOL    HW2 5903   2.251   0.384   4.327
 1960SOL     OW 5904   2.674   1.586   4.411
 1960SOL    HW1 5905   2.706   1.596   4.317
 1960SOL    HW2 5906   2.595   1.524   4.413
 1961SOL     OW 5907   2.632   1.330   4.025
 1961SOL    HW1 5908   2.586   1.243   4.042
 1961SOL    HW2 5909   2.723   1.327   4.066
 1962SOL     OW 5910   3.214   0.052   3.892
 1962SOL    HW1 5911   3.249   0.011   3.808
 1962SOL    HW2 5912   3.124   0.014   3.912
 1963SOL     OW 5913   3.162   0.453   4.415
 1963SOL    HW1 5914   3.103   0.533   4.419
 1963SOL    HW2 5915   3.177   0.418   4.508
 1964SOL     OW 5916   3.455   0.221   4.606
 1964SOL    HW1 5917   3.371   0.220   4.660
 1964SOL    HW2 5918   3.457   0.304   4.550
 1965SOL     OW 5919   1.901   1.077   4.024
 1965SOL    HW1 5920   2.000   1.066   4.015
 1965SOL    HW2 5921   1.861   0.991   4.056
 1966SOL     OW 5922   2.737   1.646   4.061
 1966SOL    HW1 5923   2.660   1.611   4.007
 1966SOL    HW2 5924   2.705   1.717   4.123
 1967SOL     OW 5925   2.092   2.490   0.113
 1967SOL    HW1 5926   1.999   2.488   0.150
 1967SOL    HW2 5927   2.093   2.451   0.021
 1968SOL     OW 5928   2.087   2.137   0.996
 1968SOL    HW1 5929   2.122   2.120   1.088
 1968SOL    HW2 5930   1.999   2.092   0.984
 1969SOL     OW 5931   1.881   2.230   0.647
 1969SOL    HW1 5932   1.799   2.273   0.686
 1969SOL    HW2 5933   1.853   2.157   0.584
 1970SOL     OW 5934   2.431   3.137   1.165
 1970SOL    HW1 5935   2.338   3.130   1.128
 1970SOL    HW2 5936   2.442   3.226   1.209
 1971SOL     OW 5937   3.417   3.373   0.703
 1971SOL    HW1 5938   3.360   3.357   0.784
 1971SOL    HW2 5939   3.358   3.383   0.623
 1972SOL     OW 5940   2.997   2.565   0.717
 1972SOL    HW1 5941   3.054   2.643   0.692
 1972SOL    HW2 5942   2.937   2.591   0.793
 1973SOL     OW 5943   3.617   2.469   0.231
 1973SOL    HW1 5944   3.605   2.456   0.132
 1973SOL    HW2 5945   3.587   2.388   0.280
 1974SOL     OW 5946   2.630   3.006   1.023
 1974SOL    HW1 5947   2.552   3.023   1.083
 1974SOL    HW2 5948   2.664   3.093   0.987
 1975SOL     OW 5949   2.712   2.660   1.823
 1975SOL    HW1 5950   2.708   2.736   1.888
 1975SOL    HW2 5951   2.734   2.696   1.732
 1976SOL     OW 5952   2.547   2.874   0.665
 1976SOL    HW1 5953   2.616   2.858   0.735
 1976SOL    HW2 5954   2.474   2.931   0.703
 1977SOL     OW 5955   2.548   3.023   1.803
 1977SOL    HW1 5956   2.608   3.102   1.817
 1977SOL    HW2 5957   2.462   3.054   1.762
 1978SOL     OW 5958   2.197   3.297   1.061
 1978SOL    HW1 5959   2.119   3.266   1.008
 1978SOL    HW2 5960   2.255   3.355   1.004
 1979SOL     OW 5961   3.322   3.367   1.339
 1979SOL    HW1 5962   3.346   3.461   1.365
 1979SOL    HW2 5963   3.306   3.313   1.421
 1980SOL     OW 5964   2.300   2.254   1.499
 1980SOL    HW1 5965   2.382   2.198   1.508
 1980SOL    HW2 5966   2.219   2.196   1.503
 1981SOL     OW 5967   3.465   2.309   0.737
 1981SOL    HW1 5968   3.391   2.355   0.687
 1981SOL    HW2 5969   3.516   2.377   0.790
 1982SOL     OW 5970   2.093   3.575   0.483
 1982SOL    HW1 5971   2.127   3.652   0.537
 1982SOL    HW2 5972   2.137   3.575   0.393
 1983SOL     OW 5973   2.989   3.203   1.690
 1983SOL    HW1 5974   3.036   3.203   1.778
 1983SOL    HW2 5975   2.941   3.116   1.679
 1984SOL     OW 5976   2.092   3.296   0.538
 1984SOL    HW1 5977   2.066   3.392   0.538
 1984SOL    HW2 5978   2.021   3.242   0.583
 1985SOL     OW 5979   2.102   2.953   0.886
 1985SOL    HW1 5980   2.116   2.869   0.938
 1985SOL    HW2 5981   2.047   3.017   0.941
 1986SOL     OW 5982   2.482   3.648   1.439
 1986SOL    HW1 5983   2.390   3.631   1.474
 1986SOL    HW2 5984   2.510   3.740   1.465
 1987SOL     OW 5985   2.468   2.826   0.123
 1987SOL    HW1 5986   2.475   2.910   0.069
 1987SOL    HW2 5987   2.514   2.839   0.211
 1988SOL     OW 5988   3.456   1.976   1.480
 1988SOL    HW1 5989   3.438   2.043   1.408
 1988SOL    HW2 5990   3.453   2.022   1.569
 1989SOL     OW 5991   1.984   2.505   0.563
 1989SOL    HW1 5992   1.939   2.417   0.580
 1989SOL    HW2 5993   1.983   2.559   0.647
 1990SOL     OW 5994   3.704   3.629   0.359
 1990SOL    HW1 5995   3.758   3.600   0.439
 1990SOL    HW2 5996   3.734   3.719   0.330
 1991SOL     OW 5997   1.889   3.458   0.117
 1991SOL    HW1 5998   1.870   3.362   0.138
 1991SOL    HW2 5999   1.856   3.516   0.192
 1992SOL     OW 6000   3.551   2.784   0.612
 1992SOL    HW1 6001   3.646   2.755   0.620
 1992SOL    HW2 6002   3.543   2.849   0.537
 1993SOL     OW 6003   3.503   2.970   0.432
 1993SOL    HW1 6004   3.589   2.972   0.380
 1993SOL    HW2 6005   3.517   3.017   0.520
 1994SOL     OW 6006   1.975   2.599   1.597
 1994SOL    HW1 6007   2.063   2.586   1.642
 1994SOL    HW2 6008   1.962   2.696   1.575
 1995SOL     OW 6009   2.475   3.227   0.726
 1995SOL    HW1 6010   2.426   3.140   0.735
 1995SOL    HW2 6011   2.452   3.270   0.639
 1996SOL     OW 6012   3.155   3.090   1.423
 1996SOL    HW1 6013   3.192   3.017   1.365
 1996SOL    HW2 6014   3.207   3.095   1.508
 1997SOL     OW 6015   2.671   1.866   0.502
 1997SOL    HW1 6016   2.711   1.957   0.493
 1997SOL    HW2 6017   2.571   1.874   0.508
 1998SOL     OW 6018   2.059   2.838   1.264
 1998SOL    HW1 6019   2.148   2.793   1.250
 1998SOL    HW2 6020   1.986   2.773   1.245
 1999SOL     OW 6021   3.387   2.861   0.190
 1999SOL    HW1 6022   3.324   2.785   0.203
 1999SOL    HW2 6023   3.435   2.879   0.276
 2000SOL     OW 6024   3.049   3.654   1.616
 2000SOL    HW1 6025   3.073   3.714   1.540
 2000SOL    HW2 6026   3.056   3.559   1.586
 2001SOL     OW 6027   2.179   2.113   1.801
 2001SOL    HW1 6028   2.250   2.184   1.807
 2001SOL    HW2 6029   2.091   2.152   1.829
 2002SOL     OW 6030   3.328   3.279   0.953
 2002SOL    HW1 6031   3.269   3.285   1.033
 2002SOL    HW2 6032   3.313   3.191   0.907
 2003SOL     OW 6033   3.529   3.576   0.572
 2003SOL    HW1 6034   3.488   3.553   0.484
 2003SOL    HW2 6035   3.511   3.502   0.637
 2004SOL     OW 6036   2.460   2.591   0.270
 2004SOL    HW1 6037   2.484   2.660   0.202
 2004SOL    HW2 6038   2.382   2.624   0.324
 2005SOL     OW 6039   3.143   2.207   0.944
 2005SOL    HW1 6040   3.057   2.157   0.931
 2005SOL    HW2 6041   3.205   2.153   1.000
 2006SOL     OW 6042   3.438   3.524   0.307
 2006SOL    HW1 6043   3.527   3.570   0.310
 2006SOL    HW2 6044   3.417   3.500   0.212
 2007SOL     OW 6045   2.669   2.467   1.465
 2007SOL    HW1 6046   2.622   2.464   1.554
 2007SOL    HW2 6047   2.618   2.412   1.399
 2008SOL     OW 6048   3.256   2.331   1.674
 2008SOL    HW1 6049   3.236   2.374   1.762
 2008SOL    HW2 6050   3.334   2.269   1.683
 2009SOL     OW 6051   2.835   2.752   1.572
 2009SOL    HW1 6052   2.881   2.668   1.543
 2009SOL    HW2 6053   2.779   2.786   1.497
 2010SOL     OW 6054   2.853   2.272   1.242
 2010SOL    HW1 6055   2.776   2.306   1.296
 2010SOL    HW2 6056   2.819   2.221   1.163
 2011SOL     OW 6057   2.903   2.563   0.429
 2011SOL    HW1 6058   2.929   2.559   0.525
 2011SOL    HW2 6059   2.818   2.512   0.415
 2012SOL     OW 6060   1.938   2.673   0.789
 2012SOL    HW1 6061   2.037   2.661   0.798
 2012SOL    HW2 6062   1.914   2.768   0.810
 2013SOL     OW 6063   1.992   3.683   1.571
 2013SOL    HW1 6064   1.982   3.668   1.670
 2013SOL    HW2 6065   1.906   3.719   1.535
 2014SOL     OW 6066   2.727   2.210   0.195
 2014SOL    HW1 6067   2.786   2.273   0.146
 2014SOL    HW2 6068   2.746   2.116   0.166
 2015SOL     OW 6069   3.581   2.447   1.831
 2015SOL    HW1 6070   3.555   2.536   1.795
 2015SOL    HW2 6071   3.579   2.379   1.758
 2016SOL     OW 6072   3.224   3.006   0.545
 2016SOL    HW1 6073   3.307   2.977   0.497
 2016SOL    HW2 6074   3.175   3.073   0.489
 2017SOL     OW 6075   2.412   2.058   0.885
 2017SOL    HW1 6076   2.407   2.053   0.985
 2017SOL    HW2 6077   2.414   2.154   0.856
 2018SOL     OW 6078   2.870   3.318   0.477
 2018SOL    HW1 6079   2.824   3.390   0.425
 2018SOL    HW2 6080   2.866   3.338   0.575
 2019SOL     OW 6081   2.213   3.663   0.853
 2019SOL    HW1 6082   2.263   3.577   0.859
 2019SOL    HW2 6083   2.278   3.740   0.850
 2020SOL     OW 6084   3.657   2.928   0.873
 2020SOL    HW1 6085   3.595   2.913   0.797
 2020SOL    HW2 6086   3.605   2.939   0.958
 2021SOL     OW 6087   3.089   3.412   1.506
 2021SOL    HW1 6088   3.095   3.335   1.570
 2021SOL    HW2 6089   3.037   3.386   1.426
 2022SOL     OW 6090   2.183   2.805   0.242
 2022SOL    HW1 6091   2.265   2.844   0.200
 2022SOL    HW2 6092   2.156   2.723   0.193
 2023SOL     OW 6093   3.320   2.597   0.728
 2023SOL    HW1 6094   3.315   2.532   0.803
 2023SOL    HW2 6095   3.400   2.656   0.741
 2024SOL     OW 6096   2.323   3.128   1.727
 2024SOL    HW1 6097   2.273   3.129   1.641
 2024SOL    HW2 6098   2.260   3.110   1.803
 2025SOL     OW 6099   2.973   3.638   0.237
 2025SOL    HW1 6100   2.913   3.576   0.287
 2025SOL    HW2 6101   3.004   3.594   0.152
 2026SOL     OW 6102   2.064   2.147   1.498
 2026SOL    HW1 6103   1.984   2.207   1.485
 2026SOL    HW2 6104   2.054   2.098   1.584
 2027SOL     OW 6105   3.494   3.239   0.081
 2027SOL    HW1 6106   3.462   3.333   0.071
 2027SOL    HW2 6107   3.418   3.176   0.069
 2028SOL     OW 6108   2.326   3.605   0.323
 2028SOL    HW1 6109   2.359   3.644   0.409
 2028SOL    HW2 6110   2.402   3.598   0.258
 2029SOL     OW 6111   3.262   1.969   0.426
 2029SOL    HW1 6112   3.238   1.932   0.336
 2029SOL    HW2 6113   3.361   1.985   0.430
 2030SOL     OW 6114   2.111   3.647   1.241
 2030SOL    HW1 6115   2.168   3.582   1.291
 2030SOL    HW2 6116   2.095   3.614   1.148
 2031SOL     OW 6117   2.802   3.560   0.904
 2031SOL    HW1 6118   2.882   3.503   0.925
 2031SOL    HW2 6119   2.753   3.520   0.827
 2032SOL     OW 6120   2.244   2.562   0.480
 2032SOL    HW1 6121   2.289   2.472   0.477
 2032SOL    HW2 6122   2.150   2.551   0.513
 2033SOL     OW 6123   3.409   2.084   1.729
 2033SOL    HW1 6124   3.404   2.121   1.821
 2033SOL    HW2 6125   3.337   2.015   1.717
 2034SOL     OW 6126   2.476   1.984   0.117
 2034SOL    HW1 6127   2.574   1.962   0.124
 2034SOL    HW2 6128   2.445   1.967   0.024
 2035SOL     OW 6129   2.643   2.126   1.749
 2035SOL    HW1 6130   2.710   2.065   1.792
 2035SOL    HW2 6131   2.570   2.145   1.814
 2036SOL     OW 6132   2.750   3.376   1.195
 2036SOL    HW1 6133   2.727   3.351   1.101
 2036SOL    HW2 6134   2.811   3.307   1.234
 2037SOL     OW 6135   3.213   2.452   1.433
 2037SOL    HW1 6136   3.241   2.409   1.518
 2037SOL    HW2 6137   3.238   2.548   1.434
 2038SOL     OW 6138   2.665   3.264   0.924
 2038SOL    HW1 6139   2.755   3.278   0.882
 2038SOL    HW2 6140   2.594   3.266   0.853
 2039SOL     OW 6141   2.784   2.365   0.899
 2039SOL    HW1 6142   2.759   2.356   0.803
 2039SOL    HW2 6143   2.832   2.283   0.930
 2040SOL     OW 6144   2.401   1.926   0.512
 2040SOL    HW1 6145   2.320   1.927   0.570
 2040SOL    HW2 6146   2.404   2.009   0.457
 2041SOL     OW 6147   3.296   3.050   0.041
 2041SOL    HW1 6148   3.328   2.974   0.098
 2041SOL    HW2 6149   3.204   3.077   0.071
 2042SOL     OW 6150   2.797   2.098   0.480
 2042SOL    HW1 6151   2.749   2.139   0.402
 2042SOL    HW2 6152   2.896   2.096   0.461
 2043SOL     OW 6153   2.938   2.545   1.464
 2043SOL    HW1 6154   2.858   2.484   1.467
 2043SOL    HW2 6155   3.019   2.492   1.440
 2044SOL     OW 6156   3.089   3.432   0.793
 2044SOL    HW1 6157   3.110   3.506   0.728
 2044SOL    HW2 6158   3.157   3.432   0.866
 2045SOL     OW 6159   2.321   3.014   0.741
 2045SOL    HW1 6160   2.250   2.987   0.806
 2045SOL    HW2 6161   2.295   2.986   0.648
 2046SOL     OW 6162   3.133   3.659   0.591
 2046SOL    HW1 6163   3.177   3.723   0.527
 2046SOL    HW2 6164   3.083   3.711   0.661
 2047SOL     OW 6165   2.894   2.411   0.016
 2047SOL    HW1 6166   2.853   2.493  -0.023
 2047SOL    HW2 6167   2.958   2.437   0.089
 2048SOL     OW 6168   1.940   2.418   1.386
 2048SOL    HW1 6169   2.032   2.417   1.345
 2048SOL    HW2 6170   1.934   2.492   1.453
 2049SOL     OW 6171   2.423   2.084   1.147
 2049SOL    HW1 6172   2.461   2.000   1.184
 2049SOL    HW2 6173   2.335   2.103   1.191
 2050SOL     OW 6174   2.728   2.316   0.642
 2050SOL    HW1 6175   2.696   2.388   0.580
 2050SOL    HW2 6176   2.752   2.235   0.589
 2051SOL     OW 6177   2.879   1.901   0.753
 2051SOL    HW1 6178   2.807   1.906   0.684
 2051SOL    HW2 6179   2.855   1.832   0.822
 2052SOL     OW 6180   3.291   3.035   0.867
 2052SOL    HW1 6181   3.236   2.951   0.860
 2052SOL    HW2 6182   3.317   3.064   0.775
 2053SOL     OW 6183   3.328   2.452   0.992
 2053SOL    HW1 6184   3.298   2.357   0.999
 2053SOL    HW2 6185   3.401   2.468   1.058
 2054SOL     OW 6186   3.719   2.695   0.377
 2054SOL    HW1 6187   3.761   2.631   0.441
 2054SOL    HW2 6188   3.681   2.644   0.299
 2055SOL     OW 6189   2.350   3.247   0.174
 2055SOL    HW1 6190   2.263   3.232   0.221
 2055SOL    HW2 6191   2.333   3.273   0.079
 2056SOL     OW 6192   3.526   3.142   0.657
 2056SOL    HW1 6193   3.625   3.150   0.671
 2056SOL    HW2 6194   3.481   3.226   0.688
 2057SOL     OW 6195   3.252   2.437   0.078
 2057SOL    HW1 6196   3.198   2.416   0.159
 2057SOL    HW2 6197   3.343   2.396   0.087
 2058SOL     OW 6198   2.389   2.118   0.328
 2058SOL    HW1 6199   2.416   2.059   0.253
 2058SOL    HW2 6200   2.389   2.213   0.297
 2059SOL     OW 6201   3.616   3.085   1.588
 2059SOL    HW1 6202   3.707   3.046   1.575
 2059SOL    HW2 6203   3.624   3.181   1.612
 2060SOL     OW 6204   2.926   3.209   1.340
 2060SOL    HW1 6205   2.846   3.186   1.395
 2060SOL    HW2 6206   3.009   3.183   1.389
 2061SOL     OW 6207   3.454   3.491   1.625
 2061SOL    HW1 6208   3.481   3.525   1.535
 2061SOL    HW2 6209   3.533   3.453   1.671
 2062SOL     OW 6210   2.973   3.057   1.100
 2062SOL    HW1 6211   2.933   3.101   1.181
 2062SOL    HW2 6212   2.932   3.094   1.017
 2063SOL     OW 6213   3.500   2.961   1.079
 2063SOL    HW1 6214   3.505   3.042   1.138
 2063SOL    HW2 6215   3.414   2.963   1.028
 2064SOL     OW 6216   2.777   1.951   1.402
 2064SOL    HW1 6217   2.802   1.931   1.307
 2064SOL    HW2 6218   2.849   2.007   1.444
 2065SOL     OW 6219   2.842   2.978   1.719
 2065SOL    HW1 6220   2.743   2.984   1.729
 2065SOL    HW2 6221   2.865   2.898   1.663
 2066SOL     OW 6222   2.567   2.912   0.368
 2066SOL    HW1 6223   2.553   2.919   0.467
 2066SOL    HW2 6224   2.651   2.861   0.350
 2067SOL     OW 6225   2.272   2.675   1.251
 2067SOL    HW1 6226   2.358   2.687   1.301
 2067SOL    HW2 6227   2.230   2.588   1.278
 2068SOL     OW 6228   3.136   2.248   1.262
 2068SOL    HW1 6229   3.157   2.322   1.326
 2068SOL    HW2 6230   3.047   2.265   1.219
 2069SOL     OW 6231   1.926   3.426   1.331
 2069SOL    HW1 6232   1.880   3.508   1.297
 2069SOL    HW2 6233   2.024   3.445   1.340
 2070SOL     OW 6234   2.229   2.962   0.501
 2070SOL    HW1 6235   2.222   3.045   0.445
 2070SOL    HW2 6236   2.233   2.882   0.441
 2071SOL     OW 6237   2.428   2.399   0.865
 2071SOL    HW1 6238   2.440   2.465   0.791
 2071SOL    HW2 6239   2.474   2.433   0.948
 2072SOL     OW 6240   3.114   3.210   0.388
 2072SOL    HW1 6241   3.164   3.287   0.428
 2072SOL    HW2 6242   3.019   3.212   0.420
 2073SOL     OW 6243   3.134   3.307   1.142
 2073SOL    HW1 6244   3.181   3.320   1.229
 2073SOL    HW2 6245   3.068   3.233   1.151
 2074SOL     OW 6246   3.444   2.501   0.472
 2074SOL    HW1 6247   3.413   2.562   0.545
 2074SOL    HW2 6248   3.494   2.553   0.403
 2075SOL     OW 6249   2.216   3.372   1.329
 2075SOL    HW1 6250   2.195   3.328   1.242
 2075SOL    HW2 6251   2.313   3.398   1.332
 2076SOL     OW 6252   2.264   2.613   1.598
 2076SOL    HW1 6253   2.332   2.668   1.551
 2076SOL    HW2 6254   2.304   2.525   1.625
 2077SOL     OW 6255   3.449   2.641   1.670
 2077SOL    HW1 6256   3.357   2.679   1.665
 2077SOL    HW2 6257   3.509   2.688   1.605
 2078SOL     OW 6258   2.875   1.967   1.770
 2078SOL    HW1 6259   2.881   2.052   1.718
 2078SOL    HW2 6260   2.907   1.891   1.713
 2079SOL     OW 6261   2.366   1.912   1.740
 2079SOL    HW1 6262   2.324   1.855   1.670
 2079SOL    HW2 6263   2.300   1.981   1.772
 2080SOL     OW 6264   2.435   2.732   1.029
 2080SOL    HW1 6265   2.479   2.821   1.020
 2080SOL    HW2 6266   2.372   2.732   1.106
 2081SOL     OW 6267   3.222   2.724   1.045
 2081SOL    HW1 6268   3.147   2.724   0.979
 2081SOL    HW2 6269   3.259   2.632   1.054
 2082SOL     OW 6270   3.071   2.387   0.275
 2082SOL    HW1 6271   3.084   2.303   0.329
 2082SOL    HW2 6272   3.042   2.461   0.335
 2083SOL     OW 6273   2.169   2.075   1.231
 2083SOL    HW1 6274   2.146   2.112   1.321
 2083SOL    HW2 6275   2.139   1.980   1.225
 2084SOL     OW 6276   1.899   3.172   1.282
 2084SOL    HW1 6277   1.952   3.123   1.350
 2084SOL    HW2 6278   1.921   3.270   1.287
 2085SOL     OW 6279   2.594   2.496   1.064
 2085SOL    HW1 6280   2.653   2.470   0.988
 2085SOL    HW2 6281   2.566   2.592   1.053
 2086SOL     OW 6282   3.590   2.797   1.854
 2086SOL    HW1 6283   3.544   2.790   1.765
 2086SOL    HW2 6284   3.528   2.841   1.920
 2087SOL     OW 6285   2.169   1.925   0.618
 2087SOL    HW1 6286   2.158   2.019   0.651
 2087SOL    HW2 6287   2.164   1.862   0.695
 2088SOL     OW 6288   3.484   2.229   0.374
 2088SOL    HW1 6289   3.486   2.153   0.438
 2088SOL    HW2 6290   3.436   2.306   0.414
 2089SOL     OW 6291   2.885   2.628   0.966
 2089SOL    HW1 6292   2.900   2.649   1.062
 2089SOL    HW2 6293   2.855   2.533   0.957
 2090SOL     OW 6294   2.842   3.435   1.700
 2090SOL    HW1 6295   2.822   3.479   1.612
 2090SOL    HW2 6296   2.881   3.344   1.684
 2091SOL     OW 6297   3.721   3.380   1.605
 2091SOL    HW1 6298   3.735   3.407   1.510
 2091SOL    HW2 6299   3.804   3.402   1.658
 2092SOL     OW 6300   2.212   2.760   1.804
 2092SOL    HW1 6301   2.288   2.804   1.852
 2092SOL    HW2 6302   2.247   2.713   1.722
 2093SOL     OW 6303   3.402   2.136   0.125
 2093SOL    HW1 6304   3.341   2.061   0.148
 2093SOL    HW2 6305   3.424   2.188   0.208
 2094SOL     OW 6306   3.165   2.700   0.042
 2094SOL    HW1 6307   3.199   2.607   0.057
 2094SOL    HW2 6308   3.183   2.727  -0.053
 2095SOL     OW 6309   2.930   3.195   0.849
 2095SOL    HW1 6310   2.937   3.111   0.794
 2095SOL    HW2 6311   2.992   3.264   0.813
 2096SOL     OW 6312   2.181   2.672   0.949
 2096SOL    HW1 6313   2.274   2.708   0.954
 2096SOL    HW2 6314   2.175   2.587   1.001
 2097SOL     OW 6315   2.201   2.371   1.006
 2097SOL    HW1 6316   2.149   2.288   0.989
 2097SOL    HW2 6317   2.278   2.376   0.942
 2098SOL     OW 6318   3.000   2.242   1.678
 2098SOL    HW1 6319   2.955   2.305   1.742
 2098SOL    HW2 6320   3.093   2.273   1.661
 2099SOL     OW 6321   3.022   2.069   1.477
 2099SOL    HW1 6322   3.022   2.133   1.554
 2099SOL    HW2 6323   3.050   2.117   1.394
 2100SOL     OW 6324   1.870   3.188   0.200
 2100SOL    HW1 6325   1.777   3.209   0.169
 2100SOL    HW2 6326   1.880   3.089   0.213
 2101SOL     OW 6327   1.950   3.663   0.927
 2101SOL    HW1 6328   1.908   3.577   0.900
 2101SOL    HW2 6329   2.044   3.666   0.893
 2102SOL     OW 6330   2.366   3.430   0.910
 2102SOL    HW1 6331   2.432   3.504   0.919
 2102SOL    HW2 6332   2.410   3.351   0.868
 2103SOL     OW 6333   2.864   2.658   1.238
 2103SOL    HW1 6334   2.905   2.626   1.324
 2103SOL    HW2 6335   2.768   2.631   1.235
 2104SOL     OW 6336   1.902   2.406   1.114
 2104SOL    HW1 6337   1.987   2.373   1.073
 2104SOL    HW2 6338   1.915   2.421   1.212
 2105SOL     OW 6339   2.051   2.382   1.722
 2105SOL    HW1 6340   2.110   2.342   1.652
 2105SOL    HW2 6341   1.993   2.453   1.681
 2106SOL     OW 6342   3.231   2.812   1.660
 2106SOL    HW1 6343   3.270   2.901   1.680
 2106SOL    HW2 6344   3.241   2.792   1.563
 2107SOL     OW 6345   2.677   2.434   0.325
 2107SOL    HW1 6346   2.684   2.345   0.279
 2107SOL    HW2 6347   2.583   2.468   0.317
 2108SOL     OW 6348   3.519   2.466   1.206
 2108SOL    HW1 6349   3.481   2.397   1.268
 2108SOL    HW2 6350   3.601   2.430   1.162
 2109SOL     OW 6351   2.114   3.426   1.744
 2109SOL    HW1 6352   2.084   3.483   1.820
 2109SOL    HW2 6353   2.107   3.329   1.770
 2110SOL     OW 6354   2.533   2.326   1.269
 2110SOL    HW1 6355   2.499   2.237   1.239
 2110SOL    HW2 6356   2.559   2.380   1.189
 2111SOL     OW 6357   2.792   3.540   1.465
 2111SOL    HW1 6358   2.768   3.522   1.370
 2111SOL    HW2 6359   2.822   3.634   1.475
 2112SOL     OW 6360   2.335   2.362   0.191
 2112SOL    HW1 6361   2.396   2.442   0.195
 2112SOL    HW2 6362   2.240   2.393   0.198
 2113SOL     OW 6363   2.021   2.999   1.466
 2113SOL    HW1 6364   2.043   2.938   1.542
 2113SOL    HW2 6365   2.031   2.950   1.380
 2114SOL     OW 6366   3.209   2.921   1.234
 2114SOL    HW1 6367   3.233   2.858   1.160
 2114SOL    HW2 6368   3.119   2.961   1.216
 2115SOL     OW 6369   3.164   2.717   0.309
 2115SOL    HW1 6370   3.078   2.686   0.351
 2115SOL    HW2 6371   3.160   2.703   0.210
 2116SOL     OW 6372   3.621   3.609   1.154
 2116SOL    HW1 6373   3.682   3.639   1.081
 2116SOL    HW2 6374   3.583   3.520   1.132
 2117SOL     OW 6375   3.114   3.593   1.128
 2117SOL    HW1 6376   3.198   3.598   1.074
 2117SOL    HW2 6377   3.091   3.497   1.146
 2118SOL     OW 6378   1.945   3.120   1.022
 2118SOL    HW1 6379   1.940   3.119   1.122
 2118SOL    HW2 6380   1.862   3.079   0.984
 2119SOL     OW 6381   2.550   3.524   1.716
 2119SOL    HW1 6382   2.494   3.605   1.725
 2119SOL    HW2 6383   2.602   3.528   1.630
 2120SOL     OW 6384   2.765   1.948   0.133
 2120SOL    HW1 6385   2.816   1.949   0.047
 2120SOL    HW2 6386   2.821   1.906   0.204
 2121SOL     OW 6387   3.588   1.997   0.523
 2121SOL    HW1 6388   3.661   1.980   0.456
 2121SOL    HW2 6389   3.557   1.910   0.561
 2122SOL     OW 6390   3.250   3.435   0.477
 2122SOL    HW1 6391   3.317   3.447   0.403
 2122SOL    HW2 6392   3.210   3.524   0.500
 2123SOL     OW 6393   1.992   3.656   1.851
 2123SOL    HW1 6394   1.951   3.582   1.904
 2123SOL    HW2 6395   2.056   3.707   1.909
 2124SOL     OW 6396   3.142   2.789   0.672
 2124SOL    HW1 6397   3.202   2.708   0.674
 2124SOL    HW2 6398   3.182   2.858   0.612
 2125SOL     OW 6399   2.692   3.135   1.422
 2125SOL    HW1 6400   2.687   3.168   1.517
 2125SOL    HW2 6401   2.606   3.154   1.376
 2126SOL     OW 6402   2.534   3.478   0.154
 2126SOL    HW1 6403   2.543   3.488   0.055
 2126SOL    HW2 6404   2.494   3.389   0.175
 2127SOL     OW 6405   3.512   3.582   1.394
 2127SOL    HW1 6406   3.565   3.592   1.310
 2127SOL    HW2 6407   3.485   3.672   1.428
 2128SOL     OW 6408   3.703   2.037   0.963
 2128SOL    HW1 6409   3.742   1.952   0.927
 2128SOL    HW2 6410   3.605   2.039   0.944
 2129SOL     OW 6411   2.125   2.188   0.720
 2129SOL    HW1 6412   2.046   2.239   0.686
 2129SOL    HW2 6413   2.116   2.173   0.818
 2130SOL     OW 6414   3.056   3.474   0.031
 2130SOL    HW1 6415   3.062   3.381   0.068
 2130SOL    HW2 6416   2.997   3.474  -0.049
 2131SOL     OW 6417   2.684   2.864   1.372
 2131SOL    HW1 6418   2.724   2.863   1.280
 2131SOL    HW2 6419   2.694   2.956   1.412
 2132SOL     OW 6420   2.778   2.772   0.291
 2132SOL    HW1 6421   2.841   2.810   0.223
 2132SOL    HW2 6422   2.818   2.689   0.330
 2133SOL     OW 6423   3.366   3.469   0.044
 2133SOL    HW1 6424   3.274   3.506   0.051
 2133SOL    HW2 6425   3.404   3.489  -0.046
 2134SOL     OW 6426   2.234   3.150   1.490
 2134SOL    HW1 6427   2.221   3.243   1.456
 2134SOL    HW2 6428   2.150   3.098   1.477
 2135SOL     OW 6429   3.476   3.154   1.289
 2135SOL    HW1 6430   3.536   3.157   1.369
 2135SOL    HW2 6431   3.401   3.218   1.302
 2136SOL     OW 6432   2.901   2.960   0.696
 2136SOL    HW1 6433   2.831   2.913   0.750
 2136SOL    HW2 6434   2.960   2.892   0.653
 2137SOL     OW 6435   2.876   2.098   0.971
 2137SOL    HW1 6436   2.868   2.062   0.878
 2137SOL    HW2 6437   2.874   2.022   1.036
 2138SOL     OW 6438   2.452   3.349   0.491
 2138SOL    HW1 6439   2.494   3.291   0.421
 2138SOL    HW2 6440   2.408   3.428   0.447
 2139SOL     OW 6441   3.571   2.247   1.381
 2139SOL    HW1 6442   3.644   2.316   1.385
 2139SOL    HW2 6443   3.599   2.172   1.322
 2140SOL     OW 6444   2.117   3.210   0.290
 2140SOL    HW1 6445   2.021   3.211   0.263
 2140SOL    HW2 6446   2.129   3.263   0.374
 2141SOL     OW 6447   1.967   2.875   1.726
 2141SOL    HW1 6448   1.890   2.842   1.780
 2141SOL    HW2 6449   2.052   2.845   1.768
 2142SOL     OW 6450   2.534   2.065   1.489
 2142SOL    HW1 6451   2.624   2.049   1.449
 2142SOL    HW2 6452   2.542   2.070   1.588
 2143SOL     OW 6453   1.937   2.207   0.033
 2143SOL    HW1 6454   1.845   2.179   0.004
 2143SOL    HW2 6455   1.968   2.284  -0.023
 2144SOL     OW 6456   3.302   2.718   1.398
 2144SOL    HW1 6457   3.245   2.770   1.335
 2144SOL    HW2 6458   3.398   2.730   1.374
 2145SOL     OW 6459   1.934   2.028   0.318
 2145SOL    HW1 6460   1.917   2.111   0.264
 2145SOL    HW2 6461   2.024   1.991   0.296
 2146SOL     OW 6462   3.045   3.197   0.119
 2146SOL    HW1 6463   2.946   3.186   0.121
 2146SOL    HW2 6464   3.079   3.212   0.212
 2147SOL     OW 6465   2.475   2.704   1.431
 2147SOL    HW1 6466   2.531   2.785   1.414
 2147SOL    HW2 6467   2.534   2.624   1.434
 2148SOL     OW 6468   3.355   3.629   0.959
 2148SOL    HW1 6469   3.388   3.693   0.890
 2148SOL    HW2 6470   3.421   3.623   1.034
 2149SOL     OW 6471   2.578   2.427   1.708
 2149SOL    HW1 6472   2.597   2.492   1.782
 2149SOL    HW2 6473   2.638   2.347   1.717
 2150SOL     OW 6474   3.312   3.082   1.633
 2150SOL    HW1 6475   3.303   3.072   1.732
 2150SOL    HW2 6476   3.408   3.075   1.607
 2151SOL     OW 6477   2.252   3.603   1.560
 2151SOL    HW1 6478   2.161   3.644   1.558
 2151SOL    HW2 6479   2.245   3.509   1.592
 2152SOL     OW 6480   3.536   2.745   1.254
 2152SOL    HW1 6481   3.509   2.656   1.217
 2152SOL    HW2 6482   3.537   2.813   1.181
 2153SOL     OW 6483   3.087   2.187   0.449
 2153SOL    HW1 6484   3.152   2.113   0.438
 2153SOL    HW2 6485   3.107   2.237   0.533
 2154SOL     OW 6486   2.456   2.607   0.652
 2154SOL    HW1 6487   2.506   2.692   0.633
 2154SOL    HW2 6488   2.368   2.609   0.604
 2155SOL     OW 6489   3.639   2.204   1.642
 2155SOL    HW1 6490   3.622   2.235   1.548
 2155SOL    HW2 6491   3.555   2.167   1.680
 2156SOL     OW 6492   3.592   2.796   1.517
 2156SOL    HW1 6493   3.630   2.887   1.532
 2156SOL    HW2 6494   3.584   2.779   1.418
 2157SOL     OW 6495   2.721   3.236   0.016
 2157SOL    HW1 6496   2.675   3.251   0.104
 2157SOL    HW2 6497   2.765   3.321  -0.014
 2158SOL     OW 6498   2.523   3.652   0.953
 2158SOL    HW1 6499   2.477   3.740   0.940
 2158SOL    HW2 6500   2.622   3.664   0.946
 2159SOL     OW 6501   2.721   2.818   0.861
 2159SOL    HW1 6502   2.775   2.749   0.909
 2159SOL    HW2 6503   2.689   2.887   0.927
 2160SOL     OW 6504   2.945   2.846   0.087
 2160SOL    HW1 6505   2.922   2.899   0.005
 2160SOL    HW2 6506   3.026   2.790   0.068
 2161SOL     OW 6507   3.723   3.431   0.851
 2161SOL    HW1 6508   3.652   3.419   0.781
 2161SOL    HW2 6509   3.724   3.352   0.911
 2162SOL     OW 6510   2.083   3.176   1.844
 2162SOL    HW1 6511   2.018   3.103   1.823
 2162SOL    HW2 6512   2.087   3.190   1.942
 2163SOL     OW 6513   1.941   3.102   0.653
 2163SOL    HW1 6514   1.940   3.055   0.741
 2163SOL    HW2 6515   2.023   3.074   0.602
 2164SOL     OW 6516   2.534   3.253   1.624
 2164SOL    HW1 6517   2.456   3.203   1.662
 2164SOL    HW2 6518   2.531   3.348   1.655
 2165SOL     OW 6519   3.686   2.054   1.227
 2165SOL    HW1 6520   3.682   1.964   1.271
 2165SOL    HW2 6521   3.689   2.043   1.128
 2166SOL     OW 6522   2.290   2.286   0.520
 2166SOL    HW1 6523   2.320   2.214   0.458
 2166SOL    HW2 6524   2.251   2.246   0.603
 2167SOL     OW 6525   3.567   3.349   1.104
 2167SOL    HW1 6526   3.474   3.324   1.077
 2167SOL    HW2 6527   3.593   3.299   1.186
 2168SOL     OW 6528   2.179   2.409   1.280
 2168SOL    HW1 6529   2.217   2.350   1.352
 2168SOL    HW2 6530   2.219   2.383   1.192
 2169SOL     OW 6531   2.674   3.448   0.687
 2169SOL    HW1 6532   2.706   3.458   0.593
 2169SOL    HW2 6533   2.595   3.386   0.689
 2170SOL     OW 6534   3.286   2.076   1.112
 2170SOL    HW1 6535   3.338   2.011   1.167
 2170SOL    HW2 6536   3.237   2.139   1.173
 2171SOL     OW 6537   2.863   1.896   1.154
 2171SOL    HW1 6538   2.800   1.824   1.123
 2171SOL    HW2 6539   2.956   1.860   1.154
 2172SOL     OW 6540   2.632   3.192   0.301
 2172SOL    HW1 6541   2.586   3.105   0.318
 2172SOL    HW2 6542   2.723   3.189   0.342
 2173SOL     OW 6543   2.480   3.429   1.284
 2173SOL    HW1 6544   2.475   3.511   1.341
 2173SOL    HW2 6545   2.569   3.426   1.239
 2174SOL     OW 6546   3.214   1.914   0.168
 2174SOL    HW1 6547   3.249   1.873   0.084
 2174SOL    HW2 6548   3.124   1.876   0.188
 2175SOL     OW 6549   3.162   2.315   0.691
 2175SOL    HW1 6550   3.103   2.395   0.695
 2175SOL    HW2 6551   3.177   2.280   0.784
 2176SOL     OW 6552   3.455   2.083   0.882
 2176SOL    HW1 6553   3.371   2.082   0.936
 2176SOL    HW2 6554   3.457   2.166   0.826
 2177SOL     OW 6555   1.901   2.939   0.300
 2177SOL    HW1 6556   2.000   2.928   0.291
 2177SOL    HW2 6557   1.861   2.853   0.332
 2178SOL     OW 6558   2.737   3.508   0.337
 2178SOL    HW1 6559   2.660   3.473   0.283
 2178SOL    HW2 6560   2.705   3.579   0.399
 2179SOL     OW 6561   2.092   2.490   1.975
 2179SOL    HW1 6562   1.999   2.488   2.012
 2179SOL    HW2 6563   2.093   2.451   1.883
 2180SOL     OW 6564   2.087   2.137   2.858
 2180SOL    HW1 6565   2.122   2.120   2.950
 2180SOL    HW2 6566   1.999   2.092   2.846
 2181SOL     OW 6567   1.881   2.230   2.509
 2181SOL    HW1 6568   1.799   2.273   2.548
 2181SOL    HW2 6569   1.853   2.157   2.446
 2182SOL     OW 6570   2.431   3.137   3.027
 2182SOL    HW1 6571   2.338   3.130   2.990
 2182SOL    HW2 6572   2.442   3.226   3.071
 2183SOL     OW 6573   3.417   3.373   2.565
 2183SOL    HW1 6574   3.360   3.357   2.646
 2183SOL    HW2 6575   3.358   3.383   2.485
 2184SOL     OW 6576   2.997   2.565   2.579
 2184SOL    HW1 6577   3.054   2.643   2.554
 2184SOL    HW2 6578   2.937   2.591   2.655
 2185SOL     OW 6579   3.617   2.469   2.093
 2185SOL    HW1 6580   3.605   2.456   1.994
 2185SOL    HW2 6581   3.587   2.388   2.142
 2186SOL     OW 6582   2.630   3.006   2.885
 2186SOL    HW1 6583   2.552   3.023   2.945
 2186SOL    HW2 6584   2.664   3.093   2.849
 2187SOL     OW 6585   2.712   2.660   3.685
 2187SOL    HW1 6586   2.708   2.736   3.750
 2187SOL    HW2 6587   2.734   2.696   3.594
 2188SOL     OW 6588   2.547   2.874   2.527
 2188SOL    HW1 6589   2.616   2.858   2.597
 2188SOL    HW2 6590   2.474   2.931   2.565
 2189SOL     OW 6591   2.548   3.023   3.665
 2189SOL    HW1 6592   2.608   3.102   3.679
 2189SOL    HW2 6593   2.462   3.054   3.624
 2190SOL     OW 6594   2.197   3.297   2.923
 2190SOL    HW1 6595   2.119   3.266   2.870
 2190SOL    HW2 6596   2.255   3.355   2.866
 2191SOL     OW 6597   3.322   3.367   3.201
 2191SOL    HW1 6598   3.346   3.461   3.227
 2191SOL    HW2 6599   3.306   3.313   3.283
 2192SOL     OW 6600   2.300   2.254   3.361
 2192SOL    HW1 6601   2.382   2.198   3.370
 2192SOL    HW2 6602   2.219   2.196   3.365
 2193SOL     OW 6603   3.465   2.309   2.599
 2193SOL    HW1 6604   3.391   2.355   2.549
 2193SOL    HW2 6605   3.516   2.377   2.652
 2194SOL     OW 6606   2.093   3.575   2.345
 2194SOL    HW1 6607   2.127   3.652   2.399
 2194SOL    HW2 6608   2.137   3.575   2.255
 2195SOL     OW 6609   2.989   3.203   3.552
 2195SOL    HW1 6610   3.036   3.203   3.640
 2195SOL    HW2 6611   2.941   3.116   3.541
 2196SOL     OW 6612   2.092   3.296   2.400
 2196SOL    HW1 6613   2.066   3.392   2.400
 2196SOL    HW2 6614   2.021   3.242   2.445
 2197SOL     OW 6615   2.102   2.953   2.748
 2197SOL    HW1 6616   2.116   2.869   2.800
 2197SOL    HW2 6617   2.047   3.017   2.803
 2198SOL     OW 6618   2.482   3.648   3.301
 2198SOL    HW1 6619   2.390   3.631   3.336
 2198SOL    HW2 6620   2.510   3.740   3.327
 2199SOL     OW 6621   2.468   2.826   1.985
 2199SOL    HW1 6622   2.475   2.910   1.931
 2199SOL    HW2 6623   2.514   2.839   2.073
 2200SOL     OW 6624   3.456   1.976   3.342
 2200SOL    HW1 6625   3.438   2.043   3.270
 2200SOL    HW2 6626   3.453   2.022   3.431
 2201SOL     OW 6627   1.984   2.505   2.425
 2201SOL    HW1 6628   1.939   2.417   2.442
 2201SOL    HW2 6629   1.983   2.559   2.509
 2202SOL     OW 6630   3.704   3.629   2.221
 2202SOL    HW1 6631   3.758   3.600   2.301
 2202SOL    HW2 6632   3.734   3.719   2.192
 2203SOL     OW 6633   1.889   3.458   1.979
 2203SOL    HW1 6634   1.870   3.362   2.000
 2203SOL    HW2 6635   1.856   3.516   2.054
 2204SOL     OW 6636   3.551   2.784   2.474
 2204SOL    HW1 6637   3.646   2.755   2.482
 2204SOL    HW2 6638   3.543   2.849   2.399
 2205SOL     OW 6639   3.503   2.970   2.294
 2205SOL    HW1 6640   3.589   2.972   2.242
 2205SOL    HW2 6641   3.517   3.017   2.382
 2206SOL     OW 6642   1.975   2.599   3.459
 2206SOL    HW1 6643   2.063   2.586   3.504
 2206SOL    HW2 6644   1.962   2.696   3.437
 2207SOL     OW 6645   2.475   3.227   2.588
 2207SOL    HW1 6646   2.426   3.140   2.597
 2207SOL    HW2 6647   2.452   3.270   2.501
 2208SOL     OW 6648   3.155   3.090   3.285
 2208SOL    HW1 6649   3.192   3.017   3.227
 2208SOL    HW2 6650   3.207   3.095   3.370
 2209SOL     OW 6651   2.671   1.866   2.364
 2209SOL    HW1 6652   2.711   1.957   2.355
 2209SOL    HW2 6653   2.571   1.874   2.370
 2210SOL     OW 6654   2.059   2.838   3.126
 2210SOL    HW1 6655   2.148   2.793   3.112
 2210SOL    HW2 6656   1.986   2.773   3.107
 2211SOL     OW 6657   3.387   2.861   2.052
 2211SOL    HW1 6658   3.324   2.785   2.065
 2211SOL    HW2 6659   3.435   2.879   2.138
 2212SOL     OW 6660   3.049   3.654   3.478
 2212SOL    HW1 6661   3.073   3.714   3.402
 2212SOL    HW2 6662   3.056   3.559   3.448
 2213SOL     OW 6663   2.179   2.113   3.663
 2213SOL    HW1 6664   2.250   2.184   3.669
 2213SOL    HW2 6665   2.091   2.152   3.691
 2214SOL     OW 6666   3.328   3.279   2.815
 2214SOL    HW1 6667   3.269   3.285   2.895
 2214SOL    HW2 6668   3.313   3.191   2.769
 2215SOL     OW 6669   3.529   3.576   2.434
 2215SOL    HW1 6670   3.488   3.553   2.346
 2215SOL    HW2 6671   3.511   3.502   2.499
 2216SOL     OW 6672   3.143   2.207   2.806
 2216SOL    HW1 6673   3.057   2.157   2.793
 2216SOL    HW2 6674   3.205   2.153   2.862
 2217SOL     OW 6675   3.438   3.524   2.169
 2217SOL    HW1 6676   3.527   3.570   2.172
 2217SOL    HW2 6677   3.417   3.500   2.074
 2218SOL     OW 6678   2.669   2.467   3.327
 2218SOL    HW1 6679   2.622   2.464   3.416
 2218SOL    HW2 6680   2.618   2.412   3.261
 2219SOL     OW 6681   3.256   2.331   3.536
 2219SOL    HW1 6682   3.236   2.374   3.624
 2219SOL    HW2 6683   3.334   2.269   3.545
 2220SOL     OW 6684   2.835   2.752   3.434
 2220SOL    HW1 6685   2.881   2.668   3.405
 2220SOL    HW2 6686   2.779   2.786   3.359
 2221SOL     OW 6687   2.853   2.272   3.104
 2221SOL    HW1 6688   2.776   2.306   3.158
 2221SOL    HW2 6689   2.819   2.221   3.025
 2222SOL     OW 6690   2.903   2.563   2.291
 2222SOL    HW1 6691   2.929   2.559   2.387
 2222SOL    HW2 6692   2.818   2.512   2.277
 2223SOL     OW 6693   1.938   2.673   2.651
 2223SOL    HW1 6694   2.037   2.661   2.660
 2223SOL    HW2 6695   1.914   2.768   2.672
 2224SOL     OW 6696   1.992   3.683   3.433
 2224SOL    HW1 6697   1.982   3.668   3.532
 2224SOL    HW2 6698   1.906   3.719   3.397
 2225SOL     OW 6699   2.727   2.210   2.057
 2225SOL    HW1 6700   2.786   2.273   2.008
 2225SOL    HW2 6701   2.746   2.116   2.028
 2226SOL     OW 6702   3.581   2.447   3.693
 2226SOL    HW1 6703   3.555   2.536   3.657
 2226SOL    HW2 6704   3.579   2.379   3.620
 2227SOL     OW 6705   3.224   3.006   2.407
 2227SOL    HW1 6706   3.307   2.977   2.359
 2227SOL    HW2 6707   3.175   3.073   2.351
 2228SOL     OW 6708   2.412   2.058   2.747
 2228SOL    HW1 6709   2.407   2.053   2.847
 2228SOL    HW2 6710   2.414   2.154   2.718
 2229SOL     OW 6711   2.870   3.318   2.339
 2229SOL    HW1 6712   2.824   3.390   2.287
 2229SOL    HW2 6713   2.866   3.338   2.437
 2230SOL     OW 6714   2.213   3.663   2.715
 2230SOL    HW1 6715   2.263   3.577   2.721
 2230SOL    HW2 6716   2.278   3.740   2.712
 2231SOL     OW 6717   3.657   2.928   2.735
 2231SOL    HW1 6718   3.595   2.913   2.659
 2231SOL    HW2 6719   3.605   2.939   2.820
 2232SOL     OW 6720   3.089   3.412   3.368
 2232SOL    HW1 6721   3.095   3.335   3.432
 2232SOL    HW2 6722   3.037   3.386   3.288
 2233SOL     OW 6723   2.183   2.805   2.104
 2233SOL    HW1 6724   2.265   2.844   2.062
 2233SOL    HW2 6725   2.156   2.723   2.055
 2234SOL     OW 6726   3.320   2.597   2.590
 2234SOL    HW1 6727   3.315   2.532   2.665
 2234SOL    HW2 6728   3.400   2.656   2.603
 2235SOL     OW 6729   2.323   3.128   3.589
 2235SOL    HW1 6730   2.273   3.129   3.503
 2235SOL    HW2 6731   2.260   3.110   3.665
 2236SOL     OW 6732   2.973   3.638   2.099
 2236SOL    HW1 6733   2.913   3.576   2.149
 2236SOL    HW2 6734   3.004   3.594   2.014
 2237SOL     OW 6735   2.064   2.147   3.360
 2237SOL    HW1 6736   1.984   2.207   3.347
 2237SOL    HW2 6737   2.054   2.098   3.446
 2238SOL     OW 6738   3.494   3.239   1.943
 2238SOL    HW1 6739   3.462   3.333   1.933
 2238SOL    HW2 6740   3.418   3.176   1.931
 2239SOL     OW 6741   2.326   3.605   2.185
 2239SOL    HW1 6742   2.359   3.644   2.271
 2239SOL    HW2 6743   2.402   3.598   2.120
 2240SOL     OW 6744   3.262   1.969   2.288
 2240SOL    HW1 6745   3.238   1.932   2.198
 2240SOL    HW2 6746   3.361   1.985   2.292
 2241SOL     OW 6747   2.111   3.647   3.103
 2241SOL    HW1 6748   2.168   3.582   3.153
 2241SOL    HW2 6749   2.095   3.614   3.010
 2242SOL     OW 6750   2.802   3.560   2.766
 2242SOL    HW1 6751   2.882   3.503   2.787
 2242SOL    HW2 6752   2.753   3.520   2.689
 2243SOL     OW 6753   3.409   2.084   3.591
 2243SOL    HW1 6754   3.404   2.121   3.683
 2243SOL    HW2 6755   3.337   2.015   3.579
 2244SOL     OW 6756   2.476   1.984   1.979
 2244SOL    HW1 6757   2.574   1.962   1.986
 2244SOL    HW2 6758   2.445   1.967   1.886
 2245SOL     OW 6759   2.643   2.126   3.611
 2245SOL    HW1 6760   2.710   2.065   3.654
 2245SOL    HW2 6761   2.570   2.145   3.676
 2246SOL     OW 6762   2.750   3.376   3.057
 2246SOL    HW1 6763   2.727   3.351   2.963
 2246SOL    HW2 6764   2.811   3.307   3.096
 2247SOL     OW 6765   3.213   2.452   3.295
 2247SOL    HW1 6766   3.241   2.409   3.380
 2247SOL    HW2 6767   3.238   2.548   3.296
 2248SOL     OW 6768   2.665   3.264   2.786
 2248SOL    HW1 6769   2.755   3.278   2.744
 2248SOL    HW2 6770   2.594   3.266   2.715
 2249SOL     OW 6771   2.784   2.365   2.761
 2249SOL    HW1 6772   2.759   2.356   2.665
 2249SOL    HW2 6773   2.832   2.283   2.792
 2250SOL     OW 6774   2.401   1.926   2.374
 2250SOL    HW1 6775   2.320   1.927   2.432
 2250SOL    HW2 6776   2.404   2.009   2.319
 2251SOL     OW 6777   3.296   3.050   1.903
 2251SOL    HW1 6778   3.328   2.974   1.960
 2251SOL    HW2 6779   3.204   3.077   1.933
 2252SOL     OW 6780   2.159   1.897   2.033
 2252SOL    HW1 6781   2.208   1.981   2.012
 2252SOL    HW2 6782   2.221   1.832   2.078
 2253SOL     OW 6783   2.797   2.098   2.342
 2253SOL    HW1 6784   2.749   2.139   2.264
 2253SOL    HW2 6785   2.896   2.096   2.323
 2254SOL     OW 6786   2.938   2.545   3.326
 2254SOL    HW1 6787   2.858   2.484   3.329
 2254SOL    HW2 6788   3.019   2.492   3.302
 2255SOL     OW 6789   3.089   3.432   2.655
 2255SOL    HW1 6790   3.110   3.506   2.590
 2255SOL    HW2 6791   3.157   3.432   2.728
 2256SOL     OW 6792   2.321   3.014   2.603
 2256SOL    HW1 6793   2.250   2.987   2.668
 2256SOL    HW2 6794   2.295   2.986   2.510
 2257SOL     OW 6795   3.133   3.659   2.453
 2257SOL    HW1 6796   3.177   3.723   2.389
 2257SOL    HW2 6797   3.083   3.711   2.523
 2258SOL     OW 6798   2.894   2.411   1.878
 2258SOL    HW1 6799   2.853   2.493   1.839
 2258SOL    HW2 6800   2.958   2.437   1.951
 2259SOL     OW 6801   1.940   2.418   3.248
 2259SOL    HW1 6802   2.032   2.417   3.207
 2259SOL    HW2 6803   1.934   2.492   3.315
 2260SOL     OW 6804   2.423   2.084   3.009
 2260SOL    HW1 6805   2.461   2.000   3.046
 2260SOL    HW2 6806   2.335   2.103   3.053
 2261SOL     OW 6807   2.879   1.901   2.615
 2261SOL    HW1 6808   2.807   1.906   2.546
 2261SOL    HW2 6809   2.855   1.832   2.684
 2262SOL     OW 6810   3.291   3.035   2.729
 2262SOL    HW1 6811   3.236   2.951   2.722
 2262SOL    HW2 6812   3.317   3.064   2.637
 2263SOL     OW 6813   3.328   2.452   2.854
 2263SOL    HW1 6814   3.298   2.357   2.861
 2263SOL    HW2 6815   3.401   2.468   2.920
 2264SOL     OW 6816   3.719   2.695   2.239
 2264SOL    HW1 6817   3.761   2.631   2.303
 2264SOL    HW2 6818   3.681   2.644   2.161
 2265SOL     OW 6819   2.350   3.247   2.036
 2265SOL    HW1 6820   2.263   3.232   2.083
 2265SOL    HW2 6821   2.333   3.273   1.941
 2266SOL     OW 6822   3.526   3.142   2.519
 2266SOL    HW1 6823   3.625   3.150   2.533
 2266SOL    HW2 6824   3.481   3.226   2.550
 2267SOL     OW 6825   3.252   2.437   1.940
 2267SOL    HW1 6826   3.198   2.416   2.021
 2267SOL    HW2 6827   3.343   2.396   1.949
 2268SOL     OW 6828   3.616   3.085   3.450
 2268SOL    HW1 6829   3.707   3.046   3.437
 2268SOL    HW2 6830   3.624   3.181   3.474
 2269SOL     OW 6831   2.926   3.209   3.202
 2269SOL    HW1 6832   2.846   3.186   3.257
 2269SOL    HW2 6833   3.009   3.183   3.251
 2270SOL     OW 6834   3.454   3.491   3.487
 2270SOL    HW1 6835   3.481   3.525   3.397
 2270SOL    HW2 6836   3.533   3.453   3.533
 2271SOL     OW 6837   2.973   3.057   2.962
 2271SOL    HW1 6838   2.933   3.101   3.043
 2271SOL    HW2 6839   2.932   3.094   2.879
 2272SOL     OW 6840   3.500   2.961   2.941
 2272SOL    HW1 6841   3.505   3.042   3.000
 2272SOL    HW2 6842   3.414   2.963   2.890
 2273SOL     OW 6843   2.777   1.951   3.264
 2273SOL    HW1 6844   2.802   1.931   3.169
 2273SOL    HW2 6845   2.849   2.007   3.306
 2274SOL     OW 6846   2.842   2.978   3.581
 2274SOL    HW1 6847   2.743   2.984   3.591
 2274SOL    HW2 6848   2.865   2.898   3.525
 2275SOL     OW 6849   2.567   2.912   2.230
 2275SOL    HW1 6850   2.553   2.919   2.329
 2275SOL    HW2 6851   2.651   2.861   2.212
 2276SOL     OW 6852   2.272   2.675   3.113
 2276SOL    HW1 6853   2.358   2.687   3.163
 2276SOL    HW2 6854   2.230   2.588   3.140
 2277SOL     OW 6855   3.136   2.248   3.124
 2277SOL    HW1 6856   3.157   2.322   3.188
 2277SOL    HW2 6857   3.047   2.265   3.081
 2278SOL     OW 6858   1.926   3.426   3.193
 2278SOL    HW1 6859   1.880   3.508   3.159
 2278SOL    HW2 6860   2.024   3.445   3.202
 2279SOL     OW 6861   2.229   2.962   2.363
 2279SOL    HW1 6862   2.222   3.045   2.307
 2279SOL    HW2 6863   2.233   2.882   2.303
 2280SOL     OW 6864   3.114   3.210   2.250
 2280SOL    HW1 6865   3.164   3.287   2.290
 2280SOL    HW2 6866   3.019   3.212   2.282
 2281SOL     OW 6867   3.134   3.307   3.004
 2281SOL    HW1 6868   3.181   3.320   3.091
 2281SOL    HW2 6869   3.068   3.233   3.013
 2282SOL     OW 6870   3.444   2.501   2.334
 2282SOL    HW1 6871   3.413   2.562   2.407
 2282SOL    HW2 6872   3.494   2.553   2.265
 2283SOL     OW 6873   2.216   3.372   3.191
 2283SOL    HW1 6874   2.195   3.328   3.104
 2283SOL    HW2 6875   2.313   3.398   3.194
 2284SOL     OW 6876   2.264   2.613   3.460
 2284SOL    HW1 6877   2.332   2.668   3.413
 2284SOL    HW2 6878   2.304   2.525   3.487
 2285SOL     OW 6879   3.449   2.641   3.532
 2285SOL    HW1 6880   3.357   2.679   3.527
 2285SOL    HW2 6881   3.509   2.688   3.467
 2286SOL     OW 6882   2.875   1.967   3.632
 2286SOL    HW1 6883   2.881   2.052   3.580
 2286SOL    HW2 6884   2.907   1.891   3.575
 2287SOL     OW 6885   2.366   1.912   3.602
 2287SOL    HW1 6886   2.324   1.855   3.532
 2287SOL    HW2 6887   2.300   1.981   3.634
 2288SOL     OW 6888   2.435   2.732   2.891
 2288SOL    HW1 6889   2.479   2.821   2.882
 2288SOL    HW2 6890   2.372   2.732   2.968
 2289SOL     OW 6891   3.222   2.724   2.907
 2289SOL    HW1 6892   3.147   2.724   2.841
 2289SOL    HW2 6893   3.259   2.632   2.916
 2290SOL     OW 6894   3.071   2.387   2.137
 2290SOL    HW1 6895   3.084   2.303   2.191
 2290SOL    HW2 6896   3.042   2.461   2.197
 2291SOL     OW 6897   2.169   2.075   3.093
 2291SOL    HW1 6898   2.146   2.112   3.183
 2291SOL    HW2 6899   2.139   1.980   3.087
 2292SOL     OW 6900   1.899   3.172   3.144
 2292SOL    HW1 6901   1.952   3.123   3.212
 2292SOL    HW2 6902   1.921   3.270   3.149
 2293SOL     OW 6903   2.594   2.496   2.926
 2293SOL    HW1 6904   2.653   2.470   2.850
 2293SOL    HW2 6905   2.566   2.592   2.915
 2294SOL     OW 6906   3.590   2.797   3.716
 2294SOL    HW1 6907   3.544   2.790   3.627
 2294SOL    HW2 6908   3.528   2.841   3.782
 2295SOL     OW 6909   3.484   2.229   2.236
 2295SOL    HW1 6910   3.486   2.153   2.300
 2295SOL    HW2 6911   3.436   2.306   2.276
 2296SOL     OW 6912   2.885   2.628   2.828
 2296SOL    HW1 6913   2.900   2.649   2.924
 2296SOL    HW2 6914   2.855   2.533   2.819
 2297SOL     OW 6915   2.842   3.435   3.562
 2297SOL    HW1 6916   2.822   3.479   3.474
 2297SOL    HW2 6917   2.881   3.344   3.546
 2298SOL     OW 6918   3.721   3.380   3.467
 2298SOL    HW1 6919   3.735   3.407   3.372
 2298SOL    HW2 6920   3.804   3.402   3.520
 2299SOL     OW 6921   2.212   2.760   3.666
 2299SOL    HW1 6922   2.288   2.804   3.714
 2299SOL    HW2 6923   2.247   2.713   3.584
 2300SOL     OW 6924   3.402   2.136   1.987
 2300SOL    HW1 6925   3.341   2.061   2.010
 2300SOL    HW2 6926   3.424   2.188   2.070
 2301SOL     OW 6927   3.165   2.700   1.904
 2301SOL    HW1 6928   3.199   2.607   1.919
 2301SOL    HW2 6929   3.183   2.727   1.809
 2302SOL     OW 6930   2.930   3.195   2.711
 2302SOL    HW1 6931   2.937   3.111   2.656
 2302SOL    HW2 6932   2.992   3.264   2.675
 2303SOL     OW 6933   2.181   2.672   2.811
 2303SOL    HW1 6934   2.274   2.708   2.816
 2303SOL    HW2 6935   2.175   2.587   2.863
 2304SOL     OW 6936   3.000   2.242   3.540
 2304SOL    HW1 6937   2.955   2.305   3.604
 2304SOL    HW2 6938   3.093   2.273   3.523
 2305SOL     OW 6939   3.022   2.069   3.339
 2305SOL    HW1 6940   3.022   2.133   3.416
 2305SOL    HW2 6941   3.050   2.117   3.256
 2306SOL     OW 6942   1.870   3.188   2.062
 2306SOL    HW1 6943   1.777   3.209   2.031
 2306SOL    HW2 6944   1.880   3.089   2.075
 2307SOL     OW 6945   1.950   3.663   2.789
 2307SOL    HW1 6946   1.908   3.577   2.762
 2307SOL    HW2 6947   2.044   3.666   2.755
 2308SOL     OW 6948   2.366   3.430   2.772
 2308SOL    HW1 6949   2.432   3.504   2.781
 2308SOL    HW2 6950   2.410   3.351   2.730
 2309SOL     OW 6951   2.864   2.658   3.100
 2309SOL    HW1 6952   2.905   2.626   3.186
 2309SOL    HW2 6953   2.768   2.631   3.097
 2310SOL     OW 6954   1.902   2.406   2.976
 2310SOL    HW1 6955   1.987   2.373   2.935
 2310SOL    HW2 6956   1.915   2.421   3.074
 2311SOL     OW 6957   2.051   2.382   3.584
 2311SOL    HW1 6958   2.110   2.342   3.514
 2311SOL    HW2 6959   1.993   2.453   3.543
 2312SOL     OW 6960   3.231   2.812   3.522
 2312SOL    HW1 6961   3.270   2.901   3.542
 2312SOL    HW2 6962   3.241   2.792   3.425
 2313SOL     OW 6963   3.519   2.466   3.068
 2313SOL    HW1 6964   3.481   2.397   3.130
 2313SOL    HW2 6965   3.601   2.430   3.024
 2314SOL     OW 6966   2.114   3.426   3.606
 2314SOL    HW1 6967   2.084   3.483   3.682
 2314SOL    HW2 6968   2.107   3.329   3.632
 2315SOL     OW 6969   2.533   2.326   3.131
 2315SOL    HW1 6970   2.499   2.237   3.101
 2315SOL    HW2 6971   2.559   2.380   3.051
 2316SOL     OW 6972   2.792   3.540   3.327
 2316SOL    HW1 6973   2.768   3.522   3.232
 2316SOL    HW2 6974   2.822   3.634   3.337
 2317SOL     OW 6975   2.021   2.999   3.328
 2317SOL    HW1 6976   2.043   2.938   3.404
 2317SOL    HW2 6977   2.031   2.950   3.242
 2318SOL     OW 6978   3.209   2.921   3.096
 2318SOL    HW1 6979   3.233   2.858   3.022
 2318SOL    HW2 6980   3.119   2.961   3.078
 2319SOL     OW 6981   3.164   2.717   2.171
 2319SOL    HW1 6982   3.078   2.686   2.213
 2319SOL    HW2 6983   3.160   2.703   2.072
 2320SOL     OW 6984   3.621   3.609   3.016
 2320SOL    HW1 6985   3.682   3.639   2.943
 2320SOL    HW2 6986   3.583   3.520   2.994
 2321SOL     OW 6987   3.114   3.593   2.990
 2321SOL    HW1 6988   3.198   3.598   2.936
 2321SOL    HW2 6989   3.091   3.497   3.008
 2322SOL     OW 6990   1.945   3.120   2.884
 2322SOL    HW1 6991   1.940   3.119   2.984
 2322SOL    HW2 6992   1.862   3.079   2.846
 2323SOL     OW 6993   2.550   3.524   3.578
 2323SOL    HW1 6994   2.494   3.605   3.587
 2323SOL    HW2 6995   2.602   3.528   3.492
 2324SOL     OW 6996   3.588   1.997   2.385
 2324SOL    HW1 6997   3.661   1.980   2.318
 2324SOL    HW2 6998   3.557   1.910   2.423
 2325SOL     OW 6999   3.250   3.435   2.339
 2325SOL    HW1 7000   3.317   3.447   2.265
 2325SOL    HW2 7001   3.210   3.524   2.362
 2326SOL     OW 7002   1.992   3.656   3.713
 2326SOL    HW1 7003   1.951   3.582   3.766
 2326SOL    HW2 7004   2.056   3.707   3.771
 2327SOL     OW 7005   3.142   2.789   2.534
 2327SOL    HW1 7006   3.202   2.708   2.536
 2327SOL    HW2 7007   3.182   2.858   2.474
 2328SOL     OW 7008   2.692   3.135   3.284
 2328SOL    HW1 7009   2.687   3.168   3.379
 2328SOL    HW2 7010   2.606   3.154   3.238
 2329SOL     OW 7011   2.534   3.478   2.016
 2329SOL    HW1 7012   2.543   3.488   1.917
 2329SOL    HW2 7013   2.494   3.389   2.037
 2330SOL     OW 7014   3.512   3.582   3.256
 2330SOL    HW1 7015   3.565   3.592   3.172
 2330SOL    HW2 7016   3.485   3.672   3.290
 2331SOL     OW 7017   3.703   2.037   2.825
 2331SOL    HW1 7018   3.742   1.952   2.789
 2331SOL    HW2 7019   3.605   2.039   2.806
 2332SOL     OW 7020   3.056   3.474   1.893
 2332SOL    HW1 7021   3.062   3.381   1.930
 2332SOL    HW2 7022   2.997   3.474   1.813
 2333SOL     OW 7023   2.684   2.864   3.234
 2333SOL    HW1 7024   2.724   2.863   3.142
 2333SOL    HW2 7025   2.694   2.956   3.274
 2334SOL     OW 7026   2.778   2.772   2.153
 2334SOL    HW1 7027   2.841   2.810   2.085
 2334SOL    HW2 7028   2.818   2.689   2.192
 2335SOL     OW 7029   3.366   3.469   1.906
 2335SOL    HW1 7030   3.274   3.506   1.913
 2335SOL    HW2 7031   3.404   3.489   1.816
 2336SOL     OW 7032   2.234   3.150   3.352
 2336SOL    HW1 7033   2.221   3.243   3.318
 2336SOL    HW2 7034   2.150   3.098   3.339
 2337SOL     OW 7035   3.476   3.154   3.151
 2337SOL    HW1 7036   3.536   3.157   3.231
 2337SOL    HW2 7037   3.401   3.218   3.164
 2338SOL     OW 7038   2.901   2.960   2.558
 2338SOL    HW1 7039   2.831   2.913   2.612
 2338SOL    HW2 7040   2.960   2.892   2.515
 2339SOL     OW 7041   2.876   2.098   2.833
 2339SOL    HW1 7042   2.868   2.062   2.740
 2339SOL    HW2 7043   2.874   2.022   2.898
 2340SOL     OW 7044   2.452   3.349   2.353
 2340SOL    HW1 7045   2.494   3.291   2.283
 2340SOL    HW2 7046   2.408   3.428   2.309
 2341SOL     OW 7047   3.571   2.247   3.243
 2341SOL    HW1 7048   3.644   2.316   3.247
 2341SOL    HW2 7049   3.599   2.172   3.184
 2342SOL     OW 7050   2.117   3.210   2.152
 2342SOL    HW1 7051   2.021   3.211   2.125
 2342SOL    HW2 7052   2.129   3.263   2.236
 2343SOL     OW 7053   1.967   2.875   3.588
 2343SOL    HW1 7054   1.890   2.842   3.642
 2343SOL    HW2 7055   2.052   2.845   3.630
 2344SOL     OW 7056   2.534   2.065   3.351
 2344SOL    HW1 7057   2.624   2.049   3.311
 2344SOL    HW2 7058   2.542   2.070   3.450
 2345SOL     OW 7059   1.937   2.207   1.895
 2345SOL    HW1 7060   1.845   2.179   1.866
 2345SOL    HW2 7061   1.968   2.284   1.839
 2346SOL     OW 7062   3.302   2.718   3.260
 2346SOL    HW1 7063   3.245   2.770   3.197
 2346SOL    HW2 7064   3.398   2.730   3.236
 2347SOL     OW 7065   1.934   2.028   2.180
 2347SOL    HW1 7066   1.917   2.111   2.126
 2347SOL    HW2 7067   2.024   1.991   2.158
 2348SOL     OW 7068   3.045   3.197   1.981
 2348SOL    HW1 7069   2.946   3.186   1.983
 2348SOL    HW2 7070   3.079   3.212   2.074
 2349SOL     OW 7071   2.475   2.704   3.293
 2349SOL    HW1 7072   2.531   2.785   3.276
 2349SOL    HW2 7073   2.534   2.624   3.296
 2350SOL     OW 7074   3.355   3.629   2.821
 2350SOL    HW1 7075   3.388   3.693   2.752
 2350SOL    HW2 7076   3.421   3.623   2.896
 2351SOL     OW 7077   2.578   2.427   3.570
 2351SOL    HW1 7078   2.597   2.492   3.644
 2351SOL    HW2 7079   2.638   2.347   3.579
 2352SOL     OW 7080   3.312   3.082   3.495
 2352SOL    HW1 7081   3.303   3.072   3.594
 2352SOL    HW2 7082   3.408   3.075   3.469
 2353SOL     OW 7083   2.252   3.603   3.422
 2353SOL    HW1 7084   2.161   3.644   3.420
 2353SOL    HW2 7085   2.245   3.509   3.454
 2354SOL     OW 7086   3.536   2.745   3.116
 2354SOL    HW1 7087   3.509   2.656   3.079
 2354SOL    HW2 7088   3.537   2.813   3.043
 2355SOL     OW 7089   3.087   2.187   2.311
 2355SOL    HW1 7090   3.152   2.113   2.300
 2355SOL    HW2 7091   3.107   2.237   2.395
 2356SOL     OW 7092   3.639   2.204   3.504
 2356SOL    HW1 7093   3.622   2.235   3.410
 2356SOL    HW2 7094   3.555   2.167   3.542
 2357SOL     OW 7095   3.592   2.796   3.379
 2357SOL    HW1 7096   3.630   2.887   3.394
 2357SOL    HW2 7097   3.584   2.779   3.280
 2358SOL     OW 7098   2.721   3.236   1.878
 2358SOL    HW1 7099   2.675   3.251   1.966
 2358SOL    HW2 7100   2.765   3.321   1.848
 2359SOL     OW 7101   2.523   3.652   2.815
 2359SOL    HW1 7102   2.477   3.740   2.802
 2359SOL    HW2 7103   2.622   3.664   2.808
 2360SOL     OW 7104   2.721   2.818   2.723
 2360SOL    HW1 7105   2.775   2.749   2.771
 2360SOL    HW2 7106   2.689   2.887   2.789
 2361SOL     OW 7107   2.945   2.846   1.949
 2361SOL    HW1 7108   2.922   2.899   1.867
 2361SOL    HW2 7109   3.026   2.790   1.930
 2362SOL     OW 7110   3.723   3.431   2.713
 2362SOL    HW1 7111   3.652   3.419   2.643
 2362SOL    HW2 7112   3.724   3.352   2.773
 2363SOL     OW 7113   2.083   3.176   3.706
 2363SOL    HW1 7114   2.018   3.103   3.685
 2363SOL    HW2 7115   2.087   3.190   3.804
 2364SOL     OW 7116   1.941   3.102   2.515
 2364SOL    HW1 7117   1.940   3.055   2.603
 2364SOL    HW2 7118   2.023   3.074   2.464
 2365SOL     OW 7119   2.534   3.253   3.486
 2365SOL    HW1 7120   2.456   3.203   3.524
 2365SOL    HW2 7121   2.531   3.348   3.517
 2366SOL     OW 7122   3.686   2.054   3.089
 2366SOL    HW1 7123   3.682   1.964   3.133
 2366SOL    HW2 7124   3.689   2.043   2.990
 2367SOL     OW 7125   3.567   3.349   2.966
 2367SOL    HW1 7126   3.474   3.324   2.939
 2367SOL    HW2 7127   3.593   3.299   3.048
 2368SOL     OW 7128   2.179   2.409   3.142
 2368SOL    HW1 7129   2.217   2.350   3.214
 2368SOL    HW2 7130   2.219   2.383   3.054
 2369SOL     OW 7131   2.674   3.448   2.549
 2369SOL    HW1 7132   2.706   3.458   2.455
 2369SOL    HW2 7133   2.595   3.386   2.551
 2370SOL     OW 7134   3.286   2.076   2.974
 2370SOL    HW1 7135   3.338   2.011   3.029
 2370SOL    HW2 7136   3.237   2.139   3.035
 2371SOL     OW 7137   2.863   1.896   3.016
 2371SOL    HW1 7138   2.800   1.824   2.985
 2371SOL    HW2 7139   2.956   1.860   3.016
 2372SOL     OW 7140   2.632   3.192   2.163
 2372SOL    HW1 7141   2.586   3.105   2.180
 2372SOL    HW2 7142   2.723   3.189   2.204
 2373SOL     OW 7143   2.480   3.429   3.146
 2373SOL    HW1 7144   2.475   3.511   3.203
 2373SOL    HW2 7145   2.569   3.426   3.101
 2374SOL     OW 7146   3.214   1.914   2.030
 2374SOL    HW1 7147   3.249   1.873   1.946
 2374SOL    HW2 7148   3.124   1.876   2.050
 2375SOL     OW 7149   3.162   2.315   2.553
 2375SOL    HW1 7150   3.103   2.395   2.557
 2375SOL    HW2 7151   3.177   2.280   2.646
 2376SOL     OW 7152   3.455   2.083   2.744
 2376SOL    HW1 7153   3.371   2.082   2.798
 2376SOL    HW2 7154   3.457   2.166   2.688
 2377SOL     OW 7155   1.901   2.939   2.162
 2377SOL    HW1 7156   2.000   2.928   2.153
 2377SOL    HW2 7157   1.861   2.853   2.194
 2378SOL     OW 7158   2.737   3.508   2.199
 2378SOL    HW1 7159   2.660   3.473   2.145
 2378SOL    HW2 7160   2.705   3.579   2.261
 2379SOL     OW 7161   2.092   2.490   3.837
 2379SOL    HW1 7162   1.999   2.488   3.874
 2379SOL    HW2 7163   2.093   2.451   3.745
 2380SOL     OW 7164   2.087   2.137   4.720
 2380SOL    HW1 7165   2.122   2.120   4.812
 2380SOL    HW2 7166   1.999   2.092   4.708
 2381SOL     OW 7167   1.881   2.230   4.371
 2381SOL    HW1 7168   1.799   2.273   4.410
 2381SOL    HW2 7169   1.853   2.157   4.308
 2382SOL     OW 7170   3.417   3.373   4.427
 2382SOL    HW1 7171   3.360   3.357   4.508
 2382SOL    HW2 7172   3.358   3.383   4.347
 2383SOL     OW 7173   2.997   2.565   4.441
 2383SOL    HW1 7174   3.054   2.643   4.416
 2383SOL    HW2 7175   2.937   2.591   4.517
 2384SOL     OW 7176   3.617   2.469   3.955
 2384SOL    HW1 7177   3.605   2.456   3.856
 2384SOL    HW2 7178   3.587   2.388   4.004
 2385SOL     OW 7179   2.630   3.006   4.747
 2385SOL    HW1 7180   2.552   3.023   4.807
 2385SOL    HW2 7181   2.664   3.093   4.711
 2386SOL     OW 7182   2.547   2.874   4.389
 2386SOL    HW1 7183   2.616   2.858   4.459
 2386SOL    HW2 7184   2.474   2.931   4.427
 2387SOL     OW 7185   2.197   3.297   4.785
 2387SOL    HW1 7186   2.119   3.266   4.732
 2387SOL    HW2 7187   2.255   3.355   4.728
 2388SOL     OW 7188   3.465   2.309   4.461
 2388SOL    HW1 7189   3.391   2.355   4.411
 2388SOL    HW2 7190   3.516   2.377   4.514
 2389SOL     OW 7191   2.093   3.575   4.207
 2389SOL    HW1 7192   2.127   3.652   4.261
 2389SOL    HW2 7193   2.137   3.575   4.117
 2390SOL     OW 7194   2.092   3.296   4.262
 2390SOL    HW1 7195   2.066   3.392   4.262
 2390SOL    HW2 7196   2.021   3.242   4.307
 2391SOL     OW 7197   2.102   2.953   4.610
 2391SOL    HW1 7198   2.116   2.869   4.662
 2391SOL    HW2 7199   2.047   3.017   4.665
 2392SOL     OW 7200   2.468   2.826   3.847
 2392SOL    HW1 7201   2.475   2.910   3.793
 2392SOL    HW2 7202   2.514   2.839   3.935
 2393SOL     OW 7203   1.984   2.505   4.287
 2393SOL    HW1 7204   1.939   2.417   4.304
 2393SOL    HW2 7205   1.983   2.559   4.371
 2394SOL     OW 7206   3.704   3.629   4.083
 2394SOL    HW1 7207   3.758   3.600   4.163
 2394SOL    HW2 7208   3.734   3.719   4.054
 2395SOL     OW 7209   1.889   3.458   3.841
 2395SOL    HW1 7210   1.870   3.362   3.862
 2395SOL    HW2 7211   1.856   3.516   3.916
 2396SOL     OW 7212   3.551   2.784   4.336
 2396SOL    HW1 7213   3.646   2.755   4.344
 2396SOL    HW2 7214   3.543   2.849   4.261
 2397SOL     OW 7215   3.503   2.970   4.156
 2397SOL    HW1 7216   3.589   2.972   4.104
 2397SOL    HW2 7217   3.517   3.017   4.244
 2398SOL     OW 7218   2.475   3.227   4.450
 2398SOL    HW1 7219   2.426   3.140   4.459
 2398SOL    HW2 7220   2.452   3.270   4.363
 2399SOL     OW 7221   2.671   1.866   4.226
 2399SOL    HW1 7222   2.711   1.957   4.217
 2399SOL    HW2 7223   2.571   1.874   4.232
 2400SOL     OW 7224   3.387   2.861   3.914
 2400SOL    HW1 7225   3.324   2.785   3.927
 2400SOL    HW2 7226   3.435   2.879   4.000
 2401SOL     OW 7227   3.328   3.279   4.677
 2401SOL    HW1 7228   3.269   3.285   4.757
 2401SOL    HW2 7229   3.313   3.191   4.631
 2402SOL     OW 7230   3.529   3.576   4.296
 2402SOL    HW1 7231   3.488   3.553   4.208
 2402SOL    HW2 7232   3.511   3.502   4.361
 2403SOL     OW 7233   2.460   2.591   3.994
 2403SOL    HW1 7234   2.484   2.660   3.926
 2403SOL    HW2 7235   2.382   2.624   4.048
 2404SOL     OW 7236   3.143   2.207   4.668
 2404SOL    HW1 7237   3.057   2.157   4.655
 2404SOL    HW2 7238   3.205   2.153   4.724
 2405SOL     OW 7239   3.438   3.524   4.031
 2405SOL    HW1 7240   3.527   3.570   4.034
 2405SOL    HW2 7241   3.417   3.500   3.936
 2406SOL     OW 7242   2.903   2.563   4.153
 2406SOL    HW1 7243   2.929   2.559   4.249
 2406SOL    HW2 7244   2.818   2.512   4.139
 2407SOL     OW 7245   1.938   2.673   4.513
 2407SOL    HW1 7246   2.037   2.661   4.522
 2407SOL    HW2 7247   1.914   2.768   4.534
 2408SOL     OW 7248   2.727   2.210   3.919
 2408SOL    HW1 7249   2.786   2.273   3.870
 2408SOL    HW2 7250   2.746   2.116   3.890
 2409SOL     OW 7251   3.224   3.006   4.269
 2409SOL    HW1 7252   3.307   2.977   4.221
 2409SOL    HW2 7253   3.175   3.073   4.213
 2410SOL     OW 7254   2.412   2.058   4.609
 2410SOL    HW1 7255   2.407   2.053   4.709
 2410SOL    HW2 7256   2.414   2.154   4.580
 2411SOL     OW 7257   2.870   3.318   4.201
 2411SOL    HW1 7258   2.824   3.390   4.149
 2411SOL    HW2 7259   2.866   3.338   4.299
 2412SOL     OW 7260   2.213   3.663   4.577
 2412SOL    HW1 7261   2.263   3.577   4.583
 2412SOL    HW2 7262   2.278   3.740   4.574
 2413SOL     OW 7263   3.657   2.928   4.597
 2413SOL    HW1 7264   3.595   2.913   4.521
 2413SOL    HW2 7265   3.605   2.939   4.682
 2414SOL     OW 7266   2.183   2.805   3.966
 2414SOL    HW1 7267   2.265   2.844   3.924
 2414SOL    HW2 7268   2.156   2.723   3.917
 2415SOL     OW 7269   3.320   2.597   4.452
 2415SOL    HW1 7270   3.315   2.532   4.527
 2415SOL    HW2 7271   3.400   2.656   4.465
 2416SOL     OW 7272   2.973   3.638   3.961
 2416SOL    HW1 7273   2.913   3.576   4.011
 2416SOL    HW2 7274   3.004   3.594   3.876
 2417SOL     OW 7275   3.494   3.239   3.805
 2417SOL    HW1 7276   3.462   3.333   3.795
 2417SOL    HW2 7277   3.418   3.176   3.793
 2418SOL     OW 7278   2.326   3.605   4.047
 2418SOL    HW1 7279   2.359   3.644   4.133
 2418SOL    HW2 7280   2.402   3.598   3.982
 2419SOL     OW 7281   3.262   1.969   4.150
 2419SOL    HW1 7282   3.238   1.932   4.060
 2419SOL    HW2 7283   3.361   1.985   4.154
 2420SOL     OW 7284   2.111   3.647   4.965
 2420SOL    HW1 7285   2.168   3.582   5.015
 2420SOL    HW2 7286   2.095   3.614   4.872
 2421SOL     OW 7287   2.802   3.560   4.628
 2421SOL    HW1 7288   2.882   3.503   4.649
 2421SOL    HW2 7289   2.753   3.520   4.551
 2422SOL     OW 7290   2.244   2.562   4.204
 2422SOL    HW1 7291   2.289   2.472   4.201
 2422SOL    HW2 7292   2.150   2.551   4.237
 2423SOL     OW 7293   2.476   1.984   3.841
 2423SOL    HW1 7294   2.574   1.962   3.848
 2423SOL    HW2 7295   2.445   1.967   3.748
 2424SOL     OW 7296   2.665   3.264   4.648
 2424SOL    HW1 7297   2.755   3.278   4.606
 2424SOL    HW2 7298   2.594   3.266   4.577
 2425SOL     OW 7299   2.784   2.365   4.623
 2425SOL    HW1 7300   2.759   2.356   4.527
 2425SOL    HW2 7301   2.832   2.283   4.654
 2426SOL     OW 7302   2.401   1.926   4.236
 2426SOL    HW1 7303   2.320   1.927   4.294
 2426SOL    HW2 7304   2.404   2.009   4.181
 2427SOL     OW 7305   3.296   3.050   3.765
 2427SOL    HW1 7306   3.328   2.974   3.822
 2427SOL    HW2 7307   3.204   3.077   3.795
 2428SOL     OW 7308   2.159   1.897   3.895
 2428SOL    HW1 7309   2.208   1.981   3.874
 2428SOL    HW2 7310   2.221   1.832   3.940
 2429SOL     OW 7311   2.797   2.098   4.204
 2429SOL    HW1 7312   2.749   2.139   4.126
 2429SOL    HW2 7313   2.896   2.096   4.185
 2430SOL     OW 7314   3.089   3.432   4.517
 2430SOL    HW1 7315   3.110   3.506   4.452
 2430SOL    HW2 7316   3.157   3.432   4.590
 2431SOL     OW 7317   2.321   3.014   4.465
 2431SOL    HW1 7318   2.250   2.987   4.530
 2431SOL    HW2 7319   2.295   2.986   4.372
 2432SOL     OW 7320   3.133   3.659   4.315
 2432SOL    HW1 7321   3.177   3.723   4.251
 2432SOL    HW2 7322   3.083   3.711   4.385
 2433SOL     OW 7323   2.894   2.411   3.740
 2433SOL    HW1 7324   2.853   2.493   3.701
 2433SOL    HW2 7325   2.958   2.437   3.813
 2434SOL     OW 7326   2.728   2.316   4.366
 2434SOL    HW1 7327   2.696   2.388   4.304
 2434SOL    HW2 7328   2.752   2.235   4.313
 2435SOL     OW 7329   2.879   1.901   4.477
 2435SOL    HW1 7330   2.807   1.906   4.408
 2435SOL    HW2 7331   2.855   1.832   4.546
 2436SOL     OW 7332   3.291   3.035   4.591
 2436SOL    HW1 7333   3.236   2.951   4.584
 2436SOL    HW2 7334   3.317   3.064   4.499
 2437SOL     OW 7335   3.328   2.452   4.716
 2437SOL    HW1 7336   3.298   2.357   4.723
 2437SOL    HW2 7337   3.401   2.468   4.782
 2438SOL     OW 7338   3.719   2.695   4.101
 2438SOL    HW1 7339   3.761   2.631   4.165
 2438SOL    HW2 7340   3.681   2.644   4.023
 2439SOL     OW 7341   2.350   3.247   3.898
 2439SOL    HW1 7342   2.263   3.232   3.945
 2439SOL    HW2 7343   2.333   3.273   3.803
 2440SOL     OW 7344   3.526   3.142   4.381
 2440SOL    HW1 7345   3.625   3.150   4.395
 2440SOL    HW2 7346   3.481   3.226   4.412
 2441SOL     OW 7347   3.252   2.437   3.802
 2441SOL    HW1 7348   3.198   2.416   3.883
 2441SOL    HW2 7349   3.343   2.396   3.811
 2442SOL     OW 7350   2.389   2.118   4.052
 2442SOL    HW1 7351   2.416   2.059   3.977
 2442SOL    HW2 7352   2.389   2.213   4.021
 2443SOL     OW 7353   3.500   2.961   4.803
 2443SOL    HW1 7354   3.505   3.042   4.862
 2443SOL    HW2 7355   3.414   2.963   4.752
 2444SOL     OW 7356   2.567   2.912   4.092
 2444SOL    HW1 7357   2.553   2.919   4.191
 2444SOL    HW2 7358   2.651   2.861   4.074
 2445SOL     OW 7359   2.229   2.962   4.225
 2445SOL    HW1 7360   2.222   3.045   4.169
 2445SOL    HW2 7361   2.233   2.882   4.165
 2446SOL     OW 7362   2.428   2.399   4.589
 2446SOL    HW1 7363   2.440   2.465   4.515
 2446SOL    HW2 7364   2.474   2.433   4.672
 2447SOL     OW 7365   3.114   3.210   4.112
 2447SOL    HW1 7366   3.164   3.287   4.152
 2447SOL    HW2 7367   3.019   3.212   4.144
 2448SOL     OW 7368   3.444   2.501   4.196
 2448SOL    HW1 7369   3.413   2.562   4.269
 2448SOL    HW2 7370   3.494   2.553   4.127
 2449SOL     OW 7371   2.435   2.732   4.753
 2449SOL    HW1 7372   2.479   2.821   4.744
 2449SOL    HW2 7373   2.372   2.732   4.830
 2450SOL     OW 7374   3.071   2.387   3.999
 2450SOL    HW1 7375   3.084   2.303   4.053
 2450SOL    HW2 7376   3.042   2.461   4.059
 2451SOL     OW 7377   2.169   2.075   4.955
 2451SOL    HW1 7378   2.146   2.112   5.045
 2451SOL    HW2 7379   2.139   1.980   4.949
 2452SOL     OW 7380   2.594   2.496   4.788
 2452SOL    HW1 7381   2.653   2.470   4.712
 2452SOL    HW2 7382   2.566   2.592   4.777
 2453SOL     OW 7383   2.169   1.925   4.342
 2453SOL    HW1 7384   2.158   2.019   4.375
 2453SOL    HW2 7385   2.164   1.862   4.419
 2454SOL     OW 7386   3.484   2.229   4.098
 2454SOL    HW1 7387   3.486   2.153   4.162
 2454SOL    HW2 7388   3.436   2.306   4.138
 2455SOL     OW 7389   3.402   2.136   3.849
 2455SOL    HW1 7390   3.341   2.061   3.872
 2455SOL    HW2 7391   3.424   2.188   3.932
 2456SOL     OW 7392   3.165   2.700   3.766
 2456SOL    HW1 7393   3.199   2.607   3.781
 2456SOL    HW2 7394   3.183   2.727   3.671
 2457SOL     OW 7395   2.930   3.195   4.573
 2457SOL    HW1 7396   2.937   3.111   4.518
 2457SOL    HW2 7397   2.992   3.264   4.537
 2458SOL     OW 7398   2.181   2.672   4.673
 2458SOL    HW1 7399   2.274   2.708   4.678
 2458SOL    HW2 7400   2.175   2.587   4.725
 2459SOL     OW 7401   2.201   2.371   4.730
 2459SOL    HW1 7402   2.149   2.288   4.713
 2459SOL    HW2 7403   2.278   2.376   4.666
 2460SOL     OW 7404   1.870   3.188   3.924
 2460SOL    HW1 7405   1.777   3.209   3.893
 2460SOL    HW2 7406   1.880   3.089   3.937
 2461SOL     OW 7407   1.950   3.663   4.651
 2461SOL    HW1 7408   1.908   3.577   4.624
 2461SOL    HW2 7409   2.044   3.666   4.617
 2462SOL     OW 7410   2.366   3.430   4.634
 2462SOL    HW1 7411   2.432   3.504   4.643
 2462SOL    HW2 7412   2.410   3.351   4.592
 2463SOL     OW 7413   2.864   2.658   4.962
 2463SOL    HW1 7414   2.905   2.626   5.048
 2463SOL    HW2 7415   2.768   2.631   4.959
 2464SOL     OW 7416   2.677   2.434   4.049
 2464SOL    HW1 7417   2.684   2.345   4.003
 2464SOL    HW2 7418   2.583   2.468   4.041
 2465SOL     OW 7419   2.533   2.326   4.993
 2465SOL    HW1 7420   2.499   2.237   4.963
 2465SOL    HW2 7421   2.559   2.380   4.913
 2466SOL     OW 7422   2.335   2.362   3.915
 2466SOL    HW1 7423   2.396   2.442   3.919
 2466SOL    HW2 7424   2.240   2.393   3.922
 2467SOL     OW 7425   3.164   2.717   4.033
 2467SOL    HW1 7426   3.078   2.686   4.075
 2467SOL    HW2 7427   3.160   2.703   3.934
 2468SOL     OW 7428   3.621   3.609   4.878
 2468SOL    HW1 7429   3.682   3.639   4.805
 2468SOL    HW2 7430   3.583   3.520   4.856
 2469SOL     OW 7431   1.945   3.120   4.746
 2469SOL    HW1 7432   1.940   3.119   4.846
 2469SOL    HW2 7433   1.862   3.079   4.708
 2470SOL     OW 7434   3.588   1.997   4.247
 2470SOL    HW1 7435   3.661   1.980   4.180
 2470SOL    HW2 7436   3.557   1.910   4.285
 2471SOL     OW 7437   3.250   3.435   4.201
 2471SOL    HW1 7438   3.317   3.447   4.127
 2471SOL    HW2 7439   3.210   3.524   4.224
 2472SOL     OW 7440   3.142   2.789   4.396
 2472SOL    HW1 7441   3.202   2.708   4.398
 2472SOL    HW2 7442   3.182   2.858   4.336
 2473SOL     OW 7443   2.534   3.478   3.878
 2473SOL    HW1 7444   2.543   3.488   3.779
 2473SOL    HW2 7445   2.494   3.389   3.899
 2474SOL     OW 7446   3.703   2.037   4.687
 2474SOL    HW1 7447   3.742   1.952   4.651
 2474SOL    HW2 7448   3.605   2.039   4.668
 2475SOL     OW 7449   2.125   2.188   4.444
 2475SOL    HW1 7450   2.046   2.239   4.410
 2475SOL    HW2 7451   2.116   2.173   4.542
 2476SOL     OW 7452   3.056   3.474   3.755
 2476SOL    HW1 7453   3.062   3.381   3.792
 2476SOL    HW2 7454   2.997   3.474   3.675
 2477SOL     OW 7455   2.778   2.772   4.015
 2477SOL    HW1 7456   2.841   2.810   3.947
 2477SOL    HW2 7457   2.818   2.689   4.054
 2478SOL     OW 7458   3.366   3.469   3.768
 2478SOL    HW1 7459   3.274   3.506   3.775
 2478SOL    HW2 7460   3.404   3.489   3.678
 2479SOL     OW 7461   2.901   2.960   4.420
 2479SOL    HW1 7462   2.831   2.913   4.474
 2479SOL    HW2 7463   2.960   2.892   4.377
 2480SOL     OW 7464   2.452   3.349   4.215
 2480SOL    HW1 7465   2.494   3.291   4.145
 2480SOL    HW2 7466   2.408   3.428   4.171
 2481SOL     OW 7467   2.117   3.210   4.014
 2481SOL    HW1 7468   2.021   3.211   3.987
 2481SOL    HW2 7469   2.129   3.263   4.098
 2482SOL     OW 7470   1.937   2.207   3.757
 2482SOL    HW1 7471   1.845   2.179   3.728
 2482SOL    HW2 7472   1.968   2.284   3.701
 2483SOL     OW 7473   1.934   2.028   4.042
 2483SOL    HW1 7474   1.917   2.111   3.988
 2483SOL    HW2 7475   2.024   1.991   4.020
 2484SOL     OW 7476   3.045   3.197   3.843
 2484SOL    HW1 7477   2.946   3.186   3.845
 2484SOL    HW2 7478   3.079   3.212   3.936
 2485SOL     OW 7479   3.536   2.745   4.978
 2485SOL    HW1 7480   3.509   2.656   4.941
 2485SOL    HW2 7481   3.537   2.813   4.905
 2486SOL     OW 7482   3.087   2.187   4.173
 2486SOL    HW1 7483   3.152   2.113   4.162
 2486SOL    HW2 7484   3.107   2.237   4.257
 2487SOL     OW 7485   2.456   2.607   4.376
 2487SOL    HW1 7486   2.506   2.692   4.357
 2487SOL    HW2 7487   2.368   2.609   4.328
 2488SOL     OW 7488   2.721   3.236   3.740
 2488SOL    HW1 7489   2.675   3.251   3.828
 2488SOL    HW2 7490   2.765   3.321   3.710
 2489SOL     OW 7491   2.523   3.652   4.677
 2489SOL    HW1 7492   2.477   3.740   4.664
 2489SOL    HW2 7493   2.622   3.664   4.670
 2490SOL     OW 7494   2.721   2.818   4.585
 2490SOL    HW1 7495   2.775   2.749   4.633
 2490SOL    HW2 7496   2.689   2.887   4.651
 2491SOL     OW 7497   2.945   2.846   3.811
 2491SOL    HW1 7498   2.922   2.899   3.729
 2491SOL    HW2 7499   3.026   2.790   3.792
 2492SOL     OW 7500   3.723   3.431   4.575
 2492SOL    HW1 7501   3.652   3.419   4.505
 2492SOL    HW2 7502   3.724   3.352   4.635
 2493SOL     OW 7503   1.941   3.102   4.377
 2493SOL    HW1 7504   1.940   3.055   4.465
 2493SOL    HW2 7505   2.023   3.074   4.326
 2494SOL     OW 7506   3.686   2.054   4.951
 2494SOL    HW1 7507   3.682   1.964   4.995
 2494SOL    HW2 7508   3.689   2.043   4.852
 2495SOL     OW 7509   2.290   2.286   4.244
 2495SOL    HW1 7510   2.320   2.214   4.182
 2495SOL    HW2 7511   2.251   2.246   4.327
 2496SOL     OW 7512   2.674   3.448   4.411
 2496SOL    HW1 7513   2.706   3.458   4.317
 2496SOL    HW2 7514   2.595   3.386   4.413
 2497SOL     OW 7515   2.632   3.192   4.025
 2497SOL    HW1 7516   2.586   3.105   4.042
 2497SOL    HW2 7517   2.723   3.189   4.066
 2498SOL     OW 7518   3.214   1.914   3.892
 2498SOL    HW1 7519   3.249   1.873   3.808
 2498SOL    HW2 7520   3.124   1.876   3.912
 2499SOL     OW 7521   3.162   2.315   4.415
 2499SOL    HW1 7522   3.103   2.395   4.419
 2499SOL    HW2 7523   3.177   2.280   4.508
 2500SOL     OW 7524   3.455   2.083   4.606
 2500SOL    HW1 7525   3.371   2.082   4.660
 2500SOL    HW2 7526   3.457   2.166   4.550
 2501SOL     OW 7527   1.901   2.939   4.024
 2501SOL    HW1 7528   2.000   2.928   4.015
 2501SOL    HW2 7529   1.861   2.853   4.056
 2502SOL     OW 7530   2.737   3.508   4.061
 2502SOL    HW1 7531   2.660   3.473   4.007
 2502SOL    HW2 7532   2.705   3.579   4.123
 2503SOL     OW 7533   2.092   4.352   0.113
 2503SOL    HW1 7534   1.999   4.350   0.150
 2503SOL    HW2 7535   2.093   4.313   0.021
 2504SOL     OW 7536   2.087   3.999   0.996
 2504SOL    HW1 7537   2.122   3.982   1.088
 2504SOL    HW2 7538   1.999   3.954   0.984
 2505SOL     OW 7539   1.881   4.092   0.647
 2505SOL    HW1 7540   1.799   4.135   0.686
 2505SOL    HW2 7541   1.853   4.019   0.584
 2506SOL     OW 7542   2.997   4.427   0.717
 2506SOL    HW1 7543   3.054   4.505   0.692
 2506SOL    HW2 7544   2.937   4.453   0.793
 2507SOL     OW 7545   3.617   4.331   0.231
 2507SOL    HW1 7546   3.605   4.318   0.132
 2507SOL    HW2 7547   3.587   4.250   0.280
 2508SOL     OW 7548   2.630   4.868   1.023
 2508SOL    HW1 7549   2.552   4.885   1.083
 2508SOL    HW2 7550   2.664   4.955   0.987
 2509SOL     OW 7551   2.712   4.522   1.823
 2509SOL    HW1 7552   2.708   4.598   1.888
 2509SOL    HW2 7553   2.734   4.558   1.732
 2510SOL     OW 7554   2.547   4.736   0.665
 2510SOL    HW1 7555   2.616   4.720   0.735
 2510SOL    HW2 7556   2.474   4.793   0.703
 2511SOL     OW 7557   2.300   4.116   1.499
 2511SOL    HW1 7558   2.382   4.060   1.508
 2511SOL    HW2 7559   2.219   4.058   1.503
 2512SOL     OW 7560   3.465   4.171   0.737
 2512SOL    HW1 7561   3.391   4.217   0.687
 2512SOL    HW2 7562   3.516   4.239   0.790
 2513SOL     OW 7563   2.102   4.815   0.886
 2513SOL    HW1 7564   2.116   4.731   0.938
 2513SOL    HW2 7565   2.047   4.879   0.941
 2514SOL     OW 7566   2.468   4.688   0.123
 2514SOL    HW1 7567   2.475   4.772   0.069
 2514SOL    HW2 7568   2.514   4.701   0.211
 2515SOL     OW 7569   3.456   3.838   1.480
 2515SOL    HW1 7570   3.438   3.905   1.408
 2515SOL    HW2 7571   3.453   3.884   1.569
 2516SOL     OW 7572   1.984   4.367   0.563
 2516SOL    HW1 7573   1.939   4.279   0.580
 2516SOL    HW2 7574   1.983   4.421   0.647
 2517SOL     OW 7575   3.551   4.646   0.612
 2517SOL    HW1 7576   3.646   4.617   0.620
 2517SOL    HW2 7577   3.543   4.711   0.537
 2518SOL     OW 7578   1.975   4.461   1.597
 2518SOL    HW1 7579   2.063   4.448   1.642
 2518SOL    HW2 7580   1.962   4.558   1.575
 2519SOL     OW 7581   2.671   3.728   0.502
 2519SOL    HW1 7582   2.711   3.819   0.493
 2519SOL    HW2 7583   2.571   3.736   0.508
 2520SOL     OW 7584   2.059   4.700   1.264
 2520SOL    HW1 7585   2.148   4.655   1.250
 2520SOL    HW2 7586   1.986   4.635   1.245
 2521SOL     OW 7587   3.387   4.723   0.190
 2521SOL    HW1 7588   3.324   4.647   0.203
 2521SOL    HW2 7589   3.435   4.741   0.276
 2522SOL     OW 7590   2.179   3.975   1.801
 2522SOL    HW1 7591   2.250   4.046   1.807
 2522SOL    HW2 7592   2.091   4.014   1.829
 2523SOL     OW 7593   2.460   4.453   0.270
 2523SOL    HW1 7594   2.484   4.522   0.202
 2523SOL    HW2 7595   2.382   4.486   0.324
 2524SOL     OW 7596   3.143   4.069   0.944
 2524SOL    HW1 7597   3.057   4.019   0.931
 2524SOL    HW2 7598   3.205   4.015   1.000
 2525SOL     OW 7599   2.669   4.329   1.465
 2525SOL    HW1 7600   2.622   4.326   1.554
 2525SOL    HW2 7601   2.618   4.274   1.399
 2526SOL     OW 7602   3.256   4.193   1.674
 2526SOL    HW1 7603   3.236   4.236   1.762
 2526SOL    HW2 7604   3.334   4.131   1.683
 2527SOL     OW 7605   2.835   4.614   1.572
 2527SOL    HW1 7606   2.881   4.530   1.543
 2527SOL    HW2 7607   2.779   4.648   1.497
 2528SOL     OW 7608   2.853   4.134   1.242
 2528SOL    HW1 7609   2.776   4.168   1.296
 2528SOL    HW2 7610   2.819   4.083   1.163
 2529SOL     OW 7611   2.903   4.425   0.429
 2529SOL    HW1 7612   2.929   4.421   0.525
 2529SOL    HW2 7613   2.818   4.374   0.415
 2530SOL     OW 7614   1.938   4.535   0.789
 2530SOL    HW1 7615   2.037   4.523   0.798
 2530SOL    HW2 7616   1.914   4.630   0.810
 2531SOL     OW 7617   2.727   4.072   0.195
 2531SOL    HW1 7618   2.786   4.135   0.146
 2531SOL    HW2 7619   2.746   3.978   0.166
 2532SOL     OW 7620   3.581   4.309   1.831
 2532SOL    HW1 7621   3.555   4.398   1.795
 2532SOL    HW2 7622   3.579   4.241   1.758
 2533SOL     OW 7623   2.412   3.920   0.885
 2533SOL    HW1 7624   2.407   3.915   0.985
 2533SOL    HW2 7625   2.414   4.016   0.856
 2534SOL     OW 7626   3.320   4.459   0.728
 2534SOL    HW1 7627   3.315   4.394   0.803
 2534SOL    HW2 7628   3.400   4.518   0.741
 2535SOL     OW 7629   2.064   4.009   1.498
 2535SOL    HW1 7630   1.984   4.069   1.485
 2535SOL    HW2 7631   2.054   3.960   1.584
 2536SOL     OW 7632   3.262   3.831   0.426
 2536SOL    HW1 7633   3.238   3.794   0.336
 2536SOL    HW2 7634   3.361   3.847   0.430
 2537SOL     OW 7635   2.244   4.424   0.480
 2537SOL    HW1 7636   2.289   4.334   0.477
 2537SOL    HW2 7637   2.150   4.413   0.513
 2538SOL     OW 7638   3.409   3.946   1.729
 2538SOL    HW1 7639   3.404   3.983   1.821
 2538SOL    HW2 7640   3.337   3.877   1.717
 2539SOL     OW 7641   2.476   3.846   0.117
 2539SOL    HW1 7642   2.574   3.824   0.124
 2539SOL    HW2 7643   2.445   3.829   0.024
 2540SOL     OW 7644   2.643   3.988   1.749
 2540SOL    HW1 7645   2.710   3.927   1.792
 2540SOL    HW2 7646   2.570   4.007   1.814
 2541SOL     OW 7647   3.213   4.314   1.433
 2541SOL    HW1 7648   3.241   4.271   1.518
 2541SOL    HW2 7649   3.238   4.410   1.434
 2542SOL     OW 7650   2.784   4.227   0.899
 2542SOL    HW1 7651   2.759   4.218   0.803
 2542SOL    HW2 7652   2.832   4.145   0.930
 2543SOL     OW 7653   2.401   3.788   0.512
 2543SOL    HW1 7654   2.320   3.789   0.570
 2543SOL    HW2 7655   2.404   3.871   0.457
 2544SOL     OW 7656   2.797   3.960   0.480
 2544SOL    HW1 7657   2.749   4.001   0.402
 2544SOL    HW2 7658   2.896   3.958   0.461
 2545SOL     OW 7659   2.938   4.407   1.464
 2545SOL    HW1 7660   2.858   4.346   1.467
 2545SOL    HW2 7661   3.019   4.354   1.440
 2546SOL     OW 7662   2.894   4.273   0.016
 2546SOL    HW1 7663   2.853   4.355  -0.023
 2546SOL    HW2 7664   2.958   4.299   0.089
 2547SOL     OW 7665   1.940   4.280   1.386
 2547SOL    HW1 7666   2.032   4.279   1.345
 2547SOL    HW2 7667   1.934   4.354   1.453
 2548SOL     OW 7668   2.423   3.946   1.147
 2548SOL    HW1 7669   2.461   3.862   1.184
 2548SOL    HW2 7670   2.335   3.965   1.191
 2549SOL     OW 7671   2.728   4.178   0.642
 2549SOL    HW1 7672   2.696   4.250   0.580
 2549SOL    HW2 7673   2.752   4.097   0.589
 2550SOL     OW 7674   2.879   3.763   0.753
 2550SOL    HW1 7675   2.807   3.768   0.684
 2550SOL    HW2 7676   2.855   3.694   0.822
 2551SOL     OW 7677   3.291   4.897   0.867
 2551SOL    HW1 7678   3.236   4.813   0.860
 2551SOL    HW2 7679   3.317   4.926   0.775
 2552SOL     OW 7680   3.328   4.314   0.992
 2552SOL    HW1 7681   3.298   4.219   0.999
 2552SOL    HW2 7682   3.401   4.330   1.058
 2553SOL     OW 7683   3.719   4.557   0.377
 2553SOL    HW1 7684   3.761   4.493   0.441
 2553SOL    HW2 7685   3.681   4.506   0.299
 2554SOL     OW 7686   3.252   4.299   0.078
 2554SOL    HW1 7687   3.198   4.278   0.159
 2554SOL    HW2 7688   3.343   4.258   0.087
 2555SOL     OW 7689   2.389   3.980   0.328
 2555SOL    HW1 7690   2.416   3.921   0.253
 2555SOL    HW2 7691   2.389   4.075   0.297
 2556SOL     OW 7692   3.500   4.823   1.079
 2556SOL    HW1 7693   3.505   4.904   1.138
 2556SOL    HW2 7694   3.414   4.825   1.028
 2557SOL     OW 7695   2.777   3.813   1.402
 2557SOL    HW1 7696   2.802   3.793   1.307
 2557SOL    HW2 7697   2.849   3.869   1.444
 2558SOL     OW 7698   2.272   4.537   1.251
 2558SOL    HW1 7699   2.358   4.549   1.301
 2558SOL    HW2 7700   2.230   4.450   1.278
 2559SOL     OW 7701   3.136   4.110   1.262
 2559SOL    HW1 7702   3.157   4.184   1.326
 2559SOL    HW2 7703   3.047   4.127   1.219
 2560SOL     OW 7704   2.428   4.261   0.865
 2560SOL    HW1 7705   2.440   4.327   0.791
 2560SOL    HW2 7706   2.474   4.295   0.948
 2561SOL     OW 7707   3.444   4.363   0.472
 2561SOL    HW1 7708   3.413   4.424   0.545
 2561SOL    HW2 7709   3.494   4.415   0.403
 2562SOL     OW 7710   2.264   4.475   1.598
 2562SOL    HW1 7711   2.332   4.530   1.551
 2562SOL    HW2 7712   2.304   4.387   1.625
 2563SOL     OW 7713   3.449   4.503   1.670
 2563SOL    HW1 7714   3.357   4.541   1.665
 2563SOL    HW2 7715   3.509   4.550   1.605
 2564SOL     OW 7716   2.875   3.829   1.770
 2564SOL    HW1 7717   2.881   3.914   1.718
 2564SOL    HW2 7718   2.907   3.753   1.713
 2565SOL     OW 7719   2.366   3.774   1.740
 2565SOL    HW1 7720   2.324   3.717   1.670
 2565SOL    HW2 7721   2.300   3.843   1.772
 2566SOL     OW 7722   2.435   4.594   1.029
 2566SOL    HW1 7723   2.479   4.683   1.020
 2566SOL    HW2 7724   2.372   4.594   1.106
 2567SOL     OW 7725   3.222   4.586   1.045
 2567SOL    HW1 7726   3.147   4.586   0.979
 2567SOL    HW2 7727   3.259   4.494   1.054
 2568SOL     OW 7728   3.071   4.249   0.275
 2568SOL    HW1 7729   3.084   4.165   0.329
 2568SOL    HW2 7730   3.042   4.323   0.335
 2569SOL     OW 7731   2.169   3.937   1.231
 2569SOL    HW1 7732   2.146   3.974   1.321
 2569SOL    HW2 7733   2.139   3.842   1.225
 2570SOL     OW 7734   2.594   4.358   1.064
 2570SOL    HW1 7735   2.653   4.332   0.988
 2570SOL    HW2 7736   2.566   4.454   1.053
 2571SOL     OW 7737   3.590   4.659   1.854
 2571SOL    HW1 7738   3.544   4.652   1.765
 2571SOL    HW2 7739   3.528   4.703   1.920
 2572SOL     OW 7740   2.169   3.787   0.618
 2572SOL    HW1 7741   2.158   3.881   0.651
 2572SOL    HW2 7742   2.164   3.724   0.695
 2573SOL     OW 7743   3.484   4.091   0.374
 2573SOL    HW1 7744   3.486   4.015   0.438
 2573SOL    HW2 7745   3.436   4.168   0.414
 2574SOL     OW 7746   2.885   4.490   0.966
 2574SOL    HW1 7747   2.900   4.511   1.062
 2574SOL    HW2 7748   2.855   4.395   0.957
 2575SOL     OW 7749   2.212   4.622   1.804
 2575SOL    HW1 7750   2.288   4.666   1.852
 2575SOL    HW2 7751   2.247   4.575   1.722
 2576SOL     OW 7752   3.402   3.998   0.125
 2576SOL    HW1 7753   3.341   3.923   0.148
 2576SOL    HW2 7754   3.424   4.050   0.208
 2577SOL     OW 7755   3.165   4.562   0.042
 2577SOL    HW1 7756   3.199   4.469   0.057
 2577SOL    HW2 7757   3.183   4.589  -0.053
 2578SOL     OW 7758   2.181   4.534   0.949
 2578SOL    HW1 7759   2.274   4.570   0.954
 2578SOL    HW2 7760   2.175   4.449   1.001
 2579SOL     OW 7761   2.201   4.233   1.006
 2579SOL    HW1 7762   2.149   4.150   0.989
 2579SOL    HW2 7763   2.278   4.238   0.942
 2580SOL     OW 7764   3.000   4.104   1.678
 2580SOL    HW1 7765   2.955   4.167   1.742
 2580SOL    HW2 7766   3.093   4.135   1.661
 2581SOL     OW 7767   3.022   3.931   1.477
 2581SOL    HW1 7768   3.022   3.995   1.554
 2581SOL    HW2 7769   3.050   3.979   1.394
 2582SOL     OW 7770   2.864   4.520   1.238
 2582SOL    HW1 7771   2.905   4.488   1.324
 2582SOL    HW2 7772   2.768   4.493   1.235
 2583SOL     OW 7773   1.902   4.268   1.114
 2583SOL    HW1 7774   1.987   4.235   1.073
 2583SOL    HW2 7775   1.915   4.283   1.212
 2584SOL     OW 7776   2.051   4.244   1.722
 2584SOL    HW1 7777   2.110   4.204   1.652
 2584SOL    HW2 7778   1.993   4.315   1.681
 2585SOL     OW 7779   3.231   4.674   1.660
 2585SOL    HW1 7780   3.270   4.763   1.680
 2585SOL    HW2 7781   3.241   4.654   1.563
 2586SOL     OW 7782   2.677   4.296   0.325
 2586SOL    HW1 7783   2.684   4.207   0.279
 2586SOL    HW2 7784   2.583   4.330   0.317
 2587SOL     OW 7785   3.519   4.328   1.206
 2587SOL    HW1 7786   3.481   4.259   1.268
 2587SOL    HW2 7787   3.601   4.292   1.162
 2588SOL     OW 7788   2.533   4.188   1.269
 2588SOL    HW1 7789   2.499   4.099   1.239
 2588SOL    HW2 7790   2.559   4.242   1.189
 2589SOL     OW 7791   2.335   4.224   0.191
 2589SOL    HW1 7792   2.396   4.304   0.195
 2589SOL    HW2 7793   2.240   4.255   0.198
 2590SOL     OW 7794   2.021   4.861   1.466
 2590SOL    HW1 7795   2.043   4.800   1.542
 2590SOL    HW2 7796   2.031   4.812   1.380
 2591SOL     OW 7797   3.209   4.783   1.234
 2591SOL    HW1 7798   3.233   4.720   1.160
 2591SOL    HW2 7799   3.119   4.823   1.216
 2592SOL     OW 7800   3.164   4.579   0.309
 2592SOL    HW1 7801   3.078   4.548   0.351
 2592SOL    HW2 7802   3.160   4.565   0.210
 2593SOL     OW 7803   2.765   3.810   0.133
 2593SOL    HW1 7804   2.816   3.811   0.047
 2593SOL    HW2 7805   2.821   3.768   0.204
 2594SOL     OW 7806   3.588   3.859   0.523
 2594SOL    HW1 7807   3.661   3.842   0.456
 2594SOL    HW2 7808   3.557   3.772   0.561
 2595SOL     OW 7809   3.142   4.651   0.672
 2595SOL    HW1 7810   3.202   4.570   0.674
 2595SOL    HW2 7811   3.182   4.720   0.612
 2596SOL     OW 7812   3.703   3.899   0.963
 2596SOL    HW1 7813   3.742   3.814   0.927
 2596SOL    HW2 7814   3.605   3.901   0.944
 2597SOL     OW 7815   2.125   4.050   0.720
 2597SOL    HW1 7816   2.046   4.101   0.686
 2597SOL    HW2 7817   2.116   4.035   0.818
 2598SOL     OW 7818   2.778   4.634   0.291
 2598SOL    HW1 7819   2.841   4.672   0.223
 2598SOL    HW2 7820   2.818   4.551   0.330
 2599SOL     OW 7821   2.876   3.960   0.971
 2599SOL    HW1 7822   2.868   3.924   0.878
 2599SOL    HW2 7823   2.874   3.884   1.036
 2600SOL     OW 7824   3.571   4.109   1.381
 2600SOL    HW1 7825   3.644   4.178   1.385
 2600SOL    HW2 7826   3.599   4.034   1.322
 2601SOL     OW 7827   1.967   4.737   1.726
 2601SOL    HW1 7828   1.890   4.704   1.780
 2601SOL    HW2 7829   2.052   4.707   1.768
 2602SOL     OW 7830   2.534   3.927   1.489
 2602SOL    HW1 7831   2.624   3.911   1.449
 2602SOL    HW2 7832   2.542   3.932   1.588
 2603SOL     OW 7833   1.937   4.069   0.033
 2603SOL    HW1 7834   1.845   4.041   0.004
 2603SOL    HW2 7835   1.968   4.146  -0.023
 2604SOL     OW 7836   3.302   4.580   1.398
 2604SOL    HW1 7837   3.245   4.632   1.335
 2604SOL    HW2 7838   3.398   4.592   1.374
 2605SOL     OW 7839   1.934   3.890   0.318
 2605SOL    HW1 7840   1.917   3.973   0.264
 2605SOL    HW2 7841   2.024   3.853   0.296
 2606SOL     OW 7842   3.045   5.059   0.119
 2606SOL    HW1 7843   2.946   5.048   0.121
 2606SOL    HW2 7844   3.079   5.074   0.212
 2607SOL     OW 7845   2.475   4.566   1.431
 2607SOL    HW1 7846   2.531   4.647   1.414
 2607SOL    HW2 7847   2.534   4.486   1.434
 2608SOL     OW 7848   2.578   4.289   1.708
 2608SOL    HW1 7849   2.597   4.354   1.782
 2608SOL    HW2 7850   2.638   4.209   1.717
 2609SOL     OW 7851   3.536   4.607   1.254
 2609SOL    HW1 7852   3.509   4.518   1.217
 2609SOL    HW2 7853   3.537   4.675   1.181
 2610SOL     OW 7854   3.087   4.049   0.449
 2610SOL    HW1 7855   3.152   3.975   0.438
 2610SOL    HW2 7856   3.107   4.099   0.533
 2611SOL     OW 7857   2.456   4.469   0.652
 2611SOL    HW1 7858   2.506   4.554   0.633
 2611SOL    HW2 7859   2.368   4.471   0.604
 2612SOL     OW 7860   3.639   4.066   1.642
 2612SOL    HW1 7861   3.622   4.097   1.548
 2612SOL    HW2 7862   3.555   4.029   1.680
 2613SOL     OW 7863   3.592   4.658   1.517
 2613SOL    HW1 7864   3.630   4.749   1.532
 2613SOL    HW2 7865   3.584   4.641   1.418
 2614SOL     OW 7866   2.721   4.680   0.861
 2614SOL    HW1 7867   2.775   4.611   0.909
 2614SOL    HW2 7868   2.689   4.749   0.927
 2615SOL     OW 7869   2.945   4.708   0.087
 2615SOL    HW1 7870   2.922   4.761   0.005
 2615SOL    HW2 7871   3.026   4.652   0.068
 2616SOL     OW 7872   1.941   4.964   0.653
 2616SOL    HW1 7873   1.940   4.917   0.741
 2616SOL    HW2 7874   2.023   4.936   0.602
 2617SOL     OW 7875   3.686   3.916   1.227
 2617SOL    HW1 7876   3.682   3.826   1.271
 2617SOL    HW2 7877   3.689   3.905   1.128
 2618SOL     OW 7878   2.290   4.148   0.520
 2618SOL    HW1 7879   2.320   4.076   0.458
 2618SOL    HW2 7880   2.251   4.108   0.603
 2619SOL     OW 7881   2.179   4.271   1.280
 2619SOL    HW1 7882   2.217   4.212   1.352
 2619SOL    HW2 7883   2.219   4.245   1.192
 2620SOL     OW 7884   3.286   3.938   1.112
 2620SOL    HW1 7885   3.338   3.873   1.167
 2620SOL    HW2 7886   3.237   4.001   1.173
 2621SOL     OW 7887   2.863   3.758   1.154
 2621SOL    HW1 7888   2.800   3.686   1.123
 2621SOL    HW2 7889   2.956   3.722   1.154
 2622SOL     OW 7890   3.214   3.776   0.168
 2622SOL    HW1 7891   3.249   3.735   0.084
 2622SOL    HW2 7892   3.124   3.738   0.188
 2623SOL     OW 7893   3.162   4.177   0.691
 2623SOL    HW1 7894   3.103   4.257   0.695
 2623SOL    HW2 7895   3.177   4.142   0.784
 2624SOL     OW 7896   3.455   3.945   0.882
 2624SOL    HW1 7897   3.371   3.944   0.936
 2624SOL    HW2 7898   3.457   4.028   0.826
 2625SOL     OW 7899   1.901   4.801   0.300
 2625SOL    HW1 7900   2.000   4.790   0.291
 2625SOL    HW2 7901   1.861   4.715   0.332
 2626SOL     OW 7902   2.092   4.352   1.975
 2626SOL    HW1 7903   1.999   4.350   2.012
 2626SOL    HW2 7904   2.093   4.313   1.883
 2627SOL     OW 7905   2.087   3.999   2.858
 2627SOL    HW1 7906   2.122   3.982   2.950
 2627SOL    HW2 7907   1.999   3.954   2.846
 2628SOL     OW 7908   1.881   4.092   2.509
 2628SOL    HW1 7909   1.799   4.135   2.548
 2628SOL    HW2 7910   1.853   4.019   2.446
 2629SOL     OW 7911   2.997   4.427   2.579
 2629SOL    HW1 7912   3.054   4.505   2.554
 2629SOL    HW2 7913   2.937   4.453   2.655
 2630SOL     OW 7914   3.617   4.331   2.093
 2630SOL    HW1 7915   3.605   4.318   1.994
 2630SOL    HW2 7916   3.587   4.250   2.142
 2631SOL     OW 7917   2.630   4.868   2.885
 2631SOL    HW1 7918   2.552   4.885   2.945
 2631SOL    HW2 7919   2.664   4.955   2.849
 2632SOL     OW 7920   2.712   4.522   3.685
 2632SOL    HW1 7921   2.708   4.598   3.750
 2632SOL    HW2 7922   2.734   4.558   3.594
 2633SOL     OW 7923   2.547   4.736   2.527
 2633SOL    HW1 7924   2.616   4.720   2.597
 2633SOL    HW2 7925   2.474   4.793   2.565
 2634SOL     OW 7926   2.300   4.116   3.361
 2634SOL    HW1 7927   2.382   4.060   3.370
 2634SOL    HW2 7928   2.219   4.058   3.365
 2635SOL     OW 7929   3.465   4.171   2.599
 2635SOL    HW1 7930   3.391   4.217   2.549
 2635SOL    HW2 7931   3.516   4.239   2.652
 2636SOL     OW 7932   2.102   4.815   2.748
 2636SOL    HW1 7933   2.116   4.731   2.800
 2636SOL    HW2 7934   2.047   4.879   2.803
 2637SOL     OW 7935   2.468   4.688   1.985
 2637SOL    HW1 7936   2.475   4.772   1.931
 2637SOL    HW2 7937   2.514   4.701   2.073
 2638SOL     OW 7938   3.456   3.838   3.342
 2638SOL    HW1 7939   3.438   3.905   3.270
 2638SOL    HW2 7940   3.453   3.884   3.431
 2639SOL     OW 7941   1.984   4.367   2.425
 2639SOL    HW1 7942   1.939   4.279   2.442
 2639SOL    HW2 7943   1.983   4.421   2.509
 2640SOL     OW 7944   3.551   4.646   2.474
 2640SOL    HW1 7945   3.646   4.617   2.482
 2640SOL    HW2 7946   3.543   4.711   2.399
 2641SOL     OW 7947   1.975   4.461   3.459
 2641SOL    HW1 7948   2.063   4.448   3.504
 2641SOL    HW2 7949   1.962   4.558   3.437
 2642SOL     OW 7950   2.671   3.728   2.364
 2642SOL    HW1 7951   2.711   3.819   2.355
 2642SOL    HW2 7952   2.571   3.736   2.370
 2643SOL     OW 7953   2.059   4.700   3.126
 2643SOL    HW1 7954   2.148   4.655   3.112
 2643SOL    HW2 7955   1.986   4.635   3.107
 2644SOL     OW 7956   3.387   4.723   2.052
 2644SOL    HW1 7957   3.324   4.647   2.065
 2644SOL    HW2 7958   3.435   4.741   2.138
 2645SOL     OW 7959   2.179   3.975   3.663
 2645SOL    HW1 7960   2.250   4.046   3.669
 2645SOL    HW2 7961   2.091   4.014   3.691
 2646SOL     OW 7962   2.460   4.453   2.132
 2646SOL    HW1 7963   2.484   4.522   2.064
 2646SOL    HW2 7964   2.382   4.486   2.186
 2647SOL     OW 7965   3.143   4.069   2.806
 2647SOL    HW1 7966   3.057   4.019   2.793
 2647SOL    HW2 7967   3.205   4.015   2.862
 2648SOL     OW 7968   2.669   4.329   3.327
 2648SOL    HW1 7969   2.622   4.326   3.416
 2648SOL    HW2 7970   2.618   4.274   3.261
 2649SOL     OW 7971   3.256   4.193   3.536
 2649SOL    HW1 7972   3.236   4.236   3.624
 2649SOL    HW2 7973   3.334   4.131   3.545
 2650SOL     OW 7974   2.835   4.614   3.434
 2650SOL    HW1 7975   2.881   4.530   3.405
 2650SOL    HW2 7976   2.779   4.648   3.359
 2651SOL     OW 7977   2.853   4.134   3.104
 2651SOL    HW1 7978   2.776   4.168   3.158
 2651SOL    HW2 7979   2.819   4.083   3.025
 2652SOL     OW 7980   2.903   4.425   2.291
 2652SOL    HW1 7981   2.929   4.421   2.387
 2652SOL    HW2 7982   2.818   4.374   2.277
 2653SOL     OW 7983   1.938   4.535   2.651
 2653SOL    HW1 7984   2.037   4.523   2.660
 2653SOL    HW2 7985   1.914   4.630   2.672
 2654SOL     OW 7986   2.727   4.072   2.057
 2654SOL    HW1 7987   2.786   4.135   2.008
 2654SOL    HW2 7988   2.746   3.978   2.028
 2655SOL     OW 7989   3.581   4.309   3.693
 2655SOL    HW1 7990   3.555   4.398   3.657
 2655SOL    HW2 7991   3.579   4.241   3.620
 2656SOL     OW 7992   2.412   3.920   2.747
 2656SOL    HW1 7993   2.407   3.915   2.847
 2656SOL    HW2 7994   2.414   4.016   2.718
 2657SOL     OW 7995   3.320   4.459   2.590
 2657SOL    HW1 7996   3.315   4.394   2.665
 2657SOL    HW2 7997   3.400   4.518   2.603
 2658SOL     OW 7998   2.064   4.009   3.360
 2658SOL    HW1 7999   1.984   4.069   3.347
 2658SOL    HW2 8000   2.054   3.960   3.446
 2659SOL     OW 8001   3.262   3.831   2.288
 2659SOL    HW1 8002   3.238   3.794   2.198
 2659SOL    HW2 8003   3.361   3.847   2.292
 2660SOL     OW 8004   2.244   4.424   2.342
 2660SOL    HW1 8005   2.289   4.334   2.339
 2660SOL    HW2 8006   2.150   4.413   2.375
 2661SOL     OW 8007   3.409   3.946   3.591
 2661SOL    HW1 8008   3.404   3.983   3.683
 2661SOL    HW2 8009   3.337   3.877   3.579
 2662SOL     OW 8010   2.476   3.846   1.979
 2662SOL    HW1 8011   2.574   3.824   1.986
 2662SOL    HW2 8012   2.445   3.829   1.886
 2663SOL     OW 8013   2.643   3.988   3.611
 2663SOL    HW1 8014   2.710   3.927   3.654
 2663SOL    HW2 8015   2.570   4.007   3.676
 2664SOL     OW 8016   3.213   4.314   3.295
 2664SOL    HW1 8017   3.241   4.271   3.380
 2664SOL    HW2 8018   3.238   4.410   3.296
 2665SOL     OW 8019   2.784   4.227   2.761
 2665SOL    HW1 8020   2.759   4.218   2.665
 2665SOL    HW2 8021   2.832   4.145   2.792
 2666SOL     OW 8022   2.401   3.788   2.374
 2666SOL    HW1 8023   2.320   3.789   2.432
 2666SOL    HW2 8024   2.404   3.871   2.319
 2667SOL     OW 8025   2.159   3.759   2.033
 2667SOL    HW1 8026   2.208   3.843   2.012
 2667SOL    HW2 8027   2.221   3.694   2.078
 2668SOL     OW 8028   2.797   3.960   2.342
 2668SOL    HW1 8029   2.749   4.001   2.264
 2668SOL    HW2 8030   2.896   3.958   2.323
 2669SOL     OW 8031   2.938   4.407   3.326
 2669SOL    HW1 8032   2.858   4.346   3.329
 2669SOL    HW2 8033   3.019   4.354   3.302
 2670SOL     OW 8034   2.894   4.273   1.878
 2670SOL    HW1 8035   2.853   4.355   1.839
 2670SOL    HW2 8036   2.958   4.299   1.951
 2671SOL     OW 8037   1.940   4.280   3.248
 2671SOL    HW1 8038   2.032   4.279   3.207
 2671SOL    HW2 8039   1.934   4.354   3.315
 2672SOL     OW 8040   2.423   3.946   3.009
 2672SOL    HW1 8041   2.461   3.862   3.046
 2672SOL    HW2 8042   2.335   3.965   3.053
 2673SOL     OW 8043   2.728   4.178   2.504
 2673SOL    HW1 8044   2.696   4.250   2.442
 2673SOL    HW2 8045   2.752   4.097   2.451
 2674SOL     OW 8046   2.879   3.763   2.615
 2674SOL    HW1 8047   2.807   3.768   2.546
 2674SOL    HW2 8048   2.855   3.694   2.684
 2675SOL     OW 8049   3.291   4.897   2.729
 2675SOL    HW1 8050   3.236   4.813   2.722
 2675SOL    HW2 8051   3.317   4.926   2.637
 2676SOL     OW 8052   3.328   4.314   2.854
 2676SOL    HW1 8053   3.298   4.219   2.861
 2676SOL    HW2 8054   3.401   4.330   2.920
 2677SOL     OW 8055   3.719   4.557   2.239
 2677SOL    HW1 8056   3.761   4.493   2.303
 2677SOL    HW2 8057   3.681   4.506   2.161
 2678SOL     OW 8058   3.252   4.299   1.940
 2678SOL    HW1 8059   3.198   4.278   2.021
 2678SOL    HW2 8060   3.343   4.258   1.949
 2679SOL     OW 8061   2.389   3.980   2.190
 2679SOL    HW1 8062   2.416   3.921   2.115
 2679SOL    HW2 8063   2.389   4.075   2.159
 2680SOL     OW 8064   3.500   4.823   2.941
 2680SOL    HW1 8065   3.505   4.904   3.000
 2680SOL    HW2 8066   3.414   4.825   2.890
 2681SOL     OW 8067   2.777   3.813   3.264
 2681SOL    HW1 8068   2.802   3.793   3.169
 2681SOL    HW2 8069   2.849   3.869   3.306
 2682SOL     OW 8070   2.272   4.537   3.113
 2682SOL    HW1 8071   2.358   4.549   3.163
 2682SOL    HW2 8072   2.230   4.450   3.140
 2683SOL     OW 8073   3.136   4.110   3.124
 2683SOL    HW1 8074   3.157   4.184   3.188
 2683SOL    HW2 8075   3.047   4.127   3.081
 2684SOL     OW 8076   2.428   4.261   2.727
 2684SOL    HW1 8077   2.440   4.327   2.653
 2684SOL    HW2 8078   2.474   4.295   2.810
 2685SOL     OW 8079   3.444   4.363   2.334
 2685SOL    HW1 8080   3.413   4.424   2.407
 2685SOL    HW2 8081   3.494   4.415   2.265
 2686SOL     OW 8082   2.264   4.475   3.460
 2686SOL    HW1 8083   2.332   4.530   3.413
 2686SOL    HW2 8084   2.304   4.387   3.487
 2687SOL     OW 8085   3.449   4.503   3.532
 2687SOL    HW1 8086   3.357   4.541   3.527
 2687SOL    HW2 8087   3.509   4.550   3.467
 2688SOL     OW 8088   2.875   3.829   3.632
 2688SOL    HW1 8089   2.881   3.914   3.580
 2688SOL    HW2 8090   2.907   3.753   3.575
 2689SOL     OW 8091   2.366   3.774   3.602
 2689SOL    HW1 8092   2.324   3.717   3.532
 2689SOL    HW2 8093   2.300   3.843   3.634
 2690SOL     OW 8094   2.435   4.594   2.891
 2690SOL    HW1 8095   2.479   4.683   2.882
 2690SOL    HW2 8096   2.372   4.594   2.968
 2691SOL     OW 8097   3.222   4.586   2.907
 2691SOL    HW1 8098   3.147   4.586   2.841
 2691SOL    HW2 8099   3.259   4.494   2.916
 2692SOL     OW 8100   3.071   4.249   2.137
 2692SOL    HW1 8101   3.084   4.165   2.191
 2692SOL    HW2 8102   3.042   4.323   2.197
 2693SOL     OW 8103   2.169   3.937   3.093
 2693SOL    HW1 8104   2.146   3.974   3.183
 2693SOL    HW2 8105   2.139   3.842   3.087
 2694SOL     OW 8106   2.594   4.358   2.926
 2694SOL    HW1 8107   2.653   4.332   2.850
 2694SOL    HW2 8108   2.566   4.454   2.915
 2695SOL     OW 8109   3.590   4.659   3.716
 2695SOL    HW1 8110   3.544   4.652   3.627
 2695SOL    HW2 8111   3.528   4.703   3.782
 2696SOL     OW 8112   2.169   3.787   2.480
 2696SOL    HW1 8113   2.158   3.881   2.513
 2696SOL    HW2 8114   2.164   3.724   2.557
 2697SOL     OW 8115   3.484   4.091   2.236
 2697SOL    HW1 8116   3.486   4.015   2.300
 2697SOL    HW2 8117   3.436   4.168   2.276
 2698SOL     OW 8118   2.885   4.490   2.828
 2698SOL    HW1 8119   2.900   4.511   2.924
 2698SOL    HW2 8120   2.855   4.395   2.819
 2699SOL     OW 8121   2.212   4.622   3.666
 2699SOL    HW1 8122   2.288   4.666   3.714
 2699SOL    HW2 8123   2.247   4.575   3.584
 2700SOL     OW 8124   3.402   3.998   1.987
 2700SOL    HW1 8125   3.341   3.923   2.010
 2700SOL    HW2 8126   3.424   4.050   2.070
 2701SOL     OW 8127   3.165   4.562   1.904
 2701SOL    HW1 8128   3.199   4.469   1.919
 2701SOL    HW2 8129   3.183   4.589   1.809
 2702SOL     OW 8130   2.181   4.534   2.811
 2702SOL    HW1 8131   2.274   4.570   2.816
 2702SOL    HW2 8132   2.175   4.449   2.863
 2703SOL     OW 8133   2.201   4.233   2.868
 2703SOL    HW1 8134   2.149   4.150   2.851
 2703SOL    HW2 8135   2.278   4.238   2.804
 2704SOL     OW 8136   3.000   4.104   3.540
 2704SOL    HW1 8137   2.955   4.167   3.604
 2704SOL    HW2 8138   3.093   4.135   3.523
 2705SOL     OW 8139   3.022   3.931   3.339
 2705SOL    HW1 8140   3.022   3.995   3.416
 2705SOL    HW2 8141   3.050   3.979   3.256
 2706SOL     OW 8142   2.864   4.520   3.100
 2706SOL    HW1 8143   2.905   4.488   3.186
 2706SOL    HW2 8144   2.768   4.493   3.097
 2707SOL     OW 8145   1.902   4.268   2.976
 2707SOL    HW1 8146   1.987   4.235   2.935
 2707SOL    HW2 8147   1.915   4.283   3.074
 2708SOL     OW 8148   2.051   4.244   3.584
 2708SOL    HW1 8149   2.110   4.204   3.514
 2708SOL    HW2 8150   1.993   4.315   3.543
 2709SOL     OW 8151   3.231   4.674   3.522
 2709SOL    HW1 8152   3.270   4.763   3.542
 2709SOL    HW2 8153   3.241   4.654   3.425
 2710SOL     OW 8154   2.677   4.296   2.187
 2710SOL    HW1 8155   2.684   4.207   2.141
 2710SOL    HW2 8156   2.583   4.330   2.179
 2711SOL     OW 8157   3.519   4.328   3.068
 2711SOL    HW1 8158   3.481   4.259   3.130
 2711SOL    HW2 8159   3.601   4.292   3.024
 2712SOL     OW 8160   2.533   4.188   3.131
 2712SOL    HW1 8161   2.499   4.099   3.101
 2712SOL    HW2 8162   2.559   4.242   3.051
 2713SOL     OW 8163   2.335   4.224   2.053
 2713SOL    HW1 8164   2.396   4.304   2.057
 2713SOL    HW2 8165   2.240   4.255   2.060
 2714SOL     OW 8166   2.021   4.861   3.328
 2714SOL    HW1 8167   2.043   4.800   3.404
 2714SOL    HW2 8168   2.031   4.812   3.242
 2715SOL     OW 8169   3.209   4.783   3.096
 2715SOL    HW1 8170   3.233   4.720   3.022
 2715SOL    HW2 8171   3.119   4.823   3.078
 2716SOL     OW 8172   3.164   4.579   2.171
 2716SOL    HW1 8173   3.078   4.548   2.213
 2716SOL    HW2 8174   3.160   4.565   2.072
 2717SOL     OW 8175   3.588   3.859   2.385
 2717SOL    HW1 8176   3.661   3.842   2.318
 2717SOL    HW2 8177   3.557   3.772   2.423
 2718SOL     OW 8178   3.142   4.651   2.534
 2718SOL    HW1 8179   3.202   4.570   2.536
 2718SOL    HW2 8180   3.182   4.720   2.474
 2719SOL     OW 8181   3.703   3.899   2.825
 2719SOL    HW1 8182   3.742   3.814   2.789
 2719SOL    HW2 8183   3.605   3.901   2.806
 2720SOL     OW 8184   2.125   4.050   2.582
 2720SOL    HW1 8185   2.046   4.101   2.548
 2720SOL    HW2 8186   2.116   4.035   2.680
 2721SOL     OW 8187   2.778   4.634   2.153
 2721SOL    HW1 8188   2.841   4.672   2.085
 2721SOL    HW2 8189   2.818   4.551   2.192
 2722SOL     OW 8190   2.876   3.960   2.833
 2722SOL    HW1 8191   2.868   3.924   2.740
 2722SOL    HW2 8192   2.874   3.884   2.898
 2723SOL     OW 8193   3.571   4.109   3.243
 2723SOL    HW1 8194   3.644   4.178   3.247
 2723SOL    HW2 8195   3.599   4.034   3.184
 2724SOL     OW 8196   1.967   4.737   3.588
 2724SOL    HW1 8197   1.890   4.704   3.642
 2724SOL    HW2 8198   2.052   4.707   3.630
 2725SOL     OW 8199   2.534   3.927   3.351
 2725SOL    HW1 8200   2.624   3.911   3.311
 2725SOL    HW2 8201   2.542   3.932   3.450
 2726SOL     OW 8202   1.937   4.069   1.895
 2726SOL    HW1 8203   1.845   4.041   1.866
 2726SOL    HW2 8204   1.968   4.146   1.839
 2727SOL     OW 8205   3.302   4.580   3.260
 2727SOL    HW1 8206   3.245   4.632   3.197
 2727SOL    HW2 8207   3.398   4.592   3.236
 2728SOL     OW 8208   1.934   3.890   2.180
 2728SOL    HW1 8209   1.917   3.973   2.126
 2728SOL    HW2 8210   2.024   3.853   2.158
 2729SOL     OW 8211   3.045   5.059   1.981
 2729SOL    HW1 8212   2.946   5.048   1.983
 2729SOL    HW2 8213   3.079   5.074   2.074
 2730SOL     OW 8214   2.475   4.566   3.293
 2730SOL    HW1 8215   2.531   4.647   3.276
 2730SOL    HW2 8216   2.534   4.486   3.296
 2731SOL     OW 8217   2.578   4.289   3.570
 2731SOL    HW1 8218   2.597   4.354   3.644
 2731SOL    HW2 8219   2.638   4.209   3.579
 2732SOL     OW 8220   3.536   4.607   3.116
 2732SOL    HW1 8221   3.509   4.518   3.079
 2732SOL    HW2 8222   3.537   4.675   3.043
 2733SOL     OW 8223   3.087   4.049   2.311
 2733SOL    HW1 8224   3.152   3.975   2.300
 2733SOL    HW2 8225   3.107   4.099   2.395
 2734SOL     OW 8226   2.456   4.469   2.514
 2734SOL    HW1 8227   2.506   4.554   2.495
 2734SOL    HW2 8228   2.368   4.471   2.466
 2735SOL     OW 8229   3.639   4.066   3.504
 2735SOL    HW1 8230   3.622   4.097   3.410
 2735SOL    HW2 8231   3.555   4.029   3.542
 2736SOL     OW 8232   3.592   4.658   3.379
 2736SOL    HW1 8233   3.630   4.749   3.394
 2736SOL    HW2 8234   3.584   4.641   3.280
 2737SOL     OW 8235   2.721   4.680   2.723
 2737SOL    HW1 8236   2.775   4.611   2.771
 2737SOL    HW2 8237   2.689   4.749   2.789
 2738SOL     OW 8238   2.945   4.708   1.949
 2738SOL    HW1 8239   2.922   4.761   1.867
 2738SOL    HW2 8240   3.026   4.652   1.930
 2739SOL     OW 8241   1.941   4.964   2.515
 2739SOL    HW1 8242   1.940   4.917   2.603
 2739SOL    HW2 8243   2.023   4.936   2.464
 2740SOL     OW 8244   3.686   3.916   3.089
 2740SOL    HW1 8245   3.682   3.826   3.133
 2740SOL    HW2 8246   3.689   3.905   2.990
 2741SOL     OW 8247   2.290   4.148   2.382
 2741SOL    HW1 8248   2.320   4.076   2.320
 2741SOL    HW2 8249   2.251   4.108   2.465
 2742SOL     OW 8250   2.179   4.271   3.142
 2742SOL    HW1 8251   2.217   4.212   3.214
 2742SOL    HW2 8252   2.219   4.245   3.054
 2743SOL     OW 8253   3.286   3.938   2.974
 2743SOL    HW1 8254   3.338   3.873   3.029
 2743SOL    HW2 8255   3.237   4.001   3.035
 2744SOL     OW 8256   2.863   3.758   3.016
 2744SOL    HW1 8257   2.800   3.686   2.985
 2744SOL    HW2 8258   2.956   3.722   3.016
 2745SOL     OW 8259   3.214   3.776   2.030
 2745SOL    HW1 8260   3.249   3.735   1.946
 2745SOL    HW2 8261   3.124   3.738   2.050
 2746SOL     OW 8262   3.162   4.177   2.553
 2746SOL    HW1 8263   3.103   4.257   2.557
 2746SOL    HW2 8264   3.177   4.142   2.646
 2747SOL     OW 8265   3.455   3.945   2.744
 2747SOL    HW1 8266   3.371   3.944   2.798
 2747SOL    HW2 8267   3.457   4.028   2.688
 2748SOL     OW 8268   1.901   4.801   2.162
 2748SOL    HW1 8269   2.000   4.790   2.153
 2748SOL    HW2 8270   1.861   4.715   2.194
 2749SOL     OW 8271   2.092   4.352   3.837
 2749SOL    HW1 8272   1.999   4.350   3.874
 2749SOL    HW2 8273   2.093   4.313   3.745
 2750SOL     OW 8274   2.087   3.999   4.720
 2750SOL    HW1 8275   2.122   3.982   4.812
 2750SOL    HW2 8276   1.999   3.954   4.708
 2751SOL     OW 8277   1.881   4.092   4.371
 2751SOL    HW1 8278   1.799   4.135   4.410
 2751SOL    HW2 8279   1.853   4.019   4.308
 2752SOL     OW 8280   2.997   4.427   4.441
 2752SOL    HW1 8281   3.054   4.505   4.416
 2752SOL    HW2 8282   2.937   4.453   4.517
 2753SOL     OW 8283   3.617   4.331   3.955
 2753SOL    HW1 8284   3.605   4.318   3.856
 2753SOL    HW2 8285   3.587   4.250   4.004
 2754SOL     OW 8286   2.547   4.736   4.389
 2754SOL    HW1 8287   2.616   4.720   4.459
 2754SOL    HW2 8288   2.474   4.793   4.427
 2755SOL     OW 8289   3.465   4.171   4.461
 2755SOL    HW1 8290   3.391   4.217   4.411
 2755SOL    HW2 8291   3.516   4.239   4.514
 2756SOL     OW 8292   2.102   4.815   4.610
 2756SOL    HW1 8293   2.116   4.731   4.662
 2756SOL    HW2 8294   2.047   4.879   4.665
 2757SOL     OW 8295   2.468   4.688   3.847
 2757SOL    HW1 8296   2.475   4.772   3.793
 2757SOL    HW2 8297   2.514   4.701   3.935
 2758SOL     OW 8298   1.984   4.367   4.287
 2758SOL    HW1 8299   1.939   4.279   4.304
 2758SOL    HW2 8300   1.983   4.421   4.371
 2759SOL     OW 8301   3.551   4.646   4.336
 2759SOL    HW1 8302   3.646   4.617   4.344
 2759SOL    HW2 8303   3.543   4.711   4.261
 2760SOL     OW 8304   2.671   3.728   4.226
 2760SOL    HW1 8305   2.711   3.819   4.217
 2760SOL    HW2 8306   2.571   3.736   4.232
 2761SOL     OW 8307   3.387   4.723   3.914
 2761SOL    HW1 8308   3.324   4.647   3.927
 2761SOL    HW2 8309   3.435   4.741   4.000
 2762SOL     OW 8310   2.460   4.453   3.994
 2762SOL    HW1 8311   2.484   4.522   3.926
 2762SOL    HW2 8312   2.382   4.486   4.048
 2763SOL     OW 8313   3.143   4.069   4.668
 2763SOL    HW1 8314   3.057   4.019   4.655
 2763SOL    HW2 8315   3.205   4.015   4.724
 2764SOL     OW 8316   2.903   4.425   4.153
 2764SOL    HW1 8317   2.929   4.421   4.249
 2764SOL    HW2 8318   2.818   4.374   4.139
 2765SOL     OW 8319   1.938   4.535   4.513
 2765SOL    HW1 8320   2.037   4.523   4.522
 2765SOL    HW2 8321   1.914   4.630   4.534
 2766SOL     OW 8322   2.727   4.072   3.919
 2766SOL    HW1 8323   2.786   4.135   3.870
 2766SOL    HW2 8324   2.746   3.978   3.890
 2767SOL     OW 8325   2.412   3.920   4.609
 2767SOL    HW1 8326   2.407   3.915   4.709
 2767SOL    HW2 8327   2.414   4.016   4.580
 2768SOL     OW 8328   3.320   4.459   4.452
 2768SOL    HW1 8329   3.315   4.394   4.527
 2768SOL    HW2 8330   3.400   4.518   4.465
 2769SOL     OW 8331   3.262   3.831   4.150
 2769SOL    HW1 8332   3.238   3.794   4.060
 2769SOL    HW2 8333   3.361   3.847   4.154
 2770SOL     OW 8334   2.244   4.424   4.204
 2770SOL    HW1 8335   2.289   4.334   4.201
 2770SOL    HW2 8336   2.150   4.413   4.237
 2771SOL     OW 8337   2.476   3.846   3.841
 2771SOL    HW1 8338   2.574   3.824   3.848
 2771SOL    HW2 8339   2.445   3.829   3.748
 2772SOL     OW 8340   2.784   4.227   4.623
 2772SOL    HW1 8341   2.759   4.218   4.527
 2772SOL    HW2 8342   2.832   4.145   4.654
 2773SOL     OW 8343   2.401   3.788   4.236
 2773SOL    HW1 8344   2.320   3.789   4.294
 2773SOL    HW2 8345   2.404   3.871   4.181
 2774SOL     OW 8346   2.159   3.759   3.895
 2774SOL    HW1 8347   2.208   3.843   3.874
 2774SOL    HW2 8348   2.221   3.694   3.940
 2775SOL     OW 8349   2.797   3.960   4.204
 2775SOL    HW1 8350   2.749   4.001   4.126
 2775SOL    HW2 8351   2.896   3.958   4.185
 2776SOL     OW 8352   2.894   4.273   3.740
 2776SOL    HW1 8353   2.853   4.355   3.701
 2776SOL    HW2 8354   2.958   4.299   3.813
 2777SOL     OW 8355   2.728   4.178   4.366
 2777SOL    HW1 8356   2.696   4.250   4.304
 2777SOL    HW2 8357   2.752   4.097   4.313
 2778SOL     OW 8358   2.879   3.763   4.477
 2778SOL    HW1 8359   2.807   3.768   4.408
 2778SOL    HW2 8360   2.855   3.694   4.546
 2779SOL     OW 8361   3.291   4.897   4.591
 2779SOL    HW1 8362   3.236   4.813   4.584
 2779SOL    HW2 8363   3.317   4.926   4.499
 2780SOL     OW 8364   3.328   4.314   4.716
 2780SOL    HW1 8365   3.298   4.219   4.723
 2780SOL    HW2 8366   3.401   4.330   4.782
 2781SOL     OW 8367   3.719   4.557   4.101
 2781SOL    HW1 8368   3.761   4.493   4.165
 2781SOL    HW2 8369   3.681   4.506   4.023
 2782SOL     OW 8370   3.252   4.299   3.802
 2782SOL    HW1 8371   3.198   4.278   3.883
 2782SOL    HW2 8372   3.343   4.258   3.811
 2783SOL     OW 8373   2.389   3.980   4.052
 2783SOL    HW1 8374   2.416   3.921   3.977
 2783SOL    HW2 8375   2.389   4.075   4.021
 2784SOL     OW 8376   3.500   4.823   4.803
 2784SOL    HW1 8377   3.505   4.904   4.862
 2784SOL    HW2 8378   3.414   4.825   4.752
 2785SOL     OW 8379   2.428   4.261   4.589
 2785SOL    HW1 8380   2.440   4.327   4.515
 2785SOL    HW2 8381   2.474   4.295   4.672
 2786SOL     OW 8382   3.444   4.363   4.196
 2786SOL    HW1 8383   3.413   4.424   4.269
 2786SOL    HW2 8384   3.494   4.415   4.127
 2787SOL     OW 8385   2.435   4.594   4.753
 2787SOL    HW1 8386   2.479   4.683   4.744
 2787SOL    HW2 8387   2.372   4.594   4.830
 2788SOL     OW 8388   3.071   4.249   3.999
 2788SOL    HW1 8389   3.084   4.165   4.053
 2788SOL    HW2 8390   3.042   4.323   4.059
 2789SOL     OW 8391   2.169   3.937   4.955
 2789SOL    HW1 8392   2.146   3.974   5.045
 2789SOL    HW2 8393   2.139   3.842   4.949
 2790SOL     OW 8394   2.594   4.358   4.788
 2790SOL    HW1 8395   2.653   4.332   4.712
 2790SOL    HW2 8396   2.566   4.454   4.777
 2791SOL     OW 8397   2.169   3.787   4.342
 2791SOL    HW1 8398   2.158   3.881   4.375
 2791SOL    HW2 8399   2.164   3.724   4.419
 2792SOL     OW 8400   3.484   4.091   4.098
 2792SOL    HW1 8401   3.486   4.015   4.162
 2792SOL    HW2 8402   3.436   4.168   4.138
 2793SOL     OW 8403   3.402   3.998   3.849
 2793SOL    HW1 8404   3.341   3.923   3.872
 2793SOL    HW2 8405   3.424   4.050   3.932
 2794SOL     OW 8406   3.165   4.562   3.766
 2794SOL    HW1 8407   3.199   4.469   3.781
 2794SOL    HW2 8408   3.183   4.589   3.671
 2795SOL     OW 8409   2.181   4.534   4.673
 2795SOL    HW1 8410   2.274   4.570   4.678
 2795SOL    HW2 8411   2.175   4.449   4.725
 2796SOL     OW 8412   2.201   4.233   4.730
 2796SOL    HW1 8413   2.149   4.150   4.713
 2796SOL    HW2 8414   2.278   4.238   4.666
 2797SOL     OW 8415   2.864   4.520   4.962
 2797SOL    HW1 8416   2.905   4.488   5.048
 2797SOL    HW2 8417   2.768   4.493   4.959
 2798SOL     OW 8418   2.677   4.296   4.049
 2798SOL    HW1 8419   2.684   4.207   4.003
 2798SOL    HW2 8420   2.583   4.330   4.041
 2799SOL     OW 8421   2.533   4.188   4.993
 2799SOL    HW1 8422   2.499   4.099   4.963
 2799SOL    HW2 8423   2.559   4.242   4.913
 2800SOL     OW 8424   2.335   4.224   3.915
 2800SOL    HW1 8425   2.396   4.304   3.919
 2800SOL    HW2 8426   2.240   4.255   3.922
 2801SOL     OW 8427   3.164   4.579   4.033
 2801SOL    HW1 8428   3.078   4.548   4.075
 2801SOL    HW2 8429   3.160   4.565   3.934
 2802SOL     OW 8430   3.588   3.859   4.247
 2802SOL    HW1 8431   3.661   3.842   4.180
 2802SOL    HW2 8432   3.557   3.772   4.285
 2803SOL     OW 8433   3.142   4.651   4.396
 2803SOL    HW1 8434   3.202   4.570   4.398
 2803SOL    HW2 8435   3.182   4.720   4.336
 2804SOL     OW 8436   3.703   3.899   4.687
 2804SOL    HW1 8437   3.742   3.814   4.651
 2804SOL    HW2 8438   3.605   3.901   4.668
 2805SOL     OW 8439   2.125   4.050   4.444
 2805SOL    HW1 8440   2.046   4.101   4.410
 2805SOL    HW2 8441   2.116   4.035   4.542
 2806SOL     OW 8442   2.778   4.634   4.015
 2806SOL    HW1 8443   2.841   4.672   3.947
 2806SOL    HW2 8444   2.818   4.551   4.054
 2807SOL     OW 8445   1.937   4.069   3.757
 2807SOL    HW1 8446   1.845   4.041   3.728
 2807SOL    HW2 8447   1.968   4.146   3.701
 2808SOL     OW 8448   1.934   3.890   4.042
 2808SOL    HW1 8449   1.917   3.973   3.988
 2808SOL    HW2 8450   2.024   3.853   4.020
 2809SOL     OW 8451   3.045   5.059   3.843
 2809SOL    HW1 8452   2.946   5.048   3.845
 2809SOL    HW2 8453   3.079   5.074   3.936
 2810SOL     OW 8454   3.536   4.607   4.978
 2810SOL    HW1 8455   3.509   4.518   4.941
 2810SOL    HW2 8456   3.537   4.675   4.905
 2811SOL     OW 8457   3.087   4.049   4.173
 2811SOL    HW1 8458   3.152   3.975   4.162
 2811SOL    HW2 8459   3.107   4.099   4.257
 2812SOL     OW 8460   2.456   4.469   4.376
 2812SOL    HW1 8461   2.506   4.554   4.357
 2812SOL    HW2 8462   2.368   4.471   4.328
 2813SOL     OW 8463   2.721   4.680   4.585
 2813SOL    HW1 8464   2.775   4.611   4.633
 2813SOL    HW2 8465   2.689   4.749   4.651
 2814SOL     OW 8466   2.945   4.708   3.811
 2814SOL    HW1 8467   2.922   4.761   3.729
 2814SOL    HW2 8468   3.026   4.652   3.792
 2815SOL     OW 8469   1.941   4.964   4.377
 2815SOL    HW1 8470   1.940   4.917   4.465
 2815SOL    HW2 8471   2.023   4.936   4.326
 2816SOL     OW 8472   3.686   3.916   4.951
 2816SOL    HW1 8473   3.682   3.826   4.995
 2816SOL    HW2 8474   3.689   3.905   4.852
 2817SOL     OW 8475   2.290   4.148   4.244
 2817SOL    HW1 8476   2.320   4.076   4.182
 2817SOL    HW2 8477   2.251   4.108   4.327
 2818SOL     OW 8478   3.214   3.776   3.892
 2818SOL    HW1 8479   3.249   3.735   3.808
 2818SOL    HW2 8480   3.124   3.738   3.912
 2819SOL     OW 8481   3.162   4.177   4.415
 2819SOL    HW1 8482   3.103   4.257   4.419
 2819SOL    HW2 8483   3.177   4.142   4.508
 2820SOL     OW 8484   3.455   3.945   4.606
 2820SOL    HW1 8485   3.371   3.944   4.660
 2820SOL    HW2 8486   3.457   4.028   4.550
 2821SOL     OW 8487   1.901   4.801   4.024
 2821SOL    HW1 8488   2.000   4.790   4.015
 2821SOL    HW2 8489   1.861   4.715   4.056
 2822SOL     OW 8490   3.954   0.628   0.113
 2822SOL    HW1 8491   3.861   0.626   0.150
 2822SOL    HW2 8492   3.955   0.589   0.021
 2823SOL     OW 8493   3.949   0.275   0.996
 2823SOL    HW1 8494   3.984   0.258   1.088
 2823SOL    HW2 8495   3.861   0.230   0.984
 2824SOL     OW 8496   3.743   0.368   0.647
 2824SOL    HW1 8497   3.661   0.411   0.686
 2824SOL    HW2 8498   3.715   0.295   0.584
 2825SOL     OW 8499   4.293   1.275   1.165
 2825SOL    HW1 8500   4.200   1.268   1.128
 2825SOL    HW2 8501   4.304   1.364   1.209
 2826SOL     OW 8502   4.492   1.144   1.023
 2826SOL    HW1 8503   4.414   1.161   1.083
 2826SOL    HW2 8504   4.526   1.231   0.987
 2827SOL     OW 8505   4.574   0.798   1.823
 2827SOL    HW1 8506   4.570   0.874   1.888
 2827SOL    HW2 8507   4.596   0.834   1.732
 2828SOL     OW 8508   4.409   1.012   0.665
 2828SOL    HW1 8509   4.478   0.996   0.735
 2828SOL    HW2 8510   4.336   1.069   0.703
 2829SOL     OW 8511   4.410   1.161   1.803
 2829SOL    HW1 8512   4.470   1.240   1.817
 2829SOL    HW2 8513   4.324   1.192   1.762
 2830SOL     OW 8514   4.059   1.435   1.061
 2830SOL    HW1 8515   3.981   1.404   1.008
 2830SOL    HW2 8516   4.117   1.493   1.004
 2831SOL     OW 8517   4.162   0.392   1.499
 2831SOL    HW1 8518   4.244   0.336   1.508
 2831SOL    HW2 8519   4.081   0.334   1.503
 2832SOL     OW 8520   3.955   1.713   0.483
 2832SOL    HW1 8521   3.989   1.790   0.537
 2832SOL    HW2 8522   3.999   1.713   0.393
 2833SOL     OW 8523   3.954   1.434   0.538
 2833SOL    HW1 8524   3.928   1.530   0.538
 2833SOL    HW2 8525   3.883   1.380   0.583
 2834SOL     OW 8526   3.964   1.091   0.886
 2834SOL    HW1 8527   3.978   1.007   0.938
 2834SOL    HW2 8528   3.909   1.155   0.941
 2835SOL     OW 8529   4.344   1.786   1.439
 2835SOL    HW1 8530   4.252   1.769   1.474
 2835SOL    HW2 8531   4.372   1.878   1.465
 2836SOL     OW 8532   4.330   0.964   0.123
 2836SOL    HW1 8533   4.337   1.048   0.069
 2836SOL    HW2 8534   4.376   0.977   0.211
 2837SOL     OW 8535   3.846   0.643   0.563
 2837SOL    HW1 8536   3.801   0.555   0.580
 2837SOL    HW2 8537   3.845   0.697   0.647
 2838SOL     OW 8538   3.751   1.596   0.117
 2838SOL    HW1 8539   3.732   1.500   0.138
 2838SOL    HW2 8540   3.718   1.654   0.192
 2839SOL     OW 8541   3.837   0.737   1.597
 2839SOL    HW1 8542   3.925   0.724   1.642
 2839SOL    HW2 8543   3.824   0.834   1.575
 2840SOL     OW 8544   4.337   1.365   0.726
 2840SOL    HW1 8545   4.288   1.278   0.735
 2840SOL    HW2 8546   4.314   1.408   0.639
 2841SOL     OW 8547   4.533   0.004   0.502
 2841SOL    HW1 8548   4.573   0.095   0.493
 2841SOL    HW2 8549   4.433   0.012   0.508
 2842SOL     OW 8550   3.921   0.976   1.264
 2842SOL    HW1 8551   4.010   0.931   1.250
 2842SOL    HW2 8552   3.848   0.911   1.245
 2843SOL     OW 8553   4.041   0.251   1.801
 2843SOL    HW1 8554   4.112   0.322   1.807
 2843SOL    HW2 8555   3.953   0.290   1.829
 2844SOL     OW 8556   4.322   0.729   0.270
 2844SOL    HW1 8557   4.346   0.798   0.202
 2844SOL    HW2 8558   4.244   0.762   0.324
 2845SOL     OW 8559   4.531   0.605   1.465
 2845SOL    HW1 8560   4.484   0.602   1.554
 2845SOL    HW2 8561   4.480   0.550   1.399
 2846SOL     OW 8562   4.697   0.890   1.572
 2846SOL    HW1 8563   4.743   0.806   1.543
 2846SOL    HW2 8564   4.641   0.924   1.497
 2847SOL     OW 8565   4.715   0.410   1.242
 2847SOL    HW1 8566   4.638   0.444   1.296
 2847SOL    HW2 8567   4.681   0.359   1.163
 2848SOL     OW 8568   3.800   0.811   0.789
 2848SOL    HW1 8569   3.899   0.799   0.798
 2848SOL    HW2 8570   3.776   0.906   0.810
 2849SOL     OW 8571   3.854   1.821   1.571
 2849SOL    HW1 8572   3.844   1.806   1.670
 2849SOL    HW2 8573   3.768   1.857   1.535
 2850SOL     OW 8574   4.589   0.348   0.195
 2850SOL    HW1 8575   4.648   0.411   0.146
 2850SOL    HW2 8576   4.608   0.254   0.166
 2851SOL     OW 8577   4.274   0.196   0.885
 2851SOL    HW1 8578   4.269   0.191   0.985
 2851SOL    HW2 8579   4.276   0.292   0.856
 2852SOL     OW 8580   4.732   1.456   0.477
 2852SOL    HW1 8581   4.686   1.528   0.425
 2852SOL    HW2 8582   4.728   1.476   0.575
 2853SOL     OW 8583   4.075   1.801   0.853
 2853SOL    HW1 8584   4.125   1.715   0.859
 2853SOL    HW2 8585   4.140   1.878   0.850
 2854SOL     OW 8586   4.045   0.943   0.242
 2854SOL    HW1 8587   4.127   0.982   0.200
 2854SOL    HW2 8588   4.018   0.861   0.193
 2855SOL     OW 8589   4.185   1.266   1.727
 2855SOL    HW1 8590   4.135   1.267   1.641
 2855SOL    HW2 8591   4.122   1.248   1.803
 2856SOL     OW 8592   3.926   0.285   1.498
 2856SOL    HW1 8593   3.846   0.345   1.485
 2856SOL    HW2 8594   3.916   0.236   1.584
 2857SOL     OW 8595   4.188   1.743   0.323
 2857SOL    HW1 8596   4.221   1.782   0.409
 2857SOL    HW2 8597   4.264   1.736   0.258
 2858SOL     OW 8598   3.973   1.785   1.241
 2858SOL    HW1 8599   4.030   1.720   1.291
 2858SOL    HW2 8600   3.957   1.752   1.148
 2859SOL     OW 8601   4.106   0.700   0.480
 2859SOL    HW1 8602   4.151   0.610   0.477
 2859SOL    HW2 8603   4.012   0.689   0.513
 2860SOL     OW 8604   4.338   0.122   0.117
 2860SOL    HW1 8605   4.436   0.100   0.124
 2860SOL    HW2 8606   4.307   0.105   0.024
 2861SOL     OW 8607   4.505   0.264   1.749
 2861SOL    HW1 8608   4.572   0.203   1.792
 2861SOL    HW2 8609   4.432   0.283   1.814
 2862SOL     OW 8610   4.612   1.514   1.195
 2862SOL    HW1 8611   4.589   1.489   1.101
 2862SOL    HW2 8612   4.673   1.445   1.234
 2863SOL     OW 8613   4.527   1.402   0.924
 2863SOL    HW1 8614   4.617   1.416   0.882
 2863SOL    HW2 8615   4.456   1.404   0.853
 2864SOL     OW 8616   4.646   0.503   0.899
 2864SOL    HW1 8617   4.621   0.494   0.803
 2864SOL    HW2 8618   4.694   0.421   0.930
 2865SOL     OW 8619   4.263   0.064   0.512
 2865SOL    HW1 8620   4.182   0.065   0.570
 2865SOL    HW2 8621   4.266   0.147   0.457
 2866SOL     OW 8622   4.021   0.035   0.171
 2866SOL    HW1 8623   4.070   0.119   0.150
 2866SOL    HW2 8624   4.083  -0.030   0.216
 2867SOL     OW 8625   4.659   0.236   0.480
 2867SOL    HW1 8626   4.611   0.277   0.402
 2867SOL    HW2 8627   4.758   0.234   0.461
 2868SOL     OW 8628   4.951   1.570   0.793
 2868SOL    HW1 8629   4.972   1.644   0.728
 2868SOL    HW2 8630   5.019   1.570   0.866
 2869SOL     OW 8631   4.183   1.152   0.741
 2869SOL    HW1 8632   4.112   1.125   0.806
 2869SOL    HW2 8633   4.157   1.124   0.648
 2870SOL     OW 8634   4.756   0.549   0.016
 2870SOL    HW1 8635   4.715   0.631  -0.023
 2870SOL    HW2 8636   4.820   0.575   0.089
 2871SOL     OW 8637   3.802   0.556   1.386
 2871SOL    HW1 8638   3.894   0.555   1.345
 2871SOL    HW2 8639   3.796   0.630   1.453
 2872SOL     OW 8640   4.285   0.222   1.147
 2872SOL    HW1 8641   4.323   0.138   1.184
 2872SOL    HW2 8642   4.197   0.241   1.191
 2873SOL     OW 8643   4.590   0.454   0.642
 2873SOL    HW1 8644   4.558   0.526   0.580
 2873SOL    HW2 8645   4.614   0.373   0.589
 2874SOL     OW 8646   4.741   0.039   0.753
 2874SOL    HW1 8647   4.669   0.044   0.684
 2874SOL    HW2 8648   4.717  -0.030   0.822
 2875SOL     OW 8649   4.212   1.385   0.174
 2875SOL    HW1 8650   4.125   1.370   0.221
 2875SOL    HW2 8651   4.195   1.411   0.079
 2876SOL     OW 8652   4.251   0.256   0.328
 2876SOL    HW1 8653   4.278   0.197   0.253
 2876SOL    HW2 8654   4.251   0.351   0.297
 2877SOL     OW 8655   4.639   0.089   1.402
 2877SOL    HW1 8656   4.664   0.069   1.307
 2877SOL    HW2 8657   4.711   0.145   1.444
 2878SOL     OW 8658   4.704   1.116   1.719
 2878SOL    HW1 8659   4.605   1.122   1.729
 2878SOL    HW2 8660   4.727   1.036   1.663
 2879SOL     OW 8661   4.429   1.050   0.368
 2879SOL    HW1 8662   4.415   1.057   0.467
 2879SOL    HW2 8663   4.513   0.999   0.350
 2880SOL     OW 8664   4.134   0.813   1.251
 2880SOL    HW1 8665   4.220   0.825   1.301
 2880SOL    HW2 8666   4.092   0.726   1.278
 2881SOL     OW 8667   3.788   1.564   1.331
 2881SOL    HW1 8668   3.742   1.646   1.297
 2881SOL    HW2 8669   3.886   1.583   1.340
 2882SOL     OW 8670   4.091   1.100   0.501
 2882SOL    HW1 8671   4.084   1.183   0.445
 2882SOL    HW2 8672   4.095   1.020   0.441
 2883SOL     OW 8673   4.290   0.537   0.865
 2883SOL    HW1 8674   4.302   0.603   0.791
 2883SOL    HW2 8675   4.336   0.571   0.948
 2884SOL     OW 8676   4.078   1.510   1.329
 2884SOL    HW1 8677   4.057   1.466   1.242
 2884SOL    HW2 8678   4.175   1.536   1.332
 2885SOL     OW 8679   4.126   0.751   1.598
 2885SOL    HW1 8680   4.194   0.806   1.551
 2885SOL    HW2 8681   4.166   0.663   1.625
 2886SOL     OW 8682   4.737   0.105   1.770
 2886SOL    HW1 8683   4.743   0.190   1.718
 2886SOL    HW2 8684   4.769   0.029   1.713
 2887SOL     OW 8685   4.228   0.050   1.740
 2887SOL    HW1 8686   4.186  -0.007   1.670
 2887SOL    HW2 8687   4.162   0.119   1.772
 2888SOL     OW 8688   4.297   0.870   1.029
 2888SOL    HW1 8689   4.341   0.959   1.020
 2888SOL    HW2 8690   4.234   0.870   1.106
 2889SOL     OW 8691   4.933   0.525   0.275
 2889SOL    HW1 8692   4.946   0.441   0.329
 2889SOL    HW2 8693   4.904   0.599   0.335
 2890SOL     OW 8694   4.031   0.213   1.231
 2890SOL    HW1 8695   4.008   0.250   1.321
 2890SOL    HW2 8696   4.001   0.118   1.225
 2891SOL     OW 8697   3.761   1.310   1.282
 2891SOL    HW1 8698   3.814   1.261   1.350
 2891SOL    HW2 8699   3.783   1.408   1.287
 2892SOL     OW 8700   4.456   0.634   1.064
 2892SOL    HW1 8701   4.515   0.608   0.988
 2892SOL    HW2 8702   4.428   0.730   1.053
 2893SOL     OW 8703   4.031   0.063   0.618
 2893SOL    HW1 8704   4.020   0.157   0.651
 2893SOL    HW2 8705   4.026   0.000   0.695
 2894SOL     OW 8706   4.747   0.766   0.966
 2894SOL    HW1 8707   4.762   0.787   1.062
 2894SOL    HW2 8708   4.717   0.671   0.957
 2895SOL     OW 8709   4.704   1.573   1.700
 2895SOL    HW1 8710   4.684   1.617   1.612
 2895SOL    HW2 8711   4.743   1.482   1.684
 2896SOL     OW 8712   4.074   0.898   1.804
 2896SOL    HW1 8713   4.150   0.942   1.852
 2896SOL    HW2 8714   4.109   0.851   1.722
 2897SOL     OW 8715   4.043   0.810   0.949
 2897SOL    HW1 8716   4.136   0.846   0.954
 2897SOL    HW2 8717   4.037   0.725   1.001
 2898SOL     OW 8718   4.063   0.509   1.006
 2898SOL    HW1 8719   4.011   0.426   0.989
 2898SOL    HW2 8720   4.140   0.514   0.942
 2899SOL     OW 8721   3.732   1.326   0.200
 2899SOL    HW1 8722   3.639   1.347   0.169
 2899SOL    HW2 8723   3.742   1.227   0.213
 2900SOL     OW 8724   3.812   1.801   0.927
 2900SOL    HW1 8725   3.770   1.715   0.900
 2900SOL    HW2 8726   3.906   1.804   0.893
 2901SOL     OW 8727   4.228   1.568   0.910
 2901SOL    HW1 8728   4.294   1.642   0.919
 2901SOL    HW2 8729   4.272   1.489   0.868
 2902SOL     OW 8730   4.726   0.796   1.238
 2902SOL    HW1 8731   4.767   0.764   1.324
 2902SOL    HW2 8732   4.630   0.769   1.235
 2903SOL     OW 8733   3.764   0.544   1.114
 2903SOL    HW1 8734   3.849   0.511   1.073
 2903SOL    HW2 8735   3.777   0.559   1.212
 2904SOL     OW 8736   3.913   0.520   1.722
 2904SOL    HW1 8737   3.972   0.480   1.652
 2904SOL    HW2 8738   3.855   0.591   1.681
 2905SOL     OW 8739   4.539   0.572   0.325
 2905SOL    HW1 8740   4.546   0.483   0.279
 2905SOL    HW2 8741   4.445   0.606   0.317
 2906SOL     OW 8742   3.976   1.564   1.744
 2906SOL    HW1 8743   3.946   1.621   1.820
 2906SOL    HW2 8744   3.969   1.467   1.770
 2907SOL     OW 8745   4.395   0.464   1.269
 2907SOL    HW1 8746   4.361   0.375   1.239
 2907SOL    HW2 8747   4.421   0.518   1.189
 2908SOL     OW 8748   4.654   1.678   1.465
 2908SOL    HW1 8749   4.630   1.660   1.370
 2908SOL    HW2 8750   4.684   1.772   1.475
 2909SOL     OW 8751   4.197   0.500   0.191
 2909SOL    HW1 8752   4.258   0.580   0.195
 2909SOL    HW2 8753   4.102   0.531   0.198
 2910SOL     OW 8754   3.883   1.137   1.466
 2910SOL    HW1 8755   3.905   1.076   1.542
 2910SOL    HW2 8756   3.893   1.088   1.380
 2911SOL     OW 8757   3.807   1.258   1.022
 2911SOL    HW1 8758   3.802   1.257   1.122
 2911SOL    HW2 8759   3.724   1.217   0.984
 2912SOL     OW 8760   4.412   1.662   1.716
 2912SOL    HW1 8761   4.356   1.743   1.725
 2912SOL    HW2 8762   4.464   1.666   1.630
 2913SOL     OW 8763   4.627   0.086   0.133
 2913SOL    HW1 8764   4.678   0.087   0.047
 2913SOL    HW2 8765   4.683   0.044   0.204
 2914SOL     OW 8766   3.854   1.794   1.851
 2914SOL    HW1 8767   3.813   1.720   1.904
 2914SOL    HW2 8768   3.918   1.845   1.909
 2915SOL     OW 8769   5.004   0.927   0.672
 2915SOL    HW1 8770   5.064   0.846   0.674
 2915SOL    HW2 8771   5.044   0.996   0.612
 2916SOL     OW 8772   4.554   1.273   1.422
 2916SOL    HW1 8773   4.549   1.306   1.517
 2916SOL    HW2 8774   4.468   1.292   1.376
 2917SOL     OW 8775   4.396   1.616   0.154
 2917SOL    HW1 8776   4.405   1.626   0.055
 2917SOL    HW2 8777   4.356   1.527   0.175
 2918SOL     OW 8778   3.987   0.326   0.720
 2918SOL    HW1 8779   3.908   0.377   0.686
 2918SOL    HW2 8780   3.978   0.311   0.818
 2919SOL     OW 8781   4.546   1.002   1.372
 2919SOL    HW1 8782   4.586   1.001   1.280
 2919SOL    HW2 8783   4.556   1.094   1.412
 2920SOL     OW 8784   4.640   0.910   0.291
 2920SOL    HW1 8785   4.703   0.948   0.223
 2920SOL    HW2 8786   4.680   0.827   0.330
 2921SOL     OW 8787   4.096   1.288   1.490
 2921SOL    HW1 8788   4.083   1.381   1.456
 2921SOL    HW2 8789   4.012   1.236   1.477
 2922SOL     OW 8790   4.763   1.098   0.696
 2922SOL    HW1 8791   4.693   1.051   0.750
 2922SOL    HW2 8792   4.822   1.030   0.653
 2923SOL     OW 8793   4.738   0.236   0.971
 2923SOL    HW1 8794   4.730   0.200   0.878
 2923SOL    HW2 8795   4.736   0.160   1.036
 2924SOL     OW 8796   4.314   1.487   0.491
 2924SOL    HW1 8797   4.356   1.429   0.421
 2924SOL    HW2 8798   4.270   1.566   0.447
 2925SOL     OW 8799   3.979   1.348   0.290
 2925SOL    HW1 8800   3.883   1.349   0.263
 2925SOL    HW2 8801   3.991   1.401   0.374
 2926SOL     OW 8802   3.829   1.013   1.726
 2926SOL    HW1 8803   3.752   0.980   1.780
 2926SOL    HW2 8804   3.914   0.983   1.768
 2927SOL     OW 8805   4.396   0.203   1.489
 2927SOL    HW1 8806   4.486   0.187   1.449
 2927SOL    HW2 8807   4.404   0.208   1.588
 2928SOL     OW 8808   3.799   0.345   0.033
 2928SOL    HW1 8809   3.707   0.317   0.004
 2928SOL    HW2 8810   3.830   0.422  -0.023
 2929SOL     OW 8811   3.796   0.166   0.318
 2929SOL    HW1 8812   3.779   0.249   0.264
 2929SOL    HW2 8813   3.886   0.129   0.296
 2930SOL     OW 8814   4.337   0.842   1.431
 2930SOL    HW1 8815   4.393   0.923   1.414
 2930SOL    HW2 8816   4.396   0.762   1.434
 2931SOL     OW 8817   4.440   0.565   1.708
 2931SOL    HW1 8818   4.459   0.630   1.782
 2931SOL    HW2 8819   4.500   0.485   1.717
 2932SOL     OW 8820   4.114   1.741   1.560
 2932SOL    HW1 8821   4.023   1.782   1.558
 2932SOL    HW2 8822   4.107   1.647   1.592
 2933SOL     OW 8823   4.949   0.325   0.449
 2933SOL    HW1 8824   5.014   0.251   0.438
 2933SOL    HW2 8825   4.969   0.375   0.533
 2934SOL     OW 8826   4.318   0.745   0.652
 2934SOL    HW1 8827   4.368   0.830   0.633
 2934SOL    HW2 8828   4.230   0.747   0.604
 2935SOL     OW 8829   4.583   1.374   0.016
 2935SOL    HW1 8830   4.537   1.389   0.104
 2935SOL    HW2 8831   4.627   1.459  -0.014
 2936SOL     OW 8832   4.385   1.790   0.953
 2936SOL    HW1 8833   4.339   1.878   0.940
 2936SOL    HW2 8834   4.484   1.802   0.946
 2937SOL     OW 8835   4.583   0.956   0.861
 2937SOL    HW1 8836   4.637   0.887   0.909
 2937SOL    HW2 8837   4.551   1.025   0.927
 2938SOL     OW 8838   4.807   0.984   0.087
 2938SOL    HW1 8839   4.784   1.037   0.005
 2938SOL    HW2 8840   4.888   0.928   0.068
 2939SOL     OW 8841   3.945   1.314   1.844
 2939SOL    HW1 8842   3.880   1.241   1.823
 2939SOL    HW2 8843   3.949   1.328   1.942
 2940SOL     OW 8844   3.803   1.240   0.653
 2940SOL    HW1 8845   3.802   1.193   0.741
 2940SOL    HW2 8846   3.885   1.212   0.602
 2941SOL     OW 8847   4.396   1.391   1.624
 2941SOL    HW1 8848   4.318   1.341   1.662
 2941SOL    HW2 8849   4.393   1.486   1.655
 2942SOL     OW 8850   4.152   0.424   0.520
 2942SOL    HW1 8851   4.182   0.352   0.458
 2942SOL    HW2 8852   4.113   0.384   0.603
 2943SOL     OW 8853   4.041   0.547   1.280
 2943SOL    HW1 8854   4.079   0.488   1.352
 2943SOL    HW2 8855   4.081   0.521   1.192
 2944SOL     OW 8856   4.536   1.586   0.687
 2944SOL    HW1 8857   4.568   1.596   0.593
 2944SOL    HW2 8858   4.457   1.524   0.689
 2945SOL     OW 8859   4.725   0.034   1.154
 2945SOL    HW1 8860   4.662  -0.038   1.123
 2945SOL    HW2 8861   4.818  -0.002   1.154
 2946SOL     OW 8862   4.494   1.330   0.301
 2946SOL    HW1 8863   4.448   1.243   0.318
 2946SOL    HW2 8864   4.585   1.327   0.342
 2947SOL     OW 8865   4.342   1.567   1.284
 2947SOL    HW1 8866   4.337   1.649   1.341
 2947SOL    HW2 8867   4.431   1.564   1.239
 2948SOL     OW 8868   3.763   1.077   0.300
 2948SOL    HW1 8869   3.862   1.066   0.291
 2948SOL    HW2 8870   3.723   0.991   0.332
 2949SOL     OW 8871   4.599   1.646   0.337
 2949SOL    HW1 8872   4.522   1.611   0.283
 2949SOL    HW2 8873   4.567   1.717   0.399
 2950SOL     OW 8874   3.954   0.628   1.975
 2950SOL    HW1 8875   3.861   0.626   2.012
 2950SOL    HW2 8876   3.955   0.589   1.883
 2951SOL     OW 8877   3.949   0.275   2.858
 2951SOL    HW1 8878   3.984   0.258   2.950
 2951SOL    HW2 8879   3.861   0.230   2.846
 2952SOL     OW 8880   3.743   0.368   2.509
 2952SOL    HW1 8881   3.661   0.411   2.548
 2952SOL    HW2 8882   3.715   0.295   2.446
 2953SOL     OW 8883   4.293   1.275   3.027
 2953SOL    HW1 8884   4.200   1.268   2.990
 2953SOL    HW2 8885   4.304   1.364   3.071
 2954SOL     OW 8886   4.492   1.144   2.885
 2954SOL    HW1 8887   4.414   1.161   2.945
 2954SOL    HW2 8888   4.526   1.231   2.849
 2955SOL     OW 8889   4.574   0.798   3.685
 2955SOL    HW1 8890   4.570   0.874   3.750
 2955SOL    HW2 8891   4.596   0.834   3.594
 2956SOL     OW 8892   4.409   1.012   2.527
 2956SOL    HW1 8893   4.478   0.996   2.597
 2956SOL    HW2 8894   4.336   1.069   2.565
 2957SOL     OW 8895   4.410   1.161   3.665
 2957SOL    HW1 8896   4.470   1.240   3.679
 2957SOL    HW2 8897   4.324   1.192   3.624
 2958SOL     OW 8898   4.059   1.435   2.923
 2958SOL    HW1 8899   3.981   1.404   2.870
 2958SOL    HW2 8900   4.117   1.493   2.866
 2959SOL     OW 8901   4.162   0.392   3.361
 2959SOL    HW1 8902   4.244   0.336   3.370
 2959SOL    HW2 8903   4.081   0.334   3.365
 2960SOL     OW 8904   3.955   1.713   2.345
 2960SOL    HW1 8905   3.989   1.790   2.399
 2960SOL    HW2 8906   3.999   1.713   2.255
 2961SOL     OW 8907   3.954   1.434   2.400
 2961SOL    HW1 8908   3.928   1.530   2.400
 2961SOL    HW2 8909   3.883   1.380   2.445
 2962SOL     OW 8910   3.964   1.091   2.748
 2962SOL    HW1 8911   3.978   1.007   2.800
 2962SOL    HW2 8912   3.909   1.155   2.803
 2963SOL     OW 8913   4.344   1.786   3.301
 2963SOL    HW1 8914   4.252   1.769   3.336
 2963SOL    HW2 8915   4.372   1.878   3.327
 2964SOL     OW 8916   4.330   0.964   1.985
 2964SOL    HW1 8917   4.337   1.048   1.931
 2964SOL    HW2 8918   4.376   0.977   2.073
 2965SOL     OW 8919   3.846   0.643   2.425
 2965SOL    HW1 8920   3.801   0.555   2.442
 2965SOL    HW2 8921   3.845   0.697   2.509
 2966SOL     OW 8922   3.751   1.596   1.979
 2966SOL    HW1 8923   3.732   1.500   2.000
 2966SOL    HW2 8924   3.718   1.654   2.054
 2967SOL     OW 8925   3.837   0.737   3.459
 2967SOL    HW1 8926   3.925   0.724   3.504
 2967SOL    HW2 8927   3.824   0.834   3.437
 2968SOL     OW 8928   4.337   1.365   2.588
 2968SOL    HW1 8929   4.288   1.278   2.597
 2968SOL    HW2 8930   4.314   1.408   2.501
 2969SOL     OW 8931   4.533   0.004   2.364
 2969SOL    HW1 8932   4.573   0.095   2.355
 2969SOL    HW2 8933   4.433   0.012   2.370
 2970SOL     OW 8934   3.921   0.976   3.126
 2970SOL    HW1 8935   4.010   0.931   3.112
 2970SOL    HW2 8936   3.848   0.911   3.107
 2971SOL     OW 8937   4.041   0.251   3.663
 2971SOL    HW1 8938   4.112   0.322   3.669
 2971SOL    HW2 8939   3.953   0.290   3.691
 2972SOL     OW 8940   4.322   0.729   2.132
 2972SOL    HW1 8941   4.346   0.798   2.064
 2972SOL    HW2 8942   4.244   0.762   2.186
 2973SOL     OW 8943   4.531   0.605   3.327
 2973SOL    HW1 8944   4.484   0.602   3.416
 2973SOL    HW2 8945   4.480   0.550   3.261
 2974SOL     OW 8946   4.697   0.890   3.434
 2974SOL    HW1 8947   4.743   0.806   3.405
 2974SOL    HW2 8948   4.641   0.924   3.359
 2975SOL     OW 8949   4.715   0.410   3.104
 2975SOL    HW1 8950   4.638   0.444   3.158
 2975SOL    HW2 8951   4.681   0.359   3.025
 2976SOL     OW 8952   3.800   0.811   2.651
 2976SOL    HW1 8953   3.899   0.799   2.660
 2976SOL    HW2 8954   3.776   0.906   2.672
 2977SOL     OW 8955   3.854   1.821   3.433
 2977SOL    HW1 8956   3.844   1.806   3.532
 2977SOL    HW2 8957   3.768   1.857   3.397
 2978SOL     OW 8958   4.589   0.348   2.057
 2978SOL    HW1 8959   4.648   0.411   2.008
 2978SOL    HW2 8960   4.608   0.254   2.028
 2979SOL     OW 8961   4.274   0.196   2.747
 2979SOL    HW1 8962   4.269   0.191   2.847
 2979SOL    HW2 8963   4.276   0.292   2.718
 2980SOL     OW 8964   4.732   1.456   2.339
 2980SOL    HW1 8965   4.686   1.528   2.287
 2980SOL    HW2 8966   4.728   1.476   2.437
 2981SOL     OW 8967   4.075   1.801   2.715
 2981SOL    HW1 8968   4.125   1.715   2.721
 2981SOL    HW2 8969   4.140   1.878   2.712
 2982SOL     OW 8970   4.045   0.943   2.104
 2982SOL    HW1 8971   4.127   0.982   2.062
 2982SOL    HW2 8972   4.018   0.861   2.055
 2983SOL     OW 8973   4.185   1.266   3.589
 2983SOL    HW1 8974   4.135   1.267   3.503
 2983SOL    HW2 8975   4.122   1.248   3.665
 2984SOL     OW 8976   3.926   0.285   3.360
 2984SOL    HW1 8977   3.846   0.345   3.347
 2984SOL    HW2 8978   3.916   0.236   3.446
 2985SOL     OW 8979   4.188   1.743   2.185
 2985SOL    HW1 8980   4.221   1.782   2.271
 2985SOL    HW2 8981   4.264   1.736   2.120
 2986SOL     OW 8982   3.973   1.785   3.103
 2986SOL    HW1 8983   4.030   1.720   3.153
 2986SOL    HW2 8984   3.957   1.752   3.010
 2987SOL     OW 8985   4.106   0.700   2.342
 2987SOL    HW1 8986   4.151   0.610   2.339
 2987SOL    HW2 8987   4.012   0.689   2.375
 2988SOL     OW 8988   4.338   0.122   1.979
 2988SOL    HW1 8989   4.436   0.100   1.986
 2988SOL    HW2 8990   4.307   0.105   1.886
 2989SOL     OW 8991   4.505   0.264   3.611
 2989SOL    HW1 8992   4.572   0.203   3.654
 2989SOL    HW2 8993   4.432   0.283   3.676
 2990SOL     OW 8994   4.612   1.514   3.057
 2990SOL    HW1 8995   4.589   1.489   2.963
 2990SOL    HW2 8996   4.673   1.445   3.096
 2991SOL     OW 8997   4.527   1.402   2.786
 2991SOL    HW1 8998   4.617   1.416   2.744
 2991SOL    HW2 8999   4.456   1.404   2.715
 2992SOL     OW 9000   4.646   0.503   2.761
 2992SOL    HW1 9001   4.621   0.494   2.665
 2992SOL    HW2 9002   4.694   0.421   2.792
 2993SOL     OW 9003   4.263   0.064   2.374
 2993SOL    HW1 9004   4.182   0.065   2.432
 2993SOL    HW2 9005   4.266   0.147   2.319
 2994SOL     OW 9006   4.021   0.035   2.033
 2994SOL    HW1 9007   4.070   0.119   2.012
 2994SOL    HW2 9008   4.083  -0.030   2.078
 2995SOL     OW 9009   4.659   0.236   2.342
 2995SOL    HW1 9010   4.611   0.277   2.264
 2995SOL    HW2 9011   4.758   0.234   2.323
 2996SOL     OW 9012   4.951   1.570   2.655
 2996SOL    HW1 9013   4.972   1.644   2.590
 2996SOL    HW2 9014   5.019   1.570   2.728
 2997SOL     OW 9015   4.183   1.152   2.603
 2997SOL    HW1 9016   4.112   1.125   2.668
 2997SOL    HW2 9017   4.157   1.124   2.510
 2998SOL     OW 9018   4.756   0.549   1.878
 2998SOL    HW1 9019   4.715   0.631   1.839
 2998SOL    HW2 9020   4.820   0.575   1.951
 2999SOL     OW 9021   3.802   0.556   3.248
 2999SOL    HW1 9022   3.894   0.555   3.207
 2999SOL    HW2 9023   3.796   0.630   3.315
 3000SOL     OW 9024   4.285   0.222   3.009
 3000SOL    HW1 9025   4.323   0.138   3.046
 3000SOL    HW2 9026   4.197   0.241   3.053
 3001SOL     OW 9027   4.590   0.454   2.504
 3001SOL    HW1 9028   4.558   0.526   2.442
 3001SOL    HW2 9029   4.614   0.373   2.451
 3002SOL     OW 9030   4.741   0.039   2.615
 3002SOL    HW1 9031   4.669   0.044   2.546
 3002SOL    HW2 9032   4.717  -0.030   2.684
 3003SOL     OW 9033   4.212   1.385   2.036
 3003SOL    HW1 9034   4.125   1.370   2.083
 3003SOL    HW2 9035   4.195   1.411   1.941
 3004SOL     OW 9036   4.251   0.256   2.190
 3004SOL    HW1 9037   4.278   0.197   2.115
 3004SOL    HW2 9038   4.251   0.351   2.159
 3005SOL     OW 9039   4.639   0.089   3.264
 3005SOL    HW1 9040   4.664   0.069   3.169
 3005SOL    HW2 9041   4.711   0.145   3.306
 3006SOL     OW 9042   4.704   1.116   3.581
 3006SOL    HW1 9043   4.605   1.122   3.591
 3006SOL    HW2 9044   4.727   1.036   3.525
 3007SOL     OW 9045   4.429   1.050   2.230
 3007SOL    HW1 9046   4.415   1.057   2.329
 3007SOL    HW2 9047   4.513   0.999   2.212
 3008SOL     OW 9048   4.134   0.813   3.113
 3008SOL    HW1 9049   4.220   0.825   3.163
 3008SOL    HW2 9050   4.092   0.726   3.140
 3009SOL     OW 9051   3.788   1.564   3.193
 3009SOL    HW1 9052   3.742   1.646   3.159
 3009SOL    HW2 9053   3.886   1.583   3.202
 3010SOL     OW 9054   4.091   1.100   2.363
 3010SOL    HW1 9055   4.084   1.183   2.307
 3010SOL    HW2 9056   4.095   1.020   2.303
 3011SOL     OW 9057   4.290   0.537   2.727
 3011SOL    HW1 9058   4.302   0.603   2.653
 3011SOL    HW2 9059   4.336   0.571   2.810
 3012SOL     OW 9060   4.078   1.510   3.191
 3012SOL    HW1 9061   4.057   1.466   3.104
 3012SOL    HW2 9062   4.175   1.536   3.194
 3013SOL     OW 9063   4.126   0.751   3.460
 3013SOL    HW1 9064   4.194   0.806   3.413
 3013SOL    HW2 9065   4.166   0.663   3.487
 3014SOL     OW 9066   4.737   0.105   3.632
 3014SOL    HW1 9067   4.743   0.190   3.580
 3014SOL    HW2 9068   4.769   0.029   3.575
 3015SOL     OW 9069   4.228   0.050   3.602
 3015SOL    HW1 9070   4.186  -0.007   3.532
 3015SOL    HW2 9071   4.162   0.119   3.634
 3016SOL     OW 9072   4.297   0.870   2.891
 3016SOL    HW1 9073   4.341   0.959   2.882
 3016SOL    HW2 9074   4.234   0.870   2.968
 3017SOL     OW 9075   4.933   0.525   2.137
 3017SOL    HW1 9076   4.946   0.441   2.191
 3017SOL    HW2 9077   4.904   0.599   2.197
 3018SOL     OW 9078   4.031   0.213   3.093
 3018SOL    HW1 9079   4.008   0.250   3.183
 3018SOL    HW2 9080   4.001   0.118   3.087
 3019SOL     OW 9081   3.761   1.310   3.144
 3019SOL    HW1 9082   3.814   1.261   3.212
 3019SOL    HW2 9083   3.783   1.408   3.149
 3020SOL     OW 9084   4.456   0.634   2.926
 3020SOL    HW1 9085   4.515   0.608   2.850
 3020SOL    HW2 9086   4.428   0.730   2.915
 3021SOL     OW 9087   4.031   0.063   2.480
 3021SOL    HW1 9088   4.020   0.157   2.513
 3021SOL    HW2 9089   4.026   0.000   2.557
 3022SOL     OW 9090   4.747   0.766   2.828
 3022SOL    HW1 9091   4.762   0.787   2.924
 3022SOL    HW2 9092   4.717   0.671   2.819
 3023SOL     OW 9093   4.704   1.573   3.562
 3023SOL    HW1 9094   4.684   1.617   3.474
 3023SOL    HW2 9095   4.743   1.482   3.546
 3024SOL     OW 9096   4.074   0.898   3.666
 3024SOL    HW1 9097   4.150   0.942   3.714
 3024SOL    HW2 9098   4.109   0.851   3.584
 3025SOL     OW 9099   4.043   0.810   2.811
 3025SOL    HW1 9100   4.136   0.846   2.816
 3025SOL    HW2 9101   4.037   0.725   2.863
 3026SOL     OW 9102   4.063   0.509   2.868
 3026SOL    HW1 9103   4.011   0.426   2.851
 3026SOL    HW2 9104   4.140   0.514   2.804
 3027SOL     OW 9105   3.732   1.326   2.062
 3027SOL    HW1 9106   3.639   1.347   2.031
 3027SOL    HW2 9107   3.742   1.227   2.075
 3028SOL     OW 9108   3.812   1.801   2.789
 3028SOL    HW1 9109   3.770   1.715   2.762
 3028SOL    HW2 9110   3.906   1.804   2.755
 3029SOL     OW 9111   4.228   1.568   2.772
 3029SOL    HW1 9112   4.294   1.642   2.781
 3029SOL    HW2 9113   4.272   1.489   2.730
 3030SOL     OW 9114   4.726   0.796   3.100
 3030SOL    HW1 9115   4.767   0.764   3.186
 3030SOL    HW2 9116   4.630   0.769   3.097
 3031SOL     OW 9117   3.764   0.544   2.976
 3031SOL    HW1 9118   3.849   0.511   2.935
 3031SOL    HW2 9119   3.777   0.559   3.074
 3032SOL     OW 9120   3.913   0.520   3.584
 3032SOL    HW1 9121   3.972   0.480   3.514
 3032SOL    HW2 9122   3.855   0.591   3.543
 3033SOL     OW 9123   4.539   0.572   2.187
 3033SOL    HW1 9124   4.546   0.483   2.141
 3033SOL    HW2 9125   4.445   0.606   2.179
 3034SOL     OW 9126   3.976   1.564   3.606
 3034SOL    HW1 9127   3.946   1.621   3.682
 3034SOL    HW2 9128   3.969   1.467   3.632
 3035SOL     OW 9129   4.395   0.464   3.131
 3035SOL    HW1 9130   4.361   0.375   3.101
 3035SOL    HW2 9131   4.421   0.518   3.051
 3036SOL     OW 9132   4.654   1.678   3.327
 3036SOL    HW1 9133   4.630   1.660   3.232
 3036SOL    HW2 9134   4.684   1.772   3.337
 3037SOL     OW 9135   4.197   0.500   2.053
 3037SOL    HW1 9136   4.258   0.580   2.057
 3037SOL    HW2 9137   4.102   0.531   2.060
 3038SOL     OW 9138   3.883   1.137   3.328
 3038SOL    HW1 9139   3.905   1.076   3.404
 3038SOL    HW2 9140   3.893   1.088   3.242
 3039SOL     OW 9141   3.807   1.258   2.884
 3039SOL    HW1 9142   3.802   1.257   2.984
 3039SOL    HW2 9143   3.724   1.217   2.846
 3040SOL     OW 9144   4.412   1.662   3.578
 3040SOL    HW1 9145   4.356   1.743   3.587
 3040SOL    HW2 9146   4.464   1.666   3.492
 3041SOL     OW 9147   3.854   1.794   3.713
 3041SOL    HW1 9148   3.813   1.720   3.766
 3041SOL    HW2 9149   3.918   1.845   3.771
 3042SOL     OW 9150   5.004   0.927   2.534
 3042SOL    HW1 9151   5.064   0.846   2.536
 3042SOL    HW2 9152   5.044   0.996   2.474
 3043SOL     OW 9153   4.554   1.273   3.284
 3043SOL    HW1 9154   4.549   1.306   3.379
 3043SOL    HW2 9155   4.468   1.292   3.238
 3044SOL     OW 9156   4.396   1.616   2.016
 3044SOL    HW1 9157   4.405   1.626   1.917
 3044SOL    HW2 9158   4.356   1.527   2.037
 3045SOL     OW 9159   3.987   0.326   2.582
 3045SOL    HW1 9160   3.908   0.377   2.548
 3045SOL    HW2 9161   3.978   0.311   2.680
 3046SOL     OW 9162   4.546   1.002   3.234
 3046SOL    HW1 9163   4.586   1.001   3.142
 3046SOL    HW2 9164   4.556   1.094   3.274
 3047SOL     OW 9165   4.640   0.910   2.153
 3047SOL    HW1 9166   4.703   0.948   2.085
 3047SOL    HW2 9167   4.680   0.827   2.192
 3048SOL     OW 9168   4.096   1.288   3.352
 3048SOL    HW1 9169   4.083   1.381   3.318
 3048SOL    HW2 9170   4.012   1.236   3.339
 3049SOL     OW 9171   4.763   1.098   2.558
 3049SOL    HW1 9172   4.693   1.051   2.612
 3049SOL    HW2 9173   4.822   1.030   2.515
 3050SOL     OW 9174   4.738   0.236   2.833
 3050SOL    HW1 9175   4.730   0.200   2.740
 3050SOL    HW2 9176   4.736   0.160   2.898
 3051SOL     OW 9177   4.314   1.487   2.353
 3051SOL    HW1 9178   4.356   1.429   2.283
 3051SOL    HW2 9179   4.270   1.566   2.309
 3052SOL     OW 9180   3.979   1.348   2.152
 3052SOL    HW1 9181   3.883   1.349   2.125
 3052SOL    HW2 9182   3.991   1.401   2.236
 3053SOL     OW 9183   3.829   1.013   3.588
 3053SOL    HW1 9184   3.752   0.980   3.642
 3053SOL    HW2 9185   3.914   0.983   3.630
 3054SOL     OW 9186   4.396   0.203   3.351
 3054SOL    HW1 9187   4.486   0.187   3.311
 3054SOL    HW2 9188   4.404   0.208   3.450
 3055SOL     OW 9189   3.799   0.345   1.895
 3055SOL    HW1 9190   3.707   0.317   1.866
 3055SOL    HW2 9191   3.830   0.422   1.839
 3056SOL     OW 9192   3.796   0.166   2.180
 3056SOL    HW1 9193   3.779   0.249   2.126
 3056SOL    HW2 9194   3.886   0.129   2.158
 3057SOL     OW 9195   4.337   0.842   3.293
 3057SOL    HW1 9196   4.393   0.923   3.276
 3057SOL    HW2 9197   4.396   0.762   3.296
 3058SOL     OW 9198   4.440   0.565   3.570
 3058SOL    HW1 9199   4.459   0.630   3.644
 3058SOL    HW2 9200   4.500   0.485   3.579
 3059SOL     OW 9201   4.114   1.741   3.422
 3059SOL    HW1 9202   4.023   1.782   3.420
 3059SOL    HW2 9203   4.107   1.647   3.454
 3060SOL     OW 9204   4.949   0.325   2.311
 3060SOL    HW1 9205   5.014   0.251   2.300
 3060SOL    HW2 9206   4.969   0.375   2.395
 3061SOL     OW 9207   4.318   0.745   2.514
 3061SOL    HW1 9208   4.368   0.830   2.495
 3061SOL    HW2 9209   4.230   0.747   2.466
 3062SOL     OW 9210   4.583   1.374   1.878
 3062SOL    HW1 9211   4.537   1.389   1.966
 3062SOL    HW2 9212   4.627   1.459   1.848
 3063SOL     OW 9213   4.385   1.790   2.815
 3063SOL    HW1 9214   4.339   1.878   2.802
 3063SOL    HW2 9215   4.484   1.802   2.808
 3064SOL     OW 9216   4.583   0.956   2.723
 3064SOL    HW1 9217   4.637   0.887   2.771
 3064SOL    HW2 9218   4.551   1.025   2.789
 3065SOL     OW 9219   3.945   1.314   3.706
 3065SOL    HW1 9220   3.880   1.241   3.685
 3065SOL    HW2 9221   3.949   1.328   3.804
 3066SOL     OW 9222   3.803   1.240   2.515
 3066SOL    HW1 9223   3.802   1.193   2.603
 3066SOL    HW2 9224   3.885   1.212   2.464
 3067SOL     OW 9225   4.396   1.391   3.486
 3067SOL    HW1 9226   4.318   1.341   3.524
 3067SOL    HW2 9227   4.393   1.486   3.517
 3068SOL     OW 9228   4.152   0.424   2.382
 3068SOL    HW1 9229   4.182   0.352   2.320
 3068SOL    HW2 9230   4.113   0.384   2.465
 3069SOL     OW 9231   4.041   0.547   3.142
 3069SOL    HW1 9232   4.079   0.488   3.214
 3069SOL    HW2 9233   4.081   0.521   3.054
 3070SOL     OW 9234   4.536   1.586   2.549
 3070SOL    HW1 9235   4.568   1.596   2.455
 3070SOL    HW2 9236   4.457   1.524   2.551
 3071SOL     OW 9237   4.725   0.034   3.016
 3071SOL    HW1 9238   4.662  -0.038   2.985
 3071SOL    HW2 9239   4.818  -0.002   3.016
 3072SOL     OW 9240   4.494   1.330   2.163
 3072SOL    HW1 9241   4.448   1.243   2.180
 3072SOL    HW2 9242   4.585   1.327   2.204
 3073SOL     OW 9243   4.342   1.567   3.146
 3073SOL    HW1 9244   4.337   1.649   3.203
 3073SOL    HW2 9245   4.431   1.564   3.101
 3074SOL     OW 9246   3.763   1.077   2.162
 3074SOL    HW1 9247   3.862   1.066   2.153
 3074SOL    HW2 9248   3.723   0.991   2.194
 3075SOL     OW 9249   4.599   1.646   2.199
 3075SOL    HW1 9250   4.522   1.611   2.145
 3075SOL    HW2 9251   4.567   1.717   2.261
 3076SOL     OW 9252   3.954   0.628   3.837
 3076SOL    HW1 9253   3.861   0.626   3.874
 3076SOL    HW2 9254   3.955   0.589   3.745
 3077SOL     OW 9255   3.949   0.275   4.720
 3077SOL    HW1 9256   3.984   0.258   4.812
 3077SOL    HW2 9257   3.861   0.230   4.708
 3078SOL     OW 9258   3.743   0.368   4.371
 3078SOL    HW1 9259   3.661   0.411   4.410
 3078SOL    HW2 9260   3.715   0.295   4.308
 3079SOL     OW 9261   4.492   1.144   4.747
 3079SOL    HW1 9262   4.414   1.161   4.807
 3079SOL    HW2 9263   4.526   1.231   4.711
 3080SOL     OW 9264   4.409   1.012   4.389
 3080SOL    HW1 9265   4.478   0.996   4.459
 3080SOL    HW2 9266   4.336   1.069   4.427
 3081SOL     OW 9267   4.059   1.435   4.785
 3081SOL    HW1 9268   3.981   1.404   4.732
 3081SOL    HW2 9269   4.117   1.493   4.728
 3082SOL     OW 9270   3.955   1.713   4.207
 3082SOL    HW1 9271   3.989   1.790   4.261
 3082SOL    HW2 9272   3.999   1.713   4.117
 3083SOL     OW 9273   3.954   1.434   4.262
 3083SOL    HW1 9274   3.928   1.530   4.262
 3083SOL    HW2 9275   3.883   1.380   4.307
 3084SOL     OW 9276   3.964   1.091   4.610
 3084SOL    HW1 9277   3.978   1.007   4.662
 3084SOL    HW2 9278   3.909   1.155   4.665
 3085SOL     OW 9279   4.330   0.964   3.847
 3085SOL    HW1 9280   4.337   1.048   3.793
 3085SOL    HW2 9281   4.376   0.977   3.935
 3086SOL     OW 9282   3.846   0.643   4.287
 3086SOL    HW1 9283   3.801   0.555   4.304
 3086SOL    HW2 9284   3.845   0.697   4.371
 3087SOL     OW 9285   3.751   1.596   3.841
 3087SOL    HW1 9286   3.732   1.500   3.862
 3087SOL    HW2 9287   3.718   1.654   3.916
 3088SOL     OW 9288   4.337   1.365   4.450
 3088SOL    HW1 9289   4.288   1.278   4.459
 3088SOL    HW2 9290   4.314   1.408   4.363
 3089SOL     OW 9291   4.533   0.004   4.226
 3089SOL    HW1 9292   4.573   0.095   4.217
 3089SOL    HW2 9293   4.433   0.012   4.232
 3090SOL     OW 9294   4.322   0.729   3.994
 3090SOL    HW1 9295   4.346   0.798   3.926
 3090SOL    HW2 9296   4.244   0.762   4.048
 3091SOL     OW 9297   3.800   0.811   4.513
 3091SOL    HW1 9298   3.899   0.799   4.522
 3091SOL    HW2 9299   3.776   0.906   4.534
 3092SOL     OW 9300   4.589   0.348   3.919
 3092SOL    HW1 9301   4.648   0.411   3.870
 3092SOL    HW2 9302   4.608   0.254   3.890
 3093SOL     OW 9303   4.274   0.196   4.609
 3093SOL    HW1 9304   4.269   0.191   4.709
 3093SOL    HW2 9305   4.276   0.292   4.580
 3094SOL     OW 9306   4.732   1.456   4.201
 3094SOL    HW1 9307   4.686   1.528   4.149
 3094SOL    HW2 9308   4.728   1.476   4.299
 3095SOL     OW 9309   4.075   1.801   4.577
 3095SOL    HW1 9310   4.125   1.715   4.583
 3095SOL    HW2 9311   4.140   1.878   4.574
 3096SOL     OW 9312   4.045   0.943   3.966
 3096SOL    HW1 9313   4.127   0.982   3.924
 3096SOL    HW2 9314   4.018   0.861   3.917
 3097SOL     OW 9315   4.188   1.743   4.047
 3097SOL    HW1 9316   4.221   1.782   4.133
 3097SOL    HW2 9317   4.264   1.736   3.982
 3098SOL     OW 9318   3.973   1.785   4.965
 3098SOL    HW1 9319   4.030   1.720   5.015
 3098SOL    HW2 9320   3.957   1.752   4.872
 3099SOL     OW 9321   4.106   0.700   4.204
 3099SOL    HW1 9322   4.151   0.610   4.201
 3099SOL    HW2 9323   4.012   0.689   4.237
 3100SOL     OW 9324   4.338   0.122   3.841
 3100SOL    HW1 9325   4.436   0.100   3.848
 3100SOL    HW2 9326   4.307   0.105   3.748
 3101SOL     OW 9327   4.527   1.402   4.648
 3101SOL    HW1 9328   4.617   1.416   4.606
 3101SOL    HW2 9329   4.456   1.404   4.577
 3102SOL     OW 9330   4.646   0.503   4.623
 3102SOL    HW1 9331   4.621   0.494   4.527
 3102SOL    HW2 9332   4.694   0.421   4.654
 3103SOL     OW 9333   4.263   0.064   4.236
 3103SOL    HW1 9334   4.182   0.065   4.294
 3103SOL    HW2 9335   4.266   0.147   4.181
 3104SOL     OW 9336   4.021   0.035   3.895
 3104SOL    HW1 9337   4.070   0.119   3.874
 3104SOL    HW2 9338   4.083  -0.030   3.940
 3105SOL     OW 9339   4.659   0.236   4.204
 3105SOL    HW1 9340   4.611   0.277   4.126
 3105SOL    HW2 9341   4.758   0.234   4.185
 3106SOL     OW 9342   4.951   1.570   4.517
 3106SOL    HW1 9343   4.972   1.644   4.452
 3106SOL    HW2 9344   5.019   1.570   4.590
 3107SOL     OW 9345   4.183   1.152   4.465
 3107SOL    HW1 9346   4.112   1.125   4.530
 3107SOL    HW2 9347   4.157   1.124   4.372
 3108SOL     OW 9348   4.756   0.549   3.740
 3108SOL    HW1 9349   4.715   0.631   3.701
 3108SOL    HW2 9350   4.820   0.575   3.813
 3109SOL     OW 9351   4.590   0.454   4.366
 3109SOL    HW1 9352   4.558   0.526   4.304
 3109SOL    HW2 9353   4.614   0.373   4.313
 3110SOL     OW 9354   4.741   0.039   4.477
 3110SOL    HW1 9355   4.669   0.044   4.408
 3110SOL    HW2 9356   4.717  -0.030   4.546
 3111SOL     OW 9357   4.212   1.385   3.898
 3111SOL    HW1 9358   4.125   1.370   3.945
 3111SOL    HW2 9359   4.195   1.411   3.803
 3112SOL     OW 9360   4.251   0.256   4.052
 3112SOL    HW1 9361   4.278   0.197   3.977
 3112SOL    HW2 9362   4.251   0.351   4.021
 3113SOL     OW 9363   4.429   1.050   4.092
 3113SOL    HW1 9364   4.415   1.057   4.191
 3113SOL    HW2 9365   4.513   0.999   4.074
 3114SOL     OW 9366   4.091   1.100   4.225
 3114SOL    HW1 9367   4.084   1.183   4.169
 3114SOL    HW2 9368   4.095   1.020   4.165
 3115SOL     OW 9369   4.290   0.537   4.589
 3115SOL    HW1 9370   4.302   0.603   4.515
 3115SOL    HW2 9371   4.336   0.571   4.672
 3116SOL     OW 9372   4.297   0.870   4.753
 3116SOL    HW1 9373   4.341   0.959   4.744
 3116SOL    HW2 9374   4.234   0.870   4.830
 3117SOL     OW 9375   4.933   0.525   3.999
 3117SOL    HW1 9376   4.946   0.441   4.053
 3117SOL    HW2 9377   4.904   0.599   4.059
 3118SOL     OW 9378   4.456   0.634   4.788
 3118SOL    HW1 9379   4.515   0.608   4.712
 3118SOL    HW2 9380   4.428   0.730   4.777
 3119SOL     OW 9381   4.031   0.063   4.342
 3119SOL    HW1 9382   4.020   0.157   4.375
 3119SOL    HW2 9383   4.026   0.000   4.419
 3120SOL     OW 9384   4.043   0.810   4.673
 3120SOL    HW1 9385   4.136   0.846   4.678
 3120SOL    HW2 9386   4.037   0.725   4.725
 3121SOL     OW 9387   4.063   0.509   4.730
 3121SOL    HW1 9388   4.011   0.426   4.713
 3121SOL    HW2 9389   4.140   0.514   4.666
 3122SOL     OW 9390   3.732   1.326   3.924
 3122SOL    HW1 9391   3.639   1.347   3.893
 3122SOL    HW2 9392   3.742   1.227   3.937
 3123SOL     OW 9393   3.812   1.801   4.651
 3123SOL    HW1 9394   3.770   1.715   4.624
 3123SOL    HW2 9395   3.906   1.804   4.617
 3124SOL     OW 9396   4.228   1.568   4.634
 3124SOL    HW1 9397   4.294   1.642   4.643
 3124SOL    HW2 9398   4.272   1.489   4.592
 3125SOL     OW 9399   4.726   0.796   4.962
 3125SOL    HW1 9400   4.767   0.764   5.048
 3125SOL    HW2 9401   4.630   0.769   4.959
 3126SOL     OW 9402   4.539   0.572   4.049
 3126SOL    HW1 9403   4.546   0.483   4.003
 3126SOL    HW2 9404   4.445   0.606   4.041
 3127SOL     OW 9405   4.395   0.464   4.993
 3127SOL    HW1 9406   4.361   0.375   4.963
 3127SOL    HW2 9407   4.421   0.518   4.913
 3128SOL     OW 9408   4.197   0.500   3.915
 3128SOL    HW1 9409   4.258   0.580   3.919
 3128SOL    HW2 9410   4.102   0.531   3.922
 3129SOL     OW 9411   3.807   1.258   4.746
 3129SOL    HW1 9412   3.802   1.257   4.846
 3129SOL    HW2 9413   3.724   1.217   4.708
 3130SOL     OW 9414   5.004   0.927   4.396
 3130SOL    HW1 9415   5.064   0.846   4.398
 3130SOL    HW2 9416   5.044   0.996   4.336
 3131SOL     OW 9417   4.396   1.616   3.878
 3131SOL    HW1 9418   4.405   1.626   3.779
 3131SOL    HW2 9419   4.356   1.527   3.899
 3132SOL     OW 9420   3.987   0.326   4.444
 3132SOL    HW1 9421   3.908   0.377   4.410
 3132SOL    HW2 9422   3.978   0.311   4.542
 3133SOL     OW 9423   4.640   0.910   4.015
 3133SOL    HW1 9424   4.703   0.948   3.947
 3133SOL    HW2 9425   4.680   0.827   4.054
 3134SOL     OW 9426   4.763   1.098   4.420
 3134SOL    HW1 9427   4.693   1.051   4.474
 3134SOL    HW2 9428   4.822   1.030   4.377
 3135SOL     OW 9429   4.314   1.487   4.215
 3135SOL    HW1 9430   4.356   1.429   4.145
 3135SOL    HW2 9431   4.270   1.566   4.171
 3136SOL     OW 9432   3.979   1.348   4.014
 3136SOL    HW1 9433   3.883   1.349   3.987
 3136SOL    HW2 9434   3.991   1.401   4.098
 3137SOL     OW 9435   3.799   0.345   3.757
 3137SOL    HW1 9436   3.707   0.317   3.728
 3137SOL    HW2 9437   3.830   0.422   3.701
 3138SOL     OW 9438   3.796   0.166   4.042
 3138SOL    HW1 9439   3.779   0.249   3.988
 3138SOL    HW2 9440   3.886   0.129   4.020
 3139SOL     OW 9441   4.949   0.325   4.173
 3139SOL    HW1 9442   5.014   0.251   4.162
 3139SOL    HW2 9443   4.969   0.375   4.257
 3140SOL     OW 9444   4.318   0.745   4.376
 3140SOL    HW1 9445   4.368   0.830   4.357
 3140SOL    HW2 9446   4.230   0.747   4.328
 3141SOL     OW 9447   4.583   1.374   3.740
 3141SOL    HW1 9448   4.537   1.389   3.828
 3141SOL    HW2 9449   4.627   1.459   3.710
 3142SOL     OW 9450   4.385   1.790   4.677
 3142SOL    HW1 9451   4.339   1.878   4.664
 3142SOL    HW2 9452   4.484   1.802   4.670
 3143SOL     OW 9453   4.583   0.956   4.585
 3143SOL    HW1 9454   4.637   0.887   4.633
 3143SOL    HW2 9455   4.551   1.025   4.651
 3144SOL     OW 9456   3.803   1.240   4.377
 3144SOL    HW1 9457   3.802   1.193   4.465
 3144SOL    HW2 9458   3.885   1.212   4.326
 3145SOL     OW 9459   4.152   0.424   4.244
 3145SOL    HW1 9460   4.182   0.352   4.182
 3145SOL    HW2 9461   4.113   0.384   4.327
 3146SOL     OW 9462   4.536   1.586   4.411
 3146SOL    HW1 9463   4.568   1.596   4.317
 3146SOL    HW2 9464   4.457   1.524   4.413
 3147SOL     OW 9465   4.494   1.330   4.025
 3147SOL    HW1 9466   4.448   1.243   4.042
 3147SOL    HW2 9467   4.585   1.327   4.066
 3148SOL     OW 9468   3.763   1.077   4.024
 3148SOL    HW1 9469   3.862   1.066   4.015
 3148SOL    HW2 9470   3.723   0.991   4.056
 3149SOL     OW 9471   4.599   1.646   4.061
 3149SOL    HW1 9472   4.522   1.611   4.007
 3149SOL    HW2 9473   4.567   1.717   4.123
 3150SOL     OW 9474   3.954   2.490   0.113
 3150SOL    HW1 9475   3.861   2.488   0.150
 3150SOL    HW2 9476   3.955   2.451   0.021
 3151SOL     OW 9477   3.949   2.137   0.996
 3151SOL    HW1 9478   3.984   2.120   1.088
 3151SOL    HW2 9479   3.861   2.092   0.984
 3152SOL     OW 9480   3.743   2.230   0.647
 3152SOL    HW1 9481   3.661   2.273   0.686
 3152SOL    HW2 9482   3.715   2.157   0.584
 3153SOL     OW 9483   4.293   3.137   1.165
 3153SOL    HW1 9484   4.200   3.130   1.128
 3153SOL    HW2 9485   4.304   3.226   1.209
 3154SOL     OW 9486   4.492   3.006   1.023
 3154SOL    HW1 9487   4.414   3.023   1.083
 3154SOL    HW2 9488   4.526   3.093   0.987
 3155SOL     OW 9489   4.574   2.660   1.823
 3155SOL    HW1 9490   4.570   2.736   1.888
 3155SOL    HW2 9491   4.596   2.696   1.732
 3156SOL     OW 9492   4.409   2.874   0.665
 3156SOL    HW1 9493   4.478   2.858   0.735
 3156SOL    HW2 9494   4.336   2.931   0.703
 3157SOL     OW 9495   4.410   3.023   1.803
 3157SOL    HW1 9496   4.470   3.102   1.817
 3157SOL    HW2 9497   4.324   3.054   1.762
 3158SOL     OW 9498   4.059   3.297   1.061
 3158SOL    HW1 9499   3.981   3.266   1.008
 3158SOL    HW2 9500   4.117   3.355   1.004
 3159SOL     OW 9501   4.162   2.254   1.499
 3159SOL    HW1 9502   4.244   2.198   1.508
 3159SOL    HW2 9503   4.081   2.196   1.503
 3160SOL     OW 9504   3.955   3.575   0.483
 3160SOL    HW1 9505   3.989   3.652   0.537
 3160SOL    HW2 9506   3.999   3.575   0.393
 3161SOL     OW 9507   3.954   3.296   0.538
 3161SOL    HW1 9508   3.928   3.392   0.538
 3161SOL    HW2 9509   3.883   3.242   0.583
 3162SOL     OW 9510   3.964   2.953   0.886
 3162SOL    HW1 9511   3.978   2.869   0.938
 3162SOL    HW2 9512   3.909   3.017   0.941
 3163SOL     OW 9513   4.344   3.648   1.439
 3163SOL    HW1 9514   4.252   3.631   1.474
 3163SOL    HW2 9515   4.372   3.740   1.465
 3164SOL     OW 9516   4.330   2.826   0.123
 3164SOL    HW1 9517   4.337   2.910   0.069
 3164SOL    HW2 9518   4.376   2.839   0.211
 3165SOL     OW 9519   3.846   2.505   0.563
 3165SOL    HW1 9520   3.801   2.417   0.580
 3165SOL    HW2 9521   3.845   2.559   0.647
 3166SOL     OW 9522   3.751   3.458   0.117
 3166SOL    HW1 9523   3.732   3.362   0.138
 3166SOL    HW2 9524   3.718   3.516   0.192
 3167SOL     OW 9525   3.837   2.599   1.597
 3167SOL    HW1 9526   3.925   2.586   1.642
 3167SOL    HW2 9527   3.824   2.696   1.575
 3168SOL     OW 9528   4.337   3.227   0.726
 3168SOL    HW1 9529   4.288   3.140   0.735
 3168SOL    HW2 9530   4.314   3.270   0.639
 3169SOL     OW 9531   4.533   1.866   0.502
 3169SOL    HW1 9532   4.573   1.957   0.493
 3169SOL    HW2 9533   4.433   1.874   0.508
 3170SOL     OW 9534   3.921   2.838   1.264
 3170SOL    HW1 9535   4.010   2.793   1.250
 3170SOL    HW2 9536   3.848   2.773   1.245
 3171SOL     OW 9537   4.041   2.113   1.801
 3171SOL    HW1 9538   4.112   2.184   1.807
 3171SOL    HW2 9539   3.953   2.152   1.829
 3172SOL     OW 9540   4.322   2.591   0.270
 3172SOL    HW1 9541   4.346   2.660   0.202
 3172SOL    HW2 9542   4.244   2.624   0.324
 3173SOL     OW 9543   4.531   2.467   1.465
 3173SOL    HW1 9544   4.484   2.464   1.554
 3173SOL    HW2 9545   4.480   2.412   1.399
 3174SOL     OW 9546   4.697   2.752   1.572
 3174SOL    HW1 9547   4.743   2.668   1.543
 3174SOL    HW2 9548   4.641   2.786   1.497
 3175SOL     OW 9549   4.715   2.272   1.242
 3175SOL    HW1 9550   4.638   2.306   1.296
 3175SOL    HW2 9551   4.681   2.221   1.163
 3176SOL     OW 9552   3.800   2.673   0.789
 3176SOL    HW1 9553   3.899   2.661   0.798
 3176SOL    HW2 9554   3.776   2.768   0.810
 3177SOL     OW 9555   3.854   3.683   1.571
 3177SOL    HW1 9556   3.844   3.668   1.670
 3177SOL    HW2 9557   3.768   3.719   1.535
 3178SOL     OW 9558   4.589   2.210   0.195
 3178SOL    HW1 9559   4.648   2.273   0.146
 3178SOL    HW2 9560   4.608   2.116   0.166
 3179SOL     OW 9561   4.274   2.058   0.885
 3179SOL    HW1 9562   4.269   2.053   0.985
 3179SOL    HW2 9563   4.276   2.154   0.856
 3180SOL     OW 9564   4.732   3.318   0.477
 3180SOL    HW1 9565   4.686   3.390   0.425
 3180SOL    HW2 9566   4.728   3.338   0.575
 3181SOL     OW 9567   4.075   3.663   0.853
 3181SOL    HW1 9568   4.125   3.577   0.859
 3181SOL    HW2 9569   4.140   3.740   0.850
 3182SOL     OW 9570   4.045   2.805   0.242
 3182SOL    HW1 9571   4.127   2.844   0.200
 3182SOL    HW2 9572   4.018   2.723   0.193
 3183SOL     OW 9573   4.185   3.128   1.727
 3183SOL    HW1 9574   4.135   3.129   1.641
 3183SOL    HW2 9575   4.122   3.110   1.803
 3184SOL     OW 9576   3.926   2.147   1.498
 3184SOL    HW1 9577   3.846   2.207   1.485
 3184SOL    HW2 9578   3.916   2.098   1.584
 3185SOL     OW 9579   4.188   3.605   0.323
 3185SOL    HW1 9580   4.221   3.644   0.409
 3185SOL    HW2 9581   4.264   3.598   0.258
 3186SOL     OW 9582   3.973   3.647   1.241
 3186SOL    HW1 9583   4.030   3.582   1.291
 3186SOL    HW2 9584   3.957   3.614   1.148
 3187SOL     OW 9585   4.106   2.562   0.480
 3187SOL    HW1 9586   4.151   2.472   0.477
 3187SOL    HW2 9587   4.012   2.551   0.513
 3188SOL     OW 9588   4.338   1.984   0.117
 3188SOL    HW1 9589   4.436   1.962   0.124
 3188SOL    HW2 9590   4.307   1.967   0.024
 3189SOL     OW 9591   4.505   2.126   1.749
 3189SOL    HW1 9592   4.572   2.065   1.792
 3189SOL    HW2 9593   4.432   2.145   1.814
 3190SOL     OW 9594   4.612   3.376   1.195
 3190SOL    HW1 9595   4.589   3.351   1.101
 3190SOL    HW2 9596   4.673   3.307   1.234
 3191SOL     OW 9597   4.527   3.264   0.924
 3191SOL    HW1 9598   4.617   3.278   0.882
 3191SOL    HW2 9599   4.456   3.266   0.853
 3192SOL     OW 9600   4.646   2.365   0.899
 3192SOL    HW1 9601   4.621   2.356   0.803
 3192SOL    HW2 9602   4.694   2.283   0.930
 3193SOL     OW 9603   4.263   1.926   0.512
 3193SOL    HW1 9604   4.182   1.927   0.570
 3193SOL    HW2 9605   4.266   2.009   0.457
 3194SOL     OW 9606   4.659   2.098   0.480
 3194SOL    HW1 9607   4.611   2.139   0.402
 3194SOL    HW2 9608   4.758   2.096   0.461
 3195SOL     OW 9609   4.951   3.432   0.793
 3195SOL    HW1 9610   4.972   3.506   0.728
 3195SOL    HW2 9611   5.019   3.432   0.866
 3196SOL     OW 9612   4.183   3.014   0.741
 3196SOL    HW1 9613   4.112   2.987   0.806
 3196SOL    HW2 9614   4.157   2.986   0.648
 3197SOL     OW 9615   4.756   2.411   0.016
 3197SOL    HW1 9616   4.715   2.493  -0.023
 3197SOL    HW2 9617   4.820   2.437   0.089
 3198SOL     OW 9618   3.802   2.418   1.386
 3198SOL    HW1 9619   3.894   2.417   1.345
 3198SOL    HW2 9620   3.796   2.492   1.453
 3199SOL     OW 9621   4.285   2.084   1.147
 3199SOL    HW1 9622   4.323   2.000   1.184
 3199SOL    HW2 9623   4.197   2.103   1.191
 3200SOL     OW 9624   4.590   2.316   0.642
 3200SOL    HW1 9625   4.558   2.388   0.580
 3200SOL    HW2 9626   4.614   2.235   0.589
 3201SOL     OW 9627   4.741   1.901   0.753
 3201SOL    HW1 9628   4.669   1.906   0.684
 3201SOL    HW2 9629   4.717   1.832   0.822
 3202SOL     OW 9630   4.212   3.247   0.174
 3202SOL    HW1 9631   4.125   3.232   0.221
 3202SOL    HW2 9632   4.195   3.273   0.079
 3203SOL     OW 9633   4.251   2.118   0.328
 3203SOL    HW1 9634   4.278   2.059   0.253
 3203SOL    HW2 9635   4.251   2.213   0.297
 3204SOL     OW 9636   4.639   1.951   1.402
 3204SOL    HW1 9637   4.664   1.931   1.307
 3204SOL    HW2 9638   4.711   2.007   1.444
 3205SOL     OW 9639   4.704   2.978   1.719
 3205SOL    HW1 9640   4.605   2.984   1.729
 3205SOL    HW2 9641   4.727   2.898   1.663
 3206SOL     OW 9642   4.429   2.912   0.368
 3206SOL    HW1 9643   4.415   2.919   0.467
 3206SOL    HW2 9644   4.513   2.861   0.350
 3207SOL     OW 9645   4.134   2.675   1.251
 3207SOL    HW1 9646   4.220   2.687   1.301
 3207SOL    HW2 9647   4.092   2.588   1.278
 3208SOL     OW 9648   3.788   3.426   1.331
 3208SOL    HW1 9649   3.742   3.508   1.297
 3208SOL    HW2 9650   3.886   3.445   1.340
 3209SOL     OW 9651   4.091   2.962   0.501
 3209SOL    HW1 9652   4.084   3.045   0.445
 3209SOL    HW2 9653   4.095   2.882   0.441
 3210SOL     OW 9654   4.290   2.399   0.865
 3210SOL    HW1 9655   4.302   2.465   0.791
 3210SOL    HW2 9656   4.336   2.433   0.948
 3211SOL     OW 9657   4.078   3.372   1.329
 3211SOL    HW1 9658   4.057   3.328   1.242
 3211SOL    HW2 9659   4.175   3.398   1.332
 3212SOL     OW 9660   4.126   2.613   1.598
 3212SOL    HW1 9661   4.194   2.668   1.551
 3212SOL    HW2 9662   4.166   2.525   1.625
 3213SOL     OW 9663   4.737   1.967   1.770
 3213SOL    HW1 9664   4.743   2.052   1.718
 3213SOL    HW2 9665   4.769   1.891   1.713
 3214SOL     OW 9666   4.228   1.912   1.740
 3214SOL    HW1 9667   4.186   1.855   1.670
 3214SOL    HW2 9668   4.162   1.981   1.772
 3215SOL     OW 9669   4.297   2.732   1.029
 3215SOL    HW1 9670   4.341   2.821   1.020
 3215SOL    HW2 9671   4.234   2.732   1.106
 3216SOL     OW 9672   4.933   2.387   0.275
 3216SOL    HW1 9673   4.946   2.303   0.329
 3216SOL    HW2 9674   4.904   2.461   0.335
 3217SOL     OW 9675   4.031   2.075   1.231
 3217SOL    HW1 9676   4.008   2.112   1.321
 3217SOL    HW2 9677   4.001   1.980   1.225
 3218SOL     OW 9678   3.761   3.172   1.282
 3218SOL    HW1 9679   3.814   3.123   1.350
 3218SOL    HW2 9680   3.783   3.270   1.287
 3219SOL     OW 9681   4.456   2.496   1.064
 3219SOL    HW1 9682   4.515   2.470   0.988
 3219SOL    HW2 9683   4.428   2.592   1.053
 3220SOL     OW 9684   4.031   1.925   0.618
 3220SOL    HW1 9685   4.020   2.019   0.651
 3220SOL    HW2 9686   4.026   1.862   0.695
 3221SOL     OW 9687   4.747   2.628   0.966
 3221SOL    HW1 9688   4.762   2.649   1.062
 3221SOL    HW2 9689   4.717   2.533   0.957
 3222SOL     OW 9690   4.704   3.435   1.700
 3222SOL    HW1 9691   4.684   3.479   1.612
 3222SOL    HW2 9692   4.743   3.344   1.684
 3223SOL     OW 9693   4.074   2.760   1.804
 3223SOL    HW1 9694   4.150   2.804   1.852
 3223SOL    HW2 9695   4.109   2.713   1.722
 3224SOL     OW 9696   4.043   2.672   0.949
 3224SOL    HW1 9697   4.136   2.708   0.954
 3224SOL    HW2 9698   4.037   2.587   1.001
 3225SOL     OW 9699   4.063   2.371   1.006
 3225SOL    HW1 9700   4.011   2.288   0.989
 3225SOL    HW2 9701   4.140   2.376   0.942
 3226SOL     OW 9702   3.732   3.188   0.200
 3226SOL    HW1 9703   3.639   3.209   0.169
 3226SOL    HW2 9704   3.742   3.089   0.213
 3227SOL     OW 9705   3.812   3.663   0.927
 3227SOL    HW1 9706   3.770   3.577   0.900
 3227SOL    HW2 9707   3.906   3.666   0.893
 3228SOL     OW 9708   4.228   3.430   0.910
 3228SOL    HW1 9709   4.294   3.504   0.919
 3228SOL    HW2 9710   4.272   3.351   0.868
 3229SOL     OW 9711   4.726   2.658   1.238
 3229SOL    HW1 9712   4.767   2.626   1.324
 3229SOL    HW2 9713   4.630   2.631   1.235
 3230SOL     OW 9714   3.764   2.406   1.114
 3230SOL    HW1 9715   3.849   2.373   1.073
 3230SOL    HW2 9716   3.777   2.421   1.212
 3231SOL     OW 9717   3.913   2.382   1.722
 3231SOL    HW1 9718   3.972   2.342   1.652
 3231SOL    HW2 9719   3.855   2.453   1.681
 3232SOL     OW 9720   4.539   2.434   0.325
 3232SOL    HW1 9721   4.546   2.345   0.279
 3232SOL    HW2 9722   4.445   2.468   0.317
 3233SOL     OW 9723   3.976   3.426   1.744
 3233SOL    HW1 9724   3.946   3.483   1.820
 3233SOL    HW2 9725   3.969   3.329   1.770
 3234SOL     OW 9726   4.395   2.326   1.269
 3234SOL    HW1 9727   4.361   2.237   1.239
 3234SOL    HW2 9728   4.421   2.380   1.189
 3235SOL     OW 9729   4.654   3.540   1.465
 3235SOL    HW1 9730   4.630   3.522   1.370
 3235SOL    HW2 9731   4.684   3.634   1.475
 3236SOL     OW 9732   4.197   2.362   0.191
 3236SOL    HW1 9733   4.258   2.442   0.195
 3236SOL    HW2 9734   4.102   2.393   0.198
 3237SOL     OW 9735   3.883   2.999   1.466
 3237SOL    HW1 9736   3.905   2.938   1.542
 3237SOL    HW2 9737   3.893   2.950   1.380
 3238SOL     OW 9738   3.807   3.120   1.022
 3238SOL    HW1 9739   3.802   3.119   1.122
 3238SOL    HW2 9740   3.724   3.079   0.984
 3239SOL     OW 9741   4.412   3.524   1.716
 3239SOL    HW1 9742   4.356   3.605   1.725
 3239SOL    HW2 9743   4.464   3.528   1.630
 3240SOL     OW 9744   4.627   1.948   0.133
 3240SOL    HW1 9745   4.678   1.949   0.047
 3240SOL    HW2 9746   4.683   1.906   0.204
 3241SOL     OW 9747   3.854   3.656   1.851
 3241SOL    HW1 9748   3.813   3.582   1.904
 3241SOL    HW2 9749   3.918   3.707   1.909
 3242SOL     OW 9750   5.004   2.789   0.672
 3242SOL    HW1 9751   5.064   2.708   0.674
 3242SOL    HW2 9752   5.044   2.858   0.612
 3243SOL     OW 9753   4.554   3.135   1.422
 3243SOL    HW1 9754   4.549   3.168   1.517
 3243SOL    HW2 9755   4.468   3.154   1.376
 3244SOL     OW 9756   4.396   3.478   0.154
 3244SOL    HW1 9757   4.405   3.488   0.055
 3244SOL    HW2 9758   4.356   3.389   0.175
 3245SOL     OW 9759   3.987   2.188   0.720
 3245SOL    HW1 9760   3.908   2.239   0.686
 3245SOL    HW2 9761   3.978   2.173   0.818
 3246SOL     OW 9762   4.546   2.864   1.372
 3246SOL    HW1 9763   4.586   2.863   1.280
 3246SOL    HW2 9764   4.556   2.956   1.412
 3247SOL     OW 9765   4.640   2.772   0.291
 3247SOL    HW1 9766   4.703   2.810   0.223
 3247SOL    HW2 9767   4.680   2.689   0.330
 3248SOL     OW 9768   4.096   3.150   1.490
 3248SOL    HW1 9769   4.083   3.243   1.456
 3248SOL    HW2 9770   4.012   3.098   1.477
 3249SOL     OW 9771   4.763   2.960   0.696
 3249SOL    HW1 9772   4.693   2.913   0.750
 3249SOL    HW2 9773   4.822   2.892   0.653
 3250SOL     OW 9774   4.738   2.098   0.971
 3250SOL    HW1 9775   4.730   2.062   0.878
 3250SOL    HW2 9776   4.736   2.022   1.036
 3251SOL     OW 9777   4.314   3.349   0.491
 3251SOL    HW1 9778   4.356   3.291   0.421
 3251SOL    HW2 9779   4.270   3.428   0.447
 3252SOL     OW 9780   3.979   3.210   0.290
 3252SOL    HW1 9781   3.883   3.211   0.263
 3252SOL    HW2 9782   3.991   3.263   0.374
 3253SOL     OW 9783   3.829   2.875   1.726
 3253SOL    HW1 9784   3.752   2.842   1.780
 3253SOL    HW2 9785   3.914   2.845   1.768
 3254SOL     OW 9786   4.396   2.065   1.489
 3254SOL    HW1 9787   4.486   2.049   1.449
 3254SOL    HW2 9788   4.404   2.070   1.588
 3255SOL     OW 9789   3.799   2.207   0.033
 3255SOL    HW1 9790   3.707   2.179   0.004
 3255SOL    HW2 9791   3.830   2.284  -0.023
 3256SOL     OW 9792   3.796   2.028   0.318
 3256SOL    HW1 9793   3.779   2.111   0.264
 3256SOL    HW2 9794   3.886   1.991   0.296
 3257SOL     OW 9795   4.337   2.704   1.431
 3257SOL    HW1 9796   4.393   2.785   1.414
 3257SOL    HW2 9797   4.396   2.624   1.434
 3258SOL     OW 9798   4.440   2.427   1.708
 3258SOL    HW1 9799   4.459   2.492   1.782
 3258SOL    HW2 9800   4.500   2.347   1.717
 3259SOL     OW 9801   4.114   3.603   1.560
 3259SOL    HW1 9802   4.023   3.644   1.558
 3259SOL    HW2 9803   4.107   3.509   1.592
 3260SOL     OW 9804   4.949   2.187   0.449
 3260SOL    HW1 9805   5.014   2.113   0.438
 3260SOL    HW2 9806   4.969   2.237   0.533
 3261SOL     OW 9807   4.318   2.607   0.652
 3261SOL    HW1 9808   4.368   2.692   0.633
 3261SOL    HW2 9809   4.230   2.609   0.604
 3262SOL     OW 9810   4.583   3.236   0.016
 3262SOL    HW1 9811   4.537   3.251   0.104
 3262SOL    HW2 9812   4.627   3.321  -0.014
 3263SOL     OW 9813   4.385   3.652   0.953
 3263SOL    HW1 9814   4.339   3.740   0.940
 3263SOL    HW2 9815   4.484   3.664   0.946
 3264SOL     OW 9816   4.583   2.818   0.861
 3264SOL    HW1 9817   4.637   2.749   0.909
 3264SOL    HW2 9818   4.551   2.887   0.927
 3265SOL     OW 9819   4.807   2.846   0.087
 3265SOL    HW1 9820   4.784   2.899   0.005
 3265SOL    HW2 9821   4.888   2.790   0.068
 3266SOL     OW 9822   3.945   3.176   1.844
 3266SOL    HW1 9823   3.880   3.103   1.823
 3266SOL    HW2 9824   3.949   3.190   1.942
 3267SOL     OW 9825   3.803   3.102   0.653
 3267SOL    HW1 9826   3.802   3.055   0.741
 3267SOL    HW2 9827   3.885   3.074   0.602
 3268SOL     OW 9828   4.396   3.253   1.624
 3268SOL    HW1 9829   4.318   3.203   1.662
 3268SOL    HW2 9830   4.393   3.348   1.655
 3269SOL     OW 9831   4.152   2.286   0.520
 3269SOL    HW1 9832   4.182   2.214   0.458
 3269SOL    HW2 9833   4.113   2.246   0.603
 3270SOL     OW 9834   4.041   2.409   1.280
 3270SOL    HW1 9835   4.079   2.350   1.352
 3270SOL    HW2 9836   4.081   2.383   1.192
 3271SOL     OW 9837   4.536   3.448   0.687
 3271SOL    HW1 9838   4.568   3.458   0.593
 3271SOL    HW2 9839   4.457   3.386   0.689
 3272SOL     OW 9840   4.725   1.896   1.154
 3272SOL    HW1 9841   4.662   1.824   1.123
 3272SOL    HW2 9842   4.818   1.860   1.154
 3273SOL     OW 9843   4.494   3.192   0.301
 3273SOL    HW1 9844   4.448   3.105   0.318
 3273SOL    HW2 9845   4.585   3.189   0.342
 3274SOL     OW 9846   4.342   3.429   1.284
 3274SOL    HW1 9847   4.337   3.511   1.341
 3274SOL    HW2 9848   4.431   3.426   1.239
 3275SOL     OW 9849   3.763   2.939   0.300
 3275SOL    HW1 9850   3.862   2.928   0.291
 3275SOL    HW2 9851   3.723   2.853   0.332
 3276SOL     OW 9852   4.599   3.508   0.337
 3276SOL    HW1 9853   4.522   3.473   0.283
 3276SOL    HW2 9854   4.567   3.579   0.399
 3277SOL     OW 9855   3.954   2.490   1.975
 3277SOL    HW1 9856   3.861   2.488   2.012
 3277SOL    HW2 9857   3.955   2.451   1.883
 3278SOL     OW 9858   3.949   2.137   2.858
 3278SOL    HW1 9859   3.984   2.120   2.950
 3278SOL    HW2 9860   3.861   2.092   2.846
 3279SOL     OW 9861   3.743   2.230   2.509
 3279SOL    HW1 9862   3.661   2.273   2.548
 3279SOL    HW2 9863   3.715   2.157   2.446
 3280SOL     OW 9864   4.293   3.137   3.027
 3280SOL    HW1 9865   4.200   3.130   2.990
 3280SOL    HW2 9866   4.304   3.226   3.071
 3281SOL     OW 9867   4.492   3.006   2.885
 3281SOL    HW1 9868   4.414   3.023   2.945
 3281SOL    HW2 9869   4.526   3.093   2.849
 3282SOL     OW 9870   4.574   2.660   3.685
 3282SOL    HW1 9871   4.570   2.736   3.750
 3282SOL    HW2 9872   4.596   2.696   3.594
 3283SOL     OW 9873   4.409   2.874   2.527
 3283SOL    HW1 9874   4.478   2.858   2.597
 3283SOL    HW2 9875   4.336   2.931   2.565
 3284SOL     OW 9876   4.410   3.023   3.665
 3284SOL    HW1 9877   4.470   3.102   3.679
 3284SOL    HW2 9878   4.324   3.054   3.624
 3285SOL     OW 9879   4.059   3.297   2.923
 3285SOL    HW1 9880   3.981   3.266   2.870
 3285SOL    HW2 9881   4.117   3.355   2.866
 3286SOL     OW 9882   4.162   2.254   3.361
 3286SOL    HW1 9883   4.244   2.198   3.370
 3286SOL    HW2 9884   4.081   2.196   3.365
 3287SOL     OW 9885   3.955   3.575   2.345
 3287SOL    HW1 9886   3.989   3.652   2.399
 3287SOL    HW2 9887   3.999   3.575   2.255
 3288SOL     OW 9888   3.954   3.296   2.400
 3288SOL    HW1 9889   3.928   3.392   2.400
 3288SOL    HW2 9890   3.883   3.242   2.445
 3289SOL     OW 9891   3.964   2.953   2.748
 3289SOL    HW1 9892   3.978   2.869   2.800
 3289SOL    HW2 9893   3.909   3.017   2.803
 3290SOL     OW 9894   4.344   3.648   3.301
 3290SOL    HW1 9895   4.252   3.631   3.336
 3290SOL    HW2 9896   4.372   3.740   3.327
 3291SOL     OW 9897   4.330   2.826   1.985
 3291SOL    HW1 9898   4.337   2.910   1.931
 3291SOL    HW2 9899   4.376   2.839   2.073
 3292SOL     OW 9900   3.846   2.505   2.425
 3292SOL    HW1 9901   3.801   2.417   2.442
 3292SOL    HW2 9902   3.845   2.559   2.509
 3293SOL     OW 9903   3.751   3.458   1.979
 3293SOL    HW1 9904   3.732   3.362   2.000
 3293SOL    HW2 9905   3.718   3.516   2.054
 3294SOL     OW 9906   3.837   2.599   3.459
 3294SOL    HW1 9907   3.925   2.586   3.504
 3294SOL    HW2 9908   3.824   2.696   3.437
 3295SOL     OW 9909   4.337   3.227   2.588
 3295SOL    HW1 9910   4.288   3.140   2.597
 3295SOL    HW2 9911   4.314   3.270   2.501
 3296SOL     OW 9912   4.533   1.866   2.364
 3296SOL    HW1 9913   4.573   1.957   2.355
 3296SOL    HW2 9914   4.433   1.874   2.370
 3297SOL     OW 9915   3.921   2.838   3.126
 3297SOL    HW1 9916   4.010   2.793   3.112
 3297SOL    HW2 9917   3.848   2.773   3.107
 3298SOL     OW 9918   4.041   2.113   3.663
 3298SOL    HW1 9919   4.112   2.184   3.669
 3298SOL    HW2 9920   3.953   2.152   3.691
 3299SOL     OW 9921   4.322   2.591   2.132
 3299SOL    HW1 9922   4.346   2.660   2.064
 3299SOL    HW2 9923   4.244   2.624   2.186
 3300SOL     OW 9924   4.531   2.467   3.327
 3300SOL    HW1 9925   4.484   2.464   3.416
 3300SOL    HW2 9926   4.480   2.412   3.261
 3301SOL     OW 9927   4.697   2.752   3.434
 3301SOL    HW1 9928   4.743   2.668   3.405
 3301SOL    HW2 9929   4.641   2.786   3.359
 3302SOL     OW 9930   4.715   2.272   3.104
 3302SOL    HW1 9931   4.638   2.306   3.158
 3302SOL    HW2 9932   4.681   2.221   3.025
 3303SOL     OW 9933   3.800   2.673   2.651
 3303SOL    HW1 9934   3.899   2.661   2.660
 3303SOL    HW2 9935   3.776   2.768   2.672
 3304SOL     OW 9936   3.854   3.683   3.433
 3304SOL    HW1 9937   3.844   3.668   3.532
 3304SOL    HW2 9938   3.768   3.719   3.397
 3305SOL     OW 9939   4.589   2.210   2.057
 3305SOL    HW1 9940   4.648   2.273   2.008
 3305SOL    HW2 9941   4.608   2.116   2.028
 3306SOL     OW 9942   4.274   2.058   2.747
 3306SOL    HW1 9943   4.269   2.053   2.847
 3306SOL    HW2 9944   4.276   2.154   2.718
 3307SOL     OW 9945   4.732   3.318   2.339
 3307SOL    HW1 9946   4.686   3.390   2.287
 3307SOL    HW2 9947   4.728   3.338   2.437
 3308SOL     OW 9948   4.075   3.663   2.715
 3308SOL    HW1 9949   4.125   3.577   2.721
 3308SOL    HW2 9950   4.140   3.740   2.712
 3309SOL     OW 9951   4.045   2.805   2.104
 3309SOL    HW1 9952   4.127   2.844   2.062
 3309SOL    HW2 9953   4.018   2.723   2.055
 3310SOL     OW 9954   4.185   3.128   3.589
 3310SOL    HW1 9955   4.135   3.129   3.503
 3310SOL    HW2 9956   4.122   3.110   3.665
 3311SOL     OW 9957   3.926   2.147   3.360
 3311SOL    HW1 9958   3.846   2.207   3.347
 3311SOL    HW2 9959   3.916   2.098   3.446
 3312SOL     OW 9960   4.188   3.605   2.185
 3312SOL    HW1 9961   4.221   3.644   2.271
 3312SOL    HW2 9962   4.264   3.598   2.120
 3313SOL     OW 9963   3.973   3.647   3.103
 3313SOL    HW1 9964   4.030   3.582   3.153
 3313SOL    HW2 9965   3.957   3.614   3.010
 3314SOL     OW 9966   4.106   2.562   2.342
 3314SOL    HW1 9967   4.151   2.472   2.339
 3314SOL    HW2 9968   4.012   2.551   2.375
 3315SOL     OW 9969   4.338   1.984   1.979
 3315SOL    HW1 9970   4.436   1.962   1.986
 3315SOL    HW2 9971   4.307   1.967   1.886
 3316SOL     OW 9972   4.505   2.126   3.611
 3316SOL    HW1 9973   4.572   2.065   3.654
 3316SOL    HW2 9974   4.432   2.145   3.676
 3317SOL     OW 9975   4.612   3.376   3.057
 3317SOL    HW1 9976   4.589   3.351   2.963
 3317SOL    HW2 9977   4.673   3.307   3.096
 3318SOL     OW 9978   4.527   3.264   2.786
 3318SOL    HW1 9979   4.617   3.278   2.744
 3318SOL    HW2 9980   4.456   3.266   2.715
 3319SOL     OW 9981   4.646   2.365   2.761
 3319SOL    HW1 9982   4.621   2.356   2.665
 3319SOL    HW2 9983   4.694   2.283   2.792
 3320SOL     OW 9984   4.263   1.926   2.374
 3320SOL    HW1 9985   4.182   1.927   2.432
 3320SOL    HW2 9986   4.266   2.009   2.319
 3321SOL     OW 9987   4.021   1.897   2.033
 3321SOL    HW1 9988   4.070   1.981   2.012
 3321SOL    HW2 9989   4.083   1.832   2.078
 3322SOL     OW 9990   4.659   2.098   2.342
 3322SOL    HW1 9991   4.611   2.139   2.264
 3322SOL    HW2 9992   4.758   2.096   2.323
 3323SOL     OW 9993   4.951   3.432   2.655
 3323SOL    HW1 9994   4.972   3.506   2.590
 3323SOL    HW2 9995   5.019   3.432   2.728
 3324SOL     OW 9996   4.183   3.014   2.603
 3324SOL    HW1 9997   4.112   2.987   2.668
 3324SOL    HW2 9998   4.157   2.986   2.510
 3325SOL     OW 9999   4.756   2.411   1.878
 3325SOL    HW110000   4.715   2.493   1.839
 3325SOL    HW210001   4.820   2.437   1.951
 3326SOL     OW10002   3.802   2.418   3.248
 3326SOL    HW110003   3.894   2.417   3.207
 3326SOL    HW210004   3.796   2.492   3.315
 3327SOL     OW10005   4.285   2.084   3.009
 3327SOL    HW110006   4.323   2.000   3.046
 3327SOL    HW210007   4.197   2.103   3.053
 3328SOL     OW10008   4.590   2.316   2.504
 3328SOL    HW110009   4.558   2.388   2.442
 3328SOL    HW210010   4.614   2.235   2.451
 3329SOL     OW10011   4.741   1.901   2.615
 3329SOL    HW110012   4.669   1.906   2.546
 3329SOL    HW210013   4.717   1.832   2.684
 3330SOL     OW10014   4.212   3.247   2.036
 3330SOL    HW110015   4.125   3.232   2.083
 3330SOL    HW210016   4.195   3.273   1.941
 3331SOL     OW10017   4.251   2.118   2.190
 3331SOL    HW110018   4.278   2.059   2.115
 3331SOL    HW210019   4.251   2.213   2.159
 3332SOL     OW10020   4.639   1.951   3.264
 3332SOL    HW110021   4.664   1.931   3.169
 3332SOL    HW210022   4.711   2.007   3.306
 3333SOL     OW10023   4.704   2.978   3.581
 3333SOL    HW110024   4.605   2.984   3.591
 3333SOL    HW210025   4.727   2.898   3.525
 3334SOL     OW10026   4.429   2.912   2.230
 3334SOL    HW110027   4.415   2.919   2.329
 3334SOL    HW210028   4.513   2.861   2.212
 3335SOL     OW10029   4.134   2.675   3.113
 3335SOL    HW110030   4.220   2.687   3.163
 3335SOL    HW210031   4.092   2.588   3.140
 3336SOL     OW10032   3.788   3.426   3.193
 3336SOL    HW110033   3.742   3.508   3.159
 3336SOL    HW210034   3.886   3.445   3.202
 3337SOL     OW10035   4.091   2.962   2.363
 3337SOL    HW110036   4.084   3.045   2.307
 3337SOL    HW210037   4.095   2.882   2.303
 3338SOL     OW10038   4.290   2.399   2.727
 3338SOL    HW110039   4.302   2.465   2.653
 3338SOL    HW210040   4.336   2.433   2.810
 3339SOL     OW10041   4.078   3.372   3.191
 3339SOL    HW110042   4.057   3.328   3.104
 3339SOL    HW210043   4.175   3.398   3.194
 3340SOL     OW10044   4.126   2.613   3.460
 3340SOL    HW110045   4.194   2.668   3.413
 3340SOL    HW210046   4.166   2.525   3.487
 3341SOL     OW10047   4.737   1.967   3.632
 3341SOL    HW110048   4.743   2.052   3.580
 3341SOL    HW210049   4.769   1.891   3.575
 3342SOL     OW10050   4.228   1.912   3.602
 3342SOL    HW110051   4.186   1.855   3.532
 3342SOL    HW210052   4.162   1.981   3.634
 3343SOL     OW10053   4.297   2.732   2.891
 3343SOL    HW110054   4.341   2.821   2.882
 3343SOL    HW210055   4.234   2.732   2.968
 3344SOL     OW10056   4.933   2.387   2.137
 3344SOL    HW110057   4.946   2.303   2.191
 3344SOL    HW210058   4.904   2.461   2.197
 3345SOL     OW10059   4.031   2.075   3.093
 3345SOL    HW110060   4.008   2.112   3.183
 3345SOL    HW210061   4.001   1.980   3.087
 3346SOL     OW10062   3.761   3.172   3.144
 3346SOL    HW110063   3.814   3.123   3.212
 3346SOL    HW210064   3.783   3.270   3.149
 3347SOL     OW10065   4.456   2.496   2.926
 3347SOL    HW110066   4.515   2.470   2.850
 3347SOL    HW210067   4.428   2.592   2.915
 3348SOL     OW10068   4.031   1.925   2.480
 3348SOL    HW110069   4.020   2.019   2.513
 3348SOL    HW210070   4.026   1.862   2.557
 3349SOL     OW10071   4.747   2.628   2.828
 3349SOL    HW110072   4.762   2.649   2.924
 3349SOL    HW210073   4.717   2.533   2.819
 3350SOL     OW10074   4.704   3.435   3.562
 3350SOL    HW110075   4.684   3.479   3.474
 3350SOL    HW210076   4.743   3.344   3.546
 3351SOL     OW10077   4.074   2.760   3.666
 3351SOL    HW110078   4.150   2.804   3.714
 3351SOL    HW210079   4.109   2.713   3.584
 3352SOL     OW10080   4.043   2.672   2.811
 3352SOL    HW110081   4.136   2.708   2.816
 3352SOL    HW210082   4.037   2.587   2.863
 3353SOL     OW10083   4.063   2.371   2.868
 3353SOL    HW110084   4.011   2.288   2.851
 3353SOL    HW210085   4.140   2.376   2.804
 3354SOL     OW10086   3.732   3.188   2.062
 3354SOL    HW110087   3.639   3.209   2.031
 3354SOL    HW210088   3.742   3.089   2.075
 3355SOL     OW10089   3.812   3.663   2.789
 3355SOL    HW110090   3.770   3.577   2.762
 3355SOL    HW210091   3.906   3.666   2.755
 3356SOL     OW10092   4.228   3.430   2.772
 3356SOL    HW110093   4.294   3.504   2.781
 3356SOL    HW210094   4.272   3.351   2.730
 3357SOL     OW10095   4.726   2.658   3.100
 3357SOL    HW110096   4.767   2.626   3.186
 3357SOL    HW210097   4.630   2.631   3.097
 3358SOL     OW10098   3.764   2.406   2.976
 3358SOL    HW110099   3.849   2.373   2.935
 3358SOL    HW210100   3.777   2.421   3.074
 3359SOL     OW10101   3.913   2.382   3.584
 3359SOL    HW110102   3.972   2.342   3.514
 3359SOL    HW210103   3.855   2.453   3.543
 3360SOL     OW10104   4.539   2.434   2.187
 3360SOL    HW110105   4.546   2.345   2.141
 3360SOL    HW210106   4.445   2.468   2.179
 3361SOL     OW10107   3.976   3.426   3.606
 3361SOL    HW110108   3.946   3.483   3.682
 3361SOL    HW210109   3.969   3.329   3.632
 3362SOL     OW10110   4.395   2.326   3.131
 3362SOL    HW110111   4.361   2.237   3.101
 3362SOL    HW210112   4.421   2.380   3.051
 3363SOL     OW10113   4.654   3.540   3.327
 3363SOL    HW110114   4.630   3.522   3.232
 3363SOL    HW210115   4.684   3.634   3.337
 3364SOL     OW10116   4.197   2.362   2.053
 3364SOL    HW110117   4.258   2.442   2.057
 3364SOL    HW210118   4.102   2.393   2.060
 3365SOL     OW10119   3.883   2.999   3.328
 3365SOL    HW110120   3.905   2.938   3.404
 3365SOL    HW210121   3.893   2.950   3.242
 3366SOL     OW10122   3.807   3.120   2.884
 3366SOL    HW110123   3.802   3.119   2.984
 3366SOL    HW210124   3.724   3.079   2.846
 3367SOL     OW10125   4.412   3.524   3.578
 3367SOL    HW110126   4.356   3.605   3.587
 3367SOL    HW210127   4.464   3.528   3.492
 3368SOL     OW10128   3.854   3.656   3.713
 3368SOL    HW110129   3.813   3.582   3.766
 3368SOL    HW210130   3.918   3.707   3.771
 3369SOL     OW10131   5.004   2.789   2.534
 3369SOL    HW110132   5.064   2.708   2.536
 3369SOL    HW210133   5.044   2.858   2.474
 3370SOL     OW10134   4.554   3.135   3.284
 3370SOL    HW110135   4.549   3.168   3.379
 3370SOL    HW210136   4.468   3.154   3.238
 3371SOL     OW10137   4.396   3.478   2.016
 3371SOL    HW110138   4.405   3.488   1.917
 3371SOL    HW210139   4.356   3.389   2.037
 3372SOL     OW10140   3.987   2.188   2.582
 3372SOL    HW110141   3.908   2.239   2.548
 3372SOL    HW210142   3.978   2.173   2.680
 3373SOL     OW10143   4.546   2.864   3.234
 3373SOL    HW110144   4.586   2.863   3.142
 3373SOL    HW210145   4.556   2.956   3.274
 3374SOL     OW10146   4.640   2.772   2.153
 3374SOL    HW110147   4.703   2.810   2.085
 3374SOL    HW210148   4.680   2.689   2.192
 3375SOL     OW10149   4.096   3.150   3.352
 3375SOL    HW110150   4.083   3.243   3.318
 3375SOL    HW210151   4.012   3.098   3.339
 3376SOL     OW10152   4.763   2.960   2.558
 3376SOL    HW110153   4.693   2.913   2.612
 3376SOL    HW210154   4.822   2.892   2.515
 3377SOL     OW10155   4.738   2.098   2.833
 3377SOL    HW110156   4.730   2.062   2.740
 3377SOL    HW210157   4.736   2.022   2.898
 3378SOL     OW10158   4.314   3.349   2.353
 3378SOL    HW110159   4.356   3.291   2.283
 3378SOL    HW210160   4.270   3.428   2.309
 3379SOL     OW10161   3.979   3.210   2.152
 3379SOL    HW110162   3.883   3.211   2.125
 3379SOL    HW210163   3.991   3.263   2.236
 3380SOL     OW10164   3.829   2.875   3.588
 3380SOL    HW110165   3.752   2.842   3.642
 3380SOL    HW210166   3.914   2.845   3.630
 3381SOL     OW10167   4.396   2.065   3.351
 3381SOL    HW110168   4.486   2.049   3.311
 3381SOL    HW210169   4.404   2.070   3.450
 3382SOL     OW10170   3.799   2.207   1.895
 3382SOL    HW110171   3.707   2.179   1.866
 3382SOL    HW210172   3.830   2.284   1.839
 3383SOL     OW10173   3.796   2.028   2.180
 3383SOL    HW110174   3.779   2.111   2.126
 3383SOL    HW210175   3.886   1.991   2.158
 3384SOL     OW10176   4.337   2.704   3.293
 3384SOL    HW110177   4.393   2.785   3.276
 3384SOL    HW210178   4.396   2.624   3.296
 3385SOL     OW10179   4.440   2.427   3.570
 3385SOL    HW110180   4.459   2.492   3.644
 3385SOL    HW210181   4.500   2.347   3.579
 3386SOL     OW10182   4.114   3.603   3.422
 3386SOL    HW110183   4.023   3.644   3.420
 3386SOL    HW210184   4.107   3.509   3.454
 3387SOL     OW10185   4.949   2.187   2.311
 3387SOL    HW110186   5.014   2.113   2.300
 3387SOL    HW210187   4.969   2.237   2.395
 3388SOL     OW10188   4.318   2.607   2.514
 3388SOL    HW110189   4.368   2.692   2.495
 3388SOL    HW210190   4.230   2.609   2.466
 3389SOL     OW10191   4.583   3.236   1.878
 3389SOL    HW110192   4.537   3.251   1.966
 3389SOL    HW210193   4.627   3.321   1.848
 3390SOL     OW10194   4.385   3.652   2.815
 3390SOL    HW110195   4.339   3.740   2.802
 3390SOL    HW210196   4.484   3.664   2.808
 3391SOL     OW10197   4.583   2.818   2.723
 3391SOL    HW110198   4.637   2.749   2.771
 3391SOL    HW210199   4.551   2.887   2.789
 3392SOL     OW10200   3.945   3.176   3.706
 3392SOL    HW110201   3.880   3.103   3.685
 3392SOL    HW210202   3.949   3.190   3.804
 3393SOL     OW10203   3.803   3.102   2.515
 3393SOL    HW110204   3.802   3.055   2.603
 3393SOL    HW210205   3.885   3.074   2.464
 3394SOL     OW10206   4.396   3.253   3.486
 3394SOL    HW110207   4.318   3.203   3.524
 3394SOL    HW210208   4.393   3.348   3.517
 3395SOL     OW10209   4.152   2.286   2.382
 3395SOL    HW110210   4.182   2.214   2.320
 3395SOL    HW210211   4.113   2.246   2.465
 3396SOL     OW10212   4.041   2.409   3.142
 3396SOL    HW110213   4.079   2.350   3.214
 3396SOL    HW210214   4.081   2.383   3.054
 3397SOL     OW10215   4.536   3.448   2.549
 3397SOL    HW110216   4.568   3.458   2.455
 3397SOL    HW210217   4.457   3.386   2.551
 3398SOL     OW10218   4.725   1.896   3.016
 3398SOL    HW110219   4.662   1.824   2.985
 3398SOL    HW210220   4.818   1.860   3.016
 3399SOL     OW10221   4.494   3.192   2.163
 3399SOL    HW110222   4.448   3.105   2.180
 3399SOL    HW210223   4.585   3.189   2.204
 3400SOL     OW10224   4.342   3.429   3.146
 3400SOL    HW110225   4.337   3.511   3.203
 3400SOL    HW210226   4.431   3.426   3.101
 3401SOL     OW10227   3.763   2.939   2.162
 3401SOL    HW110228   3.862   2.928   2.153
 3401SOL    HW210229   3.723   2.853   2.194
 3402SOL     OW10230   4.599   3.508   2.199
 3402SOL    HW110231   4.522   3.473   2.145
 3402SOL    HW210232   4.567   3.579   2.261
 3403SOL     OW10233   3.954   2.490   3.837
 3403SOL    HW110234   3.861   2.488   3.874
 3403SOL    HW210235   3.955   2.451   3.745
 3404SOL     OW10236   3.949   2.137   4.720
 3404SOL    HW110237   3.984   2.120   4.812
 3404SOL    HW210238   3.861   2.092   4.708
 3405SOL     OW10239   3.743   2.230   4.371
 3405SOL    HW110240   3.661   2.273   4.410
 3405SOL    HW210241   3.715   2.157   4.308
 3406SOL     OW10242   4.492   3.006   4.747
 3406SOL    HW110243   4.414   3.023   4.807
 3406SOL    HW210244   4.526   3.093   4.711
 3407SOL     OW10245   4.409   2.874   4.389
 3407SOL    HW110246   4.478   2.858   4.459
 3407SOL    HW210247   4.336   2.931   4.427
 3408SOL     OW10248   4.059   3.297   4.785
 3408SOL    HW110249   3.981   3.266   4.732
 3408SOL    HW210250   4.117   3.355   4.728
 3409SOL     OW10251   3.955   3.575   4.207
 3409SOL    HW110252   3.989   3.652   4.261
 3409SOL    HW210253   3.999   3.575   4.117
 3410SOL     OW10254   3.954   3.296   4.262
 3410SOL    HW110255   3.928   3.392   4.262
 3410SOL    HW210256   3.883   3.242   4.307
 3411SOL     OW10257   3.964   2.953   4.610
 3411SOL    HW110258   3.978   2.869   4.662
 3411SOL    HW210259   3.909   3.017   4.665
 3412SOL     OW10260   4.330   2.826   3.847
 3412SOL    HW110261   4.337   2.910   3.793
 3412SOL    HW210262   4.376   2.839   3.935
 3413SOL     OW10263   3.846   2.505   4.287
 3413SOL    HW110264   3.801   2.417   4.304
 3413SOL    HW210265   3.845   2.559   4.371
 3414SOL     OW10266   3.751   3.458   3.841
 3414SOL    HW110267   3.732   3.362   3.862
 3414SOL    HW210268   3.718   3.516   3.916
 3415SOL     OW10269   4.337   3.227   4.450
 3415SOL    HW110270   4.288   3.140   4.459
 3415SOL    HW210271   4.314   3.270   4.363
 3416SOL     OW10272   4.533   1.866   4.226
 3416SOL    HW110273   4.573   1.957   4.217
 3416SOL    HW210274   4.433   1.874   4.232
 3417SOL     OW10275   4.322   2.591   3.994
 3417SOL    HW110276   4.346   2.660   3.926
 3417SOL    HW210277   4.244   2.624   4.048
 3418SOL     OW10278   3.800   2.673   4.513
 3418SOL    HW110279   3.899   2.661   4.522
 3418SOL    HW210280   3.776   2.768   4.534
 3419SOL     OW10281   4.589   2.210   3.919
 3419SOL    HW110282   4.648   2.273   3.870
 3419SOL    HW210283   4.608   2.116   3.890
 3420SOL     OW10284   4.274   2.058   4.609
 3420SOL    HW110285   4.269   2.053   4.709
 3420SOL    HW210286   4.276   2.154   4.580
 3421SOL     OW10287   4.732   3.318   4.201
 3421SOL    HW110288   4.686   3.390   4.149
 3421SOL    HW210289   4.728   3.338   4.299
 3422SOL     OW10290   4.075   3.663   4.577
 3422SOL    HW110291   4.125   3.577   4.583
 3422SOL    HW210292   4.140   3.740   4.574
 3423SOL     OW10293   4.045   2.805   3.966
 3423SOL    HW110294   4.127   2.844   3.924
 3423SOL    HW210295   4.018   2.723   3.917
 3424SOL     OW10296   4.188   3.605   4.047
 3424SOL    HW110297   4.221   3.644   4.133
 3424SOL    HW210298   4.264   3.598   3.982
 3425SOL     OW10299   3.973   3.647   4.965
 3425SOL    HW110300   4.030   3.582   5.015
 3425SOL    HW210301   3.957   3.614   4.872
 3426SOL     OW10302   4.106   2.562   4.204
 3426SOL    HW110303   4.151   2.472   4.201
 3426SOL    HW210304   4.012   2.551   4.237
 3427SOL     OW10305   4.338   1.984   3.841
 3427SOL    HW110306   4.436   1.962   3.848
 3427SOL    HW210307   4.307   1.967   3.748
 3428SOL     OW10308   4.527   3.264   4.648
 3428SOL    HW110309   4.617   3.278   4.606
 3428SOL    HW210310   4.456   3.266   4.577
 3429SOL     OW10311   4.646   2.365   4.623
 3429SOL    HW110312   4.621   2.356   4.527
 3429SOL    HW210313   4.694   2.283   4.654
 3430SOL     OW10314   4.263   1.926   4.236
 3430SOL    HW110315   4.182   1.927   4.294
 3430SOL    HW210316   4.266   2.009   4.181
 3431SOL     OW10317   4.021   1.897   3.895
 3431SOL    HW110318   4.070   1.981   3.874
 3431SOL    HW210319   4.083   1.832   3.940
 3432SOL     OW10320   4.659   2.098   4.204
 3432SOL    HW110321   4.611   2.139   4.126
 3432SOL    HW210322   4.758   2.096   4.185
 3433SOL     OW10323   4.951   3.432   4.517
 3433SOL    HW110324   4.972   3.506   4.452
 3433SOL    HW210325   5.019   3.432   4.590
 3434SOL     OW10326   4.183   3.014   4.465
 3434SOL    HW110327   4.112   2.987   4.530
 3434SOL    HW210328   4.157   2.986   4.372
 3435SOL     OW10329   4.756   2.411   3.740
 3435SOL    HW110330   4.715   2.493   3.701
 3435SOL    HW210331   4.820   2.437   3.813
 3436SOL     OW10332   4.590   2.316   4.366
 3436SOL    HW110333   4.558   2.388   4.304
 3436SOL    HW210334   4.614   2.235   4.313
 3437SOL     OW10335   4.741   1.901   4.477
 3437SOL    HW110336   4.669   1.906   4.408
 3437SOL    HW210337   4.717   1.832   4.546
 3438SOL     OW10338   4.212   3.247   3.898
 3438SOL    HW110339   4.125   3.232   3.945
 3438SOL    HW210340   4.195   3.273   3.803
 3439SOL     OW10341   4.251   2.118   4.052
 3439SOL    HW110342   4.278   2.059   3.977
 3439SOL    HW210343   4.251   2.213   4.021
 3440SOL     OW10344   4.429   2.912   4.092
 3440SOL    HW110345   4.415   2.919   4.191
 3440SOL    HW210346   4.513   2.861   4.074
 3441SOL     OW10347   4.091   2.962   4.225
 3441SOL    HW110348   4.084   3.045   4.169
 3441SOL    HW210349   4.095   2.882   4.165
 3442SOL     OW10350   4.290   2.399   4.589
 3442SOL    HW110351   4.302   2.465   4.515
 3442SOL    HW210352   4.336   2.433   4.672
 3443SOL     OW10353   4.297   2.732   4.753
 3443SOL    HW110354   4.341   2.821   4.744
 3443SOL    HW210355   4.234   2.732   4.830
 3444SOL     OW10356   4.933   2.387   3.999
 3444SOL    HW110357   4.946   2.303   4.053
 3444SOL    HW210358   4.904   2.461   4.059
 3445SOL     OW10359   4.031   2.075   4.955
 3445SOL    HW110360   4.008   2.112   5.045
 3445SOL    HW210361   4.001   1.980   4.949
 3446SOL     OW10362   4.456   2.496   4.788
 3446SOL    HW110363   4.515   2.470   4.712
 3446SOL    HW210364   4.428   2.592   4.777
 3447SOL     OW10365   4.031   1.925   4.342
 3447SOL    HW110366   4.020   2.019   4.375
 3447SOL    HW210367   4.026   1.862   4.419
 3448SOL     OW10368   4.043   2.672   4.673
 3448SOL    HW110369   4.136   2.708   4.678
 3448SOL    HW210370   4.037   2.587   4.725
 3449SOL     OW10371   4.063   2.371   4.730
 3449SOL    HW110372   4.011   2.288   4.713
 3449SOL    HW210373   4.140   2.376   4.666
 3450SOL     OW10374   3.732   3.188   3.924
 3450SOL    HW110375   3.639   3.209   3.893
 3450SOL    HW210376   3.742   3.089   3.937
 3451SOL     OW10377   3.812   3.663   4.651
 3451SOL    HW110378   3.770   3.577   4.624
 3451SOL    HW210379   3.906   3.666   4.617
 3452SOL     OW10380   4.228   3.430   4.634
 3452SOL    HW110381   4.294   3.504   4.643
 3452SOL    HW210382   4.272   3.351   4.592
 3453SOL     OW10383   4.726   2.658   4.962
 3453SOL    HW110384   4.767   2.626   5.048
 3453SOL    HW210385   4.630   2.631   4.959
 3454SOL     OW10386   4.539   2.434   4.049
 3454SOL    HW110387   4.546   2.345   4.003
 3454SOL    HW210388   4.445   2.468   4.041
 3455SOL     OW10389   4.395   2.326   4.993
 3455SOL    HW110390   4.361   2.237   4.963
 3455SOL    HW210391   4.421   2.380   4.913
 3456SOL     OW10392   4.197   2.362   3.915
 3456SOL    HW110393   4.258   2.442   3.919
 3456SOL    HW210394   4.102   2.393   3.922
 3457SOL     OW10395   3.807   3.120   4.746
 3457SOL    HW110396   3.802   3.119   4.846
 3457SOL    HW210397   3.724   3.079   4.708
 3458SOL     OW10398   5.004   2.789   4.396
 3458SOL    HW110399   5.064   2.708   4.398
 3458SOL    HW210400   5.044   2.858   4.336
 3459SOL     OW10401   4.396   3.478   3.878
 3459SOL    HW110402   4.405   3.488   3.779
 3459SOL    HW210403   4.356   3.389   3.899
 3460SOL     OW10404   3.987   2.188   4.444
 3460SOL    HW110405   3.908   2.239   4.410
 3460SOL    HW210406   3.978   2.173   4.542
 3461SOL     OW10407   4.640   2.772   4.015
 3461SOL    HW110408   4.703   2.810   3.947
 3461SOL    HW210409   4.680   2.689   4.054
 3462SOL     OW10410   4.763   2.960   4.420
 3462SOL    HW110411   4.693   2.913   4.474
 3462SOL    HW210412   4.822   2.892   4.377
 3463SOL     OW10413   4.314   3.349   4.215
 3463SOL    HW110414   4.356   3.291   4.145
 3463SOL    HW210415   4.270   3.428   4.171
 3464SOL     OW10416   3.979   3.210   4.014
 3464SOL    HW110417   3.883   3.211   3.987
 3464SOL    HW210418   3.991   3.263   4.098
 3465SOL     OW10419   3.799   2.207   3.757
 3465SOL    HW110420   3.707   2.179   3.728
 3465SOL    HW210421   3.830   2.284   3.701
 3466SOL     OW10422   3.796   2.028   4.042
 3466SOL    HW110423   3.779   2.111   3.988
 3466SOL    HW210424   3.886   1.991   4.020
 3467SOL     OW10425   4.949   2.187   4.173
 3467SOL    HW110426   5.014   2.113   4.162
 3467SOL    HW210427   4.969   2.237   4.257
 3468SOL     OW10428   4.318   2.607   4.376
 3468SOL    HW110429   4.368   2.692   4.357
 3468SOL    HW210430   4.230   2.609   4.328
 3469SOL     OW10431   4.583   3.236   3.740
 3469SOL    HW110432   4.537   3.251   3.828
 3469SOL    HW210433   4.627   3.321   3.710
 3470SOL     OW10434   4.385   3.652   4.677
 3470SOL    HW110435   4.339   3.740   4.664
 3470SOL    HW210436   4.484   3.664   4.670
 3471SOL     OW10437   4.583   2.818   4.585
 3471SOL    HW110438   4.637   2.749   4.633
 3471SOL    HW210439   4.551   2.887   4.651
 3472SOL     OW10440   3.803   3.102   4.377
 3472SOL    HW110441   3.802   3.055   4.465
 3472SOL    HW210442   3.885   3.074   4.326
 3473SOL     OW10443   4.152   2.286   4.244
 3473SOL    HW110444   4.182   2.214   4.182
 3473SOL    HW210445   4.113   2.246   4.327
 3474SOL     OW10446   4.536   3.448   4.411
 3474SOL    HW110447   4.568   3.458   4.317
 3474SOL    HW210448   4.457   3.386   4.413
 3475SOL     OW10449   4.494   3.192   4.025
 3475SOL    HW110450   4.448   3.105   4.042
 3475SOL    HW210451   4.585   3.189   4.066
 3476SOL     OW10452   3.763   2.939   4.024
 3476SOL    HW110453   3.862   2.928   4.015
 3476SOL    HW210454   3.723   2.853   4.056
 3477SOL     OW10455   4.599   3.508   4.061
 3477SOL    HW110456   4.522   3.473   4.007
 3477SOL    HW210457   4.567   3.579   4.123
 3478SOL     OW10458   3.954   4.352   0.113
 3478SOL    HW110459   3.861   4.350   0.150
 3478SOL    HW210460   3.955   4.313   0.021
 3479SOL     OW10461   3.949   3.999   0.996
 3479SOL    HW110462   3.984   3.982   1.088
 3479SOL    HW210463   3.861   3.954   0.984
 3480SOL     OW10464   3.743   4.092   0.647
 3480SOL    HW110465   3.661   4.135   0.686
 3480SOL    HW210466   3.715   4.019   0.584
 3481SOL     OW10467   4.492   4.868   1.023
 3481SOL    HW110468   4.414   4.885   1.083
 3481SOL    HW210469   4.526   4.955   0.987
 3482SOL     OW10470   4.574   4.522   1.823
 3482SOL    HW110471   4.570   4.598   1.888
 3482SOL    HW210472   4.596   4.558   1.732
 3483SOL     OW10473   4.409   4.736   0.665
 3483SOL    HW110474   4.478   4.720   0.735
 3483SOL    HW210475   4.336   4.793   0.703
 3484SOL     OW10476   4.162   4.116   1.499
 3484SOL    HW110477   4.244   4.060   1.508
 3484SOL    HW210478   4.081   4.058   1.503
 3485SOL     OW10479   3.964   4.815   0.886
 3485SOL    HW110480   3.978   4.731   0.938
 3485SOL    HW210481   3.909   4.879   0.941
 3486SOL     OW10482   4.330   4.688   0.123
 3486SOL    HW110483   4.337   4.772   0.069
 3486SOL    HW210484   4.376   4.701   0.211
 3487SOL     OW10485   3.846   4.367   0.563
 3487SOL    HW110486   3.801   4.279   0.580
 3487SOL    HW210487   3.845   4.421   0.647
 3488SOL     OW10488   3.837   4.461   1.597
 3488SOL    HW110489   3.925   4.448   1.642
 3488SOL    HW210490   3.824   4.558   1.575
 3489SOL     OW10491   4.533   3.728   0.502
 3489SOL    HW110492   4.573   3.819   0.493
 3489SOL    HW210493   4.433   3.736   0.508
 3490SOL     OW10494   3.921   4.700   1.264
 3490SOL    HW110495   4.010   4.655   1.250
 3490SOL    HW210496   3.848   4.635   1.245
 3491SOL     OW10497   4.041   3.975   1.801
 3491SOL    HW110498   4.112   4.046   1.807
 3491SOL    HW210499   3.953   4.014   1.829
 3492SOL     OW10500   4.322   4.453   0.270
 3492SOL    HW110501   4.346   4.522   0.202
 3492SOL    HW210502   4.244   4.486   0.324
 3493SOL     OW10503   4.531   4.329   1.465
 3493SOL    HW110504   4.484   4.326   1.554
 3493SOL    HW210505   4.480   4.274   1.399
 3494SOL     OW10506   4.697   4.614   1.572
 3494SOL    HW110507   4.743   4.530   1.543
 3494SOL    HW210508   4.641   4.648   1.497
 3495SOL     OW10509   4.715   4.134   1.242
 3495SOL    HW110510   4.638   4.168   1.296
 3495SOL    HW210511   4.681   4.083   1.163
 3496SOL     OW10512   3.800   4.535   0.789
 3496SOL    HW110513   3.899   4.523   0.798
 3496SOL    HW210514   3.776   4.630   0.810
 3497SOL     OW10515   4.589   4.072   0.195
 3497SOL    HW110516   4.648   4.135   0.146
 3497SOL    HW210517   4.608   3.978   0.166
 3498SOL     OW10518   4.274   3.920   0.885
 3498SOL    HW110519   4.269   3.915   0.985
 3498SOL    HW210520   4.276   4.016   0.856
 3499SOL     OW10521   3.926   4.009   1.498
 3499SOL    HW110522   3.846   4.069   1.485
 3499SOL    HW210523   3.916   3.960   1.584
 3500SOL     OW10524   4.106   4.424   0.480
 3500SOL    HW110525   4.151   4.334   0.477
 3500SOL    HW210526   4.012   4.413   0.513
 3501SOL     OW10527   4.338   3.846   0.117
 3501SOL    HW110528   4.436   3.824   0.124
 3501SOL    HW210529   4.307   3.829   0.024
 3502SOL     OW10530   4.505   3.988   1.749
 3502SOL    HW110531   4.572   3.927   1.792
 3502SOL    HW210532   4.432   4.007   1.814
 3503SOL     OW10533   4.646   4.227   0.899
 3503SOL    HW110534   4.621   4.218   0.803
 3503SOL    HW210535   4.694   4.145   0.930
 3504SOL     OW10536   4.263   3.788   0.512
 3504SOL    HW110537   4.182   3.789   0.570
 3504SOL    HW210538   4.266   3.871   0.457
 3505SOL     OW10539   4.659   3.960   0.480
 3505SOL    HW110540   4.611   4.001   0.402
 3505SOL    HW210541   4.758   3.958   0.461
 3506SOL     OW10542   4.756   4.273   0.016
 3506SOL    HW110543   4.715   4.355  -0.023
 3506SOL    HW210544   4.820   4.299   0.089
 3507SOL     OW10545   3.802   4.280   1.386
 3507SOL    HW110546   3.894   4.279   1.345
 3507SOL    HW210547   3.796   4.354   1.453
 3508SOL     OW10548   4.285   3.946   1.147
 3508SOL    HW110549   4.323   3.862   1.184
 3508SOL    HW210550   4.197   3.965   1.191
 3509SOL     OW10551   4.590   4.178   0.642
 3509SOL    HW110552   4.558   4.250   0.580
 3509SOL    HW210553   4.614   4.097   0.589
 3510SOL     OW10554   4.741   3.763   0.753
 3510SOL    HW110555   4.669   3.768   0.684
 3510SOL    HW210556   4.717   3.694   0.822
 3511SOL     OW10557   4.251   3.980   0.328
 3511SOL    HW110558   4.278   3.921   0.253
 3511SOL    HW210559   4.251   4.075   0.297
 3512SOL     OW10560   4.639   3.813   1.402
 3512SOL    HW110561   4.664   3.793   1.307
 3512SOL    HW210562   4.711   3.869   1.444
 3513SOL     OW10563   4.134   4.537   1.251
 3513SOL    HW110564   4.220   4.549   1.301
 3513SOL    HW210565   4.092   4.450   1.278
 3514SOL     OW10566   4.290   4.261   0.865
 3514SOL    HW110567   4.302   4.327   0.791
 3514SOL    HW210568   4.336   4.295   0.948
 3515SOL     OW10569   4.126   4.475   1.598
 3515SOL    HW110570   4.194   4.530   1.551
 3515SOL    HW210571   4.166   4.387   1.625
 3516SOL     OW10572   4.737   3.829   1.770
 3516SOL    HW110573   4.743   3.914   1.718
 3516SOL    HW210574   4.769   3.753   1.713
 3517SOL     OW10575   4.228   3.774   1.740
 3517SOL    HW110576   4.186   3.717   1.670
 3517SOL    HW210577   4.162   3.843   1.772
 3518SOL     OW10578   4.297   4.594   1.029
 3518SOL    HW110579   4.341   4.683   1.020
 3518SOL    HW210580   4.234   4.594   1.106
 3519SOL     OW10581   4.933   4.249   0.275
 3519SOL    HW110582   4.946   4.165   0.329
 3519SOL    HW210583   4.904   4.323   0.335
 3520SOL     OW10584   4.031   3.937   1.231
 3520SOL    HW110585   4.008   3.974   1.321
 3520SOL    HW210586   4.001   3.842   1.225
 3521SOL     OW10587   4.456   4.358   1.064
 3521SOL    HW110588   4.515   4.332   0.988
 3521SOL    HW210589   4.428   4.454   1.053
 3522SOL     OW10590   4.031   3.787   0.618
 3522SOL    HW110591   4.020   3.881   0.651
 3522SOL    HW210592   4.026   3.724   0.695
 3523SOL     OW10593   4.747   4.490   0.966
 3523SOL    HW110594   4.762   4.511   1.062
 3523SOL    HW210595   4.717   4.395   0.957
 3524SOL     OW10596   4.074   4.622   1.804
 3524SOL    HW110597   4.150   4.666   1.852
 3524SOL    HW210598   4.109   4.575   1.722
 3525SOL     OW10599   4.043   4.534   0.949
 3525SOL    HW110600   4.136   4.570   0.954
 3525SOL    HW210601   4.037   4.449   1.001
 3526SOL     OW10602   4.063   4.233   1.006
 3526SOL    HW110603   4.011   4.150   0.989
 3526SOL    HW210604   4.140   4.238   0.942
 3527SOL     OW10605   4.726   4.520   1.238
 3527SOL    HW110606   4.767   4.488   1.324
 3527SOL    HW210607   4.630   4.493   1.235
 3528SOL     OW10608   3.764   4.268   1.114
 3528SOL    HW110609   3.849   4.235   1.073
 3528SOL    HW210610   3.777   4.283   1.212
 3529SOL     OW10611   3.913   4.244   1.722
 3529SOL    HW110612   3.972   4.204   1.652
 3529SOL    HW210613   3.855   4.315   1.681
 3530SOL     OW10614   4.539   4.296   0.325
 3530SOL    HW110615   4.546   4.207   0.279
 3530SOL    HW210616   4.445   4.330   0.317
 3531SOL     OW10617   4.395   4.188   1.269
 3531SOL    HW110618   4.361   4.099   1.239
 3531SOL    HW210619   4.421   4.242   1.189
 3532SOL     OW10620   4.197   4.224   0.191
 3532SOL    HW110621   4.258   4.304   0.195
 3532SOL    HW210622   4.102   4.255   0.198
 3533SOL     OW10623   3.883   4.861   1.466
 3533SOL    HW110624   3.905   4.800   1.542
 3533SOL    HW210625   3.893   4.812   1.380
 3534SOL     OW10626   5.026   4.579   0.309
 3534SOL    HW110627   4.940   4.548   0.351
 3534SOL    HW210628   5.022   4.565   0.210
 3535SOL     OW10629   4.627   3.810   0.133
 3535SOL    HW110630   4.678   3.811   0.047
 3535SOL    HW210631   4.683   3.768   0.204
 3536SOL     OW10632   3.987   4.050   0.720
 3536SOL    HW110633   3.908   4.101   0.686
 3536SOL    HW210634   3.978   4.035   0.818
 3537SOL     OW10635   4.640   4.634   0.291
 3537SOL    HW110636   4.703   4.672   0.223
 3537SOL    HW210637   4.680   4.551   0.330
 3538SOL     OW10638   4.738   3.960   0.971
 3538SOL    HW110639   4.730   3.924   0.878
 3538SOL    HW210640   4.736   3.884   1.036
 3539SOL     OW10641   3.829   4.737   1.726
 3539SOL    HW110642   3.752   4.704   1.780
 3539SOL    HW210643   3.914   4.707   1.768
 3540SOL     OW10644   4.396   3.927   1.489
 3540SOL    HW110645   4.486   3.911   1.449
 3540SOL    HW210646   4.404   3.932   1.588
 3541SOL     OW10647   3.799   4.069   0.033
 3541SOL    HW110648   3.707   4.041   0.004
 3541SOL    HW210649   3.830   4.146  -0.023
 3542SOL     OW10650   3.796   3.890   0.318
 3542SOL    HW110651   3.779   3.973   0.264
 3542SOL    HW210652   3.886   3.853   0.296
 3543SOL     OW10653   4.337   4.566   1.431
 3543SOL    HW110654   4.393   4.647   1.414
 3543SOL    HW210655   4.396   4.486   1.434
 3544SOL     OW10656   4.440   4.289   1.708
 3544SOL    HW110657   4.459   4.354   1.782
 3544SOL    HW210658   4.500   4.209   1.717
 3545SOL     OW10659   4.949   4.049   0.449
 3545SOL    HW110660   5.014   3.975   0.438
 3545SOL    HW210661   4.969   4.099   0.533
 3546SOL     OW10662   4.318   4.469   0.652
 3546SOL    HW110663   4.368   4.554   0.633
 3546SOL    HW210664   4.230   4.471   0.604
 3547SOL     OW10665   4.583   4.680   0.861
 3547SOL    HW110666   4.637   4.611   0.909
 3547SOL    HW210667   4.551   4.749   0.927
 3548SOL     OW10668   4.807   4.708   0.087
 3548SOL    HW110669   4.784   4.761   0.005
 3548SOL    HW210670   4.888   4.652   0.068
 3549SOL     OW10671   3.803   4.964   0.653
 3549SOL    HW110672   3.802   4.917   0.741
 3549SOL    HW210673   3.885   4.936   0.602
 3550SOL     OW10674   4.152   4.148   0.520
 3550SOL    HW110675   4.182   4.076   0.458
 3550SOL    HW210676   4.113   4.108   0.603
 3551SOL     OW10677   4.041   4.271   1.280
 3551SOL    HW110678   4.079   4.212   1.352
 3551SOL    HW210679   4.081   4.245   1.192
 3552SOL     OW10680   4.725   3.758   1.154
 3552SOL    HW110681   4.662   3.686   1.123
 3552SOL    HW210682   4.818   3.722   1.154
 3553SOL     OW10683   3.763   4.801   0.300
 3553SOL    HW110684   3.862   4.790   0.291
 3553SOL    HW210685   3.723   4.715   0.332
 3554SOL     OW10686   3.954   4.352   1.975
 3554SOL    HW110687   3.861   4.350   2.012
 3554SOL    HW210688   3.955   4.313   1.883
 3555SOL     OW10689   3.949   3.999   2.858
 3555SOL    HW110690   3.984   3.982   2.950
 3555SOL    HW210691   3.861   3.954   2.846
 3556SOL     OW10692   3.743   4.092   2.509
 3556SOL    HW110693   3.661   4.135   2.548
 3556SOL    HW210694   3.715   4.019   2.446
 3557SOL     OW10695   4.492   4.868   2.885
 3557SOL    HW110696   4.414   4.885   2.945
 3557SOL    HW210697   4.526   4.955   2.849
 3558SOL     OW10698   4.574   4.522   3.685
 3558SOL    HW110699   4.570   4.598   3.750
 3558SOL    HW210700   4.596   4.558   3.594
 3559SOL     OW10701   4.409   4.736   2.527
 3559SOL    HW110702   4.478   4.720   2.597
 3559SOL    HW210703   4.336   4.793   2.565
 3560SOL     OW10704   4.162   4.116   3.361
 3560SOL    HW110705   4.244   4.060   3.370
 3560SOL    HW210706   4.081   4.058   3.365
 3561SOL     OW10707   3.964   4.815   2.748
 3561SOL    HW110708   3.978   4.731   2.800
 3561SOL    HW210709   3.909   4.879   2.803
 3562SOL     OW10710   4.330   4.688   1.985
 3562SOL    HW110711   4.337   4.772   1.931
 3562SOL    HW210712   4.376   4.701   2.073
 3563SOL     OW10713   3.846   4.367   2.425
 3563SOL    HW110714   3.801   4.279   2.442
 3563SOL    HW210715   3.845   4.421   2.509
 3564SOL     OW10716   3.837   4.461   3.459
 3564SOL    HW110717   3.925   4.448   3.504
 3564SOL    HW210718   3.824   4.558   3.437
 3565SOL     OW10719   4.533   3.728   2.364
 3565SOL    HW110720   4.573   3.819   2.355
 3565SOL    HW210721   4.433   3.736   2.370
 3566SOL     OW10722   3.921   4.700   3.126
 3566SOL    HW110723   4.010   4.655   3.112
 3566SOL    HW210724   3.848   4.635   3.107
 3567SOL     OW10725   4.041   3.975   3.663
 3567SOL    HW110726   4.112   4.046   3.669
 3567SOL    HW210727   3.953   4.014   3.691
 3568SOL     OW10728   4.322   4.453   2.132
 3568SOL    HW110729   4.346   4.522   2.064
 3568SOL    HW210730   4.244   4.486   2.186
 3569SOL     OW10731   4.531   4.329   3.327
 3569SOL    HW110732   4.484   4.326   3.416
 3569SOL    HW210733   4.480   4.274   3.261
 3570SOL     OW10734   4.697   4.614   3.434
 3570SOL    HW110735   4.743   4.530   3.405
 3570SOL    HW210736   4.641   4.648   3.359
 3571SOL     OW10737   4.715   4.134   3.104
 3571SOL    HW110738   4.638   4.168   3.158
 3571SOL    HW210739   4.681   4.083   3.025
 3572SOL     OW10740   3.800   4.535   2.651
 3572SOL    HW110741   3.899   4.523   2.660
 3572SOL    HW210742   3.776   4.630   2.672
 3573SOL     OW10743   4.589   4.072   2.057
 3573SOL    HW110744   4.648   4.135   2.008
 3573SOL    HW210745   4.608   3.978   2.028
 3574SOL     OW10746   4.274   3.920   2.747
 3574SOL    HW110747   4.269   3.915   2.847
 3574SOL    HW210748   4.276   4.016   2.718
 3575SOL     OW10749   3.926   4.009   3.360
 3575SOL    HW110750   3.846   4.069   3.347
 3575SOL    HW210751   3.916   3.960   3.446
 3576SOL     OW10752   4.106   4.424   2.342
 3576SOL    HW110753   4.151   4.334   2.339
 3576SOL    HW210754   4.012   4.413   2.375
 3577SOL     OW10755   4.338   3.846   1.979
 3577SOL    HW110756   4.436   3.824   1.986
 3577SOL    HW210757   4.307   3.829   1.886
 3578SOL     OW10758   4.505   3.988   3.611
 3578SOL    HW110759   4.572   3.927   3.654
 3578SOL    HW210760   4.432   4.007   3.676
 3579SOL     OW10761   4.646   4.227   2.761
 3579SOL    HW110762   4.621   4.218   2.665
 3579SOL    HW210763   4.694   4.145   2.792
 3580SOL     OW10764   4.263   3.788   2.374
 3580SOL    HW110765   4.182   3.789   2.432
 3580SOL    HW210766   4.266   3.871   2.319
 3581SOL     OW10767   4.021   3.759   2.033
 3581SOL    HW110768   4.070   3.843   2.012
 3581SOL    HW210769   4.083   3.694   2.078
 3582SOL     OW10770   4.659   3.960   2.342
 3582SOL    HW110771   4.611   4.001   2.264
 3582SOL    HW210772   4.758   3.958   2.323
 3583SOL     OW10773   4.756   4.273   1.878
 3583SOL    HW110774   4.715   4.355   1.839
 3583SOL    HW210775   4.820   4.299   1.951
 3584SOL     OW10776   3.802   4.280   3.248
 3584SOL    HW110777   3.894   4.279   3.207
 3584SOL    HW210778   3.796   4.354   3.315
 3585SOL     OW10779   4.285   3.946   3.009
 3585SOL    HW110780   4.323   3.862   3.046
 3585SOL    HW210781   4.197   3.965   3.053
 3586SOL     OW10782   4.590   4.178   2.504
 3586SOL    HW110783   4.558   4.250   2.442
 3586SOL    HW210784   4.614   4.097   2.451
 3587SOL     OW10785   4.741   3.763   2.615
 3587SOL    HW110786   4.669   3.768   2.546
 3587SOL    HW210787   4.717   3.694   2.684
 3588SOL     OW10788   4.251   3.980   2.190
 3588SOL    HW110789   4.278   3.921   2.115
 3588SOL    HW210790   4.251   4.075   2.159
 3589SOL     OW10791   4.639   3.813   3.264
 3589SOL    HW110792   4.664   3.793   3.169
 3589SOL    HW210793   4.711   3.869   3.306
 3590SOL     OW10794   4.134   4.537   3.113
 3590SOL    HW110795   4.220   4.549   3.163
 3590SOL    HW210796   4.092   4.450   3.140
 3591SOL     OW10797   4.290   4.261   2.727
 3591SOL    HW110798   4.302   4.327   2.653
 3591SOL    HW210799   4.336   4.295   2.810
 3592SOL     OW10800   4.126   4.475   3.460
 3592SOL    HW110801   4.194   4.530   3.413
 3592SOL    HW210802   4.166   4.387   3.487
 3593SOL     OW10803   4.737   3.829   3.632
 3593SOL    HW110804   4.743   3.914   3.580
 3593SOL    HW210805   4.769   3.753   3.575
 3594SOL     OW10806   4.228   3.774   3.602
 3594SOL    HW110807   4.186   3.717   3.532
 3594SOL    HW210808   4.162   3.843   3.634
 3595SOL     OW10809   4.297   4.594   2.891
 3595SOL    HW110810   4.341   4.683   2.882
 3595SOL    HW210811   4.234   4.594   2.968
 3596SOL     OW10812   4.933   4.249   2.137
 3596SOL    HW110813   4.946   4.165   2.191
 3596SOL    HW210814   4.904   4.323   2.197
 3597SOL     OW10815   4.031   3.937   3.093
 3597SOL    HW110816   4.008   3.974   3.183
 3597SOL    HW210817   4.001   3.842   3.087
 3598SOL     OW10818   4.456   4.358   2.926
 3598SOL    HW110819   4.515   4.332   2.850
 3598SOL    HW210820   4.428   4.454   2.915
 3599SOL     OW10821   4.031   3.787   2.480
 3599SOL    HW110822   4.020   3.881   2.513
 3599SOL    HW210823   4.026   3.724   2.557
 3600SOL     OW10824   4.747   4.490   2.828
 3600SOL    HW110825   4.762   4.511   2.924
 3600SOL    HW210826   4.717   4.395   2.819
 3601SOL     OW10827   4.074   4.622   3.666
 3601SOL    HW110828   4.150   4.666   3.714
 3601SOL    HW210829   4.109   4.575   3.584
 3602SOL     OW10830   4.043   4.534   2.811
 3602SOL    HW110831   4.136   4.570   2.816
 3602SOL    HW210832   4.037   4.449   2.863
 3603SOL     OW10833   4.063   4.233   2.868
 3603SOL    HW110834   4.011   4.150   2.851
 3603SOL    HW210835   4.140   4.238   2.804
 3604SOL     OW10836   4.726   4.520   3.100
 3604SOL    HW110837   4.767   4.488   3.186
 3604SOL    HW210838   4.630   4.493   3.097
 3605SOL     OW10839   3.764   4.268   2.976
 3605SOL    HW110840   3.849   4.235   2.935
 3605SOL    HW210841   3.777   4.283   3.074
 3606SOL     OW10842   3.913   4.244   3.584
 3606SOL    HW110843   3.972   4.204   3.514
 3606SOL    HW210844   3.855   4.315   3.543
 3607SOL     OW10845   4.539   4.296   2.187
 3607SOL    HW110846   4.546   4.207   2.141
 3607SOL    HW210847   4.445   4.330   2.179
 3608SOL     OW10848   4.395   4.188   3.131
 3608SOL    HW110849   4.361   4.099   3.101
 3608SOL    HW210850   4.421   4.242   3.051
 3609SOL     OW10851   4.197   4.224   2.053
 3609SOL    HW110852   4.258   4.304   2.057
 3609SOL    HW210853   4.102   4.255   2.060
 3610SOL     OW10854   3.883   4.861   3.328
 3610SOL    HW110855   3.905   4.800   3.404
 3610SOL    HW210856   3.893   4.812   3.242
 3611SOL     OW10857   5.026   4.579   2.171
 3611SOL    HW110858   4.940   4.548   2.213
 3611SOL    HW210859   5.022   4.565   2.072
 3612SOL     OW10860   3.987   4.050   2.582
 3612SOL    HW110861   3.908   4.101   2.548
 3612SOL    HW210862   3.978   4.035   2.680
 3613SOL     OW10863   4.640   4.634   2.153
 3613SOL    HW110864   4.703   4.672   2.085
 3613SOL    HW210865   4.680   4.551   2.192
 3614SOL     OW10866   4.738   3.960   2.833
 3614SOL    HW110867   4.730   3.924   2.740
 3614SOL    HW210868   4.736   3.884   2.898
 3615SOL     OW10869   3.829   4.737   3.588
 3615SOL    HW110870   3.752   4.704   3.642
 3615SOL    HW210871   3.914   4.707   3.630
 3616SOL     OW10872   4.396   3.927   3.351
 3616SOL    HW110873   4.486   3.911   3.311
 3616SOL    HW210874   4.404   3.932   3.450
 3617SOL     OW10875   3.799   4.069   1.895
 3617SOL    HW110876   3.707   4.041   1.866
 3617SOL    HW210877   3.830   4.146   1.839
 3618SOL     OW10878   3.796   3.890   2.180
 3618SOL    HW110879   3.779   3.973   2.126
 3618SOL    HW210880   3.886   3.853   2.158
 3619SOL     OW10881   4.337   4.566   3.293
 3619SOL    HW110882   4.393   4.647   3.276
 3619SOL    HW210883   4.396   4.486   3.296
 3620SOL     OW10884   4.440   4.289   3.570
 3620SOL    HW110885   4.459   4.354   3.644
 3620SOL    HW210886   4.500   4.209   3.579
 3621SOL     OW10887   4.949   4.049   2.311
 3621SOL    HW110888   5.014   3.975   2.300
 3621SOL    HW210889   4.969   4.099   2.395
 3622SOL     OW10890   4.318   4.469   2.514
 3622SOL    HW110891   4.368   4.554   2.495
 3622SOL    HW210892   4.230   4.471   2.466
 3623SOL     OW10893   4.583   4.680   2.723
 3623SOL    HW110894   4.637   4.611   2.771
 3623SOL    HW210895   4.551   4.749   2.789
 3624SOL     OW10896   3.803   4.964   2.515
 3624SOL    HW110897   3.802   4.917   2.603
 3624SOL    HW210898   3.885   4.936   2.464
 3625SOL     OW10899   4.152   4.148   2.382
 3625SOL    HW110900   4.182   4.076   2.320
 3625SOL    HW210901   4.113   4.108   2.465
 3626SOL     OW10902   4.041   4.271   3.142
 3626SOL    HW110903   4.079   4.212   3.214
 3626SOL    HW210904   4.081   4.245   3.054
 3627SOL     OW10905   4.725   3.758   3.016
 3627SOL    HW110906   4.662   3.686   2.985
 3627SOL    HW210907   4.818   3.722   3.016
 3628SOL     OW10908   3.763   4.801   2.162
 3628SOL    HW110909   3.862   4.790   2.153
 3628SOL    HW210910   3.723   4.715   2.194
 3629SOL     OW10911   3.954   4.352   3.837
 3629SOL    HW110912   3.861   4.350   3.874
 3629SOL    HW210913   3.955   4.313   3.745
 3630SOL     OW10914   3.949   3.999   4.720
 3630SOL    HW110915   3.984   3.982   4.812
 3630SOL    HW210916   3.861   3.954   4.708
 3631SOL     OW10917   3.743   4.092   4.371
 3631SOL    HW110918   3.661   4.135   4.410
 3631SOL    HW210919   3.715   4.019   4.308
 3632SOL     OW10920   4.409   4.736   4.389
 3632SOL    HW110921   4.478   4.720   4.459
 3632SOL    HW210922   4.336   4.793   4.427
 3633SOL     OW10923   3.964   4.815   4.610
 3633SOL    HW110924   3.978   4.731   4.662
 3633SOL    HW210925   3.909   4.879   4.665
 3634SOL     OW10926   4.330   4.688   3.847
 3634SOL    HW110927   4.337   4.772   3.793
 3634SOL    HW210928   4.376   4.701   3.935
 3635SOL     OW10929   3.846   4.367   4.287
 3635SOL    HW110930   3.801   4.279   4.304
 3635SOL    HW210931   3.845   4.421   4.371
 3636SOL     OW10932   4.533   3.728   4.226
 3636SOL    HW110933   4.573   3.819   4.217
 3636SOL    HW210934   4.433   3.736   4.232
 3637SOL     OW10935   4.322   4.453   3.994
 3637SOL    HW110936   4.346   4.522   3.926
 3637SOL    HW210937   4.244   4.486   4.048
 3638SOL     OW10938   3.800   4.535   4.513
 3638SOL    HW110939   3.899   4.523   4.522
 3638SOL    HW210940   3.776   4.630   4.534
 3639SOL     OW10941   4.589   4.072   3.919
 3639SOL    HW110942   4.648   4.135   3.870
 3639SOL    HW210943   4.608   3.978   3.890
 3640SOL     OW10944   4.274   3.920   4.609
 3640SOL    HW110945   4.269   3.915   4.709
 3640SOL    HW210946   4.276   4.016   4.580
 3641SOL     OW10947   4.106   4.424   4.204
 3641SOL    HW110948   4.151   4.334   4.201
 3641SOL    HW210949   4.012   4.413   4.237
 3642SOL     OW10950   4.338   3.846   3.841
 3642SOL    HW110951   4.436   3.824   3.848
 3642SOL    HW210952   4.307   3.829   3.748
 3643SOL     OW10953   4.646   4.227   4.623
 3643SOL    HW110954   4.621   4.218   4.527
 3643SOL    HW210955   4.694   4.145   4.654
 3644SOL     OW10956   4.263   3.788   4.236
 3644SOL    HW110957   4.182   3.789   4.294
 3644SOL    HW210958   4.266   3.871   4.181
 3645SOL     OW10959   4.021   3.759   3.895
 3645SOL    HW110960   4.070   3.843   3.874
 3645SOL    HW210961   4.083   3.694   3.940
 3646SOL     OW10962   4.659   3.960   4.204
 3646SOL    HW110963   4.611   4.001   4.126
 3646SOL    HW210964   4.758   3.958   4.185
 3647SOL     OW10965   4.756   4.273   3.740
 3647SOL    HW110966   4.715   4.355   3.701
 3647SOL    HW210967   4.820   4.299   3.813
 3648SOL     OW10968   4.590   4.178   4.366
 3648SOL    HW110969   4.558   4.250   4.304
 3648SOL    HW210970   4.614   4.097   4.313
 3649SOL     OW10971   4.741   3.763   4.477
 3649SOL    HW110972   4.669   3.768   4.408
 3649SOL    HW210973   4.717   3.694   4.546
 3650SOL     OW10974   4.251   3.980   4.052
 3650SOL    HW110975   4.278   3.921   3.977
 3650SOL    HW210976   4.251   4.075   4.021
 3651SOL     OW10977   4.835   4.919   4.824
 3651SOL    HW110978   4.795   4.963   4.905
 3651SOL    HW210979   4.794   4.956   4.741
 3652SOL     OW10980   4.290   4.261   4.589
 3652SOL    HW110981   4.302   4.327   4.515
 3652SOL    HW210982   4.336   4.295   4.672
 3653SOL     OW10983   4.297   4.594   4.753
 3653SOL    HW110984   4.341   4.683   4.744
 3653SOL    HW210985   4.234   4.594   4.830
 3654SOL     OW10986   4.933   4.249   3.999
 3654SOL    HW110987   4.946   4.165   4.053
 3654SOL    HW210988   4.904   4.323   4.059
 3655SOL     OW10989   4.031   3.937   4.955
 3655SOL    HW110990   4.008   3.974   5.045
 3655SOL    HW210991   4.001   3.842   4.949
 3656SOL     OW10992   4.456   4.358   4.788
 3656SOL    HW110993   4.515   4.332   4.712
 3656SOL    HW210994   4.428   4.454   4.777
 3657SOL     OW10995   4.031   3.787   4.342
 3657SOL    HW110996   4.020   3.881   4.375
 3657SOL    HW210997   4.026   3.724   4.419
 3658SOL     OW10998   4.043   4.534   4.673
 3658SOL    HW110999   4.136   4.570   4.678
 3658SOL    HW211000   4.037   4.449   4.725
 3659SOL     OW11001   4.063   4.233   4.730
 3659SOL    HW111002   4.011   4.150   4.713
 3659SOL    HW211003   4.140   4.238   4.666
 3660SOL     OW11004   4.726   4.520   4.962
 3660SOL    HW111005   4.767   4.488   5.048
 3660SOL    HW211006   4.630   4.493   4.959
 3661SOL     OW11007   4.539   4.296   4.049
 3661SOL    HW111008   4.546   4.207   4.003
 3661SOL    HW211009   4.445   4.330   4.041
 3662SOL     OW11010   4.395   4.188   4.993
 3662SOL    HW111011   4.361   4.099   4.963
 3662SOL    HW211012   4.421   4.242   4.913
 3663SOL     OW11013   4.197   4.224   3.915
 3663SOL    HW111014   4.258   4.304   3.919
 3663SOL    HW211015   4.102   4.255   3.922
 3664SOL     OW11016   5.026   4.579   4.033
 3664SOL    HW111017   4.940   4.548   4.075
 3664SOL    HW211018   5.022   4.565   3.934
 3665SOL     OW11019   3.987   4.050   4.444
 3665SOL    HW111020   3.908   4.101   4.410
 3665SOL    HW211021   3.978   4.035   4.542
 3666SOL     OW11022   4.640   4.634   4.015
 3666SOL    HW111023   4.703   4.672   3.947
 3666SOL    HW211024   4.680   4.551   4.054
 3667SOL     OW11025   3.799   4.069   3.757
 3667SOL    HW111026   3.707   4.041   3.728
 3667SOL    HW211027   3.830   4.146   3.701
 3668SOL     OW11028   3.796   3.890   4.042
 3668SOL    HW111029   3.779   3.973   3.988
 3668SOL    HW211030   3.886   3.853   4.020
 3669SOL     OW11031   4.949   4.049   4.173
 3669SOL    HW111032   5.014   3.975   4.162
 3669SOL    HW211033   4.969   4.099   4.257
 3670SOL     OW11034   4.318   4.469   4.376
 3670SOL    HW111035   4.368   4.554   4.357
 3670SOL    HW211036   4.230   4.471   4.328
 3671SOL     OW11037   4.583   4.680   4.585
 3671SOL    HW111038   4.637   4.611   4.633
 3671SOL    HW211039   4.551   4.749   4.651
 3672SOL     OW11040   3.803   4.964   4.377
 3672SOL    HW111041   3.802   4.917   4.465
 3672SOL    HW211042   3.885   4.936   4.326
 3673SOL     OW11043   4.152   4.148   4.244
 3673SOL    HW111044   4.182   4.076   4.182
 3673SOL    HW211045   4.113   4.108   4.327
 3674SOL     OW11046   3.763   4.801   4.024
 3674SOL    HW111047   3.862   4.790   4.015
 3674SOL    HW211048   3.723   4.715   4.056
   4.80614   4.80614   4.80614
