mobley_3274817_GMX.gro created by acpype (v: 2023.10.27) on Wed May 20 23:46:17 2026
   29
    1MOL     C1    1   2.401   2.383   2.275
    1MOL     C2    2   2.259   2.192   2.329
    1MOL     C3    3   2.385   2.435   2.405
    1MOL     C4    4   2.338   2.263   2.238
    1MOL     C5    5   2.243   2.243   2.459
    1MOL     C6    6   2.305   2.364   2.497
    1MOL     C7    7   2.670   2.456   2.527
    1MOL     C8    8   2.400   2.682   2.359
    1MOL     C9    9   2.608   2.558   2.432
    1MOL    C10   10   2.454   2.565   2.444
    1MOL     N1   11   2.357   2.211   2.102
    1MOL     N2   12   2.159   2.168   2.553
    1MOL     O1   13   2.428   2.276   2.024
    1MOL     O2   14   2.300   2.104   2.073
    1MOL     O3   15   2.107   2.063   2.513
    1MOL     O4   16   2.146   2.214   2.667
    1MOL     O5   17   2.293   2.419   2.622
    1MOL     H1   18   2.462   2.436   2.203
    1MOL     H2   19   2.211   2.099   2.300
    1MOL     H3   20   2.639   2.354   2.503
    1MOL     H4   21   2.779   2.461   2.520
    1MOL     H5   22   2.642   2.477   2.631
    1MOL     H6   23   2.425   2.671   2.253
    1MOL     H7   24   2.291   2.689   2.367
    1MOL     H8   25   2.442   2.777   2.394
    1MOL     H9   26   2.650   2.656   2.455
    1MOL    H10   27   2.639   2.534   2.329
    1MOL    H11   28   2.431   2.590   2.548
    1MOL    H12   29   2.236   2.363   2.679
   4.80614   4.80614   4.80614
