mobley_7754849_GMX.gro created by acpype (v: 2023.10.27) on Wed May 20 23:46:58 2026
15065
    1MOL     C1    1   2.833   2.913   3.229
    1MOL     C2    2   3.249   2.620   2.754
    1MOL     C3    3   2.597   2.618   2.167
    1MOL     C4    4   2.106   2.796   2.482
    1MOL     C5    5   2.805   2.791   3.144
    1MOL     C6    6   3.114   2.570   2.801
    1MOL     C7    7   2.583   2.574   2.311
    1MOL     C8    8   2.210   2.686   2.492
    1MOL     C9    9   2.702   2.701   2.722
    1MOL     O1   10   2.923   2.756   3.074
    1MOL     O2   11   3.071   2.651   2.909
    1MOL     O3   12   2.475   2.645   2.370
    1MOL     O4   13   2.328   2.741   2.547
    1MOL     P1   14   2.912   2.667   2.938
    1MOL     P2   15   2.468   2.659   2.532
    1MOL     S1   16   2.824   2.495   2.968
    1MOL     S2   17   2.457   2.488   2.623
    1MOL     S3   18   2.840   2.796   2.789
    1MOL     S4   19   2.620   2.793   2.590
    1MOL     H1   20   2.915   2.893   3.299
    1MOL     H2   21   2.864   2.997   3.167
    1MOL     H3   22   2.744   2.942   3.286
    1MOL     H4   23   3.243   2.724   2.721
    1MOL     H5   24   3.322   2.617   2.836
    1MOL     H6   25   3.287   2.559   2.672
    1MOL     H7   26   2.505   2.600   2.112
    1MOL     H8   27   2.617   2.726   2.162
    1MOL     H9   28   2.679   2.564   2.118
    1MOL    H10   29   2.086   2.839   2.581
    1MOL    H11   30   2.142   2.878   2.419
    1MOL    H12   31   2.012   2.758   2.441
    1MOL    H13   32   2.723   2.812   3.074
    1MOL    H14   33   2.775   2.707   3.208
    1MOL    H15   34   3.123   2.467   2.836
    1MOL    H16   35   3.043   2.574   2.719
    1MOL    H17   36   2.676   2.593   2.366
    1MOL    H18   37   2.561   2.466   2.316
    1MOL    H19   38   2.229   2.644   2.393
    1MOL    H20   39   2.173   2.606   2.558
    1MOL    H21   40   2.630   2.680   2.801
    1MOL    H22   41   2.739   2.606   2.682
    2SOL     OW   42   0.230   0.628   0.113
    2SOL    HW1   43   0.137   0.626   0.150
    2SOL    HW2   44   0.231   0.589   0.021
    3SOL     OW   45   0.225   0.275   0.996
    3SOL    HW1   46   0.260   0.258   1.088
    3SOL    HW2   47   0.137   0.230   0.984
    4SOL     OW   48   0.019   0.368   0.647
    4SOL    HW1   49  -0.063   0.411   0.686
    4SOL    HW2   50  -0.009   0.295   0.584
    5SOL     OW   51   0.569   1.275   1.165
    5SOL    HW1   52   0.476   1.268   1.128
    5SOL    HW2   53   0.580   1.364   1.209
    6SOL     OW   54   1.555   1.511   0.703
    6SOL    HW1   55   1.498   1.495   0.784
    6SOL    HW2   56   1.496   1.521   0.623
    7SOL     OW   57   1.135   0.703   0.717
    7SOL    HW1   58   1.192   0.781   0.692
    7SOL    HW2   59   1.075   0.729   0.793
    8SOL     OW   60   1.755   0.607   0.231
    8SOL    HW1   61   1.743   0.594   0.132
    8SOL    HW2   62   1.725   0.526   0.280
    9SOL     OW   63   0.768   1.144   1.023
    9SOL    HW1   64   0.690   1.161   1.083
    9SOL    HW2   65   0.802   1.231   0.987
   10SOL     OW   66   0.850   0.798   1.823
   10SOL    HW1   67   0.846   0.874   1.888
   10SOL    HW2   68   0.872   0.834   1.732
   11SOL     OW   69   0.685   1.012   0.665
   11SOL    HW1   70   0.754   0.996   0.735
   11SOL    HW2   71   0.612   1.069   0.703
   12SOL     OW   72   0.686   1.161   1.803
   12SOL    HW1   73   0.746   1.240   1.817
   12SOL    HW2   74   0.600   1.192   1.762
   13SOL     OW   75   0.335   1.435   1.061
   13SOL    HW1   76   0.257   1.404   1.008
   13SOL    HW2   77   0.393   1.493   1.004
   14SOL     OW   78   1.460   1.505   1.339
   14SOL    HW1   79   1.484   1.599   1.365
   14SOL    HW2   80   1.444   1.451   1.421
   15SOL     OW   81   0.438   0.392   1.499
   15SOL    HW1   82   0.520   0.336   1.508
   15SOL    HW2   83   0.357   0.334   1.503
   16SOL     OW   84   1.603   0.447   0.737
   16SOL    HW1   85   1.529   0.493   0.687
   16SOL    HW2   86   1.654   0.515   0.790
   17SOL     OW   87   0.231   1.713   0.483
   17SOL    HW1   88   0.265   1.790   0.537
   17SOL    HW2   89   0.275   1.713   0.393
   18SOL     OW   90   1.127   1.341   1.690
   18SOL    HW1   91   1.174   1.341   1.778
   18SOL    HW2   92   1.079   1.254   1.679
   19SOL     OW   93   0.230   1.434   0.538
   19SOL    HW1   94   0.204   1.530   0.538
   19SOL    HW2   95   0.159   1.380   0.583
   20SOL     OW   96   0.240   1.091   0.886
   20SOL    HW1   97   0.254   1.007   0.938
   20SOL    HW2   98   0.185   1.155   0.941
   21SOL     OW   99   0.620   1.786   1.439
   21SOL    HW1  100   0.528   1.769   1.474
   21SOL    HW2  101   0.648   1.878   1.465
   22SOL     OW  102   0.606   0.964   0.123
   22SOL    HW1  103   0.613   1.048   0.069
   22SOL    HW2  104   0.652   0.977   0.211
   23SOL     OW  105   1.594   0.114   1.480
   23SOL    HW1  106   1.576   0.181   1.408
   23SOL    HW2  107   1.591   0.160   1.569
   24SOL     OW  108   0.122   0.643   0.563
   24SOL    HW1  109   0.077   0.555   0.580
   24SOL    HW2  110   0.121   0.697   0.647
   25SOL     OW  111   1.842   1.767   0.359
   25SOL    HW1  112   1.896   1.738   0.439
   25SOL    HW2  113   1.872   1.857   0.330
   26SOL     OW  114   0.027   1.596   0.117
   26SOL    HW1  115   0.008   1.500   0.138
   26SOL    HW2  116  -0.006   1.654   0.192
   27SOL     OW  117   1.689   0.922   0.612
   27SOL    HW1  118   1.784   0.893   0.620
   27SOL    HW2  119   1.681   0.987   0.537
   28SOL     OW  120   1.641   1.108   0.432
   28SOL    HW1  121   1.727   1.110   0.380
   28SOL    HW2  122   1.655   1.155   0.520
   29SOL     OW  123   0.113   0.737   1.597
   29SOL    HW1  124   0.201   0.724   1.642
   29SOL    HW2  125   0.100   0.834   1.575
   30SOL     OW  126   0.613   1.365   0.726
   30SOL    HW1  127   0.564   1.278   0.735
   30SOL    HW2  128   0.590   1.408   0.639
   31SOL     OW  129   1.293   1.228   1.423
   31SOL    HW1  130   1.330   1.155   1.365
   31SOL    HW2  131   1.345   1.233   1.508
   32SOL     OW  132   0.809   0.004   0.502
   32SOL    HW1  133   0.849   0.095   0.493
   32SOL    HW2  134   0.709   0.012   0.508
   33SOL     OW  135   0.197   0.976   1.264
   33SOL    HW1  136   0.286   0.931   1.250
   33SOL    HW2  137   0.124   0.911   1.245
   34SOL     OW  138   1.525   0.999   0.190
   34SOL    HW1  139   1.462   0.923   0.203
   34SOL    HW2  140   1.573   1.017   0.276
   35SOL     OW  141   1.187   1.792   1.616
   35SOL    HW1  142   1.211   1.852   1.540
   35SOL    HW2  143   1.194   1.697   1.586
   36SOL     OW  144   0.317   0.251   1.801
   36SOL    HW1  145   0.388   0.322   1.807
   36SOL    HW2  146   0.229   0.290   1.829
   37SOL     OW  147   1.466   1.417   0.953
   37SOL    HW1  148   1.407   1.423   1.033
   37SOL    HW2  149   1.451   1.329   0.907
   38SOL     OW  150   1.667   1.714   0.572
   38SOL    HW1  151   1.626   1.691   0.484
   38SOL    HW2  152   1.649   1.640   0.637
   39SOL     OW  153   0.598   0.729   0.270
   39SOL    HW1  154   0.622   0.798   0.202
   39SOL    HW2  155   0.520   0.762   0.324
   40SOL     OW  156   1.281   0.345   0.944
   40SOL    HW1  157   1.195   0.295   0.931
   40SOL    HW2  158   1.343   0.291   1.000
   41SOL     OW  159   1.576   1.662   0.307
   41SOL    HW1  160   1.665   1.708   0.310
   41SOL    HW2  161   1.555   1.638   0.212
   42SOL     OW  162   0.807   0.605   1.465
   42SOL    HW1  163   0.760   0.602   1.554
   42SOL    HW2  164   0.756   0.550   1.399
   43SOL     OW  165   1.394   0.469   1.674
   43SOL    HW1  166   1.374   0.512   1.762
   43SOL    HW2  167   1.472   0.407   1.683
   44SOL     OW  168   0.973   0.890   1.572
   44SOL    HW1  169   1.019   0.806   1.543
   44SOL    HW2  170   0.917   0.924   1.497
   45SOL     OW  171   0.991   0.410   1.242
   45SOL    HW1  172   0.914   0.444   1.296
   45SOL    HW2  173   0.957   0.359   1.163
   46SOL     OW  174   1.041   0.701   0.429
   46SOL    HW1  175   1.067   0.697   0.525
   46SOL    HW2  176   0.956   0.650   0.415
   47SOL     OW  177   0.076   0.811   0.789
   47SOL    HW1  178   0.175   0.799   0.798
   47SOL    HW2  179   0.052   0.906   0.810
   48SOL     OW  180   0.130   1.821   1.571
   48SOL    HW1  181   0.120   1.806   1.670
   48SOL    HW2  182   0.044   1.857   1.535
   49SOL     OW  183   0.865   0.348   0.195
   49SOL    HW1  184   0.924   0.411   0.146
   49SOL    HW2  185   0.884   0.254   0.166
   50SOL     OW  186   1.719   0.585   1.831
   50SOL    HW1  187   1.693   0.674   1.795
   50SOL    HW2  188   1.717   0.517   1.758
   51SOL     OW  189   1.362   1.144   0.545
   51SOL    HW1  190   1.445   1.115   0.497
   51SOL    HW2  191   1.313   1.211   0.489
   52SOL     OW  192   0.550   0.196   0.885
   52SOL    HW1  193   0.545   0.191   0.985
   52SOL    HW2  194   0.552   0.292   0.856
   53SOL     OW  195   1.008   1.456   0.477
   53SOL    HW1  196   0.962   1.528   0.425
   53SOL    HW2  197   1.004   1.476   0.575
   54SOL     OW  198   0.351   1.801   0.853
   54SOL    HW1  199   0.401   1.715   0.859
   54SOL    HW2  200   0.416   1.878   0.850
   55SOL     OW  201   1.795   1.066   0.873
   55SOL    HW1  202   1.733   1.051   0.797
   55SOL    HW2  203   1.743   1.077   0.958
   56SOL     OW  204   1.227   1.550   1.506
   56SOL    HW1  205   1.233   1.473   1.570
   56SOL    HW2  206   1.175   1.524   1.426
   57SOL     OW  207   0.321   0.943   0.242
   57SOL    HW1  208   0.403   0.982   0.200
   57SOL    HW2  209   0.294   0.861   0.193
   58SOL     OW  210   1.458   0.735   0.728
   58SOL    HW1  211   1.453   0.670   0.803
   58SOL    HW2  212   1.538   0.794   0.741
   59SOL     OW  213   0.461   1.266   1.727
   59SOL    HW1  214   0.411   1.267   1.641
   59SOL    HW2  215   0.398   1.248   1.803
   60SOL     OW  216   1.111   1.776   0.237
   60SOL    HW1  217   1.051   1.714   0.287
   60SOL    HW2  218   1.142   1.732   0.152
   61SOL     OW  219   0.202   0.285   1.498
   61SOL    HW1  220   0.122   0.345   1.485
   61SOL    HW2  221   0.192   0.236   1.584
   62SOL     OW  222   1.632   1.377   0.081
   62SOL    HW1  223   1.600   1.471   0.071
   62SOL    HW2  224   1.556   1.314   0.069
   63SOL     OW  225   0.464   1.743   0.323
   63SOL    HW1  226   0.497   1.782   0.409
   63SOL    HW2  227   0.540   1.736   0.258
   64SOL     OW  228   1.400   0.107   0.426
   64SOL    HW1  229   1.376   0.070   0.336
   64SOL    HW2  230   1.499   0.123   0.430
   65SOL     OW  231   0.249   1.785   1.241
   65SOL    HW1  232   0.306   1.720   1.291
   65SOL    HW2  233   0.233   1.752   1.148
   66SOL     OW  234   0.940   1.698   0.904
   66SOL    HW1  235   1.020   1.641   0.925
   66SOL    HW2  236   0.891   1.658   0.827
   67SOL     OW  237   0.382   0.700   0.480
   67SOL    HW1  238   0.427   0.610   0.477
   67SOL    HW2  239   0.288   0.689   0.513
   68SOL     OW  240   1.547   0.222   1.729
   68SOL    HW1  241   1.542   0.259   1.821
   68SOL    HW2  242   1.475   0.153   1.717
   69SOL     OW  243   0.614   0.122   0.117
   69SOL    HW1  244   0.712   0.100   0.124
   69SOL    HW2  245   0.583   0.105   0.024
   70SOL     OW  246   0.781   0.264   1.749
   70SOL    HW1  247   0.848   0.203   1.792
   70SOL    HW2  248   0.708   0.283   1.814
   71SOL     OW  249   0.888   1.514   1.195
   71SOL    HW1  250   0.865   1.489   1.101
   71SOL    HW2  251   0.949   1.445   1.234
   72SOL     OW  252   1.351   0.590   1.433
   72SOL    HW1  253   1.379   0.547   1.518
   72SOL    HW2  254   1.376   0.686   1.434
   73SOL     OW  255   0.803   1.402   0.924
   73SOL    HW1  256   0.893   1.416   0.882
   73SOL    HW2  257   0.732   1.404   0.853
   74SOL     OW  258   0.922   0.503   0.899
   74SOL    HW1  259   0.897   0.494   0.803
   74SOL    HW2  260   0.970   0.421   0.930
   75SOL     OW  261   0.539   0.064   0.512
   75SOL    HW1  262   0.458   0.065   0.570
   75SOL    HW2  263   0.542   0.147   0.457
   76SOL     OW  264   1.434   1.188   0.041
   76SOL    HW1  265   1.466   1.112   0.098
   76SOL    HW2  266   1.342   1.215   0.071
   77SOL     OW  267   0.297   0.035   0.171
   77SOL    HW1  268   0.346   0.119   0.150
   77SOL    HW2  269   0.359  -0.030   0.216
   78SOL     OW  270   0.935   0.236   0.480
   78SOL    HW1  271   0.887   0.277   0.402
   78SOL    HW2  272   1.034   0.234   0.461
   79SOL     OW  273   1.076   0.683   1.464
   79SOL    HW1  274   0.996   0.622   1.467
   79SOL    HW2  275   1.157   0.630   1.440
   80SOL     OW  276   1.227   1.570   0.793
   80SOL    HW1  277   1.248   1.644   0.728
   80SOL    HW2  278   1.295   1.570   0.866
   81SOL     OW  279   0.459   1.152   0.741
   81SOL    HW1  280   0.388   1.125   0.806
   81SOL    HW2  281   0.433   1.124   0.648
   82SOL     OW  282   1.271   1.797   0.591
   82SOL    HW1  283   1.315   1.861   0.527
   82SOL    HW2  284   1.221   1.849   0.661
   83SOL     OW  285   1.032   0.549   0.016
   83SOL    HW1  286   0.991   0.631  -0.023
   83SOL    HW2  287   1.096   0.575   0.089
   84SOL     OW  288   0.078   0.556   1.386
   84SOL    HW1  289   0.170   0.555   1.345
   84SOL    HW2  290   0.072   0.630   1.453
   85SOL     OW  291   0.561   0.222   1.147
   85SOL    HW1  292   0.599   0.138   1.184
   85SOL    HW2  293   0.473   0.241   1.191
   86SOL     OW  294   0.866   0.454   0.642
   86SOL    HW1  295   0.834   0.526   0.580
   86SOL    HW2  296   0.890   0.373   0.589
   87SOL     OW  297   1.017   0.039   0.753
   87SOL    HW1  298   0.945   0.044   0.684
   87SOL    HW2  299   0.993  -0.030   0.822
   88SOL     OW  300   1.429   1.173   0.867
   88SOL    HW1  301   1.374   1.089   0.860
   88SOL    HW2  302   1.455   1.202   0.775
   89SOL     OW  303   1.466   0.590   0.992
   89SOL    HW1  304   1.436   0.495   0.999
   89SOL    HW2  305   1.539   0.606   1.058
   90SOL     OW  306   1.857   0.833   0.377
   90SOL    HW1  307   1.899   0.769   0.441
   90SOL    HW2  308   1.819   0.782   0.299
   91SOL     OW  309   0.488   1.385   0.174
   91SOL    HW1  310   0.401   1.370   0.221
   91SOL    HW2  311   0.471   1.411   0.079
   92SOL     OW  312   1.664   1.280   0.657
   92SOL    HW1  313   1.763   1.288   0.671
   92SOL    HW2  314   1.619   1.364   0.688
   93SOL     OW  315   1.390   0.575   0.078
   93SOL    HW1  316   1.336   0.554   0.159
   93SOL    HW2  317   1.481   0.534   0.087
   94SOL     OW  318   0.527   0.256   0.328
   94SOL    HW1  319   0.554   0.197   0.253
   94SOL    HW2  320   0.527   0.351   0.297
   95SOL     OW  321   1.754   1.223   1.588
   95SOL    HW1  322   1.845   1.184   1.575
   95SOL    HW2  323   1.762   1.319   1.612
   96SOL     OW  324   1.064   1.347   1.340
   96SOL    HW1  325   0.984   1.324   1.395
   96SOL    HW2  326   1.147   1.321   1.389
   97SOL     OW  327   1.592   1.629   1.625
   97SOL    HW1  328   1.619   1.663   1.535
   97SOL    HW2  329   1.671   1.591   1.671
   98SOL     OW  330   1.111   1.195   1.100
   98SOL    HW1  331   1.071   1.239   1.181
   98SOL    HW2  332   1.070   1.232   1.017
   99SOL     OW  333   1.638   1.099   1.079
   99SOL    HW1  334   1.643   1.180   1.138
   99SOL    HW2  335   1.552   1.101   1.028
  100SOL     OW  336   0.915   0.089   1.402
  100SOL    HW1  337   0.940   0.069   1.307
  100SOL    HW2  338   0.987   0.145   1.444
  101SOL     OW  339   0.980   1.116   1.719
  101SOL    HW1  340   0.881   1.122   1.729
  101SOL    HW2  341   1.003   1.036   1.663
  102SOL     OW  342   0.705   1.050   0.368
  102SOL    HW1  343   0.691   1.057   0.467
  102SOL    HW2  344   0.789   0.999   0.350
  103SOL     OW  345   0.410   0.813   1.251
  103SOL    HW1  346   0.496   0.825   1.301
  103SOL    HW2  347   0.368   0.726   1.278
  104SOL     OW  348   1.274   0.386   1.262
  104SOL    HW1  349   1.295   0.460   1.326
  104SOL    HW2  350   1.185   0.403   1.219
  105SOL     OW  351   0.064   1.564   1.331
  105SOL    HW1  352   0.018   1.646   1.297
  105SOL    HW2  353   0.162   1.583   1.340
  106SOL     OW  354   0.367   1.100   0.501
  106SOL    HW1  355   0.360   1.183   0.445
  106SOL    HW2  356   0.371   1.020   0.441
  107SOL     OW  357   0.566   0.537   0.865
  107SOL    HW1  358   0.578   0.603   0.791
  107SOL    HW2  359   0.612   0.571   0.948
  108SOL     OW  360   1.252   1.348   0.388
  108SOL    HW1  361   1.302   1.425   0.428
  108SOL    HW2  362   1.157   1.350   0.420
  109SOL     OW  363   1.272   1.445   1.142
  109SOL    HW1  364   1.319   1.458   1.229
  109SOL    HW2  365   1.206   1.371   1.151
  110SOL     OW  366   1.582   0.639   0.472
  110SOL    HW1  367   1.551   0.700   0.545
  110SOL    HW2  368   1.632   0.691   0.403
  111SOL     OW  369   0.354   1.510   1.329
  111SOL    HW1  370   0.333   1.466   1.242
  111SOL    HW2  371   0.451   1.536   1.332
  112SOL     OW  372   0.402   0.751   1.598
  112SOL    HW1  373   0.470   0.806   1.551
  112SOL    HW2  374   0.442   0.663   1.625
  113SOL     OW  375   1.587   0.779   1.670
  113SOL    HW1  376   1.495   0.817   1.665
  113SOL    HW2  377   1.647   0.826   1.605
  114SOL     OW  378   1.013   0.105   1.770
  114SOL    HW1  379   1.019   0.190   1.718
  114SOL    HW2  380   1.045   0.029   1.713
  115SOL     OW  381   0.504   0.050   1.740
  115SOL    HW1  382   0.462  -0.007   1.670
  115SOL    HW2  383   0.438   0.119   1.772
  116SOL     OW  384   0.573   0.870   1.029
  116SOL    HW1  385   0.617   0.959   1.020
  116SOL    HW2  386   0.510   0.870   1.106
  117SOL     OW  387   1.360   0.862   1.045
  117SOL    HW1  388   1.285   0.862   0.979
  117SOL    HW2  389   1.397   0.770   1.054
  118SOL     OW  390   1.209   0.525   0.275
  118SOL    HW1  391   1.222   0.441   0.329
  118SOL    HW2  392   1.180   0.599   0.335
  119SOL     OW  393   0.307   0.213   1.231
  119SOL    HW1  394   0.284   0.250   1.321
  119SOL    HW2  395   0.277   0.118   1.225
  120SOL     OW  396   0.037   1.310   1.282
  120SOL    HW1  397   0.090   1.261   1.350
  120SOL    HW2  398   0.059   1.408   1.287
  121SOL     OW  399   0.732   0.634   1.064
  121SOL    HW1  400   0.791   0.608   0.988
  121SOL    HW2  401   0.704   0.730   1.053
  122SOL     OW  402   1.728   0.935   1.854
  122SOL    HW1  403   1.682   0.928   1.765
  122SOL    HW2  404   1.666   0.979   1.920
  123SOL     OW  405   0.307   0.063   0.618
  123SOL    HW1  406   0.296   0.157   0.651
  123SOL    HW2  407   0.302   0.000   0.695
  124SOL     OW  408   1.622   0.367   0.374
  124SOL    HW1  409   1.624   0.291   0.438
  124SOL    HW2  410   1.574   0.444   0.414
  125SOL     OW  411   1.023   0.766   0.966
  125SOL    HW1  412   1.038   0.787   1.062
  125SOL    HW2  413   0.993   0.671   0.957
  126SOL     OW  414   0.980   1.573   1.700
  126SOL    HW1  415   0.960   1.617   1.612
  126SOL    HW2  416   1.019   1.482   1.684
  127SOL     OW  417   1.859   1.518   1.605
  127SOL    HW1  418   1.873   1.545   1.510
  127SOL    HW2  419   1.942   1.540   1.658
  128SOL     OW  420   0.350   0.898   1.804
  128SOL    HW1  421   0.426   0.942   1.852
  128SOL    HW2  422   0.385   0.851   1.722
  129SOL     OW  423   1.540   0.274   0.125
  129SOL    HW1  424   1.479   0.199   0.148
  129SOL    HW2  425   1.562   0.326   0.208
  130SOL     OW  426   1.303   0.838   0.042
  130SOL    HW1  427   1.337   0.745   0.057
  130SOL    HW2  428   1.321   0.865  -0.053
  131SOL     OW  429   1.068   1.333   0.849
  131SOL    HW1  430   1.075   1.249   0.794
  131SOL    HW2  431   1.130   1.402   0.813
  132SOL     OW  432   0.319   0.810   0.949
  132SOL    HW1  433   0.412   0.846   0.954
  132SOL    HW2  434   0.313   0.725   1.001
  133SOL     OW  435   0.339   0.509   1.006
  133SOL    HW1  436   0.287   0.426   0.989
  133SOL    HW2  437   0.416   0.514   0.942
  134SOL     OW  438   1.138   0.380   1.678
  134SOL    HW1  439   1.093   0.443   1.742
  134SOL    HW2  440   1.231   0.411   1.661
  135SOL     OW  441   1.160   0.207   1.477
  135SOL    HW1  442   1.160   0.271   1.554
  135SOL    HW2  443   1.188   0.255   1.394
  136SOL     OW  444   0.008   1.326   0.200
  136SOL    HW1  445  -0.085   1.347   0.169
  136SOL    HW2  446   0.018   1.227   0.213
  137SOL     OW  447   0.088   1.801   0.927
  137SOL    HW1  448   0.046   1.715   0.900
  137SOL    HW2  449   0.182   1.804   0.893
  138SOL     OW  450   0.504   1.568   0.910
  138SOL    HW1  451   0.570   1.642   0.919
  138SOL    HW2  452   0.548   1.489   0.868
  139SOL     OW  453   1.002   0.796   1.238
  139SOL    HW1  454   1.043   0.764   1.324
  139SOL    HW2  455   0.906   0.769   1.235
  140SOL     OW  456   0.040   0.544   1.114
  140SOL    HW1  457   0.125   0.511   1.073
  140SOL    HW2  458   0.053   0.559   1.212
  141SOL     OW  459   0.189   0.520   1.722
  141SOL    HW1  460   0.248   0.480   1.652
  141SOL    HW2  461   0.131   0.591   1.681
  142SOL     OW  462   1.369   0.950   1.660
  142SOL    HW1  463   1.408   1.039   1.680
  142SOL    HW2  464   1.379   0.930   1.563
  143SOL     OW  465   0.815   0.572   0.325
  143SOL    HW1  466   0.822   0.483   0.279
  143SOL    HW2  467   0.721   0.606   0.317
  144SOL     OW  468   1.657   0.604   1.206
  144SOL    HW1  469   1.619   0.535   1.268
  144SOL    HW2  470   1.739   0.568   1.162
  145SOL     OW  471   0.252   1.564   1.744
  145SOL    HW1  472   0.222   1.621   1.820
  145SOL    HW2  473   0.245   1.467   1.770
  146SOL     OW  474   0.671   0.464   1.269
  146SOL    HW1  475   0.637   0.375   1.239
  146SOL    HW2  476   0.697   0.518   1.189
  147SOL     OW  477   0.930   1.678   1.465
  147SOL    HW1  478   0.906   1.660   1.370
  147SOL    HW2  479   0.960   1.772   1.475
  148SOL     OW  480   0.473   0.500   0.191
  148SOL    HW1  481   0.534   0.580   0.195
  148SOL    HW2  482   0.378   0.531   0.198
  149SOL     OW  483   0.159   1.137   1.466
  149SOL    HW1  484   0.181   1.076   1.542
  149SOL    HW2  485   0.169   1.088   1.380
  150SOL     OW  486   1.347   1.059   1.234
  150SOL    HW1  487   1.371   0.996   1.160
  150SOL    HW2  488   1.257   1.099   1.216
  151SOL     OW  489   1.302   0.855   0.309
  151SOL    HW1  490   1.216   0.824   0.351
  151SOL    HW2  491   1.298   0.841   0.210
  152SOL     OW  492   1.759   1.747   1.154
  152SOL    HW1  493   1.820   1.777   1.081
  152SOL    HW2  494   1.721   1.658   1.132
  153SOL     OW  495   1.252   1.731   1.128
  153SOL    HW1  496   1.336   1.736   1.074
  153SOL    HW2  497   1.229   1.635   1.146
  154SOL     OW  498   0.083   1.258   1.022
  154SOL    HW1  499   0.078   1.257   1.122
  154SOL    HW2  500   0.000   1.217   0.984
  155SOL     OW  501   0.688   1.662   1.716
  155SOL    HW1  502   0.632   1.743   1.725
  155SOL    HW2  503   0.740   1.666   1.630
  156SOL     OW  504   0.903   0.086   0.133
  156SOL    HW1  505   0.954   0.087   0.047
  156SOL    HW2  506   0.959   0.044   0.204
  157SOL     OW  507   1.726   0.135   0.523
  157SOL    HW1  508   1.799   0.118   0.456
  157SOL    HW2  509   1.695   0.048   0.561
  158SOL     OW  510   1.388   1.573   0.477
  158SOL    HW1  511   1.455   1.585   0.403
  158SOL    HW2  512   1.348   1.662   0.500
  159SOL     OW  513   0.130   1.794   1.851
  159SOL    HW1  514   0.089   1.720   1.904
  159SOL    HW2  515   0.194   1.845   1.909
  160SOL     OW  516   1.280   0.927   0.672
  160SOL    HW1  517   1.340   0.846   0.674
  160SOL    HW2  518   1.320   0.996   0.612
  161SOL     OW  519   0.830   1.273   1.422
  161SOL    HW1  520   0.825   1.306   1.517
  161SOL    HW2  521   0.744   1.292   1.376
  162SOL     OW  522   0.672   1.616   0.154
  162SOL    HW1  523   0.681   1.626   0.055
  162SOL    HW2  524   0.632   1.527   0.175
  163SOL     OW  525   1.650   1.720   1.394
  163SOL    HW1  526   1.703   1.730   1.310
  163SOL    HW2  527   1.623   1.810   1.428
  164SOL     OW  528   1.841   0.175   0.963
  164SOL    HW1  529   1.880   0.090   0.927
  164SOL    HW2  530   1.743   0.177   0.944
  165SOL     OW  531   0.263   0.326   0.720
  165SOL    HW1  532   0.184   0.377   0.686
  165SOL    HW2  533   0.254   0.311   0.818
  166SOL     OW  534   1.194   1.612   0.031
  166SOL    HW1  535   1.200   1.519   0.068
  166SOL    HW2  536   1.135   1.612  -0.049
  167SOL     OW  537   0.822   1.002   1.372
  167SOL    HW1  538   0.862   1.001   1.280
  167SOL    HW2  539   0.832   1.094   1.412
  168SOL     OW  540   0.916   0.910   0.291
  168SOL    HW1  541   0.979   0.948   0.223
  168SOL    HW2  542   0.956   0.827   0.330
  169SOL     OW  543   1.504   1.607   0.044
  169SOL    HW1  544   1.412   1.644   0.051
  169SOL    HW2  545   1.542   1.627  -0.046
  170SOL     OW  546   0.372   1.288   1.490
  170SOL    HW1  547   0.359   1.381   1.456
  170SOL    HW2  548   0.288   1.236   1.477
  171SOL     OW  549   1.614   1.292   1.289
  171SOL    HW1  550   1.674   1.295   1.369
  171SOL    HW2  551   1.539   1.356   1.302
  172SOL     OW  552   1.039   1.098   0.696
  172SOL    HW1  553   0.969   1.051   0.750
  172SOL    HW2  554   1.098   1.030   0.653
  173SOL     OW  555   1.014   0.236   0.971
  173SOL    HW1  556   1.006   0.200   0.878
  173SOL    HW2  557   1.012   0.160   1.036
  174SOL     OW  558   0.590   1.487   0.491
  174SOL    HW1  559   0.632   1.429   0.421
  174SOL    HW2  560   0.546   1.566   0.447
  175SOL     OW  561   1.709   0.385   1.381
  175SOL    HW1  562   1.782   0.454   1.385
  175SOL    HW2  563   1.737   0.310   1.322
  176SOL     OW  564   0.255   1.348   0.290
  176SOL    HW1  565   0.159   1.349   0.263
  176SOL    HW2  566   0.267   1.401   0.374
  177SOL     OW  567   0.105   1.013   1.726
  177SOL    HW1  568   0.028   0.980   1.780
  177SOL    HW2  569   0.190   0.983   1.768
  178SOL     OW  570   0.672   0.203   1.489
  178SOL    HW1  571   0.762   0.187   1.449
  178SOL    HW2  572   0.680   0.208   1.588
  179SOL     OW  573   0.075   0.345   0.033
  179SOL    HW1  574  -0.017   0.317   0.004
  179SOL    HW2  575   0.106   0.422  -0.023
  180SOL     OW  576   1.440   0.856   1.398
  180SOL    HW1  577   1.383   0.908   1.335
  180SOL    HW2  578   1.536   0.868   1.374
  181SOL     OW  579   0.072   0.166   0.318
  181SOL    HW1  580   0.055   0.249   0.264
  181SOL    HW2  581   0.162   0.129   0.296
  182SOL     OW  582   1.183   1.335   0.119
  182SOL    HW1  583   1.084   1.324   0.121
  182SOL    HW2  584   1.217   1.350   0.212
  183SOL     OW  585   0.613   0.842   1.431
  183SOL    HW1  586   0.669   0.923   1.414
  183SOL    HW2  587   0.672   0.762   1.434
  184SOL     OW  588   1.493   1.767   0.959
  184SOL    HW1  589   1.526   1.831   0.890
  184SOL    HW2  590   1.559   1.761   1.034
  185SOL     OW  591   0.716   0.565   1.708
  185SOL    HW1  592   0.735   0.630   1.782
  185SOL    HW2  593   0.776   0.485   1.717
  186SOL     OW  594   1.450   1.220   1.633
  186SOL    HW1  595   1.441   1.210   1.732
  186SOL    HW2  596   1.546   1.213   1.607
  187SOL     OW  597   0.390   1.741   1.560
  187SOL    HW1  598   0.299   1.782   1.558
  187SOL    HW2  599   0.383   1.647   1.592
  188SOL     OW  600   1.674   0.883   1.254
  188SOL    HW1  601   1.647   0.794   1.217
  188SOL    HW2  602   1.675   0.951   1.181
  189SOL     OW  603   1.225   0.325   0.449
  189SOL    HW1  604   1.290   0.251   0.438
  189SOL    HW2  605   1.245   0.375   0.533
  190SOL     OW  606   0.594   0.745   0.652
  190SOL    HW1  607   0.644   0.830   0.633
  190SOL    HW2  608   0.506   0.747   0.604
  191SOL     OW  609   1.777   0.342   1.642
  191SOL    HW1  610   1.760   0.373   1.548
  191SOL    HW2  611   1.693   0.305   1.680
  192SOL     OW  612   1.730   0.934   1.517
  192SOL    HW1  613   1.768   1.025   1.532
  192SOL    HW2  614   1.722   0.917   1.418
  193SOL     OW  615   0.859   1.374   0.016
  193SOL    HW1  616   0.813   1.389   0.104
  193SOL    HW2  617   0.903   1.459  -0.014
  194SOL     OW  618   0.661   1.790   0.953
  194SOL    HW1  619   0.615   1.878   0.940
  194SOL    HW2  620   0.760   1.802   0.946
  195SOL     OW  621   0.859   0.956   0.861
  195SOL    HW1  622   0.913   0.887   0.909
  195SOL    HW2  623   0.827   1.025   0.927
  196SOL     OW  624   1.083   0.984   0.087
  196SOL    HW1  625   1.060   1.037   0.005
  196SOL    HW2  626   1.164   0.928   0.068
  197SOL     OW  627   1.861   1.569   0.851
  197SOL    HW1  628   1.790   1.557   0.781
  197SOL    HW2  629   1.862   1.490   0.911
  198SOL     OW  630   0.221   1.314   1.844
  198SOL    HW1  631   0.156   1.241   1.823
  198SOL    HW2  632   0.225   1.328   1.942
  199SOL     OW  633   0.079   1.240   0.653
  199SOL    HW1  634   0.078   1.193   0.741
  199SOL    HW2  635   0.161   1.212   0.602
  200SOL     OW  636   0.672   1.391   1.624
  200SOL    HW1  637   0.594   1.341   1.662
  200SOL    HW2  638   0.669   1.486   1.655
  201SOL     OW  639   1.824   0.192   1.227
  201SOL    HW1  640   1.820   0.102   1.271
  201SOL    HW2  641   1.827   0.181   1.128
  202SOL     OW  642   0.428   0.424   0.520
  202SOL    HW1  643   0.458   0.352   0.458
  202SOL    HW2  644   0.389   0.384   0.603
  203SOL     OW  645   1.705   1.487   1.104
  203SOL    HW1  646   1.612   1.462   1.077
  203SOL    HW2  647   1.731   1.437   1.186
  204SOL     OW  648   0.317   0.547   1.280
  204SOL    HW1  649   0.355   0.488   1.352
  204SOL    HW2  650   0.357   0.521   1.192
  205SOL     OW  651   0.812   1.586   0.687
  205SOL    HW1  652   0.844   1.596   0.593
  205SOL    HW2  653   0.733   1.524   0.689
  206SOL     OW  654   1.424   0.214   1.112
  206SOL    HW1  655   1.476   0.149   1.167
  206SOL    HW2  656   1.375   0.277   1.173
  207SOL     OW  657   1.001   0.034   1.154
  207SOL    HW1  658   0.938  -0.038   1.123
  207SOL    HW2  659   1.094  -0.002   1.154
  208SOL     OW  660   0.770   1.330   0.301
  208SOL    HW1  661   0.724   1.243   0.318
  208SOL    HW2  662   0.861   1.327   0.342
  209SOL     OW  663   0.618   1.567   1.284
  209SOL    HW1  664   0.613   1.649   1.341
  209SOL    HW2  665   0.707   1.564   1.239
  210SOL     OW  666   1.352   0.052   0.168
  210SOL    HW1  667   1.387   0.011   0.084
  210SOL    HW2  668   1.262   0.014   0.188
  211SOL     OW  669   1.300   0.453   0.691
  211SOL    HW1  670   1.241   0.533   0.695
  211SOL    HW2  671   1.315   0.418   0.784
  212SOL     OW  672   1.593   0.221   0.882
  212SOL    HW1  673   1.509   0.220   0.936
  212SOL    HW2  674   1.595   0.304   0.826
  213SOL     OW  675   0.039   1.077   0.300
  213SOL    HW1  676   0.138   1.066   0.291
  213SOL    HW2  677  -0.001   0.991   0.332
  214SOL     OW  678   0.875   1.646   0.337
  214SOL    HW1  679   0.798   1.611   0.283
  214SOL    HW2  680   0.843   1.717   0.399
  215SOL     OW  681   0.230   0.628   1.975
  215SOL    HW1  682   0.137   0.626   2.012
  215SOL    HW2  683   0.231   0.589   1.883
  216SOL     OW  684   0.225   0.275   2.858
  216SOL    HW1  685   0.260   0.258   2.950
  216SOL    HW2  686   0.137   0.230   2.846
  217SOL     OW  687   0.019   0.368   2.509
  217SOL    HW1  688  -0.063   0.411   2.548
  217SOL    HW2  689  -0.009   0.295   2.446
  218SOL     OW  690   0.569   1.275   3.027
  218SOL    HW1  691   0.476   1.268   2.990
  218SOL    HW2  692   0.580   1.364   3.071
  219SOL     OW  693   1.555   1.511   2.565
  219SOL    HW1  694   1.498   1.495   2.646
  219SOL    HW2  695   1.496   1.521   2.485
  220SOL     OW  696   1.135   0.703   2.579
  220SOL    HW1  697   1.192   0.781   2.554
  220SOL    HW2  698   1.075   0.729   2.655
  221SOL     OW  699   1.755   0.607   2.093
  221SOL    HW1  700   1.743   0.594   1.994
  221SOL    HW2  701   1.725   0.526   2.142
  222SOL     OW  702   0.768   1.144   2.885
  222SOL    HW1  703   0.690   1.161   2.945
  222SOL    HW2  704   0.802   1.231   2.849
  223SOL     OW  705   0.850   0.798   3.685
  223SOL    HW1  706   0.846   0.874   3.750
  223SOL    HW2  707   0.872   0.834   3.594
  224SOL     OW  708   0.685   1.012   2.527
  224SOL    HW1  709   0.754   0.996   2.597
  224SOL    HW2  710   0.612   1.069   2.565
  225SOL     OW  711   0.686   1.161   3.665
  225SOL    HW1  712   0.746   1.240   3.679
  225SOL    HW2  713   0.600   1.192   3.624
  226SOL     OW  714   0.335   1.435   2.923
  226SOL    HW1  715   0.257   1.404   2.870
  226SOL    HW2  716   0.393   1.493   2.866
  227SOL     OW  717   1.460   1.505   3.201
  227SOL    HW1  718   1.484   1.599   3.227
  227SOL    HW2  719   1.444   1.451   3.283
  228SOL     OW  720   0.438   0.392   3.361
  228SOL    HW1  721   0.520   0.336   3.370
  228SOL    HW2  722   0.357   0.334   3.365
  229SOL     OW  723   1.603   0.447   2.599
  229SOL    HW1  724   1.529   0.493   2.549
  229SOL    HW2  725   1.654   0.515   2.652
  230SOL     OW  726   0.231   1.713   2.345
  230SOL    HW1  727   0.265   1.790   2.399
  230SOL    HW2  728   0.275   1.713   2.255
  231SOL     OW  729   1.127   1.341   3.552
  231SOL    HW1  730   1.174   1.341   3.640
  231SOL    HW2  731   1.079   1.254   3.541
  232SOL     OW  732   0.230   1.434   2.400
  232SOL    HW1  733   0.204   1.530   2.400
  232SOL    HW2  734   0.159   1.380   2.445
  233SOL     OW  735   0.240   1.091   2.748
  233SOL    HW1  736   0.254   1.007   2.800
  233SOL    HW2  737   0.185   1.155   2.803
  234SOL     OW  738   0.620   1.786   3.301
  234SOL    HW1  739   0.528   1.769   3.336
  234SOL    HW2  740   0.648   1.878   3.327
  235SOL     OW  741   0.606   0.964   1.985
  235SOL    HW1  742   0.613   1.048   1.931
  235SOL    HW2  743   0.652   0.977   2.073
  236SOL     OW  744   1.594   0.114   3.342
  236SOL    HW1  745   1.576   0.181   3.270
  236SOL    HW2  746   1.591   0.160   3.431
  237SOL     OW  747   0.122   0.643   2.425
  237SOL    HW1  748   0.077   0.555   2.442
  237SOL    HW2  749   0.121   0.697   2.509
  238SOL     OW  750   1.842   1.767   2.221
  238SOL    HW1  751   1.896   1.738   2.301
  238SOL    HW2  752   1.872   1.857   2.192
  239SOL     OW  753   0.027   1.596   1.979
  239SOL    HW1  754   0.008   1.500   2.000
  239SOL    HW2  755  -0.006   1.654   2.054
  240SOL     OW  756   1.689   0.922   2.474
  240SOL    HW1  757   1.784   0.893   2.482
  240SOL    HW2  758   1.681   0.987   2.399
  241SOL     OW  759   1.641   1.108   2.294
  241SOL    HW1  760   1.727   1.110   2.242
  241SOL    HW2  761   1.655   1.155   2.382
  242SOL     OW  762   0.113   0.737   3.459
  242SOL    HW1  763   0.201   0.724   3.504
  242SOL    HW2  764   0.100   0.834   3.437
  243SOL     OW  765   0.613   1.365   2.588
  243SOL    HW1  766   0.564   1.278   2.597
  243SOL    HW2  767   0.590   1.408   2.501
  244SOL     OW  768   1.293   1.228   3.285
  244SOL    HW1  769   1.330   1.155   3.227
  244SOL    HW2  770   1.345   1.233   3.370
  245SOL     OW  771   0.809   0.004   2.364
  245SOL    HW1  772   0.849   0.095   2.355
  245SOL    HW2  773   0.709   0.012   2.370
  246SOL     OW  774   0.197   0.976   3.126
  246SOL    HW1  775   0.286   0.931   3.112
  246SOL    HW2  776   0.124   0.911   3.107
  247SOL     OW  777   1.525   0.999   2.052
  247SOL    HW1  778   1.462   0.923   2.065
  247SOL    HW2  779   1.573   1.017   2.138
  248SOL     OW  780   1.187   1.792   3.478
  248SOL    HW1  781   1.211   1.852   3.402
  248SOL    HW2  782   1.194   1.697   3.448
  249SOL     OW  783   0.317   0.251   3.663
  249SOL    HW1  784   0.388   0.322   3.669
  249SOL    HW2  785   0.229   0.290   3.691
  250SOL     OW  786   1.466   1.417   2.815
  250SOL    HW1  787   1.407   1.423   2.895
  250SOL    HW2  788   1.451   1.329   2.769
  251SOL     OW  789   1.667   1.714   2.434
  251SOL    HW1  790   1.626   1.691   2.346
  251SOL    HW2  791   1.649   1.640   2.499
  252SOL     OW  792   0.598   0.729   2.132
  252SOL    HW1  793   0.622   0.798   2.064
  252SOL    HW2  794   0.520   0.762   2.186
  253SOL     OW  795   1.281   0.345   2.806
  253SOL    HW1  796   1.195   0.295   2.793
  253SOL    HW2  797   1.343   0.291   2.862
  254SOL     OW  798   1.576   1.662   2.169
  254SOL    HW1  799   1.665   1.708   2.172
  254SOL    HW2  800   1.555   1.638   2.074
  255SOL     OW  801   0.807   0.605   3.327
  255SOL    HW1  802   0.760   0.602   3.416
  255SOL    HW2  803   0.756   0.550   3.261
  256SOL     OW  804   1.394   0.469   3.536
  256SOL    HW1  805   1.374   0.512   3.624
  256SOL    HW2  806   1.472   0.407   3.545
  257SOL     OW  807   0.973   0.890   3.434
  257SOL    HW1  808   1.019   0.806   3.405
  257SOL    HW2  809   0.917   0.924   3.359
  258SOL     OW  810   0.991   0.410   3.104
  258SOL    HW1  811   0.914   0.444   3.158
  258SOL    HW2  812   0.957   0.359   3.025
  259SOL     OW  813   1.041   0.701   2.291
  259SOL    HW1  814   1.067   0.697   2.387
  259SOL    HW2  815   0.956   0.650   2.277
  260SOL     OW  816   0.076   0.811   2.651
  260SOL    HW1  817   0.175   0.799   2.660
  260SOL    HW2  818   0.052   0.906   2.672
  261SOL     OW  819   0.130   1.821   3.433
  261SOL    HW1  820   0.120   1.806   3.532
  261SOL    HW2  821   0.044   1.857   3.397
  262SOL     OW  822   0.865   0.348   2.057
  262SOL    HW1  823   0.924   0.411   2.008
  262SOL    HW2  824   0.884   0.254   2.028
  263SOL     OW  825   1.719   0.585   3.693
  263SOL    HW1  826   1.693   0.674   3.657
  263SOL    HW2  827   1.717   0.517   3.620
  264SOL     OW  828   1.362   1.144   2.407
  264SOL    HW1  829   1.445   1.115   2.359
  264SOL    HW2  830   1.313   1.211   2.351
  265SOL     OW  831   0.550   0.196   2.747
  265SOL    HW1  832   0.545   0.191   2.847
  265SOL    HW2  833   0.552   0.292   2.718
  266SOL     OW  834   1.008   1.456   2.339
  266SOL    HW1  835   0.962   1.528   2.287
  266SOL    HW2  836   1.004   1.476   2.437
  267SOL     OW  837   0.351   1.801   2.715
  267SOL    HW1  838   0.401   1.715   2.721
  267SOL    HW2  839   0.416   1.878   2.712
  268SOL     OW  840   1.795   1.066   2.735
  268SOL    HW1  841   1.733   1.051   2.659
  268SOL    HW2  842   1.743   1.077   2.820
  269SOL     OW  843   1.227   1.550   3.368
  269SOL    HW1  844   1.233   1.473   3.432
  269SOL    HW2  845   1.175   1.524   3.288
  270SOL     OW  846   0.321   0.943   2.104
  270SOL    HW1  847   0.403   0.982   2.062
  270SOL    HW2  848   0.294   0.861   2.055
  271SOL     OW  849   1.458   0.735   2.590
  271SOL    HW1  850   1.453   0.670   2.665
  271SOL    HW2  851   1.538   0.794   2.603
  272SOL     OW  852   0.461   1.266   3.589
  272SOL    HW1  853   0.411   1.267   3.503
  272SOL    HW2  854   0.398   1.248   3.665
  273SOL     OW  855   1.111   1.776   2.099
  273SOL    HW1  856   1.051   1.714   2.149
  273SOL    HW2  857   1.142   1.732   2.014
  274SOL     OW  858   0.202   0.285   3.360
  274SOL    HW1  859   0.122   0.345   3.347
  274SOL    HW2  860   0.192   0.236   3.446
  275SOL     OW  861   1.632   1.377   1.943
  275SOL    HW1  862   1.600   1.471   1.933
  275SOL    HW2  863   1.556   1.314   1.931
  276SOL     OW  864   0.464   1.743   2.185
  276SOL    HW1  865   0.497   1.782   2.271
  276SOL    HW2  866   0.540   1.736   2.120
  277SOL     OW  867   1.400   0.107   2.288
  277SOL    HW1  868   1.376   0.070   2.198
  277SOL    HW2  869   1.499   0.123   2.292
  278SOL     OW  870   0.249   1.785   3.103
  278SOL    HW1  871   0.306   1.720   3.153
  278SOL    HW2  872   0.233   1.752   3.010
  279SOL     OW  873   0.940   1.698   2.766
  279SOL    HW1  874   1.020   1.641   2.787
  279SOL    HW2  875   0.891   1.658   2.689
  280SOL     OW  876   0.382   0.700   2.342
  280SOL    HW1  877   0.427   0.610   2.339
  280SOL    HW2  878   0.288   0.689   2.375
  281SOL     OW  879   1.547   0.222   3.591
  281SOL    HW1  880   1.542   0.259   3.683
  281SOL    HW2  881   1.475   0.153   3.579
  282SOL     OW  882   0.614   0.122   1.979
  282SOL    HW1  883   0.712   0.100   1.986
  282SOL    HW2  884   0.583   0.105   1.886
  283SOL     OW  885   0.781   0.264   3.611
  283SOL    HW1  886   0.848   0.203   3.654
  283SOL    HW2  887   0.708   0.283   3.676
  284SOL     OW  888   0.888   1.514   3.057
  284SOL    HW1  889   0.865   1.489   2.963
  284SOL    HW2  890   0.949   1.445   3.096
  285SOL     OW  891   1.351   0.590   3.295
  285SOL    HW1  892   1.379   0.547   3.380
  285SOL    HW2  893   1.376   0.686   3.296
  286SOL     OW  894   0.803   1.402   2.786
  286SOL    HW1  895   0.893   1.416   2.744
  286SOL    HW2  896   0.732   1.404   2.715
  287SOL     OW  897   0.922   0.503   2.761
  287SOL    HW1  898   0.897   0.494   2.665
  287SOL    HW2  899   0.970   0.421   2.792
  288SOL     OW  900   0.539   0.064   2.374
  288SOL    HW1  901   0.458   0.065   2.432
  288SOL    HW2  902   0.542   0.147   2.319
  289SOL     OW  903   1.434   1.188   1.903
  289SOL    HW1  904   1.466   1.112   1.960
  289SOL    HW2  905   1.342   1.215   1.933
  290SOL     OW  906   0.297   0.035   2.033
  290SOL    HW1  907   0.346   0.119   2.012
  290SOL    HW2  908   0.359  -0.030   2.078
  291SOL     OW  909   0.935   0.236   2.342
  291SOL    HW1  910   0.887   0.277   2.264
  291SOL    HW2  911   1.034   0.234   2.323
  292SOL     OW  912   1.076   0.683   3.326
  292SOL    HW1  913   0.996   0.622   3.329
  292SOL    HW2  914   1.157   0.630   3.302
  293SOL     OW  915   1.227   1.570   2.655
  293SOL    HW1  916   1.248   1.644   2.590
  293SOL    HW2  917   1.295   1.570   2.728
  294SOL     OW  918   0.459   1.152   2.603
  294SOL    HW1  919   0.388   1.125   2.668
  294SOL    HW2  920   0.433   1.124   2.510
  295SOL     OW  921   1.271   1.797   2.453
  295SOL    HW1  922   1.315   1.861   2.389
  295SOL    HW2  923   1.221   1.849   2.523
  296SOL     OW  924   1.032   0.549   1.878
  296SOL    HW1  925   0.991   0.631   1.839
  296SOL    HW2  926   1.096   0.575   1.951
  297SOL     OW  927   0.078   0.556   3.248
  297SOL    HW1  928   0.170   0.555   3.207
  297SOL    HW2  929   0.072   0.630   3.315
  298SOL     OW  930   0.561   0.222   3.009
  298SOL    HW1  931   0.599   0.138   3.046
  298SOL    HW2  932   0.473   0.241   3.053
  299SOL     OW  933   0.866   0.454   2.504
  299SOL    HW1  934   0.834   0.526   2.442
  299SOL    HW2  935   0.890   0.373   2.451
  300SOL     OW  936   1.017   0.039   2.615
  300SOL    HW1  937   0.945   0.044   2.546
  300SOL    HW2  938   0.993  -0.030   2.684
  301SOL     OW  939   1.429   1.173   2.729
  301SOL    HW1  940   1.374   1.089   2.722
  301SOL    HW2  941   1.455   1.202   2.637
  302SOL     OW  942   1.466   0.590   2.854
  302SOL    HW1  943   1.436   0.495   2.861
  302SOL    HW2  944   1.539   0.606   2.920
  303SOL     OW  945   1.857   0.833   2.239
  303SOL    HW1  946   1.899   0.769   2.303
  303SOL    HW2  947   1.819   0.782   2.161
  304SOL     OW  948   0.488   1.385   2.036
  304SOL    HW1  949   0.401   1.370   2.083
  304SOL    HW2  950   0.471   1.411   1.941
  305SOL     OW  951   1.664   1.280   2.519
  305SOL    HW1  952   1.763   1.288   2.533
  305SOL    HW2  953   1.619   1.364   2.550
  306SOL     OW  954   1.390   0.575   1.940
  306SOL    HW1  955   1.336   0.554   2.021
  306SOL    HW2  956   1.481   0.534   1.949
  307SOL     OW  957   0.527   0.256   2.190
  307SOL    HW1  958   0.554   0.197   2.115
  307SOL    HW2  959   0.527   0.351   2.159
  308SOL     OW  960   1.754   1.223   3.450
  308SOL    HW1  961   1.845   1.184   3.437
  308SOL    HW2  962   1.762   1.319   3.474
  309SOL     OW  963   1.064   1.347   3.202
  309SOL    HW1  964   0.984   1.324   3.257
  309SOL    HW2  965   1.147   1.321   3.251
  310SOL     OW  966   1.592   1.629   3.487
  310SOL    HW1  967   1.619   1.663   3.397
  310SOL    HW2  968   1.671   1.591   3.533
  311SOL     OW  969   1.111   1.195   2.962
  311SOL    HW1  970   1.071   1.239   3.043
  311SOL    HW2  971   1.070   1.232   2.879
  312SOL     OW  972   1.638   1.099   2.941
  312SOL    HW1  973   1.643   1.180   3.000
  312SOL    HW2  974   1.552   1.101   2.890
  313SOL     OW  975   0.915   0.089   3.264
  313SOL    HW1  976   0.940   0.069   3.169
  313SOL    HW2  977   0.987   0.145   3.306
  314SOL     OW  978   0.980   1.116   3.581
  314SOL    HW1  979   0.881   1.122   3.591
  314SOL    HW2  980   1.003   1.036   3.525
  315SOL     OW  981   0.705   1.050   2.230
  315SOL    HW1  982   0.691   1.057   2.329
  315SOL    HW2  983   0.789   0.999   2.212
  316SOL     OW  984   0.410   0.813   3.113
  316SOL    HW1  985   0.496   0.825   3.163
  316SOL    HW2  986   0.368   0.726   3.140
  317SOL     OW  987   1.274   0.386   3.124
  317SOL    HW1  988   1.295   0.460   3.188
  317SOL    HW2  989   1.185   0.403   3.081
  318SOL     OW  990   0.064   1.564   3.193
  318SOL    HW1  991   0.018   1.646   3.159
  318SOL    HW2  992   0.162   1.583   3.202
  319SOL     OW  993   0.367   1.100   2.363
  319SOL    HW1  994   0.360   1.183   2.307
  319SOL    HW2  995   0.371   1.020   2.303
  320SOL     OW  996   0.566   0.537   2.727
  320SOL    HW1  997   0.578   0.603   2.653
  320SOL    HW2  998   0.612   0.571   2.810
  321SOL     OW  999   1.252   1.348   2.250
  321SOL    HW1 1000   1.302   1.425   2.290
  321SOL    HW2 1001   1.157   1.350   2.282
  322SOL     OW 1002   1.272   1.445   3.004
  322SOL    HW1 1003   1.319   1.458   3.091
  322SOL    HW2 1004   1.206   1.371   3.013
  323SOL     OW 1005   1.582   0.639   2.334
  323SOL    HW1 1006   1.551   0.700   2.407
  323SOL    HW2 1007   1.632   0.691   2.265
  324SOL     OW 1008   0.354   1.510   3.191
  324SOL    HW1 1009   0.333   1.466   3.104
  324SOL    HW2 1010   0.451   1.536   3.194
  325SOL     OW 1011   0.402   0.751   3.460
  325SOL    HW1 1012   0.470   0.806   3.413
  325SOL    HW2 1013   0.442   0.663   3.487
  326SOL     OW 1014   1.587   0.779   3.532
  326SOL    HW1 1015   1.495   0.817   3.527
  326SOL    HW2 1016   1.647   0.826   3.467
  327SOL     OW 1017   1.013   0.105   3.632
  327SOL    HW1 1018   1.019   0.190   3.580
  327SOL    HW2 1019   1.045   0.029   3.575
  328SOL     OW 1020   0.504   0.050   3.602
  328SOL    HW1 1021   0.462  -0.007   3.532
  328SOL    HW2 1022   0.438   0.119   3.634
  329SOL     OW 1023   0.573   0.870   2.891
  329SOL    HW1 1024   0.617   0.959   2.882
  329SOL    HW2 1025   0.510   0.870   2.968
  330SOL     OW 1026   1.360   0.862   2.907
  330SOL    HW1 1027   1.285   0.862   2.841
  330SOL    HW2 1028   1.397   0.770   2.916
  331SOL     OW 1029   1.209   0.525   2.137
  331SOL    HW1 1030   1.222   0.441   2.191
  331SOL    HW2 1031   1.180   0.599   2.197
  332SOL     OW 1032   0.307   0.213   3.093
  332SOL    HW1 1033   0.284   0.250   3.183
  332SOL    HW2 1034   0.277   0.118   3.087
  333SOL     OW 1035   0.037   1.310   3.144
  333SOL    HW1 1036   0.090   1.261   3.212
  333SOL    HW2 1037   0.059   1.408   3.149
  334SOL     OW 1038   0.732   0.634   2.926
  334SOL    HW1 1039   0.791   0.608   2.850
  334SOL    HW2 1040   0.704   0.730   2.915
  335SOL     OW 1041   1.728   0.935   3.716
  335SOL    HW1 1042   1.682   0.928   3.627
  335SOL    HW2 1043   1.666   0.979   3.782
  336SOL     OW 1044   0.307   0.063   2.480
  336SOL    HW1 1045   0.296   0.157   2.513
  336SOL    HW2 1046   0.302   0.000   2.557
  337SOL     OW 1047   1.622   0.367   2.236
  337SOL    HW1 1048   1.624   0.291   2.300
  337SOL    HW2 1049   1.574   0.444   2.276
  338SOL     OW 1050   1.023   0.766   2.828
  338SOL    HW1 1051   1.038   0.787   2.924
  338SOL    HW2 1052   0.993   0.671   2.819
  339SOL     OW 1053   0.980   1.573   3.562
  339SOL    HW1 1054   0.960   1.617   3.474
  339SOL    HW2 1055   1.019   1.482   3.546
  340SOL     OW 1056   1.859   1.518   3.467
  340SOL    HW1 1057   1.873   1.545   3.372
  340SOL    HW2 1058   1.942   1.540   3.520
  341SOL     OW 1059   0.350   0.898   3.666
  341SOL    HW1 1060   0.426   0.942   3.714
  341SOL    HW2 1061   0.385   0.851   3.584
  342SOL     OW 1062   1.540   0.274   1.987
  342SOL    HW1 1063   1.479   0.199   2.010
  342SOL    HW2 1064   1.562   0.326   2.070
  343SOL     OW 1065   1.303   0.838   1.904
  343SOL    HW1 1066   1.337   0.745   1.919
  343SOL    HW2 1067   1.321   0.865   1.809
  344SOL     OW 1068   1.068   1.333   2.711
  344SOL    HW1 1069   1.075   1.249   2.656
  344SOL    HW2 1070   1.130   1.402   2.675
  345SOL     OW 1071   0.319   0.810   2.811
  345SOL    HW1 1072   0.412   0.846   2.816
  345SOL    HW2 1073   0.313   0.725   2.863
  346SOL     OW 1074   0.339   0.509   2.868
  346SOL    HW1 1075   0.287   0.426   2.851
  346SOL    HW2 1076   0.416   0.514   2.804
  347SOL     OW 1077   1.138   0.380   3.540
  347SOL    HW1 1078   1.093   0.443   3.604
  347SOL    HW2 1079   1.231   0.411   3.523
  348SOL     OW 1080   1.160   0.207   3.339
  348SOL    HW1 1081   1.160   0.271   3.416
  348SOL    HW2 1082   1.188   0.255   3.256
  349SOL     OW 1083   0.008   1.326   2.062
  349SOL    HW1 1084  -0.085   1.347   2.031
  349SOL    HW2 1085   0.018   1.227   2.075
  350SOL     OW 1086   0.088   1.801   2.789
  350SOL    HW1 1087   0.046   1.715   2.762
  350SOL    HW2 1088   0.182   1.804   2.755
  351SOL     OW 1089   0.504   1.568   2.772
  351SOL    HW1 1090   0.570   1.642   2.781
  351SOL    HW2 1091   0.548   1.489   2.730
  352SOL     OW 1092   1.002   0.796   3.100
  352SOL    HW1 1093   1.043   0.764   3.186
  352SOL    HW2 1094   0.906   0.769   3.097
  353SOL     OW 1095   0.040   0.544   2.976
  353SOL    HW1 1096   0.125   0.511   2.935
  353SOL    HW2 1097   0.053   0.559   3.074
  354SOL     OW 1098   0.189   0.520   3.584
  354SOL    HW1 1099   0.248   0.480   3.514
  354SOL    HW2 1100   0.131   0.591   3.543
  355SOL     OW 1101   1.369   0.950   3.522
  355SOL    HW1 1102   1.408   1.039   3.542
  355SOL    HW2 1103   1.379   0.930   3.425
  356SOL     OW 1104   0.815   0.572   2.187
  356SOL    HW1 1105   0.822   0.483   2.141
  356SOL    HW2 1106   0.721   0.606   2.179
  357SOL     OW 1107   1.657   0.604   3.068
  357SOL    HW1 1108   1.619   0.535   3.130
  357SOL    HW2 1109   1.739   0.568   3.024
  358SOL     OW 1110   0.252   1.564   3.606
  358SOL    HW1 1111   0.222   1.621   3.682
  358SOL    HW2 1112   0.245   1.467   3.632
  359SOL     OW 1113   0.671   0.464   3.131
  359SOL    HW1 1114   0.637   0.375   3.101
  359SOL    HW2 1115   0.697   0.518   3.051
  360SOL     OW 1116   0.930   1.678   3.327
  360SOL    HW1 1117   0.906   1.660   3.232
  360SOL    HW2 1118   0.960   1.772   3.337
  361SOL     OW 1119   0.473   0.500   2.053
  361SOL    HW1 1120   0.534   0.580   2.057
  361SOL    HW2 1121   0.378   0.531   2.060
  362SOL     OW 1122   0.159   1.137   3.328
  362SOL    HW1 1123   0.181   1.076   3.404
  362SOL    HW2 1124   0.169   1.088   3.242
  363SOL     OW 1125   1.347   1.059   3.096
  363SOL    HW1 1126   1.371   0.996   3.022
  363SOL    HW2 1127   1.257   1.099   3.078
  364SOL     OW 1128   1.302   0.855   2.171
  364SOL    HW1 1129   1.216   0.824   2.213
  364SOL    HW2 1130   1.298   0.841   2.072
  365SOL     OW 1131   1.759   1.747   3.016
  365SOL    HW1 1132   1.820   1.777   2.943
  365SOL    HW2 1133   1.721   1.658   2.994
  366SOL     OW 1134   1.252   1.731   2.990
  366SOL    HW1 1135   1.336   1.736   2.936
  366SOL    HW2 1136   1.229   1.635   3.008
  367SOL     OW 1137   0.083   1.258   2.884
  367SOL    HW1 1138   0.078   1.257   2.984
  367SOL    HW2 1139   0.000   1.217   2.846
  368SOL     OW 1140   0.688   1.662   3.578
  368SOL    HW1 1141   0.632   1.743   3.587
  368SOL    HW2 1142   0.740   1.666   3.492
  369SOL     OW 1143   1.726   0.135   2.385
  369SOL    HW1 1144   1.799   0.118   2.318
  369SOL    HW2 1145   1.695   0.048   2.423
  370SOL     OW 1146   1.388   1.573   2.339
  370SOL    HW1 1147   1.455   1.585   2.265
  370SOL    HW2 1148   1.348   1.662   2.362
  371SOL     OW 1149   0.130   1.794   3.713
  371SOL    HW1 1150   0.089   1.720   3.766
  371SOL    HW2 1151   0.194   1.845   3.771
  372SOL     OW 1152   1.280   0.927   2.534
  372SOL    HW1 1153   1.340   0.846   2.536
  372SOL    HW2 1154   1.320   0.996   2.474
  373SOL     OW 1155   0.830   1.273   3.284
  373SOL    HW1 1156   0.825   1.306   3.379
  373SOL    HW2 1157   0.744   1.292   3.238
  374SOL     OW 1158   0.672   1.616   2.016
  374SOL    HW1 1159   0.681   1.626   1.917
  374SOL    HW2 1160   0.632   1.527   2.037
  375SOL     OW 1161   1.650   1.720   3.256
  375SOL    HW1 1162   1.703   1.730   3.172
  375SOL    HW2 1163   1.623   1.810   3.290
  376SOL     OW 1164   1.841   0.175   2.825
  376SOL    HW1 1165   1.880   0.090   2.789
  376SOL    HW2 1166   1.743   0.177   2.806
  377SOL     OW 1167   0.263   0.326   2.582
  377SOL    HW1 1168   0.184   0.377   2.548
  377SOL    HW2 1169   0.254   0.311   2.680
  378SOL     OW 1170   1.194   1.612   1.893
  378SOL    HW1 1171   1.200   1.519   1.930
  378SOL    HW2 1172   1.135   1.612   1.813
  379SOL     OW 1173   0.822   1.002   3.234
  379SOL    HW1 1174   0.862   1.001   3.142
  379SOL    HW2 1175   0.832   1.094   3.274
  380SOL     OW 1176   0.916   0.910   2.153
  380SOL    HW1 1177   0.979   0.948   2.085
  380SOL    HW2 1178   0.956   0.827   2.192
  381SOL     OW 1179   1.504   1.607   1.906
  381SOL    HW1 1180   1.412   1.644   1.913
  381SOL    HW2 1181   1.542   1.627   1.816
  382SOL     OW 1182   0.372   1.288   3.352
  382SOL    HW1 1183   0.359   1.381   3.318
  382SOL    HW2 1184   0.288   1.236   3.339
  383SOL     OW 1185   1.614   1.292   3.151
  383SOL    HW1 1186   1.674   1.295   3.231
  383SOL    HW2 1187   1.539   1.356   3.164
  384SOL     OW 1188   1.039   1.098   2.558
  384SOL    HW1 1189   0.969   1.051   2.612
  384SOL    HW2 1190   1.098   1.030   2.515
  385SOL     OW 1191   1.014   0.236   2.833
  385SOL    HW1 1192   1.006   0.200   2.740
  385SOL    HW2 1193   1.012   0.160   2.898
  386SOL     OW 1194   0.590   1.487   2.353
  386SOL    HW1 1195   0.632   1.429   2.283
  386SOL    HW2 1196   0.546   1.566   2.309
  387SOL     OW 1197   1.709   0.385   3.243
  387SOL    HW1 1198   1.782   0.454   3.247
  387SOL    HW2 1199   1.737   0.310   3.184
  388SOL     OW 1200   0.255   1.348   2.152
  388SOL    HW1 1201   0.159   1.349   2.125
  388SOL    HW2 1202   0.267   1.401   2.236
  389SOL     OW 1203   0.105   1.013   3.588
  389SOL    HW1 1204   0.028   0.980   3.642
  389SOL    HW2 1205   0.190   0.983   3.630
  390SOL     OW 1206   0.672   0.203   3.351
  390SOL    HW1 1207   0.762   0.187   3.311
  390SOL    HW2 1208   0.680   0.208   3.450
  391SOL     OW 1209   0.075   0.345   1.895
  391SOL    HW1 1210  -0.017   0.317   1.866
  391SOL    HW2 1211   0.106   0.422   1.839
  392SOL     OW 1212   1.440   0.856   3.260
  392SOL    HW1 1213   1.383   0.908   3.197
  392SOL    HW2 1214   1.536   0.868   3.236
  393SOL     OW 1215   0.072   0.166   2.180
  393SOL    HW1 1216   0.055   0.249   2.126
  393SOL    HW2 1217   0.162   0.129   2.158
  394SOL     OW 1218   1.183   1.335   1.981
  394SOL    HW1 1219   1.084   1.324   1.983
  394SOL    HW2 1220   1.217   1.350   2.074
  395SOL     OW 1221   0.613   0.842   3.293
  395SOL    HW1 1222   0.669   0.923   3.276
  395SOL    HW2 1223   0.672   0.762   3.296
  396SOL     OW 1224   1.493   1.767   2.821
  396SOL    HW1 1225   1.526   1.831   2.752
  396SOL    HW2 1226   1.559   1.761   2.896
  397SOL     OW 1227   0.716   0.565   3.570
  397SOL    HW1 1228   0.735   0.630   3.644
  397SOL    HW2 1229   0.776   0.485   3.579
  398SOL     OW 1230   1.450   1.220   3.495
  398SOL    HW1 1231   1.441   1.210   3.594
  398SOL    HW2 1232   1.546   1.213   3.469
  399SOL     OW 1233   0.390   1.741   3.422
  399SOL    HW1 1234   0.299   1.782   3.420
  399SOL    HW2 1235   0.383   1.647   3.454
  400SOL     OW 1236   1.674   0.883   3.116
  400SOL    HW1 1237   1.647   0.794   3.079
  400SOL    HW2 1238   1.675   0.951   3.043
  401SOL     OW 1239   1.225   0.325   2.311
  401SOL    HW1 1240   1.290   0.251   2.300
  401SOL    HW2 1241   1.245   0.375   2.395
  402SOL     OW 1242   0.594   0.745   2.514
  402SOL    HW1 1243   0.644   0.830   2.495
  402SOL    HW2 1244   0.506   0.747   2.466
  403SOL     OW 1245   1.777   0.342   3.504
  403SOL    HW1 1246   1.760   0.373   3.410
  403SOL    HW2 1247   1.693   0.305   3.542
  404SOL     OW 1248   1.730   0.934   3.379
  404SOL    HW1 1249   1.768   1.025   3.394
  404SOL    HW2 1250   1.722   0.917   3.280
  405SOL     OW 1251   0.859   1.374   1.878
  405SOL    HW1 1252   0.813   1.389   1.966
  405SOL    HW2 1253   0.903   1.459   1.848
  406SOL     OW 1254   0.661   1.790   2.815
  406SOL    HW1 1255   0.615   1.878   2.802
  406SOL    HW2 1256   0.760   1.802   2.808
  407SOL     OW 1257   0.859   0.956   2.723
  407SOL    HW1 1258   0.913   0.887   2.771
  407SOL    HW2 1259   0.827   1.025   2.789
  408SOL     OW 1260   1.083   0.984   1.949
  408SOL    HW1 1261   1.060   1.037   1.867
  408SOL    HW2 1262   1.164   0.928   1.930
  409SOL     OW 1263   1.861   1.569   2.713
  409SOL    HW1 1264   1.790   1.557   2.643
  409SOL    HW2 1265   1.862   1.490   2.773
  410SOL     OW 1266   0.221   1.314   3.706
  410SOL    HW1 1267   0.156   1.241   3.685
  410SOL    HW2 1268   0.225   1.328   3.804
  411SOL     OW 1269   0.079   1.240   2.515
  411SOL    HW1 1270   0.078   1.193   2.603
  411SOL    HW2 1271   0.161   1.212   2.464
  412SOL     OW 1272   0.672   1.391   3.486
  412SOL    HW1 1273   0.594   1.341   3.524
  412SOL    HW2 1274   0.669   1.486   3.517
  413SOL     OW 1275   1.824   0.192   3.089
  413SOL    HW1 1276   1.820   0.102   3.133
  413SOL    HW2 1277   1.827   0.181   2.990
  414SOL     OW 1278   0.428   0.424   2.382
  414SOL    HW1 1279   0.458   0.352   2.320
  414SOL    HW2 1280   0.389   0.384   2.465
  415SOL     OW 1281   1.705   1.487   2.966
  415SOL    HW1 1282   1.612   1.462   2.939
  415SOL    HW2 1283   1.731   1.437   3.048
  416SOL     OW 1284   0.317   0.547   3.142
  416SOL    HW1 1285   0.355   0.488   3.214
  416SOL    HW2 1286   0.357   0.521   3.054
  417SOL     OW 1287   0.812   1.586   2.549
  417SOL    HW1 1288   0.844   1.596   2.455
  417SOL    HW2 1289   0.733   1.524   2.551
  418SOL     OW 1290   1.424   0.214   2.974
  418SOL    HW1 1291   1.476   0.149   3.029
  418SOL    HW2 1292   1.375   0.277   3.035
  419SOL     OW 1293   1.001   0.034   3.016
  419SOL    HW1 1294   0.938  -0.038   2.985
  419SOL    HW2 1295   1.094  -0.002   3.016
  420SOL     OW 1296   0.770   1.330   2.163
  420SOL    HW1 1297   0.724   1.243   2.180
  420SOL    HW2 1298   0.861   1.327   2.204
  421SOL     OW 1299   0.618   1.567   3.146
  421SOL    HW1 1300   0.613   1.649   3.203
  421SOL    HW2 1301   0.707   1.564   3.101
  422SOL     OW 1302   1.352   0.052   2.030
  422SOL    HW1 1303   1.387   0.011   1.946
  422SOL    HW2 1304   1.262   0.014   2.050
  423SOL     OW 1305   1.300   0.453   2.553
  423SOL    HW1 1306   1.241   0.533   2.557
  423SOL    HW2 1307   1.315   0.418   2.646
  424SOL     OW 1308   1.593   0.221   2.744
  424SOL    HW1 1309   1.509   0.220   2.798
  424SOL    HW2 1310   1.595   0.304   2.688
  425SOL     OW 1311   0.039   1.077   2.162
  425SOL    HW1 1312   0.138   1.066   2.153
  425SOL    HW2 1313  -0.001   0.991   2.194
  426SOL     OW 1314   0.875   1.646   2.199
  426SOL    HW1 1315   0.798   1.611   2.145
  426SOL    HW2 1316   0.843   1.717   2.261
  427SOL     OW 1317   0.230   0.628   3.837
  427SOL    HW1 1318   0.137   0.626   3.874
  427SOL    HW2 1319   0.231   0.589   3.745
  428SOL     OW 1320   0.225   0.275   4.720
  428SOL    HW1 1321   0.260   0.258   4.812
  428SOL    HW2 1322   0.137   0.230   4.708
  429SOL     OW 1323   0.019   0.368   4.371
  429SOL    HW1 1324  -0.063   0.411   4.410
  429SOL    HW2 1325  -0.009   0.295   4.308
  430SOL     OW 1326   0.569   1.275   4.889
  430SOL    HW1 1327   0.476   1.268   4.852
  430SOL    HW2 1328   0.580   1.364   4.933
  431SOL     OW 1329   1.555   1.511   4.427
  431SOL    HW1 1330   1.498   1.495   4.508
  431SOL    HW2 1331   1.496   1.521   4.347
  432SOL     OW 1332   1.135   0.703   4.441
  432SOL    HW1 1333   1.192   0.781   4.416
  432SOL    HW2 1334   1.075   0.729   4.517
  433SOL     OW 1335   1.755   0.607   3.955
  433SOL    HW1 1336   1.743   0.594   3.856
  433SOL    HW2 1337   1.725   0.526   4.004
  434SOL     OW 1338   0.768   1.144   4.747
  434SOL    HW1 1339   0.690   1.161   4.807
  434SOL    HW2 1340   0.802   1.231   4.711
  435SOL     OW 1341   0.685   1.012   4.389
  435SOL    HW1 1342   0.754   0.996   4.459
  435SOL    HW2 1343   0.612   1.069   4.427
  436SOL     OW 1344   0.686   1.161   5.527
  436SOL    HW1 1345   0.746   1.240   5.541
  436SOL    HW2 1346   0.600   1.192   5.486
  437SOL     OW 1347   0.335   1.435   4.785
  437SOL    HW1 1348   0.257   1.404   4.732
  437SOL    HW2 1349   0.393   1.493   4.728
  438SOL     OW 1350   1.460   1.505   5.063
  438SOL    HW1 1351   1.484   1.599   5.089
  438SOL    HW2 1352   1.444   1.451   5.145
  439SOL     OW 1353   0.438   0.392   5.223
  439SOL    HW1 1354   0.520   0.336   5.232
  439SOL    HW2 1355   0.357   0.334   5.227
  440SOL     OW 1356   1.603   0.447   4.461
  440SOL    HW1 1357   1.529   0.493   4.411
  440SOL    HW2 1358   1.654   0.515   4.514
  441SOL     OW 1359   0.231   1.713   4.207
  441SOL    HW1 1360   0.265   1.790   4.261
  441SOL    HW2 1361   0.275   1.713   4.117
  442SOL     OW 1362   0.230   1.434   4.262
  442SOL    HW1 1363   0.204   1.530   4.262
  442SOL    HW2 1364   0.159   1.380   4.307
  443SOL     OW 1365   0.240   1.091   4.610
  443SOL    HW1 1366   0.254   1.007   4.662
  443SOL    HW2 1367   0.185   1.155   4.665
  444SOL     OW 1368   0.620   1.786   5.163
  444SOL    HW1 1369   0.528   1.769   5.198
  444SOL    HW2 1370   0.648   1.878   5.189
  445SOL     OW 1371   0.606   0.964   3.847
  445SOL    HW1 1372   0.613   1.048   3.793
  445SOL    HW2 1373   0.652   0.977   3.935
  446SOL     OW 1374   1.594   0.114   5.204
  446SOL    HW1 1375   1.576   0.181   5.132
  446SOL    HW2 1376   1.591   0.160   5.293
  447SOL     OW 1377   0.122   0.643   4.287
  447SOL    HW1 1378   0.077   0.555   4.304
  447SOL    HW2 1379   0.121   0.697   4.371
  448SOL     OW 1380   1.842   1.767   4.083
  448SOL    HW1 1381   1.896   1.738   4.163
  448SOL    HW2 1382   1.872   1.857   4.054
  449SOL     OW 1383   0.027   1.596   3.841
  449SOL    HW1 1384   0.008   1.500   3.862
  449SOL    HW2 1385  -0.006   1.654   3.916
  450SOL     OW 1386   1.689   0.922   4.336
  450SOL    HW1 1387   1.784   0.893   4.344
  450SOL    HW2 1388   1.681   0.987   4.261
  451SOL     OW 1389   1.641   1.108   4.156
  451SOL    HW1 1390   1.727   1.110   4.104
  451SOL    HW2 1391   1.655   1.155   4.244
  452SOL     OW 1392   0.113   0.737   5.321
  452SOL    HW1 1393   0.201   0.724   5.366
  452SOL    HW2 1394   0.100   0.834   5.299
  453SOL     OW 1395   0.613   1.365   4.450
  453SOL    HW1 1396   0.564   1.278   4.459
  453SOL    HW2 1397   0.590   1.408   4.363
  454SOL     OW 1398   1.293   1.228   5.147
  454SOL    HW1 1399   1.330   1.155   5.089
  454SOL    HW2 1400   1.345   1.233   5.232
  455SOL     OW 1401   0.809   0.004   4.226
  455SOL    HW1 1402   0.849   0.095   4.217
  455SOL    HW2 1403   0.709   0.012   4.232
  456SOL     OW 1404   0.197   0.976   4.988
  456SOL    HW1 1405   0.286   0.931   4.974
  456SOL    HW2 1406   0.124   0.911   4.969
  457SOL     OW 1407   1.525   0.999   3.914
  457SOL    HW1 1408   1.462   0.923   3.927
  457SOL    HW2 1409   1.573   1.017   4.000
  458SOL     OW 1410   1.466   1.417   4.677
  458SOL    HW1 1411   1.407   1.423   4.757
  458SOL    HW2 1412   1.451   1.329   4.631
  459SOL     OW 1413   1.667   1.714   4.296
  459SOL    HW1 1414   1.626   1.691   4.208
  459SOL    HW2 1415   1.649   1.640   4.361
  460SOL     OW 1416   0.598   0.729   3.994
  460SOL    HW1 1417   0.622   0.798   3.926
  460SOL    HW2 1418   0.520   0.762   4.048
  461SOL     OW 1419   1.281   0.345   4.668
  461SOL    HW1 1420   1.195   0.295   4.655
  461SOL    HW2 1421   1.343   0.291   4.724
  462SOL     OW 1422   1.576   1.662   4.031
  462SOL    HW1 1423   1.665   1.708   4.034
  462SOL    HW2 1424   1.555   1.638   3.936
  463SOL     OW 1425   0.807   0.605   5.189
  463SOL    HW1 1426   0.760   0.602   5.278
  463SOL    HW2 1427   0.756   0.550   5.123
  464SOL     OW 1428   0.973   0.890   5.296
  464SOL    HW1 1429   1.019   0.806   5.267
  464SOL    HW2 1430   0.917   0.924   5.221
  465SOL     OW 1431   0.991   0.410   4.966
  465SOL    HW1 1432   0.914   0.444   5.020
  465SOL    HW2 1433   0.957   0.359   4.887
  466SOL     OW 1434   1.041   0.701   4.153
  466SOL    HW1 1435   1.067   0.697   4.249
  466SOL    HW2 1436   0.956   0.650   4.139
  467SOL     OW 1437   0.076   0.811   4.513
  467SOL    HW1 1438   0.175   0.799   4.522
  467SOL    HW2 1439   0.052   0.906   4.534
  468SOL     OW 1440   0.130   1.821   5.295
  468SOL    HW1 1441   0.120   1.806   5.394
  468SOL    HW2 1442   0.044   1.857   5.259
  469SOL     OW 1443   0.865   0.348   3.919
  469SOL    HW1 1444   0.924   0.411   3.870
  469SOL    HW2 1445   0.884   0.254   3.890
  470SOL     OW 1446   1.362   1.144   4.269
  470SOL    HW1 1447   1.445   1.115   4.221
  470SOL    HW2 1448   1.313   1.211   4.213
  471SOL     OW 1449   0.550   0.196   4.609
  471SOL    HW1 1450   0.545   0.191   4.709
  471SOL    HW2 1451   0.552   0.292   4.580
  472SOL     OW 1452   1.008   1.456   4.201
  472SOL    HW1 1453   0.962   1.528   4.149
  472SOL    HW2 1454   1.004   1.476   4.299
  473SOL     OW 1455   0.351   1.801   4.577
  473SOL    HW1 1456   0.401   1.715   4.583
  473SOL    HW2 1457   0.416   1.878   4.574
  474SOL     OW 1458   1.795   1.066   4.597
  474SOL    HW1 1459   1.733   1.051   4.521
  474SOL    HW2 1460   1.743   1.077   4.682
  475SOL     OW 1461   0.321   0.943   3.966
  475SOL    HW1 1462   0.403   0.982   3.924
  475SOL    HW2 1463   0.294   0.861   3.917
  476SOL     OW 1464   1.458   0.735   4.452
  476SOL    HW1 1465   1.453   0.670   4.527
  476SOL    HW2 1466   1.538   0.794   4.465
  477SOL     OW 1467   1.111   1.776   3.961
  477SOL    HW1 1468   1.051   1.714   4.011
  477SOL    HW2 1469   1.142   1.732   3.876
  478SOL     OW 1470   0.202   0.285   5.222
  478SOL    HW1 1471   0.122   0.345   5.209
  478SOL    HW2 1472   0.192   0.236   5.308
  479SOL     OW 1473   1.632   1.377   3.805
  479SOL    HW1 1474   1.600   1.471   3.795
  479SOL    HW2 1475   1.556   1.314   3.793
  480SOL     OW 1476   0.464   1.743   4.047
  480SOL    HW1 1477   0.497   1.782   4.133
  480SOL    HW2 1478   0.540   1.736   3.982
  481SOL     OW 1479   1.400   0.107   4.150
  481SOL    HW1 1480   1.376   0.070   4.060
  481SOL    HW2 1481   1.499   0.123   4.154
  482SOL     OW 1482   0.249   1.785   4.965
  482SOL    HW1 1483   0.306   1.720   5.015
  482SOL    HW2 1484   0.233   1.752   4.872
  483SOL     OW 1485   0.940   1.698   4.628
  483SOL    HW1 1486   1.020   1.641   4.649
  483SOL    HW2 1487   0.891   1.658   4.551
  484SOL     OW 1488   0.382   0.700   4.204
  484SOL    HW1 1489   0.427   0.610   4.201
  484SOL    HW2 1490   0.288   0.689   4.237
  485SOL     OW 1491   0.614   0.122   3.841
  485SOL    HW1 1492   0.712   0.100   3.848
  485SOL    HW2 1493   0.583   0.105   3.748
  486SOL     OW 1494   0.888   1.514   4.919
  486SOL    HW1 1495   0.865   1.489   4.825
  486SOL    HW2 1496   0.949   1.445   4.958
  487SOL     OW 1497   1.351   0.590   5.157
  487SOL    HW1 1498   1.379   0.547   5.242
  487SOL    HW2 1499   1.376   0.686   5.158
  488SOL     OW 1500   0.803   1.402   4.648
  488SOL    HW1 1501   0.893   1.416   4.606
  488SOL    HW2 1502   0.732   1.404   4.577
  489SOL     OW 1503   0.922   0.503   4.623
  489SOL    HW1 1504   0.897   0.494   4.527
  489SOL    HW2 1505   0.970   0.421   4.654
  490SOL     OW 1506   0.539   0.064   4.236
  490SOL    HW1 1507   0.458   0.065   4.294
  490SOL    HW2 1508   0.542   0.147   4.181
  491SOL     OW 1509   1.434   1.188   3.765
  491SOL    HW1 1510   1.466   1.112   3.822
  491SOL    HW2 1511   1.342   1.215   3.795
  492SOL     OW 1512   0.297   0.035   3.895
  492SOL    HW1 1513   0.346   0.119   3.874
  492SOL    HW2 1514   0.359  -0.030   3.940
  493SOL     OW 1515   0.935   0.236   4.204
  493SOL    HW1 1516   0.887   0.277   4.126
  493SOL    HW2 1517   1.034   0.234   4.185
  494SOL     OW 1518   1.076   0.683   5.188
  494SOL    HW1 1519   0.996   0.622   5.191
  494SOL    HW2 1520   1.157   0.630   5.164
  495SOL     OW 1521   1.227   1.570   4.517
  495SOL    HW1 1522   1.248   1.644   4.452
  495SOL    HW2 1523   1.295   1.570   4.590
  496SOL     OW 1524   0.459   1.152   4.465
  496SOL    HW1 1525   0.388   1.125   4.530
  496SOL    HW2 1526   0.433   1.124   4.372
  497SOL     OW 1527   1.271   1.797   4.315
  497SOL    HW1 1528   1.315   1.861   4.251
  497SOL    HW2 1529   1.221   1.849   4.385
  498SOL     OW 1530   1.032   0.549   3.740
  498SOL    HW1 1531   0.991   0.631   3.701
  498SOL    HW2 1532   1.096   0.575   3.813
  499SOL     OW 1533   0.078   0.556   5.110
  499SOL    HW1 1534   0.170   0.555   5.069
  499SOL    HW2 1535   0.072   0.630   5.177
  500SOL     OW 1536   0.561   0.222   4.871
  500SOL    HW1 1537   0.599   0.138   4.908
  500SOL    HW2 1538   0.473   0.241   4.915
  501SOL     OW 1539   0.866   0.454   4.366
  501SOL    HW1 1540   0.834   0.526   4.304
  501SOL    HW2 1541   0.890   0.373   4.313
  502SOL     OW 1542   1.017   0.039   4.477
  502SOL    HW1 1543   0.945   0.044   4.408
  502SOL    HW2 1544   0.993  -0.030   4.546
  503SOL     OW 1545   1.429   1.173   4.591
  503SOL    HW1 1546   1.374   1.089   4.584
  503SOL    HW2 1547   1.455   1.202   4.499
  504SOL     OW 1548   1.466   0.590   4.716
  504SOL    HW1 1549   1.436   0.495   4.723
  504SOL    HW2 1550   1.539   0.606   4.782
  505SOL     OW 1551   1.857   0.833   4.101
  505SOL    HW1 1552   1.899   0.769   4.165
  505SOL    HW2 1553   1.819   0.782   4.023
  506SOL     OW 1554   0.488   1.385   3.898
  506SOL    HW1 1555   0.401   1.370   3.945
  506SOL    HW2 1556   0.471   1.411   3.803
  507SOL     OW 1557   1.664   1.280   4.381
  507SOL    HW1 1558   1.763   1.288   4.395
  507SOL    HW2 1559   1.619   1.364   4.412
  508SOL     OW 1560   1.390   0.575   3.802
  508SOL    HW1 1561   1.336   0.554   3.883
  508SOL    HW2 1562   1.481   0.534   3.811
  509SOL     OW 1563   0.527   0.256   4.052
  509SOL    HW1 1564   0.554   0.197   3.977
  509SOL    HW2 1565   0.527   0.351   4.021
  510SOL     OW 1566   1.754   1.223   5.312
  510SOL    HW1 1567   1.845   1.184   5.299
  510SOL    HW2 1568   1.762   1.319   5.336
  511SOL     OW 1569   1.064   1.347   5.064
  511SOL    HW1 1570   0.984   1.324   5.119
  511SOL    HW2 1571   1.147   1.321   5.113
  512SOL     OW 1572   1.111   1.195   4.824
  512SOL    HW1 1573   1.071   1.239   4.905
  512SOL    HW2 1574   1.070   1.232   4.741
  513SOL     OW 1575   1.638   1.099   4.803
  513SOL    HW1 1576   1.643   1.180   4.862
  513SOL    HW2 1577   1.552   1.101   4.752
  514SOL     OW 1578   0.915   0.089   5.126
  514SOL    HW1 1579   0.940   0.069   5.031
  514SOL    HW2 1580   0.987   0.145   5.168
  515SOL     OW 1581   0.705   1.050   4.092
  515SOL    HW1 1582   0.691   1.057   4.191
  515SOL    HW2 1583   0.789   0.999   4.074
  516SOL     OW 1584   0.410   0.813   4.975
  516SOL    HW1 1585   0.496   0.825   5.025
  516SOL    HW2 1586   0.368   0.726   5.002
  517SOL     OW 1587   1.274   0.386   4.986
  517SOL    HW1 1588   1.295   0.460   5.050
  517SOL    HW2 1589   1.185   0.403   4.943
  518SOL     OW 1590   0.064   1.564   5.055
  518SOL    HW1 1591   0.018   1.646   5.021
  518SOL    HW2 1592   0.162   1.583   5.064
  519SOL     OW 1593   0.367   1.100   4.225
  519SOL    HW1 1594   0.360   1.183   4.169
  519SOL    HW2 1595   0.371   1.020   4.165
  520SOL     OW 1596   0.566   0.537   4.589
  520SOL    HW1 1597   0.578   0.603   4.515
  520SOL    HW2 1598   0.612   0.571   4.672
  521SOL     OW 1599   1.252   1.348   4.112
  521SOL    HW1 1600   1.302   1.425   4.152
  521SOL    HW2 1601   1.157   1.350   4.144
  522SOL     OW 1602   1.272   1.445   4.866
  522SOL    HW1 1603   1.319   1.458   4.953
  522SOL    HW2 1604   1.206   1.371   4.875
  523SOL     OW 1605   1.582   0.639   4.196
  523SOL    HW1 1606   1.551   0.700   4.269
  523SOL    HW2 1607   1.632   0.691   4.127
  524SOL     OW 1608   0.354   1.510   5.053
  524SOL    HW1 1609   0.333   1.466   4.966
  524SOL    HW2 1610   0.451   1.536   5.056
  525SOL     OW 1611   0.402   0.751   5.322
  525SOL    HW1 1612   0.470   0.806   5.275
  525SOL    HW2 1613   0.442   0.663   5.349
  526SOL     OW 1614   1.587   0.779   5.394
  526SOL    HW1 1615   1.495   0.817   5.389
  526SOL    HW2 1616   1.647   0.826   5.329
  527SOL     OW 1617   0.573   0.870   4.753
  527SOL    HW1 1618   0.617   0.959   4.744
  527SOL    HW2 1619   0.510   0.870   4.830
  528SOL     OW 1620   1.360   0.862   4.769
  528SOL    HW1 1621   1.285   0.862   4.703
  528SOL    HW2 1622   1.397   0.770   4.778
  529SOL     OW 1623   1.209   0.525   3.999
  529SOL    HW1 1624   1.222   0.441   4.053
  529SOL    HW2 1625   1.180   0.599   4.059
  530SOL     OW 1626   0.307   0.213   4.955
  530SOL    HW1 1627   0.284   0.250   5.045
  530SOL    HW2 1628   0.277   0.118   4.949
  531SOL     OW 1629   0.037   1.310   5.006
  531SOL    HW1 1630   0.090   1.261   5.074
  531SOL    HW2 1631   0.059   1.408   5.011
  532SOL     OW 1632   0.732   0.634   4.788
  532SOL    HW1 1633   0.791   0.608   4.712
  532SOL    HW2 1634   0.704   0.730   4.777
  533SOL     OW 1635   0.307   0.063   4.342
  533SOL    HW1 1636   0.296   0.157   4.375
  533SOL    HW2 1637   0.302   0.000   4.419
  534SOL     OW 1638   1.622   0.367   4.098
  534SOL    HW1 1639   1.624   0.291   4.162
  534SOL    HW2 1640   1.574   0.444   4.138
  535SOL     OW 1641   1.023   0.766   4.690
  535SOL    HW1 1642   1.038   0.787   4.786
  535SOL    HW2 1643   0.993   0.671   4.681
  536SOL     OW 1644   1.540   0.274   3.849
  536SOL    HW1 1645   1.479   0.199   3.872
  536SOL    HW2 1646   1.562   0.326   3.932
  537SOL     OW 1647   1.303   0.838   3.766
  537SOL    HW1 1648   1.337   0.745   3.781
  537SOL    HW2 1649   1.321   0.865   3.671
  538SOL     OW 1650   1.068   1.333   4.573
  538SOL    HW1 1651   1.075   1.249   4.518
  538SOL    HW2 1652   1.130   1.402   4.537
  539SOL     OW 1653   0.319   0.810   4.673
  539SOL    HW1 1654   0.412   0.846   4.678
  539SOL    HW2 1655   0.313   0.725   4.725
  540SOL     OW 1656   0.339   0.509   4.730
  540SOL    HW1 1657   0.287   0.426   4.713
  540SOL    HW2 1658   0.416   0.514   4.666
  541SOL     OW 1659   1.160   0.207   5.201
  541SOL    HW1 1660   1.160   0.271   5.278
  541SOL    HW2 1661   1.188   0.255   5.118
  542SOL     OW 1662   0.008   1.326   3.924
  542SOL    HW1 1663  -0.085   1.347   3.893
  542SOL    HW2 1664   0.018   1.227   3.937
  543SOL     OW 1665   0.088   1.801   4.651
  543SOL    HW1 1666   0.046   1.715   4.624
  543SOL    HW2 1667   0.182   1.804   4.617
  544SOL     OW 1668   0.504   1.568   4.634
  544SOL    HW1 1669   0.570   1.642   4.643
  544SOL    HW2 1670   0.548   1.489   4.592
  545SOL     OW 1671   1.002   0.796   4.962
  545SOL    HW1 1672   1.043   0.764   5.048
  545SOL    HW2 1673   0.906   0.769   4.959
  546SOL     OW 1674   0.040   0.544   4.838
  546SOL    HW1 1675   0.125   0.511   4.797
  546SOL    HW2 1676   0.053   0.559   4.936
  547SOL     OW 1677   0.815   0.572   4.049
  547SOL    HW1 1678   0.822   0.483   4.003
  547SOL    HW2 1679   0.721   0.606   4.041
  548SOL     OW 1680   1.657   0.604   4.930
  548SOL    HW1 1681   1.619   0.535   4.992
  548SOL    HW2 1682   1.739   0.568   4.886
  549SOL     OW 1683   0.252   1.564   5.468
  549SOL    HW1 1684   0.222   1.621   5.544
  549SOL    HW2 1685   0.245   1.467   5.494
  550SOL     OW 1686   0.671   0.464   4.993
  550SOL    HW1 1687   0.637   0.375   4.963
  550SOL    HW2 1688   0.697   0.518   4.913
  551SOL     OW 1689   0.930   1.678   5.189
  551SOL    HW1 1690   0.906   1.660   5.094
  551SOL    HW2 1691   0.960   1.772   5.199
  552SOL     OW 1692   0.473   0.500   3.915
  552SOL    HW1 1693   0.534   0.580   3.919
  552SOL    HW2 1694   0.378   0.531   3.922
  553SOL     OW 1695   0.159   1.137   5.190
  553SOL    HW1 1696   0.181   1.076   5.266
  553SOL    HW2 1697   0.169   1.088   5.104
  554SOL     OW 1698   1.347   1.059   4.958
  554SOL    HW1 1699   1.371   0.996   4.884
  554SOL    HW2 1700   1.257   1.099   4.940
  555SOL     OW 1701   1.302   0.855   4.033
  555SOL    HW1 1702   1.216   0.824   4.075
  555SOL    HW2 1703   1.298   0.841   3.934
  556SOL     OW 1704   1.759   1.747   4.878
  556SOL    HW1 1705   1.820   1.777   4.805
  556SOL    HW2 1706   1.721   1.658   4.856
  557SOL     OW 1707   1.252   1.731   4.852
  557SOL    HW1 1708   1.336   1.736   4.798
  557SOL    HW2 1709   1.229   1.635   4.870
  558SOL     OW 1710   0.083   1.258   4.746
  558SOL    HW1 1711   0.078   1.257   4.846
  558SOL    HW2 1712   0.000   1.217   4.708
  559SOL     OW 1713   1.726   0.135   4.247
  559SOL    HW1 1714   1.799   0.118   4.180
  559SOL    HW2 1715   1.695   0.048   4.285
  560SOL     OW 1716   1.388   1.573   4.201
  560SOL    HW1 1717   1.455   1.585   4.127
  560SOL    HW2 1718   1.348   1.662   4.224
  561SOL     OW 1719   1.280   0.927   4.396
  561SOL    HW1 1720   1.340   0.846   4.398
  561SOL    HW2 1721   1.320   0.996   4.336
  562SOL     OW 1722   0.830   1.273   5.146
  562SOL    HW1 1723   0.825   1.306   5.241
  562SOL    HW2 1724   0.744   1.292   5.100
  563SOL     OW 1725   0.672   1.616   3.878
  563SOL    HW1 1726   0.681   1.626   3.779
  563SOL    HW2 1727   0.632   1.527   3.899
  564SOL     OW 1728   1.650   1.720   5.118
  564SOL    HW1 1729   1.703   1.730   5.034
  564SOL    HW2 1730   1.623   1.810   5.152
  565SOL     OW 1731   1.841   0.175   4.687
  565SOL    HW1 1732   1.880   0.090   4.651
  565SOL    HW2 1733   1.743   0.177   4.668
  566SOL     OW 1734   0.263   0.326   4.444
  566SOL    HW1 1735   0.184   0.377   4.410
  566SOL    HW2 1736   0.254   0.311   4.542
  567SOL     OW 1737   1.194   1.612   3.755
  567SOL    HW1 1738   1.200   1.519   3.792
  567SOL    HW2 1739   1.135   1.612   3.675
  568SOL     OW 1740   0.822   1.002   5.096
  568SOL    HW1 1741   0.862   1.001   5.004
  568SOL    HW2 1742   0.832   1.094   5.136
  569SOL     OW 1743   0.916   0.910   4.015
  569SOL    HW1 1744   0.979   0.948   3.947
  569SOL    HW2 1745   0.956   0.827   4.054
  570SOL     OW 1746   1.504   1.607   3.768
  570SOL    HW1 1747   1.412   1.644   3.775
  570SOL    HW2 1748   1.542   1.627   3.678
  571SOL     OW 1749   0.372   1.288   5.214
  571SOL    HW1 1750   0.359   1.381   5.180
  571SOL    HW2 1751   0.288   1.236   5.201
  572SOL     OW 1752   1.614   1.292   5.013
  572SOL    HW1 1753   1.674   1.295   5.093
  572SOL    HW2 1754   1.539   1.356   5.026
  573SOL     OW 1755   1.039   1.098   4.420
  573SOL    HW1 1756   0.969   1.051   4.474
  573SOL    HW2 1757   1.098   1.030   4.377
  574SOL     OW 1758   1.014   0.236   4.695
  574SOL    HW1 1759   1.006   0.200   4.602
  574SOL    HW2 1760   1.012   0.160   4.760
  575SOL     OW 1761   0.590   1.487   4.215
  575SOL    HW1 1762   0.632   1.429   4.145
  575SOL    HW2 1763   0.546   1.566   4.171
  576SOL     OW 1764   1.709   0.385   5.105
  576SOL    HW1 1765   1.782   0.454   5.109
  576SOL    HW2 1766   1.737   0.310   5.046
  577SOL     OW 1767   0.255   1.348   4.014
  577SOL    HW1 1768   0.159   1.349   3.987
  577SOL    HW2 1769   0.267   1.401   4.098
  578SOL     OW 1770   0.105   1.013   5.450
  578SOL    HW1 1771   0.028   0.980   5.504
  578SOL    HW2 1772   0.190   0.983   5.492
  579SOL     OW 1773   0.672   0.203   5.213
  579SOL    HW1 1774   0.762   0.187   5.173
  579SOL    HW2 1775   0.680   0.208   5.312
  580SOL     OW 1776   0.075   0.345   3.757
  580SOL    HW1 1777  -0.017   0.317   3.728
  580SOL    HW2 1778   0.106   0.422   3.701
  581SOL     OW 1779   1.440   0.856   5.122
  581SOL    HW1 1780   1.383   0.908   5.059
  581SOL    HW2 1781   1.536   0.868   5.098
  582SOL     OW 1782   0.072   0.166   4.042
  582SOL    HW1 1783   0.055   0.249   3.988
  582SOL    HW2 1784   0.162   0.129   4.020
  583SOL     OW 1785   1.183   1.335   3.843
  583SOL    HW1 1786   1.084   1.324   3.845
  583SOL    HW2 1787   1.217   1.350   3.936
  584SOL     OW 1788   0.613   0.842   5.155
  584SOL    HW1 1789   0.669   0.923   5.138
  584SOL    HW2 1790   0.672   0.762   5.158
  585SOL     OW 1791   1.493   1.767   4.683
  585SOL    HW1 1792   1.526   1.831   4.614
  585SOL    HW2 1793   1.559   1.761   4.758
  586SOL     OW 1794   0.716   0.565   5.432
  586SOL    HW1 1795   0.735   0.630   5.506
  586SOL    HW2 1796   0.776   0.485   5.441
  587SOL     OW 1797   0.390   1.741   5.284
  587SOL    HW1 1798   0.299   1.782   5.282
  587SOL    HW2 1799   0.383   1.647   5.316
  588SOL     OW 1800   1.674   0.883   4.978
  588SOL    HW1 1801   1.647   0.794   4.941
  588SOL    HW2 1802   1.675   0.951   4.905
  589SOL     OW 1803   1.225   0.325   4.173
  589SOL    HW1 1804   1.290   0.251   4.162
  589SOL    HW2 1805   1.245   0.375   4.257
  590SOL     OW 1806   0.594   0.745   4.376
  590SOL    HW1 1807   0.644   0.830   4.357
  590SOL    HW2 1808   0.506   0.747   4.328
  591SOL     OW 1809   1.777   0.342   5.366
  591SOL    HW1 1810   1.760   0.373   5.272
  591SOL    HW2 1811   1.693   0.305   5.404
  592SOL     OW 1812   1.730   0.934   5.241
  592SOL    HW1 1813   1.768   1.025   5.256
  592SOL    HW2 1814   1.722   0.917   5.142
  593SOL     OW 1815   0.859   1.374   3.740
  593SOL    HW1 1816   0.813   1.389   3.828
  593SOL    HW2 1817   0.903   1.459   3.710
  594SOL     OW 1818   0.661   1.790   4.677
  594SOL    HW1 1819   0.615   1.878   4.664
  594SOL    HW2 1820   0.760   1.802   4.670
  595SOL     OW 1821   0.859   0.956   4.585
  595SOL    HW1 1822   0.913   0.887   4.633
  595SOL    HW2 1823   0.827   1.025   4.651
  596SOL     OW 1824   1.083   0.984   3.811
  596SOL    HW1 1825   1.060   1.037   3.729
  596SOL    HW2 1826   1.164   0.928   3.792
  597SOL     OW 1827   1.861   1.569   4.575
  597SOL    HW1 1828   1.790   1.557   4.505
  597SOL    HW2 1829   1.862   1.490   4.635
  598SOL     OW 1830   0.079   1.240   4.377
  598SOL    HW1 1831   0.078   1.193   4.465
  598SOL    HW2 1832   0.161   1.212   4.326
  599SOL     OW 1833   0.672   1.391   5.348
  599SOL    HW1 1834   0.594   1.341   5.386
  599SOL    HW2 1835   0.669   1.486   5.379
  600SOL     OW 1836   1.824   0.192   4.951
  600SOL    HW1 1837   1.820   0.102   4.995
  600SOL    HW2 1838   1.827   0.181   4.852
  601SOL     OW 1839   0.428   0.424   4.244
  601SOL    HW1 1840   0.458   0.352   4.182
  601SOL    HW2 1841   0.389   0.384   4.327
  602SOL     OW 1842   1.705   1.487   4.828
  602SOL    HW1 1843   1.612   1.462   4.801
  602SOL    HW2 1844   1.731   1.437   4.910
  603SOL     OW 1845   0.317   0.547   5.004
  603SOL    HW1 1846   0.355   0.488   5.076
  603SOL    HW2 1847   0.357   0.521   4.916
  604SOL     OW 1848   0.812   1.586   4.411
  604SOL    HW1 1849   0.844   1.596   4.317
  604SOL    HW2 1850   0.733   1.524   4.413
  605SOL     OW 1851   1.424   0.214   4.836
  605SOL    HW1 1852   1.476   0.149   4.891
  605SOL    HW2 1853   1.375   0.277   4.897
  606SOL     OW 1854   1.001   0.034   4.878
  606SOL    HW1 1855   0.938  -0.038   4.847
  606SOL    HW2 1856   1.094  -0.002   4.878
  607SOL     OW 1857   0.770   1.330   4.025
  607SOL    HW1 1858   0.724   1.243   4.042
  607SOL    HW2 1859   0.861   1.327   4.066
  608SOL     OW 1860   0.618   1.567   5.008
  608SOL    HW1 1861   0.613   1.649   5.065
  608SOL    HW2 1862   0.707   1.564   4.963
  609SOL     OW 1863   1.352   0.052   3.892
  609SOL    HW1 1864   1.387   0.011   3.808
  609SOL    HW2 1865   1.262   0.014   3.912
  610SOL     OW 1866   1.300   0.453   4.415
  610SOL    HW1 1867   1.241   0.533   4.419
  610SOL    HW2 1868   1.315   0.418   4.508
  611SOL     OW 1869   1.593   0.221   4.606
  611SOL    HW1 1870   1.509   0.220   4.660
  611SOL    HW2 1871   1.595   0.304   4.550
  612SOL     OW 1872   0.039   1.077   4.024
  612SOL    HW1 1873   0.138   1.066   4.015
  612SOL    HW2 1874  -0.001   0.991   4.056
  613SOL     OW 1875   0.875   1.646   4.061
  613SOL    HW1 1876   0.798   1.611   4.007
  613SOL    HW2 1877   0.843   1.717   4.123
  614SOL     OW 1878   0.230   2.490   0.113
  614SOL    HW1 1879   0.137   2.488   0.150
  614SOL    HW2 1880   0.231   2.451   0.021
  615SOL     OW 1881   0.225   2.137   0.996
  615SOL    HW1 1882   0.260   2.120   1.088
  615SOL    HW2 1883   0.137   2.092   0.984
  616SOL     OW 1884   0.019   2.230   0.647
  616SOL    HW1 1885  -0.063   2.273   0.686
  616SOL    HW2 1886  -0.009   2.157   0.584
  617SOL     OW 1887   0.569   3.137   1.165
  617SOL    HW1 1888   0.476   3.130   1.128
  617SOL    HW2 1889   0.580   3.226   1.209
  618SOL     OW 1890   1.555   3.373   0.703
  618SOL    HW1 1891   1.498   3.357   0.784
  618SOL    HW2 1892   1.496   3.383   0.623
  619SOL     OW 1893   1.135   2.565   0.717
  619SOL    HW1 1894   1.192   2.643   0.692
  619SOL    HW2 1895   1.075   2.591   0.793
  620SOL     OW 1896   1.755   2.469   0.231
  620SOL    HW1 1897   1.743   2.456   0.132
  620SOL    HW2 1898   1.725   2.388   0.280
  621SOL     OW 1899   0.768   3.006   1.023
  621SOL    HW1 1900   0.690   3.023   1.083
  621SOL    HW2 1901   0.802   3.093   0.987
  622SOL     OW 1902   0.850   2.660   1.823
  622SOL    HW1 1903   0.846   2.736   1.888
  622SOL    HW2 1904   0.872   2.696   1.732
  623SOL     OW 1905   0.685   2.874   0.665
  623SOL    HW1 1906   0.754   2.858   0.735
  623SOL    HW2 1907   0.612   2.931   0.703
  624SOL     OW 1908   0.686   3.023   1.803
  624SOL    HW1 1909   0.746   3.102   1.817
  624SOL    HW2 1910   0.600   3.054   1.762
  625SOL     OW 1911   0.335   3.297   1.061
  625SOL    HW1 1912   0.257   3.266   1.008
  625SOL    HW2 1913   0.393   3.355   1.004
  626SOL     OW 1914   1.460   3.367   1.339
  626SOL    HW1 1915   1.484   3.461   1.365
  626SOL    HW2 1916   1.444   3.313   1.421
  627SOL     OW 1917   0.438   2.254   1.499
  627SOL    HW1 1918   0.520   2.198   1.508
  627SOL    HW2 1919   0.357   2.196   1.503
  628SOL     OW 1920   1.603   2.309   0.737
  628SOL    HW1 1921   1.529   2.355   0.687
  628SOL    HW2 1922   1.654   2.377   0.790
  629SOL     OW 1923   0.231   3.575   0.483
  629SOL    HW1 1924   0.265   3.652   0.537
  629SOL    HW2 1925   0.275   3.575   0.393
  630SOL     OW 1926   1.127   3.203   1.690
  630SOL    HW1 1927   1.174   3.203   1.778
  630SOL    HW2 1928   1.079   3.116   1.679
  631SOL     OW 1929   0.230   3.296   0.538
  631SOL    HW1 1930   0.204   3.392   0.538
  631SOL    HW2 1931   0.159   3.242   0.583
  632SOL     OW 1932   0.240   2.953   0.886
  632SOL    HW1 1933   0.254   2.869   0.938
  632SOL    HW2 1934   0.185   3.017   0.941
  633SOL     OW 1935   0.620   3.648   1.439
  633SOL    HW1 1936   0.528   3.631   1.474
  633SOL    HW2 1937   0.648   3.740   1.465
  634SOL     OW 1938   0.606   2.826   0.123
  634SOL    HW1 1939   0.613   2.910   0.069
  634SOL    HW2 1940   0.652   2.839   0.211
  635SOL     OW 1941   1.594   1.976   1.480
  635SOL    HW1 1942   1.576   2.043   1.408
  635SOL    HW2 1943   1.591   2.022   1.569
  636SOL     OW 1944   0.122   2.505   0.563
  636SOL    HW1 1945   0.077   2.417   0.580
  636SOL    HW2 1946   0.121   2.559   0.647
  637SOL     OW 1947   1.842   3.629   0.359
  637SOL    HW1 1948   1.896   3.600   0.439
  637SOL    HW2 1949   1.872   3.719   0.330
  638SOL     OW 1950   0.027   3.458   0.117
  638SOL    HW1 1951   0.008   3.362   0.138
  638SOL    HW2 1952  -0.006   3.516   0.192
  639SOL     OW 1953   1.689   2.784   0.612
  639SOL    HW1 1954   1.784   2.755   0.620
  639SOL    HW2 1955   1.681   2.849   0.537
  640SOL     OW 1956   1.641   2.970   0.432
  640SOL    HW1 1957   1.727   2.972   0.380
  640SOL    HW2 1958   1.655   3.017   0.520
  641SOL     OW 1959   0.113   2.599   1.597
  641SOL    HW1 1960   0.201   2.586   1.642
  641SOL    HW2 1961   0.100   2.696   1.575
  642SOL     OW 1962   0.613   3.227   0.726
  642SOL    HW1 1963   0.564   3.140   0.735
  642SOL    HW2 1964   0.590   3.270   0.639
  643SOL     OW 1965   1.293   3.090   1.423
  643SOL    HW1 1966   1.330   3.017   1.365
  643SOL    HW2 1967   1.345   3.095   1.508
  644SOL     OW 1968   0.809   1.866   0.502
  644SOL    HW1 1969   0.849   1.957   0.493
  644SOL    HW2 1970   0.709   1.874   0.508
  645SOL     OW 1971   0.197   2.838   1.264
  645SOL    HW1 1972   0.286   2.793   1.250
  645SOL    HW2 1973   0.124   2.773   1.245
  646SOL     OW 1974   1.525   2.861   0.190
  646SOL    HW1 1975   1.462   2.785   0.203
  646SOL    HW2 1976   1.573   2.879   0.276
  647SOL     OW 1977   1.187   3.654   1.616
  647SOL    HW1 1978   1.211   3.714   1.540
  647SOL    HW2 1979   1.194   3.559   1.586
  648SOL     OW 1980   0.317   2.113   1.801
  648SOL    HW1 1981   0.388   2.184   1.807
  648SOL    HW2 1982   0.229   2.152   1.829
  649SOL     OW 1983   1.466   3.279   0.953
  649SOL    HW1 1984   1.407   3.285   1.033
  649SOL    HW2 1985   1.451   3.191   0.907
  650SOL     OW 1986   1.667   3.576   0.572
  650SOL    HW1 1987   1.626   3.553   0.484
  650SOL    HW2 1988   1.649   3.502   0.637
  651SOL     OW 1989   0.598   2.591   0.270
  651SOL    HW1 1990   0.622   2.660   0.202
  651SOL    HW2 1991   0.520   2.624   0.324
  652SOL     OW 1992   1.281   2.207   0.944
  652SOL    HW1 1993   1.195   2.157   0.931
  652SOL    HW2 1994   1.343   2.153   1.000
  653SOL     OW 1995   1.576   3.524   0.307
  653SOL    HW1 1996   1.665   3.570   0.310
  653SOL    HW2 1997   1.555   3.500   0.212
  654SOL     OW 1998   0.807   2.467   1.465
  654SOL    HW1 1999   0.760   2.464   1.554
  654SOL    HW2 2000   0.756   2.412   1.399
  655SOL     OW 2001   1.394   2.331   1.674
  655SOL    HW1 2002   1.374   2.374   1.762
  655SOL    HW2 2003   1.472   2.269   1.683
  656SOL     OW 2004   0.973   2.752   1.572
  656SOL    HW1 2005   1.019   2.668   1.543
  656SOL    HW2 2006   0.917   2.786   1.497
  657SOL     OW 2007   0.991   2.272   1.242
  657SOL    HW1 2008   0.914   2.306   1.296
  657SOL    HW2 2009   0.957   2.221   1.163
  658SOL     OW 2010   1.041   2.563   0.429
  658SOL    HW1 2011   1.067   2.559   0.525
  658SOL    HW2 2012   0.956   2.512   0.415
  659SOL     OW 2013   0.076   2.673   0.789
  659SOL    HW1 2014   0.175   2.661   0.798
  659SOL    HW2 2015   0.052   2.768   0.810
  660SOL     OW 2016   0.130   3.683   1.571
  660SOL    HW1 2017   0.120   3.668   1.670
  660SOL    HW2 2018   0.044   3.719   1.535
  661SOL     OW 2019   0.865   2.210   0.195
  661SOL    HW1 2020   0.924   2.273   0.146
  661SOL    HW2 2021   0.884   2.116   0.166
  662SOL     OW 2022   1.719   2.447   1.831
  662SOL    HW1 2023   1.693   2.536   1.795
  662SOL    HW2 2024   1.717   2.379   1.758
  663SOL     OW 2025   1.362   3.006   0.545
  663SOL    HW1 2026   1.445   2.977   0.497
  663SOL    HW2 2027   1.313   3.073   0.489
  664SOL     OW 2028   0.550   2.058   0.885
  664SOL    HW1 2029   0.545   2.053   0.985
  664SOL    HW2 2030   0.552   2.154   0.856
  665SOL     OW 2031   1.008   3.318   0.477
  665SOL    HW1 2032   0.962   3.390   0.425
  665SOL    HW2 2033   1.004   3.338   0.575
  666SOL     OW 2034   0.351   3.663   0.853
  666SOL    HW1 2035   0.401   3.577   0.859
  666SOL    HW2 2036   0.416   3.740   0.850
  667SOL     OW 2037   1.795   2.928   0.873
  667SOL    HW1 2038   1.733   2.913   0.797
  667SOL    HW2 2039   1.743   2.939   0.958
  668SOL     OW 2040   1.227   3.412   1.506
  668SOL    HW1 2041   1.233   3.335   1.570
  668SOL    HW2 2042   1.175   3.386   1.426
  669SOL     OW 2043   0.321   2.805   0.242
  669SOL    HW1 2044   0.403   2.844   0.200
  669SOL    HW2 2045   0.294   2.723   0.193
  670SOL     OW 2046   1.458   2.597   0.728
  670SOL    HW1 2047   1.453   2.532   0.803
  670SOL    HW2 2048   1.538   2.656   0.741
  671SOL     OW 2049   0.461   3.128   1.727
  671SOL    HW1 2050   0.411   3.129   1.641
  671SOL    HW2 2051   0.398   3.110   1.803
  672SOL     OW 2052   1.111   3.638   0.237
  672SOL    HW1 2053   1.051   3.576   0.287
  672SOL    HW2 2054   1.142   3.594   0.152
  673SOL     OW 2055   0.202   2.147   1.498
  673SOL    HW1 2056   0.122   2.207   1.485
  673SOL    HW2 2057   0.192   2.098   1.584
  674SOL     OW 2058   1.632   3.239   0.081
  674SOL    HW1 2059   1.600   3.333   0.071
  674SOL    HW2 2060   1.556   3.176   0.069
  675SOL     OW 2061   0.464   3.605   0.323
  675SOL    HW1 2062   0.497   3.644   0.409
  675SOL    HW2 2063   0.540   3.598   0.258
  676SOL     OW 2064   1.400   1.969   0.426
  676SOL    HW1 2065   1.376   1.932   0.336
  676SOL    HW2 2066   1.499   1.985   0.430
  677SOL     OW 2067   0.249   3.647   1.241
  677SOL    HW1 2068   0.306   3.582   1.291
  677SOL    HW2 2069   0.233   3.614   1.148
  678SOL     OW 2070   0.940   3.560   0.904
  678SOL    HW1 2071   1.020   3.503   0.925
  678SOL    HW2 2072   0.891   3.520   0.827
  679SOL     OW 2073   0.382   2.562   0.480
  679SOL    HW1 2074   0.427   2.472   0.477
  679SOL    HW2 2075   0.288   2.551   0.513
  680SOL     OW 2076   1.547   2.084   1.729
  680SOL    HW1 2077   1.542   2.121   1.821
  680SOL    HW2 2078   1.475   2.015   1.717
  681SOL     OW 2079   0.614   1.984   0.117
  681SOL    HW1 2080   0.712   1.962   0.124
  681SOL    HW2 2081   0.583   1.967   0.024
  682SOL     OW 2082   0.781   2.126   1.749
  682SOL    HW1 2083   0.848   2.065   1.792
  682SOL    HW2 2084   0.708   2.145   1.814
  683SOL     OW 2085   0.888   3.376   1.195
  683SOL    HW1 2086   0.865   3.351   1.101
  683SOL    HW2 2087   0.949   3.307   1.234
  684SOL     OW 2088   1.351   2.452   1.433
  684SOL    HW1 2089   1.379   2.409   1.518
  684SOL    HW2 2090   1.376   2.548   1.434
  685SOL     OW 2091   0.803   3.264   0.924
  685SOL    HW1 2092   0.893   3.278   0.882
  685SOL    HW2 2093   0.732   3.266   0.853
  686SOL     OW 2094   0.922   2.365   0.899
  686SOL    HW1 2095   0.897   2.356   0.803
  686SOL    HW2 2096   0.970   2.283   0.930
  687SOL     OW 2097   0.539   1.926   0.512
  687SOL    HW1 2098   0.458   1.927   0.570
  687SOL    HW2 2099   0.542   2.009   0.457
  688SOL     OW 2100   1.434   3.050   0.041
  688SOL    HW1 2101   1.466   2.974   0.098
  688SOL    HW2 2102   1.342   3.077   0.071
  689SOL     OW 2103   0.297   1.897   0.171
  689SOL    HW1 2104   0.346   1.981   0.150
  689SOL    HW2 2105   0.359   1.832   0.216
  690SOL     OW 2106   0.935   2.098   0.480
  690SOL    HW1 2107   0.887   2.139   0.402
  690SOL    HW2 2108   1.034   2.096   0.461
  691SOL     OW 2109   1.076   2.545   1.464
  691SOL    HW1 2110   0.996   2.484   1.467
  691SOL    HW2 2111   1.157   2.492   1.440
  692SOL     OW 2112   1.227   3.432   0.793
  692SOL    HW1 2113   1.248   3.506   0.728
  692SOL    HW2 2114   1.295   3.432   0.866
  693SOL     OW 2115   0.459   3.014   0.741
  693SOL    HW1 2116   0.388   2.987   0.806
  693SOL    HW2 2117   0.433   2.986   0.648
  694SOL     OW 2118   1.271   3.659   0.591
  694SOL    HW1 2119   1.315   3.723   0.527
  694SOL    HW2 2120   1.221   3.711   0.661
  695SOL     OW 2121   1.032   2.411   0.016
  695SOL    HW1 2122   0.991   2.493  -0.023
  695SOL    HW2 2123   1.096   2.437   0.089
  696SOL     OW 2124   0.078   2.418   1.386
  696SOL    HW1 2125   0.170   2.417   1.345
  696SOL    HW2 2126   0.072   2.492   1.453
  697SOL     OW 2127   0.561   2.084   1.147
  697SOL    HW1 2128   0.599   2.000   1.184
  697SOL    HW2 2129   0.473   2.103   1.191
  698SOL     OW 2130   0.866   2.316   0.642
  698SOL    HW1 2131   0.834   2.388   0.580
  698SOL    HW2 2132   0.890   2.235   0.589
  699SOL     OW 2133   1.017   1.901   0.753
  699SOL    HW1 2134   0.945   1.906   0.684
  699SOL    HW2 2135   0.993   1.832   0.822
  700SOL     OW 2136   1.429   3.035   0.867
  700SOL    HW1 2137   1.374   2.951   0.860
  700SOL    HW2 2138   1.455   3.064   0.775
  701SOL     OW 2139   1.466   2.452   0.992
  701SOL    HW1 2140   1.436   2.357   0.999
  701SOL    HW2 2141   1.539   2.468   1.058
  702SOL     OW 2142   1.857   2.695   0.377
  702SOL    HW1 2143   1.899   2.631   0.441
  702SOL    HW2 2144   1.819   2.644   0.299
  703SOL     OW 2145   0.488   3.247   0.174
  703SOL    HW1 2146   0.401   3.232   0.221
  703SOL    HW2 2147   0.471   3.273   0.079
  704SOL     OW 2148   1.664   3.142   0.657
  704SOL    HW1 2149   1.763   3.150   0.671
  704SOL    HW2 2150   1.619   3.226   0.688
  705SOL     OW 2151   1.390   2.437   0.078
  705SOL    HW1 2152   1.336   2.416   0.159
  705SOL    HW2 2153   1.481   2.396   0.087
  706SOL     OW 2154   0.527   2.118   0.328
  706SOL    HW1 2155   0.554   2.059   0.253
  706SOL    HW2 2156   0.527   2.213   0.297
  707SOL     OW 2157   1.754   3.085   1.588
  707SOL    HW1 2158   1.845   3.046   1.575
  707SOL    HW2 2159   1.762   3.181   1.612
  708SOL     OW 2160   1.064   3.209   1.340
  708SOL    HW1 2161   0.984   3.186   1.395
  708SOL    HW2 2162   1.147   3.183   1.389
  709SOL     OW 2163   1.592   3.491   1.625
  709SOL    HW1 2164   1.619   3.525   1.535
  709SOL    HW2 2165   1.671   3.453   1.671
  710SOL     OW 2166   1.111   3.057   1.100
  710SOL    HW1 2167   1.071   3.101   1.181
  710SOL    HW2 2168   1.070   3.094   1.017
  711SOL     OW 2169   1.638   2.961   1.079
  711SOL    HW1 2170   1.643   3.042   1.138
  711SOL    HW2 2171   1.552   2.963   1.028
  712SOL     OW 2172   0.915   1.951   1.402
  712SOL    HW1 2173   0.940   1.931   1.307
  712SOL    HW2 2174   0.987   2.007   1.444
  713SOL     OW 2175   0.980   2.978   1.719
  713SOL    HW1 2176   0.881   2.984   1.729
  713SOL    HW2 2177   1.003   2.898   1.663
  714SOL     OW 2178   0.705   2.912   0.368
  714SOL    HW1 2179   0.691   2.919   0.467
  714SOL    HW2 2180   0.789   2.861   0.350
  715SOL     OW 2181   0.410   2.675   1.251
  715SOL    HW1 2182   0.496   2.687   1.301
  715SOL    HW2 2183   0.368   2.588   1.278
  716SOL     OW 2184   1.274   2.248   1.262
  716SOL    HW1 2185   1.295   2.322   1.326
  716SOL    HW2 2186   1.185   2.265   1.219
  717SOL     OW 2187   0.064   3.426   1.331
  717SOL    HW1 2188   0.018   3.508   1.297
  717SOL    HW2 2189   0.162   3.445   1.340
  718SOL     OW 2190   0.367   2.962   0.501
  718SOL    HW1 2191   0.360   3.045   0.445
  718SOL    HW2 2192   0.371   2.882   0.441
  719SOL     OW 2193   0.566   2.399   0.865
  719SOL    HW1 2194   0.578   2.465   0.791
  719SOL    HW2 2195   0.612   2.433   0.948
  720SOL     OW 2196   1.252   3.210   0.388
  720SOL    HW1 2197   1.302   3.287   0.428
  720SOL    HW2 2198   1.157   3.212   0.420
  721SOL     OW 2199   1.272   3.307   1.142
  721SOL    HW1 2200   1.319   3.320   1.229
  721SOL    HW2 2201   1.206   3.233   1.151
  722SOL     OW 2202   1.582   2.501   0.472
  722SOL    HW1 2203   1.551   2.562   0.545
  722SOL    HW2 2204   1.632   2.553   0.403
  723SOL     OW 2205   0.354   3.372   1.329
  723SOL    HW1 2206   0.333   3.328   1.242
  723SOL    HW2 2207   0.451   3.398   1.332
  724SOL     OW 2208   0.402   2.613   1.598
  724SOL    HW1 2209   0.470   2.668   1.551
  724SOL    HW2 2210   0.442   2.525   1.625
  725SOL     OW 2211   1.587   2.641   1.670
  725SOL    HW1 2212   1.495   2.679   1.665
  725SOL    HW2 2213   1.647   2.688   1.605
  726SOL     OW 2214   1.013   1.967   1.770
  726SOL    HW1 2215   1.019   2.052   1.718
  726SOL    HW2 2216   1.045   1.891   1.713
  727SOL     OW 2217   0.504   1.912   1.740
  727SOL    HW1 2218   0.462   1.855   1.670
  727SOL    HW2 2219   0.438   1.981   1.772
  728SOL     OW 2220   0.573   2.732   1.029
  728SOL    HW1 2221   0.617   2.821   1.020
  728SOL    HW2 2222   0.510   2.732   1.106
  729SOL     OW 2223   1.360   2.724   1.045
  729SOL    HW1 2224   1.285   2.724   0.979
  729SOL    HW2 2225   1.397   2.632   1.054
  730SOL     OW 2226   1.209   2.387   0.275
  730SOL    HW1 2227   1.222   2.303   0.329
  730SOL    HW2 2228   1.180   2.461   0.335
  731SOL     OW 2229   0.307   2.075   1.231
  731SOL    HW1 2230   0.284   2.112   1.321
  731SOL    HW2 2231   0.277   1.980   1.225
  732SOL     OW 2232   0.037   3.172   1.282
  732SOL    HW1 2233   0.090   3.123   1.350
  732SOL    HW2 2234   0.059   3.270   1.287
  733SOL     OW 2235   0.732   2.496   1.064
  733SOL    HW1 2236   0.791   2.470   0.988
  733SOL    HW2 2237   0.704   2.592   1.053
  734SOL     OW 2238   1.728   2.797   1.854
  734SOL    HW1 2239   1.682   2.790   1.765
  734SOL    HW2 2240   1.666   2.841   1.920
  735SOL     OW 2241   0.307   1.925   0.618
  735SOL    HW1 2242   0.296   2.019   0.651
  735SOL    HW2 2243   0.302   1.862   0.695
  736SOL     OW 2244   1.622   2.229   0.374
  736SOL    HW1 2245   1.624   2.153   0.438
  736SOL    HW2 2246   1.574   2.306   0.414
  737SOL     OW 2247   1.023   2.628   0.966
  737SOL    HW1 2248   1.038   2.649   1.062
  737SOL    HW2 2249   0.993   2.533   0.957
  738SOL     OW 2250   0.980   3.435   1.700
  738SOL    HW1 2251   0.960   3.479   1.612
  738SOL    HW2 2252   1.019   3.344   1.684
  739SOL     OW 2253   1.859   3.380   1.605
  739SOL    HW1 2254   1.873   3.407   1.510
  739SOL    HW2 2255   1.942   3.402   1.658
  740SOL     OW 2256   0.350   2.760   1.804
  740SOL    HW1 2257   0.426   2.804   1.852
  740SOL    HW2 2258   0.385   2.713   1.722
  741SOL     OW 2259   1.540   2.136   0.125
  741SOL    HW1 2260   1.479   2.061   0.148
  741SOL    HW2 2261   1.562   2.188   0.208
  742SOL     OW 2262   1.303   2.700   0.042
  742SOL    HW1 2263   1.337   2.607   0.057
  742SOL    HW2 2264   1.321   2.727  -0.053
  743SOL     OW 2265   1.068   3.195   0.849
  743SOL    HW1 2266   1.075   3.111   0.794
  743SOL    HW2 2267   1.130   3.264   0.813
  744SOL     OW 2268   0.319   2.672   0.949
  744SOL    HW1 2269   0.412   2.708   0.954
  744SOL    HW2 2270   0.313   2.587   1.001
  745SOL     OW 2271   0.339   2.371   1.006
  745SOL    HW1 2272   0.287   2.288   0.989
  745SOL    HW2 2273   0.416   2.376   0.942
  746SOL     OW 2274   1.138   2.242   1.678
  746SOL    HW1 2275   1.093   2.305   1.742
  746SOL    HW2 2276   1.231   2.273   1.661
  747SOL     OW 2277   1.160   2.069   1.477
  747SOL    HW1 2278   1.160   2.133   1.554
  747SOL    HW2 2279   1.188   2.117   1.394
  748SOL     OW 2280   0.008   3.188   0.200
  748SOL    HW1 2281  -0.085   3.209   0.169
  748SOL    HW2 2282   0.018   3.089   0.213
  749SOL     OW 2283   0.088   3.663   0.927
  749SOL    HW1 2284   0.046   3.577   0.900
  749SOL    HW2 2285   0.182   3.666   0.893
  750SOL     OW 2286   0.504   3.430   0.910
  750SOL    HW1 2287   0.570   3.504   0.919
  750SOL    HW2 2288   0.548   3.351   0.868
  751SOL     OW 2289   1.002   2.658   1.238
  751SOL    HW1 2290   1.043   2.626   1.324
  751SOL    HW2 2291   0.906   2.631   1.235
  752SOL     OW 2292   0.040   2.406   1.114
  752SOL    HW1 2293   0.125   2.373   1.073
  752SOL    HW2 2294   0.053   2.421   1.212
  753SOL     OW 2295   0.189   2.382   1.722
  753SOL    HW1 2296   0.248   2.342   1.652
  753SOL    HW2 2297   0.131   2.453   1.681
  754SOL     OW 2298   1.369   2.812   1.660
  754SOL    HW1 2299   1.408   2.901   1.680
  754SOL    HW2 2300   1.379   2.792   1.563
  755SOL     OW 2301   0.815   2.434   0.325
  755SOL    HW1 2302   0.822   2.345   0.279
  755SOL    HW2 2303   0.721   2.468   0.317
  756SOL     OW 2304   1.657   2.466   1.206
  756SOL    HW1 2305   1.619   2.397   1.268
  756SOL    HW2 2306   1.739   2.430   1.162
  757SOL     OW 2307   0.252   3.426   1.744
  757SOL    HW1 2308   0.222   3.483   1.820
  757SOL    HW2 2309   0.245   3.329   1.770
  758SOL     OW 2310   0.671   2.326   1.269
  758SOL    HW1 2311   0.637   2.237   1.239
  758SOL    HW2 2312   0.697   2.380   1.189
  759SOL     OW 2313   0.930   3.540   1.465
  759SOL    HW1 2314   0.906   3.522   1.370
  759SOL    HW2 2315   0.960   3.634   1.475
  760SOL     OW 2316   0.473   2.362   0.191
  760SOL    HW1 2317   0.534   2.442   0.195
  760SOL    HW2 2318   0.378   2.393   0.198
  761SOL     OW 2319   0.159   2.999   1.466
  761SOL    HW1 2320   0.181   2.938   1.542
  761SOL    HW2 2321   0.169   2.950   1.380
  762SOL     OW 2322   1.347   2.921   1.234
  762SOL    HW1 2323   1.371   2.858   1.160
  762SOL    HW2 2324   1.257   2.961   1.216
  763SOL     OW 2325   1.302   2.717   0.309
  763SOL    HW1 2326   1.216   2.686   0.351
  763SOL    HW2 2327   1.298   2.703   0.210
  764SOL     OW 2328   1.759   3.609   1.154
  764SOL    HW1 2329   1.820   3.639   1.081
  764SOL    HW2 2330   1.721   3.520   1.132
  765SOL     OW 2331   1.252   3.593   1.128
  765SOL    HW1 2332   1.336   3.598   1.074
  765SOL    HW2 2333   1.229   3.497   1.146
  766SOL     OW 2334   0.083   3.120   1.022
  766SOL    HW1 2335   0.078   3.119   1.122
  766SOL    HW2 2336   0.000   3.079   0.984
  767SOL     OW 2337   0.688   3.524   1.716
  767SOL    HW1 2338   0.632   3.605   1.725
  767SOL    HW2 2339   0.740   3.528   1.630
  768SOL     OW 2340   0.903   1.948   0.133
  768SOL    HW1 2341   0.954   1.949   0.047
  768SOL    HW2 2342   0.959   1.906   0.204
  769SOL     OW 2343   1.726   1.997   0.523
  769SOL    HW1 2344   1.799   1.980   0.456
  769SOL    HW2 2345   1.695   1.910   0.561
  770SOL     OW 2346   1.388   3.435   0.477
  770SOL    HW1 2347   1.455   3.447   0.403
  770SOL    HW2 2348   1.348   3.524   0.500
  771SOL     OW 2349   0.130   3.656   1.851
  771SOL    HW1 2350   0.089   3.582   1.904
  771SOL    HW2 2351   0.194   3.707   1.909
  772SOL     OW 2352   1.280   2.789   0.672
  772SOL    HW1 2353   1.340   2.708   0.674
  772SOL    HW2 2354   1.320   2.858   0.612
  773SOL     OW 2355   0.830   3.135   1.422
  773SOL    HW1 2356   0.825   3.168   1.517
  773SOL    HW2 2357   0.744   3.154   1.376
  774SOL     OW 2358   0.672   3.478   0.154
  774SOL    HW1 2359   0.681   3.488   0.055
  774SOL    HW2 2360   0.632   3.389   0.175
  775SOL     OW 2361   1.650   3.582   1.394
  775SOL    HW1 2362   1.703   3.592   1.310
  775SOL    HW2 2363   1.623   3.672   1.428
  776SOL     OW 2364   1.841   2.037   0.963
  776SOL    HW1 2365   1.880   1.952   0.927
  776SOL    HW2 2366   1.743   2.039   0.944
  777SOL     OW 2367   0.263   2.188   0.720
  777SOL    HW1 2368   0.184   2.239   0.686
  777SOL    HW2 2369   0.254   2.173   0.818
  778SOL     OW 2370   1.194   3.474   0.031
  778SOL    HW1 2371   1.200   3.381   0.068
  778SOL    HW2 2372   1.135   3.474  -0.049
  779SOL     OW 2373   0.822   2.864   1.372
  779SOL    HW1 2374   0.862   2.863   1.280
  779SOL    HW2 2375   0.832   2.956   1.412
  780SOL     OW 2376   0.916   2.772   0.291
  780SOL    HW1 2377   0.979   2.810   0.223
  780SOL    HW2 2378   0.956   2.689   0.330
  781SOL     OW 2379   1.504   3.469   0.044
  781SOL    HW1 2380   1.412   3.506   0.051
  781SOL    HW2 2381   1.542   3.489  -0.046
  782SOL     OW 2382   0.372   3.150   1.490
  782SOL    HW1 2383   0.359   3.243   1.456
  782SOL    HW2 2384   0.288   3.098   1.477
  783SOL     OW 2385   1.614   3.154   1.289
  783SOL    HW1 2386   1.674   3.157   1.369
  783SOL    HW2 2387   1.539   3.218   1.302
  784SOL     OW 2388   1.039   2.960   0.696
  784SOL    HW1 2389   0.969   2.913   0.750
  784SOL    HW2 2390   1.098   2.892   0.653
  785SOL     OW 2391   1.014   2.098   0.971
  785SOL    HW1 2392   1.006   2.062   0.878
  785SOL    HW2 2393   1.012   2.022   1.036
  786SOL     OW 2394   0.590   3.349   0.491
  786SOL    HW1 2395   0.632   3.291   0.421
  786SOL    HW2 2396   0.546   3.428   0.447
  787SOL     OW 2397   1.709   2.247   1.381
  787SOL    HW1 2398   1.782   2.316   1.385
  787SOL    HW2 2399   1.737   2.172   1.322
  788SOL     OW 2400   0.255   3.210   0.290
  788SOL    HW1 2401   0.159   3.211   0.263
  788SOL    HW2 2402   0.267   3.263   0.374
  789SOL     OW 2403   0.105   2.875   1.726
  789SOL    HW1 2404   0.028   2.842   1.780
  789SOL    HW2 2405   0.190   2.845   1.768
  790SOL     OW 2406   0.672   2.065   1.489
  790SOL    HW1 2407   0.762   2.049   1.449
  790SOL    HW2 2408   0.680   2.070   1.588
  791SOL     OW 2409   0.075   2.207   0.033
  791SOL    HW1 2410  -0.017   2.179   0.004
  791SOL    HW2 2411   0.106   2.284  -0.023
  792SOL     OW 2412   1.440   2.718   1.398
  792SOL    HW1 2413   1.383   2.770   1.335
  792SOL    HW2 2414   1.536   2.730   1.374
  793SOL     OW 2415   0.072   2.028   0.318
  793SOL    HW1 2416   0.055   2.111   0.264
  793SOL    HW2 2417   0.162   1.991   0.296
  794SOL     OW 2418   1.183   3.197   0.119
  794SOL    HW1 2419   1.084   3.186   0.121
  794SOL    HW2 2420   1.217   3.212   0.212
  795SOL     OW 2421   0.613   2.704   1.431
  795SOL    HW1 2422   0.669   2.785   1.414
  795SOL    HW2 2423   0.672   2.624   1.434
  796SOL     OW 2424   1.493   3.629   0.959
  796SOL    HW1 2425   1.526   3.693   0.890
  796SOL    HW2 2426   1.559   3.623   1.034
  797SOL     OW 2427   0.716   2.427   1.708
  797SOL    HW1 2428   0.735   2.492   1.782
  797SOL    HW2 2429   0.776   2.347   1.717
  798SOL     OW 2430   1.450   3.082   1.633
  798SOL    HW1 2431   1.441   3.072   1.732
  798SOL    HW2 2432   1.546   3.075   1.607
  799SOL     OW 2433   0.390   3.603   1.560
  799SOL    HW1 2434   0.299   3.644   1.558
  799SOL    HW2 2435   0.383   3.509   1.592
  800SOL     OW 2436   1.674   2.745   1.254
  800SOL    HW1 2437   1.647   2.656   1.217
  800SOL    HW2 2438   1.675   2.813   1.181
  801SOL     OW 2439   1.225   2.187   0.449
  801SOL    HW1 2440   1.290   2.113   0.438
  801SOL    HW2 2441   1.245   2.237   0.533
  802SOL     OW 2442   0.594   2.607   0.652
  802SOL    HW1 2443   0.644   2.692   0.633
  802SOL    HW2 2444   0.506   2.609   0.604
  803SOL     OW 2445   1.777   2.204   1.642
  803SOL    HW1 2446   1.760   2.235   1.548
  803SOL    HW2 2447   1.693   2.167   1.680
  804SOL     OW 2448   1.730   2.796   1.517
  804SOL    HW1 2449   1.768   2.887   1.532
  804SOL    HW2 2450   1.722   2.779   1.418
  805SOL     OW 2451   0.859   3.236   0.016
  805SOL    HW1 2452   0.813   3.251   0.104
  805SOL    HW2 2453   0.903   3.321  -0.014
  806SOL     OW 2454   0.661   3.652   0.953
  806SOL    HW1 2455   0.615   3.740   0.940
  806SOL    HW2 2456   0.760   3.664   0.946
  807SOL     OW 2457   0.859   2.818   0.861
  807SOL    HW1 2458   0.913   2.749   0.909
  807SOL    HW2 2459   0.827   2.887   0.927
  808SOL     OW 2460   1.083   2.846   0.087
  808SOL    HW1 2461   1.060   2.899   0.005
  808SOL    HW2 2462   1.164   2.790   0.068
  809SOL     OW 2463   1.861   3.431   0.851
  809SOL    HW1 2464   1.790   3.419   0.781
  809SOL    HW2 2465   1.862   3.352   0.911
  810SOL     OW 2466   0.221   3.176   1.844
  810SOL    HW1 2467   0.156   3.103   1.823
  810SOL    HW2 2468   0.225   3.190   1.942
  811SOL     OW 2469   0.079   3.102   0.653
  811SOL    HW1 2470   0.078   3.055   0.741
  811SOL    HW2 2471   0.161   3.074   0.602
  812SOL     OW 2472   0.672   3.253   1.624
  812SOL    HW1 2473   0.594   3.203   1.662
  812SOL    HW2 2474   0.669   3.348   1.655
  813SOL     OW 2475   1.824   2.054   1.227
  813SOL    HW1 2476   1.820   1.964   1.271
  813SOL    HW2 2477   1.827   2.043   1.128
  814SOL     OW 2478   0.428   2.286   0.520
  814SOL    HW1 2479   0.458   2.214   0.458
  814SOL    HW2 2480   0.389   2.246   0.603
  815SOL     OW 2481   1.705   3.349   1.104
  815SOL    HW1 2482   1.612   3.324   1.077
  815SOL    HW2 2483   1.731   3.299   1.186
  816SOL     OW 2484   0.317   2.409   1.280
  816SOL    HW1 2485   0.355   2.350   1.352
  816SOL    HW2 2486   0.357   2.383   1.192
  817SOL     OW 2487   0.812   3.448   0.687
  817SOL    HW1 2488   0.844   3.458   0.593
  817SOL    HW2 2489   0.733   3.386   0.689
  818SOL     OW 2490   1.424   2.076   1.112
  818SOL    HW1 2491   1.476   2.011   1.167
  818SOL    HW2 2492   1.375   2.139   1.173
  819SOL     OW 2493   1.001   1.896   1.154
  819SOL    HW1 2494   0.938   1.824   1.123
  819SOL    HW2 2495   1.094   1.860   1.154
  820SOL     OW 2496   0.770   3.192   0.301
  820SOL    HW1 2497   0.724   3.105   0.318
  820SOL    HW2 2498   0.861   3.189   0.342
  821SOL     OW 2499   0.618   3.429   1.284
  821SOL    HW1 2500   0.613   3.511   1.341
  821SOL    HW2 2501   0.707   3.426   1.239
  822SOL     OW 2502   1.352   1.914   0.168
  822SOL    HW1 2503   1.387   1.873   0.084
  822SOL    HW2 2504   1.262   1.876   0.188
  823SOL     OW 2505   1.300   2.315   0.691
  823SOL    HW1 2506   1.241   2.395   0.695
  823SOL    HW2 2507   1.315   2.280   0.784
  824SOL     OW 2508   1.593   2.083   0.882
  824SOL    HW1 2509   1.509   2.082   0.936
  824SOL    HW2 2510   1.595   2.166   0.826
  825SOL     OW 2511   0.039   2.939   0.300
  825SOL    HW1 2512   0.138   2.928   0.291
  825SOL    HW2 2513  -0.001   2.853   0.332
  826SOL     OW 2514   0.875   3.508   0.337
  826SOL    HW1 2515   0.798   3.473   0.283
  826SOL    HW2 2516   0.843   3.579   0.399
  827SOL     OW 2517   0.230   2.490   1.975
  827SOL    HW1 2518   0.137   2.488   2.012
  827SOL    HW2 2519   0.231   2.451   1.883
  828SOL     OW 2520   0.225   2.137   2.858
  828SOL    HW1 2521   0.260   2.120   2.950
  828SOL    HW2 2522   0.137   2.092   2.846
  829SOL     OW 2523   0.019   2.230   2.509
  829SOL    HW1 2524  -0.063   2.273   2.548
  829SOL    HW2 2525  -0.009   2.157   2.446
  830SOL     OW 2526   0.569   3.137   3.027
  830SOL    HW1 2527   0.476   3.130   2.990
  830SOL    HW2 2528   0.580   3.226   3.071
  831SOL     OW 2529   1.555   3.373   2.565
  831SOL    HW1 2530   1.498   3.357   2.646
  831SOL    HW2 2531   1.496   3.383   2.485
  832SOL     OW 2532   1.135   2.565   2.579
  832SOL    HW1 2533   1.192   2.643   2.554
  832SOL    HW2 2534   1.075   2.591   2.655
  833SOL     OW 2535   1.755   2.469   2.093
  833SOL    HW1 2536   1.743   2.456   1.994
  833SOL    HW2 2537   1.725   2.388   2.142
  834SOL     OW 2538   0.768   3.006   2.885
  834SOL    HW1 2539   0.690   3.023   2.945
  834SOL    HW2 2540   0.802   3.093   2.849
  835SOL     OW 2541   0.850   2.660   3.685
  835SOL    HW1 2542   0.846   2.736   3.750
  835SOL    HW2 2543   0.872   2.696   3.594
  836SOL     OW 2544   0.685   2.874   2.527
  836SOL    HW1 2545   0.754   2.858   2.597
  836SOL    HW2 2546   0.612   2.931   2.565
  837SOL     OW 2547   0.686   3.023   3.665
  837SOL    HW1 2548   0.746   3.102   3.679
  837SOL    HW2 2549   0.600   3.054   3.624
  838SOL     OW 2550   0.335   3.297   2.923
  838SOL    HW1 2551   0.257   3.266   2.870
  838SOL    HW2 2552   0.393   3.355   2.866
  839SOL     OW 2553   1.460   3.367   3.201
  839SOL    HW1 2554   1.484   3.461   3.227
  839SOL    HW2 2555   1.444   3.313   3.283
  840SOL     OW 2556   0.438   2.254   3.361
  840SOL    HW1 2557   0.520   2.198   3.370
  840SOL    HW2 2558   0.357   2.196   3.365
  841SOL     OW 2559   1.603   2.309   2.599
  841SOL    HW1 2560   1.529   2.355   2.549
  841SOL    HW2 2561   1.654   2.377   2.652
  842SOL     OW 2562   0.231   3.575   2.345
  842SOL    HW1 2563   0.265   3.652   2.399
  842SOL    HW2 2564   0.275   3.575   2.255
  843SOL     OW 2565   1.127   3.203   3.552
  843SOL    HW1 2566   1.174   3.203   3.640
  843SOL    HW2 2567   1.079   3.116   3.541
  844SOL     OW 2568   0.230   3.296   2.400
  844SOL    HW1 2569   0.204   3.392   2.400
  844SOL    HW2 2570   0.159   3.242   2.445
  845SOL     OW 2571   0.240   2.953   2.748
  845SOL    HW1 2572   0.254   2.869   2.800
  845SOL    HW2 2573   0.185   3.017   2.803
  846SOL     OW 2574   0.620   3.648   3.301
  846SOL    HW1 2575   0.528   3.631   3.336
  846SOL    HW2 2576   0.648   3.740   3.327
  847SOL     OW 2577   0.606   2.826   1.985
  847SOL    HW1 2578   0.613   2.910   1.931
  847SOL    HW2 2579   0.652   2.839   2.073
  848SOL     OW 2580   1.594   1.976   3.342
  848SOL    HW1 2581   1.576   2.043   3.270
  848SOL    HW2 2582   1.591   2.022   3.431
  849SOL     OW 2583   0.122   2.505   2.425
  849SOL    HW1 2584   0.077   2.417   2.442
  849SOL    HW2 2585   0.121   2.559   2.509
  850SOL     OW 2586   1.842   3.629   2.221
  850SOL    HW1 2587   1.896   3.600   2.301
  850SOL    HW2 2588   1.872   3.719   2.192
  851SOL     OW 2589   0.027   3.458   1.979
  851SOL    HW1 2590   0.008   3.362   2.000
  851SOL    HW2 2591  -0.006   3.516   2.054
  852SOL     OW 2592   1.689   2.784   2.474
  852SOL    HW1 2593   1.784   2.755   2.482
  852SOL    HW2 2594   1.681   2.849   2.399
  853SOL     OW 2595   1.641   2.970   2.294
  853SOL    HW1 2596   1.727   2.972   2.242
  853SOL    HW2 2597   1.655   3.017   2.382
  854SOL     OW 2598   0.113   2.599   3.459
  854SOL    HW1 2599   0.201   2.586   3.504
  854SOL    HW2 2600   0.100   2.696   3.437
  855SOL     OW 2601   0.613   3.227   2.588
  855SOL    HW1 2602   0.564   3.140   2.597
  855SOL    HW2 2603   0.590   3.270   2.501
  856SOL     OW 2604   1.293   3.090   3.285
  856SOL    HW1 2605   1.330   3.017   3.227
  856SOL    HW2 2606   1.345   3.095   3.370
  857SOL     OW 2607   0.809   1.866   2.364
  857SOL    HW1 2608   0.849   1.957   2.355
  857SOL    HW2 2609   0.709   1.874   2.370
  858SOL     OW 2610   0.197   2.838   3.126
  858SOL    HW1 2611   0.286   2.793   3.112
  858SOL    HW2 2612   0.124   2.773   3.107
  859SOL     OW 2613   1.525   2.861   2.052
  859SOL    HW1 2614   1.462   2.785   2.065
  859SOL    HW2 2615   1.573   2.879   2.138
  860SOL     OW 2616   1.187   3.654   3.478
  860SOL    HW1 2617   1.211   3.714   3.402
  860SOL    HW2 2618   1.194   3.559   3.448
  861SOL     OW 2619   0.317   2.113   3.663
  861SOL    HW1 2620   0.388   2.184   3.669
  861SOL    HW2 2621   0.229   2.152   3.691
  862SOL     OW 2622   1.466   3.279   2.815
  862SOL    HW1 2623   1.407   3.285   2.895
  862SOL    HW2 2624   1.451   3.191   2.769
  863SOL     OW 2625   1.667   3.576   2.434
  863SOL    HW1 2626   1.626   3.553   2.346
  863SOL    HW2 2627   1.649   3.502   2.499
  864SOL     OW 2628   0.598   2.591   2.132
  864SOL    HW1 2629   0.622   2.660   2.064
  864SOL    HW2 2630   0.520   2.624   2.186
  865SOL     OW 2631   1.281   2.207   2.806
  865SOL    HW1 2632   1.195   2.157   2.793
  865SOL    HW2 2633   1.343   2.153   2.862
  866SOL     OW 2634   1.576   3.524   2.169
  866SOL    HW1 2635   1.665   3.570   2.172
  866SOL    HW2 2636   1.555   3.500   2.074
  867SOL     OW 2637   0.807   2.467   3.327
  867SOL    HW1 2638   0.760   2.464   3.416
  867SOL    HW2 2639   0.756   2.412   3.261
  868SOL     OW 2640   1.394   2.331   3.536
  868SOL    HW1 2641   1.374   2.374   3.624
  868SOL    HW2 2642   1.472   2.269   3.545
  869SOL     OW 2643   0.973   2.752   3.434
  869SOL    HW1 2644   1.019   2.668   3.405
  869SOL    HW2 2645   0.917   2.786   3.359
  870SOL     OW 2646   0.991   2.272   3.104
  870SOL    HW1 2647   0.914   2.306   3.158
  870SOL    HW2 2648   0.957   2.221   3.025
  871SOL     OW 2649   1.041   2.563   2.291
  871SOL    HW1 2650   1.067   2.559   2.387
  871SOL    HW2 2651   0.956   2.512   2.277
  872SOL     OW 2652   0.076   2.673   2.651
  872SOL    HW1 2653   0.175   2.661   2.660
  872SOL    HW2 2654   0.052   2.768   2.672
  873SOL     OW 2655   0.130   3.683   3.433
  873SOL    HW1 2656   0.120   3.668   3.532
  873SOL    HW2 2657   0.044   3.719   3.397
  874SOL     OW 2658   0.865   2.210   2.057
  874SOL    HW1 2659   0.924   2.273   2.008
  874SOL    HW2 2660   0.884   2.116   2.028
  875SOL     OW 2661   1.719   2.447   3.693
  875SOL    HW1 2662   1.693   2.536   3.657
  875SOL    HW2 2663   1.717   2.379   3.620
  876SOL     OW 2664   1.362   3.006   2.407
  876SOL    HW1 2665   1.445   2.977   2.359
  876SOL    HW2 2666   1.313   3.073   2.351
  877SOL     OW 2667   0.550   2.058   2.747
  877SOL    HW1 2668   0.545   2.053   2.847
  877SOL    HW2 2669   0.552   2.154   2.718
  878SOL     OW 2670   1.008   3.318   2.339
  878SOL    HW1 2671   0.962   3.390   2.287
  878SOL    HW2 2672   1.004   3.338   2.437
  879SOL     OW 2673   0.351   3.663   2.715
  879SOL    HW1 2674   0.401   3.577   2.721
  879SOL    HW2 2675   0.416   3.740   2.712
  880SOL     OW 2676   1.795   2.928   2.735
  880SOL    HW1 2677   1.733   2.913   2.659
  880SOL    HW2 2678   1.743   2.939   2.820
  881SOL     OW 2679   1.227   3.412   3.368
  881SOL    HW1 2680   1.233   3.335   3.432
  881SOL    HW2 2681   1.175   3.386   3.288
  882SOL     OW 2682   0.321   2.805   2.104
  882SOL    HW1 2683   0.403   2.844   2.062
  882SOL    HW2 2684   0.294   2.723   2.055
  883SOL     OW 2685   1.458   2.597   2.590
  883SOL    HW1 2686   1.453   2.532   2.665
  883SOL    HW2 2687   1.538   2.656   2.603
  884SOL     OW 2688   0.461   3.128   3.589
  884SOL    HW1 2689   0.411   3.129   3.503
  884SOL    HW2 2690   0.398   3.110   3.665
  885SOL     OW 2691   1.111   3.638   2.099
  885SOL    HW1 2692   1.051   3.576   2.149
  885SOL    HW2 2693   1.142   3.594   2.014
  886SOL     OW 2694   0.202   2.147   3.360
  886SOL    HW1 2695   0.122   2.207   3.347
  886SOL    HW2 2696   0.192   2.098   3.446
  887SOL     OW 2697   1.632   3.239   1.943
  887SOL    HW1 2698   1.600   3.333   1.933
  887SOL    HW2 2699   1.556   3.176   1.931
  888SOL     OW 2700   0.464   3.605   2.185
  888SOL    HW1 2701   0.497   3.644   2.271
  888SOL    HW2 2702   0.540   3.598   2.120
  889SOL     OW 2703   1.400   1.969   2.288
  889SOL    HW1 2704   1.376   1.932   2.198
  889SOL    HW2 2705   1.499   1.985   2.292
  890SOL     OW 2706   0.249   3.647   3.103
  890SOL    HW1 2707   0.306   3.582   3.153
  890SOL    HW2 2708   0.233   3.614   3.010
  891SOL     OW 2709   0.940   3.560   2.766
  891SOL    HW1 2710   1.020   3.503   2.787
  891SOL    HW2 2711   0.891   3.520   2.689
  892SOL     OW 2712   0.382   2.562   2.342
  892SOL    HW1 2713   0.427   2.472   2.339
  892SOL    HW2 2714   0.288   2.551   2.375
  893SOL     OW 2715   1.547   2.084   3.591
  893SOL    HW1 2716   1.542   2.121   3.683
  893SOL    HW2 2717   1.475   2.015   3.579
  894SOL     OW 2718   0.614   1.984   1.979
  894SOL    HW1 2719   0.712   1.962   1.986
  894SOL    HW2 2720   0.583   1.967   1.886
  895SOL     OW 2721   0.781   2.126   3.611
  895SOL    HW1 2722   0.848   2.065   3.654
  895SOL    HW2 2723   0.708   2.145   3.676
  896SOL     OW 2724   0.888   3.376   3.057
  896SOL    HW1 2725   0.865   3.351   2.963
  896SOL    HW2 2726   0.949   3.307   3.096
  897SOL     OW 2727   1.351   2.452   3.295
  897SOL    HW1 2728   1.379   2.409   3.380
  897SOL    HW2 2729   1.376   2.548   3.296
  898SOL     OW 2730   0.803   3.264   2.786
  898SOL    HW1 2731   0.893   3.278   2.744
  898SOL    HW2 2732   0.732   3.266   2.715
  899SOL     OW 2733   0.922   2.365   2.761
  899SOL    HW1 2734   0.897   2.356   2.665
  899SOL    HW2 2735   0.970   2.283   2.792
  900SOL     OW 2736   0.539   1.926   2.374
  900SOL    HW1 2737   0.458   1.927   2.432
  900SOL    HW2 2738   0.542   2.009   2.319
  901SOL     OW 2739   1.434   3.050   1.903
  901SOL    HW1 2740   1.466   2.974   1.960
  901SOL    HW2 2741   1.342   3.077   1.933
  902SOL     OW 2742   0.297   1.897   2.033
  902SOL    HW1 2743   0.346   1.981   2.012
  902SOL    HW2 2744   0.359   1.832   2.078
  903SOL     OW 2745   0.935   2.098   2.342
  903SOL    HW1 2746   0.887   2.139   2.264
  903SOL    HW2 2747   1.034   2.096   2.323
  904SOL     OW 2748   1.076   2.545   3.326
  904SOL    HW1 2749   0.996   2.484   3.329
  904SOL    HW2 2750   1.157   2.492   3.302
  905SOL     OW 2751   1.227   3.432   2.655
  905SOL    HW1 2752   1.248   3.506   2.590
  905SOL    HW2 2753   1.295   3.432   2.728
  906SOL     OW 2754   0.459   3.014   2.603
  906SOL    HW1 2755   0.388   2.987   2.668
  906SOL    HW2 2756   0.433   2.986   2.510
  907SOL     OW 2757   1.271   3.659   2.453
  907SOL    HW1 2758   1.315   3.723   2.389
  907SOL    HW2 2759   1.221   3.711   2.523
  908SOL     OW 2760   1.032   2.411   1.878
  908SOL    HW1 2761   0.991   2.493   1.839
  908SOL    HW2 2762   1.096   2.437   1.951
  909SOL     OW 2763   0.078   2.418   3.248
  909SOL    HW1 2764   0.170   2.417   3.207
  909SOL    HW2 2765   0.072   2.492   3.315
  910SOL     OW 2766   0.561   2.084   3.009
  910SOL    HW1 2767   0.599   2.000   3.046
  910SOL    HW2 2768   0.473   2.103   3.053
  911SOL     OW 2769   0.866   2.316   2.504
  911SOL    HW1 2770   0.834   2.388   2.442
  911SOL    HW2 2771   0.890   2.235   2.451
  912SOL     OW 2772   1.017   1.901   2.615
  912SOL    HW1 2773   0.945   1.906   2.546
  912SOL    HW2 2774   0.993   1.832   2.684
  913SOL     OW 2775   1.429   3.035   2.729
  913SOL    HW1 2776   1.374   2.951   2.722
  913SOL    HW2 2777   1.455   3.064   2.637
  914SOL     OW 2778   1.466   2.452   2.854
  914SOL    HW1 2779   1.436   2.357   2.861
  914SOL    HW2 2780   1.539   2.468   2.920
  915SOL     OW 2781   1.857   2.695   2.239
  915SOL    HW1 2782   1.899   2.631   2.303
  915SOL    HW2 2783   1.819   2.644   2.161
  916SOL     OW 2784   0.488   3.247   2.036
  916SOL    HW1 2785   0.401   3.232   2.083
  916SOL    HW2 2786   0.471   3.273   1.941
  917SOL     OW 2787   1.664   3.142   2.519
  917SOL    HW1 2788   1.763   3.150   2.533
  917SOL    HW2 2789   1.619   3.226   2.550
  918SOL     OW 2790   1.390   2.437   1.940
  918SOL    HW1 2791   1.336   2.416   2.021
  918SOL    HW2 2792   1.481   2.396   1.949
  919SOL     OW 2793   0.527   2.118   2.190
  919SOL    HW1 2794   0.554   2.059   2.115
  919SOL    HW2 2795   0.527   2.213   2.159
  920SOL     OW 2796   1.754   3.085   3.450
  920SOL    HW1 2797   1.845   3.046   3.437
  920SOL    HW2 2798   1.762   3.181   3.474
  921SOL     OW 2799   1.064   3.209   3.202
  921SOL    HW1 2800   0.984   3.186   3.257
  921SOL    HW2 2801   1.147   3.183   3.251
  922SOL     OW 2802   1.592   3.491   3.487
  922SOL    HW1 2803   1.619   3.525   3.397
  922SOL    HW2 2804   1.671   3.453   3.533
  923SOL     OW 2805   1.111   3.057   2.962
  923SOL    HW1 2806   1.071   3.101   3.043
  923SOL    HW2 2807   1.070   3.094   2.879
  924SOL     OW 2808   1.638   2.961   2.941
  924SOL    HW1 2809   1.643   3.042   3.000
  924SOL    HW2 2810   1.552   2.963   2.890
  925SOL     OW 2811   0.915   1.951   3.264
  925SOL    HW1 2812   0.940   1.931   3.169
  925SOL    HW2 2813   0.987   2.007   3.306
  926SOL     OW 2814   0.980   2.978   3.581
  926SOL    HW1 2815   0.881   2.984   3.591
  926SOL    HW2 2816   1.003   2.898   3.525
  927SOL     OW 2817   0.705   2.912   2.230
  927SOL    HW1 2818   0.691   2.919   2.329
  927SOL    HW2 2819   0.789   2.861   2.212
  928SOL     OW 2820   0.410   2.675   3.113
  928SOL    HW1 2821   0.496   2.687   3.163
  928SOL    HW2 2822   0.368   2.588   3.140
  929SOL     OW 2823   1.274   2.248   3.124
  929SOL    HW1 2824   1.295   2.322   3.188
  929SOL    HW2 2825   1.185   2.265   3.081
  930SOL     OW 2826   0.064   3.426   3.193
  930SOL    HW1 2827   0.018   3.508   3.159
  930SOL    HW2 2828   0.162   3.445   3.202
  931SOL     OW 2829   0.367   2.962   2.363
  931SOL    HW1 2830   0.360   3.045   2.307
  931SOL    HW2 2831   0.371   2.882   2.303
  932SOL     OW 2832   0.566   2.399   2.727
  932SOL    HW1 2833   0.578   2.465   2.653
  932SOL    HW2 2834   0.612   2.433   2.810
  933SOL     OW 2835   1.252   3.210   2.250
  933SOL    HW1 2836   1.302   3.287   2.290
  933SOL    HW2 2837   1.157   3.212   2.282
  934SOL     OW 2838   1.272   3.307   3.004
  934SOL    HW1 2839   1.319   3.320   3.091
  934SOL    HW2 2840   1.206   3.233   3.013
  935SOL     OW 2841   1.582   2.501   2.334
  935SOL    HW1 2842   1.551   2.562   2.407
  935SOL    HW2 2843   1.632   2.553   2.265
  936SOL     OW 2844   0.354   3.372   3.191
  936SOL    HW1 2845   0.333   3.328   3.104
  936SOL    HW2 2846   0.451   3.398   3.194
  937SOL     OW 2847   0.402   2.613   3.460
  937SOL    HW1 2848   0.470   2.668   3.413
  937SOL    HW2 2849   0.442   2.525   3.487
  938SOL     OW 2850   1.587   2.641   3.532
  938SOL    HW1 2851   1.495   2.679   3.527
  938SOL    HW2 2852   1.647   2.688   3.467
  939SOL     OW 2853   1.013   1.967   3.632
  939SOL    HW1 2854   1.019   2.052   3.580
  939SOL    HW2 2855   1.045   1.891   3.575
  940SOL     OW 2856   0.504   1.912   3.602
  940SOL    HW1 2857   0.462   1.855   3.532
  940SOL    HW2 2858   0.438   1.981   3.634
  941SOL     OW 2859   0.573   2.732   2.891
  941SOL    HW1 2860   0.617   2.821   2.882
  941SOL    HW2 2861   0.510   2.732   2.968
  942SOL     OW 2862   1.360   2.724   2.907
  942SOL    HW1 2863   1.285   2.724   2.841
  942SOL    HW2 2864   1.397   2.632   2.916
  943SOL     OW 2865   1.209   2.387   2.137
  943SOL    HW1 2866   1.222   2.303   2.191
  943SOL    HW2 2867   1.180   2.461   2.197
  944SOL     OW 2868   0.307   2.075   3.093
  944SOL    HW1 2869   0.284   2.112   3.183
  944SOL    HW2 2870   0.277   1.980   3.087
  945SOL     OW 2871   0.037   3.172   3.144
  945SOL    HW1 2872   0.090   3.123   3.212
  945SOL    HW2 2873   0.059   3.270   3.149
  946SOL     OW 2874   0.732   2.496   2.926
  946SOL    HW1 2875   0.791   2.470   2.850
  946SOL    HW2 2876   0.704   2.592   2.915
  947SOL     OW 2877   1.728   2.797   3.716
  947SOL    HW1 2878   1.682   2.790   3.627
  947SOL    HW2 2879   1.666   2.841   3.782
  948SOL     OW 2880   0.307   1.925   2.480
  948SOL    HW1 2881   0.296   2.019   2.513
  948SOL    HW2 2882   0.302   1.862   2.557
  949SOL     OW 2883   1.622   2.229   2.236
  949SOL    HW1 2884   1.624   2.153   2.300
  949SOL    HW2 2885   1.574   2.306   2.276
  950SOL     OW 2886   1.023   2.628   2.828
  950SOL    HW1 2887   1.038   2.649   2.924
  950SOL    HW2 2888   0.993   2.533   2.819
  951SOL     OW 2889   0.980   3.435   3.562
  951SOL    HW1 2890   0.960   3.479   3.474
  951SOL    HW2 2891   1.019   3.344   3.546
  952SOL     OW 2892   1.859   3.380   3.467
  952SOL    HW1 2893   1.873   3.407   3.372
  952SOL    HW2 2894   1.942   3.402   3.520
  953SOL     OW 2895   0.350   2.760   3.666
  953SOL    HW1 2896   0.426   2.804   3.714
  953SOL    HW2 2897   0.385   2.713   3.584
  954SOL     OW 2898   1.540   2.136   1.987
  954SOL    HW1 2899   1.479   2.061   2.010
  954SOL    HW2 2900   1.562   2.188   2.070
  955SOL     OW 2901   1.303   2.700   1.904
  955SOL    HW1 2902   1.337   2.607   1.919
  955SOL    HW2 2903   1.321   2.727   1.809
  956SOL     OW 2904   1.068   3.195   2.711
  956SOL    HW1 2905   1.075   3.111   2.656
  956SOL    HW2 2906   1.130   3.264   2.675
  957SOL     OW 2907   0.319   2.672   2.811
  957SOL    HW1 2908   0.412   2.708   2.816
  957SOL    HW2 2909   0.313   2.587   2.863
  958SOL     OW 2910   0.339   2.371   2.868
  958SOL    HW1 2911   0.287   2.288   2.851
  958SOL    HW2 2912   0.416   2.376   2.804
  959SOL     OW 2913   1.138   2.242   3.540
  959SOL    HW1 2914   1.093   2.305   3.604
  959SOL    HW2 2915   1.231   2.273   3.523
  960SOL     OW 2916   1.160   2.069   3.339
  960SOL    HW1 2917   1.160   2.133   3.416
  960SOL    HW2 2918   1.188   2.117   3.256
  961SOL     OW 2919   0.008   3.188   2.062
  961SOL    HW1 2920  -0.085   3.209   2.031
  961SOL    HW2 2921   0.018   3.089   2.075
  962SOL     OW 2922   0.088   3.663   2.789
  962SOL    HW1 2923   0.046   3.577   2.762
  962SOL    HW2 2924   0.182   3.666   2.755
  963SOL     OW 2925   0.504   3.430   2.772
  963SOL    HW1 2926   0.570   3.504   2.781
  963SOL    HW2 2927   0.548   3.351   2.730
  964SOL     OW 2928   1.002   2.658   3.100
  964SOL    HW1 2929   1.043   2.626   3.186
  964SOL    HW2 2930   0.906   2.631   3.097
  965SOL     OW 2931   0.040   2.406   2.976
  965SOL    HW1 2932   0.125   2.373   2.935
  965SOL    HW2 2933   0.053   2.421   3.074
  966SOL     OW 2934   0.189   2.382   3.584
  966SOL    HW1 2935   0.248   2.342   3.514
  966SOL    HW2 2936   0.131   2.453   3.543
  967SOL     OW 2937   1.369   2.812   3.522
  967SOL    HW1 2938   1.408   2.901   3.542
  967SOL    HW2 2939   1.379   2.792   3.425
  968SOL     OW 2940   0.815   2.434   2.187
  968SOL    HW1 2941   0.822   2.345   2.141
  968SOL    HW2 2942   0.721   2.468   2.179
  969SOL     OW 2943   1.657   2.466   3.068
  969SOL    HW1 2944   1.619   2.397   3.130
  969SOL    HW2 2945   1.739   2.430   3.024
  970SOL     OW 2946   0.252   3.426   3.606
  970SOL    HW1 2947   0.222   3.483   3.682
  970SOL    HW2 2948   0.245   3.329   3.632
  971SOL     OW 2949   0.671   2.326   3.131
  971SOL    HW1 2950   0.637   2.237   3.101
  971SOL    HW2 2951   0.697   2.380   3.051
  972SOL     OW 2952   0.930   3.540   3.327
  972SOL    HW1 2953   0.906   3.522   3.232
  972SOL    HW2 2954   0.960   3.634   3.337
  973SOL     OW 2955   0.473   2.362   2.053
  973SOL    HW1 2956   0.534   2.442   2.057
  973SOL    HW2 2957   0.378   2.393   2.060
  974SOL     OW 2958   0.159   2.999   3.328
  974SOL    HW1 2959   0.181   2.938   3.404
  974SOL    HW2 2960   0.169   2.950   3.242
  975SOL     OW 2961   1.347   2.921   3.096
  975SOL    HW1 2962   1.371   2.858   3.022
  975SOL    HW2 2963   1.257   2.961   3.078
  976SOL     OW 2964   1.302   2.717   2.171
  976SOL    HW1 2965   1.216   2.686   2.213
  976SOL    HW2 2966   1.298   2.703   2.072
  977SOL     OW 2967   1.759   3.609   3.016
  977SOL    HW1 2968   1.820   3.639   2.943
  977SOL    HW2 2969   1.721   3.520   2.994
  978SOL     OW 2970   1.252   3.593   2.990
  978SOL    HW1 2971   1.336   3.598   2.936
  978SOL    HW2 2972   1.229   3.497   3.008
  979SOL     OW 2973   0.083   3.120   2.884
  979SOL    HW1 2974   0.078   3.119   2.984
  979SOL    HW2 2975   0.000   3.079   2.846
  980SOL     OW 2976   0.688   3.524   3.578
  980SOL    HW1 2977   0.632   3.605   3.587
  980SOL    HW2 2978   0.740   3.528   3.492
  981SOL     OW 2979   1.726   1.997   2.385
  981SOL    HW1 2980   1.799   1.980   2.318
  981SOL    HW2 2981   1.695   1.910   2.423
  982SOL     OW 2982   1.388   3.435   2.339
  982SOL    HW1 2983   1.455   3.447   2.265
  982SOL    HW2 2984   1.348   3.524   2.362
  983SOL     OW 2985   0.130   3.656   3.713
  983SOL    HW1 2986   0.089   3.582   3.766
  983SOL    HW2 2987   0.194   3.707   3.771
  984SOL     OW 2988   1.280   2.789   2.534
  984SOL    HW1 2989   1.340   2.708   2.536
  984SOL    HW2 2990   1.320   2.858   2.474
  985SOL     OW 2991   0.830   3.135   3.284
  985SOL    HW1 2992   0.825   3.168   3.379
  985SOL    HW2 2993   0.744   3.154   3.238
  986SOL     OW 2994   0.672   3.478   2.016
  986SOL    HW1 2995   0.681   3.488   1.917
  986SOL    HW2 2996   0.632   3.389   2.037
  987SOL     OW 2997   1.650   3.582   3.256
  987SOL    HW1 2998   1.703   3.592   3.172
  987SOL    HW2 2999   1.623   3.672   3.290
  988SOL     OW 3000   1.841   2.037   2.825
  988SOL    HW1 3001   1.880   1.952   2.789
  988SOL    HW2 3002   1.743   2.039   2.806
  989SOL     OW 3003   0.263   2.188   2.582
  989SOL    HW1 3004   0.184   2.239   2.548
  989SOL    HW2 3005   0.254   2.173   2.680
  990SOL     OW 3006   1.194   3.474   1.893
  990SOL    HW1 3007   1.200   3.381   1.930
  990SOL    HW2 3008   1.135   3.474   1.813
  991SOL     OW 3009   0.822   2.864   3.234
  991SOL    HW1 3010   0.862   2.863   3.142
  991SOL    HW2 3011   0.832   2.956   3.274
  992SOL     OW 3012   0.916   2.772   2.153
  992SOL    HW1 3013   0.979   2.810   2.085
  992SOL    HW2 3014   0.956   2.689   2.192
  993SOL     OW 3015   1.504   3.469   1.906
  993SOL    HW1 3016   1.412   3.506   1.913
  993SOL    HW2 3017   1.542   3.489   1.816
  994SOL     OW 3018   0.372   3.150   3.352
  994SOL    HW1 3019   0.359   3.243   3.318
  994SOL    HW2 3020   0.288   3.098   3.339
  995SOL     OW 3021   1.614   3.154   3.151
  995SOL    HW1 3022   1.674   3.157   3.231
  995SOL    HW2 3023   1.539   3.218   3.164
  996SOL     OW 3024   1.039   2.960   2.558
  996SOL    HW1 3025   0.969   2.913   2.612
  996SOL    HW2 3026   1.098   2.892   2.515
  997SOL     OW 3027   1.014   2.098   2.833
  997SOL    HW1 3028   1.006   2.062   2.740
  997SOL    HW2 3029   1.012   2.022   2.898
  998SOL     OW 3030   0.590   3.349   2.353
  998SOL    HW1 3031   0.632   3.291   2.283
  998SOL    HW2 3032   0.546   3.428   2.309
  999SOL     OW 3033   1.709   2.247   3.243
  999SOL    HW1 3034   1.782   2.316   3.247
  999SOL    HW2 3035   1.737   2.172   3.184
 1000SOL     OW 3036   0.255   3.210   2.152
 1000SOL    HW1 3037   0.159   3.211   2.125
 1000SOL    HW2 3038   0.267   3.263   2.236
 1001SOL     OW 3039   0.105   2.875   3.588
 1001SOL    HW1 3040   0.028   2.842   3.642
 1001SOL    HW2 3041   0.190   2.845   3.630
 1002SOL     OW 3042   0.672   2.065   3.351
 1002SOL    HW1 3043   0.762   2.049   3.311
 1002SOL    HW2 3044   0.680   2.070   3.450
 1003SOL     OW 3045   0.075   2.207   1.895
 1003SOL    HW1 3046  -0.017   2.179   1.866
 1003SOL    HW2 3047   0.106   2.284   1.839
 1004SOL     OW 3048   1.440   2.718   3.260
 1004SOL    HW1 3049   1.383   2.770   3.197
 1004SOL    HW2 3050   1.536   2.730   3.236
 1005SOL     OW 3051   0.072   2.028   2.180
 1005SOL    HW1 3052   0.055   2.111   2.126
 1005SOL    HW2 3053   0.162   1.991   2.158
 1006SOL     OW 3054   1.183   3.197   1.981
 1006SOL    HW1 3055   1.084   3.186   1.983
 1006SOL    HW2 3056   1.217   3.212   2.074
 1007SOL     OW 3057   0.613   2.704   3.293
 1007SOL    HW1 3058   0.669   2.785   3.276
 1007SOL    HW2 3059   0.672   2.624   3.296
 1008SOL     OW 3060   1.493   3.629   2.821
 1008SOL    HW1 3061   1.526   3.693   2.752
 1008SOL    HW2 3062   1.559   3.623   2.896
 1009SOL     OW 3063   0.716   2.427   3.570
 1009SOL    HW1 3064   0.735   2.492   3.644
 1009SOL    HW2 3065   0.776   2.347   3.579
 1010SOL     OW 3066   1.450   3.082   3.495
 1010SOL    HW1 3067   1.441   3.072   3.594
 1010SOL    HW2 3068   1.546   3.075   3.469
 1011SOL     OW 3069   0.390   3.603   3.422
 1011SOL    HW1 3070   0.299   3.644   3.420
 1011SOL    HW2 3071   0.383   3.509   3.454
 1012SOL     OW 3072   1.674   2.745   3.116
 1012SOL    HW1 3073   1.647   2.656   3.079
 1012SOL    HW2 3074   1.675   2.813   3.043
 1013SOL     OW 3075   1.225   2.187   2.311
 1013SOL    HW1 3076   1.290   2.113   2.300
 1013SOL    HW2 3077   1.245   2.237   2.395
 1014SOL     OW 3078   0.594   2.607   2.514
 1014SOL    HW1 3079   0.644   2.692   2.495
 1014SOL    HW2 3080   0.506   2.609   2.466
 1015SOL     OW 3081   1.777   2.204   3.504
 1015SOL    HW1 3082   1.760   2.235   3.410
 1015SOL    HW2 3083   1.693   2.167   3.542
 1016SOL     OW 3084   1.730   2.796   3.379
 1016SOL    HW1 3085   1.768   2.887   3.394
 1016SOL    HW2 3086   1.722   2.779   3.280
 1017SOL     OW 3087   0.859   3.236   1.878
 1017SOL    HW1 3088   0.813   3.251   1.966
 1017SOL    HW2 3089   0.903   3.321   1.848
 1018SOL     OW 3090   0.661   3.652   2.815
 1018SOL    HW1 3091   0.615   3.740   2.802
 1018SOL    HW2 3092   0.760   3.664   2.808
 1019SOL     OW 3093   0.859   2.818   2.723
 1019SOL    HW1 3094   0.913   2.749   2.771
 1019SOL    HW2 3095   0.827   2.887   2.789
 1020SOL     OW 3096   1.083   2.846   1.949
 1020SOL    HW1 3097   1.060   2.899   1.867
 1020SOL    HW2 3098   1.164   2.790   1.930
 1021SOL     OW 3099   1.861   3.431   2.713
 1021SOL    HW1 3100   1.790   3.419   2.643
 1021SOL    HW2 3101   1.862   3.352   2.773
 1022SOL     OW 3102   0.221   3.176   3.706
 1022SOL    HW1 3103   0.156   3.103   3.685
 1022SOL    HW2 3104   0.225   3.190   3.804
 1023SOL     OW 3105   0.079   3.102   2.515
 1023SOL    HW1 3106   0.078   3.055   2.603
 1023SOL    HW2 3107   0.161   3.074   2.464
 1024SOL     OW 3108   0.672   3.253   3.486
 1024SOL    HW1 3109   0.594   3.203   3.524
 1024SOL    HW2 3110   0.669   3.348   3.517
 1025SOL     OW 3111   1.824   2.054   3.089
 1025SOL    HW1 3112   1.820   1.964   3.133
 1025SOL    HW2 3113   1.827   2.043   2.990
 1026SOL     OW 3114   0.428   2.286   2.382
 1026SOL    HW1 3115   0.458   2.214   2.320
 1026SOL    HW2 3116   0.389   2.246   2.465
 1027SOL     OW 3117   1.705   3.349   2.966
 1027SOL    HW1 3118   1.612   3.324   2.939
 1027SOL    HW2 3119   1.731   3.299   3.048
 1028SOL     OW 3120   0.317   2.409   3.142
 1028SOL    HW1 3121   0.355   2.350   3.214
 1028SOL    HW2 3122   0.357   2.383   3.054
 1029SOL     OW 3123   0.812   3.448   2.549
 1029SOL    HW1 3124   0.844   3.458   2.455
 1029SOL    HW2 3125   0.733   3.386   2.551
 1030SOL     OW 3126   1.424   2.076   2.974
 1030SOL    HW1 3127   1.476   2.011   3.029
 1030SOL    HW2 3128   1.375   2.139   3.035
 1031SOL     OW 3129   1.001   1.896   3.016
 1031SOL    HW1 3130   0.938   1.824   2.985
 1031SOL    HW2 3131   1.094   1.860   3.016
 1032SOL     OW 3132   0.770   3.192   2.163
 1032SOL    HW1 3133   0.724   3.105   2.180
 1032SOL    HW2 3134   0.861   3.189   2.204
 1033SOL     OW 3135   0.618   3.429   3.146
 1033SOL    HW1 3136   0.613   3.511   3.203
 1033SOL    HW2 3137   0.707   3.426   3.101
 1034SOL     OW 3138   1.352   1.914   2.030
 1034SOL    HW1 3139   1.387   1.873   1.946
 1034SOL    HW2 3140   1.262   1.876   2.050
 1035SOL     OW 3141   1.300   2.315   2.553
 1035SOL    HW1 3142   1.241   2.395   2.557
 1035SOL    HW2 3143   1.315   2.280   2.646
 1036SOL     OW 3144   1.593   2.083   2.744
 1036SOL    HW1 3145   1.509   2.082   2.798
 1036SOL    HW2 3146   1.595   2.166   2.688
 1037SOL     OW 3147   0.039   2.939   2.162
 1037SOL    HW1 3148   0.138   2.928   2.153
 1037SOL    HW2 3149  -0.001   2.853   2.194
 1038SOL     OW 3150   0.875   3.508   2.199
 1038SOL    HW1 3151   0.798   3.473   2.145
 1038SOL    HW2 3152   0.843   3.579   2.261
 1039SOL     OW 3153   0.230   2.490   3.837
 1039SOL    HW1 3154   0.137   2.488   3.874
 1039SOL    HW2 3155   0.231   2.451   3.745
 1040SOL     OW 3156   0.225   2.137   4.720
 1040SOL    HW1 3157   0.260   2.120   4.812
 1040SOL    HW2 3158   0.137   2.092   4.708
 1041SOL     OW 3159   0.019   2.230   4.371
 1041SOL    HW1 3160  -0.063   2.273   4.410
 1041SOL    HW2 3161  -0.009   2.157   4.308
 1042SOL     OW 3162   0.569   3.137   4.889
 1042SOL    HW1 3163   0.476   3.130   4.852
 1042SOL    HW2 3164   0.580   3.226   4.933
 1043SOL     OW 3165   1.555   3.373   4.427
 1043SOL    HW1 3166   1.498   3.357   4.508
 1043SOL    HW2 3167   1.496   3.383   4.347
 1044SOL     OW 3168   1.135   2.565   4.441
 1044SOL    HW1 3169   1.192   2.643   4.416
 1044SOL    HW2 3170   1.075   2.591   4.517
 1045SOL     OW 3171   1.755   2.469   3.955
 1045SOL    HW1 3172   1.743   2.456   3.856
 1045SOL    HW2 3173   1.725   2.388   4.004
 1046SOL     OW 3174   0.768   3.006   4.747
 1046SOL    HW1 3175   0.690   3.023   4.807
 1046SOL    HW2 3176   0.802   3.093   4.711
 1047SOL     OW 3177   0.685   2.874   4.389
 1047SOL    HW1 3178   0.754   2.858   4.459
 1047SOL    HW2 3179   0.612   2.931   4.427
 1048SOL     OW 3180   0.686   3.023   5.527
 1048SOL    HW1 3181   0.746   3.102   5.541
 1048SOL    HW2 3182   0.600   3.054   5.486
 1049SOL     OW 3183   0.335   3.297   4.785
 1049SOL    HW1 3184   0.257   3.266   4.732
 1049SOL    HW2 3185   0.393   3.355   4.728
 1050SOL     OW 3186   1.460   3.367   5.063
 1050SOL    HW1 3187   1.484   3.461   5.089
 1050SOL    HW2 3188   1.444   3.313   5.145
 1051SOL     OW 3189   0.438   2.254   5.223
 1051SOL    HW1 3190   0.520   2.198   5.232
 1051SOL    HW2 3191   0.357   2.196   5.227
 1052SOL     OW 3192   1.603   2.309   4.461
 1052SOL    HW1 3193   1.529   2.355   4.411
 1052SOL    HW2 3194   1.654   2.377   4.514
 1053SOL     OW 3195   0.231   3.575   4.207
 1053SOL    HW1 3196   0.265   3.652   4.261
 1053SOL    HW2 3197   0.275   3.575   4.117
 1054SOL     OW 3198   0.230   3.296   4.262
 1054SOL    HW1 3199   0.204   3.392   4.262
 1054SOL    HW2 3200   0.159   3.242   4.307
 1055SOL     OW 3201   0.240   2.953   4.610
 1055SOL    HW1 3202   0.254   2.869   4.662
 1055SOL    HW2 3203   0.185   3.017   4.665
 1056SOL     OW 3204   0.620   3.648   5.163
 1056SOL    HW1 3205   0.528   3.631   5.198
 1056SOL    HW2 3206   0.648   3.740   5.189
 1057SOL     OW 3207   0.606   2.826   3.847
 1057SOL    HW1 3208   0.613   2.910   3.793
 1057SOL    HW2 3209   0.652   2.839   3.935
 1058SOL     OW 3210   1.594   1.976   5.204
 1058SOL    HW1 3211   1.576   2.043   5.132
 1058SOL    HW2 3212   1.591   2.022   5.293
 1059SOL     OW 3213   0.122   2.505   4.287
 1059SOL    HW1 3214   0.077   2.417   4.304
 1059SOL    HW2 3215   0.121   2.559   4.371
 1060SOL     OW 3216   1.842   3.629   4.083
 1060SOL    HW1 3217   1.896   3.600   4.163
 1060SOL    HW2 3218   1.872   3.719   4.054
 1061SOL     OW 3219   0.027   3.458   3.841
 1061SOL    HW1 3220   0.008   3.362   3.862
 1061SOL    HW2 3221  -0.006   3.516   3.916
 1062SOL     OW 3222   1.689   2.784   4.336
 1062SOL    HW1 3223   1.784   2.755   4.344
 1062SOL    HW2 3224   1.681   2.849   4.261
 1063SOL     OW 3225   1.641   2.970   4.156
 1063SOL    HW1 3226   1.727   2.972   4.104
 1063SOL    HW2 3227   1.655   3.017   4.244
 1064SOL     OW 3228   0.113   2.599   5.321
 1064SOL    HW1 3229   0.201   2.586   5.366
 1064SOL    HW2 3230   0.100   2.696   5.299
 1065SOL     OW 3231   0.613   3.227   4.450
 1065SOL    HW1 3232   0.564   3.140   4.459
 1065SOL    HW2 3233   0.590   3.270   4.363
 1066SOL     OW 3234   1.293   3.090   5.147
 1066SOL    HW1 3235   1.330   3.017   5.089
 1066SOL    HW2 3236   1.345   3.095   5.232
 1067SOL     OW 3237   0.809   1.866   4.226
 1067SOL    HW1 3238   0.849   1.957   4.217
 1067SOL    HW2 3239   0.709   1.874   4.232
 1068SOL     OW 3240   0.197   2.838   4.988
 1068SOL    HW1 3241   0.286   2.793   4.974
 1068SOL    HW2 3242   0.124   2.773   4.969
 1069SOL     OW 3243   1.525   2.861   3.914
 1069SOL    HW1 3244   1.462   2.785   3.927
 1069SOL    HW2 3245   1.573   2.879   4.000
 1070SOL     OW 3246   1.466   3.279   4.677
 1070SOL    HW1 3247   1.407   3.285   4.757
 1070SOL    HW2 3248   1.451   3.191   4.631
 1071SOL     OW 3249   1.667   3.576   4.296
 1071SOL    HW1 3250   1.626   3.553   4.208
 1071SOL    HW2 3251   1.649   3.502   4.361
 1072SOL     OW 3252   0.598   2.591   3.994
 1072SOL    HW1 3253   0.622   2.660   3.926
 1072SOL    HW2 3254   0.520   2.624   4.048
 1073SOL     OW 3255   1.281   2.207   4.668
 1073SOL    HW1 3256   1.195   2.157   4.655
 1073SOL    HW2 3257   1.343   2.153   4.724
 1074SOL     OW 3258   1.576   3.524   4.031
 1074SOL    HW1 3259   1.665   3.570   4.034
 1074SOL    HW2 3260   1.555   3.500   3.936
 1075SOL     OW 3261   0.807   2.467   5.189
 1075SOL    HW1 3262   0.760   2.464   5.278
 1075SOL    HW2 3263   0.756   2.412   5.123
 1076SOL     OW 3264   0.973   2.752   5.296
 1076SOL    HW1 3265   1.019   2.668   5.267
 1076SOL    HW2 3266   0.917   2.786   5.221
 1077SOL     OW 3267   0.991   2.272   4.966
 1077SOL    HW1 3268   0.914   2.306   5.020
 1077SOL    HW2 3269   0.957   2.221   4.887
 1078SOL     OW 3270   1.041   2.563   4.153
 1078SOL    HW1 3271   1.067   2.559   4.249
 1078SOL    HW2 3272   0.956   2.512   4.139
 1079SOL     OW 3273   0.076   2.673   4.513
 1079SOL    HW1 3274   0.175   2.661   4.522
 1079SOL    HW2 3275   0.052   2.768   4.534
 1080SOL     OW 3276   0.130   3.683   5.295
 1080SOL    HW1 3277   0.120   3.668   5.394
 1080SOL    HW2 3278   0.044   3.719   5.259
 1081SOL     OW 3279   0.865   2.210   3.919
 1081SOL    HW1 3280   0.924   2.273   3.870
 1081SOL    HW2 3281   0.884   2.116   3.890
 1082SOL     OW 3282   1.362   3.006   4.269
 1082SOL    HW1 3283   1.445   2.977   4.221
 1082SOL    HW2 3284   1.313   3.073   4.213
 1083SOL     OW 3285   0.550   2.058   4.609
 1083SOL    HW1 3286   0.545   2.053   4.709
 1083SOL    HW2 3287   0.552   2.154   4.580
 1084SOL     OW 3288   1.008   3.318   4.201
 1084SOL    HW1 3289   0.962   3.390   4.149
 1084SOL    HW2 3290   1.004   3.338   4.299
 1085SOL     OW 3291   0.351   3.663   4.577
 1085SOL    HW1 3292   0.401   3.577   4.583
 1085SOL    HW2 3293   0.416   3.740   4.574
 1086SOL     OW 3294   1.795   2.928   4.597
 1086SOL    HW1 3295   1.733   2.913   4.521
 1086SOL    HW2 3296   1.743   2.939   4.682
 1087SOL     OW 3297   0.321   2.805   3.966
 1087SOL    HW1 3298   0.403   2.844   3.924
 1087SOL    HW2 3299   0.294   2.723   3.917
 1088SOL     OW 3300   1.458   2.597   4.452
 1088SOL    HW1 3301   1.453   2.532   4.527
 1088SOL    HW2 3302   1.538   2.656   4.465
 1089SOL     OW 3303   1.111   3.638   3.961
 1089SOL    HW1 3304   1.051   3.576   4.011
 1089SOL    HW2 3305   1.142   3.594   3.876
 1090SOL     OW 3306   0.202   2.147   5.222
 1090SOL    HW1 3307   0.122   2.207   5.209
 1090SOL    HW2 3308   0.192   2.098   5.308
 1091SOL     OW 3309   1.632   3.239   3.805
 1091SOL    HW1 3310   1.600   3.333   3.795
 1091SOL    HW2 3311   1.556   3.176   3.793
 1092SOL     OW 3312   0.464   3.605   4.047
 1092SOL    HW1 3313   0.497   3.644   4.133
 1092SOL    HW2 3314   0.540   3.598   3.982
 1093SOL     OW 3315   1.400   1.969   4.150
 1093SOL    HW1 3316   1.376   1.932   4.060
 1093SOL    HW2 3317   1.499   1.985   4.154
 1094SOL     OW 3318   0.249   3.647   4.965
 1094SOL    HW1 3319   0.306   3.582   5.015
 1094SOL    HW2 3320   0.233   3.614   4.872
 1095SOL     OW 3321   0.940   3.560   4.628
 1095SOL    HW1 3322   1.020   3.503   4.649
 1095SOL    HW2 3323   0.891   3.520   4.551
 1096SOL     OW 3324   0.382   2.562   4.204
 1096SOL    HW1 3325   0.427   2.472   4.201
 1096SOL    HW2 3326   0.288   2.551   4.237
 1097SOL     OW 3327   0.614   1.984   3.841
 1097SOL    HW1 3328   0.712   1.962   3.848
 1097SOL    HW2 3329   0.583   1.967   3.748
 1098SOL     OW 3330   0.888   3.376   4.919
 1098SOL    HW1 3331   0.865   3.351   4.825
 1098SOL    HW2 3332   0.949   3.307   4.958
 1099SOL     OW 3333   1.351   2.452   5.157
 1099SOL    HW1 3334   1.379   2.409   5.242
 1099SOL    HW2 3335   1.376   2.548   5.158
 1100SOL     OW 3336   0.803   3.264   4.648
 1100SOL    HW1 3337   0.893   3.278   4.606
 1100SOL    HW2 3338   0.732   3.266   4.577
 1101SOL     OW 3339   0.922   2.365   4.623
 1101SOL    HW1 3340   0.897   2.356   4.527
 1101SOL    HW2 3341   0.970   2.283   4.654
 1102SOL     OW 3342   0.539   1.926   4.236
 1102SOL    HW1 3343   0.458   1.927   4.294
 1102SOL    HW2 3344   0.542   2.009   4.181
 1103SOL     OW 3345   1.434   3.050   3.765
 1103SOL    HW1 3346   1.466   2.974   3.822
 1103SOL    HW2 3347   1.342   3.077   3.795
 1104SOL     OW 3348   0.297   1.897   3.895
 1104SOL    HW1 3349   0.346   1.981   3.874
 1104SOL    HW2 3350   0.359   1.832   3.940
 1105SOL     OW 3351   0.935   2.098   4.204
 1105SOL    HW1 3352   0.887   2.139   4.126
 1105SOL    HW2 3353   1.034   2.096   4.185
 1106SOL     OW 3354   1.076   2.545   5.188
 1106SOL    HW1 3355   0.996   2.484   5.191
 1106SOL    HW2 3356   1.157   2.492   5.164
 1107SOL     OW 3357   1.227   3.432   4.517
 1107SOL    HW1 3358   1.248   3.506   4.452
 1107SOL    HW2 3359   1.295   3.432   4.590
 1108SOL     OW 3360   0.459   3.014   4.465
 1108SOL    HW1 3361   0.388   2.987   4.530
 1108SOL    HW2 3362   0.433   2.986   4.372
 1109SOL     OW 3363   1.271   3.659   4.315
 1109SOL    HW1 3364   1.315   3.723   4.251
 1109SOL    HW2 3365   1.221   3.711   4.385
 1110SOL     OW 3366   1.032   2.411   3.740
 1110SOL    HW1 3367   0.991   2.493   3.701
 1110SOL    HW2 3368   1.096   2.437   3.813
 1111SOL     OW 3369   0.078   2.418   5.110
 1111SOL    HW1 3370   0.170   2.417   5.069
 1111SOL    HW2 3371   0.072   2.492   5.177
 1112SOL     OW 3372   0.561   2.084   4.871
 1112SOL    HW1 3373   0.599   2.000   4.908
 1112SOL    HW2 3374   0.473   2.103   4.915
 1113SOL     OW 3375   0.866   2.316   4.366
 1113SOL    HW1 3376   0.834   2.388   4.304
 1113SOL    HW2 3377   0.890   2.235   4.313
 1114SOL     OW 3378   1.017   1.901   4.477
 1114SOL    HW1 3379   0.945   1.906   4.408
 1114SOL    HW2 3380   0.993   1.832   4.546
 1115SOL     OW 3381   1.429   3.035   4.591
 1115SOL    HW1 3382   1.374   2.951   4.584
 1115SOL    HW2 3383   1.455   3.064   4.499
 1116SOL     OW 3384   1.466   2.452   4.716
 1116SOL    HW1 3385   1.436   2.357   4.723
 1116SOL    HW2 3386   1.539   2.468   4.782
 1117SOL     OW 3387   1.857   2.695   4.101
 1117SOL    HW1 3388   1.899   2.631   4.165
 1117SOL    HW2 3389   1.819   2.644   4.023
 1118SOL     OW 3390   0.488   3.247   3.898
 1118SOL    HW1 3391   0.401   3.232   3.945
 1118SOL    HW2 3392   0.471   3.273   3.803
 1119SOL     OW 3393   1.664   3.142   4.381
 1119SOL    HW1 3394   1.763   3.150   4.395
 1119SOL    HW2 3395   1.619   3.226   4.412
 1120SOL     OW 3396   1.390   2.437   3.802
 1120SOL    HW1 3397   1.336   2.416   3.883
 1120SOL    HW2 3398   1.481   2.396   3.811
 1121SOL     OW 3399   0.527   2.118   4.052
 1121SOL    HW1 3400   0.554   2.059   3.977
 1121SOL    HW2 3401   0.527   2.213   4.021
 1122SOL     OW 3402   1.754   3.085   5.312
 1122SOL    HW1 3403   1.845   3.046   5.299
 1122SOL    HW2 3404   1.762   3.181   5.336
 1123SOL     OW 3405   1.064   3.209   5.064
 1123SOL    HW1 3406   0.984   3.186   5.119
 1123SOL    HW2 3407   1.147   3.183   5.113
 1124SOL     OW 3408   1.111   3.057   4.824
 1124SOL    HW1 3409   1.071   3.101   4.905
 1124SOL    HW2 3410   1.070   3.094   4.741
 1125SOL     OW 3411   1.638   2.961   4.803
 1125SOL    HW1 3412   1.643   3.042   4.862
 1125SOL    HW2 3413   1.552   2.963   4.752
 1126SOL     OW 3414   0.915   1.951   5.126
 1126SOL    HW1 3415   0.940   1.931   5.031
 1126SOL    HW2 3416   0.987   2.007   5.168
 1127SOL     OW 3417   0.705   2.912   4.092
 1127SOL    HW1 3418   0.691   2.919   4.191
 1127SOL    HW2 3419   0.789   2.861   4.074
 1128SOL     OW 3420   0.410   2.675   4.975
 1128SOL    HW1 3421   0.496   2.687   5.025
 1128SOL    HW2 3422   0.368   2.588   5.002
 1129SOL     OW 3423   1.274   2.248   4.986
 1129SOL    HW1 3424   1.295   2.322   5.050
 1129SOL    HW2 3425   1.185   2.265   4.943
 1130SOL     OW 3426   0.064   3.426   5.055
 1130SOL    HW1 3427   0.018   3.508   5.021
 1130SOL    HW2 3428   0.162   3.445   5.064
 1131SOL     OW 3429   0.367   2.962   4.225
 1131SOL    HW1 3430   0.360   3.045   4.169
 1131SOL    HW2 3431   0.371   2.882   4.165
 1132SOL     OW 3432   0.566   2.399   4.589
 1132SOL    HW1 3433   0.578   2.465   4.515
 1132SOL    HW2 3434   0.612   2.433   4.672
 1133SOL     OW 3435   1.252   3.210   4.112
 1133SOL    HW1 3436   1.302   3.287   4.152
 1133SOL    HW2 3437   1.157   3.212   4.144
 1134SOL     OW 3438   1.272   3.307   4.866
 1134SOL    HW1 3439   1.319   3.320   4.953
 1134SOL    HW2 3440   1.206   3.233   4.875
 1135SOL     OW 3441   1.582   2.501   4.196
 1135SOL    HW1 3442   1.551   2.562   4.269
 1135SOL    HW2 3443   1.632   2.553   4.127
 1136SOL     OW 3444   0.354   3.372   5.053
 1136SOL    HW1 3445   0.333   3.328   4.966
 1136SOL    HW2 3446   0.451   3.398   5.056
 1137SOL     OW 3447   0.402   2.613   5.322
 1137SOL    HW1 3448   0.470   2.668   5.275
 1137SOL    HW2 3449   0.442   2.525   5.349
 1138SOL     OW 3450   1.587   2.641   5.394
 1138SOL    HW1 3451   1.495   2.679   5.389
 1138SOL    HW2 3452   1.647   2.688   5.329
 1139SOL     OW 3453   0.573   2.732   4.753
 1139SOL    HW1 3454   0.617   2.821   4.744
 1139SOL    HW2 3455   0.510   2.732   4.830
 1140SOL     OW 3456   1.360   2.724   4.769
 1140SOL    HW1 3457   1.285   2.724   4.703
 1140SOL    HW2 3458   1.397   2.632   4.778
 1141SOL     OW 3459   1.209   2.387   3.999
 1141SOL    HW1 3460   1.222   2.303   4.053
 1141SOL    HW2 3461   1.180   2.461   4.059
 1142SOL     OW 3462   0.307   2.075   4.955
 1142SOL    HW1 3463   0.284   2.112   5.045
 1142SOL    HW2 3464   0.277   1.980   4.949
 1143SOL     OW 3465   0.037   3.172   5.006
 1143SOL    HW1 3466   0.090   3.123   5.074
 1143SOL    HW2 3467   0.059   3.270   5.011
 1144SOL     OW 3468   0.732   2.496   4.788
 1144SOL    HW1 3469   0.791   2.470   4.712
 1144SOL    HW2 3470   0.704   2.592   4.777
 1145SOL     OW 3471   0.307   1.925   4.342
 1145SOL    HW1 3472   0.296   2.019   4.375
 1145SOL    HW2 3473   0.302   1.862   4.419
 1146SOL     OW 3474   1.622   2.229   4.098
 1146SOL    HW1 3475   1.624   2.153   4.162
 1146SOL    HW2 3476   1.574   2.306   4.138
 1147SOL     OW 3477   1.023   2.628   4.690
 1147SOL    HW1 3478   1.038   2.649   4.786
 1147SOL    HW2 3479   0.993   2.533   4.681
 1148SOL     OW 3480   1.540   2.136   3.849
 1148SOL    HW1 3481   1.479   2.061   3.872
 1148SOL    HW2 3482   1.562   2.188   3.932
 1149SOL     OW 3483   1.303   2.700   3.766
 1149SOL    HW1 3484   1.337   2.607   3.781
 1149SOL    HW2 3485   1.321   2.727   3.671
 1150SOL     OW 3486   1.068   3.195   4.573
 1150SOL    HW1 3487   1.075   3.111   4.518
 1150SOL    HW2 3488   1.130   3.264   4.537
 1151SOL     OW 3489   0.319   2.672   4.673
 1151SOL    HW1 3490   0.412   2.708   4.678
 1151SOL    HW2 3491   0.313   2.587   4.725
 1152SOL     OW 3492   0.339   2.371   4.730
 1152SOL    HW1 3493   0.287   2.288   4.713
 1152SOL    HW2 3494   0.416   2.376   4.666
 1153SOL     OW 3495   1.160   2.069   5.201
 1153SOL    HW1 3496   1.160   2.133   5.278
 1153SOL    HW2 3497   1.188   2.117   5.118
 1154SOL     OW 3498   0.008   3.188   3.924
 1154SOL    HW1 3499  -0.085   3.209   3.893
 1154SOL    HW2 3500   0.018   3.089   3.937
 1155SOL     OW 3501   0.088   3.663   4.651
 1155SOL    HW1 3502   0.046   3.577   4.624
 1155SOL    HW2 3503   0.182   3.666   4.617
 1156SOL     OW 3504   0.504   3.430   4.634
 1156SOL    HW1 3505   0.570   3.504   4.643
 1156SOL    HW2 3506   0.548   3.351   4.592
 1157SOL     OW 3507   1.002   2.658   4.962
 1157SOL    HW1 3508   1.043   2.626   5.048
 1157SOL    HW2 3509   0.906   2.631   4.959
 1158SOL     OW 3510   0.040   2.406   4.838
 1158SOL    HW1 3511   0.125   2.373   4.797
 1158SOL    HW2 3512   0.053   2.421   4.936
 1159SOL     OW 3513   0.815   2.434   4.049
 1159SOL    HW1 3514   0.822   2.345   4.003
 1159SOL    HW2 3515   0.721   2.468   4.041
 1160SOL     OW 3516   1.657   2.466   4.930
 1160SOL    HW1 3517   1.619   2.397   4.992
 1160SOL    HW2 3518   1.739   2.430   4.886
 1161SOL     OW 3519   0.252   3.426   5.468
 1161SOL    HW1 3520   0.222   3.483   5.544
 1161SOL    HW2 3521   0.245   3.329   5.494
 1162SOL     OW 3522   0.671   2.326   4.993
 1162SOL    HW1 3523   0.637   2.237   4.963
 1162SOL    HW2 3524   0.697   2.380   4.913
 1163SOL     OW 3525   0.930   3.540   5.189
 1163SOL    HW1 3526   0.906   3.522   5.094
 1163SOL    HW2 3527   0.960   3.634   5.199
 1164SOL     OW 3528   0.473   2.362   3.915
 1164SOL    HW1 3529   0.534   2.442   3.919
 1164SOL    HW2 3530   0.378   2.393   3.922
 1165SOL     OW 3531   0.159   2.999   5.190
 1165SOL    HW1 3532   0.181   2.938   5.266
 1165SOL    HW2 3533   0.169   2.950   5.104
 1166SOL     OW 3534   1.347   2.921   4.958
 1166SOL    HW1 3535   1.371   2.858   4.884
 1166SOL    HW2 3536   1.257   2.961   4.940
 1167SOL     OW 3537   1.302   2.717   4.033
 1167SOL    HW1 3538   1.216   2.686   4.075
 1167SOL    HW2 3539   1.298   2.703   3.934
 1168SOL     OW 3540   1.759   3.609   4.878
 1168SOL    HW1 3541   1.820   3.639   4.805
 1168SOL    HW2 3542   1.721   3.520   4.856
 1169SOL     OW 3543   1.252   3.593   4.852
 1169SOL    HW1 3544   1.336   3.598   4.798
 1169SOL    HW2 3545   1.229   3.497   4.870
 1170SOL     OW 3546   0.083   3.120   4.746
 1170SOL    HW1 3547   0.078   3.119   4.846
 1170SOL    HW2 3548   0.000   3.079   4.708
 1171SOL     OW 3549   1.726   1.997   4.247
 1171SOL    HW1 3550   1.799   1.980   4.180
 1171SOL    HW2 3551   1.695   1.910   4.285
 1172SOL     OW 3552   1.388   3.435   4.201
 1172SOL    HW1 3553   1.455   3.447   4.127
 1172SOL    HW2 3554   1.348   3.524   4.224
 1173SOL     OW 3555   1.280   2.789   4.396
 1173SOL    HW1 3556   1.340   2.708   4.398
 1173SOL    HW2 3557   1.320   2.858   4.336
 1174SOL     OW 3558   0.830   3.135   5.146
 1174SOL    HW1 3559   0.825   3.168   5.241
 1174SOL    HW2 3560   0.744   3.154   5.100
 1175SOL     OW 3561   0.672   3.478   3.878
 1175SOL    HW1 3562   0.681   3.488   3.779
 1175SOL    HW2 3563   0.632   3.389   3.899
 1176SOL     OW 3564   1.650   3.582   5.118
 1176SOL    HW1 3565   1.703   3.592   5.034
 1176SOL    HW2 3566   1.623   3.672   5.152
 1177SOL     OW 3567   1.841   2.037   4.687
 1177SOL    HW1 3568   1.880   1.952   4.651
 1177SOL    HW2 3569   1.743   2.039   4.668
 1178SOL     OW 3570   0.263   2.188   4.444
 1178SOL    HW1 3571   0.184   2.239   4.410
 1178SOL    HW2 3572   0.254   2.173   4.542
 1179SOL     OW 3573   1.194   3.474   3.755
 1179SOL    HW1 3574   1.200   3.381   3.792
 1179SOL    HW2 3575   1.135   3.474   3.675
 1180SOL     OW 3576   0.822   2.864   5.096
 1180SOL    HW1 3577   0.862   2.863   5.004
 1180SOL    HW2 3578   0.832   2.956   5.136
 1181SOL     OW 3579   0.916   2.772   4.015
 1181SOL    HW1 3580   0.979   2.810   3.947
 1181SOL    HW2 3581   0.956   2.689   4.054
 1182SOL     OW 3582   1.504   3.469   3.768
 1182SOL    HW1 3583   1.412   3.506   3.775
 1182SOL    HW2 3584   1.542   3.489   3.678
 1183SOL     OW 3585   0.372   3.150   5.214
 1183SOL    HW1 3586   0.359   3.243   5.180
 1183SOL    HW2 3587   0.288   3.098   5.201
 1184SOL     OW 3588   1.614   3.154   5.013
 1184SOL    HW1 3589   1.674   3.157   5.093
 1184SOL    HW2 3590   1.539   3.218   5.026
 1185SOL     OW 3591   1.039   2.960   4.420
 1185SOL    HW1 3592   0.969   2.913   4.474
 1185SOL    HW2 3593   1.098   2.892   4.377
 1186SOL     OW 3594   1.014   2.098   4.695
 1186SOL    HW1 3595   1.006   2.062   4.602
 1186SOL    HW2 3596   1.012   2.022   4.760
 1187SOL     OW 3597   0.590   3.349   4.215
 1187SOL    HW1 3598   0.632   3.291   4.145
 1187SOL    HW2 3599   0.546   3.428   4.171
 1188SOL     OW 3600   1.709   2.247   5.105
 1188SOL    HW1 3601   1.782   2.316   5.109
 1188SOL    HW2 3602   1.737   2.172   5.046
 1189SOL     OW 3603   0.255   3.210   4.014
 1189SOL    HW1 3604   0.159   3.211   3.987
 1189SOL    HW2 3605   0.267   3.263   4.098
 1190SOL     OW 3606   0.105   2.875   5.450
 1190SOL    HW1 3607   0.028   2.842   5.504
 1190SOL    HW2 3608   0.190   2.845   5.492
 1191SOL     OW 3609   0.672   2.065   5.213
 1191SOL    HW1 3610   0.762   2.049   5.173
 1191SOL    HW2 3611   0.680   2.070   5.312
 1192SOL     OW 3612   0.075   2.207   3.757
 1192SOL    HW1 3613  -0.017   2.179   3.728
 1192SOL    HW2 3614   0.106   2.284   3.701
 1193SOL     OW 3615   1.440   2.718   5.122
 1193SOL    HW1 3616   1.383   2.770   5.059
 1193SOL    HW2 3617   1.536   2.730   5.098
 1194SOL     OW 3618   0.072   2.028   4.042
 1194SOL    HW1 3619   0.055   2.111   3.988
 1194SOL    HW2 3620   0.162   1.991   4.020
 1195SOL     OW 3621   1.183   3.197   3.843
 1195SOL    HW1 3622   1.084   3.186   3.845
 1195SOL    HW2 3623   1.217   3.212   3.936
 1196SOL     OW 3624   0.613   2.704   5.155
 1196SOL    HW1 3625   0.669   2.785   5.138
 1196SOL    HW2 3626   0.672   2.624   5.158
 1197SOL     OW 3627   1.493   3.629   4.683
 1197SOL    HW1 3628   1.526   3.693   4.614
 1197SOL    HW2 3629   1.559   3.623   4.758
 1198SOL     OW 3630   0.716   2.427   5.432
 1198SOL    HW1 3631   0.735   2.492   5.506
 1198SOL    HW2 3632   0.776   2.347   5.441
 1199SOL     OW 3633   0.390   3.603   5.284
 1199SOL    HW1 3634   0.299   3.644   5.282
 1199SOL    HW2 3635   0.383   3.509   5.316
 1200SOL     OW 3636   1.674   2.745   4.978
 1200SOL    HW1 3637   1.647   2.656   4.941
 1200SOL    HW2 3638   1.675   2.813   4.905
 1201SOL     OW 3639   1.225   2.187   4.173
 1201SOL    HW1 3640   1.290   2.113   4.162
 1201SOL    HW2 3641   1.245   2.237   4.257
 1202SOL     OW 3642   0.594   2.607   4.376
 1202SOL    HW1 3643   0.644   2.692   4.357
 1202SOL    HW2 3644   0.506   2.609   4.328
 1203SOL     OW 3645   1.777   2.204   5.366
 1203SOL    HW1 3646   1.760   2.235   5.272
 1203SOL    HW2 3647   1.693   2.167   5.404
 1204SOL     OW 3648   1.730   2.796   5.241
 1204SOL    HW1 3649   1.768   2.887   5.256
 1204SOL    HW2 3650   1.722   2.779   5.142
 1205SOL     OW 3651   0.859   3.236   3.740
 1205SOL    HW1 3652   0.813   3.251   3.828
 1205SOL    HW2 3653   0.903   3.321   3.710
 1206SOL     OW 3654   0.661   3.652   4.677
 1206SOL    HW1 3655   0.615   3.740   4.664
 1206SOL    HW2 3656   0.760   3.664   4.670
 1207SOL     OW 3657   0.859   2.818   4.585
 1207SOL    HW1 3658   0.913   2.749   4.633
 1207SOL    HW2 3659   0.827   2.887   4.651
 1208SOL     OW 3660   1.083   2.846   3.811
 1208SOL    HW1 3661   1.060   2.899   3.729
 1208SOL    HW2 3662   1.164   2.790   3.792
 1209SOL     OW 3663   1.861   3.431   4.575
 1209SOL    HW1 3664   1.790   3.419   4.505
 1209SOL    HW2 3665   1.862   3.352   4.635
 1210SOL     OW 3666   0.079   3.102   4.377
 1210SOL    HW1 3667   0.078   3.055   4.465
 1210SOL    HW2 3668   0.161   3.074   4.326
 1211SOL     OW 3669   0.672   3.253   5.348
 1211SOL    HW1 3670   0.594   3.203   5.386
 1211SOL    HW2 3671   0.669   3.348   5.379
 1212SOL     OW 3672   1.824   2.054   4.951
 1212SOL    HW1 3673   1.820   1.964   4.995
 1212SOL    HW2 3674   1.827   2.043   4.852
 1213SOL     OW 3675   0.428   2.286   4.244
 1213SOL    HW1 3676   0.458   2.214   4.182
 1213SOL    HW2 3677   0.389   2.246   4.327
 1214SOL     OW 3678   1.705   3.349   4.828
 1214SOL    HW1 3679   1.612   3.324   4.801
 1214SOL    HW2 3680   1.731   3.299   4.910
 1215SOL     OW 3681   0.317   2.409   5.004
 1215SOL    HW1 3682   0.355   2.350   5.076
 1215SOL    HW2 3683   0.357   2.383   4.916
 1216SOL     OW 3684   0.812   3.448   4.411
 1216SOL    HW1 3685   0.844   3.458   4.317
 1216SOL    HW2 3686   0.733   3.386   4.413
 1217SOL     OW 3687   1.424   2.076   4.836
 1217SOL    HW1 3688   1.476   2.011   4.891
 1217SOL    HW2 3689   1.375   2.139   4.897
 1218SOL     OW 3690   1.001   1.896   4.878
 1218SOL    HW1 3691   0.938   1.824   4.847
 1218SOL    HW2 3692   1.094   1.860   4.878
 1219SOL     OW 3693   0.770   3.192   4.025
 1219SOL    HW1 3694   0.724   3.105   4.042
 1219SOL    HW2 3695   0.861   3.189   4.066
 1220SOL     OW 3696   0.618   3.429   5.008
 1220SOL    HW1 3697   0.613   3.511   5.065
 1220SOL    HW2 3698   0.707   3.426   4.963
 1221SOL     OW 3699   1.352   1.914   3.892
 1221SOL    HW1 3700   1.387   1.873   3.808
 1221SOL    HW2 3701   1.262   1.876   3.912
 1222SOL     OW 3702   1.300   2.315   4.415
 1222SOL    HW1 3703   1.241   2.395   4.419
 1222SOL    HW2 3704   1.315   2.280   4.508
 1223SOL     OW 3705   1.593   2.083   4.606
 1223SOL    HW1 3706   1.509   2.082   4.660
 1223SOL    HW2 3707   1.595   2.166   4.550
 1224SOL     OW 3708   0.039   2.939   4.024
 1224SOL    HW1 3709   0.138   2.928   4.015
 1224SOL    HW2 3710  -0.001   2.853   4.056
 1225SOL     OW 3711   0.875   3.508   4.061
 1225SOL    HW1 3712   0.798   3.473   4.007
 1225SOL    HW2 3713   0.843   3.579   4.123
 1226SOL     OW 3714   0.230   4.352   0.113
 1226SOL    HW1 3715   0.137   4.350   0.150
 1226SOL    HW2 3716   0.231   4.313   0.021
 1227SOL     OW 3717   0.225   3.999   0.996
 1227SOL    HW1 3718   0.260   3.982   1.088
 1227SOL    HW2 3719   0.137   3.954   0.984
 1228SOL     OW 3720   0.019   4.092   0.647
 1228SOL    HW1 3721  -0.063   4.135   0.686
 1228SOL    HW2 3722  -0.009   4.019   0.584
 1229SOL     OW 3723   0.569   4.999   1.165
 1229SOL    HW1 3724   0.476   4.992   1.128
 1229SOL    HW2 3725   0.580   5.088   1.209
 1230SOL     OW 3726   1.555   5.235   0.703
 1230SOL    HW1 3727   1.498   5.219   0.784
 1230SOL    HW2 3728   1.496   5.245   0.623
 1231SOL     OW 3729   1.135   4.427   0.717
 1231SOL    HW1 3730   1.192   4.505   0.692
 1231SOL    HW2 3731   1.075   4.453   0.793
 1232SOL     OW 3732   1.755   4.331   0.231
 1232SOL    HW1 3733   1.743   4.318   0.132
 1232SOL    HW2 3734   1.725   4.250   0.280
 1233SOL     OW 3735   0.768   4.868   1.023
 1233SOL    HW1 3736   0.690   4.885   1.083
 1233SOL    HW2 3737   0.802   4.955   0.987
 1234SOL     OW 3738   0.850   4.522   1.823
 1234SOL    HW1 3739   0.846   4.598   1.888
 1234SOL    HW2 3740   0.872   4.558   1.732
 1235SOL     OW 3741   0.685   4.736   0.665
 1235SOL    HW1 3742   0.754   4.720   0.735
 1235SOL    HW2 3743   0.612   4.793   0.703
 1236SOL     OW 3744   0.686   4.885   1.803
 1236SOL    HW1 3745   0.746   4.964   1.817
 1236SOL    HW2 3746   0.600   4.916   1.762
 1237SOL     OW 3747   0.335   5.159   1.061
 1237SOL    HW1 3748   0.257   5.128   1.008
 1237SOL    HW2 3749   0.393   5.217   1.004
 1238SOL     OW 3750   1.460   5.229   1.339
 1238SOL    HW1 3751   1.484   5.323   1.365
 1238SOL    HW2 3752   1.444   5.175   1.421
 1239SOL     OW 3753   0.438   4.116   1.499
 1239SOL    HW1 3754   0.520   4.060   1.508
 1239SOL    HW2 3755   0.357   4.058   1.503
 1240SOL     OW 3756   1.603   4.171   0.737
 1240SOL    HW1 3757   1.529   4.217   0.687
 1240SOL    HW2 3758   1.654   4.239   0.790
 1241SOL     OW 3759   1.127   5.065   1.690
 1241SOL    HW1 3760   1.174   5.065   1.778
 1241SOL    HW2 3761   1.079   4.978   1.679
 1242SOL     OW 3762   0.230   5.158   0.538
 1242SOL    HW1 3763   0.204   5.254   0.538
 1242SOL    HW2 3764   0.159   5.104   0.583
 1243SOL     OW 3765   0.240   4.815   0.886
 1243SOL    HW1 3766   0.254   4.731   0.938
 1243SOL    HW2 3767   0.185   4.879   0.941
 1244SOL     OW 3768   0.606   4.688   0.123
 1244SOL    HW1 3769   0.613   4.772   0.069
 1244SOL    HW2 3770   0.652   4.701   0.211
 1245SOL     OW 3771   1.594   3.838   1.480
 1245SOL    HW1 3772   1.576   3.905   1.408
 1245SOL    HW2 3773   1.591   3.884   1.569
 1246SOL     OW 3774   0.122   4.367   0.563
 1246SOL    HW1 3775   0.077   4.279   0.580
 1246SOL    HW2 3776   0.121   4.421   0.647
 1247SOL     OW 3777   0.027   5.320   0.117
 1247SOL    HW1 3778   0.008   5.224   0.138
 1247SOL    HW2 3779  -0.006   5.378   0.192
 1248SOL     OW 3780   1.689   4.646   0.612
 1248SOL    HW1 3781   1.784   4.617   0.620
 1248SOL    HW2 3782   1.681   4.711   0.537
 1249SOL     OW 3783   1.641   4.832   0.432
 1249SOL    HW1 3784   1.727   4.834   0.380
 1249SOL    HW2 3785   1.655   4.879   0.520
 1250SOL     OW 3786   0.113   4.461   1.597
 1250SOL    HW1 3787   0.201   4.448   1.642
 1250SOL    HW2 3788   0.100   4.558   1.575
 1251SOL     OW 3789   0.613   5.089   0.726
 1251SOL    HW1 3790   0.564   5.002   0.735
 1251SOL    HW2 3791   0.590   5.132   0.639
 1252SOL     OW 3792   1.293   4.952   1.423
 1252SOL    HW1 3793   1.330   4.879   1.365
 1252SOL    HW2 3794   1.345   4.957   1.508
 1253SOL     OW 3795   0.809   3.728   0.502
 1253SOL    HW1 3796   0.849   3.819   0.493
 1253SOL    HW2 3797   0.709   3.736   0.508
 1254SOL     OW 3798   0.197   4.700   1.264
 1254SOL    HW1 3799   0.286   4.655   1.250
 1254SOL    HW2 3800   0.124   4.635   1.245
 1255SOL     OW 3801   1.525   4.723   0.190
 1255SOL    HW1 3802   1.462   4.647   0.203
 1255SOL    HW2 3803   1.573   4.741   0.276
 1256SOL     OW 3804   0.317   3.975   1.801
 1256SOL    HW1 3805   0.388   4.046   1.807
 1256SOL    HW2 3806   0.229   4.014   1.829
 1257SOL     OW 3807   1.466   5.141   0.953
 1257SOL    HW1 3808   1.407   5.147   1.033
 1257SOL    HW2 3809   1.451   5.053   0.907
 1258SOL     OW 3810   0.598   4.453   0.270
 1258SOL    HW1 3811   0.622   4.522   0.202
 1258SOL    HW2 3812   0.520   4.486   0.324
 1259SOL     OW 3813   1.281   4.069   0.944
 1259SOL    HW1 3814   1.195   4.019   0.931
 1259SOL    HW2 3815   1.343   4.015   1.000
 1260SOL     OW 3816   1.576   5.386   0.307
 1260SOL    HW1 3817   1.665   5.432   0.310
 1260SOL    HW2 3818   1.555   5.362   0.212
 1261SOL     OW 3819   0.807   4.329   1.465
 1261SOL    HW1 3820   0.760   4.326   1.554
 1261SOL    HW2 3821   0.756   4.274   1.399
 1262SOL     OW 3822   1.394   4.193   1.674
 1262SOL    HW1 3823   1.374   4.236   1.762
 1262SOL    HW2 3824   1.472   4.131   1.683
 1263SOL     OW 3825   0.973   4.614   1.572
 1263SOL    HW1 3826   1.019   4.530   1.543
 1263SOL    HW2 3827   0.917   4.648   1.497
 1264SOL     OW 3828   0.991   4.134   1.242
 1264SOL    HW1 3829   0.914   4.168   1.296
 1264SOL    HW2 3830   0.957   4.083   1.163
 1265SOL     OW 3831   1.041   4.425   0.429
 1265SOL    HW1 3832   1.067   4.421   0.525
 1265SOL    HW2 3833   0.956   4.374   0.415
 1266SOL     OW 3834   0.076   4.535   0.789
 1266SOL    HW1 3835   0.175   4.523   0.798
 1266SOL    HW2 3836   0.052   4.630   0.810
 1267SOL     OW 3837   0.865   4.072   0.195
 1267SOL    HW1 3838   0.924   4.135   0.146
 1267SOL    HW2 3839   0.884   3.978   0.166
 1268SOL     OW 3840   1.719   4.309   1.831
 1268SOL    HW1 3841   1.693   4.398   1.795
 1268SOL    HW2 3842   1.717   4.241   1.758
 1269SOL     OW 3843   1.362   4.868   0.545
 1269SOL    HW1 3844   1.445   4.839   0.497
 1269SOL    HW2 3845   1.313   4.935   0.489
 1270SOL     OW 3846   0.550   3.920   0.885
 1270SOL    HW1 3847   0.545   3.915   0.985
 1270SOL    HW2 3848   0.552   4.016   0.856
 1271SOL     OW 3849   1.008   5.180   0.477
 1271SOL    HW1 3850   0.962   5.252   0.425
 1271SOL    HW2 3851   1.004   5.200   0.575
 1272SOL     OW 3852   1.795   4.790   0.873
 1272SOL    HW1 3853   1.733   4.775   0.797
 1272SOL    HW2 3854   1.743   4.801   0.958
 1273SOL     OW 3855   1.227   5.274   1.506
 1273SOL    HW1 3856   1.233   5.197   1.570
 1273SOL    HW2 3857   1.175   5.248   1.426
 1274SOL     OW 3858   0.321   4.667   0.242
 1274SOL    HW1 3859   0.403   4.706   0.200
 1274SOL    HW2 3860   0.294   4.585   0.193
 1275SOL     OW 3861   1.458   4.459   0.728
 1275SOL    HW1 3862   1.453   4.394   0.803
 1275SOL    HW2 3863   1.538   4.518   0.741
 1276SOL     OW 3864   0.461   4.990   1.727
 1276SOL    HW1 3865   0.411   4.991   1.641
 1276SOL    HW2 3866   0.398   4.972   1.803
 1277SOL     OW 3867   0.202   4.009   1.498
 1277SOL    HW1 3868   0.122   4.069   1.485
 1277SOL    HW2 3869   0.192   3.960   1.584
 1278SOL     OW 3870   1.632   5.101   0.081
 1278SOL    HW1 3871   1.600   5.195   0.071
 1278SOL    HW2 3872   1.556   5.038   0.069
 1279SOL     OW 3873   1.400   3.831   0.426
 1279SOL    HW1 3874   1.376   3.794   0.336
 1279SOL    HW2 3875   1.499   3.847   0.430
 1280SOL     OW 3876   0.382   4.424   0.480
 1280SOL    HW1 3877   0.427   4.334   0.477
 1280SOL    HW2 3878   0.288   4.413   0.513
 1281SOL     OW 3879   1.547   3.946   1.729
 1281SOL    HW1 3880   1.542   3.983   1.821
 1281SOL    HW2 3881   1.475   3.877   1.717
 1282SOL     OW 3882   0.614   3.846   0.117
 1282SOL    HW1 3883   0.712   3.824   0.124
 1282SOL    HW2 3884   0.583   3.829   0.024
 1283SOL     OW 3885   0.781   3.988   1.749
 1283SOL    HW1 3886   0.848   3.927   1.792
 1283SOL    HW2 3887   0.708   4.007   1.814
 1284SOL     OW 3888   1.351   4.314   1.433
 1284SOL    HW1 3889   1.379   4.271   1.518
 1284SOL    HW2 3890   1.376   4.410   1.434
 1285SOL     OW 3891   0.803   5.126   0.924
 1285SOL    HW1 3892   0.893   5.140   0.882
 1285SOL    HW2 3893   0.732   5.128   0.853
 1286SOL     OW 3894   0.922   4.227   0.899
 1286SOL    HW1 3895   0.897   4.218   0.803
 1286SOL    HW2 3896   0.970   4.145   0.930
 1287SOL     OW 3897   0.539   3.788   0.512
 1287SOL    HW1 3898   0.458   3.789   0.570
 1287SOL    HW2 3899   0.542   3.871   0.457
 1288SOL     OW 3900   1.434   4.912   0.041
 1288SOL    HW1 3901   1.466   4.836   0.098
 1288SOL    HW2 3902   1.342   4.939   0.071
 1289SOL     OW 3903   0.297   3.759   0.171
 1289SOL    HW1 3904   0.346   3.843   0.150
 1289SOL    HW2 3905   0.359   3.694   0.216
 1290SOL     OW 3906   0.935   3.960   0.480
 1290SOL    HW1 3907   0.887   4.001   0.402
 1290SOL    HW2 3908   1.034   3.958   0.461
 1291SOL     OW 3909   1.076   4.407   1.464
 1291SOL    HW1 3910   0.996   4.346   1.467
 1291SOL    HW2 3911   1.157   4.354   1.440
 1292SOL     OW 3912   1.227   5.294   0.793
 1292SOL    HW1 3913   1.248   5.368   0.728
 1292SOL    HW2 3914   1.295   5.294   0.866
 1293SOL     OW 3915   0.459   4.876   0.741
 1293SOL    HW1 3916   0.388   4.849   0.806
 1293SOL    HW2 3917   0.433   4.848   0.648
 1294SOL     OW 3918   1.032   4.273   0.016
 1294SOL    HW1 3919   0.991   4.355  -0.023
 1294SOL    HW2 3920   1.096   4.299   0.089
 1295SOL     OW 3921   0.078   4.280   1.386
 1295SOL    HW1 3922   0.170   4.279   1.345
 1295SOL    HW2 3923   0.072   4.354   1.453
 1296SOL     OW 3924   0.561   3.946   1.147
 1296SOL    HW1 3925   0.599   3.862   1.184
 1296SOL    HW2 3926   0.473   3.965   1.191
 1297SOL     OW 3927   0.866   4.178   0.642
 1297SOL    HW1 3928   0.834   4.250   0.580
 1297SOL    HW2 3929   0.890   4.097   0.589
 1298SOL     OW 3930   1.017   3.763   0.753
 1298SOL    HW1 3931   0.945   3.768   0.684
 1298SOL    HW2 3932   0.993   3.694   0.822
 1299SOL     OW 3933   1.429   4.897   0.867
 1299SOL    HW1 3934   1.374   4.813   0.860
 1299SOL    HW2 3935   1.455   4.926   0.775
 1300SOL     OW 3936   1.466   4.314   0.992
 1300SOL    HW1 3937   1.436   4.219   0.999
 1300SOL    HW2 3938   1.539   4.330   1.058
 1301SOL     OW 3939   1.857   4.557   0.377
 1301SOL    HW1 3940   1.899   4.493   0.441
 1301SOL    HW2 3941   1.819   4.506   0.299
 1302SOL     OW 3942   0.488   5.109   0.174
 1302SOL    HW1 3943   0.401   5.094   0.221
 1302SOL    HW2 3944   0.471   5.135   0.079
 1303SOL     OW 3945   1.664   5.004   0.657
 1303SOL    HW1 3946   1.763   5.012   0.671
 1303SOL    HW2 3947   1.619   5.088   0.688
 1304SOL     OW 3948   1.390   4.299   0.078
 1304SOL    HW1 3949   1.336   4.278   0.159
 1304SOL    HW2 3950   1.481   4.258   0.087
 1305SOL     OW 3951   0.527   3.980   0.328
 1305SOL    HW1 3952   0.554   3.921   0.253
 1305SOL    HW2 3953   0.527   4.075   0.297
 1306SOL     OW 3954   1.754   4.947   1.588
 1306SOL    HW1 3955   1.845   4.908   1.575
 1306SOL    HW2 3956   1.762   5.043   1.612
 1307SOL     OW 3957   1.064   5.071   1.340
 1307SOL    HW1 3958   0.984   5.048   1.395
 1307SOL    HW2 3959   1.147   5.045   1.389
 1308SOL     OW 3960   1.111   4.919   1.100
 1308SOL    HW1 3961   1.071   4.963   1.181
 1308SOL    HW2 3962   1.070   4.956   1.017
 1309SOL     OW 3963   1.638   4.823   1.079
 1309SOL    HW1 3964   1.643   4.904   1.138
 1309SOL    HW2 3965   1.552   4.825   1.028
 1310SOL     OW 3966   0.915   3.813   1.402
 1310SOL    HW1 3967   0.940   3.793   1.307
 1310SOL    HW2 3968   0.987   3.869   1.444
 1311SOL     OW 3969   0.980   4.840   1.719
 1311SOL    HW1 3970   0.881   4.846   1.729
 1311SOL    HW2 3971   1.003   4.760   1.663
 1312SOL     OW 3972   0.705   4.774   0.368
 1312SOL    HW1 3973   0.691   4.781   0.467
 1312SOL    HW2 3974   0.789   4.723   0.350
 1313SOL     OW 3975   0.410   4.537   1.251
 1313SOL    HW1 3976   0.496   4.549   1.301
 1313SOL    HW2 3977   0.368   4.450   1.278
 1314SOL     OW 3978   1.274   4.110   1.262
 1314SOL    HW1 3979   1.295   4.184   1.326
 1314SOL    HW2 3980   1.185   4.127   1.219
 1315SOL     OW 3981   0.064   5.288   1.331
 1315SOL    HW1 3982   0.018   5.370   1.297
 1315SOL    HW2 3983   0.162   5.307   1.340
 1316SOL     OW 3984   0.367   4.824   0.501
 1316SOL    HW1 3985   0.360   4.907   0.445
 1316SOL    HW2 3986   0.371   4.744   0.441
 1317SOL     OW 3987   0.566   4.261   0.865
 1317SOL    HW1 3988   0.578   4.327   0.791
 1317SOL    HW2 3989   0.612   4.295   0.948
 1318SOL     OW 3990   1.252   5.072   0.388
 1318SOL    HW1 3991   1.302   5.149   0.428
 1318SOL    HW2 3992   1.157   5.074   0.420
 1319SOL     OW 3993   1.272   5.169   1.142
 1319SOL    HW1 3994   1.319   5.182   1.229
 1319SOL    HW2 3995   1.206   5.095   1.151
 1320SOL     OW 3996   1.582   4.363   0.472
 1320SOL    HW1 3997   1.551   4.424   0.545
 1320SOL    HW2 3998   1.632   4.415   0.403
 1321SOL     OW 3999   0.354   5.234   1.329
 1321SOL    HW1 4000   0.333   5.190   1.242
 1321SOL    HW2 4001   0.451   5.260   1.332
 1322SOL     OW 4002   0.402   4.475   1.598
 1322SOL    HW1 4003   0.470   4.530   1.551
 1322SOL    HW2 4004   0.442   4.387   1.625
 1323SOL     OW 4005   1.587   4.503   1.670
 1323SOL    HW1 4006   1.495   4.541   1.665
 1323SOL    HW2 4007   1.647   4.550   1.605
 1324SOL     OW 4008   1.013   3.829   1.770
 1324SOL    HW1 4009   1.019   3.914   1.718
 1324SOL    HW2 4010   1.045   3.753   1.713
 1325SOL     OW 4011   0.504   3.774   1.740
 1325SOL    HW1 4012   0.462   3.717   1.670
 1325SOL    HW2 4013   0.438   3.843   1.772
 1326SOL     OW 4014   0.573   4.594   1.029
 1326SOL    HW1 4015   0.617   4.683   1.020
 1326SOL    HW2 4016   0.510   4.594   1.106
 1327SOL     OW 4017   1.360   4.586   1.045
 1327SOL    HW1 4018   1.285   4.586   0.979
 1327SOL    HW2 4019   1.397   4.494   1.054
 1328SOL     OW 4020   1.209   4.249   0.275
 1328SOL    HW1 4021   1.222   4.165   0.329
 1328SOL    HW2 4022   1.180   4.323   0.335
 1329SOL     OW 4023   0.307   3.937   1.231
 1329SOL    HW1 4024   0.284   3.974   1.321
 1329SOL    HW2 4025   0.277   3.842   1.225
 1330SOL     OW 4026   0.037   5.034   1.282
 1330SOL    HW1 4027   0.090   4.985   1.350
 1330SOL    HW2 4028   0.059   5.132   1.287
 1331SOL     OW 4029   0.732   4.358   1.064
 1331SOL    HW1 4030   0.791   4.332   0.988
 1331SOL    HW2 4031   0.704   4.454   1.053
 1332SOL     OW 4032   1.728   4.659   1.854
 1332SOL    HW1 4033   1.682   4.652   1.765
 1332SOL    HW2 4034   1.666   4.703   1.920
 1333SOL     OW 4035   0.307   3.787   0.618
 1333SOL    HW1 4036   0.296   3.881   0.651
 1333SOL    HW2 4037   0.302   3.724   0.695
 1334SOL     OW 4038   1.622   4.091   0.374
 1334SOL    HW1 4039   1.624   4.015   0.438
 1334SOL    HW2 4040   1.574   4.168   0.414
 1335SOL     OW 4041   1.023   4.490   0.966
 1335SOL    HW1 4042   1.038   4.511   1.062
 1335SOL    HW2 4043   0.993   4.395   0.957
 1336SOL     OW 4044   1.859   5.242   1.605
 1336SOL    HW1 4045   1.873   5.269   1.510
 1336SOL    HW2 4046   1.942   5.264   1.658
 1337SOL     OW 4047   0.350   4.622   1.804
 1337SOL    HW1 4048   0.426   4.666   1.852
 1337SOL    HW2 4049   0.385   4.575   1.722
 1338SOL     OW 4050   1.540   3.998   0.125
 1338SOL    HW1 4051   1.479   3.923   0.148
 1338SOL    HW2 4052   1.562   4.050   0.208
 1339SOL     OW 4053   1.303   4.562   0.042
 1339SOL    HW1 4054   1.337   4.469   0.057
 1339SOL    HW2 4055   1.321   4.589  -0.053
 1340SOL     OW 4056   1.068   5.057   0.849
 1340SOL    HW1 4057   1.075   4.973   0.794
 1340SOL    HW2 4058   1.130   5.126   0.813
 1341SOL     OW 4059   0.319   4.534   0.949
 1341SOL    HW1 4060   0.412   4.570   0.954
 1341SOL    HW2 4061   0.313   4.449   1.001
 1342SOL     OW 4062   0.339   4.233   1.006
 1342SOL    HW1 4063   0.287   4.150   0.989
 1342SOL    HW2 4064   0.416   4.238   0.942
 1343SOL     OW 4065   1.138   4.104   1.678
 1343SOL    HW1 4066   1.093   4.167   1.742
 1343SOL    HW2 4067   1.231   4.135   1.661
 1344SOL     OW 4068   1.160   3.931   1.477
 1344SOL    HW1 4069   1.160   3.995   1.554
 1344SOL    HW2 4070   1.188   3.979   1.394
 1345SOL     OW 4071   0.008   5.050   0.200
 1345SOL    HW1 4072  -0.085   5.071   0.169
 1345SOL    HW2 4073   0.018   4.951   0.213
 1346SOL     OW 4074   0.504   5.292   0.910
 1346SOL    HW1 4075   0.570   5.366   0.919
 1346SOL    HW2 4076   0.548   5.213   0.868
 1347SOL     OW 4077   1.002   4.520   1.238
 1347SOL    HW1 4078   1.043   4.488   1.324
 1347SOL    HW2 4079   0.906   4.493   1.235
 1348SOL     OW 4080   0.040   4.268   1.114
 1348SOL    HW1 4081   0.125   4.235   1.073
 1348SOL    HW2 4082   0.053   4.283   1.212
 1349SOL     OW 4083   0.189   4.244   1.722
 1349SOL    HW1 4084   0.248   4.204   1.652
 1349SOL    HW2 4085   0.131   4.315   1.681
 1350SOL     OW 4086   1.369   4.674   1.660
 1350SOL    HW1 4087   1.408   4.763   1.680
 1350SOL    HW2 4088   1.379   4.654   1.563
 1351SOL     OW 4089   0.815   4.296   0.325
 1351SOL    HW1 4090   0.822   4.207   0.279
 1351SOL    HW2 4091   0.721   4.330   0.317
 1352SOL     OW 4092   1.657   4.328   1.206
 1352SOL    HW1 4093   1.619   4.259   1.268
 1352SOL    HW2 4094   1.739   4.292   1.162
 1353SOL     OW 4095   0.252   5.288   1.744
 1353SOL    HW1 4096   0.222   5.345   1.820
 1353SOL    HW2 4097   0.245   5.191   1.770
 1354SOL     OW 4098   0.671   4.188   1.269
 1354SOL    HW1 4099   0.637   4.099   1.239
 1354SOL    HW2 4100   0.697   4.242   1.189
 1355SOL     OW 4101   0.473   4.224   0.191
 1355SOL    HW1 4102   0.534   4.304   0.195
 1355SOL    HW2 4103   0.378   4.255   0.198
 1356SOL     OW 4104   0.159   4.861   1.466
 1356SOL    HW1 4105   0.181   4.800   1.542
 1356SOL    HW2 4106   0.169   4.812   1.380
 1357SOL     OW 4107   1.347   4.783   1.234
 1357SOL    HW1 4108   1.371   4.720   1.160
 1357SOL    HW2 4109   1.257   4.823   1.216
 1358SOL     OW 4110   1.302   4.579   0.309
 1358SOL    HW1 4111   1.216   4.548   0.351
 1358SOL    HW2 4112   1.298   4.565   0.210
 1359SOL     OW 4113   0.083   4.982   1.022
 1359SOL    HW1 4114   0.078   4.981   1.122
 1359SOL    HW2 4115   0.000   4.941   0.984
 1360SOL     OW 4116   0.903   3.810   0.133
 1360SOL    HW1 4117   0.954   3.811   0.047
 1360SOL    HW2 4118   0.959   3.768   0.204
 1361SOL     OW 4119   1.726   3.859   0.523
 1361SOL    HW1 4120   1.799   3.842   0.456
 1361SOL    HW2 4121   1.695   3.772   0.561
 1362SOL     OW 4122   1.280   4.651   0.672
 1362SOL    HW1 4123   1.340   4.570   0.674
 1362SOL    HW2 4124   1.320   4.720   0.612
 1363SOL     OW 4125   0.830   4.997   1.422
 1363SOL    HW1 4126   0.825   5.030   1.517
 1363SOL    HW2 4127   0.744   5.016   1.376
 1364SOL     OW 4128   1.841   3.899   0.963
 1364SOL    HW1 4129   1.880   3.814   0.927
 1364SOL    HW2 4130   1.743   3.901   0.944
 1365SOL     OW 4131   0.263   4.050   0.720
 1365SOL    HW1 4132   0.184   4.101   0.686
 1365SOL    HW2 4133   0.254   4.035   0.818
 1366SOL     OW 4134   1.194   5.336   0.031
 1366SOL    HW1 4135   1.200   5.243   0.068
 1366SOL    HW2 4136   1.135   5.336  -0.049
 1367SOL     OW 4137   0.822   4.726   1.372
 1367SOL    HW1 4138   0.862   4.725   1.280
 1367SOL    HW2 4139   0.832   4.818   1.412
 1368SOL     OW 4140   0.916   4.634   0.291
 1368SOL    HW1 4141   0.979   4.672   0.223
 1368SOL    HW2 4142   0.956   4.551   0.330
 1369SOL     OW 4143   0.372   5.012   1.490
 1369SOL    HW1 4144   0.359   5.105   1.456
 1369SOL    HW2 4145   0.288   4.960   1.477
 1370SOL     OW 4146   1.614   5.016   1.289
 1370SOL    HW1 4147   1.674   5.019   1.369
 1370SOL    HW2 4148   1.539   5.080   1.302
 1371SOL     OW 4149   1.039   4.822   0.696
 1371SOL    HW1 4150   0.969   4.775   0.750
 1371SOL    HW2 4151   1.098   4.754   0.653
 1372SOL     OW 4152   1.014   3.960   0.971
 1372SOL    HW1 4153   1.006   3.924   0.878
 1372SOL    HW2 4154   1.012   3.884   1.036
 1373SOL     OW 4155   0.590   5.211   0.491
 1373SOL    HW1 4156   0.632   5.153   0.421
 1373SOL    HW2 4157   0.546   5.290   0.447
 1374SOL     OW 4158   1.709   4.109   1.381
 1374SOL    HW1 4159   1.782   4.178   1.385
 1374SOL    HW2 4160   1.737   4.034   1.322
 1375SOL     OW 4161   0.255   5.072   0.290
 1375SOL    HW1 4162   0.159   5.073   0.263
 1375SOL    HW2 4163   0.267   5.125   0.374
 1376SOL     OW 4164   0.105   4.737   1.726
 1376SOL    HW1 4165   0.028   4.704   1.780
 1376SOL    HW2 4166   0.190   4.707   1.768
 1377SOL     OW 4167   0.672   3.927   1.489
 1377SOL    HW1 4168   0.762   3.911   1.449
 1377SOL    HW2 4169   0.680   3.932   1.588
 1378SOL     OW 4170   0.075   4.069   0.033
 1378SOL    HW1 4171  -0.017   4.041   0.004
 1378SOL    HW2 4172   0.106   4.146  -0.023
 1379SOL     OW 4173   1.440   4.580   1.398
 1379SOL    HW1 4174   1.383   4.632   1.335
 1379SOL    HW2 4175   1.536   4.592   1.374
 1380SOL     OW 4176   0.072   3.890   0.318
 1380SOL    HW1 4177   0.055   3.973   0.264
 1380SOL    HW2 4178   0.162   3.853   0.296
 1381SOL     OW 4179   1.183   5.059   0.119
 1381SOL    HW1 4180   1.084   5.048   0.121
 1381SOL    HW2 4181   1.217   5.074   0.212
 1382SOL     OW 4182   0.613   4.566   1.431
 1382SOL    HW1 4183   0.669   4.647   1.414
 1382SOL    HW2 4184   0.672   4.486   1.434
 1383SOL     OW 4185   0.716   4.289   1.708
 1383SOL    HW1 4186   0.735   4.354   1.782
 1383SOL    HW2 4187   0.776   4.209   1.717
 1384SOL     OW 4188   1.450   4.944   1.633
 1384SOL    HW1 4189   1.441   4.934   1.732
 1384SOL    HW2 4190   1.546   4.937   1.607
 1385SOL     OW 4191   1.674   4.607   1.254
 1385SOL    HW1 4192   1.647   4.518   1.217
 1385SOL    HW2 4193   1.675   4.675   1.181
 1386SOL     OW 4194   1.225   4.049   0.449
 1386SOL    HW1 4195   1.290   3.975   0.438
 1386SOL    HW2 4196   1.245   4.099   0.533
 1387SOL     OW 4197   0.594   4.469   0.652
 1387SOL    HW1 4198   0.644   4.554   0.633
 1387SOL    HW2 4199   0.506   4.471   0.604
 1388SOL     OW 4200   1.777   4.066   1.642
 1388SOL    HW1 4201   1.760   4.097   1.548
 1388SOL    HW2 4202   1.693   4.029   1.680
 1389SOL     OW 4203   1.730   4.658   1.517
 1389SOL    HW1 4204   1.768   4.749   1.532
 1389SOL    HW2 4205   1.722   4.641   1.418
 1390SOL     OW 4206   0.859   5.098   0.016
 1390SOL    HW1 4207   0.813   5.113   0.104
 1390SOL    HW2 4208   0.903   5.183  -0.014
 1391SOL     OW 4209   0.859   4.680   0.861
 1391SOL    HW1 4210   0.913   4.611   0.909
 1391SOL    HW2 4211   0.827   4.749   0.927
 1392SOL     OW 4212   1.083   4.708   0.087
 1392SOL    HW1 4213   1.060   4.761   0.005
 1392SOL    HW2 4214   1.164   4.652   0.068
 1393SOL     OW 4215   1.861   5.293   0.851
 1393SOL    HW1 4216   1.790   5.281   0.781
 1393SOL    HW2 4217   1.862   5.214   0.911
 1394SOL     OW 4218   0.221   5.038   1.844
 1394SOL    HW1 4219   0.156   4.965   1.823
 1394SOL    HW2 4220   0.225   5.052   1.942
 1395SOL     OW 4221   0.079   4.964   0.653
 1395SOL    HW1 4222   0.078   4.917   0.741
 1395SOL    HW2 4223   0.161   4.936   0.602
 1396SOL     OW 4224   0.672   5.115   1.624
 1396SOL    HW1 4225   0.594   5.065   1.662
 1396SOL    HW2 4226   0.669   5.210   1.655
 1397SOL     OW 4227   1.824   3.916   1.227
 1397SOL    HW1 4228   1.820   3.826   1.271
 1397SOL    HW2 4229   1.827   3.905   1.128
 1398SOL     OW 4230   0.428   4.148   0.520
 1398SOL    HW1 4231   0.458   4.076   0.458
 1398SOL    HW2 4232   0.389   4.108   0.603
 1399SOL     OW 4233   1.705   5.211   1.104
 1399SOL    HW1 4234   1.612   5.186   1.077
 1399SOL    HW2 4235   1.731   5.161   1.186
 1400SOL     OW 4236   0.317   4.271   1.280
 1400SOL    HW1 4237   0.355   4.212   1.352
 1400SOL    HW2 4238   0.357   4.245   1.192
 1401SOL     OW 4239   1.424   3.938   1.112
 1401SOL    HW1 4240   1.476   3.873   1.167
 1401SOL    HW2 4241   1.375   4.001   1.173
 1402SOL     OW 4242   1.001   3.758   1.154
 1402SOL    HW1 4243   0.938   3.686   1.123
 1402SOL    HW2 4244   1.094   3.722   1.154
 1403SOL     OW 4245   0.770   5.054   0.301
 1403SOL    HW1 4246   0.724   4.967   0.318
 1403SOL    HW2 4247   0.861   5.051   0.342
 1404SOL     OW 4248   0.618   5.291   1.284
 1404SOL    HW1 4249   0.613   5.373   1.341
 1404SOL    HW2 4250   0.707   5.288   1.239
 1405SOL     OW 4251   1.352   3.776   0.168
 1405SOL    HW1 4252   1.387   3.735   0.084
 1405SOL    HW2 4253   1.262   3.738   0.188
 1406SOL     OW 4254   1.300   4.177   0.691
 1406SOL    HW1 4255   1.241   4.257   0.695
 1406SOL    HW2 4256   1.315   4.142   0.784
 1407SOL     OW 4257   1.593   3.945   0.882
 1407SOL    HW1 4258   1.509   3.944   0.936
 1407SOL    HW2 4259   1.595   4.028   0.826
 1408SOL     OW 4260   0.039   4.801   0.300
 1408SOL    HW1 4261   0.138   4.790   0.291
 1408SOL    HW2 4262  -0.001   4.715   0.332
 1409SOL     OW 4263   0.230   4.352   1.975
 1409SOL    HW1 4264   0.137   4.350   2.012
 1409SOL    HW2 4265   0.231   4.313   1.883
 1410SOL     OW 4266   0.225   3.999   2.858
 1410SOL    HW1 4267   0.260   3.982   2.950
 1410SOL    HW2 4268   0.137   3.954   2.846
 1411SOL     OW 4269   0.019   4.092   2.509
 1411SOL    HW1 4270  -0.063   4.135   2.548
 1411SOL    HW2 4271  -0.009   4.019   2.446
 1412SOL     OW 4272   0.569   4.999   3.027
 1412SOL    HW1 4273   0.476   4.992   2.990
 1412SOL    HW2 4274   0.580   5.088   3.071
 1413SOL     OW 4275   1.555   5.235   2.565
 1413SOL    HW1 4276   1.498   5.219   2.646
 1413SOL    HW2 4277   1.496   5.245   2.485
 1414SOL     OW 4278   1.135   4.427   2.579
 1414SOL    HW1 4279   1.192   4.505   2.554
 1414SOL    HW2 4280   1.075   4.453   2.655
 1415SOL     OW 4281   1.755   4.331   2.093
 1415SOL    HW1 4282   1.743   4.318   1.994
 1415SOL    HW2 4283   1.725   4.250   2.142
 1416SOL     OW 4284   0.768   4.868   2.885
 1416SOL    HW1 4285   0.690   4.885   2.945
 1416SOL    HW2 4286   0.802   4.955   2.849
 1417SOL     OW 4287   0.850   4.522   3.685
 1417SOL    HW1 4288   0.846   4.598   3.750
 1417SOL    HW2 4289   0.872   4.558   3.594
 1418SOL     OW 4290   0.685   4.736   2.527
 1418SOL    HW1 4291   0.754   4.720   2.597
 1418SOL    HW2 4292   0.612   4.793   2.565
 1419SOL     OW 4293   0.686   4.885   3.665
 1419SOL    HW1 4294   0.746   4.964   3.679
 1419SOL    HW2 4295   0.600   4.916   3.624
 1420SOL     OW 4296   0.335   5.159   2.923
 1420SOL    HW1 4297   0.257   5.128   2.870
 1420SOL    HW2 4298   0.393   5.217   2.866
 1421SOL     OW 4299   1.460   5.229   3.201
 1421SOL    HW1 4300   1.484   5.323   3.227
 1421SOL    HW2 4301   1.444   5.175   3.283
 1422SOL     OW 4302   0.438   4.116   3.361
 1422SOL    HW1 4303   0.520   4.060   3.370
 1422SOL    HW2 4304   0.357   4.058   3.365
 1423SOL     OW 4305   1.603   4.171   2.599
 1423SOL    HW1 4306   1.529   4.217   2.549
 1423SOL    HW2 4307   1.654   4.239   2.652
 1424SOL     OW 4308   1.127   5.065   3.552
 1424SOL    HW1 4309   1.174   5.065   3.640
 1424SOL    HW2 4310   1.079   4.978   3.541
 1425SOL     OW 4311   0.230   5.158   2.400
 1425SOL    HW1 4312   0.204   5.254   2.400
 1425SOL    HW2 4313   0.159   5.104   2.445
 1426SOL     OW 4314   0.240   4.815   2.748
 1426SOL    HW1 4315   0.254   4.731   2.800
 1426SOL    HW2 4316   0.185   4.879   2.803
 1427SOL     OW 4317   0.606   4.688   1.985
 1427SOL    HW1 4318   0.613   4.772   1.931
 1427SOL    HW2 4319   0.652   4.701   2.073
 1428SOL     OW 4320   1.594   3.838   3.342
 1428SOL    HW1 4321   1.576   3.905   3.270
 1428SOL    HW2 4322   1.591   3.884   3.431
 1429SOL     OW 4323   0.122   4.367   2.425
 1429SOL    HW1 4324   0.077   4.279   2.442
 1429SOL    HW2 4325   0.121   4.421   2.509
 1430SOL     OW 4326   0.027   5.320   1.979
 1430SOL    HW1 4327   0.008   5.224   2.000
 1430SOL    HW2 4328  -0.006   5.378   2.054
 1431SOL     OW 4329   1.689   4.646   2.474
 1431SOL    HW1 4330   1.784   4.617   2.482
 1431SOL    HW2 4331   1.681   4.711   2.399
 1432SOL     OW 4332   1.641   4.832   2.294
 1432SOL    HW1 4333   1.727   4.834   2.242
 1432SOL    HW2 4334   1.655   4.879   2.382
 1433SOL     OW 4335   0.113   4.461   3.459
 1433SOL    HW1 4336   0.201   4.448   3.504
 1433SOL    HW2 4337   0.100   4.558   3.437
 1434SOL     OW 4338   0.613   5.089   2.588
 1434SOL    HW1 4339   0.564   5.002   2.597
 1434SOL    HW2 4340   0.590   5.132   2.501
 1435SOL     OW 4341   1.293   4.952   3.285
 1435SOL    HW1 4342   1.330   4.879   3.227
 1435SOL    HW2 4343   1.345   4.957   3.370
 1436SOL     OW 4344   0.809   3.728   2.364
 1436SOL    HW1 4345   0.849   3.819   2.355
 1436SOL    HW2 4346   0.709   3.736   2.370
 1437SOL     OW 4347   0.197   4.700   3.126
 1437SOL    HW1 4348   0.286   4.655   3.112
 1437SOL    HW2 4349   0.124   4.635   3.107
 1438SOL     OW 4350   1.525   4.723   2.052
 1438SOL    HW1 4351   1.462   4.647   2.065
 1438SOL    HW2 4352   1.573   4.741   2.138
 1439SOL     OW 4353   0.317   3.975   3.663
 1439SOL    HW1 4354   0.388   4.046   3.669
 1439SOL    HW2 4355   0.229   4.014   3.691
 1440SOL     OW 4356   1.466   5.141   2.815
 1440SOL    HW1 4357   1.407   5.147   2.895
 1440SOL    HW2 4358   1.451   5.053   2.769
 1441SOL     OW 4359   0.598   4.453   2.132
 1441SOL    HW1 4360   0.622   4.522   2.064
 1441SOL    HW2 4361   0.520   4.486   2.186
 1442SOL     OW 4362   1.281   4.069   2.806
 1442SOL    HW1 4363   1.195   4.019   2.793
 1442SOL    HW2 4364   1.343   4.015   2.862
 1443SOL     OW 4365   1.576   5.386   2.169
 1443SOL    HW1 4366   1.665   5.432   2.172
 1443SOL    HW2 4367   1.555   5.362   2.074
 1444SOL     OW 4368   0.807   4.329   3.327
 1444SOL    HW1 4369   0.760   4.326   3.416
 1444SOL    HW2 4370   0.756   4.274   3.261
 1445SOL     OW 4371   1.394   4.193   3.536
 1445SOL    HW1 4372   1.374   4.236   3.624
 1445SOL    HW2 4373   1.472   4.131   3.545
 1446SOL     OW 4374   0.973   4.614   3.434
 1446SOL    HW1 4375   1.019   4.530   3.405
 1446SOL    HW2 4376   0.917   4.648   3.359
 1447SOL     OW 4377   0.991   4.134   3.104
 1447SOL    HW1 4378   0.914   4.168   3.158
 1447SOL    HW2 4379   0.957   4.083   3.025
 1448SOL     OW 4380   1.041   4.425   2.291
 1448SOL    HW1 4381   1.067   4.421   2.387
 1448SOL    HW2 4382   0.956   4.374   2.277
 1449SOL     OW 4383   0.076   4.535   2.651
 1449SOL    HW1 4384   0.175   4.523   2.660
 1449SOL    HW2 4385   0.052   4.630   2.672
 1450SOL     OW 4386   0.865   4.072   2.057
 1450SOL    HW1 4387   0.924   4.135   2.008
 1450SOL    HW2 4388   0.884   3.978   2.028
 1451SOL     OW 4389   1.719   4.309   3.693
 1451SOL    HW1 4390   1.693   4.398   3.657
 1451SOL    HW2 4391   1.717   4.241   3.620
 1452SOL     OW 4392   1.362   4.868   2.407
 1452SOL    HW1 4393   1.445   4.839   2.359
 1452SOL    HW2 4394   1.313   4.935   2.351
 1453SOL     OW 4395   0.550   3.920   2.747
 1453SOL    HW1 4396   0.545   3.915   2.847
 1453SOL    HW2 4397   0.552   4.016   2.718
 1454SOL     OW 4398   1.008   5.180   2.339
 1454SOL    HW1 4399   0.962   5.252   2.287
 1454SOL    HW2 4400   1.004   5.200   2.437
 1455SOL     OW 4401   1.795   4.790   2.735
 1455SOL    HW1 4402   1.733   4.775   2.659
 1455SOL    HW2 4403   1.743   4.801   2.820
 1456SOL     OW 4404   1.227   5.274   3.368
 1456SOL    HW1 4405   1.233   5.197   3.432
 1456SOL    HW2 4406   1.175   5.248   3.288
 1457SOL     OW 4407   0.321   4.667   2.104
 1457SOL    HW1 4408   0.403   4.706   2.062
 1457SOL    HW2 4409   0.294   4.585   2.055
 1458SOL     OW 4410   1.458   4.459   2.590
 1458SOL    HW1 4411   1.453   4.394   2.665
 1458SOL    HW2 4412   1.538   4.518   2.603
 1459SOL     OW 4413   0.461   4.990   3.589
 1459SOL    HW1 4414   0.411   4.991   3.503
 1459SOL    HW2 4415   0.398   4.972   3.665
 1460SOL     OW 4416   1.111   5.500   2.099
 1460SOL    HW1 4417   1.051   5.438   2.149
 1460SOL    HW2 4418   1.142   5.456   2.014
 1461SOL     OW 4419   0.202   4.009   3.360
 1461SOL    HW1 4420   0.122   4.069   3.347
 1461SOL    HW2 4421   0.192   3.960   3.446
 1462SOL     OW 4422   1.632   5.101   1.943
 1462SOL    HW1 4423   1.600   5.195   1.933
 1462SOL    HW2 4424   1.556   5.038   1.931
 1463SOL     OW 4425   1.400   3.831   2.288
 1463SOL    HW1 4426   1.376   3.794   2.198
 1463SOL    HW2 4427   1.499   3.847   2.292
 1464SOL     OW 4428   0.382   4.424   2.342
 1464SOL    HW1 4429   0.427   4.334   2.339
 1464SOL    HW2 4430   0.288   4.413   2.375
 1465SOL     OW 4431   1.547   3.946   3.591
 1465SOL    HW1 4432   1.542   3.983   3.683
 1465SOL    HW2 4433   1.475   3.877   3.579
 1466SOL     OW 4434   0.614   3.846   1.979
 1466SOL    HW1 4435   0.712   3.824   1.986
 1466SOL    HW2 4436   0.583   3.829   1.886
 1467SOL     OW 4437   0.781   3.988   3.611
 1467SOL    HW1 4438   0.848   3.927   3.654
 1467SOL    HW2 4439   0.708   4.007   3.676
 1468SOL     OW 4440   1.351   4.314   3.295
 1468SOL    HW1 4441   1.379   4.271   3.380
 1468SOL    HW2 4442   1.376   4.410   3.296
 1469SOL     OW 4443   0.803   5.126   2.786
 1469SOL    HW1 4444   0.893   5.140   2.744
 1469SOL    HW2 4445   0.732   5.128   2.715
 1470SOL     OW 4446   0.922   4.227   2.761
 1470SOL    HW1 4447   0.897   4.218   2.665
 1470SOL    HW2 4448   0.970   4.145   2.792
 1471SOL     OW 4449   0.539   3.788   2.374
 1471SOL    HW1 4450   0.458   3.789   2.432
 1471SOL    HW2 4451   0.542   3.871   2.319
 1472SOL     OW 4452   1.434   4.912   1.903
 1472SOL    HW1 4453   1.466   4.836   1.960
 1472SOL    HW2 4454   1.342   4.939   1.933
 1473SOL     OW 4455   0.297   3.759   2.033
 1473SOL    HW1 4456   0.346   3.843   2.012
 1473SOL    HW2 4457   0.359   3.694   2.078
 1474SOL     OW 4458   0.935   3.960   2.342
 1474SOL    HW1 4459   0.887   4.001   2.264
 1474SOL    HW2 4460   1.034   3.958   2.323
 1475SOL     OW 4461   1.076   4.407   3.326
 1475SOL    HW1 4462   0.996   4.346   3.329
 1475SOL    HW2 4463   1.157   4.354   3.302
 1476SOL     OW 4464   1.227   5.294   2.655
 1476SOL    HW1 4465   1.248   5.368   2.590
 1476SOL    HW2 4466   1.295   5.294   2.728
 1477SOL     OW 4467   0.459   4.876   2.603
 1477SOL    HW1 4468   0.388   4.849   2.668
 1477SOL    HW2 4469   0.433   4.848   2.510
 1478SOL     OW 4470   1.032   4.273   1.878
 1478SOL    HW1 4471   0.991   4.355   1.839
 1478SOL    HW2 4472   1.096   4.299   1.951
 1479SOL     OW 4473   0.078   4.280   3.248
 1479SOL    HW1 4474   0.170   4.279   3.207
 1479SOL    HW2 4475   0.072   4.354   3.315
 1480SOL     OW 4476   0.561   3.946   3.009
 1480SOL    HW1 4477   0.599   3.862   3.046
 1480SOL    HW2 4478   0.473   3.965   3.053
 1481SOL     OW 4479   0.866   4.178   2.504
 1481SOL    HW1 4480   0.834   4.250   2.442
 1481SOL    HW2 4481   0.890   4.097   2.451
 1482SOL     OW 4482   1.017   3.763   2.615
 1482SOL    HW1 4483   0.945   3.768   2.546
 1482SOL    HW2 4484   0.993   3.694   2.684
 1483SOL     OW 4485   1.429   4.897   2.729
 1483SOL    HW1 4486   1.374   4.813   2.722
 1483SOL    HW2 4487   1.455   4.926   2.637
 1484SOL     OW 4488   1.466   4.314   2.854
 1484SOL    HW1 4489   1.436   4.219   2.861
 1484SOL    HW2 4490   1.539   4.330   2.920
 1485SOL     OW 4491   1.857   4.557   2.239
 1485SOL    HW1 4492   1.899   4.493   2.303
 1485SOL    HW2 4493   1.819   4.506   2.161
 1486SOL     OW 4494   0.488   5.109   2.036
 1486SOL    HW1 4495   0.401   5.094   2.083
 1486SOL    HW2 4496   0.471   5.135   1.941
 1487SOL     OW 4497   1.664   5.004   2.519
 1487SOL    HW1 4498   1.763   5.012   2.533
 1487SOL    HW2 4499   1.619   5.088   2.550
 1488SOL     OW 4500   1.390   4.299   1.940
 1488SOL    HW1 4501   1.336   4.278   2.021
 1488SOL    HW2 4502   1.481   4.258   1.949
 1489SOL     OW 4503   0.527   3.980   2.190
 1489SOL    HW1 4504   0.554   3.921   2.115
 1489SOL    HW2 4505   0.527   4.075   2.159
 1490SOL     OW 4506   1.754   4.947   3.450
 1490SOL    HW1 4507   1.845   4.908   3.437
 1490SOL    HW2 4508   1.762   5.043   3.474
 1491SOL     OW 4509   1.064   5.071   3.202
 1491SOL    HW1 4510   0.984   5.048   3.257
 1491SOL    HW2 4511   1.147   5.045   3.251
 1492SOL     OW 4512   1.111   4.919   2.962
 1492SOL    HW1 4513   1.071   4.963   3.043
 1492SOL    HW2 4514   1.070   4.956   2.879
 1493SOL     OW 4515   1.638   4.823   2.941
 1493SOL    HW1 4516   1.643   4.904   3.000
 1493SOL    HW2 4517   1.552   4.825   2.890
 1494SOL     OW 4518   0.915   3.813   3.264
 1494SOL    HW1 4519   0.940   3.793   3.169
 1494SOL    HW2 4520   0.987   3.869   3.306
 1495SOL     OW 4521   0.980   4.840   3.581
 1495SOL    HW1 4522   0.881   4.846   3.591
 1495SOL    HW2 4523   1.003   4.760   3.525
 1496SOL     OW 4524   0.705   4.774   2.230
 1496SOL    HW1 4525   0.691   4.781   2.329
 1496SOL    HW2 4526   0.789   4.723   2.212
 1497SOL     OW 4527   0.410   4.537   3.113
 1497SOL    HW1 4528   0.496   4.549   3.163
 1497SOL    HW2 4529   0.368   4.450   3.140
 1498SOL     OW 4530   1.274   4.110   3.124
 1498SOL    HW1 4531   1.295   4.184   3.188
 1498SOL    HW2 4532   1.185   4.127   3.081
 1499SOL     OW 4533   0.064   5.288   3.193
 1499SOL    HW1 4534   0.018   5.370   3.159
 1499SOL    HW2 4535   0.162   5.307   3.202
 1500SOL     OW 4536   0.367   4.824   2.363
 1500SOL    HW1 4537   0.360   4.907   2.307
 1500SOL    HW2 4538   0.371   4.744   2.303
 1501SOL     OW 4539   0.566   4.261   2.727
 1501SOL    HW1 4540   0.578   4.327   2.653
 1501SOL    HW2 4541   0.612   4.295   2.810
 1502SOL     OW 4542   1.252   5.072   2.250
 1502SOL    HW1 4543   1.302   5.149   2.290
 1502SOL    HW2 4544   1.157   5.074   2.282
 1503SOL     OW 4545   1.272   5.169   3.004
 1503SOL    HW1 4546   1.319   5.182   3.091
 1503SOL    HW2 4547   1.206   5.095   3.013
 1504SOL     OW 4548   1.582   4.363   2.334
 1504SOL    HW1 4549   1.551   4.424   2.407
 1504SOL    HW2 4550   1.632   4.415   2.265
 1505SOL     OW 4551   0.354   5.234   3.191
 1505SOL    HW1 4552   0.333   5.190   3.104
 1505SOL    HW2 4553   0.451   5.260   3.194
 1506SOL     OW 4554   0.402   4.475   3.460
 1506SOL    HW1 4555   0.470   4.530   3.413
 1506SOL    HW2 4556   0.442   4.387   3.487
 1507SOL     OW 4557   1.587   4.503   3.532
 1507SOL    HW1 4558   1.495   4.541   3.527
 1507SOL    HW2 4559   1.647   4.550   3.467
 1508SOL     OW 4560   1.013   3.829   3.632
 1508SOL    HW1 4561   1.019   3.914   3.580
 1508SOL    HW2 4562   1.045   3.753   3.575
 1509SOL     OW 4563   0.504   3.774   3.602
 1509SOL    HW1 4564   0.462   3.717   3.532
 1509SOL    HW2 4565   0.438   3.843   3.634
 1510SOL     OW 4566   0.573   4.594   2.891
 1510SOL    HW1 4567   0.617   4.683   2.882
 1510SOL    HW2 4568   0.510   4.594   2.968
 1511SOL     OW 4569   1.360   4.586   2.907
 1511SOL    HW1 4570   1.285   4.586   2.841
 1511SOL    HW2 4571   1.397   4.494   2.916
 1512SOL     OW 4572   1.209   4.249   2.137
 1512SOL    HW1 4573   1.222   4.165   2.191
 1512SOL    HW2 4574   1.180   4.323   2.197
 1513SOL     OW 4575   0.307   3.937   3.093
 1513SOL    HW1 4576   0.284   3.974   3.183
 1513SOL    HW2 4577   0.277   3.842   3.087
 1514SOL     OW 4578   0.037   5.034   3.144
 1514SOL    HW1 4579   0.090   4.985   3.212
 1514SOL    HW2 4580   0.059   5.132   3.149
 1515SOL     OW 4581   0.732   4.358   2.926
 1515SOL    HW1 4582   0.791   4.332   2.850
 1515SOL    HW2 4583   0.704   4.454   2.915
 1516SOL     OW 4584   1.728   4.659   3.716
 1516SOL    HW1 4585   1.682   4.652   3.627
 1516SOL    HW2 4586   1.666   4.703   3.782
 1517SOL     OW 4587   0.307   3.787   2.480
 1517SOL    HW1 4588   0.296   3.881   2.513
 1517SOL    HW2 4589   0.302   3.724   2.557
 1518SOL     OW 4590   1.622   4.091   2.236
 1518SOL    HW1 4591   1.624   4.015   2.300
 1518SOL    HW2 4592   1.574   4.168   2.276
 1519SOL     OW 4593   1.023   4.490   2.828
 1519SOL    HW1 4594   1.038   4.511   2.924
 1519SOL    HW2 4595   0.993   4.395   2.819
 1520SOL     OW 4596   1.859   5.242   3.467
 1520SOL    HW1 4597   1.873   5.269   3.372
 1520SOL    HW2 4598   1.942   5.264   3.520
 1521SOL     OW 4599   0.350   4.622   3.666
 1521SOL    HW1 4600   0.426   4.666   3.714
 1521SOL    HW2 4601   0.385   4.575   3.584
 1522SOL     OW 4602   1.540   3.998   1.987
 1522SOL    HW1 4603   1.479   3.923   2.010
 1522SOL    HW2 4604   1.562   4.050   2.070
 1523SOL     OW 4605   1.303   4.562   1.904
 1523SOL    HW1 4606   1.337   4.469   1.919
 1523SOL    HW2 4607   1.321   4.589   1.809
 1524SOL     OW 4608   1.068   5.057   2.711
 1524SOL    HW1 4609   1.075   4.973   2.656
 1524SOL    HW2 4610   1.130   5.126   2.675
 1525SOL     OW 4611   0.319   4.534   2.811
 1525SOL    HW1 4612   0.412   4.570   2.816
 1525SOL    HW2 4613   0.313   4.449   2.863
 1526SOL     OW 4614   0.339   4.233   2.868
 1526SOL    HW1 4615   0.287   4.150   2.851
 1526SOL    HW2 4616   0.416   4.238   2.804
 1527SOL     OW 4617   1.138   4.104   3.540
 1527SOL    HW1 4618   1.093   4.167   3.604
 1527SOL    HW2 4619   1.231   4.135   3.523
 1528SOL     OW 4620   1.160   3.931   3.339
 1528SOL    HW1 4621   1.160   3.995   3.416
 1528SOL    HW2 4622   1.188   3.979   3.256
 1529SOL     OW 4623   0.008   5.050   2.062
 1529SOL    HW1 4624  -0.085   5.071   2.031
 1529SOL    HW2 4625   0.018   4.951   2.075
 1530SOL     OW 4626   0.504   5.292   2.772
 1530SOL    HW1 4627   0.570   5.366   2.781
 1530SOL    HW2 4628   0.548   5.213   2.730
 1531SOL     OW 4629   1.002   4.520   3.100
 1531SOL    HW1 4630   1.043   4.488   3.186
 1531SOL    HW2 4631   0.906   4.493   3.097
 1532SOL     OW 4632   0.040   4.268   2.976
 1532SOL    HW1 4633   0.125   4.235   2.935
 1532SOL    HW2 4634   0.053   4.283   3.074
 1533SOL     OW 4635   0.189   4.244   3.584
 1533SOL    HW1 4636   0.248   4.204   3.514
 1533SOL    HW2 4637   0.131   4.315   3.543
 1534SOL     OW 4638   1.369   4.674   3.522
 1534SOL    HW1 4639   1.408   4.763   3.542
 1534SOL    HW2 4640   1.379   4.654   3.425
 1535SOL     OW 4641   0.815   4.296   2.187
 1535SOL    HW1 4642   0.822   4.207   2.141
 1535SOL    HW2 4643   0.721   4.330   2.179
 1536SOL     OW 4644   1.657   4.328   3.068
 1536SOL    HW1 4645   1.619   4.259   3.130
 1536SOL    HW2 4646   1.739   4.292   3.024
 1537SOL     OW 4647   0.252   5.288   3.606
 1537SOL    HW1 4648   0.222   5.345   3.682
 1537SOL    HW2 4649   0.245   5.191   3.632
 1538SOL     OW 4650   0.671   4.188   3.131
 1538SOL    HW1 4651   0.637   4.099   3.101
 1538SOL    HW2 4652   0.697   4.242   3.051
 1539SOL     OW 4653   0.473   4.224   2.053
 1539SOL    HW1 4654   0.534   4.304   2.057
 1539SOL    HW2 4655   0.378   4.255   2.060
 1540SOL     OW 4656   0.159   4.861   3.328
 1540SOL    HW1 4657   0.181   4.800   3.404
 1540SOL    HW2 4658   0.169   4.812   3.242
 1541SOL     OW 4659   1.347   4.783   3.096
 1541SOL    HW1 4660   1.371   4.720   3.022
 1541SOL    HW2 4661   1.257   4.823   3.078
 1542SOL     OW 4662   1.302   4.579   2.171
 1542SOL    HW1 4663   1.216   4.548   2.213
 1542SOL    HW2 4664   1.298   4.565   2.072
 1543SOL     OW 4665   0.083   4.982   2.884
 1543SOL    HW1 4666   0.078   4.981   2.984
 1543SOL    HW2 4667   0.000   4.941   2.846
 1544SOL     OW 4668   1.726   3.859   2.385
 1544SOL    HW1 4669   1.799   3.842   2.318
 1544SOL    HW2 4670   1.695   3.772   2.423
 1545SOL     OW 4671   1.280   4.651   2.534
 1545SOL    HW1 4672   1.340   4.570   2.536
 1545SOL    HW2 4673   1.320   4.720   2.474
 1546SOL     OW 4674   0.830   4.997   3.284
 1546SOL    HW1 4675   0.825   5.030   3.379
 1546SOL    HW2 4676   0.744   5.016   3.238
 1547SOL     OW 4677   1.841   3.899   2.825
 1547SOL    HW1 4678   1.880   3.814   2.789
 1547SOL    HW2 4679   1.743   3.901   2.806
 1548SOL     OW 4680   0.263   4.050   2.582
 1548SOL    HW1 4681   0.184   4.101   2.548
 1548SOL    HW2 4682   0.254   4.035   2.680
 1549SOL     OW 4683   1.194   5.336   1.893
 1549SOL    HW1 4684   1.200   5.243   1.930
 1549SOL    HW2 4685   1.135   5.336   1.813
 1550SOL     OW 4686   0.822   4.726   3.234
 1550SOL    HW1 4687   0.862   4.725   3.142
 1550SOL    HW2 4688   0.832   4.818   3.274
 1551SOL     OW 4689   0.916   4.634   2.153
 1551SOL    HW1 4690   0.979   4.672   2.085
 1551SOL    HW2 4691   0.956   4.551   2.192
 1552SOL     OW 4692   0.372   5.012   3.352
 1552SOL    HW1 4693   0.359   5.105   3.318
 1552SOL    HW2 4694   0.288   4.960   3.339
 1553SOL     OW 4695   1.614   5.016   3.151
 1553SOL    HW1 4696   1.674   5.019   3.231
 1553SOL    HW2 4697   1.539   5.080   3.164
 1554SOL     OW 4698   1.039   4.822   2.558
 1554SOL    HW1 4699   0.969   4.775   2.612
 1554SOL    HW2 4700   1.098   4.754   2.515
 1555SOL     OW 4701   1.014   3.960   2.833
 1555SOL    HW1 4702   1.006   3.924   2.740
 1555SOL    HW2 4703   1.012   3.884   2.898
 1556SOL     OW 4704   0.590   5.211   2.353
 1556SOL    HW1 4705   0.632   5.153   2.283
 1556SOL    HW2 4706   0.546   5.290   2.309
 1557SOL     OW 4707   1.709   4.109   3.243
 1557SOL    HW1 4708   1.782   4.178   3.247
 1557SOL    HW2 4709   1.737   4.034   3.184
 1558SOL     OW 4710   0.255   5.072   2.152
 1558SOL    HW1 4711   0.159   5.073   2.125
 1558SOL    HW2 4712   0.267   5.125   2.236
 1559SOL     OW 4713   0.105   4.737   3.588
 1559SOL    HW1 4714   0.028   4.704   3.642
 1559SOL    HW2 4715   0.190   4.707   3.630
 1560SOL     OW 4716   0.672   3.927   3.351
 1560SOL    HW1 4717   0.762   3.911   3.311
 1560SOL    HW2 4718   0.680   3.932   3.450
 1561SOL     OW 4719   0.075   4.069   1.895
 1561SOL    HW1 4720  -0.017   4.041   1.866
 1561SOL    HW2 4721   0.106   4.146   1.839
 1562SOL     OW 4722   1.440   4.580   3.260
 1562SOL    HW1 4723   1.383   4.632   3.197
 1562SOL    HW2 4724   1.536   4.592   3.236
 1563SOL     OW 4725   0.072   3.890   2.180
 1563SOL    HW1 4726   0.055   3.973   2.126
 1563SOL    HW2 4727   0.162   3.853   2.158
 1564SOL     OW 4728   1.183   5.059   1.981
 1564SOL    HW1 4729   1.084   5.048   1.983
 1564SOL    HW2 4730   1.217   5.074   2.074
 1565SOL     OW 4731   0.613   4.566   3.293
 1565SOL    HW1 4732   0.669   4.647   3.276
 1565SOL    HW2 4733   0.672   4.486   3.296
 1566SOL     OW 4734   0.716   4.289   3.570
 1566SOL    HW1 4735   0.735   4.354   3.644
 1566SOL    HW2 4736   0.776   4.209   3.579
 1567SOL     OW 4737   1.450   4.944   3.495
 1567SOL    HW1 4738   1.441   4.934   3.594
 1567SOL    HW2 4739   1.546   4.937   3.469
 1568SOL     OW 4740   1.674   4.607   3.116
 1568SOL    HW1 4741   1.647   4.518   3.079
 1568SOL    HW2 4742   1.675   4.675   3.043
 1569SOL     OW 4743   1.225   4.049   2.311
 1569SOL    HW1 4744   1.290   3.975   2.300
 1569SOL    HW2 4745   1.245   4.099   2.395
 1570SOL     OW 4746   0.594   4.469   2.514
 1570SOL    HW1 4747   0.644   4.554   2.495
 1570SOL    HW2 4748   0.506   4.471   2.466
 1571SOL     OW 4749   1.777   4.066   3.504
 1571SOL    HW1 4750   1.760   4.097   3.410
 1571SOL    HW2 4751   1.693   4.029   3.542
 1572SOL     OW 4752   1.730   4.658   3.379
 1572SOL    HW1 4753   1.768   4.749   3.394
 1572SOL    HW2 4754   1.722   4.641   3.280
 1573SOL     OW 4755   0.859   5.098   1.878
 1573SOL    HW1 4756   0.813   5.113   1.966
 1573SOL    HW2 4757   0.903   5.183   1.848
 1574SOL     OW 4758   0.859   4.680   2.723
 1574SOL    HW1 4759   0.913   4.611   2.771
 1574SOL    HW2 4760   0.827   4.749   2.789
 1575SOL     OW 4761   1.083   4.708   1.949
 1575SOL    HW1 4762   1.060   4.761   1.867
 1575SOL    HW2 4763   1.164   4.652   1.930
 1576SOL     OW 4764   1.861   5.293   2.713
 1576SOL    HW1 4765   1.790   5.281   2.643
 1576SOL    HW2 4766   1.862   5.214   2.773
 1577SOL     OW 4767   0.221   5.038   3.706
 1577SOL    HW1 4768   0.156   4.965   3.685
 1577SOL    HW2 4769   0.225   5.052   3.804
 1578SOL     OW 4770   0.079   4.964   2.515
 1578SOL    HW1 4771   0.078   4.917   2.603
 1578SOL    HW2 4772   0.161   4.936   2.464
 1579SOL     OW 4773   0.672   5.115   3.486
 1579SOL    HW1 4774   0.594   5.065   3.524
 1579SOL    HW2 4775   0.669   5.210   3.517
 1580SOL     OW 4776   1.824   3.916   3.089
 1580SOL    HW1 4777   1.820   3.826   3.133
 1580SOL    HW2 4778   1.827   3.905   2.990
 1581SOL     OW 4779   0.428   4.148   2.382
 1581SOL    HW1 4780   0.458   4.076   2.320
 1581SOL    HW2 4781   0.389   4.108   2.465
 1582SOL     OW 4782   1.705   5.211   2.966
 1582SOL    HW1 4783   1.612   5.186   2.939
 1582SOL    HW2 4784   1.731   5.161   3.048
 1583SOL     OW 4785   0.317   4.271   3.142
 1583SOL    HW1 4786   0.355   4.212   3.214
 1583SOL    HW2 4787   0.357   4.245   3.054
 1584SOL     OW 4788   1.424   3.938   2.974
 1584SOL    HW1 4789   1.476   3.873   3.029
 1584SOL    HW2 4790   1.375   4.001   3.035
 1585SOL     OW 4791   1.001   3.758   3.016
 1585SOL    HW1 4792   0.938   3.686   2.985
 1585SOL    HW2 4793   1.094   3.722   3.016
 1586SOL     OW 4794   0.770   5.054   2.163
 1586SOL    HW1 4795   0.724   4.967   2.180
 1586SOL    HW2 4796   0.861   5.051   2.204
 1587SOL     OW 4797   0.618   5.291   3.146
 1587SOL    HW1 4798   0.613   5.373   3.203
 1587SOL    HW2 4799   0.707   5.288   3.101
 1588SOL     OW 4800   1.352   3.776   2.030
 1588SOL    HW1 4801   1.387   3.735   1.946
 1588SOL    HW2 4802   1.262   3.738   2.050
 1589SOL     OW 4803   1.300   4.177   2.553
 1589SOL    HW1 4804   1.241   4.257   2.557
 1589SOL    HW2 4805   1.315   4.142   2.646
 1590SOL     OW 4806   1.593   3.945   2.744
 1590SOL    HW1 4807   1.509   3.944   2.798
 1590SOL    HW2 4808   1.595   4.028   2.688
 1591SOL     OW 4809   0.039   4.801   2.162
 1591SOL    HW1 4810   0.138   4.790   2.153
 1591SOL    HW2 4811  -0.001   4.715   2.194
 1592SOL     OW 4812   0.230   4.352   3.837
 1592SOL    HW1 4813   0.137   4.350   3.874
 1592SOL    HW2 4814   0.231   4.313   3.745
 1593SOL     OW 4815   0.225   3.999   4.720
 1593SOL    HW1 4816   0.260   3.982   4.812
 1593SOL    HW2 4817   0.137   3.954   4.708
 1594SOL     OW 4818   0.019   4.092   4.371
 1594SOL    HW1 4819  -0.063   4.135   4.410
 1594SOL    HW2 4820  -0.009   4.019   4.308
 1595SOL     OW 4821   0.569   4.999   4.889
 1595SOL    HW1 4822   0.476   4.992   4.852
 1595SOL    HW2 4823   0.580   5.088   4.933
 1596SOL     OW 4824   1.555   5.235   4.427
 1596SOL    HW1 4825   1.498   5.219   4.508
 1596SOL    HW2 4826   1.496   5.245   4.347
 1597SOL     OW 4827   1.135   4.427   4.441
 1597SOL    HW1 4828   1.192   4.505   4.416
 1597SOL    HW2 4829   1.075   4.453   4.517
 1598SOL     OW 4830   1.755   4.331   3.955
 1598SOL    HW1 4831   1.743   4.318   3.856
 1598SOL    HW2 4832   1.725   4.250   4.004
 1599SOL     OW 4833   0.768   4.868   4.747
 1599SOL    HW1 4834   0.690   4.885   4.807
 1599SOL    HW2 4835   0.802   4.955   4.711
 1600SOL     OW 4836   0.685   4.736   4.389
 1600SOL    HW1 4837   0.754   4.720   4.459
 1600SOL    HW2 4838   0.612   4.793   4.427
 1601SOL     OW 4839   0.686   4.885   5.527
 1601SOL    HW1 4840   0.746   4.964   5.541
 1601SOL    HW2 4841   0.600   4.916   5.486
 1602SOL     OW 4842   0.335   5.159   4.785
 1602SOL    HW1 4843   0.257   5.128   4.732
 1602SOL    HW2 4844   0.393   5.217   4.728
 1603SOL     OW 4845   1.460   5.229   5.063
 1603SOL    HW1 4846   1.484   5.323   5.089
 1603SOL    HW2 4847   1.444   5.175   5.145
 1604SOL     OW 4848   0.438   4.116   5.223
 1604SOL    HW1 4849   0.520   4.060   5.232
 1604SOL    HW2 4850   0.357   4.058   5.227
 1605SOL     OW 4851   1.603   4.171   4.461
 1605SOL    HW1 4852   1.529   4.217   4.411
 1605SOL    HW2 4853   1.654   4.239   4.514
 1606SOL     OW 4854   0.230   5.158   4.262
 1606SOL    HW1 4855   0.204   5.254   4.262
 1606SOL    HW2 4856   0.159   5.104   4.307
 1607SOL     OW 4857   0.240   4.815   4.610
 1607SOL    HW1 4858   0.254   4.731   4.662
 1607SOL    HW2 4859   0.185   4.879   4.665
 1608SOL     OW 4860   0.606   4.688   3.847
 1608SOL    HW1 4861   0.613   4.772   3.793
 1608SOL    HW2 4862   0.652   4.701   3.935
 1609SOL     OW 4863   1.594   3.838   5.204
 1609SOL    HW1 4864   1.576   3.905   5.132
 1609SOL    HW2 4865   1.591   3.884   5.293
 1610SOL     OW 4866   0.122   4.367   4.287
 1610SOL    HW1 4867   0.077   4.279   4.304
 1610SOL    HW2 4868   0.121   4.421   4.371
 1611SOL     OW 4869   0.027   5.320   3.841
 1611SOL    HW1 4870   0.008   5.224   3.862
 1611SOL    HW2 4871  -0.006   5.378   3.916
 1612SOL     OW 4872   1.689   4.646   4.336
 1612SOL    HW1 4873   1.784   4.617   4.344
 1612SOL    HW2 4874   1.681   4.711   4.261
 1613SOL     OW 4875   1.641   4.832   4.156
 1613SOL    HW1 4876   1.727   4.834   4.104
 1613SOL    HW2 4877   1.655   4.879   4.244
 1614SOL     OW 4878   0.113   4.461   5.321
 1614SOL    HW1 4879   0.201   4.448   5.366
 1614SOL    HW2 4880   0.100   4.558   5.299
 1615SOL     OW 4881   0.613   5.089   4.450
 1615SOL    HW1 4882   0.564   5.002   4.459
 1615SOL    HW2 4883   0.590   5.132   4.363
 1616SOL     OW 4884   1.293   4.952   5.147
 1616SOL    HW1 4885   1.330   4.879   5.089
 1616SOL    HW2 4886   1.345   4.957   5.232
 1617SOL     OW 4887   0.809   3.728   4.226
 1617SOL    HW1 4888   0.849   3.819   4.217
 1617SOL    HW2 4889   0.709   3.736   4.232
 1618SOL     OW 4890   0.197   4.700   4.988
 1618SOL    HW1 4891   0.286   4.655   4.974
 1618SOL    HW2 4892   0.124   4.635   4.969
 1619SOL     OW 4893   1.525   4.723   3.914
 1619SOL    HW1 4894   1.462   4.647   3.927
 1619SOL    HW2 4895   1.573   4.741   4.000
 1620SOL     OW 4896   1.466   5.141   4.677
 1620SOL    HW1 4897   1.407   5.147   4.757
 1620SOL    HW2 4898   1.451   5.053   4.631
 1621SOL     OW 4899   0.598   4.453   3.994
 1621SOL    HW1 4900   0.622   4.522   3.926
 1621SOL    HW2 4901   0.520   4.486   4.048
 1622SOL     OW 4902   1.281   4.069   4.668
 1622SOL    HW1 4903   1.195   4.019   4.655
 1622SOL    HW2 4904   1.343   4.015   4.724
 1623SOL     OW 4905   1.576   5.386   4.031
 1623SOL    HW1 4906   1.665   5.432   4.034
 1623SOL    HW2 4907   1.555   5.362   3.936
 1624SOL     OW 4908   0.807   4.329   5.189
 1624SOL    HW1 4909   0.760   4.326   5.278
 1624SOL    HW2 4910   0.756   4.274   5.123
 1625SOL     OW 4911   0.973   4.614   5.296
 1625SOL    HW1 4912   1.019   4.530   5.267
 1625SOL    HW2 4913   0.917   4.648   5.221
 1626SOL     OW 4914   0.991   4.134   4.966
 1626SOL    HW1 4915   0.914   4.168   5.020
 1626SOL    HW2 4916   0.957   4.083   4.887
 1627SOL     OW 4917   1.041   4.425   4.153
 1627SOL    HW1 4918   1.067   4.421   4.249
 1627SOL    HW2 4919   0.956   4.374   4.139
 1628SOL     OW 4920   0.076   4.535   4.513
 1628SOL    HW1 4921   0.175   4.523   4.522
 1628SOL    HW2 4922   0.052   4.630   4.534
 1629SOL     OW 4923   0.865   4.072   3.919
 1629SOL    HW1 4924   0.924   4.135   3.870
 1629SOL    HW2 4925   0.884   3.978   3.890
 1630SOL     OW 4926   1.362   4.868   4.269
 1630SOL    HW1 4927   1.445   4.839   4.221
 1630SOL    HW2 4928   1.313   4.935   4.213
 1631SOL     OW 4929   0.550   3.920   4.609
 1631SOL    HW1 4930   0.545   3.915   4.709
 1631SOL    HW2 4931   0.552   4.016   4.580
 1632SOL     OW 4932   1.008   5.180   4.201
 1632SOL    HW1 4933   0.962   5.252   4.149
 1632SOL    HW2 4934   1.004   5.200   4.299
 1633SOL     OW 4935   1.795   4.790   4.597
 1633SOL    HW1 4936   1.733   4.775   4.521
 1633SOL    HW2 4937   1.743   4.801   4.682
 1634SOL     OW 4938   0.321   4.667   3.966
 1634SOL    HW1 4939   0.403   4.706   3.924
 1634SOL    HW2 4940   0.294   4.585   3.917
 1635SOL     OW 4941   1.458   4.459   4.452
 1635SOL    HW1 4942   1.453   4.394   4.527
 1635SOL    HW2 4943   1.538   4.518   4.465
 1636SOL     OW 4944   1.111   5.500   3.961
 1636SOL    HW1 4945   1.051   5.438   4.011
 1636SOL    HW2 4946   1.142   5.456   3.876
 1637SOL     OW 4947   0.202   4.009   5.222
 1637SOL    HW1 4948   0.122   4.069   5.209
 1637SOL    HW2 4949   0.192   3.960   5.308
 1638SOL     OW 4950   1.632   5.101   3.805
 1638SOL    HW1 4951   1.600   5.195   3.795
 1638SOL    HW2 4952   1.556   5.038   3.793
 1639SOL     OW 4953   1.400   3.831   4.150
 1639SOL    HW1 4954   1.376   3.794   4.060
 1639SOL    HW2 4955   1.499   3.847   4.154
 1640SOL     OW 4956   0.382   4.424   4.204
 1640SOL    HW1 4957   0.427   4.334   4.201
 1640SOL    HW2 4958   0.288   4.413   4.237
 1641SOL     OW 4959   0.614   3.846   3.841
 1641SOL    HW1 4960   0.712   3.824   3.848
 1641SOL    HW2 4961   0.583   3.829   3.748
 1642SOL     OW 4962   1.351   4.314   5.157
 1642SOL    HW1 4963   1.379   4.271   5.242
 1642SOL    HW2 4964   1.376   4.410   5.158
 1643SOL     OW 4965   0.803   5.126   4.648
 1643SOL    HW1 4966   0.893   5.140   4.606
 1643SOL    HW2 4967   0.732   5.128   4.577
 1644SOL     OW 4968   0.922   4.227   4.623
 1644SOL    HW1 4969   0.897   4.218   4.527
 1644SOL    HW2 4970   0.970   4.145   4.654
 1645SOL     OW 4971   0.539   3.788   4.236
 1645SOL    HW1 4972   0.458   3.789   4.294
 1645SOL    HW2 4973   0.542   3.871   4.181
 1646SOL     OW 4974   1.434   4.912   3.765
 1646SOL    HW1 4975   1.466   4.836   3.822
 1646SOL    HW2 4976   1.342   4.939   3.795
 1647SOL     OW 4977   0.297   3.759   3.895
 1647SOL    HW1 4978   0.346   3.843   3.874
 1647SOL    HW2 4979   0.359   3.694   3.940
 1648SOL     OW 4980   0.935   3.960   4.204
 1648SOL    HW1 4981   0.887   4.001   4.126
 1648SOL    HW2 4982   1.034   3.958   4.185
 1649SOL     OW 4983   1.076   4.407   5.188
 1649SOL    HW1 4984   0.996   4.346   5.191
 1649SOL    HW2 4985   1.157   4.354   5.164
 1650SOL     OW 4986   1.227   5.294   4.517
 1650SOL    HW1 4987   1.248   5.368   4.452
 1650SOL    HW2 4988   1.295   5.294   4.590
 1651SOL     OW 4989   0.459   4.876   4.465
 1651SOL    HW1 4990   0.388   4.849   4.530
 1651SOL    HW2 4991   0.433   4.848   4.372
 1652SOL     OW 4992   1.032   4.273   3.740
 1652SOL    HW1 4993   0.991   4.355   3.701
 1652SOL    HW2 4994   1.096   4.299   3.813
 1653SOL     OW 4995   0.078   4.280   5.110
 1653SOL    HW1 4996   0.170   4.279   5.069
 1653SOL    HW2 4997   0.072   4.354   5.177
 1654SOL     OW 4998   0.561   3.946   4.871
 1654SOL    HW1 4999   0.599   3.862   4.908
 1654SOL    HW2 5000   0.473   3.965   4.915
 1655SOL     OW 5001   0.866   4.178   4.366
 1655SOL    HW1 5002   0.834   4.250   4.304
 1655SOL    HW2 5003   0.890   4.097   4.313
 1656SOL     OW 5004   1.017   3.763   4.477
 1656SOL    HW1 5005   0.945   3.768   4.408
 1656SOL    HW2 5006   0.993   3.694   4.546
 1657SOL     OW 5007   1.429   4.897   4.591
 1657SOL    HW1 5008   1.374   4.813   4.584
 1657SOL    HW2 5009   1.455   4.926   4.499
 1658SOL     OW 5010   1.466   4.314   4.716
 1658SOL    HW1 5011   1.436   4.219   4.723
 1658SOL    HW2 5012   1.539   4.330   4.782
 1659SOL     OW 5013   1.857   4.557   4.101
 1659SOL    HW1 5014   1.899   4.493   4.165
 1659SOL    HW2 5015   1.819   4.506   4.023
 1660SOL     OW 5016   0.488   5.109   3.898
 1660SOL    HW1 5017   0.401   5.094   3.945
 1660SOL    HW2 5018   0.471   5.135   3.803
 1661SOL     OW 5019   1.664   5.004   4.381
 1661SOL    HW1 5020   1.763   5.012   4.395
 1661SOL    HW2 5021   1.619   5.088   4.412
 1662SOL     OW 5022   1.390   4.299   3.802
 1662SOL    HW1 5023   1.336   4.278   3.883
 1662SOL    HW2 5024   1.481   4.258   3.811
 1663SOL     OW 5025   0.527   3.980   4.052
 1663SOL    HW1 5026   0.554   3.921   3.977
 1663SOL    HW2 5027   0.527   4.075   4.021
 1664SOL     OW 5028   1.754   4.947   5.312
 1664SOL    HW1 5029   1.845   4.908   5.299
 1664SOL    HW2 5030   1.762   5.043   5.336
 1665SOL     OW 5031   1.064   5.071   5.064
 1665SOL    HW1 5032   0.984   5.048   5.119
 1665SOL    HW2 5033   1.147   5.045   5.113
 1666SOL     OW 5034   1.111   4.919   4.824
 1666SOL    HW1 5035   1.071   4.963   4.905
 1666SOL    HW2 5036   1.070   4.956   4.741
 1667SOL     OW 5037   1.638   4.823   4.803
 1667SOL    HW1 5038   1.643   4.904   4.862
 1667SOL    HW2 5039   1.552   4.825   4.752
 1668SOL     OW 5040   0.915   3.813   5.126
 1668SOL    HW1 5041   0.940   3.793   5.031
 1668SOL    HW2 5042   0.987   3.869   5.168
 1669SOL     OW 5043   0.705   4.774   4.092
 1669SOL    HW1 5044   0.691   4.781   4.191
 1669SOL    HW2 5045   0.789   4.723   4.074
 1670SOL     OW 5046   0.410   4.537   4.975
 1670SOL    HW1 5047   0.496   4.549   5.025
 1670SOL    HW2 5048   0.368   4.450   5.002
 1671SOL     OW 5049   1.274   4.110   4.986
 1671SOL    HW1 5050   1.295   4.184   5.050
 1671SOL    HW2 5051   1.185   4.127   4.943
 1672SOL     OW 5052   0.064   5.288   5.055
 1672SOL    HW1 5053   0.018   5.370   5.021
 1672SOL    HW2 5054   0.162   5.307   5.064
 1673SOL     OW 5055   0.367   4.824   4.225
 1673SOL    HW1 5056   0.360   4.907   4.169
 1673SOL    HW2 5057   0.371   4.744   4.165
 1674SOL     OW 5058   0.566   4.261   4.589
 1674SOL    HW1 5059   0.578   4.327   4.515
 1674SOL    HW2 5060   0.612   4.295   4.672
 1675SOL     OW 5061   1.252   5.072   4.112
 1675SOL    HW1 5062   1.302   5.149   4.152
 1675SOL    HW2 5063   1.157   5.074   4.144
 1676SOL     OW 5064   1.272   5.169   4.866
 1676SOL    HW1 5065   1.319   5.182   4.953
 1676SOL    HW2 5066   1.206   5.095   4.875
 1677SOL     OW 5067   1.582   4.363   4.196
 1677SOL    HW1 5068   1.551   4.424   4.269
 1677SOL    HW2 5069   1.632   4.415   4.127
 1678SOL     OW 5070   0.354   5.234   5.053
 1678SOL    HW1 5071   0.333   5.190   4.966
 1678SOL    HW2 5072   0.451   5.260   5.056
 1679SOL     OW 5073   0.402   4.475   5.322
 1679SOL    HW1 5074   0.470   4.530   5.275
 1679SOL    HW2 5075   0.442   4.387   5.349
 1680SOL     OW 5076   1.587   4.503   5.394
 1680SOL    HW1 5077   1.495   4.541   5.389
 1680SOL    HW2 5078   1.647   4.550   5.329
 1681SOL     OW 5079   0.573   4.594   4.753
 1681SOL    HW1 5080   0.617   4.683   4.744
 1681SOL    HW2 5081   0.510   4.594   4.830
 1682SOL     OW 5082   1.360   4.586   4.769
 1682SOL    HW1 5083   1.285   4.586   4.703
 1682SOL    HW2 5084   1.397   4.494   4.778
 1683SOL     OW 5085   1.209   4.249   3.999
 1683SOL    HW1 5086   1.222   4.165   4.053
 1683SOL    HW2 5087   1.180   4.323   4.059
 1684SOL     OW 5088   0.307   3.937   4.955
 1684SOL    HW1 5089   0.284   3.974   5.045
 1684SOL    HW2 5090   0.277   3.842   4.949
 1685SOL     OW 5091   0.037   5.034   5.006
 1685SOL    HW1 5092   0.090   4.985   5.074
 1685SOL    HW2 5093   0.059   5.132   5.011
 1686SOL     OW 5094   0.732   4.358   4.788
 1686SOL    HW1 5095   0.791   4.332   4.712
 1686SOL    HW2 5096   0.704   4.454   4.777
 1687SOL     OW 5097   0.307   3.787   4.342
 1687SOL    HW1 5098   0.296   3.881   4.375
 1687SOL    HW2 5099   0.302   3.724   4.419
 1688SOL     OW 5100   1.622   4.091   4.098
 1688SOL    HW1 5101   1.624   4.015   4.162
 1688SOL    HW2 5102   1.574   4.168   4.138
 1689SOL     OW 5103   1.023   4.490   4.690
 1689SOL    HW1 5104   1.038   4.511   4.786
 1689SOL    HW2 5105   0.993   4.395   4.681
 1690SOL     OW 5106   1.540   3.998   3.849
 1690SOL    HW1 5107   1.479   3.923   3.872
 1690SOL    HW2 5108   1.562   4.050   3.932
 1691SOL     OW 5109   1.303   4.562   3.766
 1691SOL    HW1 5110   1.337   4.469   3.781
 1691SOL    HW2 5111   1.321   4.589   3.671
 1692SOL     OW 5112   1.068   5.057   4.573
 1692SOL    HW1 5113   1.075   4.973   4.518
 1692SOL    HW2 5114   1.130   5.126   4.537
 1693SOL     OW 5115   0.319   4.534   4.673
 1693SOL    HW1 5116   0.412   4.570   4.678
 1693SOL    HW2 5117   0.313   4.449   4.725
 1694SOL     OW 5118   0.339   4.233   4.730
 1694SOL    HW1 5119   0.287   4.150   4.713
 1694SOL    HW2 5120   0.416   4.238   4.666
 1695SOL     OW 5121   1.160   3.931   5.201
 1695SOL    HW1 5122   1.160   3.995   5.278
 1695SOL    HW2 5123   1.188   3.979   5.118
 1696SOL     OW 5124   0.008   5.050   3.924
 1696SOL    HW1 5125  -0.085   5.071   3.893
 1696SOL    HW2 5126   0.018   4.951   3.937
 1697SOL     OW 5127   0.504   5.292   4.634
 1697SOL    HW1 5128   0.570   5.366   4.643
 1697SOL    HW2 5129   0.548   5.213   4.592
 1698SOL     OW 5130   1.002   4.520   4.962
 1698SOL    HW1 5131   1.043   4.488   5.048
 1698SOL    HW2 5132   0.906   4.493   4.959
 1699SOL     OW 5133   0.040   4.268   4.838
 1699SOL    HW1 5134   0.125   4.235   4.797
 1699SOL    HW2 5135   0.053   4.283   4.936
 1700SOL     OW 5136   0.815   4.296   4.049
 1700SOL    HW1 5137   0.822   4.207   4.003
 1700SOL    HW2 5138   0.721   4.330   4.041
 1701SOL     OW 5139   1.657   4.328   4.930
 1701SOL    HW1 5140   1.619   4.259   4.992
 1701SOL    HW2 5141   1.739   4.292   4.886
 1702SOL     OW 5142   0.671   4.188   4.993
 1702SOL    HW1 5143   0.637   4.099   4.963
 1702SOL    HW2 5144   0.697   4.242   4.913
 1703SOL     OW 5145   0.473   4.224   3.915
 1703SOL    HW1 5146   0.534   4.304   3.919
 1703SOL    HW2 5147   0.378   4.255   3.922
 1704SOL     OW 5148   0.159   4.861   5.190
 1704SOL    HW1 5149   0.181   4.800   5.266
 1704SOL    HW2 5150   0.169   4.812   5.104
 1705SOL     OW 5151   1.347   4.783   4.958
 1705SOL    HW1 5152   1.371   4.720   4.884
 1705SOL    HW2 5153   1.257   4.823   4.940
 1706SOL     OW 5154   1.302   4.579   4.033
 1706SOL    HW1 5155   1.216   4.548   4.075
 1706SOL    HW2 5156   1.298   4.565   3.934
 1707SOL     OW 5157   0.083   4.982   4.746
 1707SOL    HW1 5158   0.078   4.981   4.846
 1707SOL    HW2 5159   0.000   4.941   4.708
 1708SOL     OW 5160   1.726   3.859   4.247
 1708SOL    HW1 5161   1.799   3.842   4.180
 1708SOL    HW2 5162   1.695   3.772   4.285
 1709SOL     OW 5163   1.280   4.651   4.396
 1709SOL    HW1 5164   1.340   4.570   4.398
 1709SOL    HW2 5165   1.320   4.720   4.336
 1710SOL     OW 5166   0.830   4.997   5.146
 1710SOL    HW1 5167   0.825   5.030   5.241
 1710SOL    HW2 5168   0.744   5.016   5.100
 1711SOL     OW 5169   1.841   3.899   4.687
 1711SOL    HW1 5170   1.880   3.814   4.651
 1711SOL    HW2 5171   1.743   3.901   4.668
 1712SOL     OW 5172   0.263   4.050   4.444
 1712SOL    HW1 5173   0.184   4.101   4.410
 1712SOL    HW2 5174   0.254   4.035   4.542
 1713SOL     OW 5175   1.194   5.336   3.755
 1713SOL    HW1 5176   1.200   5.243   3.792
 1713SOL    HW2 5177   1.135   5.336   3.675
 1714SOL     OW 5178   0.822   4.726   5.096
 1714SOL    HW1 5179   0.862   4.725   5.004
 1714SOL    HW2 5180   0.832   4.818   5.136
 1715SOL     OW 5181   0.916   4.634   4.015
 1715SOL    HW1 5182   0.979   4.672   3.947
 1715SOL    HW2 5183   0.956   4.551   4.054
 1716SOL     OW 5184   0.372   5.012   5.214
 1716SOL    HW1 5185   0.359   5.105   5.180
 1716SOL    HW2 5186   0.288   4.960   5.201
 1717SOL     OW 5187   1.614   5.016   5.013
 1717SOL    HW1 5188   1.674   5.019   5.093
 1717SOL    HW2 5189   1.539   5.080   5.026
 1718SOL     OW 5190   1.039   4.822   4.420
 1718SOL    HW1 5191   0.969   4.775   4.474
 1718SOL    HW2 5192   1.098   4.754   4.377
 1719SOL     OW 5193   1.014   3.960   4.695
 1719SOL    HW1 5194   1.006   3.924   4.602
 1719SOL    HW2 5195   1.012   3.884   4.760
 1720SOL     OW 5196   0.590   5.211   4.215
 1720SOL    HW1 5197   0.632   5.153   4.145
 1720SOL    HW2 5198   0.546   5.290   4.171
 1721SOL     OW 5199   1.709   4.109   5.105
 1721SOL    HW1 5200   1.782   4.178   5.109
 1721SOL    HW2 5201   1.737   4.034   5.046
 1722SOL     OW 5202   0.255   5.072   4.014
 1722SOL    HW1 5203   0.159   5.073   3.987
 1722SOL    HW2 5204   0.267   5.125   4.098
 1723SOL     OW 5205   0.105   4.737   5.450
 1723SOL    HW1 5206   0.028   4.704   5.504
 1723SOL    HW2 5207   0.190   4.707   5.492
 1724SOL     OW 5208   0.672   3.927   5.213
 1724SOL    HW1 5209   0.762   3.911   5.173
 1724SOL    HW2 5210   0.680   3.932   5.312
 1725SOL     OW 5211   0.075   4.069   3.757
 1725SOL    HW1 5212  -0.017   4.041   3.728
 1725SOL    HW2 5213   0.106   4.146   3.701
 1726SOL     OW 5214   1.440   4.580   5.122
 1726SOL    HW1 5215   1.383   4.632   5.059
 1726SOL    HW2 5216   1.536   4.592   5.098
 1727SOL     OW 5217   0.072   3.890   4.042
 1727SOL    HW1 5218   0.055   3.973   3.988
 1727SOL    HW2 5219   0.162   3.853   4.020
 1728SOL     OW 5220   1.183   5.059   3.843
 1728SOL    HW1 5221   1.084   5.048   3.845
 1728SOL    HW2 5222   1.217   5.074   3.936
 1729SOL     OW 5223   0.613   4.566   5.155
 1729SOL    HW1 5224   0.669   4.647   5.138
 1729SOL    HW2 5225   0.672   4.486   5.158
 1730SOL     OW 5226   0.716   4.289   5.432
 1730SOL    HW1 5227   0.735   4.354   5.506
 1730SOL    HW2 5228   0.776   4.209   5.441
 1731SOL     OW 5229   0.390   5.465   5.284
 1731SOL    HW1 5230   0.299   5.506   5.282
 1731SOL    HW2 5231   0.383   5.371   5.316
 1732SOL     OW 5232   1.674   4.607   4.978
 1732SOL    HW1 5233   1.647   4.518   4.941
 1732SOL    HW2 5234   1.675   4.675   4.905
 1733SOL     OW 5235   1.225   4.049   4.173
 1733SOL    HW1 5236   1.290   3.975   4.162
 1733SOL    HW2 5237   1.245   4.099   4.257
 1734SOL     OW 5238   0.594   4.469   4.376
 1734SOL    HW1 5239   0.644   4.554   4.357
 1734SOL    HW2 5240   0.506   4.471   4.328
 1735SOL     OW 5241   1.777   4.066   5.366
 1735SOL    HW1 5242   1.760   4.097   5.272
 1735SOL    HW2 5243   1.693   4.029   5.404
 1736SOL     OW 5244   1.730   4.658   5.241
 1736SOL    HW1 5245   1.768   4.749   5.256
 1736SOL    HW2 5246   1.722   4.641   5.142
 1737SOL     OW 5247   0.859   5.098   3.740
 1737SOL    HW1 5248   0.813   5.113   3.828
 1737SOL    HW2 5249   0.903   5.183   3.710
 1738SOL     OW 5250   0.859   4.680   4.585
 1738SOL    HW1 5251   0.913   4.611   4.633
 1738SOL    HW2 5252   0.827   4.749   4.651
 1739SOL     OW 5253   1.083   4.708   3.811
 1739SOL    HW1 5254   1.060   4.761   3.729
 1739SOL    HW2 5255   1.164   4.652   3.792
 1740SOL     OW 5256   1.861   5.293   4.575
 1740SOL    HW1 5257   1.790   5.281   4.505
 1740SOL    HW2 5258   1.862   5.214   4.635
 1741SOL     OW 5259   0.079   4.964   4.377
 1741SOL    HW1 5260   0.078   4.917   4.465
 1741SOL    HW2 5261   0.161   4.936   4.326
 1742SOL     OW 5262   0.672   5.115   5.348
 1742SOL    HW1 5263   0.594   5.065   5.386
 1742SOL    HW2 5264   0.669   5.210   5.379
 1743SOL     OW 5265   1.824   3.916   4.951
 1743SOL    HW1 5266   1.820   3.826   4.995
 1743SOL    HW2 5267   1.827   3.905   4.852
 1744SOL     OW 5268   0.428   4.148   4.244
 1744SOL    HW1 5269   0.458   4.076   4.182
 1744SOL    HW2 5270   0.389   4.108   4.327
 1745SOL     OW 5271   1.705   5.211   4.828
 1745SOL    HW1 5272   1.612   5.186   4.801
 1745SOL    HW2 5273   1.731   5.161   4.910
 1746SOL     OW 5274   0.317   4.271   5.004
 1746SOL    HW1 5275   0.355   4.212   5.076
 1746SOL    HW2 5276   0.357   4.245   4.916
 1747SOL     OW 5277   1.424   3.938   4.836
 1747SOL    HW1 5278   1.476   3.873   4.891
 1747SOL    HW2 5279   1.375   4.001   4.897
 1748SOL     OW 5280   1.001   3.758   4.878
 1748SOL    HW1 5281   0.938   3.686   4.847
 1748SOL    HW2 5282   1.094   3.722   4.878
 1749SOL     OW 5283   0.770   5.054   4.025
 1749SOL    HW1 5284   0.724   4.967   4.042
 1749SOL    HW2 5285   0.861   5.051   4.066
 1750SOL     OW 5286   0.618   5.291   5.008
 1750SOL    HW1 5287   0.613   5.373   5.065
 1750SOL    HW2 5288   0.707   5.288   4.963
 1751SOL     OW 5289   1.352   3.776   3.892
 1751SOL    HW1 5290   1.387   3.735   3.808
 1751SOL    HW2 5291   1.262   3.738   3.912
 1752SOL     OW 5292   1.300   4.177   4.415
 1752SOL    HW1 5293   1.241   4.257   4.419
 1752SOL    HW2 5294   1.315   4.142   4.508
 1753SOL     OW 5295   1.593   3.945   4.606
 1753SOL    HW1 5296   1.509   3.944   4.660
 1753SOL    HW2 5297   1.595   4.028   4.550
 1754SOL     OW 5298   0.039   4.801   4.024
 1754SOL    HW1 5299   0.138   4.790   4.015
 1754SOL    HW2 5300  -0.001   4.715   4.056
 1755SOL     OW 5301   2.092   0.628   0.113
 1755SOL    HW1 5302   1.999   0.626   0.150
 1755SOL    HW2 5303   2.093   0.589   0.021
 1756SOL     OW 5304   2.087   0.275   0.996
 1756SOL    HW1 5305   2.122   0.258   1.088
 1756SOL    HW2 5306   1.999   0.230   0.984
 1757SOL     OW 5307   1.881   0.368   0.647
 1757SOL    HW1 5308   1.799   0.411   0.686
 1757SOL    HW2 5309   1.853   0.295   0.584
 1758SOL     OW 5310   2.431   1.275   1.165
 1758SOL    HW1 5311   2.338   1.268   1.128
 1758SOL    HW2 5312   2.442   1.364   1.209
 1759SOL     OW 5313   3.417   1.511   0.703
 1759SOL    HW1 5314   3.360   1.495   0.784
 1759SOL    HW2 5315   3.358   1.521   0.623
 1760SOL     OW 5316   2.997   0.703   0.717
 1760SOL    HW1 5317   3.054   0.781   0.692
 1760SOL    HW2 5318   2.937   0.729   0.793
 1761SOL     OW 5319   3.617   0.607   0.231
 1761SOL    HW1 5320   3.605   0.594   0.132
 1761SOL    HW2 5321   3.587   0.526   0.280
 1762SOL     OW 5322   2.630   1.144   1.023
 1762SOL    HW1 5323   2.552   1.161   1.083
 1762SOL    HW2 5324   2.664   1.231   0.987
 1763SOL     OW 5325   2.712   0.798   1.823
 1763SOL    HW1 5326   2.708   0.874   1.888
 1763SOL    HW2 5327   2.734   0.834   1.732
 1764SOL     OW 5328   2.547   1.012   0.665
 1764SOL    HW1 5329   2.616   0.996   0.735
 1764SOL    HW2 5330   2.474   1.069   0.703
 1765SOL     OW 5331   2.548   1.161   1.803
 1765SOL    HW1 5332   2.608   1.240   1.817
 1765SOL    HW2 5333   2.462   1.192   1.762
 1766SOL     OW 5334   2.197   1.435   1.061
 1766SOL    HW1 5335   2.119   1.404   1.008
 1766SOL    HW2 5336   2.255   1.493   1.004
 1767SOL     OW 5337   3.322   1.505   1.339
 1767SOL    HW1 5338   3.346   1.599   1.365
 1767SOL    HW2 5339   3.306   1.451   1.421
 1768SOL     OW 5340   2.300   0.392   1.499
 1768SOL    HW1 5341   2.382   0.336   1.508
 1768SOL    HW2 5342   2.219   0.334   1.503
 1769SOL     OW 5343   3.465   0.447   0.737
 1769SOL    HW1 5344   3.391   0.493   0.687
 1769SOL    HW2 5345   3.516   0.515   0.790
 1770SOL     OW 5346   2.093   1.713   0.483
 1770SOL    HW1 5347   2.127   1.790   0.537
 1770SOL    HW2 5348   2.137   1.713   0.393
 1771SOL     OW 5349   2.989   1.341   1.690
 1771SOL    HW1 5350   3.036   1.341   1.778
 1771SOL    HW2 5351   2.941   1.254   1.679
 1772SOL     OW 5352   2.092   1.434   0.538
 1772SOL    HW1 5353   2.066   1.530   0.538
 1772SOL    HW2 5354   2.021   1.380   0.583
 1773SOL     OW 5355   2.102   1.091   0.886
 1773SOL    HW1 5356   2.116   1.007   0.938
 1773SOL    HW2 5357   2.047   1.155   0.941
 1774SOL     OW 5358   2.482   1.786   1.439
 1774SOL    HW1 5359   2.390   1.769   1.474
 1774SOL    HW2 5360   2.510   1.878   1.465
 1775SOL     OW 5361   2.468   0.964   0.123
 1775SOL    HW1 5362   2.475   1.048   0.069
 1775SOL    HW2 5363   2.514   0.977   0.211
 1776SOL     OW 5364   3.456   0.114   1.480
 1776SOL    HW1 5365   3.438   0.181   1.408
 1776SOL    HW2 5366   3.453   0.160   1.569
 1777SOL     OW 5367   1.984   0.643   0.563
 1777SOL    HW1 5368   1.939   0.555   0.580
 1777SOL    HW2 5369   1.983   0.697   0.647
 1778SOL     OW 5370   3.704   1.767   0.359
 1778SOL    HW1 5371   3.758   1.738   0.439
 1778SOL    HW2 5372   3.734   1.857   0.330
 1779SOL     OW 5373   1.889   1.596   0.117
 1779SOL    HW1 5374   1.870   1.500   0.138
 1779SOL    HW2 5375   1.856   1.654   0.192
 1780SOL     OW 5376   3.551   0.922   0.612
 1780SOL    HW1 5377   3.646   0.893   0.620
 1780SOL    HW2 5378   3.543   0.987   0.537
 1781SOL     OW 5379   3.503   1.108   0.432
 1781SOL    HW1 5380   3.589   1.110   0.380
 1781SOL    HW2 5381   3.517   1.155   0.520
 1782SOL     OW 5382   1.975   0.737   1.597
 1782SOL    HW1 5383   2.063   0.724   1.642
 1782SOL    HW2 5384   1.962   0.834   1.575
 1783SOL     OW 5385   2.475   1.365   0.726
 1783SOL    HW1 5386   2.426   1.278   0.735
 1783SOL    HW2 5387   2.452   1.408   0.639
 1784SOL     OW 5388   3.155   1.228   1.423
 1784SOL    HW1 5389   3.192   1.155   1.365
 1784SOL    HW2 5390   3.207   1.233   1.508
 1785SOL     OW 5391   2.671   0.004   0.502
 1785SOL    HW1 5392   2.711   0.095   0.493
 1785SOL    HW2 5393   2.571   0.012   0.508
 1786SOL     OW 5394   2.059   0.976   1.264
 1786SOL    HW1 5395   2.148   0.931   1.250
 1786SOL    HW2 5396   1.986   0.911   1.245
 1787SOL     OW 5397   3.387   0.999   0.190
 1787SOL    HW1 5398   3.324   0.923   0.203
 1787SOL    HW2 5399   3.435   1.017   0.276
 1788SOL     OW 5400   3.049   1.792   1.616
 1788SOL    HW1 5401   3.073   1.852   1.540
 1788SOL    HW2 5402   3.056   1.697   1.586
 1789SOL     OW 5403   2.179   0.251   1.801
 1789SOL    HW1 5404   2.250   0.322   1.807
 1789SOL    HW2 5405   2.091   0.290   1.829
 1790SOL     OW 5406   3.328   1.417   0.953
 1790SOL    HW1 5407   3.269   1.423   1.033
 1790SOL    HW2 5408   3.313   1.329   0.907
 1791SOL     OW 5409   3.529   1.714   0.572
 1791SOL    HW1 5410   3.488   1.691   0.484
 1791SOL    HW2 5411   3.511   1.640   0.637
 1792SOL     OW 5412   2.460   0.729   0.270
 1792SOL    HW1 5413   2.484   0.798   0.202
 1792SOL    HW2 5414   2.382   0.762   0.324
 1793SOL     OW 5415   3.143   0.345   0.944
 1793SOL    HW1 5416   3.057   0.295   0.931
 1793SOL    HW2 5417   3.205   0.291   1.000
 1794SOL     OW 5418   3.438   1.662   0.307
 1794SOL    HW1 5419   3.527   1.708   0.310
 1794SOL    HW2 5420   3.417   1.638   0.212
 1795SOL     OW 5421   2.669   0.605   1.465
 1795SOL    HW1 5422   2.622   0.602   1.554
 1795SOL    HW2 5423   2.618   0.550   1.399
 1796SOL     OW 5424   3.256   0.469   1.674
 1796SOL    HW1 5425   3.236   0.512   1.762
 1796SOL    HW2 5426   3.334   0.407   1.683
 1797SOL     OW 5427   2.835   0.890   1.572
 1797SOL    HW1 5428   2.881   0.806   1.543
 1797SOL    HW2 5429   2.779   0.924   1.497
 1798SOL     OW 5430   2.853   0.410   1.242
 1798SOL    HW1 5431   2.776   0.444   1.296
 1798SOL    HW2 5432   2.819   0.359   1.163
 1799SOL     OW 5433   2.903   0.701   0.429
 1799SOL    HW1 5434   2.929   0.697   0.525
 1799SOL    HW2 5435   2.818   0.650   0.415
 1800SOL     OW 5436   1.938   0.811   0.789
 1800SOL    HW1 5437   2.037   0.799   0.798
 1800SOL    HW2 5438   1.914   0.906   0.810
 1801SOL     OW 5439   1.992   1.821   1.571
 1801SOL    HW1 5440   1.982   1.806   1.670
 1801SOL    HW2 5441   1.906   1.857   1.535
 1802SOL     OW 5442   2.727   0.348   0.195
 1802SOL    HW1 5443   2.786   0.411   0.146
 1802SOL    HW2 5444   2.746   0.254   0.166
 1803SOL     OW 5445   3.581   0.585   1.831
 1803SOL    HW1 5446   3.555   0.674   1.795
 1803SOL    HW2 5447   3.579   0.517   1.758
 1804SOL     OW 5448   3.224   1.144   0.545
 1804SOL    HW1 5449   3.307   1.115   0.497
 1804SOL    HW2 5450   3.175   1.211   0.489
 1805SOL     OW 5451   2.412   0.196   0.885
 1805SOL    HW1 5452   2.407   0.191   0.985
 1805SOL    HW2 5453   2.414   0.292   0.856
 1806SOL     OW 5454   2.870   1.456   0.477
 1806SOL    HW1 5455   2.824   1.528   0.425
 1806SOL    HW2 5456   2.866   1.476   0.575
 1807SOL     OW 5457   2.213   1.801   0.853
 1807SOL    HW1 5458   2.263   1.715   0.859
 1807SOL    HW2 5459   2.278   1.878   0.850
 1808SOL     OW 5460   3.657   1.066   0.873
 1808SOL    HW1 5461   3.595   1.051   0.797
 1808SOL    HW2 5462   3.605   1.077   0.958
 1809SOL     OW 5463   3.089   1.550   1.506
 1809SOL    HW1 5464   3.095   1.473   1.570
 1809SOL    HW2 5465   3.037   1.524   1.426
 1810SOL     OW 5466   2.183   0.943   0.242
 1810SOL    HW1 5467   2.265   0.982   0.200
 1810SOL    HW2 5468   2.156   0.861   0.193
 1811SOL     OW 5469   3.320   0.735   0.728
 1811SOL    HW1 5470   3.315   0.670   0.803
 1811SOL    HW2 5471   3.400   0.794   0.741
 1812SOL     OW 5472   2.323   1.266   1.727
 1812SOL    HW1 5473   2.273   1.267   1.641
 1812SOL    HW2 5474   2.260   1.248   1.803
 1813SOL     OW 5475   2.973   1.776   0.237
 1813SOL    HW1 5476   2.913   1.714   0.287
 1813SOL    HW2 5477   3.004   1.732   0.152
 1814SOL     OW 5478   2.064   0.285   1.498
 1814SOL    HW1 5479   1.984   0.345   1.485
 1814SOL    HW2 5480   2.054   0.236   1.584
 1815SOL     OW 5481   3.494   1.377   0.081
 1815SOL    HW1 5482   3.462   1.471   0.071
 1815SOL    HW2 5483   3.418   1.314   0.069
 1816SOL     OW 5484   2.326   1.743   0.323
 1816SOL    HW1 5485   2.359   1.782   0.409
 1816SOL    HW2 5486   2.402   1.736   0.258
 1817SOL     OW 5487   3.262   0.107   0.426
 1817SOL    HW1 5488   3.238   0.070   0.336
 1817SOL    HW2 5489   3.361   0.123   0.430
 1818SOL     OW 5490   2.111   1.785   1.241
 1818SOL    HW1 5491   2.168   1.720   1.291
 1818SOL    HW2 5492   2.095   1.752   1.148
 1819SOL     OW 5493   2.802   1.698   0.904
 1819SOL    HW1 5494   2.882   1.641   0.925
 1819SOL    HW2 5495   2.753   1.658   0.827
 1820SOL     OW 5496   2.244   0.700   0.480
 1820SOL    HW1 5497   2.289   0.610   0.477
 1820SOL    HW2 5498   2.150   0.689   0.513
 1821SOL     OW 5499   3.409   0.222   1.729
 1821SOL    HW1 5500   3.404   0.259   1.821
 1821SOL    HW2 5501   3.337   0.153   1.717
 1822SOL     OW 5502   2.476   0.122   0.117
 1822SOL    HW1 5503   2.574   0.100   0.124
 1822SOL    HW2 5504   2.445   0.105   0.024
 1823SOL     OW 5505   2.643   0.264   1.749
 1823SOL    HW1 5506   2.710   0.203   1.792
 1823SOL    HW2 5507   2.570   0.283   1.814
 1824SOL     OW 5508   2.750   1.514   1.195
 1824SOL    HW1 5509   2.727   1.489   1.101
 1824SOL    HW2 5510   2.811   1.445   1.234
 1825SOL     OW 5511   3.213   0.590   1.433
 1825SOL    HW1 5512   3.241   0.547   1.518
 1825SOL    HW2 5513   3.238   0.686   1.434
 1826SOL     OW 5514   2.665   1.402   0.924
 1826SOL    HW1 5515   2.755   1.416   0.882
 1826SOL    HW2 5516   2.594   1.404   0.853
 1827SOL     OW 5517   2.784   0.503   0.899
 1827SOL    HW1 5518   2.759   0.494   0.803
 1827SOL    HW2 5519   2.832   0.421   0.930
 1828SOL     OW 5520   2.401   0.064   0.512
 1828SOL    HW1 5521   2.320   0.065   0.570
 1828SOL    HW2 5522   2.404   0.147   0.457
 1829SOL     OW 5523   3.296   1.188   0.041
 1829SOL    HW1 5524   3.328   1.112   0.098
 1829SOL    HW2 5525   3.204   1.215   0.071
 1830SOL     OW 5526   2.159   0.035   0.171
 1830SOL    HW1 5527   2.208   0.119   0.150
 1830SOL    HW2 5528   2.221  -0.030   0.216
 1831SOL     OW 5529   2.797   0.236   0.480
 1831SOL    HW1 5530   2.749   0.277   0.402
 1831SOL    HW2 5531   2.896   0.234   0.461
 1832SOL     OW 5532   2.938   0.683   1.464
 1832SOL    HW1 5533   2.858   0.622   1.467
 1832SOL    HW2 5534   3.019   0.630   1.440
 1833SOL     OW 5535   3.089   1.570   0.793
 1833SOL    HW1 5536   3.110   1.644   0.728
 1833SOL    HW2 5537   3.157   1.570   0.866
 1834SOL     OW 5538   2.321   1.152   0.741
 1834SOL    HW1 5539   2.250   1.125   0.806
 1834SOL    HW2 5540   2.295   1.124   0.648
 1835SOL     OW 5541   3.133   1.797   0.591
 1835SOL    HW1 5542   3.177   1.861   0.527
 1835SOL    HW2 5543   3.083   1.849   0.661
 1836SOL     OW 5544   2.894   0.549   0.016
 1836SOL    HW1 5545   2.853   0.631  -0.023
 1836SOL    HW2 5546   2.958   0.575   0.089
 1837SOL     OW 5547   1.940   0.556   1.386
 1837SOL    HW1 5548   2.032   0.555   1.345
 1837SOL    HW2 5549   1.934   0.630   1.453
 1838SOL     OW 5550   2.423   0.222   1.147
 1838SOL    HW1 5551   2.461   0.138   1.184
 1838SOL    HW2 5552   2.335   0.241   1.191
 1839SOL     OW 5553   2.728   0.454   0.642
 1839SOL    HW1 5554   2.696   0.526   0.580
 1839SOL    HW2 5555   2.752   0.373   0.589
 1840SOL     OW 5556   2.879   0.039   0.753
 1840SOL    HW1 5557   2.807   0.044   0.684
 1840SOL    HW2 5558   2.855  -0.030   0.822
 1841SOL     OW 5559   3.291   1.173   0.867
 1841SOL    HW1 5560   3.236   1.089   0.860
 1841SOL    HW2 5561   3.317   1.202   0.775
 1842SOL     OW 5562   3.328   0.590   0.992
 1842SOL    HW1 5563   3.298   0.495   0.999
 1842SOL    HW2 5564   3.401   0.606   1.058
 1843SOL     OW 5565   3.719   0.833   0.377
 1843SOL    HW1 5566   3.761   0.769   0.441
 1843SOL    HW2 5567   3.681   0.782   0.299
 1844SOL     OW 5568   2.350   1.385   0.174
 1844SOL    HW1 5569   2.263   1.370   0.221
 1844SOL    HW2 5570   2.333   1.411   0.079
 1845SOL     OW 5571   3.526   1.280   0.657
 1845SOL    HW1 5572   3.625   1.288   0.671
 1845SOL    HW2 5573   3.481   1.364   0.688
 1846SOL     OW 5574   3.252   0.575   0.078
 1846SOL    HW1 5575   3.198   0.554   0.159
 1846SOL    HW2 5576   3.343   0.534   0.087
 1847SOL     OW 5577   2.389   0.256   0.328
 1847SOL    HW1 5578   2.416   0.197   0.253
 1847SOL    HW2 5579   2.389   0.351   0.297
 1848SOL     OW 5580   3.616   1.223   1.588
 1848SOL    HW1 5581   3.707   1.184   1.575
 1848SOL    HW2 5582   3.624   1.319   1.612
 1849SOL     OW 5583   2.926   1.347   1.340
 1849SOL    HW1 5584   2.846   1.324   1.395
 1849SOL    HW2 5585   3.009   1.321   1.389
 1850SOL     OW 5586   3.454   1.629   1.625
 1850SOL    HW1 5587   3.481   1.663   1.535
 1850SOL    HW2 5588   3.533   1.591   1.671
 1851SOL     OW 5589   2.973   1.195   1.100
 1851SOL    HW1 5590   2.933   1.239   1.181
 1851SOL    HW2 5591   2.932   1.232   1.017
 1852SOL     OW 5592   3.500   1.099   1.079
 1852SOL    HW1 5593   3.505   1.180   1.138
 1852SOL    HW2 5594   3.414   1.101   1.028
 1853SOL     OW 5595   2.777   0.089   1.402
 1853SOL    HW1 5596   2.802   0.069   1.307
 1853SOL    HW2 5597   2.849   0.145   1.444
 1854SOL     OW 5598   2.842   1.116   1.719
 1854SOL    HW1 5599   2.743   1.122   1.729
 1854SOL    HW2 5600   2.865   1.036   1.663
 1855SOL     OW 5601   2.567   1.050   0.368
 1855SOL    HW1 5602   2.553   1.057   0.467
 1855SOL    HW2 5603   2.651   0.999   0.350
 1856SOL     OW 5604   2.272   0.813   1.251
 1856SOL    HW1 5605   2.358   0.825   1.301
 1856SOL    HW2 5606   2.230   0.726   1.278
 1857SOL     OW 5607   3.136   0.386   1.262
 1857SOL    HW1 5608   3.157   0.460   1.326
 1857SOL    HW2 5609   3.047   0.403   1.219
 1858SOL     OW 5610   1.926   1.564   1.331
 1858SOL    HW1 5611   1.880   1.646   1.297
 1858SOL    HW2 5612   2.024   1.583   1.340
 1859SOL     OW 5613   2.229   1.100   0.501
 1859SOL    HW1 5614   2.222   1.183   0.445
 1859SOL    HW2 5615   2.233   1.020   0.441
 1860SOL     OW 5616   2.428   0.537   0.865
 1860SOL    HW1 5617   2.440   0.603   0.791
 1860SOL    HW2 5618   2.474   0.571   0.948
 1861SOL     OW 5619   3.114   1.348   0.388
 1861SOL    HW1 5620   3.164   1.425   0.428
 1861SOL    HW2 5621   3.019   1.350   0.420
 1862SOL     OW 5622   3.134   1.445   1.142
 1862SOL    HW1 5623   3.181   1.458   1.229
 1862SOL    HW2 5624   3.068   1.371   1.151
 1863SOL     OW 5625   3.444   0.639   0.472
 1863SOL    HW1 5626   3.413   0.700   0.545
 1863SOL    HW2 5627   3.494   0.691   0.403
 1864SOL     OW 5628   2.216   1.510   1.329
 1864SOL    HW1 5629   2.195   1.466   1.242
 1864SOL    HW2 5630   2.313   1.536   1.332
 1865SOL     OW 5631   2.264   0.751   1.598
 1865SOL    HW1 5632   2.332   0.806   1.551
 1865SOL    HW2 5633   2.304   0.663   1.625
 1866SOL     OW 5634   3.449   0.779   1.670
 1866SOL    HW1 5635   3.357   0.817   1.665
 1866SOL    HW2 5636   3.509   0.826   1.605
 1867SOL     OW 5637   2.875   0.105   1.770
 1867SOL    HW1 5638   2.881   0.190   1.718
 1867SOL    HW2 5639   2.907   0.029   1.713
 1868SOL     OW 5640   2.366   0.050   1.740
 1868SOL    HW1 5641   2.324  -0.007   1.670
 1868SOL    HW2 5642   2.300   0.119   1.772
 1869SOL     OW 5643   2.435   0.870   1.029
 1869SOL    HW1 5644   2.479   0.959   1.020
 1869SOL    HW2 5645   2.372   0.870   1.106
 1870SOL     OW 5646   3.222   0.862   1.045
 1870SOL    HW1 5647   3.147   0.862   0.979
 1870SOL    HW2 5648   3.259   0.770   1.054
 1871SOL     OW 5649   3.071   0.525   0.275
 1871SOL    HW1 5650   3.084   0.441   0.329
 1871SOL    HW2 5651   3.042   0.599   0.335
 1872SOL     OW 5652   2.169   0.213   1.231
 1872SOL    HW1 5653   2.146   0.250   1.321
 1872SOL    HW2 5654   2.139   0.118   1.225
 1873SOL     OW 5655   1.899   1.310   1.282
 1873SOL    HW1 5656   1.952   1.261   1.350
 1873SOL    HW2 5657   1.921   1.408   1.287
 1874SOL     OW 5658   2.594   0.634   1.064
 1874SOL    HW1 5659   2.653   0.608   0.988
 1874SOL    HW2 5660   2.566   0.730   1.053
 1875SOL     OW 5661   3.590   0.935   1.854
 1875SOL    HW1 5662   3.544   0.928   1.765
 1875SOL    HW2 5663   3.528   0.979   1.920
 1876SOL     OW 5664   2.169   0.063   0.618
 1876SOL    HW1 5665   2.158   0.157   0.651
 1876SOL    HW2 5666   2.164   0.000   0.695
 1877SOL     OW 5667   3.484   0.367   0.374
 1877SOL    HW1 5668   3.486   0.291   0.438
 1877SOL    HW2 5669   3.436   0.444   0.414
 1878SOL     OW 5670   2.885   0.766   0.966
 1878SOL    HW1 5671   2.900   0.787   1.062
 1878SOL    HW2 5672   2.855   0.671   0.957
 1879SOL     OW 5673   2.842   1.573   1.700
 1879SOL    HW1 5674   2.822   1.617   1.612
 1879SOL    HW2 5675   2.881   1.482   1.684
 1880SOL     OW 5676   3.721   1.518   1.605
 1880SOL    HW1 5677   3.735   1.545   1.510
 1880SOL    HW2 5678   3.804   1.540   1.658
 1881SOL     OW 5679   2.212   0.898   1.804
 1881SOL    HW1 5680   2.288   0.942   1.852
 1881SOL    HW2 5681   2.247   0.851   1.722
 1882SOL     OW 5682   3.402   0.274   0.125
 1882SOL    HW1 5683   3.341   0.199   0.148
 1882SOL    HW2 5684   3.424   0.326   0.208
 1883SOL     OW 5685   3.165   0.838   0.042
 1883SOL    HW1 5686   3.199   0.745   0.057
 1883SOL    HW2 5687   3.183   0.865  -0.053
 1884SOL     OW 5688   2.930   1.333   0.849
 1884SOL    HW1 5689   2.937   1.249   0.794
 1884SOL    HW2 5690   2.992   1.402   0.813
 1885SOL     OW 5691   2.181   0.810   0.949
 1885SOL    HW1 5692   2.274   0.846   0.954
 1885SOL    HW2 5693   2.175   0.725   1.001
 1886SOL     OW 5694   2.201   0.509   1.006
 1886SOL    HW1 5695   2.149   0.426   0.989
 1886SOL    HW2 5696   2.278   0.514   0.942
 1887SOL     OW 5697   3.000   0.380   1.678
 1887SOL    HW1 5698   2.955   0.443   1.742
 1887SOL    HW2 5699   3.093   0.411   1.661
 1888SOL     OW 5700   3.022   0.207   1.477
 1888SOL    HW1 5701   3.022   0.271   1.554
 1888SOL    HW2 5702   3.050   0.255   1.394
 1889SOL     OW 5703   1.870   1.326   0.200
 1889SOL    HW1 5704   1.777   1.347   0.169
 1889SOL    HW2 5705   1.880   1.227   0.213
 1890SOL     OW 5706   1.950   1.801   0.927
 1890SOL    HW1 5707   1.908   1.715   0.900
 1890SOL    HW2 5708   2.044   1.804   0.893
 1891SOL     OW 5709   2.366   1.568   0.910
 1891SOL    HW1 5710   2.432   1.642   0.919
 1891SOL    HW2 5711   2.410   1.489   0.868
 1892SOL     OW 5712   2.864   0.796   1.238
 1892SOL    HW1 5713   2.905   0.764   1.324
 1892SOL    HW2 5714   2.768   0.769   1.235
 1893SOL     OW 5715   1.902   0.544   1.114
 1893SOL    HW1 5716   1.987   0.511   1.073
 1893SOL    HW2 5717   1.915   0.559   1.212
 1894SOL     OW 5718   2.051   0.520   1.722
 1894SOL    HW1 5719   2.110   0.480   1.652
 1894SOL    HW2 5720   1.993   0.591   1.681
 1895SOL     OW 5721   3.231   0.950   1.660
 1895SOL    HW1 5722   3.270   1.039   1.680
 1895SOL    HW2 5723   3.241   0.930   1.563
 1896SOL     OW 5724   2.677   0.572   0.325
 1896SOL    HW1 5725   2.684   0.483   0.279
 1896SOL    HW2 5726   2.583   0.606   0.317
 1897SOL     OW 5727   3.519   0.604   1.206
 1897SOL    HW1 5728   3.481   0.535   1.268
 1897SOL    HW2 5729   3.601   0.568   1.162
 1898SOL     OW 5730   2.114   1.564   1.744
 1898SOL    HW1 5731   2.084   1.621   1.820
 1898SOL    HW2 5732   2.107   1.467   1.770
 1899SOL     OW 5733   2.533   0.464   1.269
 1899SOL    HW1 5734   2.499   0.375   1.239
 1899SOL    HW2 5735   2.559   0.518   1.189
 1900SOL     OW 5736   2.792   1.678   1.465
 1900SOL    HW1 5737   2.768   1.660   1.370
 1900SOL    HW2 5738   2.822   1.772   1.475
 1901SOL     OW 5739   2.335   0.500   0.191
 1901SOL    HW1 5740   2.396   0.580   0.195
 1901SOL    HW2 5741   2.240   0.531   0.198
 1902SOL     OW 5742   2.021   1.137   1.466
 1902SOL    HW1 5743   2.043   1.076   1.542
 1902SOL    HW2 5744   2.031   1.088   1.380
 1903SOL     OW 5745   3.209   1.059   1.234
 1903SOL    HW1 5746   3.233   0.996   1.160
 1903SOL    HW2 5747   3.119   1.099   1.216
 1904SOL     OW 5748   3.164   0.855   0.309
 1904SOL    HW1 5749   3.078   0.824   0.351
 1904SOL    HW2 5750   3.160   0.841   0.210
 1905SOL     OW 5751   3.621   1.747   1.154
 1905SOL    HW1 5752   3.682   1.777   1.081
 1905SOL    HW2 5753   3.583   1.658   1.132
 1906SOL     OW 5754   3.114   1.731   1.128
 1906SOL    HW1 5755   3.198   1.736   1.074
 1906SOL    HW2 5756   3.091   1.635   1.146
 1907SOL     OW 5757   1.945   1.258   1.022
 1907SOL    HW1 5758   1.940   1.257   1.122
 1907SOL    HW2 5759   1.862   1.217   0.984
 1908SOL     OW 5760   2.550   1.662   1.716
 1908SOL    HW1 5761   2.494   1.743   1.725
 1908SOL    HW2 5762   2.602   1.666   1.630
 1909SOL     OW 5763   2.765   0.086   0.133
 1909SOL    HW1 5764   2.816   0.087   0.047
 1909SOL    HW2 5765   2.821   0.044   0.204
 1910SOL     OW 5766   3.588   0.135   0.523
 1910SOL    HW1 5767   3.661   0.118   0.456
 1910SOL    HW2 5768   3.557   0.048   0.561
 1911SOL     OW 5769   3.250   1.573   0.477
 1911SOL    HW1 5770   3.317   1.585   0.403
 1911SOL    HW2 5771   3.210   1.662   0.500
 1912SOL     OW 5772   1.992   1.794   1.851
 1912SOL    HW1 5773   1.951   1.720   1.904
 1912SOL    HW2 5774   2.056   1.845   1.909
 1913SOL     OW 5775   3.142   0.927   0.672
 1913SOL    HW1 5776   3.202   0.846   0.674
 1913SOL    HW2 5777   3.182   0.996   0.612
 1914SOL     OW 5778   2.692   1.273   1.422
 1914SOL    HW1 5779   2.687   1.306   1.517
 1914SOL    HW2 5780   2.606   1.292   1.376
 1915SOL     OW 5781   2.534   1.616   0.154
 1915SOL    HW1 5782   2.543   1.626   0.055
 1915SOL    HW2 5783   2.494   1.527   0.175
 1916SOL     OW 5784   3.512   1.720   1.394
 1916SOL    HW1 5785   3.565   1.730   1.310
 1916SOL    HW2 5786   3.485   1.810   1.428
 1917SOL     OW 5787   3.703   0.175   0.963
 1917SOL    HW1 5788   3.742   0.090   0.927
 1917SOL    HW2 5789   3.605   0.177   0.944
 1918SOL     OW 5790   2.125   0.326   0.720
 1918SOL    HW1 5791   2.046   0.377   0.686
 1918SOL    HW2 5792   2.116   0.311   0.818
 1919SOL     OW 5793   3.056   1.612   0.031
 1919SOL    HW1 5794   3.062   1.519   0.068
 1919SOL    HW2 5795   2.997   1.612  -0.049
 1920SOL     OW 5796   2.684   1.002   1.372
 1920SOL    HW1 5797   2.724   1.001   1.280
 1920SOL    HW2 5798   2.694   1.094   1.412
 1921SOL     OW 5799   2.778   0.910   0.291
 1921SOL    HW1 5800   2.841   0.948   0.223
 1921SOL    HW2 5801   2.818   0.827   0.330
 1922SOL     OW 5802   3.366   1.607   0.044
 1922SOL    HW1 5803   3.274   1.644   0.051
 1922SOL    HW2 5804   3.404   1.627  -0.046
 1923SOL     OW 5805   2.234   1.288   1.490
 1923SOL    HW1 5806   2.221   1.381   1.456
 1923SOL    HW2 5807   2.150   1.236   1.477
 1924SOL     OW 5808   3.476   1.292   1.289
 1924SOL    HW1 5809   3.536   1.295   1.369
 1924SOL    HW2 5810   3.401   1.356   1.302
 1925SOL     OW 5811   2.901   1.098   0.696
 1925SOL    HW1 5812   2.831   1.051   0.750
 1925SOL    HW2 5813   2.960   1.030   0.653
 1926SOL     OW 5814   2.876   0.236   0.971
 1926SOL    HW1 5815   2.868   0.200   0.878
 1926SOL    HW2 5816   2.874   0.160   1.036
 1927SOL     OW 5817   2.452   1.487   0.491
 1927SOL    HW1 5818   2.494   1.429   0.421
 1927SOL    HW2 5819   2.408   1.566   0.447
 1928SOL     OW 5820   3.571   0.385   1.381
 1928SOL    HW1 5821   3.644   0.454   1.385
 1928SOL    HW2 5822   3.599   0.310   1.322
 1929SOL     OW 5823   2.117   1.348   0.290
 1929SOL    HW1 5824   2.021   1.349   0.263
 1929SOL    HW2 5825   2.129   1.401   0.374
 1930SOL     OW 5826   1.967   1.013   1.726
 1930SOL    HW1 5827   1.890   0.980   1.780
 1930SOL    HW2 5828   2.052   0.983   1.768
 1931SOL     OW 5829   2.534   0.203   1.489
 1931SOL    HW1 5830   2.624   0.187   1.449
 1931SOL    HW2 5831   2.542   0.208   1.588
 1932SOL     OW 5832   3.302   0.856   1.398
 1932SOL    HW1 5833   3.245   0.908   1.335
 1932SOL    HW2 5834   3.398   0.868   1.374
 1933SOL     OW 5835   1.934   0.166   0.318
 1933SOL    HW1 5836   1.917   0.249   0.264
 1933SOL    HW2 5837   2.024   0.129   0.296
 1934SOL     OW 5838   3.045   1.335   0.119
 1934SOL    HW1 5839   2.946   1.324   0.121
 1934SOL    HW2 5840   3.079   1.350   0.212
 1935SOL     OW 5841   2.475   0.842   1.431
 1935SOL    HW1 5842   2.531   0.923   1.414
 1935SOL    HW2 5843   2.534   0.762   1.434
 1936SOL     OW 5844   3.355   1.767   0.959
 1936SOL    HW1 5845   3.388   1.831   0.890
 1936SOL    HW2 5846   3.421   1.761   1.034
 1937SOL     OW 5847   2.578   0.565   1.708
 1937SOL    HW1 5848   2.597   0.630   1.782
 1937SOL    HW2 5849   2.638   0.485   1.717
 1938SOL     OW 5850   3.312   1.220   1.633
 1938SOL    HW1 5851   3.303   1.210   1.732
 1938SOL    HW2 5852   3.408   1.213   1.607
 1939SOL     OW 5853   2.252   1.741   1.560
 1939SOL    HW1 5854   2.161   1.782   1.558
 1939SOL    HW2 5855   2.245   1.647   1.592
 1940SOL     OW 5856   3.536   0.883   1.254
 1940SOL    HW1 5857   3.509   0.794   1.217
 1940SOL    HW2 5858   3.537   0.951   1.181
 1941SOL     OW 5859   3.087   0.325   0.449
 1941SOL    HW1 5860   3.152   0.251   0.438
 1941SOL    HW2 5861   3.107   0.375   0.533
 1942SOL     OW 5862   2.456   0.745   0.652
 1942SOL    HW1 5863   2.506   0.830   0.633
 1942SOL    HW2 5864   2.368   0.747   0.604
 1943SOL     OW 5865   3.639   0.342   1.642
 1943SOL    HW1 5866   3.622   0.373   1.548
 1943SOL    HW2 5867   3.555   0.305   1.680
 1944SOL     OW 5868   3.592   0.934   1.517
 1944SOL    HW1 5869   3.630   1.025   1.532
 1944SOL    HW2 5870   3.584   0.917   1.418
 1945SOL     OW 5871   2.721   1.374   0.016
 1945SOL    HW1 5872   2.675   1.389   0.104
 1945SOL    HW2 5873   2.765   1.459  -0.014
 1946SOL     OW 5874   2.523   1.790   0.953
 1946SOL    HW1 5875   2.477   1.878   0.940
 1946SOL    HW2 5876   2.622   1.802   0.946
 1947SOL     OW 5877   2.721   0.956   0.861
 1947SOL    HW1 5878   2.775   0.887   0.909
 1947SOL    HW2 5879   2.689   1.025   0.927
 1948SOL     OW 5880   2.945   0.984   0.087
 1948SOL    HW1 5881   2.922   1.037   0.005
 1948SOL    HW2 5882   3.026   0.928   0.068
 1949SOL     OW 5883   3.723   1.569   0.851
 1949SOL    HW1 5884   3.652   1.557   0.781
 1949SOL    HW2 5885   3.724   1.490   0.911
 1950SOL     OW 5886   2.083   1.314   1.844
 1950SOL    HW1 5887   2.018   1.241   1.823
 1950SOL    HW2 5888   2.087   1.328   1.942
 1951SOL     OW 5889   1.941   1.240   0.653
 1951SOL    HW1 5890   1.940   1.193   0.741
 1951SOL    HW2 5891   2.023   1.212   0.602
 1952SOL     OW 5892   2.534   1.391   1.624
 1952SOL    HW1 5893   2.456   1.341   1.662
 1952SOL    HW2 5894   2.531   1.486   1.655
 1953SOL     OW 5895   3.686   0.192   1.227
 1953SOL    HW1 5896   3.682   0.102   1.271
 1953SOL    HW2 5897   3.689   0.181   1.128
 1954SOL     OW 5898   2.290   0.424   0.520
 1954SOL    HW1 5899   2.320   0.352   0.458
 1954SOL    HW2 5900   2.251   0.384   0.603
 1955SOL     OW 5901   3.567   1.487   1.104
 1955SOL    HW1 5902   3.474   1.462   1.077
 1955SOL    HW2 5903   3.593   1.437   1.186
 1956SOL     OW 5904   2.179   0.547   1.280
 1956SOL    HW1 5905   2.217   0.488   1.352
 1956SOL    HW2 5906   2.219   0.521   1.192
 1957SOL     OW 5907   2.674   1.586   0.687
 1957SOL    HW1 5908   2.706   1.596   0.593
 1957SOL    HW2 5909   2.595   1.524   0.689
 1958SOL     OW 5910   3.286   0.214   1.112
 1958SOL    HW1 5911   3.338   0.149   1.167
 1958SOL    HW2 5912   3.237   0.277   1.173
 1959SOL     OW 5913   2.863   0.034   1.154
 1959SOL    HW1 5914   2.800  -0.038   1.123
 1959SOL    HW2 5915   2.956  -0.002   1.154
 1960SOL     OW 5916   2.632   1.330   0.301
 1960SOL    HW1 5917   2.586   1.243   0.318
 1960SOL    HW2 5918   2.723   1.327   0.342
 1961SOL     OW 5919   2.480   1.567   1.284
 1961SOL    HW1 5920   2.475   1.649   1.341
 1961SOL    HW2 5921   2.569   1.564   1.239
 1962SOL     OW 5922   3.214   0.052   0.168
 1962SOL    HW1 5923   3.249   0.011   0.084
 1962SOL    HW2 5924   3.124   0.014   0.188
 1963SOL     OW 5925   3.162   0.453   0.691
 1963SOL    HW1 5926   3.103   0.533   0.695
 1963SOL    HW2 5927   3.177   0.418   0.784
 1964SOL     OW 5928   3.455   0.221   0.882
 1964SOL    HW1 5929   3.371   0.220   0.936
 1964SOL    HW2 5930   3.457   0.304   0.826
 1965SOL     OW 5931   1.901   1.077   0.300
 1965SOL    HW1 5932   2.000   1.066   0.291
 1965SOL    HW2 5933   1.861   0.991   0.332
 1966SOL     OW 5934   2.737   1.646   0.337
 1966SOL    HW1 5935   2.660   1.611   0.283
 1966SOL    HW2 5936   2.705   1.717   0.399
 1967SOL     OW 5937   2.092   0.628   1.975
 1967SOL    HW1 5938   1.999   0.626   2.012
 1967SOL    HW2 5939   2.093   0.589   1.883
 1968SOL     OW 5940   2.087   0.275   2.858
 1968SOL    HW1 5941   2.122   0.258   2.950
 1968SOL    HW2 5942   1.999   0.230   2.846
 1969SOL     OW 5943   1.881   0.368   2.509
 1969SOL    HW1 5944   1.799   0.411   2.548
 1969SOL    HW2 5945   1.853   0.295   2.446
 1970SOL     OW 5946   2.431   1.275   3.027
 1970SOL    HW1 5947   2.338   1.268   2.990
 1970SOL    HW2 5948   2.442   1.364   3.071
 1971SOL     OW 5949   3.417   1.511   2.565
 1971SOL    HW1 5950   3.360   1.495   2.646
 1971SOL    HW2 5951   3.358   1.521   2.485
 1972SOL     OW 5952   2.997   0.703   2.579
 1972SOL    HW1 5953   3.054   0.781   2.554
 1972SOL    HW2 5954   2.937   0.729   2.655
 1973SOL     OW 5955   3.617   0.607   2.093
 1973SOL    HW1 5956   3.605   0.594   1.994
 1973SOL    HW2 5957   3.587   0.526   2.142
 1974SOL     OW 5958   2.630   1.144   2.885
 1974SOL    HW1 5959   2.552   1.161   2.945
 1974SOL    HW2 5960   2.664   1.231   2.849
 1975SOL     OW 5961   2.712   0.798   3.685
 1975SOL    HW1 5962   2.708   0.874   3.750
 1975SOL    HW2 5963   2.734   0.834   3.594
 1976SOL     OW 5964   2.547   1.012   2.527
 1976SOL    HW1 5965   2.616   0.996   2.597
 1976SOL    HW2 5966   2.474   1.069   2.565
 1977SOL     OW 5967   2.548   1.161   3.665
 1977SOL    HW1 5968   2.608   1.240   3.679
 1977SOL    HW2 5969   2.462   1.192   3.624
 1978SOL     OW 5970   2.197   1.435   2.923
 1978SOL    HW1 5971   2.119   1.404   2.870
 1978SOL    HW2 5972   2.255   1.493   2.866
 1979SOL     OW 5973   3.322   1.505   3.201
 1979SOL    HW1 5974   3.346   1.599   3.227
 1979SOL    HW2 5975   3.306   1.451   3.283
 1980SOL     OW 5976   2.300   0.392   3.361
 1980SOL    HW1 5977   2.382   0.336   3.370
 1980SOL    HW2 5978   2.219   0.334   3.365
 1981SOL     OW 5979   3.465   0.447   2.599
 1981SOL    HW1 5980   3.391   0.493   2.549
 1981SOL    HW2 5981   3.516   0.515   2.652
 1982SOL     OW 5982   2.093   1.713   2.345
 1982SOL    HW1 5983   2.127   1.790   2.399
 1982SOL    HW2 5984   2.137   1.713   2.255
 1983SOL     OW 5985   2.989   1.341   3.552
 1983SOL    HW1 5986   3.036   1.341   3.640
 1983SOL    HW2 5987   2.941   1.254   3.541
 1984SOL     OW 5988   2.092   1.434   2.400
 1984SOL    HW1 5989   2.066   1.530   2.400
 1984SOL    HW2 5990   2.021   1.380   2.445
 1985SOL     OW 5991   2.102   1.091   2.748
 1985SOL    HW1 5992   2.116   1.007   2.800
 1985SOL    HW2 5993   2.047   1.155   2.803
 1986SOL     OW 5994   2.482   1.786   3.301
 1986SOL    HW1 5995   2.390   1.769   3.336
 1986SOL    HW2 5996   2.510   1.878   3.327
 1987SOL     OW 5997   2.468   0.964   1.985
 1987SOL    HW1 5998   2.475   1.048   1.931
 1987SOL    HW2 5999   2.514   0.977   2.073
 1988SOL     OW 6000   3.456   0.114   3.342
 1988SOL    HW1 6001   3.438   0.181   3.270
 1988SOL    HW2 6002   3.453   0.160   3.431
 1989SOL     OW 6003   1.984   0.643   2.425
 1989SOL    HW1 6004   1.939   0.555   2.442
 1989SOL    HW2 6005   1.983   0.697   2.509
 1990SOL     OW 6006   3.704   1.767   2.221
 1990SOL    HW1 6007   3.758   1.738   2.301
 1990SOL    HW2 6008   3.734   1.857   2.192
 1991SOL     OW 6009   1.889   1.596   1.979
 1991SOL    HW1 6010   1.870   1.500   2.000
 1991SOL    HW2 6011   1.856   1.654   2.054
 1992SOL     OW 6012   3.551   0.922   2.474
 1992SOL    HW1 6013   3.646   0.893   2.482
 1992SOL    HW2 6014   3.543   0.987   2.399
 1993SOL     OW 6015   3.503   1.108   2.294
 1993SOL    HW1 6016   3.589   1.110   2.242
 1993SOL    HW2 6017   3.517   1.155   2.382
 1994SOL     OW 6018   1.975   0.737   3.459
 1994SOL    HW1 6019   2.063   0.724   3.504
 1994SOL    HW2 6020   1.962   0.834   3.437
 1995SOL     OW 6021   2.475   1.365   2.588
 1995SOL    HW1 6022   2.426   1.278   2.597
 1995SOL    HW2 6023   2.452   1.408   2.501
 1996SOL     OW 6024   3.155   1.228   3.285
 1996SOL    HW1 6025   3.192   1.155   3.227
 1996SOL    HW2 6026   3.207   1.233   3.370
 1997SOL     OW 6027   2.671   0.004   2.364
 1997SOL    HW1 6028   2.711   0.095   2.355
 1997SOL    HW2 6029   2.571   0.012   2.370
 1998SOL     OW 6030   2.059   0.976   3.126
 1998SOL    HW1 6031   2.148   0.931   3.112
 1998SOL    HW2 6032   1.986   0.911   3.107
 1999SOL     OW 6033   3.387   0.999   2.052
 1999SOL    HW1 6034   3.324   0.923   2.065
 1999SOL    HW2 6035   3.435   1.017   2.138
 2000SOL     OW 6036   3.049   1.792   3.478
 2000SOL    HW1 6037   3.073   1.852   3.402
 2000SOL    HW2 6038   3.056   1.697   3.448
 2001SOL     OW 6039   2.179   0.251   3.663
 2001SOL    HW1 6040   2.250   0.322   3.669
 2001SOL    HW2 6041   2.091   0.290   3.691
 2002SOL     OW 6042   3.328   1.417   2.815
 2002SOL    HW1 6043   3.269   1.423   2.895
 2002SOL    HW2 6044   3.313   1.329   2.769
 2003SOL     OW 6045   3.529   1.714   2.434
 2003SOL    HW1 6046   3.488   1.691   2.346
 2003SOL    HW2 6047   3.511   1.640   2.499
 2004SOL     OW 6048   2.460   0.729   2.132
 2004SOL    HW1 6049   2.484   0.798   2.064
 2004SOL    HW2 6050   2.382   0.762   2.186
 2005SOL     OW 6051   3.143   0.345   2.806
 2005SOL    HW1 6052   3.057   0.295   2.793
 2005SOL    HW2 6053   3.205   0.291   2.862
 2006SOL     OW 6054   3.438   1.662   2.169
 2006SOL    HW1 6055   3.527   1.708   2.172
 2006SOL    HW2 6056   3.417   1.638   2.074
 2007SOL     OW 6057   2.669   0.605   3.327
 2007SOL    HW1 6058   2.622   0.602   3.416
 2007SOL    HW2 6059   2.618   0.550   3.261
 2008SOL     OW 6060   3.256   0.469   3.536
 2008SOL    HW1 6061   3.236   0.512   3.624
 2008SOL    HW2 6062   3.334   0.407   3.545
 2009SOL     OW 6063   2.835   0.890   3.434
 2009SOL    HW1 6064   2.881   0.806   3.405
 2009SOL    HW2 6065   2.779   0.924   3.359
 2010SOL     OW 6066   2.853   0.410   3.104
 2010SOL    HW1 6067   2.776   0.444   3.158
 2010SOL    HW2 6068   2.819   0.359   3.025
 2011SOL     OW 6069   2.903   0.701   2.291
 2011SOL    HW1 6070   2.929   0.697   2.387
 2011SOL    HW2 6071   2.818   0.650   2.277
 2012SOL     OW 6072   1.938   0.811   2.651
 2012SOL    HW1 6073   2.037   0.799   2.660
 2012SOL    HW2 6074   1.914   0.906   2.672
 2013SOL     OW 6075   1.992   1.821   3.433
 2013SOL    HW1 6076   1.982   1.806   3.532
 2013SOL    HW2 6077   1.906   1.857   3.397
 2014SOL     OW 6078   2.727   0.348   2.057
 2014SOL    HW1 6079   2.786   0.411   2.008
 2014SOL    HW2 6080   2.746   0.254   2.028
 2015SOL     OW 6081   3.581   0.585   3.693
 2015SOL    HW1 6082   3.555   0.674   3.657
 2015SOL    HW2 6083   3.579   0.517   3.620
 2016SOL     OW 6084   3.224   1.144   2.407
 2016SOL    HW1 6085   3.307   1.115   2.359
 2016SOL    HW2 6086   3.175   1.211   2.351
 2017SOL     OW 6087   2.412   0.196   2.747
 2017SOL    HW1 6088   2.407   0.191   2.847
 2017SOL    HW2 6089   2.414   0.292   2.718
 2018SOL     OW 6090   2.870   1.456   2.339
 2018SOL    HW1 6091   2.824   1.528   2.287
 2018SOL    HW2 6092   2.866   1.476   2.437
 2019SOL     OW 6093   2.213   1.801   2.715
 2019SOL    HW1 6094   2.263   1.715   2.721
 2019SOL    HW2 6095   2.278   1.878   2.712
 2020SOL     OW 6096   3.657   1.066   2.735
 2020SOL    HW1 6097   3.595   1.051   2.659
 2020SOL    HW2 6098   3.605   1.077   2.820
 2021SOL     OW 6099   3.089   1.550   3.368
 2021SOL    HW1 6100   3.095   1.473   3.432
 2021SOL    HW2 6101   3.037   1.524   3.288
 2022SOL     OW 6102   2.183   0.943   2.104
 2022SOL    HW1 6103   2.265   0.982   2.062
 2022SOL    HW2 6104   2.156   0.861   2.055
 2023SOL     OW 6105   3.320   0.735   2.590
 2023SOL    HW1 6106   3.315   0.670   2.665
 2023SOL    HW2 6107   3.400   0.794   2.603
 2024SOL     OW 6108   2.323   1.266   3.589
 2024SOL    HW1 6109   2.273   1.267   3.503
 2024SOL    HW2 6110   2.260   1.248   3.665
 2025SOL     OW 6111   2.973   1.776   2.099
 2025SOL    HW1 6112   2.913   1.714   2.149
 2025SOL    HW2 6113   3.004   1.732   2.014
 2026SOL     OW 6114   2.064   0.285   3.360
 2026SOL    HW1 6115   1.984   0.345   3.347
 2026SOL    HW2 6116   2.054   0.236   3.446
 2027SOL     OW 6117   3.494   1.377   1.943
 2027SOL    HW1 6118   3.462   1.471   1.933
 2027SOL    HW2 6119   3.418   1.314   1.931
 2028SOL     OW 6120   2.326   1.743   2.185
 2028SOL    HW1 6121   2.359   1.782   2.271
 2028SOL    HW2 6122   2.402   1.736   2.120
 2029SOL     OW 6123   3.262   0.107   2.288
 2029SOL    HW1 6124   3.238   0.070   2.198
 2029SOL    HW2 6125   3.361   0.123   2.292
 2030SOL     OW 6126   2.111   1.785   3.103
 2030SOL    HW1 6127   2.168   1.720   3.153
 2030SOL    HW2 6128   2.095   1.752   3.010
 2031SOL     OW 6129   2.802   1.698   2.766
 2031SOL    HW1 6130   2.882   1.641   2.787
 2031SOL    HW2 6131   2.753   1.658   2.689
 2032SOL     OW 6132   2.244   0.700   2.342
 2032SOL    HW1 6133   2.289   0.610   2.339
 2032SOL    HW2 6134   2.150   0.689   2.375
 2033SOL     OW 6135   3.409   0.222   3.591
 2033SOL    HW1 6136   3.404   0.259   3.683
 2033SOL    HW2 6137   3.337   0.153   3.579
 2034SOL     OW 6138   2.476   0.122   1.979
 2034SOL    HW1 6139   2.574   0.100   1.986
 2034SOL    HW2 6140   2.445   0.105   1.886
 2035SOL     OW 6141   2.643   0.264   3.611
 2035SOL    HW1 6142   2.710   0.203   3.654
 2035SOL    HW2 6143   2.570   0.283   3.676
 2036SOL     OW 6144   2.750   1.514   3.057
 2036SOL    HW1 6145   2.727   1.489   2.963
 2036SOL    HW2 6146   2.811   1.445   3.096
 2037SOL     OW 6147   3.213   0.590   3.295
 2037SOL    HW1 6148   3.241   0.547   3.380
 2037SOL    HW2 6149   3.238   0.686   3.296
 2038SOL     OW 6150   2.665   1.402   2.786
 2038SOL    HW1 6151   2.755   1.416   2.744
 2038SOL    HW2 6152   2.594   1.404   2.715
 2039SOL     OW 6153   2.784   0.503   2.761
 2039SOL    HW1 6154   2.759   0.494   2.665
 2039SOL    HW2 6155   2.832   0.421   2.792
 2040SOL     OW 6156   2.401   0.064   2.374
 2040SOL    HW1 6157   2.320   0.065   2.432
 2040SOL    HW2 6158   2.404   0.147   2.319
 2041SOL     OW 6159   3.296   1.188   1.903
 2041SOL    HW1 6160   3.328   1.112   1.960
 2041SOL    HW2 6161   3.204   1.215   1.933
 2042SOL     OW 6162   2.159   0.035   2.033
 2042SOL    HW1 6163   2.208   0.119   2.012
 2042SOL    HW2 6164   2.221  -0.030   2.078
 2043SOL     OW 6165   2.797   0.236   2.342
 2043SOL    HW1 6166   2.749   0.277   2.264
 2043SOL    HW2 6167   2.896   0.234   2.323
 2044SOL     OW 6168   2.938   0.683   3.326
 2044SOL    HW1 6169   2.858   0.622   3.329
 2044SOL    HW2 6170   3.019   0.630   3.302
 2045SOL     OW 6171   3.089   1.570   2.655
 2045SOL    HW1 6172   3.110   1.644   2.590
 2045SOL    HW2 6173   3.157   1.570   2.728
 2046SOL     OW 6174   2.321   1.152   2.603
 2046SOL    HW1 6175   2.250   1.125   2.668
 2046SOL    HW2 6176   2.295   1.124   2.510
 2047SOL     OW 6177   3.133   1.797   2.453
 2047SOL    HW1 6178   3.177   1.861   2.389
 2047SOL    HW2 6179   3.083   1.849   2.523
 2048SOL     OW 6180   2.894   0.549   1.878
 2048SOL    HW1 6181   2.853   0.631   1.839
 2048SOL    HW2 6182   2.958   0.575   1.951
 2049SOL     OW 6183   1.940   0.556   3.248
 2049SOL    HW1 6184   2.032   0.555   3.207
 2049SOL    HW2 6185   1.934   0.630   3.315
 2050SOL     OW 6186   2.423   0.222   3.009
 2050SOL    HW1 6187   2.461   0.138   3.046
 2050SOL    HW2 6188   2.335   0.241   3.053
 2051SOL     OW 6189   2.728   0.454   2.504
 2051SOL    HW1 6190   2.696   0.526   2.442
 2051SOL    HW2 6191   2.752   0.373   2.451
 2052SOL     OW 6192   2.879   0.039   2.615
 2052SOL    HW1 6193   2.807   0.044   2.546
 2052SOL    HW2 6194   2.855  -0.030   2.684
 2053SOL     OW 6195   3.291   1.173   2.729
 2053SOL    HW1 6196   3.236   1.089   2.722
 2053SOL    HW2 6197   3.317   1.202   2.637
 2054SOL     OW 6198   3.328   0.590   2.854
 2054SOL    HW1 6199   3.298   0.495   2.861
 2054SOL    HW2 6200   3.401   0.606   2.920
 2055SOL     OW 6201   3.719   0.833   2.239
 2055SOL    HW1 6202   3.761   0.769   2.303
 2055SOL    HW2 6203   3.681   0.782   2.161
 2056SOL     OW 6204   2.350   1.385   2.036
 2056SOL    HW1 6205   2.263   1.370   2.083
 2056SOL    HW2 6206   2.333   1.411   1.941
 2057SOL     OW 6207   3.526   1.280   2.519
 2057SOL    HW1 6208   3.625   1.288   2.533
 2057SOL    HW2 6209   3.481   1.364   2.550
 2058SOL     OW 6210   3.252   0.575   1.940
 2058SOL    HW1 6211   3.198   0.554   2.021
 2058SOL    HW2 6212   3.343   0.534   1.949
 2059SOL     OW 6213   2.389   0.256   2.190
 2059SOL    HW1 6214   2.416   0.197   2.115
 2059SOL    HW2 6215   2.389   0.351   2.159
 2060SOL     OW 6216   3.616   1.223   3.450
 2060SOL    HW1 6217   3.707   1.184   3.437
 2060SOL    HW2 6218   3.624   1.319   3.474
 2061SOL     OW 6219   2.926   1.347   3.202
 2061SOL    HW1 6220   2.846   1.324   3.257
 2061SOL    HW2 6221   3.009   1.321   3.251
 2062SOL     OW 6222   3.454   1.629   3.487
 2062SOL    HW1 6223   3.481   1.663   3.397
 2062SOL    HW2 6224   3.533   1.591   3.533
 2063SOL     OW 6225   2.973   1.195   2.962
 2063SOL    HW1 6226   2.933   1.239   3.043
 2063SOL    HW2 6227   2.932   1.232   2.879
 2064SOL     OW 6228   3.500   1.099   2.941
 2064SOL    HW1 6229   3.505   1.180   3.000
 2064SOL    HW2 6230   3.414   1.101   2.890
 2065SOL     OW 6231   2.777   0.089   3.264
 2065SOL    HW1 6232   2.802   0.069   3.169
 2065SOL    HW2 6233   2.849   0.145   3.306
 2066SOL     OW 6234   2.842   1.116   3.581
 2066SOL    HW1 6235   2.743   1.122   3.591
 2066SOL    HW2 6236   2.865   1.036   3.525
 2067SOL     OW 6237   2.567   1.050   2.230
 2067SOL    HW1 6238   2.553   1.057   2.329
 2067SOL    HW2 6239   2.651   0.999   2.212
 2068SOL     OW 6240   2.272   0.813   3.113
 2068SOL    HW1 6241   2.358   0.825   3.163
 2068SOL    HW2 6242   2.230   0.726   3.140
 2069SOL     OW 6243   3.136   0.386   3.124
 2069SOL    HW1 6244   3.157   0.460   3.188
 2069SOL    HW2 6245   3.047   0.403   3.081
 2070SOL     OW 6246   1.926   1.564   3.193
 2070SOL    HW1 6247   1.880   1.646   3.159
 2070SOL    HW2 6248   2.024   1.583   3.202
 2071SOL     OW 6249   2.229   1.100   2.363
 2071SOL    HW1 6250   2.222   1.183   2.307
 2071SOL    HW2 6251   2.233   1.020   2.303
 2072SOL     OW 6252   2.428   0.537   2.727
 2072SOL    HW1 6253   2.440   0.603   2.653
 2072SOL    HW2 6254   2.474   0.571   2.810
 2073SOL     OW 6255   3.114   1.348   2.250
 2073SOL    HW1 6256   3.164   1.425   2.290
 2073SOL    HW2 6257   3.019   1.350   2.282
 2074SOL     OW 6258   3.134   1.445   3.004
 2074SOL    HW1 6259   3.181   1.458   3.091
 2074SOL    HW2 6260   3.068   1.371   3.013
 2075SOL     OW 6261   3.444   0.639   2.334
 2075SOL    HW1 6262   3.413   0.700   2.407
 2075SOL    HW2 6263   3.494   0.691   2.265
 2076SOL     OW 6264   2.216   1.510   3.191
 2076SOL    HW1 6265   2.195   1.466   3.104
 2076SOL    HW2 6266   2.313   1.536   3.194
 2077SOL     OW 6267   2.264   0.751   3.460
 2077SOL    HW1 6268   2.332   0.806   3.413
 2077SOL    HW2 6269   2.304   0.663   3.487
 2078SOL     OW 6270   3.449   0.779   3.532
 2078SOL    HW1 6271   3.357   0.817   3.527
 2078SOL    HW2 6272   3.509   0.826   3.467
 2079SOL     OW 6273   2.875   0.105   3.632
 2079SOL    HW1 6274   2.881   0.190   3.580
 2079SOL    HW2 6275   2.907   0.029   3.575
 2080SOL     OW 6276   2.366   0.050   3.602
 2080SOL    HW1 6277   2.324  -0.007   3.532
 2080SOL    HW2 6278   2.300   0.119   3.634
 2081SOL     OW 6279   2.435   0.870   2.891
 2081SOL    HW1 6280   2.479   0.959   2.882
 2081SOL    HW2 6281   2.372   0.870   2.968
 2082SOL     OW 6282   3.222   0.862   2.907
 2082SOL    HW1 6283   3.147   0.862   2.841
 2082SOL    HW2 6284   3.259   0.770   2.916
 2083SOL     OW 6285   3.071   0.525   2.137
 2083SOL    HW1 6286   3.084   0.441   2.191
 2083SOL    HW2 6287   3.042   0.599   2.197
 2084SOL     OW 6288   2.169   0.213   3.093
 2084SOL    HW1 6289   2.146   0.250   3.183
 2084SOL    HW2 6290   2.139   0.118   3.087
 2085SOL     OW 6291   1.899   1.310   3.144
 2085SOL    HW1 6292   1.952   1.261   3.212
 2085SOL    HW2 6293   1.921   1.408   3.149
 2086SOL     OW 6294   2.594   0.634   2.926
 2086SOL    HW1 6295   2.653   0.608   2.850
 2086SOL    HW2 6296   2.566   0.730   2.915
 2087SOL     OW 6297   3.590   0.935   3.716
 2087SOL    HW1 6298   3.544   0.928   3.627
 2087SOL    HW2 6299   3.528   0.979   3.782
 2088SOL     OW 6300   2.169   0.063   2.480
 2088SOL    HW1 6301   2.158   0.157   2.513
 2088SOL    HW2 6302   2.164   0.000   2.557
 2089SOL     OW 6303   3.484   0.367   2.236
 2089SOL    HW1 6304   3.486   0.291   2.300
 2089SOL    HW2 6305   3.436   0.444   2.276
 2090SOL     OW 6306   2.885   0.766   2.828
 2090SOL    HW1 6307   2.900   0.787   2.924
 2090SOL    HW2 6308   2.855   0.671   2.819
 2091SOL     OW 6309   2.842   1.573   3.562
 2091SOL    HW1 6310   2.822   1.617   3.474
 2091SOL    HW2 6311   2.881   1.482   3.546
 2092SOL     OW 6312   3.721   1.518   3.467
 2092SOL    HW1 6313   3.735   1.545   3.372
 2092SOL    HW2 6314   3.804   1.540   3.520
 2093SOL     OW 6315   2.212   0.898   3.666
 2093SOL    HW1 6316   2.288   0.942   3.714
 2093SOL    HW2 6317   2.247   0.851   3.584
 2094SOL     OW 6318   3.402   0.274   1.987
 2094SOL    HW1 6319   3.341   0.199   2.010
 2094SOL    HW2 6320   3.424   0.326   2.070
 2095SOL     OW 6321   3.165   0.838   1.904
 2095SOL    HW1 6322   3.199   0.745   1.919
 2095SOL    HW2 6323   3.183   0.865   1.809
 2096SOL     OW 6324   2.930   1.333   2.711
 2096SOL    HW1 6325   2.937   1.249   2.656
 2096SOL    HW2 6326   2.992   1.402   2.675
 2097SOL     OW 6327   2.181   0.810   2.811
 2097SOL    HW1 6328   2.274   0.846   2.816
 2097SOL    HW2 6329   2.175   0.725   2.863
 2098SOL     OW 6330   2.201   0.509   2.868
 2098SOL    HW1 6331   2.149   0.426   2.851
 2098SOL    HW2 6332   2.278   0.514   2.804
 2099SOL     OW 6333   3.000   0.380   3.540
 2099SOL    HW1 6334   2.955   0.443   3.604
 2099SOL    HW2 6335   3.093   0.411   3.523
 2100SOL     OW 6336   3.022   0.207   3.339
 2100SOL    HW1 6337   3.022   0.271   3.416
 2100SOL    HW2 6338   3.050   0.255   3.256
 2101SOL     OW 6339   1.870   1.326   2.062
 2101SOL    HW1 6340   1.777   1.347   2.031
 2101SOL    HW2 6341   1.880   1.227   2.075
 2102SOL     OW 6342   1.950   1.801   2.789
 2102SOL    HW1 6343   1.908   1.715   2.762
 2102SOL    HW2 6344   2.044   1.804   2.755
 2103SOL     OW 6345   2.366   1.568   2.772
 2103SOL    HW1 6346   2.432   1.642   2.781
 2103SOL    HW2 6347   2.410   1.489   2.730
 2104SOL     OW 6348   2.864   0.796   3.100
 2104SOL    HW1 6349   2.905   0.764   3.186
 2104SOL    HW2 6350   2.768   0.769   3.097
 2105SOL     OW 6351   1.902   0.544   2.976
 2105SOL    HW1 6352   1.987   0.511   2.935
 2105SOL    HW2 6353   1.915   0.559   3.074
 2106SOL     OW 6354   2.051   0.520   3.584
 2106SOL    HW1 6355   2.110   0.480   3.514
 2106SOL    HW2 6356   1.993   0.591   3.543
 2107SOL     OW 6357   3.231   0.950   3.522
 2107SOL    HW1 6358   3.270   1.039   3.542
 2107SOL    HW2 6359   3.241   0.930   3.425
 2108SOL     OW 6360   2.677   0.572   2.187
 2108SOL    HW1 6361   2.684   0.483   2.141
 2108SOL    HW2 6362   2.583   0.606   2.179
 2109SOL     OW 6363   3.519   0.604   3.068
 2109SOL    HW1 6364   3.481   0.535   3.130
 2109SOL    HW2 6365   3.601   0.568   3.024
 2110SOL     OW 6366   2.114   1.564   3.606
 2110SOL    HW1 6367   2.084   1.621   3.682
 2110SOL    HW2 6368   2.107   1.467   3.632
 2111SOL     OW 6369   2.533   0.464   3.131
 2111SOL    HW1 6370   2.499   0.375   3.101
 2111SOL    HW2 6371   2.559   0.518   3.051
 2112SOL     OW 6372   2.792   1.678   3.327
 2112SOL    HW1 6373   2.768   1.660   3.232
 2112SOL    HW2 6374   2.822   1.772   3.337
 2113SOL     OW 6375   2.335   0.500   2.053
 2113SOL    HW1 6376   2.396   0.580   2.057
 2113SOL    HW2 6377   2.240   0.531   2.060
 2114SOL     OW 6378   2.021   1.137   3.328
 2114SOL    HW1 6379   2.043   1.076   3.404
 2114SOL    HW2 6380   2.031   1.088   3.242
 2115SOL     OW 6381   3.209   1.059   3.096
 2115SOL    HW1 6382   3.233   0.996   3.022
 2115SOL    HW2 6383   3.119   1.099   3.078
 2116SOL     OW 6384   3.164   0.855   2.171
 2116SOL    HW1 6385   3.078   0.824   2.213
 2116SOL    HW2 6386   3.160   0.841   2.072
 2117SOL     OW 6387   3.621   1.747   3.016
 2117SOL    HW1 6388   3.682   1.777   2.943
 2117SOL    HW2 6389   3.583   1.658   2.994
 2118SOL     OW 6390   3.114   1.731   2.990
 2118SOL    HW1 6391   3.198   1.736   2.936
 2118SOL    HW2 6392   3.091   1.635   3.008
 2119SOL     OW 6393   1.945   1.258   2.884
 2119SOL    HW1 6394   1.940   1.257   2.984
 2119SOL    HW2 6395   1.862   1.217   2.846
 2120SOL     OW 6396   2.550   1.662   3.578
 2120SOL    HW1 6397   2.494   1.743   3.587
 2120SOL    HW2 6398   2.602   1.666   3.492
 2121SOL     OW 6399   3.588   0.135   2.385
 2121SOL    HW1 6400   3.661   0.118   2.318
 2121SOL    HW2 6401   3.557   0.048   2.423
 2122SOL     OW 6402   3.250   1.573   2.339
 2122SOL    HW1 6403   3.317   1.585   2.265
 2122SOL    HW2 6404   3.210   1.662   2.362
 2123SOL     OW 6405   1.992   1.794   3.713
 2123SOL    HW1 6406   1.951   1.720   3.766
 2123SOL    HW2 6407   2.056   1.845   3.771
 2124SOL     OW 6408   3.142   0.927   2.534
 2124SOL    HW1 6409   3.202   0.846   2.536
 2124SOL    HW2 6410   3.182   0.996   2.474
 2125SOL     OW 6411   2.692   1.273   3.284
 2125SOL    HW1 6412   2.687   1.306   3.379
 2125SOL    HW2 6413   2.606   1.292   3.238
 2126SOL     OW 6414   2.534   1.616   2.016
 2126SOL    HW1 6415   2.543   1.626   1.917
 2126SOL    HW2 6416   2.494   1.527   2.037
 2127SOL     OW 6417   3.512   1.720   3.256
 2127SOL    HW1 6418   3.565   1.730   3.172
 2127SOL    HW2 6419   3.485   1.810   3.290
 2128SOL     OW 6420   3.703   0.175   2.825
 2128SOL    HW1 6421   3.742   0.090   2.789
 2128SOL    HW2 6422   3.605   0.177   2.806
 2129SOL     OW 6423   2.125   0.326   2.582
 2129SOL    HW1 6424   2.046   0.377   2.548
 2129SOL    HW2 6425   2.116   0.311   2.680
 2130SOL     OW 6426   3.056   1.612   1.893
 2130SOL    HW1 6427   3.062   1.519   1.930
 2130SOL    HW2 6428   2.997   1.612   1.813
 2131SOL     OW 6429   2.684   1.002   3.234
 2131SOL    HW1 6430   2.724   1.001   3.142
 2131SOL    HW2 6431   2.694   1.094   3.274
 2132SOL     OW 6432   2.778   0.910   2.153
 2132SOL    HW1 6433   2.841   0.948   2.085
 2132SOL    HW2 6434   2.818   0.827   2.192
 2133SOL     OW 6435   3.366   1.607   1.906
 2133SOL    HW1 6436   3.274   1.644   1.913
 2133SOL    HW2 6437   3.404   1.627   1.816
 2134SOL     OW 6438   2.234   1.288   3.352
 2134SOL    HW1 6439   2.221   1.381   3.318
 2134SOL    HW2 6440   2.150   1.236   3.339
 2135SOL     OW 6441   3.476   1.292   3.151
 2135SOL    HW1 6442   3.536   1.295   3.231
 2135SOL    HW2 6443   3.401   1.356   3.164
 2136SOL     OW 6444   2.901   1.098   2.558
 2136SOL    HW1 6445   2.831   1.051   2.612
 2136SOL    HW2 6446   2.960   1.030   2.515
 2137SOL     OW 6447   2.876   0.236   2.833
 2137SOL    HW1 6448   2.868   0.200   2.740
 2137SOL    HW2 6449   2.874   0.160   2.898
 2138SOL     OW 6450   2.452   1.487   2.353
 2138SOL    HW1 6451   2.494   1.429   2.283
 2138SOL    HW2 6452   2.408   1.566   2.309
 2139SOL     OW 6453   3.571   0.385   3.243
 2139SOL    HW1 6454   3.644   0.454   3.247
 2139SOL    HW2 6455   3.599   0.310   3.184
 2140SOL     OW 6456   2.117   1.348   2.152
 2140SOL    HW1 6457   2.021   1.349   2.125
 2140SOL    HW2 6458   2.129   1.401   2.236
 2141SOL     OW 6459   1.967   1.013   3.588
 2141SOL    HW1 6460   1.890   0.980   3.642
 2141SOL    HW2 6461   2.052   0.983   3.630
 2142SOL     OW 6462   2.534   0.203   3.351
 2142SOL    HW1 6463   2.624   0.187   3.311
 2142SOL    HW2 6464   2.542   0.208   3.450
 2143SOL     OW 6465   1.937   0.345   1.895
 2143SOL    HW1 6466   1.845   0.317   1.866
 2143SOL    HW2 6467   1.968   0.422   1.839
 2144SOL     OW 6468   3.302   0.856   3.260
 2144SOL    HW1 6469   3.245   0.908   3.197
 2144SOL    HW2 6470   3.398   0.868   3.236
 2145SOL     OW 6471   1.934   0.166   2.180
 2145SOL    HW1 6472   1.917   0.249   2.126
 2145SOL    HW2 6473   2.024   0.129   2.158
 2146SOL     OW 6474   3.045   1.335   1.981
 2146SOL    HW1 6475   2.946   1.324   1.983
 2146SOL    HW2 6476   3.079   1.350   2.074
 2147SOL     OW 6477   2.475   0.842   3.293
 2147SOL    HW1 6478   2.531   0.923   3.276
 2147SOL    HW2 6479   2.534   0.762   3.296
 2148SOL     OW 6480   3.355   1.767   2.821
 2148SOL    HW1 6481   3.388   1.831   2.752
 2148SOL    HW2 6482   3.421   1.761   2.896
 2149SOL     OW 6483   2.578   0.565   3.570
 2149SOL    HW1 6484   2.597   0.630   3.644
 2149SOL    HW2 6485   2.638   0.485   3.579
 2150SOL     OW 6486   3.312   1.220   3.495
 2150SOL    HW1 6487   3.303   1.210   3.594
 2150SOL    HW2 6488   3.408   1.213   3.469
 2151SOL     OW 6489   2.252   1.741   3.422
 2151SOL    HW1 6490   2.161   1.782   3.420
 2151SOL    HW2 6491   2.245   1.647   3.454
 2152SOL     OW 6492   3.536   0.883   3.116
 2152SOL    HW1 6493   3.509   0.794   3.079
 2152SOL    HW2 6494   3.537   0.951   3.043
 2153SOL     OW 6495   3.087   0.325   2.311
 2153SOL    HW1 6496   3.152   0.251   2.300
 2153SOL    HW2 6497   3.107   0.375   2.395
 2154SOL     OW 6498   2.456   0.745   2.514
 2154SOL    HW1 6499   2.506   0.830   2.495
 2154SOL    HW2 6500   2.368   0.747   2.466
 2155SOL     OW 6501   3.639   0.342   3.504
 2155SOL    HW1 6502   3.622   0.373   3.410
 2155SOL    HW2 6503   3.555   0.305   3.542
 2156SOL     OW 6504   3.592   0.934   3.379
 2156SOL    HW1 6505   3.630   1.025   3.394
 2156SOL    HW2 6506   3.584   0.917   3.280
 2157SOL     OW 6507   2.721   1.374   1.878
 2157SOL    HW1 6508   2.675   1.389   1.966
 2157SOL    HW2 6509   2.765   1.459   1.848
 2158SOL     OW 6510   2.523   1.790   2.815
 2158SOL    HW1 6511   2.477   1.878   2.802
 2158SOL    HW2 6512   2.622   1.802   2.808
 2159SOL     OW 6513   2.721   0.956   2.723
 2159SOL    HW1 6514   2.775   0.887   2.771
 2159SOL    HW2 6515   2.689   1.025   2.789
 2160SOL     OW 6516   2.945   0.984   1.949
 2160SOL    HW1 6517   2.922   1.037   1.867
 2160SOL    HW2 6518   3.026   0.928   1.930
 2161SOL     OW 6519   3.723   1.569   2.713
 2161SOL    HW1 6520   3.652   1.557   2.643
 2161SOL    HW2 6521   3.724   1.490   2.773
 2162SOL     OW 6522   2.083   1.314   3.706
 2162SOL    HW1 6523   2.018   1.241   3.685
 2162SOL    HW2 6524   2.087   1.328   3.804
 2163SOL     OW 6525   1.941   1.240   2.515
 2163SOL    HW1 6526   1.940   1.193   2.603
 2163SOL    HW2 6527   2.023   1.212   2.464
 2164SOL     OW 6528   2.534   1.391   3.486
 2164SOL    HW1 6529   2.456   1.341   3.524
 2164SOL    HW2 6530   2.531   1.486   3.517
 2165SOL     OW 6531   3.686   0.192   3.089
 2165SOL    HW1 6532   3.682   0.102   3.133
 2165SOL    HW2 6533   3.689   0.181   2.990
 2166SOL     OW 6534   2.290   0.424   2.382
 2166SOL    HW1 6535   2.320   0.352   2.320
 2166SOL    HW2 6536   2.251   0.384   2.465
 2167SOL     OW 6537   3.567   1.487   2.966
 2167SOL    HW1 6538   3.474   1.462   2.939
 2167SOL    HW2 6539   3.593   1.437   3.048
 2168SOL     OW 6540   2.179   0.547   3.142
 2168SOL    HW1 6541   2.217   0.488   3.214
 2168SOL    HW2 6542   2.219   0.521   3.054
 2169SOL     OW 6543   2.674   1.586   2.549
 2169SOL    HW1 6544   2.706   1.596   2.455
 2169SOL    HW2 6545   2.595   1.524   2.551
 2170SOL     OW 6546   3.286   0.214   2.974
 2170SOL    HW1 6547   3.338   0.149   3.029
 2170SOL    HW2 6548   3.237   0.277   3.035
 2171SOL     OW 6549   2.863   0.034   3.016
 2171SOL    HW1 6550   2.800  -0.038   2.985
 2171SOL    HW2 6551   2.956  -0.002   3.016
 2172SOL     OW 6552   2.632   1.330   2.163
 2172SOL    HW1 6553   2.586   1.243   2.180
 2172SOL    HW2 6554   2.723   1.327   2.204
 2173SOL     OW 6555   2.480   1.567   3.146
 2173SOL    HW1 6556   2.475   1.649   3.203
 2173SOL    HW2 6557   2.569   1.564   3.101
 2174SOL     OW 6558   3.214   0.052   2.030
 2174SOL    HW1 6559   3.249   0.011   1.946
 2174SOL    HW2 6560   3.124   0.014   2.050
 2175SOL     OW 6561   3.162   0.453   2.553
 2175SOL    HW1 6562   3.103   0.533   2.557
 2175SOL    HW2 6563   3.177   0.418   2.646
 2176SOL     OW 6564   3.455   0.221   2.744
 2176SOL    HW1 6565   3.371   0.220   2.798
 2176SOL    HW2 6566   3.457   0.304   2.688
 2177SOL     OW 6567   1.901   1.077   2.162
 2177SOL    HW1 6568   2.000   1.066   2.153
 2177SOL    HW2 6569   1.861   0.991   2.194
 2178SOL     OW 6570   2.737   1.646   2.199
 2178SOL    HW1 6571   2.660   1.611   2.145
 2178SOL    HW2 6572   2.705   1.717   2.261
 2179SOL     OW 6573   2.092   0.628   3.837
 2179SOL    HW1 6574   1.999   0.626   3.874
 2179SOL    HW2 6575   2.093   0.589   3.745
 2180SOL     OW 6576   2.087   0.275   4.720
 2180SOL    HW1 6577   2.122   0.258   4.812
 2180SOL    HW2 6578   1.999   0.230   4.708
 2181SOL     OW 6579   1.881   0.368   4.371
 2181SOL    HW1 6580   1.799   0.411   4.410
 2181SOL    HW2 6581   1.853   0.295   4.308
 2182SOL     OW 6582   2.431   1.275   4.889
 2182SOL    HW1 6583   2.338   1.268   4.852
 2182SOL    HW2 6584   2.442   1.364   4.933
 2183SOL     OW 6585   3.417   1.511   4.427
 2183SOL    HW1 6586   3.360   1.495   4.508
 2183SOL    HW2 6587   3.358   1.521   4.347
 2184SOL     OW 6588   2.997   0.703   4.441
 2184SOL    HW1 6589   3.054   0.781   4.416
 2184SOL    HW2 6590   2.937   0.729   4.517
 2185SOL     OW 6591   3.617   0.607   3.955
 2185SOL    HW1 6592   3.605   0.594   3.856
 2185SOL    HW2 6593   3.587   0.526   4.004
 2186SOL     OW 6594   2.630   1.144   4.747
 2186SOL    HW1 6595   2.552   1.161   4.807
 2186SOL    HW2 6596   2.664   1.231   4.711
 2187SOL     OW 6597   2.547   1.012   4.389
 2187SOL    HW1 6598   2.616   0.996   4.459
 2187SOL    HW2 6599   2.474   1.069   4.427
 2188SOL     OW 6600   2.548   1.161   5.527
 2188SOL    HW1 6601   2.608   1.240   5.541
 2188SOL    HW2 6602   2.462   1.192   5.486
 2189SOL     OW 6603   2.197   1.435   4.785
 2189SOL    HW1 6604   2.119   1.404   4.732
 2189SOL    HW2 6605   2.255   1.493   4.728
 2190SOL     OW 6606   3.322   1.505   5.063
 2190SOL    HW1 6607   3.346   1.599   5.089
 2190SOL    HW2 6608   3.306   1.451   5.145
 2191SOL     OW 6609   2.300   0.392   5.223
 2191SOL    HW1 6610   2.382   0.336   5.232
 2191SOL    HW2 6611   2.219   0.334   5.227
 2192SOL     OW 6612   3.465   0.447   4.461
 2192SOL    HW1 6613   3.391   0.493   4.411
 2192SOL    HW2 6614   3.516   0.515   4.514
 2193SOL     OW 6615   2.093   1.713   4.207
 2193SOL    HW1 6616   2.127   1.790   4.261
 2193SOL    HW2 6617   2.137   1.713   4.117
 2194SOL     OW 6618   2.092   1.434   4.262
 2194SOL    HW1 6619   2.066   1.530   4.262
 2194SOL    HW2 6620   2.021   1.380   4.307
 2195SOL     OW 6621   2.102   1.091   4.610
 2195SOL    HW1 6622   2.116   1.007   4.662
 2195SOL    HW2 6623   2.047   1.155   4.665
 2196SOL     OW 6624   2.482   1.786   5.163
 2196SOL    HW1 6625   2.390   1.769   5.198
 2196SOL    HW2 6626   2.510   1.878   5.189
 2197SOL     OW 6627   2.468   0.964   3.847
 2197SOL    HW1 6628   2.475   1.048   3.793
 2197SOL    HW2 6629   2.514   0.977   3.935
 2198SOL     OW 6630   3.456   0.114   5.204
 2198SOL    HW1 6631   3.438   0.181   5.132
 2198SOL    HW2 6632   3.453   0.160   5.293
 2199SOL     OW 6633   1.984   0.643   4.287
 2199SOL    HW1 6634   1.939   0.555   4.304
 2199SOL    HW2 6635   1.983   0.697   4.371
 2200SOL     OW 6636   3.704   1.767   4.083
 2200SOL    HW1 6637   3.758   1.738   4.163
 2200SOL    HW2 6638   3.734   1.857   4.054
 2201SOL     OW 6639   1.889   1.596   3.841
 2201SOL    HW1 6640   1.870   1.500   3.862
 2201SOL    HW2 6641   1.856   1.654   3.916
 2202SOL     OW 6642   3.551   0.922   4.336
 2202SOL    HW1 6643   3.646   0.893   4.344
 2202SOL    HW2 6644   3.543   0.987   4.261
 2203SOL     OW 6645   3.503   1.108   4.156
 2203SOL    HW1 6646   3.589   1.110   4.104
 2203SOL    HW2 6647   3.517   1.155   4.244
 2204SOL     OW 6648   1.975   0.737   5.321
 2204SOL    HW1 6649   2.063   0.724   5.366
 2204SOL    HW2 6650   1.962   0.834   5.299
 2205SOL     OW 6651   2.475   1.365   4.450
 2205SOL    HW1 6652   2.426   1.278   4.459
 2205SOL    HW2 6653   2.452   1.408   4.363
 2206SOL     OW 6654   3.155   1.228   5.147
 2206SOL    HW1 6655   3.192   1.155   5.089
 2206SOL    HW2 6656   3.207   1.233   5.232
 2207SOL     OW 6657   2.671   0.004   4.226
 2207SOL    HW1 6658   2.711   0.095   4.217
 2207SOL    HW2 6659   2.571   0.012   4.232
 2208SOL     OW 6660   2.059   0.976   4.988
 2208SOL    HW1 6661   2.148   0.931   4.974
 2208SOL    HW2 6662   1.986   0.911   4.969
 2209SOL     OW 6663   3.387   0.999   3.914
 2209SOL    HW1 6664   3.324   0.923   3.927
 2209SOL    HW2 6665   3.435   1.017   4.000
 2210SOL     OW 6666   3.328   1.417   4.677
 2210SOL    HW1 6667   3.269   1.423   4.757
 2210SOL    HW2 6668   3.313   1.329   4.631
 2211SOL     OW 6669   3.529   1.714   4.296
 2211SOL    HW1 6670   3.488   1.691   4.208
 2211SOL    HW2 6671   3.511   1.640   4.361
 2212SOL     OW 6672   2.460   0.729   3.994
 2212SOL    HW1 6673   2.484   0.798   3.926
 2212SOL    HW2 6674   2.382   0.762   4.048
 2213SOL     OW 6675   3.143   0.345   4.668
 2213SOL    HW1 6676   3.057   0.295   4.655
 2213SOL    HW2 6677   3.205   0.291   4.724
 2214SOL     OW 6678   3.438   1.662   4.031
 2214SOL    HW1 6679   3.527   1.708   4.034
 2214SOL    HW2 6680   3.417   1.638   3.936
 2215SOL     OW 6681   2.669   0.605   5.189
 2215SOL    HW1 6682   2.622   0.602   5.278
 2215SOL    HW2 6683   2.618   0.550   5.123
 2216SOL     OW 6684   2.835   0.890   5.296
 2216SOL    HW1 6685   2.881   0.806   5.267
 2216SOL    HW2 6686   2.779   0.924   5.221
 2217SOL     OW 6687   2.853   0.410   4.966
 2217SOL    HW1 6688   2.776   0.444   5.020
 2217SOL    HW2 6689   2.819   0.359   4.887
 2218SOL     OW 6690   2.903   0.701   4.153
 2218SOL    HW1 6691   2.929   0.697   4.249
 2218SOL    HW2 6692   2.818   0.650   4.139
 2219SOL     OW 6693   1.938   0.811   4.513
 2219SOL    HW1 6694   2.037   0.799   4.522
 2219SOL    HW2 6695   1.914   0.906   4.534
 2220SOL     OW 6696   1.992   1.821   5.295
 2220SOL    HW1 6697   1.982   1.806   5.394
 2220SOL    HW2 6698   1.906   1.857   5.259
 2221SOL     OW 6699   2.727   0.348   3.919
 2221SOL    HW1 6700   2.786   0.411   3.870
 2221SOL    HW2 6701   2.746   0.254   3.890
 2222SOL     OW 6702   3.224   1.144   4.269
 2222SOL    HW1 6703   3.307   1.115   4.221
 2222SOL    HW2 6704   3.175   1.211   4.213
 2223SOL     OW 6705   2.412   0.196   4.609
 2223SOL    HW1 6706   2.407   0.191   4.709
 2223SOL    HW2 6707   2.414   0.292   4.580
 2224SOL     OW 6708   2.870   1.456   4.201
 2224SOL    HW1 6709   2.824   1.528   4.149
 2224SOL    HW2 6710   2.866   1.476   4.299
 2225SOL     OW 6711   2.213   1.801   4.577
 2225SOL    HW1 6712   2.263   1.715   4.583
 2225SOL    HW2 6713   2.278   1.878   4.574
 2226SOL     OW 6714   3.657   1.066   4.597
 2226SOL    HW1 6715   3.595   1.051   4.521
 2226SOL    HW2 6716   3.605   1.077   4.682
 2227SOL     OW 6717   2.183   0.943   3.966
 2227SOL    HW1 6718   2.265   0.982   3.924
 2227SOL    HW2 6719   2.156   0.861   3.917
 2228SOL     OW 6720   3.320   0.735   4.452
 2228SOL    HW1 6721   3.315   0.670   4.527
 2228SOL    HW2 6722   3.400   0.794   4.465
 2229SOL     OW 6723   2.973   1.776   3.961
 2229SOL    HW1 6724   2.913   1.714   4.011
 2229SOL    HW2 6725   3.004   1.732   3.876
 2230SOL     OW 6726   2.064   0.285   5.222
 2230SOL    HW1 6727   1.984   0.345   5.209
 2230SOL    HW2 6728   2.054   0.236   5.308
 2231SOL     OW 6729   3.494   1.377   3.805
 2231SOL    HW1 6730   3.462   1.471   3.795
 2231SOL    HW2 6731   3.418   1.314   3.793
 2232SOL     OW 6732   2.326   1.743   4.047
 2232SOL    HW1 6733   2.359   1.782   4.133
 2232SOL    HW2 6734   2.402   1.736   3.982
 2233SOL     OW 6735   3.262   0.107   4.150
 2233SOL    HW1 6736   3.238   0.070   4.060
 2233SOL    HW2 6737   3.361   0.123   4.154
 2234SOL     OW 6738   2.111   1.785   4.965
 2234SOL    HW1 6739   2.168   1.720   5.015
 2234SOL    HW2 6740   2.095   1.752   4.872
 2235SOL     OW 6741   2.802   1.698   4.628
 2235SOL    HW1 6742   2.882   1.641   4.649
 2235SOL    HW2 6743   2.753   1.658   4.551
 2236SOL     OW 6744   2.244   0.700   4.204
 2236SOL    HW1 6745   2.289   0.610   4.201
 2236SOL    HW2 6746   2.150   0.689   4.237
 2237SOL     OW 6747   2.476   0.122   3.841
 2237SOL    HW1 6748   2.574   0.100   3.848
 2237SOL    HW2 6749   2.445   0.105   3.748
 2238SOL     OW 6750   2.750   1.514   4.919
 2238SOL    HW1 6751   2.727   1.489   4.825
 2238SOL    HW2 6752   2.811   1.445   4.958
 2239SOL     OW 6753   3.213   0.590   5.157
 2239SOL    HW1 6754   3.241   0.547   5.242
 2239SOL    HW2 6755   3.238   0.686   5.158
 2240SOL     OW 6756   2.665   1.402   4.648
 2240SOL    HW1 6757   2.755   1.416   4.606
 2240SOL    HW2 6758   2.594   1.404   4.577
 2241SOL     OW 6759   2.784   0.503   4.623
 2241SOL    HW1 6760   2.759   0.494   4.527
 2241SOL    HW2 6761   2.832   0.421   4.654
 2242SOL     OW 6762   2.401   0.064   4.236
 2242SOL    HW1 6763   2.320   0.065   4.294
 2242SOL    HW2 6764   2.404   0.147   4.181
 2243SOL     OW 6765   3.296   1.188   3.765
 2243SOL    HW1 6766   3.328   1.112   3.822
 2243SOL    HW2 6767   3.204   1.215   3.795
 2244SOL     OW 6768   2.159   0.035   3.895
 2244SOL    HW1 6769   2.208   0.119   3.874
 2244SOL    HW2 6770   2.221  -0.030   3.940
 2245SOL     OW 6771   2.797   0.236   4.204
 2245SOL    HW1 6772   2.749   0.277   4.126
 2245SOL    HW2 6773   2.896   0.234   4.185
 2246SOL     OW 6774   2.938   0.683   5.188
 2246SOL    HW1 6775   2.858   0.622   5.191
 2246SOL    HW2 6776   3.019   0.630   5.164
 2247SOL     OW 6777   3.089   1.570   4.517
 2247SOL    HW1 6778   3.110   1.644   4.452
 2247SOL    HW2 6779   3.157   1.570   4.590
 2248SOL     OW 6780   2.321   1.152   4.465
 2248SOL    HW1 6781   2.250   1.125   4.530
 2248SOL    HW2 6782   2.295   1.124   4.372
 2249SOL     OW 6783   3.133   1.797   4.315
 2249SOL    HW1 6784   3.177   1.861   4.251
 2249SOL    HW2 6785   3.083   1.849   4.385
 2250SOL     OW 6786   2.894   0.549   3.740
 2250SOL    HW1 6787   2.853   0.631   3.701
 2250SOL    HW2 6788   2.958   0.575   3.813
 2251SOL     OW 6789   1.940   0.556   5.110
 2251SOL    HW1 6790   2.032   0.555   5.069
 2251SOL    HW2 6791   1.934   0.630   5.177
 2252SOL     OW 6792   2.423   0.222   4.871
 2252SOL    HW1 6793   2.461   0.138   4.908
 2252SOL    HW2 6794   2.335   0.241   4.915
 2253SOL     OW 6795   2.728   0.454   4.366
 2253SOL    HW1 6796   2.696   0.526   4.304
 2253SOL    HW2 6797   2.752   0.373   4.313
 2254SOL     OW 6798   2.879   0.039   4.477
 2254SOL    HW1 6799   2.807   0.044   4.408
 2254SOL    HW2 6800   2.855  -0.030   4.546
 2255SOL     OW 6801   3.291   1.173   4.591
 2255SOL    HW1 6802   3.236   1.089   4.584
 2255SOL    HW2 6803   3.317   1.202   4.499
 2256SOL     OW 6804   3.328   0.590   4.716
 2256SOL    HW1 6805   3.298   0.495   4.723
 2256SOL    HW2 6806   3.401   0.606   4.782
 2257SOL     OW 6807   3.719   0.833   4.101
 2257SOL    HW1 6808   3.761   0.769   4.165
 2257SOL    HW2 6809   3.681   0.782   4.023
 2258SOL     OW 6810   2.350   1.385   3.898
 2258SOL    HW1 6811   2.263   1.370   3.945
 2258SOL    HW2 6812   2.333   1.411   3.803
 2259SOL     OW 6813   3.526   1.280   4.381
 2259SOL    HW1 6814   3.625   1.288   4.395
 2259SOL    HW2 6815   3.481   1.364   4.412
 2260SOL     OW 6816   3.252   0.575   3.802
 2260SOL    HW1 6817   3.198   0.554   3.883
 2260SOL    HW2 6818   3.343   0.534   3.811
 2261SOL     OW 6819   2.389   0.256   4.052
 2261SOL    HW1 6820   2.416   0.197   3.977
 2261SOL    HW2 6821   2.389   0.351   4.021
 2262SOL     OW 6822   3.616   1.223   5.312
 2262SOL    HW1 6823   3.707   1.184   5.299
 2262SOL    HW2 6824   3.624   1.319   5.336
 2263SOL     OW 6825   2.926   1.347   5.064
 2263SOL    HW1 6826   2.846   1.324   5.119
 2263SOL    HW2 6827   3.009   1.321   5.113
 2264SOL     OW 6828   2.973   1.195   4.824
 2264SOL    HW1 6829   2.933   1.239   4.905
 2264SOL    HW2 6830   2.932   1.232   4.741
 2265SOL     OW 6831   3.500   1.099   4.803
 2265SOL    HW1 6832   3.505   1.180   4.862
 2265SOL    HW2 6833   3.414   1.101   4.752
 2266SOL     OW 6834   2.777   0.089   5.126
 2266SOL    HW1 6835   2.802   0.069   5.031
 2266SOL    HW2 6836   2.849   0.145   5.168
 2267SOL     OW 6837   2.567   1.050   4.092
 2267SOL    HW1 6838   2.553   1.057   4.191
 2267SOL    HW2 6839   2.651   0.999   4.074
 2268SOL     OW 6840   2.272   0.813   4.975
 2268SOL    HW1 6841   2.358   0.825   5.025
 2268SOL    HW2 6842   2.230   0.726   5.002
 2269SOL     OW 6843   3.136   0.386   4.986
 2269SOL    HW1 6844   3.157   0.460   5.050
 2269SOL    HW2 6845   3.047   0.403   4.943
 2270SOL     OW 6846   1.926   1.564   5.055
 2270SOL    HW1 6847   1.880   1.646   5.021
 2270SOL    HW2 6848   2.024   1.583   5.064
 2271SOL     OW 6849   2.229   1.100   4.225
 2271SOL    HW1 6850   2.222   1.183   4.169
 2271SOL    HW2 6851   2.233   1.020   4.165
 2272SOL     OW 6852   2.428   0.537   4.589
 2272SOL    HW1 6853   2.440   0.603   4.515
 2272SOL    HW2 6854   2.474   0.571   4.672
 2273SOL     OW 6855   3.114   1.348   4.112
 2273SOL    HW1 6856   3.164   1.425   4.152
 2273SOL    HW2 6857   3.019   1.350   4.144
 2274SOL     OW 6858   3.134   1.445   4.866
 2274SOL    HW1 6859   3.181   1.458   4.953
 2274SOL    HW2 6860   3.068   1.371   4.875
 2275SOL     OW 6861   3.444   0.639   4.196
 2275SOL    HW1 6862   3.413   0.700   4.269
 2275SOL    HW2 6863   3.494   0.691   4.127
 2276SOL     OW 6864   2.216   1.510   5.053
 2276SOL    HW1 6865   2.195   1.466   4.966
 2276SOL    HW2 6866   2.313   1.536   5.056
 2277SOL     OW 6867   2.264   0.751   5.322
 2277SOL    HW1 6868   2.332   0.806   5.275
 2277SOL    HW2 6869   2.304   0.663   5.349
 2278SOL     OW 6870   3.449   0.779   5.394
 2278SOL    HW1 6871   3.357   0.817   5.389
 2278SOL    HW2 6872   3.509   0.826   5.329
 2279SOL     OW 6873   2.435   0.870   4.753
 2279SOL    HW1 6874   2.479   0.959   4.744
 2279SOL    HW2 6875   2.372   0.870   4.830
 2280SOL     OW 6876   3.222   0.862   4.769
 2280SOL    HW1 6877   3.147   0.862   4.703
 2280SOL    HW2 6878   3.259   0.770   4.778
 2281SOL     OW 6879   3.071   0.525   3.999
 2281SOL    HW1 6880   3.084   0.441   4.053
 2281SOL    HW2 6881   3.042   0.599   4.059
 2282SOL     OW 6882   2.169   0.213   4.955
 2282SOL    HW1 6883   2.146   0.250   5.045
 2282SOL    HW2 6884   2.139   0.118   4.949
 2283SOL     OW 6885   1.899   1.310   5.006
 2283SOL    HW1 6886   1.952   1.261   5.074
 2283SOL    HW2 6887   1.921   1.408   5.011
 2284SOL     OW 6888   2.594   0.634   4.788
 2284SOL    HW1 6889   2.653   0.608   4.712
 2284SOL    HW2 6890   2.566   0.730   4.777
 2285SOL     OW 6891   2.169   0.063   4.342
 2285SOL    HW1 6892   2.158   0.157   4.375
 2285SOL    HW2 6893   2.164   0.000   4.419
 2286SOL     OW 6894   3.484   0.367   4.098
 2286SOL    HW1 6895   3.486   0.291   4.162
 2286SOL    HW2 6896   3.436   0.444   4.138
 2287SOL     OW 6897   2.885   0.766   4.690
 2287SOL    HW1 6898   2.900   0.787   4.786
 2287SOL    HW2 6899   2.855   0.671   4.681
 2288SOL     OW 6900   3.402   0.274   3.849
 2288SOL    HW1 6901   3.341   0.199   3.872
 2288SOL    HW2 6902   3.424   0.326   3.932
 2289SOL     OW 6903   3.165   0.838   3.766
 2289SOL    HW1 6904   3.199   0.745   3.781
 2289SOL    HW2 6905   3.183   0.865   3.671
 2290SOL     OW 6906   2.930   1.333   4.573
 2290SOL    HW1 6907   2.937   1.249   4.518
 2290SOL    HW2 6908   2.992   1.402   4.537
 2291SOL     OW 6909   2.181   0.810   4.673
 2291SOL    HW1 6910   2.274   0.846   4.678
 2291SOL    HW2 6911   2.175   0.725   4.725
 2292SOL     OW 6912   2.201   0.509   4.730
 2292SOL    HW1 6913   2.149   0.426   4.713
 2292SOL    HW2 6914   2.278   0.514   4.666
 2293SOL     OW 6915   3.022   0.207   5.201
 2293SOL    HW1 6916   3.022   0.271   5.278
 2293SOL    HW2 6917   3.050   0.255   5.118
 2294SOL     OW 6918   1.870   1.326   3.924
 2294SOL    HW1 6919   1.777   1.347   3.893
 2294SOL    HW2 6920   1.880   1.227   3.937
 2295SOL     OW 6921   1.950   1.801   4.651
 2295SOL    HW1 6922   1.908   1.715   4.624
 2295SOL    HW2 6923   2.044   1.804   4.617
 2296SOL     OW 6924   2.366   1.568   4.634
 2296SOL    HW1 6925   2.432   1.642   4.643
 2296SOL    HW2 6926   2.410   1.489   4.592
 2297SOL     OW 6927   2.864   0.796   4.962
 2297SOL    HW1 6928   2.905   0.764   5.048
 2297SOL    HW2 6929   2.768   0.769   4.959
 2298SOL     OW 6930   1.902   0.544   4.838
 2298SOL    HW1 6931   1.987   0.511   4.797
 2298SOL    HW2 6932   1.915   0.559   4.936
 2299SOL     OW 6933   2.677   0.572   4.049
 2299SOL    HW1 6934   2.684   0.483   4.003
 2299SOL    HW2 6935   2.583   0.606   4.041
 2300SOL     OW 6936   3.519   0.604   4.930
 2300SOL    HW1 6937   3.481   0.535   4.992
 2300SOL    HW2 6938   3.601   0.568   4.886
 2301SOL     OW 6939   2.114   1.564   5.468
 2301SOL    HW1 6940   2.084   1.621   5.544
 2301SOL    HW2 6941   2.107   1.467   5.494
 2302SOL     OW 6942   2.533   0.464   4.993
 2302SOL    HW1 6943   2.499   0.375   4.963
 2302SOL    HW2 6944   2.559   0.518   4.913
 2303SOL     OW 6945   2.792   1.678   5.189
 2303SOL    HW1 6946   2.768   1.660   5.094
 2303SOL    HW2 6947   2.822   1.772   5.199
 2304SOL     OW 6948   2.335   0.500   3.915
 2304SOL    HW1 6949   2.396   0.580   3.919
 2304SOL    HW2 6950   2.240   0.531   3.922
 2305SOL     OW 6951   2.021   1.137   5.190
 2305SOL    HW1 6952   2.043   1.076   5.266
 2305SOL    HW2 6953   2.031   1.088   5.104
 2306SOL     OW 6954   3.209   1.059   4.958
 2306SOL    HW1 6955   3.233   0.996   4.884
 2306SOL    HW2 6956   3.119   1.099   4.940
 2307SOL     OW 6957   3.164   0.855   4.033
 2307SOL    HW1 6958   3.078   0.824   4.075
 2307SOL    HW2 6959   3.160   0.841   3.934
 2308SOL     OW 6960   3.621   1.747   4.878
 2308SOL    HW1 6961   3.682   1.777   4.805
 2308SOL    HW2 6962   3.583   1.658   4.856
 2309SOL     OW 6963   3.114   1.731   4.852
 2309SOL    HW1 6964   3.198   1.736   4.798
 2309SOL    HW2 6965   3.091   1.635   4.870
 2310SOL     OW 6966   1.945   1.258   4.746
 2310SOL    HW1 6967   1.940   1.257   4.846
 2310SOL    HW2 6968   1.862   1.217   4.708
 2311SOL     OW 6969   3.588   0.135   4.247
 2311SOL    HW1 6970   3.661   0.118   4.180
 2311SOL    HW2 6971   3.557   0.048   4.285
 2312SOL     OW 6972   3.250   1.573   4.201
 2312SOL    HW1 6973   3.317   1.585   4.127
 2312SOL    HW2 6974   3.210   1.662   4.224
 2313SOL     OW 6975   3.142   0.927   4.396
 2313SOL    HW1 6976   3.202   0.846   4.398
 2313SOL    HW2 6977   3.182   0.996   4.336
 2314SOL     OW 6978   2.692   1.273   5.146
 2314SOL    HW1 6979   2.687   1.306   5.241
 2314SOL    HW2 6980   2.606   1.292   5.100
 2315SOL     OW 6981   2.534   1.616   3.878
 2315SOL    HW1 6982   2.543   1.626   3.779
 2315SOL    HW2 6983   2.494   1.527   3.899
 2316SOL     OW 6984   3.512   1.720   5.118
 2316SOL    HW1 6985   3.565   1.730   5.034
 2316SOL    HW2 6986   3.485   1.810   5.152
 2317SOL     OW 6987   3.703   0.175   4.687
 2317SOL    HW1 6988   3.742   0.090   4.651
 2317SOL    HW2 6989   3.605   0.177   4.668
 2318SOL     OW 6990   2.125   0.326   4.444
 2318SOL    HW1 6991   2.046   0.377   4.410
 2318SOL    HW2 6992   2.116   0.311   4.542
 2319SOL     OW 6993   3.056   1.612   3.755
 2319SOL    HW1 6994   3.062   1.519   3.792
 2319SOL    HW2 6995   2.997   1.612   3.675
 2320SOL     OW 6996   2.684   1.002   5.096
 2320SOL    HW1 6997   2.724   1.001   5.004
 2320SOL    HW2 6998   2.694   1.094   5.136
 2321SOL     OW 6999   2.778   0.910   4.015
 2321SOL    HW1 7000   2.841   0.948   3.947
 2321SOL    HW2 7001   2.818   0.827   4.054
 2322SOL     OW 7002   3.366   1.607   3.768
 2322SOL    HW1 7003   3.274   1.644   3.775
 2322SOL    HW2 7004   3.404   1.627   3.678
 2323SOL     OW 7005   2.234   1.288   5.214
 2323SOL    HW1 7006   2.221   1.381   5.180
 2323SOL    HW2 7007   2.150   1.236   5.201
 2324SOL     OW 7008   3.476   1.292   5.013
 2324SOL    HW1 7009   3.536   1.295   5.093
 2324SOL    HW2 7010   3.401   1.356   5.026
 2325SOL     OW 7011   2.901   1.098   4.420
 2325SOL    HW1 7012   2.831   1.051   4.474
 2325SOL    HW2 7013   2.960   1.030   4.377
 2326SOL     OW 7014   2.876   0.236   4.695
 2326SOL    HW1 7015   2.868   0.200   4.602
 2326SOL    HW2 7016   2.874   0.160   4.760
 2327SOL     OW 7017   2.452   1.487   4.215
 2327SOL    HW1 7018   2.494   1.429   4.145
 2327SOL    HW2 7019   2.408   1.566   4.171
 2328SOL     OW 7020   3.571   0.385   5.105
 2328SOL    HW1 7021   3.644   0.454   5.109
 2328SOL    HW2 7022   3.599   0.310   5.046
 2329SOL     OW 7023   2.117   1.348   4.014
 2329SOL    HW1 7024   2.021   1.349   3.987
 2329SOL    HW2 7025   2.129   1.401   4.098
 2330SOL     OW 7026   1.967   1.013   5.450
 2330SOL    HW1 7027   1.890   0.980   5.504
 2330SOL    HW2 7028   2.052   0.983   5.492
 2331SOL     OW 7029   2.534   0.203   5.213
 2331SOL    HW1 7030   2.624   0.187   5.173
 2331SOL    HW2 7031   2.542   0.208   5.312
 2332SOL     OW 7032   1.937   0.345   3.757
 2332SOL    HW1 7033   1.845   0.317   3.728
 2332SOL    HW2 7034   1.968   0.422   3.701
 2333SOL     OW 7035   3.302   0.856   5.122
 2333SOL    HW1 7036   3.245   0.908   5.059
 2333SOL    HW2 7037   3.398   0.868   5.098
 2334SOL     OW 7038   1.934   0.166   4.042
 2334SOL    HW1 7039   1.917   0.249   3.988
 2334SOL    HW2 7040   2.024   0.129   4.020
 2335SOL     OW 7041   3.045   1.335   3.843
 2335SOL    HW1 7042   2.946   1.324   3.845
 2335SOL    HW2 7043   3.079   1.350   3.936
 2336SOL     OW 7044   2.475   0.842   5.155
 2336SOL    HW1 7045   2.531   0.923   5.138
 2336SOL    HW2 7046   2.534   0.762   5.158
 2337SOL     OW 7047   3.355   1.767   4.683
 2337SOL    HW1 7048   3.388   1.831   4.614
 2337SOL    HW2 7049   3.421   1.761   4.758
 2338SOL     OW 7050   2.578   0.565   5.432
 2338SOL    HW1 7051   2.597   0.630   5.506
 2338SOL    HW2 7052   2.638   0.485   5.441
 2339SOL     OW 7053   2.252   1.741   5.284
 2339SOL    HW1 7054   2.161   1.782   5.282
 2339SOL    HW2 7055   2.245   1.647   5.316
 2340SOL     OW 7056   3.536   0.883   4.978
 2340SOL    HW1 7057   3.509   0.794   4.941
 2340SOL    HW2 7058   3.537   0.951   4.905
 2341SOL     OW 7059   3.087   0.325   4.173
 2341SOL    HW1 7060   3.152   0.251   4.162
 2341SOL    HW2 7061   3.107   0.375   4.257
 2342SOL     OW 7062   2.456   0.745   4.376
 2342SOL    HW1 7063   2.506   0.830   4.357
 2342SOL    HW2 7064   2.368   0.747   4.328
 2343SOL     OW 7065   3.639   0.342   5.366
 2343SOL    HW1 7066   3.622   0.373   5.272
 2343SOL    HW2 7067   3.555   0.305   5.404
 2344SOL     OW 7068   3.592   0.934   5.241
 2344SOL    HW1 7069   3.630   1.025   5.256
 2344SOL    HW2 7070   3.584   0.917   5.142
 2345SOL     OW 7071   2.721   1.374   3.740
 2345SOL    HW1 7072   2.675   1.389   3.828
 2345SOL    HW2 7073   2.765   1.459   3.710
 2346SOL     OW 7074   2.523   1.790   4.677
 2346SOL    HW1 7075   2.477   1.878   4.664
 2346SOL    HW2 7076   2.622   1.802   4.670
 2347SOL     OW 7077   2.721   0.956   4.585
 2347SOL    HW1 7078   2.775   0.887   4.633
 2347SOL    HW2 7079   2.689   1.025   4.651
 2348SOL     OW 7080   2.945   0.984   3.811
 2348SOL    HW1 7081   2.922   1.037   3.729
 2348SOL    HW2 7082   3.026   0.928   3.792
 2349SOL     OW 7083   3.723   1.569   4.575
 2349SOL    HW1 7084   3.652   1.557   4.505
 2349SOL    HW2 7085   3.724   1.490   4.635
 2350SOL     OW 7086   1.941   1.240   4.377
 2350SOL    HW1 7087   1.940   1.193   4.465
 2350SOL    HW2 7088   2.023   1.212   4.326
 2351SOL     OW 7089   2.534   1.391   5.348
 2351SOL    HW1 7090   2.456   1.341   5.386
 2351SOL    HW2 7091   2.531   1.486   5.379
 2352SOL     OW 7092   3.686   0.192   4.951
 2352SOL    HW1 7093   3.682   0.102   4.995
 2352SOL    HW2 7094   3.689   0.181   4.852
 2353SOL     OW 7095   2.290   0.424   4.244
 2353SOL    HW1 7096   2.320   0.352   4.182
 2353SOL    HW2 7097   2.251   0.384   4.327
 2354SOL     OW 7098   3.567   1.487   4.828
 2354SOL    HW1 7099   3.474   1.462   4.801
 2354SOL    HW2 7100   3.593   1.437   4.910
 2355SOL     OW 7101   2.179   0.547   5.004
 2355SOL    HW1 7102   2.217   0.488   5.076
 2355SOL    HW2 7103   2.219   0.521   4.916
 2356SOL     OW 7104   2.674   1.586   4.411
 2356SOL    HW1 7105   2.706   1.596   4.317
 2356SOL    HW2 7106   2.595   1.524   4.413
 2357SOL     OW 7107   3.286   0.214   4.836
 2357SOL    HW1 7108   3.338   0.149   4.891
 2357SOL    HW2 7109   3.237   0.277   4.897
 2358SOL     OW 7110   2.863   0.034   4.878
 2358SOL    HW1 7111   2.800  -0.038   4.847
 2358SOL    HW2 7112   2.956  -0.002   4.878
 2359SOL     OW 7113   2.632   1.330   4.025
 2359SOL    HW1 7114   2.586   1.243   4.042
 2359SOL    HW2 7115   2.723   1.327   4.066
 2360SOL     OW 7116   2.480   1.567   5.008
 2360SOL    HW1 7117   2.475   1.649   5.065
 2360SOL    HW2 7118   2.569   1.564   4.963
 2361SOL     OW 7119   3.214   0.052   3.892
 2361SOL    HW1 7120   3.249   0.011   3.808
 2361SOL    HW2 7121   3.124   0.014   3.912
 2362SOL     OW 7122   3.162   0.453   4.415
 2362SOL    HW1 7123   3.103   0.533   4.419
 2362SOL    HW2 7124   3.177   0.418   4.508
 2363SOL     OW 7125   3.455   0.221   4.606
 2363SOL    HW1 7126   3.371   0.220   4.660
 2363SOL    HW2 7127   3.457   0.304   4.550
 2364SOL     OW 7128   1.901   1.077   4.024
 2364SOL    HW1 7129   2.000   1.066   4.015
 2364SOL    HW2 7130   1.861   0.991   4.056
 2365SOL     OW 7131   2.737   1.646   4.061
 2365SOL    HW1 7132   2.660   1.611   4.007
 2365SOL    HW2 7133   2.705   1.717   4.123
 2366SOL     OW 7134   2.092   2.490   0.113
 2366SOL    HW1 7135   1.999   2.488   0.150
 2366SOL    HW2 7136   2.093   2.451   0.021
 2367SOL     OW 7137   2.087   2.137   0.996
 2367SOL    HW1 7138   2.122   2.120   1.088
 2367SOL    HW2 7139   1.999   2.092   0.984
 2368SOL     OW 7140   1.881   2.230   0.647
 2368SOL    HW1 7141   1.799   2.273   0.686
 2368SOL    HW2 7142   1.853   2.157   0.584
 2369SOL     OW 7143   2.431   3.137   1.165
 2369SOL    HW1 7144   2.338   3.130   1.128
 2369SOL    HW2 7145   2.442   3.226   1.209
 2370SOL     OW 7146   3.417   3.373   0.703
 2370SOL    HW1 7147   3.360   3.357   0.784
 2370SOL    HW2 7148   3.358   3.383   0.623
 2371SOL     OW 7149   2.997   2.565   0.717
 2371SOL    HW1 7150   3.054   2.643   0.692
 2371SOL    HW2 7151   2.937   2.591   0.793
 2372SOL     OW 7152   3.617   2.469   0.231
 2372SOL    HW1 7153   3.605   2.456   0.132
 2372SOL    HW2 7154   3.587   2.388   0.280
 2373SOL     OW 7155   2.630   3.006   1.023
 2373SOL    HW1 7156   2.552   3.023   1.083
 2373SOL    HW2 7157   2.664   3.093   0.987
 2374SOL     OW 7158   2.712   2.660   1.823
 2374SOL    HW1 7159   2.708   2.736   1.888
 2374SOL    HW2 7160   2.734   2.696   1.732
 2375SOL     OW 7161   2.547   2.874   0.665
 2375SOL    HW1 7162   2.616   2.858   0.735
 2375SOL    HW2 7163   2.474   2.931   0.703
 2376SOL     OW 7164   2.548   3.023   1.803
 2376SOL    HW1 7165   2.608   3.102   1.817
 2376SOL    HW2 7166   2.462   3.054   1.762
 2377SOL     OW 7167   2.197   3.297   1.061
 2377SOL    HW1 7168   2.119   3.266   1.008
 2377SOL    HW2 7169   2.255   3.355   1.004
 2378SOL     OW 7170   3.322   3.367   1.339
 2378SOL    HW1 7171   3.346   3.461   1.365
 2378SOL    HW2 7172   3.306   3.313   1.421
 2379SOL     OW 7173   2.300   2.254   1.499
 2379SOL    HW1 7174   2.382   2.198   1.508
 2379SOL    HW2 7175   2.219   2.196   1.503
 2380SOL     OW 7176   3.465   2.309   0.737
 2380SOL    HW1 7177   3.391   2.355   0.687
 2380SOL    HW2 7178   3.516   2.377   0.790
 2381SOL     OW 7179   2.093   3.575   0.483
 2381SOL    HW1 7180   2.127   3.652   0.537
 2381SOL    HW2 7181   2.137   3.575   0.393
 2382SOL     OW 7182   2.989   3.203   1.690
 2382SOL    HW1 7183   3.036   3.203   1.778
 2382SOL    HW2 7184   2.941   3.116   1.679
 2383SOL     OW 7185   2.092   3.296   0.538
 2383SOL    HW1 7186   2.066   3.392   0.538
 2383SOL    HW2 7187   2.021   3.242   0.583
 2384SOL     OW 7188   2.102   2.953   0.886
 2384SOL    HW1 7189   2.116   2.869   0.938
 2384SOL    HW2 7190   2.047   3.017   0.941
 2385SOL     OW 7191   2.482   3.648   1.439
 2385SOL    HW1 7192   2.390   3.631   1.474
 2385SOL    HW2 7193   2.510   3.740   1.465
 2386SOL     OW 7194   2.468   2.826   0.123
 2386SOL    HW1 7195   2.475   2.910   0.069
 2386SOL    HW2 7196   2.514   2.839   0.211
 2387SOL     OW 7197   3.456   1.976   1.480
 2387SOL    HW1 7198   3.438   2.043   1.408
 2387SOL    HW2 7199   3.453   2.022   1.569
 2388SOL     OW 7200   1.984   2.505   0.563
 2388SOL    HW1 7201   1.939   2.417   0.580
 2388SOL    HW2 7202   1.983   2.559   0.647
 2389SOL     OW 7203   3.704   3.629   0.359
 2389SOL    HW1 7204   3.758   3.600   0.439
 2389SOL    HW2 7205   3.734   3.719   0.330
 2390SOL     OW 7206   1.889   3.458   0.117
 2390SOL    HW1 7207   1.870   3.362   0.138
 2390SOL    HW2 7208   1.856   3.516   0.192
 2391SOL     OW 7209   3.551   2.784   0.612
 2391SOL    HW1 7210   3.646   2.755   0.620
 2391SOL    HW2 7211   3.543   2.849   0.537
 2392SOL     OW 7212   3.503   2.970   0.432
 2392SOL    HW1 7213   3.589   2.972   0.380
 2392SOL    HW2 7214   3.517   3.017   0.520
 2393SOL     OW 7215   1.975   2.599   1.597
 2393SOL    HW1 7216   2.063   2.586   1.642
 2393SOL    HW2 7217   1.962   2.696   1.575
 2394SOL     OW 7218   2.475   3.227   0.726
 2394SOL    HW1 7219   2.426   3.140   0.735
 2394SOL    HW2 7220   2.452   3.270   0.639
 2395SOL     OW 7221   3.155   3.090   1.423
 2395SOL    HW1 7222   3.192   3.017   1.365
 2395SOL    HW2 7223   3.207   3.095   1.508
 2396SOL     OW 7224   2.671   1.866   0.502
 2396SOL    HW1 7225   2.711   1.957   0.493
 2396SOL    HW2 7226   2.571   1.874   0.508
 2397SOL     OW 7227   2.059   2.838   1.264
 2397SOL    HW1 7228   2.148   2.793   1.250
 2397SOL    HW2 7229   1.986   2.773   1.245
 2398SOL     OW 7230   3.387   2.861   0.190
 2398SOL    HW1 7231   3.324   2.785   0.203
 2398SOL    HW2 7232   3.435   2.879   0.276
 2399SOL     OW 7233   3.049   3.654   1.616
 2399SOL    HW1 7234   3.073   3.714   1.540
 2399SOL    HW2 7235   3.056   3.559   1.586
 2400SOL     OW 7236   2.179   2.113   1.801
 2400SOL    HW1 7237   2.250   2.184   1.807
 2400SOL    HW2 7238   2.091   2.152   1.829
 2401SOL     OW 7239   3.328   3.279   0.953
 2401SOL    HW1 7240   3.269   3.285   1.033
 2401SOL    HW2 7241   3.313   3.191   0.907
 2402SOL     OW 7242   3.529   3.576   0.572
 2402SOL    HW1 7243   3.488   3.553   0.484
 2402SOL    HW2 7244   3.511   3.502   0.637
 2403SOL     OW 7245   2.460   2.591   0.270
 2403SOL    HW1 7246   2.484   2.660   0.202
 2403SOL    HW2 7247   2.382   2.624   0.324
 2404SOL     OW 7248   3.143   2.207   0.944
 2404SOL    HW1 7249   3.057   2.157   0.931
 2404SOL    HW2 7250   3.205   2.153   1.000
 2405SOL     OW 7251   3.438   3.524   0.307
 2405SOL    HW1 7252   3.527   3.570   0.310
 2405SOL    HW2 7253   3.417   3.500   0.212
 2406SOL     OW 7254   2.669   2.467   1.465
 2406SOL    HW1 7255   2.622   2.464   1.554
 2406SOL    HW2 7256   2.618   2.412   1.399
 2407SOL     OW 7257   3.256   2.331   1.674
 2407SOL    HW1 7258   3.236   2.374   1.762
 2407SOL    HW2 7259   3.334   2.269   1.683
 2408SOL     OW 7260   2.835   2.752   1.572
 2408SOL    HW1 7261   2.881   2.668   1.543
 2408SOL    HW2 7262   2.779   2.786   1.497
 2409SOL     OW 7263   2.853   2.272   1.242
 2409SOL    HW1 7264   2.776   2.306   1.296
 2409SOL    HW2 7265   2.819   2.221   1.163
 2410SOL     OW 7266   2.903   2.563   0.429
 2410SOL    HW1 7267   2.929   2.559   0.525
 2410SOL    HW2 7268   2.818   2.512   0.415
 2411SOL     OW 7269   1.938   2.673   0.789
 2411SOL    HW1 7270   2.037   2.661   0.798
 2411SOL    HW2 7271   1.914   2.768   0.810
 2412SOL     OW 7272   1.992   3.683   1.571
 2412SOL    HW1 7273   1.982   3.668   1.670
 2412SOL    HW2 7274   1.906   3.719   1.535
 2413SOL     OW 7275   2.727   2.210   0.195
 2413SOL    HW1 7276   2.786   2.273   0.146
 2413SOL    HW2 7277   2.746   2.116   0.166
 2414SOL     OW 7278   3.581   2.447   1.831
 2414SOL    HW1 7279   3.555   2.536   1.795
 2414SOL    HW2 7280   3.579   2.379   1.758
 2415SOL     OW 7281   3.224   3.006   0.545
 2415SOL    HW1 7282   3.307   2.977   0.497
 2415SOL    HW2 7283   3.175   3.073   0.489
 2416SOL     OW 7284   2.412   2.058   0.885
 2416SOL    HW1 7285   2.407   2.053   0.985
 2416SOL    HW2 7286   2.414   2.154   0.856
 2417SOL     OW 7287   2.870   3.318   0.477
 2417SOL    HW1 7288   2.824   3.390   0.425
 2417SOL    HW2 7289   2.866   3.338   0.575
 2418SOL     OW 7290   2.213   3.663   0.853
 2418SOL    HW1 7291   2.263   3.577   0.859
 2418SOL    HW2 7292   2.278   3.740   0.850
 2419SOL     OW 7293   3.657   2.928   0.873
 2419SOL    HW1 7294   3.595   2.913   0.797
 2419SOL    HW2 7295   3.605   2.939   0.958
 2420SOL     OW 7296   3.089   3.412   1.506
 2420SOL    HW1 7297   3.095   3.335   1.570
 2420SOL    HW2 7298   3.037   3.386   1.426
 2421SOL     OW 7299   2.183   2.805   0.242
 2421SOL    HW1 7300   2.265   2.844   0.200
 2421SOL    HW2 7301   2.156   2.723   0.193
 2422SOL     OW 7302   3.320   2.597   0.728
 2422SOL    HW1 7303   3.315   2.532   0.803
 2422SOL    HW2 7304   3.400   2.656   0.741
 2423SOL     OW 7305   2.323   3.128   1.727
 2423SOL    HW1 7306   2.273   3.129   1.641
 2423SOL    HW2 7307   2.260   3.110   1.803
 2424SOL     OW 7308   2.973   3.638   0.237
 2424SOL    HW1 7309   2.913   3.576   0.287
 2424SOL    HW2 7310   3.004   3.594   0.152
 2425SOL     OW 7311   2.064   2.147   1.498
 2425SOL    HW1 7312   1.984   2.207   1.485
 2425SOL    HW2 7313   2.054   2.098   1.584
 2426SOL     OW 7314   3.494   3.239   0.081
 2426SOL    HW1 7315   3.462   3.333   0.071
 2426SOL    HW2 7316   3.418   3.176   0.069
 2427SOL     OW 7317   2.326   3.605   0.323
 2427SOL    HW1 7318   2.359   3.644   0.409
 2427SOL    HW2 7319   2.402   3.598   0.258
 2428SOL     OW 7320   3.262   1.969   0.426
 2428SOL    HW1 7321   3.238   1.932   0.336
 2428SOL    HW2 7322   3.361   1.985   0.430
 2429SOL     OW 7323   2.111   3.647   1.241
 2429SOL    HW1 7324   2.168   3.582   1.291
 2429SOL    HW2 7325   2.095   3.614   1.148
 2430SOL     OW 7326   2.802   3.560   0.904
 2430SOL    HW1 7327   2.882   3.503   0.925
 2430SOL    HW2 7328   2.753   3.520   0.827
 2431SOL     OW 7329   2.244   2.562   0.480
 2431SOL    HW1 7330   2.289   2.472   0.477
 2431SOL    HW2 7331   2.150   2.551   0.513
 2432SOL     OW 7332   3.409   2.084   1.729
 2432SOL    HW1 7333   3.404   2.121   1.821
 2432SOL    HW2 7334   3.337   2.015   1.717
 2433SOL     OW 7335   2.476   1.984   0.117
 2433SOL    HW1 7336   2.574   1.962   0.124
 2433SOL    HW2 7337   2.445   1.967   0.024
 2434SOL     OW 7338   2.643   2.126   1.749
 2434SOL    HW1 7339   2.710   2.065   1.792
 2434SOL    HW2 7340   2.570   2.145   1.814
 2435SOL     OW 7341   2.750   3.376   1.195
 2435SOL    HW1 7342   2.727   3.351   1.101
 2435SOL    HW2 7343   2.811   3.307   1.234
 2436SOL     OW 7344   3.213   2.452   1.433
 2436SOL    HW1 7345   3.241   2.409   1.518
 2436SOL    HW2 7346   3.238   2.548   1.434
 2437SOL     OW 7347   2.665   3.264   0.924
 2437SOL    HW1 7348   2.755   3.278   0.882
 2437SOL    HW2 7349   2.594   3.266   0.853
 2438SOL     OW 7350   2.784   2.365   0.899
 2438SOL    HW1 7351   2.759   2.356   0.803
 2438SOL    HW2 7352   2.832   2.283   0.930
 2439SOL     OW 7353   2.401   1.926   0.512
 2439SOL    HW1 7354   2.320   1.927   0.570
 2439SOL    HW2 7355   2.404   2.009   0.457
 2440SOL     OW 7356   3.296   3.050   0.041
 2440SOL    HW1 7357   3.328   2.974   0.098
 2440SOL    HW2 7358   3.204   3.077   0.071
 2441SOL     OW 7359   2.159   1.897   0.171
 2441SOL    HW1 7360   2.208   1.981   0.150
 2441SOL    HW2 7361   2.221   1.832   0.216
 2442SOL     OW 7362   2.797   2.098   0.480
 2442SOL    HW1 7363   2.749   2.139   0.402
 2442SOL    HW2 7364   2.896   2.096   0.461
 2443SOL     OW 7365   2.938   2.545   1.464
 2443SOL    HW1 7366   2.858   2.484   1.467
 2443SOL    HW2 7367   3.019   2.492   1.440
 2444SOL     OW 7368   3.089   3.432   0.793
 2444SOL    HW1 7369   3.110   3.506   0.728
 2444SOL    HW2 7370   3.157   3.432   0.866
 2445SOL     OW 7371   2.321   3.014   0.741
 2445SOL    HW1 7372   2.250   2.987   0.806
 2445SOL    HW2 7373   2.295   2.986   0.648
 2446SOL     OW 7374   3.133   3.659   0.591
 2446SOL    HW1 7375   3.177   3.723   0.527
 2446SOL    HW2 7376   3.083   3.711   0.661
 2447SOL     OW 7377   2.894   2.411   0.016
 2447SOL    HW1 7378   2.853   2.493  -0.023
 2447SOL    HW2 7379   2.958   2.437   0.089
 2448SOL     OW 7380   1.940   2.418   1.386
 2448SOL    HW1 7381   2.032   2.417   1.345
 2448SOL    HW2 7382   1.934   2.492   1.453
 2449SOL     OW 7383   2.423   2.084   1.147
 2449SOL    HW1 7384   2.461   2.000   1.184
 2449SOL    HW2 7385   2.335   2.103   1.191
 2450SOL     OW 7386   2.728   2.316   0.642
 2450SOL    HW1 7387   2.696   2.388   0.580
 2450SOL    HW2 7388   2.752   2.235   0.589
 2451SOL     OW 7389   2.879   1.901   0.753
 2451SOL    HW1 7390   2.807   1.906   0.684
 2451SOL    HW2 7391   2.855   1.832   0.822
 2452SOL     OW 7392   3.291   3.035   0.867
 2452SOL    HW1 7393   3.236   2.951   0.860
 2452SOL    HW2 7394   3.317   3.064   0.775
 2453SOL     OW 7395   3.328   2.452   0.992
 2453SOL    HW1 7396   3.298   2.357   0.999
 2453SOL    HW2 7397   3.401   2.468   1.058
 2454SOL     OW 7398   3.719   2.695   0.377
 2454SOL    HW1 7399   3.761   2.631   0.441
 2454SOL    HW2 7400   3.681   2.644   0.299
 2455SOL     OW 7401   2.350   3.247   0.174
 2455SOL    HW1 7402   2.263   3.232   0.221
 2455SOL    HW2 7403   2.333   3.273   0.079
 2456SOL     OW 7404   3.526   3.142   0.657
 2456SOL    HW1 7405   3.625   3.150   0.671
 2456SOL    HW2 7406   3.481   3.226   0.688
 2457SOL     OW 7407   3.252   2.437   0.078
 2457SOL    HW1 7408   3.198   2.416   0.159
 2457SOL    HW2 7409   3.343   2.396   0.087
 2458SOL     OW 7410   2.389   2.118   0.328
 2458SOL    HW1 7411   2.416   2.059   0.253
 2458SOL    HW2 7412   2.389   2.213   0.297
 2459SOL     OW 7413   3.616   3.085   1.588
 2459SOL    HW1 7414   3.707   3.046   1.575
 2459SOL    HW2 7415   3.624   3.181   1.612
 2460SOL     OW 7416   2.926   3.209   1.340
 2460SOL    HW1 7417   2.846   3.186   1.395
 2460SOL    HW2 7418   3.009   3.183   1.389
 2461SOL     OW 7419   3.454   3.491   1.625
 2461SOL    HW1 7420   3.481   3.525   1.535
 2461SOL    HW2 7421   3.533   3.453   1.671
 2462SOL     OW 7422   2.973   3.057   1.100
 2462SOL    HW1 7423   2.933   3.101   1.181
 2462SOL    HW2 7424   2.932   3.094   1.017
 2463SOL     OW 7425   3.500   2.961   1.079
 2463SOL    HW1 7426   3.505   3.042   1.138
 2463SOL    HW2 7427   3.414   2.963   1.028
 2464SOL     OW 7428   2.777   1.951   1.402
 2464SOL    HW1 7429   2.802   1.931   1.307
 2464SOL    HW2 7430   2.849   2.007   1.444
 2465SOL     OW 7431   2.842   2.978   1.719
 2465SOL    HW1 7432   2.743   2.984   1.729
 2465SOL    HW2 7433   2.865   2.898   1.663
 2466SOL     OW 7434   2.567   2.912   0.368
 2466SOL    HW1 7435   2.553   2.919   0.467
 2466SOL    HW2 7436   2.651   2.861   0.350
 2467SOL     OW 7437   2.272   2.675   1.251
 2467SOL    HW1 7438   2.358   2.687   1.301
 2467SOL    HW2 7439   2.230   2.588   1.278
 2468SOL     OW 7440   3.136   2.248   1.262
 2468SOL    HW1 7441   3.157   2.322   1.326
 2468SOL    HW2 7442   3.047   2.265   1.219
 2469SOL     OW 7443   1.926   3.426   1.331
 2469SOL    HW1 7444   1.880   3.508   1.297
 2469SOL    HW2 7445   2.024   3.445   1.340
 2470SOL     OW 7446   2.229   2.962   0.501
 2470SOL    HW1 7447   2.222   3.045   0.445
 2470SOL    HW2 7448   2.233   2.882   0.441
 2471SOL     OW 7449   2.428   2.399   0.865
 2471SOL    HW1 7450   2.440   2.465   0.791
 2471SOL    HW2 7451   2.474   2.433   0.948
 2472SOL     OW 7452   3.114   3.210   0.388
 2472SOL    HW1 7453   3.164   3.287   0.428
 2472SOL    HW2 7454   3.019   3.212   0.420
 2473SOL     OW 7455   3.134   3.307   1.142
 2473SOL    HW1 7456   3.181   3.320   1.229
 2473SOL    HW2 7457   3.068   3.233   1.151
 2474SOL     OW 7458   3.444   2.501   0.472
 2474SOL    HW1 7459   3.413   2.562   0.545
 2474SOL    HW2 7460   3.494   2.553   0.403
 2475SOL     OW 7461   2.216   3.372   1.329
 2475SOL    HW1 7462   2.195   3.328   1.242
 2475SOL    HW2 7463   2.313   3.398   1.332
 2476SOL     OW 7464   2.264   2.613   1.598
 2476SOL    HW1 7465   2.332   2.668   1.551
 2476SOL    HW2 7466   2.304   2.525   1.625
 2477SOL     OW 7467   3.449   2.641   1.670
 2477SOL    HW1 7468   3.357   2.679   1.665
 2477SOL    HW2 7469   3.509   2.688   1.605
 2478SOL     OW 7470   2.875   1.967   1.770
 2478SOL    HW1 7471   2.881   2.052   1.718
 2478SOL    HW2 7472   2.907   1.891   1.713
 2479SOL     OW 7473   2.366   1.912   1.740
 2479SOL    HW1 7474   2.324   1.855   1.670
 2479SOL    HW2 7475   2.300   1.981   1.772
 2480SOL     OW 7476   2.435   2.732   1.029
 2480SOL    HW1 7477   2.479   2.821   1.020
 2480SOL    HW2 7478   2.372   2.732   1.106
 2481SOL     OW 7479   3.222   2.724   1.045
 2481SOL    HW1 7480   3.147   2.724   0.979
 2481SOL    HW2 7481   3.259   2.632   1.054
 2482SOL     OW 7482   3.071   2.387   0.275
 2482SOL    HW1 7483   3.084   2.303   0.329
 2482SOL    HW2 7484   3.042   2.461   0.335
 2483SOL     OW 7485   2.169   2.075   1.231
 2483SOL    HW1 7486   2.146   2.112   1.321
 2483SOL    HW2 7487   2.139   1.980   1.225
 2484SOL     OW 7488   1.899   3.172   1.282
 2484SOL    HW1 7489   1.952   3.123   1.350
 2484SOL    HW2 7490   1.921   3.270   1.287
 2485SOL     OW 7491   2.594   2.496   1.064
 2485SOL    HW1 7492   2.653   2.470   0.988
 2485SOL    HW2 7493   2.566   2.592   1.053
 2486SOL     OW 7494   3.590   2.797   1.854
 2486SOL    HW1 7495   3.544   2.790   1.765
 2486SOL    HW2 7496   3.528   2.841   1.920
 2487SOL     OW 7497   2.169   1.925   0.618
 2487SOL    HW1 7498   2.158   2.019   0.651
 2487SOL    HW2 7499   2.164   1.862   0.695
 2488SOL     OW 7500   3.484   2.229   0.374
 2488SOL    HW1 7501   3.486   2.153   0.438
 2488SOL    HW2 7502   3.436   2.306   0.414
 2489SOL     OW 7503   2.885   2.628   0.966
 2489SOL    HW1 7504   2.900   2.649   1.062
 2489SOL    HW2 7505   2.855   2.533   0.957
 2490SOL     OW 7506   2.842   3.435   1.700
 2490SOL    HW1 7507   2.822   3.479   1.612
 2490SOL    HW2 7508   2.881   3.344   1.684
 2491SOL     OW 7509   3.721   3.380   1.605
 2491SOL    HW1 7510   3.735   3.407   1.510
 2491SOL    HW2 7511   3.804   3.402   1.658
 2492SOL     OW 7512   2.212   2.760   1.804
 2492SOL    HW1 7513   2.288   2.804   1.852
 2492SOL    HW2 7514   2.247   2.713   1.722
 2493SOL     OW 7515   3.402   2.136   0.125
 2493SOL    HW1 7516   3.341   2.061   0.148
 2493SOL    HW2 7517   3.424   2.188   0.208
 2494SOL     OW 7518   3.165   2.700   0.042
 2494SOL    HW1 7519   3.199   2.607   0.057
 2494SOL    HW2 7520   3.183   2.727  -0.053
 2495SOL     OW 7521   2.930   3.195   0.849
 2495SOL    HW1 7522   2.937   3.111   0.794
 2495SOL    HW2 7523   2.992   3.264   0.813
 2496SOL     OW 7524   2.181   2.672   0.949
 2496SOL    HW1 7525   2.274   2.708   0.954
 2496SOL    HW2 7526   2.175   2.587   1.001
 2497SOL     OW 7527   2.201   2.371   1.006
 2497SOL    HW1 7528   2.149   2.288   0.989
 2497SOL    HW2 7529   2.278   2.376   0.942
 2498SOL     OW 7530   3.000   2.242   1.678
 2498SOL    HW1 7531   2.955   2.305   1.742
 2498SOL    HW2 7532   3.093   2.273   1.661
 2499SOL     OW 7533   3.022   2.069   1.477
 2499SOL    HW1 7534   3.022   2.133   1.554
 2499SOL    HW2 7535   3.050   2.117   1.394
 2500SOL     OW 7536   1.870   3.188   0.200
 2500SOL    HW1 7537   1.777   3.209   0.169
 2500SOL    HW2 7538   1.880   3.089   0.213
 2501SOL     OW 7539   1.950   3.663   0.927
 2501SOL    HW1 7540   1.908   3.577   0.900
 2501SOL    HW2 7541   2.044   3.666   0.893
 2502SOL     OW 7542   2.366   3.430   0.910
 2502SOL    HW1 7543   2.432   3.504   0.919
 2502SOL    HW2 7544   2.410   3.351   0.868
 2503SOL     OW 7545   2.864   2.658   1.238
 2503SOL    HW1 7546   2.905   2.626   1.324
 2503SOL    HW2 7547   2.768   2.631   1.235
 2504SOL     OW 7548   1.902   2.406   1.114
 2504SOL    HW1 7549   1.987   2.373   1.073
 2504SOL    HW2 7550   1.915   2.421   1.212
 2505SOL     OW 7551   2.051   2.382   1.722
 2505SOL    HW1 7552   2.110   2.342   1.652
 2505SOL    HW2 7553   1.993   2.453   1.681
 2506SOL     OW 7554   3.231   2.812   1.660
 2506SOL    HW1 7555   3.270   2.901   1.680
 2506SOL    HW2 7556   3.241   2.792   1.563
 2507SOL     OW 7557   2.677   2.434   0.325
 2507SOL    HW1 7558   2.684   2.345   0.279
 2507SOL    HW2 7559   2.583   2.468   0.317
 2508SOL     OW 7560   3.519   2.466   1.206
 2508SOL    HW1 7561   3.481   2.397   1.268
 2508SOL    HW2 7562   3.601   2.430   1.162
 2509SOL     OW 7563   2.114   3.426   1.744
 2509SOL    HW1 7564   2.084   3.483   1.820
 2509SOL    HW2 7565   2.107   3.329   1.770
 2510SOL     OW 7566   2.533   2.326   1.269
 2510SOL    HW1 7567   2.499   2.237   1.239
 2510SOL    HW2 7568   2.559   2.380   1.189
 2511SOL     OW 7569   2.792   3.540   1.465
 2511SOL    HW1 7570   2.768   3.522   1.370
 2511SOL    HW2 7571   2.822   3.634   1.475
 2512SOL     OW 7572   2.335   2.362   0.191
 2512SOL    HW1 7573   2.396   2.442   0.195
 2512SOL    HW2 7574   2.240   2.393   0.198
 2513SOL     OW 7575   2.021   2.999   1.466
 2513SOL    HW1 7576   2.043   2.938   1.542
 2513SOL    HW2 7577   2.031   2.950   1.380
 2514SOL     OW 7578   3.209   2.921   1.234
 2514SOL    HW1 7579   3.233   2.858   1.160
 2514SOL    HW2 7580   3.119   2.961   1.216
 2515SOL     OW 7581   3.164   2.717   0.309
 2515SOL    HW1 7582   3.078   2.686   0.351
 2515SOL    HW2 7583   3.160   2.703   0.210
 2516SOL     OW 7584   3.621   3.609   1.154
 2516SOL    HW1 7585   3.682   3.639   1.081
 2516SOL    HW2 7586   3.583   3.520   1.132
 2517SOL     OW 7587   3.114   3.593   1.128
 2517SOL    HW1 7588   3.198   3.598   1.074
 2517SOL    HW2 7589   3.091   3.497   1.146
 2518SOL     OW 7590   1.945   3.120   1.022
 2518SOL    HW1 7591   1.940   3.119   1.122
 2518SOL    HW2 7592   1.862   3.079   0.984
 2519SOL     OW 7593   2.550   3.524   1.716
 2519SOL    HW1 7594   2.494   3.605   1.725
 2519SOL    HW2 7595   2.602   3.528   1.630
 2520SOL     OW 7596   2.765   1.948   0.133
 2520SOL    HW1 7597   2.816   1.949   0.047
 2520SOL    HW2 7598   2.821   1.906   0.204
 2521SOL     OW 7599   3.588   1.997   0.523
 2521SOL    HW1 7600   3.661   1.980   0.456
 2521SOL    HW2 7601   3.557   1.910   0.561
 2522SOL     OW 7602   3.250   3.435   0.477
 2522SOL    HW1 7603   3.317   3.447   0.403
 2522SOL    HW2 7604   3.210   3.524   0.500
 2523SOL     OW 7605   1.992   3.656   1.851
 2523SOL    HW1 7606   1.951   3.582   1.904
 2523SOL    HW2 7607   2.056   3.707   1.909
 2524SOL     OW 7608   3.142   2.789   0.672
 2524SOL    HW1 7609   3.202   2.708   0.674
 2524SOL    HW2 7610   3.182   2.858   0.612
 2525SOL     OW 7611   2.692   3.135   1.422
 2525SOL    HW1 7612   2.687   3.168   1.517
 2525SOL    HW2 7613   2.606   3.154   1.376
 2526SOL     OW 7614   2.534   3.478   0.154
 2526SOL    HW1 7615   2.543   3.488   0.055
 2526SOL    HW2 7616   2.494   3.389   0.175
 2527SOL     OW 7617   3.512   3.582   1.394
 2527SOL    HW1 7618   3.565   3.592   1.310
 2527SOL    HW2 7619   3.485   3.672   1.428
 2528SOL     OW 7620   3.703   2.037   0.963
 2528SOL    HW1 7621   3.742   1.952   0.927
 2528SOL    HW2 7622   3.605   2.039   0.944
 2529SOL     OW 7623   2.125   2.188   0.720
 2529SOL    HW1 7624   2.046   2.239   0.686
 2529SOL    HW2 7625   2.116   2.173   0.818
 2530SOL     OW 7626   3.056   3.474   0.031
 2530SOL    HW1 7627   3.062   3.381   0.068
 2530SOL    HW2 7628   2.997   3.474  -0.049
 2531SOL     OW 7629   2.684   2.864   1.372
 2531SOL    HW1 7630   2.724   2.863   1.280
 2531SOL    HW2 7631   2.694   2.956   1.412
 2532SOL     OW 7632   2.778   2.772   0.291
 2532SOL    HW1 7633   2.841   2.810   0.223
 2532SOL    HW2 7634   2.818   2.689   0.330
 2533SOL     OW 7635   3.366   3.469   0.044
 2533SOL    HW1 7636   3.274   3.506   0.051
 2533SOL    HW2 7637   3.404   3.489  -0.046
 2534SOL     OW 7638   2.234   3.150   1.490
 2534SOL    HW1 7639   2.221   3.243   1.456
 2534SOL    HW2 7640   2.150   3.098   1.477
 2535SOL     OW 7641   3.476   3.154   1.289
 2535SOL    HW1 7642   3.536   3.157   1.369
 2535SOL    HW2 7643   3.401   3.218   1.302
 2536SOL     OW 7644   2.901   2.960   0.696
 2536SOL    HW1 7645   2.831   2.913   0.750
 2536SOL    HW2 7646   2.960   2.892   0.653
 2537SOL     OW 7647   2.876   2.098   0.971
 2537SOL    HW1 7648   2.868   2.062   0.878
 2537SOL    HW2 7649   2.874   2.022   1.036
 2538SOL     OW 7650   2.452   3.349   0.491
 2538SOL    HW1 7651   2.494   3.291   0.421
 2538SOL    HW2 7652   2.408   3.428   0.447
 2539SOL     OW 7653   3.571   2.247   1.381
 2539SOL    HW1 7654   3.644   2.316   1.385
 2539SOL    HW2 7655   3.599   2.172   1.322
 2540SOL     OW 7656   2.117   3.210   0.290
 2540SOL    HW1 7657   2.021   3.211   0.263
 2540SOL    HW2 7658   2.129   3.263   0.374
 2541SOL     OW 7659   1.967   2.875   1.726
 2541SOL    HW1 7660   1.890   2.842   1.780
 2541SOL    HW2 7661   2.052   2.845   1.768
 2542SOL     OW 7662   2.534   2.065   1.489
 2542SOL    HW1 7663   2.624   2.049   1.449
 2542SOL    HW2 7664   2.542   2.070   1.588
 2543SOL     OW 7665   3.302   2.718   1.398
 2543SOL    HW1 7666   3.245   2.770   1.335
 2543SOL    HW2 7667   3.398   2.730   1.374
 2544SOL     OW 7668   1.934   2.028   0.318
 2544SOL    HW1 7669   1.917   2.111   0.264
 2544SOL    HW2 7670   2.024   1.991   0.296
 2545SOL     OW 7671   3.045   3.197   0.119
 2545SOL    HW1 7672   2.946   3.186   0.121
 2545SOL    HW2 7673   3.079   3.212   0.212
 2546SOL     OW 7674   2.475   2.704   1.431
 2546SOL    HW1 7675   2.531   2.785   1.414
 2546SOL    HW2 7676   2.534   2.624   1.434
 2547SOL     OW 7677   3.355   3.629   0.959
 2547SOL    HW1 7678   3.388   3.693   0.890
 2547SOL    HW2 7679   3.421   3.623   1.034
 2548SOL     OW 7680   2.578   2.427   1.708
 2548SOL    HW1 7681   2.597   2.492   1.782
 2548SOL    HW2 7682   2.638   2.347   1.717
 2549SOL     OW 7683   3.312   3.082   1.633
 2549SOL    HW1 7684   3.303   3.072   1.732
 2549SOL    HW2 7685   3.408   3.075   1.607
 2550SOL     OW 7686   2.252   3.603   1.560
 2550SOL    HW1 7687   2.161   3.644   1.558
 2550SOL    HW2 7688   2.245   3.509   1.592
 2551SOL     OW 7689   3.536   2.745   1.254
 2551SOL    HW1 7690   3.509   2.656   1.217
 2551SOL    HW2 7691   3.537   2.813   1.181
 2552SOL     OW 7692   3.087   2.187   0.449
 2552SOL    HW1 7693   3.152   2.113   0.438
 2552SOL    HW2 7694   3.107   2.237   0.533
 2553SOL     OW 7695   2.456   2.607   0.652
 2553SOL    HW1 7696   2.506   2.692   0.633
 2553SOL    HW2 7697   2.368   2.609   0.604
 2554SOL     OW 7698   3.639   2.204   1.642
 2554SOL    HW1 7699   3.622   2.235   1.548
 2554SOL    HW2 7700   3.555   2.167   1.680
 2555SOL     OW 7701   3.592   2.796   1.517
 2555SOL    HW1 7702   3.630   2.887   1.532
 2555SOL    HW2 7703   3.584   2.779   1.418
 2556SOL     OW 7704   2.721   3.236   0.016
 2556SOL    HW1 7705   2.675   3.251   0.104
 2556SOL    HW2 7706   2.765   3.321  -0.014
 2557SOL     OW 7707   2.523   3.652   0.953
 2557SOL    HW1 7708   2.477   3.740   0.940
 2557SOL    HW2 7709   2.622   3.664   0.946
 2558SOL     OW 7710   2.721   2.818   0.861
 2558SOL    HW1 7711   2.775   2.749   0.909
 2558SOL    HW2 7712   2.689   2.887   0.927
 2559SOL     OW 7713   2.945   2.846   0.087
 2559SOL    HW1 7714   2.922   2.899   0.005
 2559SOL    HW2 7715   3.026   2.790   0.068
 2560SOL     OW 7716   3.723   3.431   0.851
 2560SOL    HW1 7717   3.652   3.419   0.781
 2560SOL    HW2 7718   3.724   3.352   0.911
 2561SOL     OW 7719   2.083   3.176   1.844
 2561SOL    HW1 7720   2.018   3.103   1.823
 2561SOL    HW2 7721   2.087   3.190   1.942
 2562SOL     OW 7722   1.941   3.102   0.653
 2562SOL    HW1 7723   1.940   3.055   0.741
 2562SOL    HW2 7724   2.023   3.074   0.602
 2563SOL     OW 7725   2.534   3.253   1.624
 2563SOL    HW1 7726   2.456   3.203   1.662
 2563SOL    HW2 7727   2.531   3.348   1.655
 2564SOL     OW 7728   3.686   2.054   1.227
 2564SOL    HW1 7729   3.682   1.964   1.271
 2564SOL    HW2 7730   3.689   2.043   1.128
 2565SOL     OW 7731   2.290   2.286   0.520
 2565SOL    HW1 7732   2.320   2.214   0.458
 2565SOL    HW2 7733   2.251   2.246   0.603
 2566SOL     OW 7734   3.567   3.349   1.104
 2566SOL    HW1 7735   3.474   3.324   1.077
 2566SOL    HW2 7736   3.593   3.299   1.186
 2567SOL     OW 7737   2.179   2.409   1.280
 2567SOL    HW1 7738   2.217   2.350   1.352
 2567SOL    HW2 7739   2.219   2.383   1.192
 2568SOL     OW 7740   2.674   3.448   0.687
 2568SOL    HW1 7741   2.706   3.458   0.593
 2568SOL    HW2 7742   2.595   3.386   0.689
 2569SOL     OW 7743   3.286   2.076   1.112
 2569SOL    HW1 7744   3.338   2.011   1.167
 2569SOL    HW2 7745   3.237   2.139   1.173
 2570SOL     OW 7746   2.863   1.896   1.154
 2570SOL    HW1 7747   2.800   1.824   1.123
 2570SOL    HW2 7748   2.956   1.860   1.154
 2571SOL     OW 7749   2.632   3.192   0.301
 2571SOL    HW1 7750   2.586   3.105   0.318
 2571SOL    HW2 7751   2.723   3.189   0.342
 2572SOL     OW 7752   2.480   3.429   1.284
 2572SOL    HW1 7753   2.475   3.511   1.341
 2572SOL    HW2 7754   2.569   3.426   1.239
 2573SOL     OW 7755   3.214   1.914   0.168
 2573SOL    HW1 7756   3.249   1.873   0.084
 2573SOL    HW2 7757   3.124   1.876   0.188
 2574SOL     OW 7758   3.162   2.315   0.691
 2574SOL    HW1 7759   3.103   2.395   0.695
 2574SOL    HW2 7760   3.177   2.280   0.784
 2575SOL     OW 7761   3.455   2.083   0.882
 2575SOL    HW1 7762   3.371   2.082   0.936
 2575SOL    HW2 7763   3.457   2.166   0.826
 2576SOL     OW 7764   1.901   2.939   0.300
 2576SOL    HW1 7765   2.000   2.928   0.291
 2576SOL    HW2 7766   1.861   2.853   0.332
 2577SOL     OW 7767   2.737   3.508   0.337
 2577SOL    HW1 7768   2.660   3.473   0.283
 2577SOL    HW2 7769   2.705   3.579   0.399
 2578SOL     OW 7770   2.092   2.490   1.975
 2578SOL    HW1 7771   1.999   2.488   2.012
 2578SOL    HW2 7772   2.093   2.451   1.883
 2579SOL     OW 7773   2.087   2.137   2.858
 2579SOL    HW1 7774   2.122   2.120   2.950
 2579SOL    HW2 7775   1.999   2.092   2.846
 2580SOL     OW 7776   1.881   2.230   2.509
 2580SOL    HW1 7777   1.799   2.273   2.548
 2580SOL    HW2 7778   1.853   2.157   2.446
 2581SOL     OW 7779   2.431   3.137   3.027
 2581SOL    HW1 7780   2.338   3.130   2.990
 2581SOL    HW2 7781   2.442   3.226   3.071
 2582SOL     OW 7782   3.417   3.373   2.565
 2582SOL    HW1 7783   3.360   3.357   2.646
 2582SOL    HW2 7784   3.358   3.383   2.485
 2583SOL     OW 7785   3.617   2.469   2.093
 2583SOL    HW1 7786   3.605   2.456   1.994
 2583SOL    HW2 7787   3.587   2.388   2.142
 2584SOL     OW 7788   2.630   3.006   2.885
 2584SOL    HW1 7789   2.552   3.023   2.945
 2584SOL    HW2 7790   2.664   3.093   2.849
 2585SOL     OW 7791   2.712   2.660   3.685
 2585SOL    HW1 7792   2.708   2.736   3.750
 2585SOL    HW2 7793   2.734   2.696   3.594
 2586SOL     OW 7794   2.548   3.023   3.665
 2586SOL    HW1 7795   2.608   3.102   3.679
 2586SOL    HW2 7796   2.462   3.054   3.624
 2587SOL     OW 7797   2.197   3.297   2.923
 2587SOL    HW1 7798   2.119   3.266   2.870
 2587SOL    HW2 7799   2.255   3.355   2.866
 2588SOL     OW 7800   3.322   3.367   3.201
 2588SOL    HW1 7801   3.346   3.461   3.227
 2588SOL    HW2 7802   3.306   3.313   3.283
 2589SOL     OW 7803   2.300   2.254   3.361
 2589SOL    HW1 7804   2.382   2.198   3.370
 2589SOL    HW2 7805   2.219   2.196   3.365
 2590SOL     OW 7806   3.465   2.309   2.599
 2590SOL    HW1 7807   3.391   2.355   2.549
 2590SOL    HW2 7808   3.516   2.377   2.652
 2591SOL     OW 7809   2.093   3.575   2.345
 2591SOL    HW1 7810   2.127   3.652   2.399
 2591SOL    HW2 7811   2.137   3.575   2.255
 2592SOL     OW 7812   2.989   3.203   3.552
 2592SOL    HW1 7813   3.036   3.203   3.640
 2592SOL    HW2 7814   2.941   3.116   3.541
 2593SOL     OW 7815   2.092   3.296   2.400
 2593SOL    HW1 7816   2.066   3.392   2.400
 2593SOL    HW2 7817   2.021   3.242   2.445
 2594SOL     OW 7818   2.102   2.953   2.748
 2594SOL    HW1 7819   2.116   2.869   2.800
 2594SOL    HW2 7820   2.047   3.017   2.803
 2595SOL     OW 7821   2.482   3.648   3.301
 2595SOL    HW1 7822   2.390   3.631   3.336
 2595SOL    HW2 7823   2.510   3.740   3.327
 2596SOL     OW 7824   2.468   2.826   1.985
 2596SOL    HW1 7825   2.475   2.910   1.931
 2596SOL    HW2 7826   2.514   2.839   2.073
 2597SOL     OW 7827   3.456   1.976   3.342
 2597SOL    HW1 7828   3.438   2.043   3.270
 2597SOL    HW2 7829   3.453   2.022   3.431
 2598SOL     OW 7830   1.984   2.505   2.425
 2598SOL    HW1 7831   1.939   2.417   2.442
 2598SOL    HW2 7832   1.983   2.559   2.509
 2599SOL     OW 7833   3.704   3.629   2.221
 2599SOL    HW1 7834   3.758   3.600   2.301
 2599SOL    HW2 7835   3.734   3.719   2.192
 2600SOL     OW 7836   1.889   3.458   1.979
 2600SOL    HW1 7837   1.870   3.362   2.000
 2600SOL    HW2 7838   1.856   3.516   2.054
 2601SOL     OW 7839   3.551   2.784   2.474
 2601SOL    HW1 7840   3.646   2.755   2.482
 2601SOL    HW2 7841   3.543   2.849   2.399
 2602SOL     OW 7842   3.503   2.970   2.294
 2602SOL    HW1 7843   3.589   2.972   2.242
 2602SOL    HW2 7844   3.517   3.017   2.382
 2603SOL     OW 7845   1.975   2.599   3.459
 2603SOL    HW1 7846   2.063   2.586   3.504
 2603SOL    HW2 7847   1.962   2.696   3.437
 2604SOL     OW 7848   2.475   3.227   2.588
 2604SOL    HW1 7849   2.426   3.140   2.597
 2604SOL    HW2 7850   2.452   3.270   2.501
 2605SOL     OW 7851   3.155   3.090   3.285
 2605SOL    HW1 7852   3.192   3.017   3.227
 2605SOL    HW2 7853   3.207   3.095   3.370
 2606SOL     OW 7854   2.671   1.866   2.364
 2606SOL    HW1 7855   2.711   1.957   2.355
 2606SOL    HW2 7856   2.571   1.874   2.370
 2607SOL     OW 7857   2.059   2.838   3.126
 2607SOL    HW1 7858   2.148   2.793   3.112
 2607SOL    HW2 7859   1.986   2.773   3.107
 2608SOL     OW 7860   3.387   2.861   2.052
 2608SOL    HW1 7861   3.324   2.785   2.065
 2608SOL    HW2 7862   3.435   2.879   2.138
 2609SOL     OW 7863   3.049   3.654   3.478
 2609SOL    HW1 7864   3.073   3.714   3.402
 2609SOL    HW2 7865   3.056   3.559   3.448
 2610SOL     OW 7866   2.179   2.113   3.663
 2610SOL    HW1 7867   2.250   2.184   3.669
 2610SOL    HW2 7868   2.091   2.152   3.691
 2611SOL     OW 7869   3.328   3.279   2.815
 2611SOL    HW1 7870   3.269   3.285   2.895
 2611SOL    HW2 7871   3.313   3.191   2.769
 2612SOL     OW 7872   3.529   3.576   2.434
 2612SOL    HW1 7873   3.488   3.553   2.346
 2612SOL    HW2 7874   3.511   3.502   2.499
 2613SOL     OW 7875   3.143   2.207   2.806
 2613SOL    HW1 7876   3.057   2.157   2.793
 2613SOL    HW2 7877   3.205   2.153   2.862
 2614SOL     OW 7878   3.438   3.524   2.169
 2614SOL    HW1 7879   3.527   3.570   2.172
 2614SOL    HW2 7880   3.417   3.500   2.074
 2615SOL     OW 7881   2.669   2.467   3.327
 2615SOL    HW1 7882   2.622   2.464   3.416
 2615SOL    HW2 7883   2.618   2.412   3.261
 2616SOL     OW 7884   3.256   2.331   3.536
 2616SOL    HW1 7885   3.236   2.374   3.624
 2616SOL    HW2 7886   3.334   2.269   3.545
 2617SOL     OW 7887   2.835   2.752   3.434
 2617SOL    HW1 7888   2.881   2.668   3.405
 2617SOL    HW2 7889   2.779   2.786   3.359
 2618SOL     OW 7890   2.853   2.272   3.104
 2618SOL    HW1 7891   2.776   2.306   3.158
 2618SOL    HW2 7892   2.819   2.221   3.025
 2619SOL     OW 7893   2.903   2.563   2.291
 2619SOL    HW1 7894   2.929   2.559   2.387
 2619SOL    HW2 7895   2.818   2.512   2.277
 2620SOL     OW 7896   1.938   2.673   2.651
 2620SOL    HW1 7897   2.037   2.661   2.660
 2620SOL    HW2 7898   1.914   2.768   2.672
 2621SOL     OW 7899   1.992   3.683   3.433
 2621SOL    HW1 7900   1.982   3.668   3.532
 2621SOL    HW2 7901   1.906   3.719   3.397
 2622SOL     OW 7902   2.727   2.210   2.057
 2622SOL    HW1 7903   2.786   2.273   2.008
 2622SOL    HW2 7904   2.746   2.116   2.028
 2623SOL     OW 7905   3.581   2.447   3.693
 2623SOL    HW1 7906   3.555   2.536   3.657
 2623SOL    HW2 7907   3.579   2.379   3.620
 2624SOL     OW 7908   3.224   3.006   2.407
 2624SOL    HW1 7909   3.307   2.977   2.359
 2624SOL    HW2 7910   3.175   3.073   2.351
 2625SOL     OW 7911   2.412   2.058   2.747
 2625SOL    HW1 7912   2.407   2.053   2.847
 2625SOL    HW2 7913   2.414   2.154   2.718
 2626SOL     OW 7914   2.870   3.318   2.339
 2626SOL    HW1 7915   2.824   3.390   2.287
 2626SOL    HW2 7916   2.866   3.338   2.437
 2627SOL     OW 7917   2.213   3.663   2.715
 2627SOL    HW1 7918   2.263   3.577   2.721
 2627SOL    HW2 7919   2.278   3.740   2.712
 2628SOL     OW 7920   3.657   2.928   2.735
 2628SOL    HW1 7921   3.595   2.913   2.659
 2628SOL    HW2 7922   3.605   2.939   2.820
 2629SOL     OW 7923   3.089   3.412   3.368
 2629SOL    HW1 7924   3.095   3.335   3.432
 2629SOL    HW2 7925   3.037   3.386   3.288
 2630SOL     OW 7926   2.183   2.805   2.104
 2630SOL    HW1 7927   2.265   2.844   2.062
 2630SOL    HW2 7928   2.156   2.723   2.055
 2631SOL     OW 7929   2.323   3.128   3.589
 2631SOL    HW1 7930   2.273   3.129   3.503
 2631SOL    HW2 7931   2.260   3.110   3.665
 2632SOL     OW 7932   2.973   3.638   2.099
 2632SOL    HW1 7933   2.913   3.576   2.149
 2632SOL    HW2 7934   3.004   3.594   2.014
 2633SOL     OW 7935   2.064   2.147   3.360
 2633SOL    HW1 7936   1.984   2.207   3.347
 2633SOL    HW2 7937   2.054   2.098   3.446
 2634SOL     OW 7938   3.494   3.239   1.943
 2634SOL    HW1 7939   3.462   3.333   1.933
 2634SOL    HW2 7940   3.418   3.176   1.931
 2635SOL     OW 7941   2.326   3.605   2.185
 2635SOL    HW1 7942   2.359   3.644   2.271
 2635SOL    HW2 7943   2.402   3.598   2.120
 2636SOL     OW 7944   3.262   1.969   2.288
 2636SOL    HW1 7945   3.238   1.932   2.198
 2636SOL    HW2 7946   3.361   1.985   2.292
 2637SOL     OW 7947   2.111   3.647   3.103
 2637SOL    HW1 7948   2.168   3.582   3.153
 2637SOL    HW2 7949   2.095   3.614   3.010
 2638SOL     OW 7950   2.802   3.560   2.766
 2638SOL    HW1 7951   2.882   3.503   2.787
 2638SOL    HW2 7952   2.753   3.520   2.689
 2639SOL     OW 7953   3.409   2.084   3.591
 2639SOL    HW1 7954   3.404   2.121   3.683
 2639SOL    HW2 7955   3.337   2.015   3.579
 2640SOL     OW 7956   2.476   1.984   1.979
 2640SOL    HW1 7957   2.574   1.962   1.986
 2640SOL    HW2 7958   2.445   1.967   1.886
 2641SOL     OW 7959   2.643   2.126   3.611
 2641SOL    HW1 7960   2.710   2.065   3.654
 2641SOL    HW2 7961   2.570   2.145   3.676
 2642SOL     OW 7962   2.750   3.376   3.057
 2642SOL    HW1 7963   2.727   3.351   2.963
 2642SOL    HW2 7964   2.811   3.307   3.096
 2643SOL     OW 7965   3.213   2.452   3.295
 2643SOL    HW1 7966   3.241   2.409   3.380
 2643SOL    HW2 7967   3.238   2.548   3.296
 2644SOL     OW 7968   2.665   3.264   2.786
 2644SOL    HW1 7969   2.755   3.278   2.744
 2644SOL    HW2 7970   2.594   3.266   2.715
 2645SOL     OW 7971   2.784   2.365   2.761
 2645SOL    HW1 7972   2.759   2.356   2.665
 2645SOL    HW2 7973   2.832   2.283   2.792
 2646SOL     OW 7974   2.401   1.926   2.374
 2646SOL    HW1 7975   2.320   1.927   2.432
 2646SOL    HW2 7976   2.404   2.009   2.319
 2647SOL     OW 7977   3.296   3.050   1.903
 2647SOL    HW1 7978   3.328   2.974   1.960
 2647SOL    HW2 7979   3.204   3.077   1.933
 2648SOL     OW 7980   2.159   1.897   2.033
 2648SOL    HW1 7981   2.208   1.981   2.012
 2648SOL    HW2 7982   2.221   1.832   2.078
 2649SOL     OW 7983   2.797   2.098   2.342
 2649SOL    HW1 7984   2.749   2.139   2.264
 2649SOL    HW2 7985   2.896   2.096   2.323
 2650SOL     OW 7986   2.938   2.545   3.326
 2650SOL    HW1 7987   2.858   2.484   3.329
 2650SOL    HW2 7988   3.019   2.492   3.302
 2651SOL     OW 7989   3.089   3.432   2.655
 2651SOL    HW1 7990   3.110   3.506   2.590
 2651SOL    HW2 7991   3.157   3.432   2.728
 2652SOL     OW 7992   2.321   3.014   2.603
 2652SOL    HW1 7993   2.250   2.987   2.668
 2652SOL    HW2 7994   2.295   2.986   2.510
 2653SOL     OW 7995   3.133   3.659   2.453
 2653SOL    HW1 7996   3.177   3.723   2.389
 2653SOL    HW2 7997   3.083   3.711   2.523
 2654SOL     OW 7998   2.894   2.411   1.878
 2654SOL    HW1 7999   2.853   2.493   1.839
 2654SOL    HW2 8000   2.958   2.437   1.951
 2655SOL     OW 8001   1.940   2.418   3.248
 2655SOL    HW1 8002   2.032   2.417   3.207
 2655SOL    HW2 8003   1.934   2.492   3.315
 2656SOL     OW 8004   2.423   2.084   3.009
 2656SOL    HW1 8005   2.461   2.000   3.046
 2656SOL    HW2 8006   2.335   2.103   3.053
 2657SOL     OW 8007   2.728   2.316   2.504
 2657SOL    HW1 8008   2.696   2.388   2.442
 2657SOL    HW2 8009   2.752   2.235   2.451
 2658SOL     OW 8010   2.879   1.901   2.615
 2658SOL    HW1 8011   2.807   1.906   2.546
 2658SOL    HW2 8012   2.855   1.832   2.684
 2659SOL     OW 8013   3.291   3.035   2.729
 2659SOL    HW1 8014   3.236   2.951   2.722
 2659SOL    HW2 8015   3.317   3.064   2.637
 2660SOL     OW 8016   3.328   2.452   2.854
 2660SOL    HW1 8017   3.298   2.357   2.861
 2660SOL    HW2 8018   3.401   2.468   2.920
 2661SOL     OW 8019   3.719   2.695   2.239
 2661SOL    HW1 8020   3.761   2.631   2.303
 2661SOL    HW2 8021   3.681   2.644   2.161
 2662SOL     OW 8022   2.350   3.247   2.036
 2662SOL    HW1 8023   2.263   3.232   2.083
 2662SOL    HW2 8024   2.333   3.273   1.941
 2663SOL     OW 8025   3.526   3.142   2.519
 2663SOL    HW1 8026   3.625   3.150   2.533
 2663SOL    HW2 8027   3.481   3.226   2.550
 2664SOL     OW 8028   3.252   2.437   1.940
 2664SOL    HW1 8029   3.198   2.416   2.021
 2664SOL    HW2 8030   3.343   2.396   1.949
 2665SOL     OW 8031   2.389   2.118   2.190
 2665SOL    HW1 8032   2.416   2.059   2.115
 2665SOL    HW2 8033   2.389   2.213   2.159
 2666SOL     OW 8034   3.616   3.085   3.450
 2666SOL    HW1 8035   3.707   3.046   3.437
 2666SOL    HW2 8036   3.624   3.181   3.474
 2667SOL     OW 8037   2.926   3.209   3.202
 2667SOL    HW1 8038   2.846   3.186   3.257
 2667SOL    HW2 8039   3.009   3.183   3.251
 2668SOL     OW 8040   3.454   3.491   3.487
 2668SOL    HW1 8041   3.481   3.525   3.397
 2668SOL    HW2 8042   3.533   3.453   3.533
 2669SOL     OW 8043   2.973   3.057   2.962
 2669SOL    HW1 8044   2.933   3.101   3.043
 2669SOL    HW2 8045   2.932   3.094   2.879
 2670SOL     OW 8046   3.500   2.961   2.941
 2670SOL    HW1 8047   3.505   3.042   3.000
 2670SOL    HW2 8048   3.414   2.963   2.890
 2671SOL     OW 8049   2.777   1.951   3.264
 2671SOL    HW1 8050   2.802   1.931   3.169
 2671SOL    HW2 8051   2.849   2.007   3.306
 2672SOL     OW 8052   2.842   2.978   3.581
 2672SOL    HW1 8053   2.743   2.984   3.591
 2672SOL    HW2 8054   2.865   2.898   3.525
 2673SOL     OW 8055   2.567   2.912   2.230
 2673SOL    HW1 8056   2.553   2.919   2.329
 2673SOL    HW2 8057   2.651   2.861   2.212
 2674SOL     OW 8058   2.272   2.675   3.113
 2674SOL    HW1 8059   2.358   2.687   3.163
 2674SOL    HW2 8060   2.230   2.588   3.140
 2675SOL     OW 8061   3.136   2.248   3.124
 2675SOL    HW1 8062   3.157   2.322   3.188
 2675SOL    HW2 8063   3.047   2.265   3.081
 2676SOL     OW 8064   1.926   3.426   3.193
 2676SOL    HW1 8065   1.880   3.508   3.159
 2676SOL    HW2 8066   2.024   3.445   3.202
 2677SOL     OW 8067   3.114   3.210   2.250
 2677SOL    HW1 8068   3.164   3.287   2.290
 2677SOL    HW2 8069   3.019   3.212   2.282
 2678SOL     OW 8070   3.134   3.307   3.004
 2678SOL    HW1 8071   3.181   3.320   3.091
 2678SOL    HW2 8072   3.068   3.233   3.013
 2679SOL     OW 8073   3.444   2.501   2.334
 2679SOL    HW1 8074   3.413   2.562   2.407
 2679SOL    HW2 8075   3.494   2.553   2.265
 2680SOL     OW 8076   2.216   3.372   3.191
 2680SOL    HW1 8077   2.195   3.328   3.104
 2680SOL    HW2 8078   2.313   3.398   3.194
 2681SOL     OW 8079   2.264   2.613   3.460
 2681SOL    HW1 8080   2.332   2.668   3.413
 2681SOL    HW2 8081   2.304   2.525   3.487
 2682SOL     OW 8082   3.449   2.641   3.532
 2682SOL    HW1 8083   3.357   2.679   3.527
 2682SOL    HW2 8084   3.509   2.688   3.467
 2683SOL     OW 8085   2.875   1.967   3.632
 2683SOL    HW1 8086   2.881   2.052   3.580
 2683SOL    HW2 8087   2.907   1.891   3.575
 2684SOL     OW 8088   2.366   1.912   3.602
 2684SOL    HW1 8089   2.324   1.855   3.532
 2684SOL    HW2 8090   2.300   1.981   3.634
 2685SOL     OW 8091   2.435   2.732   2.891
 2685SOL    HW1 8092   2.479   2.821   2.882
 2685SOL    HW2 8093   2.372   2.732   2.968
 2686SOL     OW 8094   3.071   2.387   2.137
 2686SOL    HW1 8095   3.084   2.303   2.191
 2686SOL    HW2 8096   3.042   2.461   2.197
 2687SOL     OW 8097   2.169   2.075   3.093
 2687SOL    HW1 8098   2.146   2.112   3.183
 2687SOL    HW2 8099   2.139   1.980   3.087
 2688SOL     OW 8100   1.899   3.172   3.144
 2688SOL    HW1 8101   1.952   3.123   3.212
 2688SOL    HW2 8102   1.921   3.270   3.149
 2689SOL     OW 8103   2.594   2.496   2.926
 2689SOL    HW1 8104   2.653   2.470   2.850
 2689SOL    HW2 8105   2.566   2.592   2.915
 2690SOL     OW 8106   3.590   2.797   3.716
 2690SOL    HW1 8107   3.544   2.790   3.627
 2690SOL    HW2 8108   3.528   2.841   3.782
 2691SOL     OW 8109   2.169   1.925   2.480
 2691SOL    HW1 8110   2.158   2.019   2.513
 2691SOL    HW2 8111   2.164   1.862   2.557
 2692SOL     OW 8112   3.484   2.229   2.236
 2692SOL    HW1 8113   3.486   2.153   2.300
 2692SOL    HW2 8114   3.436   2.306   2.276
 2693SOL     OW 8115   2.842   3.435   3.562
 2693SOL    HW1 8116   2.822   3.479   3.474
 2693SOL    HW2 8117   2.881   3.344   3.546
 2694SOL     OW 8118   3.721   3.380   3.467
 2694SOL    HW1 8119   3.735   3.407   3.372
 2694SOL    HW2 8120   3.804   3.402   3.520
 2695SOL     OW 8121   2.212   2.760   3.666
 2695SOL    HW1 8122   2.288   2.804   3.714
 2695SOL    HW2 8123   2.247   2.713   3.584
 2696SOL     OW 8124   3.402   2.136   1.987
 2696SOL    HW1 8125   3.341   2.061   2.010
 2696SOL    HW2 8126   3.424   2.188   2.070
 2697SOL     OW 8127   3.165   2.700   1.904
 2697SOL    HW1 8128   3.199   2.607   1.919
 2697SOL    HW2 8129   3.183   2.727   1.809
 2698SOL     OW 8130   2.930   3.195   2.711
 2698SOL    HW1 8131   2.937   3.111   2.656
 2698SOL    HW2 8132   2.992   3.264   2.675
 2699SOL     OW 8133   2.181   2.672   2.811
 2699SOL    HW1 8134   2.274   2.708   2.816
 2699SOL    HW2 8135   2.175   2.587   2.863
 2700SOL     OW 8136   2.201   2.371   2.868
 2700SOL    HW1 8137   2.149   2.288   2.851
 2700SOL    HW2 8138   2.278   2.376   2.804
 2701SOL     OW 8139   3.000   2.242   3.540
 2701SOL    HW1 8140   2.955   2.305   3.604
 2701SOL    HW2 8141   3.093   2.273   3.523
 2702SOL     OW 8142   3.022   2.069   3.339
 2702SOL    HW1 8143   3.022   2.133   3.416
 2702SOL    HW2 8144   3.050   2.117   3.256
 2703SOL     OW 8145   1.870   3.188   2.062
 2703SOL    HW1 8146   1.777   3.209   2.031
 2703SOL    HW2 8147   1.880   3.089   2.075
 2704SOL     OW 8148   1.950   3.663   2.789
 2704SOL    HW1 8149   1.908   3.577   2.762
 2704SOL    HW2 8150   2.044   3.666   2.755
 2705SOL     OW 8151   2.366   3.430   2.772
 2705SOL    HW1 8152   2.432   3.504   2.781
 2705SOL    HW2 8153   2.410   3.351   2.730
 2706SOL     OW 8154   1.902   2.406   2.976
 2706SOL    HW1 8155   1.987   2.373   2.935
 2706SOL    HW2 8156   1.915   2.421   3.074
 2707SOL     OW 8157   2.051   2.382   3.584
 2707SOL    HW1 8158   2.110   2.342   3.514
 2707SOL    HW2 8159   1.993   2.453   3.543
 2708SOL     OW 8160   3.231   2.812   3.522
 2708SOL    HW1 8161   3.270   2.901   3.542
 2708SOL    HW2 8162   3.241   2.792   3.425
 2709SOL     OW 8163   3.519   2.466   3.068
 2709SOL    HW1 8164   3.481   2.397   3.130
 2709SOL    HW2 8165   3.601   2.430   3.024
 2710SOL     OW 8166   2.114   3.426   3.606
 2710SOL    HW1 8167   2.084   3.483   3.682
 2710SOL    HW2 8168   2.107   3.329   3.632
 2711SOL     OW 8169   2.533   2.326   3.131
 2711SOL    HW1 8170   2.499   2.237   3.101
 2711SOL    HW2 8171   2.559   2.380   3.051
 2712SOL     OW 8172   2.792   3.540   3.327
 2712SOL    HW1 8173   2.768   3.522   3.232
 2712SOL    HW2 8174   2.822   3.634   3.337
 2713SOL     OW 8175   2.335   2.362   2.053
 2713SOL    HW1 8176   2.396   2.442   2.057
 2713SOL    HW2 8177   2.240   2.393   2.060
 2714SOL     OW 8178   2.021   2.999   3.328
 2714SOL    HW1 8179   2.043   2.938   3.404
 2714SOL    HW2 8180   2.031   2.950   3.242
 2715SOL     OW 8181   3.209   2.921   3.096
 2715SOL    HW1 8182   3.233   2.858   3.022
 2715SOL    HW2 8183   3.119   2.961   3.078
 2716SOL     OW 8184   3.164   2.717   2.171
 2716SOL    HW1 8185   3.078   2.686   2.213
 2716SOL    HW2 8186   3.160   2.703   2.072
 2717SOL     OW 8187   3.621   3.609   3.016
 2717SOL    HW1 8188   3.682   3.639   2.943
 2717SOL    HW2 8189   3.583   3.520   2.994
 2718SOL     OW 8190   3.114   3.593   2.990
 2718SOL    HW1 8191   3.198   3.598   2.936
 2718SOL    HW2 8192   3.091   3.497   3.008
 2719SOL     OW 8193   1.945   3.120   2.884
 2719SOL    HW1 8194   1.940   3.119   2.984
 2719SOL    HW2 8195   1.862   3.079   2.846
 2720SOL     OW 8196   2.550   3.524   3.578
 2720SOL    HW1 8197   2.494   3.605   3.587
 2720SOL    HW2 8198   2.602   3.528   3.492
 2721SOL     OW 8199   3.588   1.997   2.385
 2721SOL    HW1 8200   3.661   1.980   2.318
 2721SOL    HW2 8201   3.557   1.910   2.423
 2722SOL     OW 8202   3.250   3.435   2.339
 2722SOL    HW1 8203   3.317   3.447   2.265
 2722SOL    HW2 8204   3.210   3.524   2.362
 2723SOL     OW 8205   1.992   3.656   3.713
 2723SOL    HW1 8206   1.951   3.582   3.766
 2723SOL    HW2 8207   2.056   3.707   3.771
 2724SOL     OW 8208   3.142   2.789   2.534
 2724SOL    HW1 8209   3.202   2.708   2.536
 2724SOL    HW2 8210   3.182   2.858   2.474
 2725SOL     OW 8211   2.692   3.135   3.284
 2725SOL    HW1 8212   2.687   3.168   3.379
 2725SOL    HW2 8213   2.606   3.154   3.238
 2726SOL     OW 8214   2.534   3.478   2.016
 2726SOL    HW1 8215   2.543   3.488   1.917
 2726SOL    HW2 8216   2.494   3.389   2.037
 2727SOL     OW 8217   3.512   3.582   3.256
 2727SOL    HW1 8218   3.565   3.592   3.172
 2727SOL    HW2 8219   3.485   3.672   3.290
 2728SOL     OW 8220   3.703   2.037   2.825
 2728SOL    HW1 8221   3.742   1.952   2.789
 2728SOL    HW2 8222   3.605   2.039   2.806
 2729SOL     OW 8223   2.125   2.188   2.582
 2729SOL    HW1 8224   2.046   2.239   2.548
 2729SOL    HW2 8225   2.116   2.173   2.680
 2730SOL     OW 8226   3.056   3.474   1.893
 2730SOL    HW1 8227   3.062   3.381   1.930
 2730SOL    HW2 8228   2.997   3.474   1.813
 2731SOL     OW 8229   2.778   2.772   2.153
 2731SOL    HW1 8230   2.841   2.810   2.085
 2731SOL    HW2 8231   2.818   2.689   2.192
 2732SOL     OW 8232   3.366   3.469   1.906
 2732SOL    HW1 8233   3.274   3.506   1.913
 2732SOL    HW2 8234   3.404   3.489   1.816
 2733SOL     OW 8235   2.234   3.150   3.352
 2733SOL    HW1 8236   2.221   3.243   3.318
 2733SOL    HW2 8237   2.150   3.098   3.339
 2734SOL     OW 8238   3.476   3.154   3.151
 2734SOL    HW1 8239   3.536   3.157   3.231
 2734SOL    HW2 8240   3.401   3.218   3.164
 2735SOL     OW 8241   2.901   2.960   2.558
 2735SOL    HW1 8242   2.831   2.913   2.612
 2735SOL    HW2 8243   2.960   2.892   2.515
 2736SOL     OW 8244   2.876   2.098   2.833
 2736SOL    HW1 8245   2.868   2.062   2.740
 2736SOL    HW2 8246   2.874   2.022   2.898
 2737SOL     OW 8247   2.452   3.349   2.353
 2737SOL    HW1 8248   2.494   3.291   2.283
 2737SOL    HW2 8249   2.408   3.428   2.309
 2738SOL     OW 8250   3.571   2.247   3.243
 2738SOL    HW1 8251   3.644   2.316   3.247
 2738SOL    HW2 8252   3.599   2.172   3.184
 2739SOL     OW 8253   2.117   3.210   2.152
 2739SOL    HW1 8254   2.021   3.211   2.125
 2739SOL    HW2 8255   2.129   3.263   2.236
 2740SOL     OW 8256   1.967   2.875   3.588
 2740SOL    HW1 8257   1.890   2.842   3.642
 2740SOL    HW2 8258   2.052   2.845   3.630
 2741SOL     OW 8259   2.534   2.065   3.351
 2741SOL    HW1 8260   2.624   2.049   3.311
 2741SOL    HW2 8261   2.542   2.070   3.450
 2742SOL     OW 8262   1.937   2.207   1.895
 2742SOL    HW1 8263   1.845   2.179   1.866
 2742SOL    HW2 8264   1.968   2.284   1.839
 2743SOL     OW 8265   3.302   2.718   3.260
 2743SOL    HW1 8266   3.245   2.770   3.197
 2743SOL    HW2 8267   3.398   2.730   3.236
 2744SOL     OW 8268   1.934   2.028   2.180
 2744SOL    HW1 8269   1.917   2.111   2.126
 2744SOL    HW2 8270   2.024   1.991   2.158
 2745SOL     OW 8271   3.045   3.197   1.981
 2745SOL    HW1 8272   2.946   3.186   1.983
 2745SOL    HW2 8273   3.079   3.212   2.074
 2746SOL     OW 8274   2.475   2.704   3.293
 2746SOL    HW1 8275   2.531   2.785   3.276
 2746SOL    HW2 8276   2.534   2.624   3.296
 2747SOL     OW 8277   3.355   3.629   2.821
 2747SOL    HW1 8278   3.388   3.693   2.752
 2747SOL    HW2 8279   3.421   3.623   2.896
 2748SOL     OW 8280   2.578   2.427   3.570
 2748SOL    HW1 8281   2.597   2.492   3.644
 2748SOL    HW2 8282   2.638   2.347   3.579
 2749SOL     OW 8283   3.312   3.082   3.495
 2749SOL    HW1 8284   3.303   3.072   3.594
 2749SOL    HW2 8285   3.408   3.075   3.469
 2750SOL     OW 8286   2.252   3.603   3.422
 2750SOL    HW1 8287   2.161   3.644   3.420
 2750SOL    HW2 8288   2.245   3.509   3.454
 2751SOL     OW 8289   3.536   2.745   3.116
 2751SOL    HW1 8290   3.509   2.656   3.079
 2751SOL    HW2 8291   3.537   2.813   3.043
 2752SOL     OW 8292   3.087   2.187   2.311
 2752SOL    HW1 8293   3.152   2.113   2.300
 2752SOL    HW2 8294   3.107   2.237   2.395
 2753SOL     OW 8295   3.639   2.204   3.504
 2753SOL    HW1 8296   3.622   2.235   3.410
 2753SOL    HW2 8297   3.555   2.167   3.542
 2754SOL     OW 8298   3.592   2.796   3.379
 2754SOL    HW1 8299   3.630   2.887   3.394
 2754SOL    HW2 8300   3.584   2.779   3.280
 2755SOL     OW 8301   2.721   3.236   1.878
 2755SOL    HW1 8302   2.675   3.251   1.966
 2755SOL    HW2 8303   2.765   3.321   1.848
 2756SOL     OW 8304   2.523   3.652   2.815
 2756SOL    HW1 8305   2.477   3.740   2.802
 2756SOL    HW2 8306   2.622   3.664   2.808
 2757SOL     OW 8307   2.945   2.846   1.949
 2757SOL    HW1 8308   2.922   2.899   1.867
 2757SOL    HW2 8309   3.026   2.790   1.930
 2758SOL     OW 8310   3.723   3.431   2.713
 2758SOL    HW1 8311   3.652   3.419   2.643
 2758SOL    HW2 8312   3.724   3.352   2.773
 2759SOL     OW 8313   2.083   3.176   3.706
 2759SOL    HW1 8314   2.018   3.103   3.685
 2759SOL    HW2 8315   2.087   3.190   3.804
 2760SOL     OW 8316   1.941   3.102   2.515
 2760SOL    HW1 8317   1.940   3.055   2.603
 2760SOL    HW2 8318   2.023   3.074   2.464
 2761SOL     OW 8319   2.534   3.253   3.486
 2761SOL    HW1 8320   2.456   3.203   3.524
 2761SOL    HW2 8321   2.531   3.348   3.517
 2762SOL     OW 8322   3.686   2.054   3.089
 2762SOL    HW1 8323   3.682   1.964   3.133
 2762SOL    HW2 8324   3.689   2.043   2.990
 2763SOL     OW 8325   2.290   2.286   2.382
 2763SOL    HW1 8326   2.320   2.214   2.320
 2763SOL    HW2 8327   2.251   2.246   2.465
 2764SOL     OW 8328   3.567   3.349   2.966
 2764SOL    HW1 8329   3.474   3.324   2.939
 2764SOL    HW2 8330   3.593   3.299   3.048
 2765SOL     OW 8331   2.179   2.409   3.142
 2765SOL    HW1 8332   2.217   2.350   3.214
 2765SOL    HW2 8333   2.219   2.383   3.054
 2766SOL     OW 8334   2.674   3.448   2.549
 2766SOL    HW1 8335   2.706   3.458   2.455
 2766SOL    HW2 8336   2.595   3.386   2.551
 2767SOL     OW 8337   3.286   2.076   2.974
 2767SOL    HW1 8338   3.338   2.011   3.029
 2767SOL    HW2 8339   3.237   2.139   3.035
 2768SOL     OW 8340   2.863   1.896   3.016
 2768SOL    HW1 8341   2.800   1.824   2.985
 2768SOL    HW2 8342   2.956   1.860   3.016
 2769SOL     OW 8343   2.632   3.192   2.163
 2769SOL    HW1 8344   2.586   3.105   2.180
 2769SOL    HW2 8345   2.723   3.189   2.204
 2770SOL     OW 8346   2.480   3.429   3.146
 2770SOL    HW1 8347   2.475   3.511   3.203
 2770SOL    HW2 8348   2.569   3.426   3.101
 2771SOL     OW 8349   3.214   1.914   2.030
 2771SOL    HW1 8350   3.249   1.873   1.946
 2771SOL    HW2 8351   3.124   1.876   2.050
 2772SOL     OW 8352   3.162   2.315   2.553
 2772SOL    HW1 8353   3.103   2.395   2.557
 2772SOL    HW2 8354   3.177   2.280   2.646
 2773SOL     OW 8355   3.455   2.083   2.744
 2773SOL    HW1 8356   3.371   2.082   2.798
 2773SOL    HW2 8357   3.457   2.166   2.688
 2774SOL     OW 8358   1.901   2.939   2.162
 2774SOL    HW1 8359   2.000   2.928   2.153
 2774SOL    HW2 8360   1.861   2.853   2.194
 2775SOL     OW 8361   2.737   3.508   2.199
 2775SOL    HW1 8362   2.660   3.473   2.145
 2775SOL    HW2 8363   2.705   3.579   2.261
 2776SOL     OW 8364   2.092   2.490   3.837
 2776SOL    HW1 8365   1.999   2.488   3.874
 2776SOL    HW2 8366   2.093   2.451   3.745
 2777SOL     OW 8367   2.087   2.137   4.720
 2777SOL    HW1 8368   2.122   2.120   4.812
 2777SOL    HW2 8369   1.999   2.092   4.708
 2778SOL     OW 8370   1.881   2.230   4.371
 2778SOL    HW1 8371   1.799   2.273   4.410
 2778SOL    HW2 8372   1.853   2.157   4.308
 2779SOL     OW 8373   2.431   3.137   4.889
 2779SOL    HW1 8374   2.338   3.130   4.852
 2779SOL    HW2 8375   2.442   3.226   4.933
 2780SOL     OW 8376   3.417   3.373   4.427
 2780SOL    HW1 8377   3.360   3.357   4.508
 2780SOL    HW2 8378   3.358   3.383   4.347
 2781SOL     OW 8379   2.997   2.565   4.441
 2781SOL    HW1 8380   3.054   2.643   4.416
 2781SOL    HW2 8381   2.937   2.591   4.517
 2782SOL     OW 8382   3.617   2.469   3.955
 2782SOL    HW1 8383   3.605   2.456   3.856
 2782SOL    HW2 8384   3.587   2.388   4.004
 2783SOL     OW 8385   2.630   3.006   4.747
 2783SOL    HW1 8386   2.552   3.023   4.807
 2783SOL    HW2 8387   2.664   3.093   4.711
 2784SOL     OW 8388   2.547   2.874   4.389
 2784SOL    HW1 8389   2.616   2.858   4.459
 2784SOL    HW2 8390   2.474   2.931   4.427
 2785SOL     OW 8391   2.548   3.023   5.527
 2785SOL    HW1 8392   2.608   3.102   5.541
 2785SOL    HW2 8393   2.462   3.054   5.486
 2786SOL     OW 8394   2.197   3.297   4.785
 2786SOL    HW1 8395   2.119   3.266   4.732
 2786SOL    HW2 8396   2.255   3.355   4.728
 2787SOL     OW 8397   3.322   3.367   5.063
 2787SOL    HW1 8398   3.346   3.461   5.089
 2787SOL    HW2 8399   3.306   3.313   5.145
 2788SOL     OW 8400   2.300   2.254   5.223
 2788SOL    HW1 8401   2.382   2.198   5.232
 2788SOL    HW2 8402   2.219   2.196   5.227
 2789SOL     OW 8403   3.465   2.309   4.461
 2789SOL    HW1 8404   3.391   2.355   4.411
 2789SOL    HW2 8405   3.516   2.377   4.514
 2790SOL     OW 8406   2.093   3.575   4.207
 2790SOL    HW1 8407   2.127   3.652   4.261
 2790SOL    HW2 8408   2.137   3.575   4.117
 2791SOL     OW 8409   2.092   3.296   4.262
 2791SOL    HW1 8410   2.066   3.392   4.262
 2791SOL    HW2 8411   2.021   3.242   4.307
 2792SOL     OW 8412   2.102   2.953   4.610
 2792SOL    HW1 8413   2.116   2.869   4.662
 2792SOL    HW2 8414   2.047   3.017   4.665
 2793SOL     OW 8415   2.482   3.648   5.163
 2793SOL    HW1 8416   2.390   3.631   5.198
 2793SOL    HW2 8417   2.510   3.740   5.189
 2794SOL     OW 8418   2.468   2.826   3.847
 2794SOL    HW1 8419   2.475   2.910   3.793
 2794SOL    HW2 8420   2.514   2.839   3.935
 2795SOL     OW 8421   3.456   1.976   5.204
 2795SOL    HW1 8422   3.438   2.043   5.132
 2795SOL    HW2 8423   3.453   2.022   5.293
 2796SOL     OW 8424   1.984   2.505   4.287
 2796SOL    HW1 8425   1.939   2.417   4.304
 2796SOL    HW2 8426   1.983   2.559   4.371
 2797SOL     OW 8427   3.704   3.629   4.083
 2797SOL    HW1 8428   3.758   3.600   4.163
 2797SOL    HW2 8429   3.734   3.719   4.054
 2798SOL     OW 8430   1.889   3.458   3.841
 2798SOL    HW1 8431   1.870   3.362   3.862
 2798SOL    HW2 8432   1.856   3.516   3.916
 2799SOL     OW 8433   3.551   2.784   4.336
 2799SOL    HW1 8434   3.646   2.755   4.344
 2799SOL    HW2 8435   3.543   2.849   4.261
 2800SOL     OW 8436   3.503   2.970   4.156
 2800SOL    HW1 8437   3.589   2.972   4.104
 2800SOL    HW2 8438   3.517   3.017   4.244
 2801SOL     OW 8439   1.975   2.599   5.321
 2801SOL    HW1 8440   2.063   2.586   5.366
 2801SOL    HW2 8441   1.962   2.696   5.299
 2802SOL     OW 8442   2.475   3.227   4.450
 2802SOL    HW1 8443   2.426   3.140   4.459
 2802SOL    HW2 8444   2.452   3.270   4.363
 2803SOL     OW 8445   3.155   3.090   5.147
 2803SOL    HW1 8446   3.192   3.017   5.089
 2803SOL    HW2 8447   3.207   3.095   5.232
 2804SOL     OW 8448   2.671   1.866   4.226
 2804SOL    HW1 8449   2.711   1.957   4.217
 2804SOL    HW2 8450   2.571   1.874   4.232
 2805SOL     OW 8451   2.059   2.838   4.988
 2805SOL    HW1 8452   2.148   2.793   4.974
 2805SOL    HW2 8453   1.986   2.773   4.969
 2806SOL     OW 8454   3.387   2.861   3.914
 2806SOL    HW1 8455   3.324   2.785   3.927
 2806SOL    HW2 8456   3.435   2.879   4.000
 2807SOL     OW 8457   3.328   3.279   4.677
 2807SOL    HW1 8458   3.269   3.285   4.757
 2807SOL    HW2 8459   3.313   3.191   4.631
 2808SOL     OW 8460   3.529   3.576   4.296
 2808SOL    HW1 8461   3.488   3.553   4.208
 2808SOL    HW2 8462   3.511   3.502   4.361
 2809SOL     OW 8463   2.460   2.591   3.994
 2809SOL    HW1 8464   2.484   2.660   3.926
 2809SOL    HW2 8465   2.382   2.624   4.048
 2810SOL     OW 8466   3.143   2.207   4.668
 2810SOL    HW1 8467   3.057   2.157   4.655
 2810SOL    HW2 8468   3.205   2.153   4.724
 2811SOL     OW 8469   3.438   3.524   4.031
 2811SOL    HW1 8470   3.527   3.570   4.034
 2811SOL    HW2 8471   3.417   3.500   3.936
 2812SOL     OW 8472   2.669   2.467   5.189
 2812SOL    HW1 8473   2.622   2.464   5.278
 2812SOL    HW2 8474   2.618   2.412   5.123
 2813SOL     OW 8475   2.835   2.752   5.296
 2813SOL    HW1 8476   2.881   2.668   5.267
 2813SOL    HW2 8477   2.779   2.786   5.221
 2814SOL     OW 8478   2.853   2.272   4.966
 2814SOL    HW1 8479   2.776   2.306   5.020
 2814SOL    HW2 8480   2.819   2.221   4.887
 2815SOL     OW 8481   2.903   2.563   4.153
 2815SOL    HW1 8482   2.929   2.559   4.249
 2815SOL    HW2 8483   2.818   2.512   4.139
 2816SOL     OW 8484   1.938   2.673   4.513
 2816SOL    HW1 8485   2.037   2.661   4.522
 2816SOL    HW2 8486   1.914   2.768   4.534
 2817SOL     OW 8487   1.992   3.683   5.295
 2817SOL    HW1 8488   1.982   3.668   5.394
 2817SOL    HW2 8489   1.906   3.719   5.259
 2818SOL     OW 8490   2.727   2.210   3.919
 2818SOL    HW1 8491   2.786   2.273   3.870
 2818SOL    HW2 8492   2.746   2.116   3.890
 2819SOL     OW 8493   3.224   3.006   4.269
 2819SOL    HW1 8494   3.307   2.977   4.221
 2819SOL    HW2 8495   3.175   3.073   4.213
 2820SOL     OW 8496   2.412   2.058   4.609
 2820SOL    HW1 8497   2.407   2.053   4.709
 2820SOL    HW2 8498   2.414   2.154   4.580
 2821SOL     OW 8499   2.870   3.318   4.201
 2821SOL    HW1 8500   2.824   3.390   4.149
 2821SOL    HW2 8501   2.866   3.338   4.299
 2822SOL     OW 8502   2.213   3.663   4.577
 2822SOL    HW1 8503   2.263   3.577   4.583
 2822SOL    HW2 8504   2.278   3.740   4.574
 2823SOL     OW 8505   3.657   2.928   4.597
 2823SOL    HW1 8506   3.595   2.913   4.521
 2823SOL    HW2 8507   3.605   2.939   4.682
 2824SOL     OW 8508   2.183   2.805   3.966
 2824SOL    HW1 8509   2.265   2.844   3.924
 2824SOL    HW2 8510   2.156   2.723   3.917
 2825SOL     OW 8511   3.320   2.597   4.452
 2825SOL    HW1 8512   3.315   2.532   4.527
 2825SOL    HW2 8513   3.400   2.656   4.465
 2826SOL     OW 8514   2.973   3.638   3.961
 2826SOL    HW1 8515   2.913   3.576   4.011
 2826SOL    HW2 8516   3.004   3.594   3.876
 2827SOL     OW 8517   2.064   2.147   5.222
 2827SOL    HW1 8518   1.984   2.207   5.209
 2827SOL    HW2 8519   2.054   2.098   5.308
 2828SOL     OW 8520   3.494   3.239   3.805
 2828SOL    HW1 8521   3.462   3.333   3.795
 2828SOL    HW2 8522   3.418   3.176   3.793
 2829SOL     OW 8523   2.326   3.605   4.047
 2829SOL    HW1 8524   2.359   3.644   4.133
 2829SOL    HW2 8525   2.402   3.598   3.982
 2830SOL     OW 8526   3.262   1.969   4.150
 2830SOL    HW1 8527   3.238   1.932   4.060
 2830SOL    HW2 8528   3.361   1.985   4.154
 2831SOL     OW 8529   2.111   3.647   4.965
 2831SOL    HW1 8530   2.168   3.582   5.015
 2831SOL    HW2 8531   2.095   3.614   4.872
 2832SOL     OW 8532   2.802   3.560   4.628
 2832SOL    HW1 8533   2.882   3.503   4.649
 2832SOL    HW2 8534   2.753   3.520   4.551
 2833SOL     OW 8535   2.244   2.562   4.204
 2833SOL    HW1 8536   2.289   2.472   4.201
 2833SOL    HW2 8537   2.150   2.551   4.237
 2834SOL     OW 8538   2.476   1.984   3.841
 2834SOL    HW1 8539   2.574   1.962   3.848
 2834SOL    HW2 8540   2.445   1.967   3.748
 2835SOL     OW 8541   2.750   3.376   4.919
 2835SOL    HW1 8542   2.727   3.351   4.825
 2835SOL    HW2 8543   2.811   3.307   4.958
 2836SOL     OW 8544   3.213   2.452   5.157
 2836SOL    HW1 8545   3.241   2.409   5.242
 2836SOL    HW2 8546   3.238   2.548   5.158
 2837SOL     OW 8547   2.665   3.264   4.648
 2837SOL    HW1 8548   2.755   3.278   4.606
 2837SOL    HW2 8549   2.594   3.266   4.577
 2838SOL     OW 8550   2.784   2.365   4.623
 2838SOL    HW1 8551   2.759   2.356   4.527
 2838SOL    HW2 8552   2.832   2.283   4.654
 2839SOL     OW 8553   2.401   1.926   4.236
 2839SOL    HW1 8554   2.320   1.927   4.294
 2839SOL    HW2 8555   2.404   2.009   4.181
 2840SOL     OW 8556   3.296   3.050   3.765
 2840SOL    HW1 8557   3.328   2.974   3.822
 2840SOL    HW2 8558   3.204   3.077   3.795
 2841SOL     OW 8559   2.159   1.897   3.895
 2841SOL    HW1 8560   2.208   1.981   3.874
 2841SOL    HW2 8561   2.221   1.832   3.940
 2842SOL     OW 8562   2.797   2.098   4.204
 2842SOL    HW1 8563   2.749   2.139   4.126
 2842SOL    HW2 8564   2.896   2.096   4.185
 2843SOL     OW 8565   2.938   2.545   5.188
 2843SOL    HW1 8566   2.858   2.484   5.191
 2843SOL    HW2 8567   3.019   2.492   5.164
 2844SOL     OW 8568   3.089   3.432   4.517
 2844SOL    HW1 8569   3.110   3.506   4.452
 2844SOL    HW2 8570   3.157   3.432   4.590
 2845SOL     OW 8571   2.321   3.014   4.465
 2845SOL    HW1 8572   2.250   2.987   4.530
 2845SOL    HW2 8573   2.295   2.986   4.372
 2846SOL     OW 8574   3.133   3.659   4.315
 2846SOL    HW1 8575   3.177   3.723   4.251
 2846SOL    HW2 8576   3.083   3.711   4.385
 2847SOL     OW 8577   2.894   2.411   3.740
 2847SOL    HW1 8578   2.853   2.493   3.701
 2847SOL    HW2 8579   2.958   2.437   3.813
 2848SOL     OW 8580   1.940   2.418   5.110
 2848SOL    HW1 8581   2.032   2.417   5.069
 2848SOL    HW2 8582   1.934   2.492   5.177
 2849SOL     OW 8583   2.423   2.084   4.871
 2849SOL    HW1 8584   2.461   2.000   4.908
 2849SOL    HW2 8585   2.335   2.103   4.915
 2850SOL     OW 8586   2.728   2.316   4.366
 2850SOL    HW1 8587   2.696   2.388   4.304
 2850SOL    HW2 8588   2.752   2.235   4.313
 2851SOL     OW 8589   2.879   1.901   4.477
 2851SOL    HW1 8590   2.807   1.906   4.408
 2851SOL    HW2 8591   2.855   1.832   4.546
 2852SOL     OW 8592   3.291   3.035   4.591
 2852SOL    HW1 8593   3.236   2.951   4.584
 2852SOL    HW2 8594   3.317   3.064   4.499
 2853SOL     OW 8595   3.328   2.452   4.716
 2853SOL    HW1 8596   3.298   2.357   4.723
 2853SOL    HW2 8597   3.401   2.468   4.782
 2854SOL     OW 8598   3.719   2.695   4.101
 2854SOL    HW1 8599   3.761   2.631   4.165
 2854SOL    HW2 8600   3.681   2.644   4.023
 2855SOL     OW 8601   2.350   3.247   3.898
 2855SOL    HW1 8602   2.263   3.232   3.945
 2855SOL    HW2 8603   2.333   3.273   3.803
 2856SOL     OW 8604   3.526   3.142   4.381
 2856SOL    HW1 8605   3.625   3.150   4.395
 2856SOL    HW2 8606   3.481   3.226   4.412
 2857SOL     OW 8607   3.252   2.437   3.802
 2857SOL    HW1 8608   3.198   2.416   3.883
 2857SOL    HW2 8609   3.343   2.396   3.811
 2858SOL     OW 8610   2.389   2.118   4.052
 2858SOL    HW1 8611   2.416   2.059   3.977
 2858SOL    HW2 8612   2.389   2.213   4.021
 2859SOL     OW 8613   3.616   3.085   5.312
 2859SOL    HW1 8614   3.707   3.046   5.299
 2859SOL    HW2 8615   3.624   3.181   5.336
 2860SOL     OW 8616   2.926   3.209   5.064
 2860SOL    HW1 8617   2.846   3.186   5.119
 2860SOL    HW2 8618   3.009   3.183   5.113
 2861SOL     OW 8619   2.973   3.057   4.824
 2861SOL    HW1 8620   2.933   3.101   4.905
 2861SOL    HW2 8621   2.932   3.094   4.741
 2862SOL     OW 8622   3.500   2.961   4.803
 2862SOL    HW1 8623   3.505   3.042   4.862
 2862SOL    HW2 8624   3.414   2.963   4.752
 2863SOL     OW 8625   2.777   1.951   5.126
 2863SOL    HW1 8626   2.802   1.931   5.031
 2863SOL    HW2 8627   2.849   2.007   5.168
 2864SOL     OW 8628   2.567   2.912   4.092
 2864SOL    HW1 8629   2.553   2.919   4.191
 2864SOL    HW2 8630   2.651   2.861   4.074
 2865SOL     OW 8631   2.272   2.675   4.975
 2865SOL    HW1 8632   2.358   2.687   5.025
 2865SOL    HW2 8633   2.230   2.588   5.002
 2866SOL     OW 8634   3.136   2.248   4.986
 2866SOL    HW1 8635   3.157   2.322   5.050
 2866SOL    HW2 8636   3.047   2.265   4.943
 2867SOL     OW 8637   1.926   3.426   5.055
 2867SOL    HW1 8638   1.880   3.508   5.021
 2867SOL    HW2 8639   2.024   3.445   5.064
 2868SOL     OW 8640   2.229   2.962   4.225
 2868SOL    HW1 8641   2.222   3.045   4.169
 2868SOL    HW2 8642   2.233   2.882   4.165
 2869SOL     OW 8643   2.428   2.399   4.589
 2869SOL    HW1 8644   2.440   2.465   4.515
 2869SOL    HW2 8645   2.474   2.433   4.672
 2870SOL     OW 8646   3.114   3.210   4.112
 2870SOL    HW1 8647   3.164   3.287   4.152
 2870SOL    HW2 8648   3.019   3.212   4.144
 2871SOL     OW 8649   3.134   3.307   4.866
 2871SOL    HW1 8650   3.181   3.320   4.953
 2871SOL    HW2 8651   3.068   3.233   4.875
 2872SOL     OW 8652   3.444   2.501   4.196
 2872SOL    HW1 8653   3.413   2.562   4.269
 2872SOL    HW2 8654   3.494   2.553   4.127
 2873SOL     OW 8655   2.216   3.372   5.053
 2873SOL    HW1 8656   2.195   3.328   4.966
 2873SOL    HW2 8657   2.313   3.398   5.056
 2874SOL     OW 8658   2.264   2.613   5.322
 2874SOL    HW1 8659   2.332   2.668   5.275
 2874SOL    HW2 8660   2.304   2.525   5.349
 2875SOL     OW 8661   3.449   2.641   5.394
 2875SOL    HW1 8662   3.357   2.679   5.389
 2875SOL    HW2 8663   3.509   2.688   5.329
 2876SOL     OW 8664   2.435   2.732   4.753
 2876SOL    HW1 8665   2.479   2.821   4.744
 2876SOL    HW2 8666   2.372   2.732   4.830
 2877SOL     OW 8667   3.222   2.724   4.769
 2877SOL    HW1 8668   3.147   2.724   4.703
 2877SOL    HW2 8669   3.259   2.632   4.778
 2878SOL     OW 8670   3.071   2.387   3.999
 2878SOL    HW1 8671   3.084   2.303   4.053
 2878SOL    HW2 8672   3.042   2.461   4.059
 2879SOL     OW 8673   2.169   2.075   4.955
 2879SOL    HW1 8674   2.146   2.112   5.045
 2879SOL    HW2 8675   2.139   1.980   4.949
 2880SOL     OW 8676   1.899   3.172   5.006
 2880SOL    HW1 8677   1.952   3.123   5.074
 2880SOL    HW2 8678   1.921   3.270   5.011
 2881SOL     OW 8679   2.594   2.496   4.788
 2881SOL    HW1 8680   2.653   2.470   4.712
 2881SOL    HW2 8681   2.566   2.592   4.777
 2882SOL     OW 8682   2.169   1.925   4.342
 2882SOL    HW1 8683   2.158   2.019   4.375
 2882SOL    HW2 8684   2.164   1.862   4.419
 2883SOL     OW 8685   3.484   2.229   4.098
 2883SOL    HW1 8686   3.486   2.153   4.162
 2883SOL    HW2 8687   3.436   2.306   4.138
 2884SOL     OW 8688   2.885   2.628   4.690
 2884SOL    HW1 8689   2.900   2.649   4.786
 2884SOL    HW2 8690   2.855   2.533   4.681
 2885SOL     OW 8691   3.402   2.136   3.849
 2885SOL    HW1 8692   3.341   2.061   3.872
 2885SOL    HW2 8693   3.424   2.188   3.932
 2886SOL     OW 8694   3.165   2.700   3.766
 2886SOL    HW1 8695   3.199   2.607   3.781
 2886SOL    HW2 8696   3.183   2.727   3.671
 2887SOL     OW 8697   2.930   3.195   4.573
 2887SOL    HW1 8698   2.937   3.111   4.518
 2887SOL    HW2 8699   2.992   3.264   4.537
 2888SOL     OW 8700   2.181   2.672   4.673
 2888SOL    HW1 8701   2.274   2.708   4.678
 2888SOL    HW2 8702   2.175   2.587   4.725
 2889SOL     OW 8703   2.201   2.371   4.730
 2889SOL    HW1 8704   2.149   2.288   4.713
 2889SOL    HW2 8705   2.278   2.376   4.666
 2890SOL     OW 8706   3.022   2.069   5.201
 2890SOL    HW1 8707   3.022   2.133   5.278
 2890SOL    HW2 8708   3.050   2.117   5.118
 2891SOL     OW 8709   1.870   3.188   3.924
 2891SOL    HW1 8710   1.777   3.209   3.893
 2891SOL    HW2 8711   1.880   3.089   3.937
 2892SOL     OW 8712   1.950   3.663   4.651
 2892SOL    HW1 8713   1.908   3.577   4.624
 2892SOL    HW2 8714   2.044   3.666   4.617
 2893SOL     OW 8715   2.366   3.430   4.634
 2893SOL    HW1 8716   2.432   3.504   4.643
 2893SOL    HW2 8717   2.410   3.351   4.592
 2894SOL     OW 8718   2.864   2.658   4.962
 2894SOL    HW1 8719   2.905   2.626   5.048
 2894SOL    HW2 8720   2.768   2.631   4.959
 2895SOL     OW 8721   1.902   2.406   4.838
 2895SOL    HW1 8722   1.987   2.373   4.797
 2895SOL    HW2 8723   1.915   2.421   4.936
 2896SOL     OW 8724   2.677   2.434   4.049
 2896SOL    HW1 8725   2.684   2.345   4.003
 2896SOL    HW2 8726   2.583   2.468   4.041
 2897SOL     OW 8727   3.519   2.466   4.930
 2897SOL    HW1 8728   3.481   2.397   4.992
 2897SOL    HW2 8729   3.601   2.430   4.886
 2898SOL     OW 8730   2.114   3.426   5.468
 2898SOL    HW1 8731   2.084   3.483   5.544
 2898SOL    HW2 8732   2.107   3.329   5.494
 2899SOL     OW 8733   2.533   2.326   4.993
 2899SOL    HW1 8734   2.499   2.237   4.963
 2899SOL    HW2 8735   2.559   2.380   4.913
 2900SOL     OW 8736   2.792   3.540   5.189
 2900SOL    HW1 8737   2.768   3.522   5.094
 2900SOL    HW2 8738   2.822   3.634   5.199
 2901SOL     OW 8739   2.335   2.362   3.915
 2901SOL    HW1 8740   2.396   2.442   3.919
 2901SOL    HW2 8741   2.240   2.393   3.922
 2902SOL     OW 8742   2.021   2.999   5.190
 2902SOL    HW1 8743   2.043   2.938   5.266
 2902SOL    HW2 8744   2.031   2.950   5.104
 2903SOL     OW 8745   3.209   2.921   4.958
 2903SOL    HW1 8746   3.233   2.858   4.884
 2903SOL    HW2 8747   3.119   2.961   4.940
 2904SOL     OW 8748   3.164   2.717   4.033
 2904SOL    HW1 8749   3.078   2.686   4.075
 2904SOL    HW2 8750   3.160   2.703   3.934
 2905SOL     OW 8751   3.621   3.609   4.878
 2905SOL    HW1 8752   3.682   3.639   4.805
 2905SOL    HW2 8753   3.583   3.520   4.856
 2906SOL     OW 8754   3.114   3.593   4.852
 2906SOL    HW1 8755   3.198   3.598   4.798
 2906SOL    HW2 8756   3.091   3.497   4.870
 2907SOL     OW 8757   1.945   3.120   4.746
 2907SOL    HW1 8758   1.940   3.119   4.846
 2907SOL    HW2 8759   1.862   3.079   4.708
 2908SOL     OW 8760   3.588   1.997   4.247
 2908SOL    HW1 8761   3.661   1.980   4.180
 2908SOL    HW2 8762   3.557   1.910   4.285
 2909SOL     OW 8763   3.250   3.435   4.201
 2909SOL    HW1 8764   3.317   3.447   4.127
 2909SOL    HW2 8765   3.210   3.524   4.224
 2910SOL     OW 8766   3.142   2.789   4.396
 2910SOL    HW1 8767   3.202   2.708   4.398
 2910SOL    HW2 8768   3.182   2.858   4.336
 2911SOL     OW 8769   2.692   3.135   5.146
 2911SOL    HW1 8770   2.687   3.168   5.241
 2911SOL    HW2 8771   2.606   3.154   5.100
 2912SOL     OW 8772   2.534   3.478   3.878
 2912SOL    HW1 8773   2.543   3.488   3.779
 2912SOL    HW2 8774   2.494   3.389   3.899
 2913SOL     OW 8775   3.512   3.582   5.118
 2913SOL    HW1 8776   3.565   3.592   5.034
 2913SOL    HW2 8777   3.485   3.672   5.152
 2914SOL     OW 8778   3.703   2.037   4.687
 2914SOL    HW1 8779   3.742   1.952   4.651
 2914SOL    HW2 8780   3.605   2.039   4.668
 2915SOL     OW 8781   2.125   2.188   4.444
 2915SOL    HW1 8782   2.046   2.239   4.410
 2915SOL    HW2 8783   2.116   2.173   4.542
 2916SOL     OW 8784   3.056   3.474   3.755
 2916SOL    HW1 8785   3.062   3.381   3.792
 2916SOL    HW2 8786   2.997   3.474   3.675
 2917SOL     OW 8787   2.684   2.864   5.096
 2917SOL    HW1 8788   2.724   2.863   5.004
 2917SOL    HW2 8789   2.694   2.956   5.136
 2918SOL     OW 8790   2.778   2.772   4.015
 2918SOL    HW1 8791   2.841   2.810   3.947
 2918SOL    HW2 8792   2.818   2.689   4.054
 2919SOL     OW 8793   3.366   3.469   3.768
 2919SOL    HW1 8794   3.274   3.506   3.775
 2919SOL    HW2 8795   3.404   3.489   3.678
 2920SOL     OW 8796   2.234   3.150   5.214
 2920SOL    HW1 8797   2.221   3.243   5.180
 2920SOL    HW2 8798   2.150   3.098   5.201
 2921SOL     OW 8799   3.476   3.154   5.013
 2921SOL    HW1 8800   3.536   3.157   5.093
 2921SOL    HW2 8801   3.401   3.218   5.026
 2922SOL     OW 8802   2.901   2.960   4.420
 2922SOL    HW1 8803   2.831   2.913   4.474
 2922SOL    HW2 8804   2.960   2.892   4.377
 2923SOL     OW 8805   2.876   2.098   4.695
 2923SOL    HW1 8806   2.868   2.062   4.602
 2923SOL    HW2 8807   2.874   2.022   4.760
 2924SOL     OW 8808   2.452   3.349   4.215
 2924SOL    HW1 8809   2.494   3.291   4.145
 2924SOL    HW2 8810   2.408   3.428   4.171
 2925SOL     OW 8811   3.571   2.247   5.105
 2925SOL    HW1 8812   3.644   2.316   5.109
 2925SOL    HW2 8813   3.599   2.172   5.046
 2926SOL     OW 8814   2.117   3.210   4.014
 2926SOL    HW1 8815   2.021   3.211   3.987
 2926SOL    HW2 8816   2.129   3.263   4.098
 2927SOL     OW 8817   1.967   2.875   5.450
 2927SOL    HW1 8818   1.890   2.842   5.504
 2927SOL    HW2 8819   2.052   2.845   5.492
 2928SOL     OW 8820   2.534   2.065   5.213
 2928SOL    HW1 8821   2.624   2.049   5.173
 2928SOL    HW2 8822   2.542   2.070   5.312
 2929SOL     OW 8823   1.937   2.207   3.757
 2929SOL    HW1 8824   1.845   2.179   3.728
 2929SOL    HW2 8825   1.968   2.284   3.701
 2930SOL     OW 8826   3.302   2.718   5.122
 2930SOL    HW1 8827   3.245   2.770   5.059
 2930SOL    HW2 8828   3.398   2.730   5.098
 2931SOL     OW 8829   1.934   2.028   4.042
 2931SOL    HW1 8830   1.917   2.111   3.988
 2931SOL    HW2 8831   2.024   1.991   4.020
 2932SOL     OW 8832   3.045   3.197   3.843
 2932SOL    HW1 8833   2.946   3.186   3.845
 2932SOL    HW2 8834   3.079   3.212   3.936
 2933SOL     OW 8835   2.475   2.704   5.155
 2933SOL    HW1 8836   2.531   2.785   5.138
 2933SOL    HW2 8837   2.534   2.624   5.158
 2934SOL     OW 8838   3.355   3.629   4.683
 2934SOL    HW1 8839   3.388   3.693   4.614
 2934SOL    HW2 8840   3.421   3.623   4.758
 2935SOL     OW 8841   2.578   2.427   5.432
 2935SOL    HW1 8842   2.597   2.492   5.506
 2935SOL    HW2 8843   2.638   2.347   5.441
 2936SOL     OW 8844   2.252   3.603   5.284
 2936SOL    HW1 8845   2.161   3.644   5.282
 2936SOL    HW2 8846   2.245   3.509   5.316
 2937SOL     OW 8847   3.536   2.745   4.978
 2937SOL    HW1 8848   3.509   2.656   4.941
 2937SOL    HW2 8849   3.537   2.813   4.905
 2938SOL     OW 8850   3.087   2.187   4.173
 2938SOL    HW1 8851   3.152   2.113   4.162
 2938SOL    HW2 8852   3.107   2.237   4.257
 2939SOL     OW 8853   2.456   2.607   4.376
 2939SOL    HW1 8854   2.506   2.692   4.357
 2939SOL    HW2 8855   2.368   2.609   4.328
 2940SOL     OW 8856   3.639   2.204   5.366
 2940SOL    HW1 8857   3.622   2.235   5.272
 2940SOL    HW2 8858   3.555   2.167   5.404
 2941SOL     OW 8859   3.592   2.796   5.241
 2941SOL    HW1 8860   3.630   2.887   5.256
 2941SOL    HW2 8861   3.584   2.779   5.142
 2942SOL     OW 8862   2.721   3.236   3.740
 2942SOL    HW1 8863   2.675   3.251   3.828
 2942SOL    HW2 8864   2.765   3.321   3.710
 2943SOL     OW 8865   2.523   3.652   4.677
 2943SOL    HW1 8866   2.477   3.740   4.664
 2943SOL    HW2 8867   2.622   3.664   4.670
 2944SOL     OW 8868   2.721   2.818   4.585
 2944SOL    HW1 8869   2.775   2.749   4.633
 2944SOL    HW2 8870   2.689   2.887   4.651
 2945SOL     OW 8871   2.945   2.846   3.811
 2945SOL    HW1 8872   2.922   2.899   3.729
 2945SOL    HW2 8873   3.026   2.790   3.792
 2946SOL     OW 8874   3.723   3.431   4.575
 2946SOL    HW1 8875   3.652   3.419   4.505
 2946SOL    HW2 8876   3.724   3.352   4.635
 2947SOL     OW 8877   1.941   3.102   4.377
 2947SOL    HW1 8878   1.940   3.055   4.465
 2947SOL    HW2 8879   2.023   3.074   4.326
 2948SOL     OW 8880   2.534   3.253   5.348
 2948SOL    HW1 8881   2.456   3.203   5.386
 2948SOL    HW2 8882   2.531   3.348   5.379
 2949SOL     OW 8883   3.686   2.054   4.951
 2949SOL    HW1 8884   3.682   1.964   4.995
 2949SOL    HW2 8885   3.689   2.043   4.852
 2950SOL     OW 8886   2.290   2.286   4.244
 2950SOL    HW1 8887   2.320   2.214   4.182
 2950SOL    HW2 8888   2.251   2.246   4.327
 2951SOL     OW 8889   3.567   3.349   4.828
 2951SOL    HW1 8890   3.474   3.324   4.801
 2951SOL    HW2 8891   3.593   3.299   4.910
 2952SOL     OW 8892   2.179   2.409   5.004
 2952SOL    HW1 8893   2.217   2.350   5.076
 2952SOL    HW2 8894   2.219   2.383   4.916
 2953SOL     OW 8895   2.674   3.448   4.411
 2953SOL    HW1 8896   2.706   3.458   4.317
 2953SOL    HW2 8897   2.595   3.386   4.413
 2954SOL     OW 8898   3.286   2.076   4.836
 2954SOL    HW1 8899   3.338   2.011   4.891
 2954SOL    HW2 8900   3.237   2.139   4.897
 2955SOL     OW 8901   2.863   1.896   4.878
 2955SOL    HW1 8902   2.800   1.824   4.847
 2955SOL    HW2 8903   2.956   1.860   4.878
 2956SOL     OW 8904   2.632   3.192   4.025
 2956SOL    HW1 8905   2.586   3.105   4.042
 2956SOL    HW2 8906   2.723   3.189   4.066
 2957SOL     OW 8907   2.480   3.429   5.008
 2957SOL    HW1 8908   2.475   3.511   5.065
 2957SOL    HW2 8909   2.569   3.426   4.963
 2958SOL     OW 8910   3.214   1.914   3.892
 2958SOL    HW1 8911   3.249   1.873   3.808
 2958SOL    HW2 8912   3.124   1.876   3.912
 2959SOL     OW 8913   3.162   2.315   4.415
 2959SOL    HW1 8914   3.103   2.395   4.419
 2959SOL    HW2 8915   3.177   2.280   4.508
 2960SOL     OW 8916   3.455   2.083   4.606
 2960SOL    HW1 8917   3.371   2.082   4.660
 2960SOL    HW2 8918   3.457   2.166   4.550
 2961SOL     OW 8919   1.901   2.939   4.024
 2961SOL    HW1 8920   2.000   2.928   4.015
 2961SOL    HW2 8921   1.861   2.853   4.056
 2962SOL     OW 8922   2.737   3.508   4.061
 2962SOL    HW1 8923   2.660   3.473   4.007
 2962SOL    HW2 8924   2.705   3.579   4.123
 2963SOL     OW 8925   2.092   4.352   0.113
 2963SOL    HW1 8926   1.999   4.350   0.150
 2963SOL    HW2 8927   2.093   4.313   0.021
 2964SOL     OW 8928   2.087   3.999   0.996
 2964SOL    HW1 8929   2.122   3.982   1.088
 2964SOL    HW2 8930   1.999   3.954   0.984
 2965SOL     OW 8931   1.881   4.092   0.647
 2965SOL    HW1 8932   1.799   4.135   0.686
 2965SOL    HW2 8933   1.853   4.019   0.584
 2966SOL     OW 8934   2.431   4.999   1.165
 2966SOL    HW1 8935   2.338   4.992   1.128
 2966SOL    HW2 8936   2.442   5.088   1.209
 2967SOL     OW 8937   3.417   5.235   0.703
 2967SOL    HW1 8938   3.360   5.219   0.784
 2967SOL    HW2 8939   3.358   5.245   0.623
 2968SOL     OW 8940   2.997   4.427   0.717
 2968SOL    HW1 8941   3.054   4.505   0.692
 2968SOL    HW2 8942   2.937   4.453   0.793
 2969SOL     OW 8943   3.617   4.331   0.231
 2969SOL    HW1 8944   3.605   4.318   0.132
 2969SOL    HW2 8945   3.587   4.250   0.280
 2970SOL     OW 8946   2.630   4.868   1.023
 2970SOL    HW1 8947   2.552   4.885   1.083
 2970SOL    HW2 8948   2.664   4.955   0.987
 2971SOL     OW 8949   2.712   4.522   1.823
 2971SOL    HW1 8950   2.708   4.598   1.888
 2971SOL    HW2 8951   2.734   4.558   1.732
 2972SOL     OW 8952   2.547   4.736   0.665
 2972SOL    HW1 8953   2.616   4.720   0.735
 2972SOL    HW2 8954   2.474   4.793   0.703
 2973SOL     OW 8955   2.548   4.885   1.803
 2973SOL    HW1 8956   2.608   4.964   1.817
 2973SOL    HW2 8957   2.462   4.916   1.762
 2974SOL     OW 8958   2.197   5.159   1.061
 2974SOL    HW1 8959   2.119   5.128   1.008
 2974SOL    HW2 8960   2.255   5.217   1.004
 2975SOL     OW 8961   3.322   5.229   1.339
 2975SOL    HW1 8962   3.346   5.323   1.365
 2975SOL    HW2 8963   3.306   5.175   1.421
 2976SOL     OW 8964   2.300   4.116   1.499
 2976SOL    HW1 8965   2.382   4.060   1.508
 2976SOL    HW2 8966   2.219   4.058   1.503
 2977SOL     OW 8967   3.465   4.171   0.737
 2977SOL    HW1 8968   3.391   4.217   0.687
 2977SOL    HW2 8969   3.516   4.239   0.790
 2978SOL     OW 8970   2.989   5.065   1.690
 2978SOL    HW1 8971   3.036   5.065   1.778
 2978SOL    HW2 8972   2.941   4.978   1.679
 2979SOL     OW 8973   2.092   5.158   0.538
 2979SOL    HW1 8974   2.066   5.254   0.538
 2979SOL    HW2 8975   2.021   5.104   0.583
 2980SOL     OW 8976   2.102   4.815   0.886
 2980SOL    HW1 8977   2.116   4.731   0.938
 2980SOL    HW2 8978   2.047   4.879   0.941
 2981SOL     OW 8979   2.468   4.688   0.123
 2981SOL    HW1 8980   2.475   4.772   0.069
 2981SOL    HW2 8981   2.514   4.701   0.211
 2982SOL     OW 8982   3.456   3.838   1.480
 2982SOL    HW1 8983   3.438   3.905   1.408
 2982SOL    HW2 8984   3.453   3.884   1.569
 2983SOL     OW 8985   1.984   4.367   0.563
 2983SOL    HW1 8986   1.939   4.279   0.580
 2983SOL    HW2 8987   1.983   4.421   0.647
 2984SOL     OW 8988   1.889   5.320   0.117
 2984SOL    HW1 8989   1.870   5.224   0.138
 2984SOL    HW2 8990   1.856   5.378   0.192
 2985SOL     OW 8991   3.551   4.646   0.612
 2985SOL    HW1 8992   3.646   4.617   0.620
 2985SOL    HW2 8993   3.543   4.711   0.537
 2986SOL     OW 8994   3.503   4.832   0.432
 2986SOL    HW1 8995   3.589   4.834   0.380
 2986SOL    HW2 8996   3.517   4.879   0.520
 2987SOL     OW 8997   1.975   4.461   1.597
 2987SOL    HW1 8998   2.063   4.448   1.642
 2987SOL    HW2 8999   1.962   4.558   1.575
 2988SOL     OW 9000   2.475   5.089   0.726
 2988SOL    HW1 9001   2.426   5.002   0.735
 2988SOL    HW2 9002   2.452   5.132   0.639
 2989SOL     OW 9003   3.155   4.952   1.423
 2989SOL    HW1 9004   3.192   4.879   1.365
 2989SOL    HW2 9005   3.207   4.957   1.508
 2990SOL     OW 9006   2.671   3.728   0.502
 2990SOL    HW1 9007   2.711   3.819   0.493
 2990SOL    HW2 9008   2.571   3.736   0.508
 2991SOL     OW 9009   2.059   4.700   1.264
 2991SOL    HW1 9010   2.148   4.655   1.250
 2991SOL    HW2 9011   1.986   4.635   1.245
 2992SOL     OW 9012   3.387   4.723   0.190
 2992SOL    HW1 9013   3.324   4.647   0.203
 2992SOL    HW2 9014   3.435   4.741   0.276
 2993SOL     OW 9015   2.179   3.975   1.801
 2993SOL    HW1 9016   2.250   4.046   1.807
 2993SOL    HW2 9017   2.091   4.014   1.829
 2994SOL     OW 9018   3.328   5.141   0.953
 2994SOL    HW1 9019   3.269   5.147   1.033
 2994SOL    HW2 9020   3.313   5.053   0.907
 2995SOL     OW 9021   2.460   4.453   0.270
 2995SOL    HW1 9022   2.484   4.522   0.202
 2995SOL    HW2 9023   2.382   4.486   0.324
 2996SOL     OW 9024   3.143   4.069   0.944
 2996SOL    HW1 9025   3.057   4.019   0.931
 2996SOL    HW2 9026   3.205   4.015   1.000
 2997SOL     OW 9027   3.438   5.386   0.307
 2997SOL    HW1 9028   3.527   5.432   0.310
 2997SOL    HW2 9029   3.417   5.362   0.212
 2998SOL     OW 9030   2.669   4.329   1.465
 2998SOL    HW1 9031   2.622   4.326   1.554
 2998SOL    HW2 9032   2.618   4.274   1.399
 2999SOL     OW 9033   3.256   4.193   1.674
 2999SOL    HW1 9034   3.236   4.236   1.762
 2999SOL    HW2 9035   3.334   4.131   1.683
 3000SOL     OW 9036   2.835   4.614   1.572
 3000SOL    HW1 9037   2.881   4.530   1.543
 3000SOL    HW2 9038   2.779   4.648   1.497
 3001SOL     OW 9039   2.853   4.134   1.242
 3001SOL    HW1 9040   2.776   4.168   1.296
 3001SOL    HW2 9041   2.819   4.083   1.163
 3002SOL     OW 9042   2.903   4.425   0.429
 3002SOL    HW1 9043   2.929   4.421   0.525
 3002SOL    HW2 9044   2.818   4.374   0.415
 3003SOL     OW 9045   1.938   4.535   0.789
 3003SOL    HW1 9046   2.037   4.523   0.798
 3003SOL    HW2 9047   1.914   4.630   0.810
 3004SOL     OW 9048   2.727   4.072   0.195
 3004SOL    HW1 9049   2.786   4.135   0.146
 3004SOL    HW2 9050   2.746   3.978   0.166
 3005SOL     OW 9051   3.581   4.309   1.831
 3005SOL    HW1 9052   3.555   4.398   1.795
 3005SOL    HW2 9053   3.579   4.241   1.758
 3006SOL     OW 9054   3.224   4.868   0.545
 3006SOL    HW1 9055   3.307   4.839   0.497
 3006SOL    HW2 9056   3.175   4.935   0.489
 3007SOL     OW 9057   2.412   3.920   0.885
 3007SOL    HW1 9058   2.407   3.915   0.985
 3007SOL    HW2 9059   2.414   4.016   0.856
 3008SOL     OW 9060   2.870   5.180   0.477
 3008SOL    HW1 9061   2.824   5.252   0.425
 3008SOL    HW2 9062   2.866   5.200   0.575
 3009SOL     OW 9063   3.657   4.790   0.873
 3009SOL    HW1 9064   3.595   4.775   0.797
 3009SOL    HW2 9065   3.605   4.801   0.958
 3010SOL     OW 9066   3.089   5.274   1.506
 3010SOL    HW1 9067   3.095   5.197   1.570
 3010SOL    HW2 9068   3.037   5.248   1.426
 3011SOL     OW 9069   2.183   4.667   0.242
 3011SOL    HW1 9070   2.265   4.706   0.200
 3011SOL    HW2 9071   2.156   4.585   0.193
 3012SOL     OW 9072   3.320   4.459   0.728
 3012SOL    HW1 9073   3.315   4.394   0.803
 3012SOL    HW2 9074   3.400   4.518   0.741
 3013SOL     OW 9075   2.323   4.990   1.727
 3013SOL    HW1 9076   2.273   4.991   1.641
 3013SOL    HW2 9077   2.260   4.972   1.803
 3014SOL     OW 9078   2.064   4.009   1.498
 3014SOL    HW1 9079   1.984   4.069   1.485
 3014SOL    HW2 9080   2.054   3.960   1.584
 3015SOL     OW 9081   3.494   5.101   0.081
 3015SOL    HW1 9082   3.462   5.195   0.071
 3015SOL    HW2 9083   3.418   5.038   0.069
 3016SOL     OW 9084   3.262   3.831   0.426
 3016SOL    HW1 9085   3.238   3.794   0.336
 3016SOL    HW2 9086   3.361   3.847   0.430
 3017SOL     OW 9087   2.244   4.424   0.480
 3017SOL    HW1 9088   2.289   4.334   0.477
 3017SOL    HW2 9089   2.150   4.413   0.513
 3018SOL     OW 9090   3.409   3.946   1.729
 3018SOL    HW1 9091   3.404   3.983   1.821
 3018SOL    HW2 9092   3.337   3.877   1.717
 3019SOL     OW 9093   2.476   3.846   0.117
 3019SOL    HW1 9094   2.574   3.824   0.124
 3019SOL    HW2 9095   2.445   3.829   0.024
 3020SOL     OW 9096   2.643   3.988   1.749
 3020SOL    HW1 9097   2.710   3.927   1.792
 3020SOL    HW2 9098   2.570   4.007   1.814
 3021SOL     OW 9099   3.213   4.314   1.433
 3021SOL    HW1 9100   3.241   4.271   1.518
 3021SOL    HW2 9101   3.238   4.410   1.434
 3022SOL     OW 9102   2.665   5.126   0.924
 3022SOL    HW1 9103   2.755   5.140   0.882
 3022SOL    HW2 9104   2.594   5.128   0.853
 3023SOL     OW 9105   2.784   4.227   0.899
 3023SOL    HW1 9106   2.759   4.218   0.803
 3023SOL    HW2 9107   2.832   4.145   0.930
 3024SOL     OW 9108   2.401   3.788   0.512
 3024SOL    HW1 9109   2.320   3.789   0.570
 3024SOL    HW2 9110   2.404   3.871   0.457
 3025SOL     OW 9111   3.296   4.912   0.041
 3025SOL    HW1 9112   3.328   4.836   0.098
 3025SOL    HW2 9113   3.204   4.939   0.071
 3026SOL     OW 9114   2.159   3.759   0.171
 3026SOL    HW1 9115   2.208   3.843   0.150
 3026SOL    HW2 9116   2.221   3.694   0.216
 3027SOL     OW 9117   2.797   3.960   0.480
 3027SOL    HW1 9118   2.749   4.001   0.402
 3027SOL    HW2 9119   2.896   3.958   0.461
 3028SOL     OW 9120   2.938   4.407   1.464
 3028SOL    HW1 9121   2.858   4.346   1.467
 3028SOL    HW2 9122   3.019   4.354   1.440
 3029SOL     OW 9123   3.089   5.294   0.793
 3029SOL    HW1 9124   3.110   5.368   0.728
 3029SOL    HW2 9125   3.157   5.294   0.866
 3030SOL     OW 9126   2.321   4.876   0.741
 3030SOL    HW1 9127   2.250   4.849   0.806
 3030SOL    HW2 9128   2.295   4.848   0.648
 3031SOL     OW 9129   2.894   4.273   0.016
 3031SOL    HW1 9130   2.853   4.355  -0.023
 3031SOL    HW2 9131   2.958   4.299   0.089
 3032SOL     OW 9132   1.940   4.280   1.386
 3032SOL    HW1 9133   2.032   4.279   1.345
 3032SOL    HW2 9134   1.934   4.354   1.453
 3033SOL     OW 9135   2.423   3.946   1.147
 3033SOL    HW1 9136   2.461   3.862   1.184
 3033SOL    HW2 9137   2.335   3.965   1.191
 3034SOL     OW 9138   2.728   4.178   0.642
 3034SOL    HW1 9139   2.696   4.250   0.580
 3034SOL    HW2 9140   2.752   4.097   0.589
 3035SOL     OW 9141   2.879   3.763   0.753
 3035SOL    HW1 9142   2.807   3.768   0.684
 3035SOL    HW2 9143   2.855   3.694   0.822
 3036SOL     OW 9144   3.291   4.897   0.867
 3036SOL    HW1 9145   3.236   4.813   0.860
 3036SOL    HW2 9146   3.317   4.926   0.775
 3037SOL     OW 9147   3.328   4.314   0.992
 3037SOL    HW1 9148   3.298   4.219   0.999
 3037SOL    HW2 9149   3.401   4.330   1.058
 3038SOL     OW 9150   3.719   4.557   0.377
 3038SOL    HW1 9151   3.761   4.493   0.441
 3038SOL    HW2 9152   3.681   4.506   0.299
 3039SOL     OW 9153   2.350   5.109   0.174
 3039SOL    HW1 9154   2.263   5.094   0.221
 3039SOL    HW2 9155   2.333   5.135   0.079
 3040SOL     OW 9156   3.526   5.004   0.657
 3040SOL    HW1 9157   3.625   5.012   0.671
 3040SOL    HW2 9158   3.481   5.088   0.688
 3041SOL     OW 9159   3.252   4.299   0.078
 3041SOL    HW1 9160   3.198   4.278   0.159
 3041SOL    HW2 9161   3.343   4.258   0.087
 3042SOL     OW 9162   2.389   3.980   0.328
 3042SOL    HW1 9163   2.416   3.921   0.253
 3042SOL    HW2 9164   2.389   4.075   0.297
 3043SOL     OW 9165   3.616   4.947   1.588
 3043SOL    HW1 9166   3.707   4.908   1.575
 3043SOL    HW2 9167   3.624   5.043   1.612
 3044SOL     OW 9168   2.926   5.071   1.340
 3044SOL    HW1 9169   2.846   5.048   1.395
 3044SOL    HW2 9170   3.009   5.045   1.389
 3045SOL     OW 9171   2.973   4.919   1.100
 3045SOL    HW1 9172   2.933   4.963   1.181
 3045SOL    HW2 9173   2.932   4.956   1.017
 3046SOL     OW 9174   3.500   4.823   1.079
 3046SOL    HW1 9175   3.505   4.904   1.138
 3046SOL    HW2 9176   3.414   4.825   1.028
 3047SOL     OW 9177   2.777   3.813   1.402
 3047SOL    HW1 9178   2.802   3.793   1.307
 3047SOL    HW2 9179   2.849   3.869   1.444
 3048SOL     OW 9180   2.842   4.840   1.719
 3048SOL    HW1 9181   2.743   4.846   1.729
 3048SOL    HW2 9182   2.865   4.760   1.663
 3049SOL     OW 9183   2.567   4.774   0.368
 3049SOL    HW1 9184   2.553   4.781   0.467
 3049SOL    HW2 9185   2.651   4.723   0.350
 3050SOL     OW 9186   2.272   4.537   1.251
 3050SOL    HW1 9187   2.358   4.549   1.301
 3050SOL    HW2 9188   2.230   4.450   1.278
 3051SOL     OW 9189   3.136   4.110   1.262
 3051SOL    HW1 9190   3.157   4.184   1.326
 3051SOL    HW2 9191   3.047   4.127   1.219
 3052SOL     OW 9192   2.229   4.824   0.501
 3052SOL    HW1 9193   2.222   4.907   0.445
 3052SOL    HW2 9194   2.233   4.744   0.441
 3053SOL     OW 9195   2.428   4.261   0.865
 3053SOL    HW1 9196   2.440   4.327   0.791
 3053SOL    HW2 9197   2.474   4.295   0.948
 3054SOL     OW 9198   3.114   5.072   0.388
 3054SOL    HW1 9199   3.164   5.149   0.428
 3054SOL    HW2 9200   3.019   5.074   0.420
 3055SOL     OW 9201   3.134   5.169   1.142
 3055SOL    HW1 9202   3.181   5.182   1.229
 3055SOL    HW2 9203   3.068   5.095   1.151
 3056SOL     OW 9204   3.444   4.363   0.472
 3056SOL    HW1 9205   3.413   4.424   0.545
 3056SOL    HW2 9206   3.494   4.415   0.403
 3057SOL     OW 9207   2.216   5.234   1.329
 3057SOL    HW1 9208   2.195   5.190   1.242
 3057SOL    HW2 9209   2.313   5.260   1.332
 3058SOL     OW 9210   2.264   4.475   1.598
 3058SOL    HW1 9211   2.332   4.530   1.551
 3058SOL    HW2 9212   2.304   4.387   1.625
 3059SOL     OW 9213   3.449   4.503   1.670
 3059SOL    HW1 9214   3.357   4.541   1.665
 3059SOL    HW2 9215   3.509   4.550   1.605
 3060SOL     OW 9216   2.875   3.829   1.770
 3060SOL    HW1 9217   2.881   3.914   1.718
 3060SOL    HW2 9218   2.907   3.753   1.713
 3061SOL     OW 9219   2.366   3.774   1.740
 3061SOL    HW1 9220   2.324   3.717   1.670
 3061SOL    HW2 9221   2.300   3.843   1.772
 3062SOL     OW 9222   2.435   4.594   1.029
 3062SOL    HW1 9223   2.479   4.683   1.020
 3062SOL    HW2 9224   2.372   4.594   1.106
 3063SOL     OW 9225   3.222   4.586   1.045
 3063SOL    HW1 9226   3.147   4.586   0.979
 3063SOL    HW2 9227   3.259   4.494   1.054
 3064SOL     OW 9228   3.071   4.249   0.275
 3064SOL    HW1 9229   3.084   4.165   0.329
 3064SOL    HW2 9230   3.042   4.323   0.335
 3065SOL     OW 9231   2.169   3.937   1.231
 3065SOL    HW1 9232   2.146   3.974   1.321
 3065SOL    HW2 9233   2.139   3.842   1.225
 3066SOL     OW 9234   1.899   5.034   1.282
 3066SOL    HW1 9235   1.952   4.985   1.350
 3066SOL    HW2 9236   1.921   5.132   1.287
 3067SOL     OW 9237   2.594   4.358   1.064
 3067SOL    HW1 9238   2.653   4.332   0.988
 3067SOL    HW2 9239   2.566   4.454   1.053
 3068SOL     OW 9240   3.590   4.659   1.854
 3068SOL    HW1 9241   3.544   4.652   1.765
 3068SOL    HW2 9242   3.528   4.703   1.920
 3069SOL     OW 9243   2.169   3.787   0.618
 3069SOL    HW1 9244   2.158   3.881   0.651
 3069SOL    HW2 9245   2.164   3.724   0.695
 3070SOL     OW 9246   3.484   4.091   0.374
 3070SOL    HW1 9247   3.486   4.015   0.438
 3070SOL    HW2 9248   3.436   4.168   0.414
 3071SOL     OW 9249   2.885   4.490   0.966
 3071SOL    HW1 9250   2.900   4.511   1.062
 3071SOL    HW2 9251   2.855   4.395   0.957
 3072SOL     OW 9252   3.721   5.242   1.605
 3072SOL    HW1 9253   3.735   5.269   1.510
 3072SOL    HW2 9254   3.804   5.264   1.658
 3073SOL     OW 9255   2.212   4.622   1.804
 3073SOL    HW1 9256   2.288   4.666   1.852
 3073SOL    HW2 9257   2.247   4.575   1.722
 3074SOL     OW 9258   3.402   3.998   0.125
 3074SOL    HW1 9259   3.341   3.923   0.148
 3074SOL    HW2 9260   3.424   4.050   0.208
 3075SOL     OW 9261   3.165   4.562   0.042
 3075SOL    HW1 9262   3.199   4.469   0.057
 3075SOL    HW2 9263   3.183   4.589  -0.053
 3076SOL     OW 9264   2.930   5.057   0.849
 3076SOL    HW1 9265   2.937   4.973   0.794
 3076SOL    HW2 9266   2.992   5.126   0.813
 3077SOL     OW 9267   2.181   4.534   0.949
 3077SOL    HW1 9268   2.274   4.570   0.954
 3077SOL    HW2 9269   2.175   4.449   1.001
 3078SOL     OW 9270   2.201   4.233   1.006
 3078SOL    HW1 9271   2.149   4.150   0.989
 3078SOL    HW2 9272   2.278   4.238   0.942
 3079SOL     OW 9273   3.000   4.104   1.678
 3079SOL    HW1 9274   2.955   4.167   1.742
 3079SOL    HW2 9275   3.093   4.135   1.661
 3080SOL     OW 9276   3.022   3.931   1.477
 3080SOL    HW1 9277   3.022   3.995   1.554
 3080SOL    HW2 9278   3.050   3.979   1.394
 3081SOL     OW 9279   1.870   5.050   0.200
 3081SOL    HW1 9280   1.777   5.071   0.169
 3081SOL    HW2 9281   1.880   4.951   0.213
 3082SOL     OW 9282   2.366   5.292   0.910
 3082SOL    HW1 9283   2.432   5.366   0.919
 3082SOL    HW2 9284   2.410   5.213   0.868
 3083SOL     OW 9285   2.864   4.520   1.238
 3083SOL    HW1 9286   2.905   4.488   1.324
 3083SOL    HW2 9287   2.768   4.493   1.235
 3084SOL     OW 9288   1.902   4.268   1.114
 3084SOL    HW1 9289   1.987   4.235   1.073
 3084SOL    HW2 9290   1.915   4.283   1.212
 3085SOL     OW 9291   2.051   4.244   1.722
 3085SOL    HW1 9292   2.110   4.204   1.652
 3085SOL    HW2 9293   1.993   4.315   1.681
 3086SOL     OW 9294   3.231   4.674   1.660
 3086SOL    HW1 9295   3.270   4.763   1.680
 3086SOL    HW2 9296   3.241   4.654   1.563
 3087SOL     OW 9297   2.677   4.296   0.325
 3087SOL    HW1 9298   2.684   4.207   0.279
 3087SOL    HW2 9299   2.583   4.330   0.317
 3088SOL     OW 9300   3.519   4.328   1.206
 3088SOL    HW1 9301   3.481   4.259   1.268
 3088SOL    HW2 9302   3.601   4.292   1.162
 3089SOL     OW 9303   2.114   5.288   1.744
 3089SOL    HW1 9304   2.084   5.345   1.820
 3089SOL    HW2 9305   2.107   5.191   1.770
 3090SOL     OW 9306   2.533   4.188   1.269
 3090SOL    HW1 9307   2.499   4.099   1.239
 3090SOL    HW2 9308   2.559   4.242   1.189
 3091SOL     OW 9309   2.335   4.224   0.191
 3091SOL    HW1 9310   2.396   4.304   0.195
 3091SOL    HW2 9311   2.240   4.255   0.198
 3092SOL     OW 9312   2.021   4.861   1.466
 3092SOL    HW1 9313   2.043   4.800   1.542
 3092SOL    HW2 9314   2.031   4.812   1.380
 3093SOL     OW 9315   3.209   4.783   1.234
 3093SOL    HW1 9316   3.233   4.720   1.160
 3093SOL    HW2 9317   3.119   4.823   1.216
 3094SOL     OW 9318   3.164   4.579   0.309
 3094SOL    HW1 9319   3.078   4.548   0.351
 3094SOL    HW2 9320   3.160   4.565   0.210
 3095SOL     OW 9321   1.945   4.982   1.022
 3095SOL    HW1 9322   1.940   4.981   1.122
 3095SOL    HW2 9323   1.862   4.941   0.984
 3096SOL     OW 9324   2.765   3.810   0.133
 3096SOL    HW1 9325   2.816   3.811   0.047
 3096SOL    HW2 9326   2.821   3.768   0.204
 3097SOL     OW 9327   3.588   3.859   0.523
 3097SOL    HW1 9328   3.661   3.842   0.456
 3097SOL    HW2 9329   3.557   3.772   0.561
 3098SOL     OW 9330   3.142   4.651   0.672
 3098SOL    HW1 9331   3.202   4.570   0.674
 3098SOL    HW2 9332   3.182   4.720   0.612
 3099SOL     OW 9333   2.692   4.997   1.422
 3099SOL    HW1 9334   2.687   5.030   1.517
 3099SOL    HW2 9335   2.606   5.016   1.376
 3100SOL     OW 9336   3.703   3.899   0.963
 3100SOL    HW1 9337   3.742   3.814   0.927
 3100SOL    HW2 9338   3.605   3.901   0.944
 3101SOL     OW 9339   2.125   4.050   0.720
 3101SOL    HW1 9340   2.046   4.101   0.686
 3101SOL    HW2 9341   2.116   4.035   0.818
 3102SOL     OW 9342   3.056   5.336   0.031
 3102SOL    HW1 9343   3.062   5.243   0.068
 3102SOL    HW2 9344   2.997   5.336  -0.049
 3103SOL     OW 9345   2.684   4.726   1.372
 3103SOL    HW1 9346   2.724   4.725   1.280
 3103SOL    HW2 9347   2.694   4.818   1.412
 3104SOL     OW 9348   2.778   4.634   0.291
 3104SOL    HW1 9349   2.841   4.672   0.223
 3104SOL    HW2 9350   2.818   4.551   0.330
 3105SOL     OW 9351   2.234   5.012   1.490
 3105SOL    HW1 9352   2.221   5.105   1.456
 3105SOL    HW2 9353   2.150   4.960   1.477
 3106SOL     OW 9354   3.476   5.016   1.289
 3106SOL    HW1 9355   3.536   5.019   1.369
 3106SOL    HW2 9356   3.401   5.080   1.302
 3107SOL     OW 9357   2.901   4.822   0.696
 3107SOL    HW1 9358   2.831   4.775   0.750
 3107SOL    HW2 9359   2.960   4.754   0.653
 3108SOL     OW 9360   2.876   3.960   0.971
 3108SOL    HW1 9361   2.868   3.924   0.878
 3108SOL    HW2 9362   2.874   3.884   1.036
 3109SOL     OW 9363   2.452   5.211   0.491
 3109SOL    HW1 9364   2.494   5.153   0.421
 3109SOL    HW2 9365   2.408   5.290   0.447
 3110SOL     OW 9366   3.571   4.109   1.381
 3110SOL    HW1 9367   3.644   4.178   1.385
 3110SOL    HW2 9368   3.599   4.034   1.322
 3111SOL     OW 9369   2.117   5.072   0.290
 3111SOL    HW1 9370   2.021   5.073   0.263
 3111SOL    HW2 9371   2.129   5.125   0.374
 3112SOL     OW 9372   1.967   4.737   1.726
 3112SOL    HW1 9373   1.890   4.704   1.780
 3112SOL    HW2 9374   2.052   4.707   1.768
 3113SOL     OW 9375   2.534   3.927   1.489
 3113SOL    HW1 9376   2.624   3.911   1.449
 3113SOL    HW2 9377   2.542   3.932   1.588
 3114SOL     OW 9378   3.302   4.580   1.398
 3114SOL    HW1 9379   3.245   4.632   1.335
 3114SOL    HW2 9380   3.398   4.592   1.374
 3115SOL     OW 9381   1.934   3.890   0.318
 3115SOL    HW1 9382   1.917   3.973   0.264
 3115SOL    HW2 9383   2.024   3.853   0.296
 3116SOL     OW 9384   3.045   5.059   0.119
 3116SOL    HW1 9385   2.946   5.048   0.121
 3116SOL    HW2 9386   3.079   5.074   0.212
 3117SOL     OW 9387   2.475   4.566   1.431
 3117SOL    HW1 9388   2.531   4.647   1.414
 3117SOL    HW2 9389   2.534   4.486   1.434
 3118SOL     OW 9390   2.578   4.289   1.708
 3118SOL    HW1 9391   2.597   4.354   1.782
 3118SOL    HW2 9392   2.638   4.209   1.717
 3119SOL     OW 9393   3.312   4.944   1.633
 3119SOL    HW1 9394   3.303   4.934   1.732
 3119SOL    HW2 9395   3.408   4.937   1.607
 3120SOL     OW 9396   3.536   4.607   1.254
 3120SOL    HW1 9397   3.509   4.518   1.217
 3120SOL    HW2 9398   3.537   4.675   1.181
 3121SOL     OW 9399   3.087   4.049   0.449
 3121SOL    HW1 9400   3.152   3.975   0.438
 3121SOL    HW2 9401   3.107   4.099   0.533
 3122SOL     OW 9402   2.456   4.469   0.652
 3122SOL    HW1 9403   2.506   4.554   0.633
 3122SOL    HW2 9404   2.368   4.471   0.604
 3123SOL     OW 9405   3.639   4.066   1.642
 3123SOL    HW1 9406   3.622   4.097   1.548
 3123SOL    HW2 9407   3.555   4.029   1.680
 3124SOL     OW 9408   3.592   4.658   1.517
 3124SOL    HW1 9409   3.630   4.749   1.532
 3124SOL    HW2 9410   3.584   4.641   1.418
 3125SOL     OW 9411   2.721   5.098   0.016
 3125SOL    HW1 9412   2.675   5.113   0.104
 3125SOL    HW2 9413   2.765   5.183  -0.014
 3126SOL     OW 9414   2.721   4.680   0.861
 3126SOL    HW1 9415   2.775   4.611   0.909
 3126SOL    HW2 9416   2.689   4.749   0.927
 3127SOL     OW 9417   2.945   4.708   0.087
 3127SOL    HW1 9418   2.922   4.761   0.005
 3127SOL    HW2 9419   3.026   4.652   0.068
 3128SOL     OW 9420   3.723   5.293   0.851
 3128SOL    HW1 9421   3.652   5.281   0.781
 3128SOL    HW2 9422   3.724   5.214   0.911
 3129SOL     OW 9423   2.083   5.038   1.844
 3129SOL    HW1 9424   2.018   4.965   1.823
 3129SOL    HW2 9425   2.087   5.052   1.942
 3130SOL     OW 9426   1.941   4.964   0.653
 3130SOL    HW1 9427   1.940   4.917   0.741
 3130SOL    HW2 9428   2.023   4.936   0.602
 3131SOL     OW 9429   2.534   5.115   1.624
 3131SOL    HW1 9430   2.456   5.065   1.662
 3131SOL    HW2 9431   2.531   5.210   1.655
 3132SOL     OW 9432   3.686   3.916   1.227
 3132SOL    HW1 9433   3.682   3.826   1.271
 3132SOL    HW2 9434   3.689   3.905   1.128
 3133SOL     OW 9435   2.290   4.148   0.520
 3133SOL    HW1 9436   2.320   4.076   0.458
 3133SOL    HW2 9437   2.251   4.108   0.603
 3134SOL     OW 9438   3.567   5.211   1.104
 3134SOL    HW1 9439   3.474   5.186   1.077
 3134SOL    HW2 9440   3.593   5.161   1.186
 3135SOL     OW 9441   2.179   4.271   1.280
 3135SOL    HW1 9442   2.217   4.212   1.352
 3135SOL    HW2 9443   2.219   4.245   1.192
 3136SOL     OW 9444   3.286   3.938   1.112
 3136SOL    HW1 9445   3.338   3.873   1.167
 3136SOL    HW2 9446   3.237   4.001   1.173
 3137SOL     OW 9447   2.863   3.758   1.154
 3137SOL    HW1 9448   2.800   3.686   1.123
 3137SOL    HW2 9449   2.956   3.722   1.154
 3138SOL     OW 9450   2.632   5.054   0.301
 3138SOL    HW1 9451   2.586   4.967   0.318
 3138SOL    HW2 9452   2.723   5.051   0.342
 3139SOL     OW 9453   2.480   5.291   1.284
 3139SOL    HW1 9454   2.475   5.373   1.341
 3139SOL    HW2 9455   2.569   5.288   1.239
 3140SOL     OW 9456   3.214   3.776   0.168
 3140SOL    HW1 9457   3.249   3.735   0.084
 3140SOL    HW2 9458   3.124   3.738   0.188
 3141SOL     OW 9459   3.162   4.177   0.691
 3141SOL    HW1 9460   3.103   4.257   0.695
 3141SOL    HW2 9461   3.177   4.142   0.784
 3142SOL     OW 9462   3.455   3.945   0.882
 3142SOL    HW1 9463   3.371   3.944   0.936
 3142SOL    HW2 9464   3.457   4.028   0.826
 3143SOL     OW 9465   1.901   4.801   0.300
 3143SOL    HW1 9466   2.000   4.790   0.291
 3143SOL    HW2 9467   1.861   4.715   0.332
 3144SOL     OW 9468   2.092   4.352   1.975
 3144SOL    HW1 9469   1.999   4.350   2.012
 3144SOL    HW2 9470   2.093   4.313   1.883
 3145SOL     OW 9471   2.087   3.999   2.858
 3145SOL    HW1 9472   2.122   3.982   2.950
 3145SOL    HW2 9473   1.999   3.954   2.846
 3146SOL     OW 9474   1.881   4.092   2.509
 3146SOL    HW1 9475   1.799   4.135   2.548
 3146SOL    HW2 9476   1.853   4.019   2.446
 3147SOL     OW 9477   2.431   4.999   3.027
 3147SOL    HW1 9478   2.338   4.992   2.990
 3147SOL    HW2 9479   2.442   5.088   3.071
 3148SOL     OW 9480   3.417   5.235   2.565
 3148SOL    HW1 9481   3.360   5.219   2.646
 3148SOL    HW2 9482   3.358   5.245   2.485
 3149SOL     OW 9483   2.997   4.427   2.579
 3149SOL    HW1 9484   3.054   4.505   2.554
 3149SOL    HW2 9485   2.937   4.453   2.655
 3150SOL     OW 9486   3.617   4.331   2.093
 3150SOL    HW1 9487   3.605   4.318   1.994
 3150SOL    HW2 9488   3.587   4.250   2.142
 3151SOL     OW 9489   2.630   4.868   2.885
 3151SOL    HW1 9490   2.552   4.885   2.945
 3151SOL    HW2 9491   2.664   4.955   2.849
 3152SOL     OW 9492   2.712   4.522   3.685
 3152SOL    HW1 9493   2.708   4.598   3.750
 3152SOL    HW2 9494   2.734   4.558   3.594
 3153SOL     OW 9495   2.547   4.736   2.527
 3153SOL    HW1 9496   2.616   4.720   2.597
 3153SOL    HW2 9497   2.474   4.793   2.565
 3154SOL     OW 9498   2.548   4.885   3.665
 3154SOL    HW1 9499   2.608   4.964   3.679
 3154SOL    HW2 9500   2.462   4.916   3.624
 3155SOL     OW 9501   2.197   5.159   2.923
 3155SOL    HW1 9502   2.119   5.128   2.870
 3155SOL    HW2 9503   2.255   5.217   2.866
 3156SOL     OW 9504   3.322   5.229   3.201
 3156SOL    HW1 9505   3.346   5.323   3.227
 3156SOL    HW2 9506   3.306   5.175   3.283
 3157SOL     OW 9507   2.300   4.116   3.361
 3157SOL    HW1 9508   2.382   4.060   3.370
 3157SOL    HW2 9509   2.219   4.058   3.365
 3158SOL     OW 9510   3.465   4.171   2.599
 3158SOL    HW1 9511   3.391   4.217   2.549
 3158SOL    HW2 9512   3.516   4.239   2.652
 3159SOL     OW 9513   2.989   5.065   3.552
 3159SOL    HW1 9514   3.036   5.065   3.640
 3159SOL    HW2 9515   2.941   4.978   3.541
 3160SOL     OW 9516   2.092   5.158   2.400
 3160SOL    HW1 9517   2.066   5.254   2.400
 3160SOL    HW2 9518   2.021   5.104   2.445
 3161SOL     OW 9519   2.102   4.815   2.748
 3161SOL    HW1 9520   2.116   4.731   2.800
 3161SOL    HW2 9521   2.047   4.879   2.803
 3162SOL     OW 9522   2.468   4.688   1.985
 3162SOL    HW1 9523   2.475   4.772   1.931
 3162SOL    HW2 9524   2.514   4.701   2.073
 3163SOL     OW 9525   3.456   3.838   3.342
 3163SOL    HW1 9526   3.438   3.905   3.270
 3163SOL    HW2 9527   3.453   3.884   3.431
 3164SOL     OW 9528   1.984   4.367   2.425
 3164SOL    HW1 9529   1.939   4.279   2.442
 3164SOL    HW2 9530   1.983   4.421   2.509
 3165SOL     OW 9531   1.889   5.320   1.979
 3165SOL    HW1 9532   1.870   5.224   2.000
 3165SOL    HW2 9533   1.856   5.378   2.054
 3166SOL     OW 9534   3.551   4.646   2.474
 3166SOL    HW1 9535   3.646   4.617   2.482
 3166SOL    HW2 9536   3.543   4.711   2.399
 3167SOL     OW 9537   3.503   4.832   2.294
 3167SOL    HW1 9538   3.589   4.834   2.242
 3167SOL    HW2 9539   3.517   4.879   2.382
 3168SOL     OW 9540   1.975   4.461   3.459
 3168SOL    HW1 9541   2.063   4.448   3.504
 3168SOL    HW2 9542   1.962   4.558   3.437
 3169SOL     OW 9543   2.475   5.089   2.588
 3169SOL    HW1 9544   2.426   5.002   2.597
 3169SOL    HW2 9545   2.452   5.132   2.501
 3170SOL     OW 9546   3.155   4.952   3.285
 3170SOL    HW1 9547   3.192   4.879   3.227
 3170SOL    HW2 9548   3.207   4.957   3.370
 3171SOL     OW 9549   2.671   3.728   2.364
 3171SOL    HW1 9550   2.711   3.819   2.355
 3171SOL    HW2 9551   2.571   3.736   2.370
 3172SOL     OW 9552   2.059   4.700   3.126
 3172SOL    HW1 9553   2.148   4.655   3.112
 3172SOL    HW2 9554   1.986   4.635   3.107
 3173SOL     OW 9555   3.387   4.723   2.052
 3173SOL    HW1 9556   3.324   4.647   2.065
 3173SOL    HW2 9557   3.435   4.741   2.138
 3174SOL     OW 9558   2.179   3.975   3.663
 3174SOL    HW1 9559   2.250   4.046   3.669
 3174SOL    HW2 9560   2.091   4.014   3.691
 3175SOL     OW 9561   3.328   5.141   2.815
 3175SOL    HW1 9562   3.269   5.147   2.895
 3175SOL    HW2 9563   3.313   5.053   2.769
 3176SOL     OW 9564   2.460   4.453   2.132
 3176SOL    HW1 9565   2.484   4.522   2.064
 3176SOL    HW2 9566   2.382   4.486   2.186
 3177SOL     OW 9567   3.143   4.069   2.806
 3177SOL    HW1 9568   3.057   4.019   2.793
 3177SOL    HW2 9569   3.205   4.015   2.862
 3178SOL     OW 9570   3.438   5.386   2.169
 3178SOL    HW1 9571   3.527   5.432   2.172
 3178SOL    HW2 9572   3.417   5.362   2.074
 3179SOL     OW 9573   2.669   4.329   3.327
 3179SOL    HW1 9574   2.622   4.326   3.416
 3179SOL    HW2 9575   2.618   4.274   3.261
 3180SOL     OW 9576   3.256   4.193   3.536
 3180SOL    HW1 9577   3.236   4.236   3.624
 3180SOL    HW2 9578   3.334   4.131   3.545
 3181SOL     OW 9579   2.835   4.614   3.434
 3181SOL    HW1 9580   2.881   4.530   3.405
 3181SOL    HW2 9581   2.779   4.648   3.359
 3182SOL     OW 9582   2.853   4.134   3.104
 3182SOL    HW1 9583   2.776   4.168   3.158
 3182SOL    HW2 9584   2.819   4.083   3.025
 3183SOL     OW 9585   2.903   4.425   2.291
 3183SOL    HW1 9586   2.929   4.421   2.387
 3183SOL    HW2 9587   2.818   4.374   2.277
 3184SOL     OW 9588   1.938   4.535   2.651
 3184SOL    HW1 9589   2.037   4.523   2.660
 3184SOL    HW2 9590   1.914   4.630   2.672
 3185SOL     OW 9591   2.727   4.072   2.057
 3185SOL    HW1 9592   2.786   4.135   2.008
 3185SOL    HW2 9593   2.746   3.978   2.028
 3186SOL     OW 9594   3.581   4.309   3.693
 3186SOL    HW1 9595   3.555   4.398   3.657
 3186SOL    HW2 9596   3.579   4.241   3.620
 3187SOL     OW 9597   3.224   4.868   2.407
 3187SOL    HW1 9598   3.307   4.839   2.359
 3187SOL    HW2 9599   3.175   4.935   2.351
 3188SOL     OW 9600   2.412   3.920   2.747
 3188SOL    HW1 9601   2.407   3.915   2.847
 3188SOL    HW2 9602   2.414   4.016   2.718
 3189SOL     OW 9603   2.870   5.180   2.339
 3189SOL    HW1 9604   2.824   5.252   2.287
 3189SOL    HW2 9605   2.866   5.200   2.437
 3190SOL     OW 9606   3.657   4.790   2.735
 3190SOL    HW1 9607   3.595   4.775   2.659
 3190SOL    HW2 9608   3.605   4.801   2.820
 3191SOL     OW 9609   3.089   5.274   3.368
 3191SOL    HW1 9610   3.095   5.197   3.432
 3191SOL    HW2 9611   3.037   5.248   3.288
 3192SOL     OW 9612   2.183   4.667   2.104
 3192SOL    HW1 9613   2.265   4.706   2.062
 3192SOL    HW2 9614   2.156   4.585   2.055
 3193SOL     OW 9615   3.320   4.459   2.590
 3193SOL    HW1 9616   3.315   4.394   2.665
 3193SOL    HW2 9617   3.400   4.518   2.603
 3194SOL     OW 9618   2.323   4.990   3.589
 3194SOL    HW1 9619   2.273   4.991   3.503
 3194SOL    HW2 9620   2.260   4.972   3.665
 3195SOL     OW 9621   2.973   5.500   2.099
 3195SOL    HW1 9622   2.913   5.438   2.149
 3195SOL    HW2 9623   3.004   5.456   2.014
 3196SOL     OW 9624   2.064   4.009   3.360
 3196SOL    HW1 9625   1.984   4.069   3.347
 3196SOL    HW2 9626   2.054   3.960   3.446
 3197SOL     OW 9627   3.494   5.101   1.943
 3197SOL    HW1 9628   3.462   5.195   1.933
 3197SOL    HW2 9629   3.418   5.038   1.931
 3198SOL     OW 9630   3.262   3.831   2.288
 3198SOL    HW1 9631   3.238   3.794   2.198
 3198SOL    HW2 9632   3.361   3.847   2.292
 3199SOL     OW 9633   2.244   4.424   2.342
 3199SOL    HW1 9634   2.289   4.334   2.339
 3199SOL    HW2 9635   2.150   4.413   2.375
 3200SOL     OW 9636   3.409   3.946   3.591
 3200SOL    HW1 9637   3.404   3.983   3.683
 3200SOL    HW2 9638   3.337   3.877   3.579
 3201SOL     OW 9639   2.476   3.846   1.979
 3201SOL    HW1 9640   2.574   3.824   1.986
 3201SOL    HW2 9641   2.445   3.829   1.886
 3202SOL     OW 9642   2.643   3.988   3.611
 3202SOL    HW1 9643   2.710   3.927   3.654
 3202SOL    HW2 9644   2.570   4.007   3.676
 3203SOL     OW 9645   3.213   4.314   3.295
 3203SOL    HW1 9646   3.241   4.271   3.380
 3203SOL    HW2 9647   3.238   4.410   3.296
 3204SOL     OW 9648   2.665   5.126   2.786
 3204SOL    HW1 9649   2.755   5.140   2.744
 3204SOL    HW2 9650   2.594   5.128   2.715
 3205SOL     OW 9651   2.784   4.227   2.761
 3205SOL    HW1 9652   2.759   4.218   2.665
 3205SOL    HW2 9653   2.832   4.145   2.792
 3206SOL     OW 9654   2.401   3.788   2.374
 3206SOL    HW1 9655   2.320   3.789   2.432
 3206SOL    HW2 9656   2.404   3.871   2.319
 3207SOL     OW 9657   3.296   4.912   1.903
 3207SOL    HW1 9658   3.328   4.836   1.960
 3207SOL    HW2 9659   3.204   4.939   1.933
 3208SOL     OW 9660   2.159   3.759   2.033
 3208SOL    HW1 9661   2.208   3.843   2.012
 3208SOL    HW2 9662   2.221   3.694   2.078
 3209SOL     OW 9663   2.797   3.960   2.342
 3209SOL    HW1 9664   2.749   4.001   2.264
 3209SOL    HW2 9665   2.896   3.958   2.323
 3210SOL     OW 9666   2.938   4.407   3.326
 3210SOL    HW1 9667   2.858   4.346   3.329
 3210SOL    HW2 9668   3.019   4.354   3.302
 3211SOL     OW 9669   3.089   5.294   2.655
 3211SOL    HW1 9670   3.110   5.368   2.590
 3211SOL    HW2 9671   3.157   5.294   2.728
 3212SOL     OW 9672   2.321   4.876   2.603
 3212SOL    HW1 9673   2.250   4.849   2.668
 3212SOL    HW2 9674   2.295   4.848   2.510
 3213SOL     OW 9675   2.894   4.273   1.878
 3213SOL    HW1 9676   2.853   4.355   1.839
 3213SOL    HW2 9677   2.958   4.299   1.951
 3214SOL     OW 9678   1.940   4.280   3.248
 3214SOL    HW1 9679   2.032   4.279   3.207
 3214SOL    HW2 9680   1.934   4.354   3.315
 3215SOL     OW 9681   2.423   3.946   3.009
 3215SOL    HW1 9682   2.461   3.862   3.046
 3215SOL    HW2 9683   2.335   3.965   3.053
 3216SOL     OW 9684   2.728   4.178   2.504
 3216SOL    HW1 9685   2.696   4.250   2.442
 3216SOL    HW2 9686   2.752   4.097   2.451
 3217SOL     OW 9687   2.879   3.763   2.615
 3217SOL    HW1 9688   2.807   3.768   2.546
 3217SOL    HW2 9689   2.855   3.694   2.684
 3218SOL     OW 9690   3.291   4.897   2.729
 3218SOL    HW1 9691   3.236   4.813   2.722
 3218SOL    HW2 9692   3.317   4.926   2.637
 3219SOL     OW 9693   3.328   4.314   2.854
 3219SOL    HW1 9694   3.298   4.219   2.861
 3219SOL    HW2 9695   3.401   4.330   2.920
 3220SOL     OW 9696   3.719   4.557   2.239
 3220SOL    HW1 9697   3.761   4.493   2.303
 3220SOL    HW2 9698   3.681   4.506   2.161
 3221SOL     OW 9699   2.350   5.109   2.036
 3221SOL    HW1 9700   2.263   5.094   2.083
 3221SOL    HW2 9701   2.333   5.135   1.941
 3222SOL     OW 9702   3.526   5.004   2.519
 3222SOL    HW1 9703   3.625   5.012   2.533
 3222SOL    HW2 9704   3.481   5.088   2.550
 3223SOL     OW 9705   3.252   4.299   1.940
 3223SOL    HW1 9706   3.198   4.278   2.021
 3223SOL    HW2 9707   3.343   4.258   1.949
 3224SOL     OW 9708   2.389   3.980   2.190
 3224SOL    HW1 9709   2.416   3.921   2.115
 3224SOL    HW2 9710   2.389   4.075   2.159
 3225SOL     OW 9711   3.616   4.947   3.450
 3225SOL    HW1 9712   3.707   4.908   3.437
 3225SOL    HW2 9713   3.624   5.043   3.474
 3226SOL     OW 9714   2.926   5.071   3.202
 3226SOL    HW1 9715   2.846   5.048   3.257
 3226SOL    HW2 9716   3.009   5.045   3.251
 3227SOL     OW 9717   2.973   4.919   2.962
 3227SOL    HW1 9718   2.933   4.963   3.043
 3227SOL    HW2 9719   2.932   4.956   2.879
 3228SOL     OW 9720   3.500   4.823   2.941
 3228SOL    HW1 9721   3.505   4.904   3.000
 3228SOL    HW2 9722   3.414   4.825   2.890
 3229SOL     OW 9723   2.777   3.813   3.264
 3229SOL    HW1 9724   2.802   3.793   3.169
 3229SOL    HW2 9725   2.849   3.869   3.306
 3230SOL     OW 9726   2.842   4.840   3.581
 3230SOL    HW1 9727   2.743   4.846   3.591
 3230SOL    HW2 9728   2.865   4.760   3.525
 3231SOL     OW 9729   2.567   4.774   2.230
 3231SOL    HW1 9730   2.553   4.781   2.329
 3231SOL    HW2 9731   2.651   4.723   2.212
 3232SOL     OW 9732   2.272   4.537   3.113
 3232SOL    HW1 9733   2.358   4.549   3.163
 3232SOL    HW2 9734   2.230   4.450   3.140
 3233SOL     OW 9735   3.136   4.110   3.124
 3233SOL    HW1 9736   3.157   4.184   3.188
 3233SOL    HW2 9737   3.047   4.127   3.081
 3234SOL     OW 9738   2.229   4.824   2.363
 3234SOL    HW1 9739   2.222   4.907   2.307
 3234SOL    HW2 9740   2.233   4.744   2.303
 3235SOL     OW 9741   2.428   4.261   2.727
 3235SOL    HW1 9742   2.440   4.327   2.653
 3235SOL    HW2 9743   2.474   4.295   2.810
 3236SOL     OW 9744   3.114   5.072   2.250
 3236SOL    HW1 9745   3.164   5.149   2.290
 3236SOL    HW2 9746   3.019   5.074   2.282
 3237SOL     OW 9747   3.134   5.169   3.004
 3237SOL    HW1 9748   3.181   5.182   3.091
 3237SOL    HW2 9749   3.068   5.095   3.013
 3238SOL     OW 9750   3.444   4.363   2.334
 3238SOL    HW1 9751   3.413   4.424   2.407
 3238SOL    HW2 9752   3.494   4.415   2.265
 3239SOL     OW 9753   2.216   5.234   3.191
 3239SOL    HW1 9754   2.195   5.190   3.104
 3239SOL    HW2 9755   2.313   5.260   3.194
 3240SOL     OW 9756   2.264   4.475   3.460
 3240SOL    HW1 9757   2.332   4.530   3.413
 3240SOL    HW2 9758   2.304   4.387   3.487
 3241SOL     OW 9759   3.449   4.503   3.532
 3241SOL    HW1 9760   3.357   4.541   3.527
 3241SOL    HW2 9761   3.509   4.550   3.467
 3242SOL     OW 9762   2.875   3.829   3.632
 3242SOL    HW1 9763   2.881   3.914   3.580
 3242SOL    HW2 9764   2.907   3.753   3.575
 3243SOL     OW 9765   2.366   3.774   3.602
 3243SOL    HW1 9766   2.324   3.717   3.532
 3243SOL    HW2 9767   2.300   3.843   3.634
 3244SOL     OW 9768   2.435   4.594   2.891
 3244SOL    HW1 9769   2.479   4.683   2.882
 3244SOL    HW2 9770   2.372   4.594   2.968
 3245SOL     OW 9771   3.222   4.586   2.907
 3245SOL    HW1 9772   3.147   4.586   2.841
 3245SOL    HW2 9773   3.259   4.494   2.916
 3246SOL     OW 9774   3.071   4.249   2.137
 3246SOL    HW1 9775   3.084   4.165   2.191
 3246SOL    HW2 9776   3.042   4.323   2.197
 3247SOL     OW 9777   2.169   3.937   3.093
 3247SOL    HW1 9778   2.146   3.974   3.183
 3247SOL    HW2 9779   2.139   3.842   3.087
 3248SOL     OW 9780   1.899   5.034   3.144
 3248SOL    HW1 9781   1.952   4.985   3.212
 3248SOL    HW2 9782   1.921   5.132   3.149
 3249SOL     OW 9783   2.594   4.358   2.926
 3249SOL    HW1 9784   2.653   4.332   2.850
 3249SOL    HW2 9785   2.566   4.454   2.915
 3250SOL     OW 9786   3.590   4.659   3.716
 3250SOL    HW1 9787   3.544   4.652   3.627
 3250SOL    HW2 9788   3.528   4.703   3.782
 3251SOL     OW 9789   2.169   3.787   2.480
 3251SOL    HW1 9790   2.158   3.881   2.513
 3251SOL    HW2 9791   2.164   3.724   2.557
 3252SOL     OW 9792   3.484   4.091   2.236
 3252SOL    HW1 9793   3.486   4.015   2.300
 3252SOL    HW2 9794   3.436   4.168   2.276
 3253SOL     OW 9795   2.885   4.490   2.828
 3253SOL    HW1 9796   2.900   4.511   2.924
 3253SOL    HW2 9797   2.855   4.395   2.819
 3254SOL     OW 9798   3.721   5.242   3.467
 3254SOL    HW1 9799   3.735   5.269   3.372
 3254SOL    HW2 9800   3.804   5.264   3.520
 3255SOL     OW 9801   2.212   4.622   3.666
 3255SOL    HW1 9802   2.288   4.666   3.714
 3255SOL    HW2 9803   2.247   4.575   3.584
 3256SOL     OW 9804   3.402   3.998   1.987
 3256SOL    HW1 9805   3.341   3.923   2.010
 3256SOL    HW2 9806   3.424   4.050   2.070
 3257SOL     OW 9807   3.165   4.562   1.904
 3257SOL    HW1 9808   3.199   4.469   1.919
 3257SOL    HW2 9809   3.183   4.589   1.809
 3258SOL     OW 9810   2.930   5.057   2.711
 3258SOL    HW1 9811   2.937   4.973   2.656
 3258SOL    HW2 9812   2.992   5.126   2.675
 3259SOL     OW 9813   2.181   4.534   2.811
 3259SOL    HW1 9814   2.274   4.570   2.816
 3259SOL    HW2 9815   2.175   4.449   2.863
 3260SOL     OW 9816   2.201   4.233   2.868
 3260SOL    HW1 9817   2.149   4.150   2.851
 3260SOL    HW2 9818   2.278   4.238   2.804
 3261SOL     OW 9819   3.000   4.104   3.540
 3261SOL    HW1 9820   2.955   4.167   3.604
 3261SOL    HW2 9821   3.093   4.135   3.523
 3262SOL     OW 9822   3.022   3.931   3.339
 3262SOL    HW1 9823   3.022   3.995   3.416
 3262SOL    HW2 9824   3.050   3.979   3.256
 3263SOL     OW 9825   1.870   5.050   2.062
 3263SOL    HW1 9826   1.777   5.071   2.031
 3263SOL    HW2 9827   1.880   4.951   2.075
 3264SOL     OW 9828   2.366   5.292   2.772
 3264SOL    HW1 9829   2.432   5.366   2.781
 3264SOL    HW2 9830   2.410   5.213   2.730
 3265SOL     OW 9831   2.864   4.520   3.100
 3265SOL    HW1 9832   2.905   4.488   3.186
 3265SOL    HW2 9833   2.768   4.493   3.097
 3266SOL     OW 9834   1.902   4.268   2.976
 3266SOL    HW1 9835   1.987   4.235   2.935
 3266SOL    HW2 9836   1.915   4.283   3.074
 3267SOL     OW 9837   2.051   4.244   3.584
 3267SOL    HW1 9838   2.110   4.204   3.514
 3267SOL    HW2 9839   1.993   4.315   3.543
 3268SOL     OW 9840   3.231   4.674   3.522
 3268SOL    HW1 9841   3.270   4.763   3.542
 3268SOL    HW2 9842   3.241   4.654   3.425
 3269SOL     OW 9843   2.677   4.296   2.187
 3269SOL    HW1 9844   2.684   4.207   2.141
 3269SOL    HW2 9845   2.583   4.330   2.179
 3270SOL     OW 9846   3.519   4.328   3.068
 3270SOL    HW1 9847   3.481   4.259   3.130
 3270SOL    HW2 9848   3.601   4.292   3.024
 3271SOL     OW 9849   2.114   5.288   3.606
 3271SOL    HW1 9850   2.084   5.345   3.682
 3271SOL    HW2 9851   2.107   5.191   3.632
 3272SOL     OW 9852   2.533   4.188   3.131
 3272SOL    HW1 9853   2.499   4.099   3.101
 3272SOL    HW2 9854   2.559   4.242   3.051
 3273SOL     OW 9855   2.335   4.224   2.053
 3273SOL    HW1 9856   2.396   4.304   2.057
 3273SOL    HW2 9857   2.240   4.255   2.060
 3274SOL     OW 9858   2.021   4.861   3.328
 3274SOL    HW1 9859   2.043   4.800   3.404
 3274SOL    HW2 9860   2.031   4.812   3.242
 3275SOL     OW 9861   3.209   4.783   3.096
 3275SOL    HW1 9862   3.233   4.720   3.022
 3275SOL    HW2 9863   3.119   4.823   3.078
 3276SOL     OW 9864   3.164   4.579   2.171
 3276SOL    HW1 9865   3.078   4.548   2.213
 3276SOL    HW2 9866   3.160   4.565   2.072
 3277SOL     OW 9867   1.945   4.982   2.884
 3277SOL    HW1 9868   1.940   4.981   2.984
 3277SOL    HW2 9869   1.862   4.941   2.846
 3278SOL     OW 9870   3.588   3.859   2.385
 3278SOL    HW1 9871   3.661   3.842   2.318
 3278SOL    HW2 9872   3.557   3.772   2.423
 3279SOL     OW 9873   3.142   4.651   2.534
 3279SOL    HW1 9874   3.202   4.570   2.536
 3279SOL    HW2 9875   3.182   4.720   2.474
 3280SOL     OW 9876   2.692   4.997   3.284
 3280SOL    HW1 9877   2.687   5.030   3.379
 3280SOL    HW2 9878   2.606   5.016   3.238
 3281SOL     OW 9879   3.703   3.899   2.825
 3281SOL    HW1 9880   3.742   3.814   2.789
 3281SOL    HW2 9881   3.605   3.901   2.806
 3282SOL     OW 9882   2.125   4.050   2.582
 3282SOL    HW1 9883   2.046   4.101   2.548
 3282SOL    HW2 9884   2.116   4.035   2.680
 3283SOL     OW 9885   3.056   5.336   1.893
 3283SOL    HW1 9886   3.062   5.243   1.930
 3283SOL    HW2 9887   2.997   5.336   1.813
 3284SOL     OW 9888   2.684   4.726   3.234
 3284SOL    HW1 9889   2.724   4.725   3.142
 3284SOL    HW2 9890   2.694   4.818   3.274
 3285SOL     OW 9891   2.778   4.634   2.153
 3285SOL    HW1 9892   2.841   4.672   2.085
 3285SOL    HW2 9893   2.818   4.551   2.192
 3286SOL     OW 9894   2.234   5.012   3.352
 3286SOL    HW1 9895   2.221   5.105   3.318
 3286SOL    HW2 9896   2.150   4.960   3.339
 3287SOL     OW 9897   3.476   5.016   3.151
 3287SOL    HW1 9898   3.536   5.019   3.231
 3287SOL    HW2 9899   3.401   5.080   3.164
 3288SOL     OW 9900   2.901   4.822   2.558
 3288SOL    HW1 9901   2.831   4.775   2.612
 3288SOL    HW2 9902   2.960   4.754   2.515
 3289SOL     OW 9903   2.876   3.960   2.833
 3289SOL    HW1 9904   2.868   3.924   2.740
 3289SOL    HW2 9905   2.874   3.884   2.898
 3290SOL     OW 9906   2.452   5.211   2.353
 3290SOL    HW1 9907   2.494   5.153   2.283
 3290SOL    HW2 9908   2.408   5.290   2.309
 3291SOL     OW 9909   3.571   4.109   3.243
 3291SOL    HW1 9910   3.644   4.178   3.247
 3291SOL    HW2 9911   3.599   4.034   3.184
 3292SOL     OW 9912   2.117   5.072   2.152
 3292SOL    HW1 9913   2.021   5.073   2.125
 3292SOL    HW2 9914   2.129   5.125   2.236
 3293SOL     OW 9915   1.967   4.737   3.588
 3293SOL    HW1 9916   1.890   4.704   3.642
 3293SOL    HW2 9917   2.052   4.707   3.630
 3294SOL     OW 9918   2.534   3.927   3.351
 3294SOL    HW1 9919   2.624   3.911   3.311
 3294SOL    HW2 9920   2.542   3.932   3.450
 3295SOL     OW 9921   1.937   4.069   1.895
 3295SOL    HW1 9922   1.845   4.041   1.866
 3295SOL    HW2 9923   1.968   4.146   1.839
 3296SOL     OW 9924   3.302   4.580   3.260
 3296SOL    HW1 9925   3.245   4.632   3.197
 3296SOL    HW2 9926   3.398   4.592   3.236
 3297SOL     OW 9927   1.934   3.890   2.180
 3297SOL    HW1 9928   1.917   3.973   2.126
 3297SOL    HW2 9929   2.024   3.853   2.158
 3298SOL     OW 9930   3.045   5.059   1.981
 3298SOL    HW1 9931   2.946   5.048   1.983
 3298SOL    HW2 9932   3.079   5.074   2.074
 3299SOL     OW 9933   2.475   4.566   3.293
 3299SOL    HW1 9934   2.531   4.647   3.276
 3299SOL    HW2 9935   2.534   4.486   3.296
 3300SOL     OW 9936   2.578   4.289   3.570
 3300SOL    HW1 9937   2.597   4.354   3.644
 3300SOL    HW2 9938   2.638   4.209   3.579
 3301SOL     OW 9939   3.312   4.944   3.495
 3301SOL    HW1 9940   3.303   4.934   3.594
 3301SOL    HW2 9941   3.408   4.937   3.469
 3302SOL     OW 9942   3.536   4.607   3.116
 3302SOL    HW1 9943   3.509   4.518   3.079
 3302SOL    HW2 9944   3.537   4.675   3.043
 3303SOL     OW 9945   3.087   4.049   2.311
 3303SOL    HW1 9946   3.152   3.975   2.300
 3303SOL    HW2 9947   3.107   4.099   2.395
 3304SOL     OW 9948   2.456   4.469   2.514
 3304SOL    HW1 9949   2.506   4.554   2.495
 3304SOL    HW2 9950   2.368   4.471   2.466
 3305SOL     OW 9951   3.639   4.066   3.504
 3305SOL    HW1 9952   3.622   4.097   3.410
 3305SOL    HW2 9953   3.555   4.029   3.542
 3306SOL     OW 9954   3.592   4.658   3.379
 3306SOL    HW1 9955   3.630   4.749   3.394
 3306SOL    HW2 9956   3.584   4.641   3.280
 3307SOL     OW 9957   2.721   5.098   1.878
 3307SOL    HW1 9958   2.675   5.113   1.966
 3307SOL    HW2 9959   2.765   5.183   1.848
 3308SOL     OW 9960   2.721   4.680   2.723
 3308SOL    HW1 9961   2.775   4.611   2.771
 3308SOL    HW2 9962   2.689   4.749   2.789
 3309SOL     OW 9963   2.945   4.708   1.949
 3309SOL    HW1 9964   2.922   4.761   1.867
 3309SOL    HW2 9965   3.026   4.652   1.930
 3310SOL     OW 9966   3.723   5.293   2.713
 3310SOL    HW1 9967   3.652   5.281   2.643
 3310SOL    HW2 9968   3.724   5.214   2.773
 3311SOL     OW 9969   2.083   5.038   3.706
 3311SOL    HW1 9970   2.018   4.965   3.685
 3311SOL    HW2 9971   2.087   5.052   3.804
 3312SOL     OW 9972   1.941   4.964   2.515
 3312SOL    HW1 9973   1.940   4.917   2.603
 3312SOL    HW2 9974   2.023   4.936   2.464
 3313SOL     OW 9975   2.534   5.115   3.486
 3313SOL    HW1 9976   2.456   5.065   3.524
 3313SOL    HW2 9977   2.531   5.210   3.517
 3314SOL     OW 9978   3.686   3.916   3.089
 3314SOL    HW1 9979   3.682   3.826   3.133
 3314SOL    HW2 9980   3.689   3.905   2.990
 3315SOL     OW 9981   2.290   4.148   2.382
 3315SOL    HW1 9982   2.320   4.076   2.320
 3315SOL    HW2 9983   2.251   4.108   2.465
 3316SOL     OW 9984   3.567   5.211   2.966
 3316SOL    HW1 9985   3.474   5.186   2.939
 3316SOL    HW2 9986   3.593   5.161   3.048
 3317SOL     OW 9987   2.179   4.271   3.142
 3317SOL    HW1 9988   2.217   4.212   3.214
 3317SOL    HW2 9989   2.219   4.245   3.054
 3318SOL     OW 9990   3.286   3.938   2.974
 3318SOL    HW1 9991   3.338   3.873   3.029
 3318SOL    HW2 9992   3.237   4.001   3.035
 3319SOL     OW 9993   2.863   3.758   3.016
 3319SOL    HW1 9994   2.800   3.686   2.985
 3319SOL    HW2 9995   2.956   3.722   3.016
 3320SOL     OW 9996   2.632   5.054   2.163
 3320SOL    HW1 9997   2.586   4.967   2.180
 3320SOL    HW2 9998   2.723   5.051   2.204
 3321SOL     OW 9999   2.480   5.291   3.146
 3321SOL    HW110000   2.475   5.373   3.203
 3321SOL    HW210001   2.569   5.288   3.101
 3322SOL     OW10002   3.214   3.776   2.030
 3322SOL    HW110003   3.249   3.735   1.946
 3322SOL    HW210004   3.124   3.738   2.050
 3323SOL     OW10005   3.162   4.177   2.553
 3323SOL    HW110006   3.103   4.257   2.557
 3323SOL    HW210007   3.177   4.142   2.646
 3324SOL     OW10008   3.455   3.945   2.744
 3324SOL    HW110009   3.371   3.944   2.798
 3324SOL    HW210010   3.457   4.028   2.688
 3325SOL     OW10011   1.901   4.801   2.162
 3325SOL    HW110012   2.000   4.790   2.153
 3325SOL    HW210013   1.861   4.715   2.194
 3326SOL     OW10014   2.092   4.352   3.837
 3326SOL    HW110015   1.999   4.350   3.874
 3326SOL    HW210016   2.093   4.313   3.745
 3327SOL     OW10017   2.087   3.999   4.720
 3327SOL    HW110018   2.122   3.982   4.812
 3327SOL    HW210019   1.999   3.954   4.708
 3328SOL     OW10020   1.881   4.092   4.371
 3328SOL    HW110021   1.799   4.135   4.410
 3328SOL    HW210022   1.853   4.019   4.308
 3329SOL     OW10023   2.431   4.999   4.889
 3329SOL    HW110024   2.338   4.992   4.852
 3329SOL    HW210025   2.442   5.088   4.933
 3330SOL     OW10026   3.417   5.235   4.427
 3330SOL    HW110027   3.360   5.219   4.508
 3330SOL    HW210028   3.358   5.245   4.347
 3331SOL     OW10029   2.997   4.427   4.441
 3331SOL    HW110030   3.054   4.505   4.416
 3331SOL    HW210031   2.937   4.453   4.517
 3332SOL     OW10032   3.617   4.331   3.955
 3332SOL    HW110033   3.605   4.318   3.856
 3332SOL    HW210034   3.587   4.250   4.004
 3333SOL     OW10035   2.630   4.868   4.747
 3333SOL    HW110036   2.552   4.885   4.807
 3333SOL    HW210037   2.664   4.955   4.711
 3334SOL     OW10038   2.547   4.736   4.389
 3334SOL    HW110039   2.616   4.720   4.459
 3334SOL    HW210040   2.474   4.793   4.427
 3335SOL     OW10041   2.548   4.885   5.527
 3335SOL    HW110042   2.608   4.964   5.541
 3335SOL    HW210043   2.462   4.916   5.486
 3336SOL     OW10044   2.197   5.159   4.785
 3336SOL    HW110045   2.119   5.128   4.732
 3336SOL    HW210046   2.255   5.217   4.728
 3337SOL     OW10047   3.322   5.229   5.063
 3337SOL    HW110048   3.346   5.323   5.089
 3337SOL    HW210049   3.306   5.175   5.145
 3338SOL     OW10050   2.300   4.116   5.223
 3338SOL    HW110051   2.382   4.060   5.232
 3338SOL    HW210052   2.219   4.058   5.227
 3339SOL     OW10053   3.465   4.171   4.461
 3339SOL    HW110054   3.391   4.217   4.411
 3339SOL    HW210055   3.516   4.239   4.514
 3340SOL     OW10056   2.092   5.158   4.262
 3340SOL    HW110057   2.066   5.254   4.262
 3340SOL    HW210058   2.021   5.104   4.307
 3341SOL     OW10059   2.102   4.815   4.610
 3341SOL    HW110060   2.116   4.731   4.662
 3341SOL    HW210061   2.047   4.879   4.665
 3342SOL     OW10062   2.468   4.688   3.847
 3342SOL    HW110063   2.475   4.772   3.793
 3342SOL    HW210064   2.514   4.701   3.935
 3343SOL     OW10065   3.456   3.838   5.204
 3343SOL    HW110066   3.438   3.905   5.132
 3343SOL    HW210067   3.453   3.884   5.293
 3344SOL     OW10068   1.984   4.367   4.287
 3344SOL    HW110069   1.939   4.279   4.304
 3344SOL    HW210070   1.983   4.421   4.371
 3345SOL     OW10071   1.889   5.320   3.841
 3345SOL    HW110072   1.870   5.224   3.862
 3345SOL    HW210073   1.856   5.378   3.916
 3346SOL     OW10074   3.551   4.646   4.336
 3346SOL    HW110075   3.646   4.617   4.344
 3346SOL    HW210076   3.543   4.711   4.261
 3347SOL     OW10077   3.503   4.832   4.156
 3347SOL    HW110078   3.589   4.834   4.104
 3347SOL    HW210079   3.517   4.879   4.244
 3348SOL     OW10080   1.975   4.461   5.321
 3348SOL    HW110081   2.063   4.448   5.366
 3348SOL    HW210082   1.962   4.558   5.299
 3349SOL     OW10083   2.475   5.089   4.450
 3349SOL    HW110084   2.426   5.002   4.459
 3349SOL    HW210085   2.452   5.132   4.363
 3350SOL     OW10086   3.155   4.952   5.147
 3350SOL    HW110087   3.192   4.879   5.089
 3350SOL    HW210088   3.207   4.957   5.232
 3351SOL     OW10089   2.671   3.728   4.226
 3351SOL    HW110090   2.711   3.819   4.217
 3351SOL    HW210091   2.571   3.736   4.232
 3352SOL     OW10092   2.059   4.700   4.988
 3352SOL    HW110093   2.148   4.655   4.974
 3352SOL    HW210094   1.986   4.635   4.969
 3353SOL     OW10095   3.387   4.723   3.914
 3353SOL    HW110096   3.324   4.647   3.927
 3353SOL    HW210097   3.435   4.741   4.000
 3354SOL     OW10098   3.328   5.141   4.677
 3354SOL    HW110099   3.269   5.147   4.757
 3354SOL    HW210100   3.313   5.053   4.631
 3355SOL     OW10101   2.460   4.453   3.994
 3355SOL    HW110102   2.484   4.522   3.926
 3355SOL    HW210103   2.382   4.486   4.048
 3356SOL     OW10104   3.143   4.069   4.668
 3356SOL    HW110105   3.057   4.019   4.655
 3356SOL    HW210106   3.205   4.015   4.724
 3357SOL     OW10107   3.438   5.386   4.031
 3357SOL    HW110108   3.527   5.432   4.034
 3357SOL    HW210109   3.417   5.362   3.936
 3358SOL     OW10110   2.669   4.329   5.189
 3358SOL    HW110111   2.622   4.326   5.278
 3358SOL    HW210112   2.618   4.274   5.123
 3359SOL     OW10113   2.835   4.614   5.296
 3359SOL    HW110114   2.881   4.530   5.267
 3359SOL    HW210115   2.779   4.648   5.221
 3360SOL     OW10116   2.853   4.134   4.966
 3360SOL    HW110117   2.776   4.168   5.020
 3360SOL    HW210118   2.819   4.083   4.887
 3361SOL     OW10119   2.903   4.425   4.153
 3361SOL    HW110120   2.929   4.421   4.249
 3361SOL    HW210121   2.818   4.374   4.139
 3362SOL     OW10122   1.938   4.535   4.513
 3362SOL    HW110123   2.037   4.523   4.522
 3362SOL    HW210124   1.914   4.630   4.534
 3363SOL     OW10125   2.727   4.072   3.919
 3363SOL    HW110126   2.786   4.135   3.870
 3363SOL    HW210127   2.746   3.978   3.890
 3364SOL     OW10128   3.224   4.868   4.269
 3364SOL    HW110129   3.307   4.839   4.221
 3364SOL    HW210130   3.175   4.935   4.213
 3365SOL     OW10131   2.412   3.920   4.609
 3365SOL    HW110132   2.407   3.915   4.709
 3365SOL    HW210133   2.414   4.016   4.580
 3366SOL     OW10134   2.870   5.180   4.201
 3366SOL    HW110135   2.824   5.252   4.149
 3366SOL    HW210136   2.866   5.200   4.299
 3367SOL     OW10137   3.657   4.790   4.597
 3367SOL    HW110138   3.595   4.775   4.521
 3367SOL    HW210139   3.605   4.801   4.682
 3368SOL     OW10140   2.183   4.667   3.966
 3368SOL    HW110141   2.265   4.706   3.924
 3368SOL    HW210142   2.156   4.585   3.917
 3369SOL     OW10143   3.320   4.459   4.452
 3369SOL    HW110144   3.315   4.394   4.527
 3369SOL    HW210145   3.400   4.518   4.465
 3370SOL     OW10146   2.973   5.500   3.961
 3370SOL    HW110147   2.913   5.438   4.011
 3370SOL    HW210148   3.004   5.456   3.876
 3371SOL     OW10149   2.064   4.009   5.222
 3371SOL    HW110150   1.984   4.069   5.209
 3371SOL    HW210151   2.054   3.960   5.308
 3372SOL     OW10152   3.494   5.101   3.805
 3372SOL    HW110153   3.462   5.195   3.795
 3372SOL    HW210154   3.418   5.038   3.793
 3373SOL     OW10155   3.262   3.831   4.150
 3373SOL    HW110156   3.238   3.794   4.060
 3373SOL    HW210157   3.361   3.847   4.154
 3374SOL     OW10158   2.244   4.424   4.204
 3374SOL    HW110159   2.289   4.334   4.201
 3374SOL    HW210160   2.150   4.413   4.237
 3375SOL     OW10161   2.476   3.846   3.841
 3375SOL    HW110162   2.574   3.824   3.848
 3375SOL    HW210163   2.445   3.829   3.748
 3376SOL     OW10164   3.213   4.314   5.157
 3376SOL    HW110165   3.241   4.271   5.242
 3376SOL    HW210166   3.238   4.410   5.158
 3377SOL     OW10167   2.665   5.126   4.648
 3377SOL    HW110168   2.755   5.140   4.606
 3377SOL    HW210169   2.594   5.128   4.577
 3378SOL     OW10170   2.784   4.227   4.623
 3378SOL    HW110171   2.759   4.218   4.527
 3378SOL    HW210172   2.832   4.145   4.654
 3379SOL     OW10173   2.401   3.788   4.236
 3379SOL    HW110174   2.320   3.789   4.294
 3379SOL    HW210175   2.404   3.871   4.181
 3380SOL     OW10176   3.296   4.912   3.765
 3380SOL    HW110177   3.328   4.836   3.822
 3380SOL    HW210178   3.204   4.939   3.795
 3381SOL     OW10179   2.159   3.759   3.895
 3381SOL    HW110180   2.208   3.843   3.874
 3381SOL    HW210181   2.221   3.694   3.940
 3382SOL     OW10182   2.797   3.960   4.204
 3382SOL    HW110183   2.749   4.001   4.126
 3382SOL    HW210184   2.896   3.958   4.185
 3383SOL     OW10185   2.938   4.407   5.188
 3383SOL    HW110186   2.858   4.346   5.191
 3383SOL    HW210187   3.019   4.354   5.164
 3384SOL     OW10188   3.089   5.294   4.517
 3384SOL    HW110189   3.110   5.368   4.452
 3384SOL    HW210190   3.157   5.294   4.590
 3385SOL     OW10191   2.321   4.876   4.465
 3385SOL    HW110192   2.250   4.849   4.530
 3385SOL    HW210193   2.295   4.848   4.372
 3386SOL     OW10194   2.894   4.273   3.740
 3386SOL    HW110195   2.853   4.355   3.701
 3386SOL    HW210196   2.958   4.299   3.813
 3387SOL     OW10197   1.940   4.280   5.110
 3387SOL    HW110198   2.032   4.279   5.069
 3387SOL    HW210199   1.934   4.354   5.177
 3388SOL     OW10200   2.423   3.946   4.871
 3388SOL    HW110201   2.461   3.862   4.908
 3388SOL    HW210202   2.335   3.965   4.915
 3389SOL     OW10203   2.728   4.178   4.366
 3389SOL    HW110204   2.696   4.250   4.304
 3389SOL    HW210205   2.752   4.097   4.313
 3390SOL     OW10206   2.879   3.763   4.477
 3390SOL    HW110207   2.807   3.768   4.408
 3390SOL    HW210208   2.855   3.694   4.546
 3391SOL     OW10209   3.291   4.897   4.591
 3391SOL    HW110210   3.236   4.813   4.584
 3391SOL    HW210211   3.317   4.926   4.499
 3392SOL     OW10212   3.328   4.314   4.716
 3392SOL    HW110213   3.298   4.219   4.723
 3392SOL    HW210214   3.401   4.330   4.782
 3393SOL     OW10215   3.719   4.557   4.101
 3393SOL    HW110216   3.761   4.493   4.165
 3393SOL    HW210217   3.681   4.506   4.023
 3394SOL     OW10218   2.350   5.109   3.898
 3394SOL    HW110219   2.263   5.094   3.945
 3394SOL    HW210220   2.333   5.135   3.803
 3395SOL     OW10221   3.526   5.004   4.381
 3395SOL    HW110222   3.625   5.012   4.395
 3395SOL    HW210223   3.481   5.088   4.412
 3396SOL     OW10224   3.252   4.299   3.802
 3396SOL    HW110225   3.198   4.278   3.883
 3396SOL    HW210226   3.343   4.258   3.811
 3397SOL     OW10227   2.389   3.980   4.052
 3397SOL    HW110228   2.416   3.921   3.977
 3397SOL    HW210229   2.389   4.075   4.021
 3398SOL     OW10230   3.616   4.947   5.312
 3398SOL    HW110231   3.707   4.908   5.299
 3398SOL    HW210232   3.624   5.043   5.336
 3399SOL     OW10233   2.926   5.071   5.064
 3399SOL    HW110234   2.846   5.048   5.119
 3399SOL    HW210235   3.009   5.045   5.113
 3400SOL     OW10236   2.973   4.919   4.824
 3400SOL    HW110237   2.933   4.963   4.905
 3400SOL    HW210238   2.932   4.956   4.741
 3401SOL     OW10239   3.500   4.823   4.803
 3401SOL    HW110240   3.505   4.904   4.862
 3401SOL    HW210241   3.414   4.825   4.752
 3402SOL     OW10242   2.777   3.813   5.126
 3402SOL    HW110243   2.802   3.793   5.031
 3402SOL    HW210244   2.849   3.869   5.168
 3403SOL     OW10245   2.567   4.774   4.092
 3403SOL    HW110246   2.553   4.781   4.191
 3403SOL    HW210247   2.651   4.723   4.074
 3404SOL     OW10248   2.272   4.537   4.975
 3404SOL    HW110249   2.358   4.549   5.025
 3404SOL    HW210250   2.230   4.450   5.002
 3405SOL     OW10251   3.136   4.110   4.986
 3405SOL    HW110252   3.157   4.184   5.050
 3405SOL    HW210253   3.047   4.127   4.943
 3406SOL     OW10254   2.229   4.824   4.225
 3406SOL    HW110255   2.222   4.907   4.169
 3406SOL    HW210256   2.233   4.744   4.165
 3407SOL     OW10257   2.428   4.261   4.589
 3407SOL    HW110258   2.440   4.327   4.515
 3407SOL    HW210259   2.474   4.295   4.672
 3408SOL     OW10260   3.114   5.072   4.112
 3408SOL    HW110261   3.164   5.149   4.152
 3408SOL    HW210262   3.019   5.074   4.144
 3409SOL     OW10263   3.134   5.169   4.866
 3409SOL    HW110264   3.181   5.182   4.953
 3409SOL    HW210265   3.068   5.095   4.875
 3410SOL     OW10266   3.444   4.363   4.196
 3410SOL    HW110267   3.413   4.424   4.269
 3410SOL    HW210268   3.494   4.415   4.127
 3411SOL     OW10269   2.216   5.234   5.053
 3411SOL    HW110270   2.195   5.190   4.966
 3411SOL    HW210271   2.313   5.260   5.056
 3412SOL     OW10272   2.264   4.475   5.322
 3412SOL    HW110273   2.332   4.530   5.275
 3412SOL    HW210274   2.304   4.387   5.349
 3413SOL     OW10275   3.449   4.503   5.394
 3413SOL    HW110276   3.357   4.541   5.389
 3413SOL    HW210277   3.509   4.550   5.329
 3414SOL     OW10278   2.435   4.594   4.753
 3414SOL    HW110279   2.479   4.683   4.744
 3414SOL    HW210280   2.372   4.594   4.830
 3415SOL     OW10281   3.222   4.586   4.769
 3415SOL    HW110282   3.147   4.586   4.703
 3415SOL    HW210283   3.259   4.494   4.778
 3416SOL     OW10284   3.071   4.249   3.999
 3416SOL    HW110285   3.084   4.165   4.053
 3416SOL    HW210286   3.042   4.323   4.059
 3417SOL     OW10287   2.169   3.937   4.955
 3417SOL    HW110288   2.146   3.974   5.045
 3417SOL    HW210289   2.139   3.842   4.949
 3418SOL     OW10290   1.899   5.034   5.006
 3418SOL    HW110291   1.952   4.985   5.074
 3418SOL    HW210292   1.921   5.132   5.011
 3419SOL     OW10293   2.594   4.358   4.788
 3419SOL    HW110294   2.653   4.332   4.712
 3419SOL    HW210295   2.566   4.454   4.777
 3420SOL     OW10296   2.169   3.787   4.342
 3420SOL    HW110297   2.158   3.881   4.375
 3420SOL    HW210298   2.164   3.724   4.419
 3421SOL     OW10299   3.484   4.091   4.098
 3421SOL    HW110300   3.486   4.015   4.162
 3421SOL    HW210301   3.436   4.168   4.138
 3422SOL     OW10302   2.885   4.490   4.690
 3422SOL    HW110303   2.900   4.511   4.786
 3422SOL    HW210304   2.855   4.395   4.681
 3423SOL     OW10305   3.402   3.998   3.849
 3423SOL    HW110306   3.341   3.923   3.872
 3423SOL    HW210307   3.424   4.050   3.932
 3424SOL     OW10308   3.165   4.562   3.766
 3424SOL    HW110309   3.199   4.469   3.781
 3424SOL    HW210310   3.183   4.589   3.671
 3425SOL     OW10311   2.930   5.057   4.573
 3425SOL    HW110312   2.937   4.973   4.518
 3425SOL    HW210313   2.992   5.126   4.537
 3426SOL     OW10314   2.181   4.534   4.673
 3426SOL    HW110315   2.274   4.570   4.678
 3426SOL    HW210316   2.175   4.449   4.725
 3427SOL     OW10317   2.201   4.233   4.730
 3427SOL    HW110318   2.149   4.150   4.713
 3427SOL    HW210319   2.278   4.238   4.666
 3428SOL     OW10320   3.022   3.931   5.201
 3428SOL    HW110321   3.022   3.995   5.278
 3428SOL    HW210322   3.050   3.979   5.118
 3429SOL     OW10323   1.870   5.050   3.924
 3429SOL    HW110324   1.777   5.071   3.893
 3429SOL    HW210325   1.880   4.951   3.937
 3430SOL     OW10326   2.366   5.292   4.634
 3430SOL    HW110327   2.432   5.366   4.643
 3430SOL    HW210328   2.410   5.213   4.592
 3431SOL     OW10329   2.864   4.520   4.962
 3431SOL    HW110330   2.905   4.488   5.048
 3431SOL    HW210331   2.768   4.493   4.959
 3432SOL     OW10332   1.902   4.268   4.838
 3432SOL    HW110333   1.987   4.235   4.797
 3432SOL    HW210334   1.915   4.283   4.936
 3433SOL     OW10335   2.677   4.296   4.049
 3433SOL    HW110336   2.684   4.207   4.003
 3433SOL    HW210337   2.583   4.330   4.041
 3434SOL     OW10338   3.519   4.328   4.930
 3434SOL    HW110339   3.481   4.259   4.992
 3434SOL    HW210340   3.601   4.292   4.886
 3435SOL     OW10341   2.533   4.188   4.993
 3435SOL    HW110342   2.499   4.099   4.963
 3435SOL    HW210343   2.559   4.242   4.913
 3436SOL     OW10344   2.335   4.224   3.915
 3436SOL    HW110345   2.396   4.304   3.919
 3436SOL    HW210346   2.240   4.255   3.922
 3437SOL     OW10347   2.021   4.861   5.190
 3437SOL    HW110348   2.043   4.800   5.266
 3437SOL    HW210349   2.031   4.812   5.104
 3438SOL     OW10350   3.209   4.783   4.958
 3438SOL    HW110351   3.233   4.720   4.884
 3438SOL    HW210352   3.119   4.823   4.940
 3439SOL     OW10353   3.164   4.579   4.033
 3439SOL    HW110354   3.078   4.548   4.075
 3439SOL    HW210355   3.160   4.565   3.934
 3440SOL     OW10356   1.945   4.982   4.746
 3440SOL    HW110357   1.940   4.981   4.846
 3440SOL    HW210358   1.862   4.941   4.708
 3441SOL     OW10359   3.588   3.859   4.247
 3441SOL    HW110360   3.661   3.842   4.180
 3441SOL    HW210361   3.557   3.772   4.285
 3442SOL     OW10362   3.142   4.651   4.396
 3442SOL    HW110363   3.202   4.570   4.398
 3442SOL    HW210364   3.182   4.720   4.336
 3443SOL     OW10365   2.692   4.997   5.146
 3443SOL    HW110366   2.687   5.030   5.241
 3443SOL    HW210367   2.606   5.016   5.100
 3444SOL     OW10368   3.703   3.899   4.687
 3444SOL    HW110369   3.742   3.814   4.651
 3444SOL    HW210370   3.605   3.901   4.668
 3445SOL     OW10371   2.125   4.050   4.444
 3445SOL    HW110372   2.046   4.101   4.410
 3445SOL    HW210373   2.116   4.035   4.542
 3446SOL     OW10374   3.056   5.336   3.755
 3446SOL    HW110375   3.062   5.243   3.792
 3446SOL    HW210376   2.997   5.336   3.675
 3447SOL     OW10377   2.684   4.726   5.096
 3447SOL    HW110378   2.724   4.725   5.004
 3447SOL    HW210379   2.694   4.818   5.136
 3448SOL     OW10380   2.778   4.634   4.015
 3448SOL    HW110381   2.841   4.672   3.947
 3448SOL    HW210382   2.818   4.551   4.054
 3449SOL     OW10383   2.234   5.012   5.214
 3449SOL    HW110384   2.221   5.105   5.180
 3449SOL    HW210385   2.150   4.960   5.201
 3450SOL     OW10386   3.476   5.016   5.013
 3450SOL    HW110387   3.536   5.019   5.093
 3450SOL    HW210388   3.401   5.080   5.026
 3451SOL     OW10389   2.901   4.822   4.420
 3451SOL    HW110390   2.831   4.775   4.474
 3451SOL    HW210391   2.960   4.754   4.377
 3452SOL     OW10392   2.876   3.960   4.695
 3452SOL    HW110393   2.868   3.924   4.602
 3452SOL    HW210394   2.874   3.884   4.760
 3453SOL     OW10395   2.452   5.211   4.215
 3453SOL    HW110396   2.494   5.153   4.145
 3453SOL    HW210397   2.408   5.290   4.171
 3454SOL     OW10398   3.571   4.109   5.105
 3454SOL    HW110399   3.644   4.178   5.109
 3454SOL    HW210400   3.599   4.034   5.046
 3455SOL     OW10401   2.117   5.072   4.014
 3455SOL    HW110402   2.021   5.073   3.987
 3455SOL    HW210403   2.129   5.125   4.098
 3456SOL     OW10404   1.967   4.737   5.450
 3456SOL    HW110405   1.890   4.704   5.504
 3456SOL    HW210406   2.052   4.707   5.492
 3457SOL     OW10407   2.534   3.927   5.213
 3457SOL    HW110408   2.624   3.911   5.173
 3457SOL    HW210409   2.542   3.932   5.312
 3458SOL     OW10410   1.937   4.069   3.757
 3458SOL    HW110411   1.845   4.041   3.728
 3458SOL    HW210412   1.968   4.146   3.701
 3459SOL     OW10413   3.302   4.580   5.122
 3459SOL    HW110414   3.245   4.632   5.059
 3459SOL    HW210415   3.398   4.592   5.098
 3460SOL     OW10416   1.934   3.890   4.042
 3460SOL    HW110417   1.917   3.973   3.988
 3460SOL    HW210418   2.024   3.853   4.020
 3461SOL     OW10419   3.045   5.059   3.843
 3461SOL    HW110420   2.946   5.048   3.845
 3461SOL    HW210421   3.079   5.074   3.936
 3462SOL     OW10422   2.475   4.566   5.155
 3462SOL    HW110423   2.531   4.647   5.138
 3462SOL    HW210424   2.534   4.486   5.158
 3463SOL     OW10425   2.578   4.289   5.432
 3463SOL    HW110426   2.597   4.354   5.506
 3463SOL    HW210427   2.638   4.209   5.441
 3464SOL     OW10428   2.252   5.465   5.284
 3464SOL    HW110429   2.161   5.506   5.282
 3464SOL    HW210430   2.245   5.371   5.316
 3465SOL     OW10431   3.536   4.607   4.978
 3465SOL    HW110432   3.509   4.518   4.941
 3465SOL    HW210433   3.537   4.675   4.905
 3466SOL     OW10434   3.087   4.049   4.173
 3466SOL    HW110435   3.152   3.975   4.162
 3466SOL    HW210436   3.107   4.099   4.257
 3467SOL     OW10437   2.456   4.469   4.376
 3467SOL    HW110438   2.506   4.554   4.357
 3467SOL    HW210439   2.368   4.471   4.328
 3468SOL     OW10440   3.639   4.066   5.366
 3468SOL    HW110441   3.622   4.097   5.272
 3468SOL    HW210442   3.555   4.029   5.404
 3469SOL     OW10443   3.592   4.658   5.241
 3469SOL    HW110444   3.630   4.749   5.256
 3469SOL    HW210445   3.584   4.641   5.142
 3470SOL     OW10446   2.721   5.098   3.740
 3470SOL    HW110447   2.675   5.113   3.828
 3470SOL    HW210448   2.765   5.183   3.710
 3471SOL     OW10449   2.721   4.680   4.585
 3471SOL    HW110450   2.775   4.611   4.633
 3471SOL    HW210451   2.689   4.749   4.651
 3472SOL     OW10452   2.945   4.708   3.811
 3472SOL    HW110453   2.922   4.761   3.729
 3472SOL    HW210454   3.026   4.652   3.792
 3473SOL     OW10455   3.723   5.293   4.575
 3473SOL    HW110456   3.652   5.281   4.505
 3473SOL    HW210457   3.724   5.214   4.635
 3474SOL     OW10458   1.941   4.964   4.377
 3474SOL    HW110459   1.940   4.917   4.465
 3474SOL    HW210460   2.023   4.936   4.326
 3475SOL     OW10461   2.534   5.115   5.348
 3475SOL    HW110462   2.456   5.065   5.386
 3475SOL    HW210463   2.531   5.210   5.379
 3476SOL     OW10464   3.686   3.916   4.951
 3476SOL    HW110465   3.682   3.826   4.995
 3476SOL    HW210466   3.689   3.905   4.852
 3477SOL     OW10467   2.290   4.148   4.244
 3477SOL    HW110468   2.320   4.076   4.182
 3477SOL    HW210469   2.251   4.108   4.327
 3478SOL     OW10470   3.567   5.211   4.828
 3478SOL    HW110471   3.474   5.186   4.801
 3478SOL    HW210472   3.593   5.161   4.910
 3479SOL     OW10473   2.179   4.271   5.004
 3479SOL    HW110474   2.217   4.212   5.076
 3479SOL    HW210475   2.219   4.245   4.916
 3480SOL     OW10476   3.286   3.938   4.836
 3480SOL    HW110477   3.338   3.873   4.891
 3480SOL    HW210478   3.237   4.001   4.897
 3481SOL     OW10479   2.863   3.758   4.878
 3481SOL    HW110480   2.800   3.686   4.847
 3481SOL    HW210481   2.956   3.722   4.878
 3482SOL     OW10482   2.632   5.054   4.025
 3482SOL    HW110483   2.586   4.967   4.042
 3482SOL    HW210484   2.723   5.051   4.066
 3483SOL     OW10485   2.480   5.291   5.008
 3483SOL    HW110486   2.475   5.373   5.065
 3483SOL    HW210487   2.569   5.288   4.963
 3484SOL     OW10488   3.214   3.776   3.892
 3484SOL    HW110489   3.249   3.735   3.808
 3484SOL    HW210490   3.124   3.738   3.912
 3485SOL     OW10491   3.162   4.177   4.415
 3485SOL    HW110492   3.103   4.257   4.419
 3485SOL    HW210493   3.177   4.142   4.508
 3486SOL     OW10494   3.455   3.945   4.606
 3486SOL    HW110495   3.371   3.944   4.660
 3486SOL    HW210496   3.457   4.028   4.550
 3487SOL     OW10497   1.901   4.801   4.024
 3487SOL    HW110498   2.000   4.790   4.015
 3487SOL    HW210499   1.861   4.715   4.056
 3488SOL     OW10500   3.954   0.628   0.113
 3488SOL    HW110501   3.861   0.626   0.150
 3488SOL    HW210502   3.955   0.589   0.021
 3489SOL     OW10503   3.949   0.275   0.996
 3489SOL    HW110504   3.984   0.258   1.088
 3489SOL    HW210505   3.861   0.230   0.984
 3490SOL     OW10506   3.743   0.368   0.647
 3490SOL    HW110507   3.661   0.411   0.686
 3490SOL    HW210508   3.715   0.295   0.584
 3491SOL     OW10509   4.293   1.275   1.165
 3491SOL    HW110510   4.200   1.268   1.128
 3491SOL    HW210511   4.304   1.364   1.209
 3492SOL     OW10512   5.279   1.511   0.703
 3492SOL    HW110513   5.222   1.495   0.784
 3492SOL    HW210514   5.220   1.521   0.623
 3493SOL     OW10515   4.859   0.703   0.717
 3493SOL    HW110516   4.916   0.781   0.692
 3493SOL    HW210517   4.799   0.729   0.793
 3494SOL     OW10518   4.492   1.144   1.023
 3494SOL    HW110519   4.414   1.161   1.083
 3494SOL    HW210520   4.526   1.231   0.987
 3495SOL     OW10521   4.574   0.798   1.823
 3495SOL    HW110522   4.570   0.874   1.888
 3495SOL    HW210523   4.596   0.834   1.732
 3496SOL     OW10524   4.409   1.012   0.665
 3496SOL    HW110525   4.478   0.996   0.735
 3496SOL    HW210526   4.336   1.069   0.703
 3497SOL     OW10527   4.410   1.161   1.803
 3497SOL    HW110528   4.470   1.240   1.817
 3497SOL    HW210529   4.324   1.192   1.762
 3498SOL     OW10530   4.059   1.435   1.061
 3498SOL    HW110531   3.981   1.404   1.008
 3498SOL    HW210532   4.117   1.493   1.004
 3499SOL     OW10533   5.184   1.505   1.339
 3499SOL    HW110534   5.208   1.599   1.365
 3499SOL    HW210535   5.168   1.451   1.421
 3500SOL     OW10536   4.162   0.392   1.499
 3500SOL    HW110537   4.244   0.336   1.508
 3500SOL    HW210538   4.081   0.334   1.503
 3501SOL     OW10539   3.955   1.713   0.483
 3501SOL    HW110540   3.989   1.790   0.537
 3501SOL    HW210541   3.999   1.713   0.393
 3502SOL     OW10542   4.851   1.341   1.690
 3502SOL    HW110543   4.898   1.341   1.778
 3502SOL    HW210544   4.803   1.254   1.679
 3503SOL     OW10545   3.954   1.434   0.538
 3503SOL    HW110546   3.928   1.530   0.538
 3503SOL    HW210547   3.883   1.380   0.583
 3504SOL     OW10548   3.964   1.091   0.886
 3504SOL    HW110549   3.978   1.007   0.938
 3504SOL    HW210550   3.909   1.155   0.941
 3505SOL     OW10551   4.344   1.786   1.439
 3505SOL    HW110552   4.252   1.769   1.474
 3505SOL    HW210553   4.372   1.878   1.465
 3506SOL     OW10554   4.330   0.964   0.123
 3506SOL    HW110555   4.337   1.048   0.069
 3506SOL    HW210556   4.376   0.977   0.211
 3507SOL     OW10557   5.318   0.114   1.480
 3507SOL    HW110558   5.300   0.181   1.408
 3507SOL    HW210559   5.315   0.160   1.569
 3508SOL     OW10560   3.846   0.643   0.563
 3508SOL    HW110561   3.801   0.555   0.580
 3508SOL    HW210562   3.845   0.697   0.647
 3509SOL     OW10563   3.751   1.596   0.117
 3509SOL    HW110564   3.732   1.500   0.138
 3509SOL    HW210565   3.718   1.654   0.192
 3510SOL     OW10566   5.413   0.922   0.612
 3510SOL    HW110567   5.508   0.893   0.620
 3510SOL    HW210568   5.405   0.987   0.537
 3511SOL     OW10569   3.837   0.737   1.597
 3511SOL    HW110570   3.925   0.724   1.642
 3511SOL    HW210571   3.824   0.834   1.575
 3512SOL     OW10572   4.337   1.365   0.726
 3512SOL    HW110573   4.288   1.278   0.735
 3512SOL    HW210574   4.314   1.408   0.639
 3513SOL     OW10575   5.017   1.228   1.423
 3513SOL    HW110576   5.054   1.155   1.365
 3513SOL    HW210577   5.069   1.233   1.508
 3514SOL     OW10578   4.533   0.004   0.502
 3514SOL    HW110579   4.573   0.095   0.493
 3514SOL    HW210580   4.433   0.012   0.508
 3515SOL     OW10581   3.921   0.976   1.264
 3515SOL    HW110582   4.010   0.931   1.250
 3515SOL    HW210583   3.848   0.911   1.245
 3516SOL     OW10584   4.911   1.792   1.616
 3516SOL    HW110585   4.935   1.852   1.540
 3516SOL    HW210586   4.918   1.697   1.586
 3517SOL     OW10587   4.041   0.251   1.801
 3517SOL    HW110588   4.112   0.322   1.807
 3517SOL    HW210589   3.953   0.290   1.829
 3518SOL     OW10590   5.190   1.417   0.953
 3518SOL    HW110591   5.131   1.423   1.033
 3518SOL    HW210592   5.175   1.329   0.907
 3519SOL     OW10593   5.391   1.714   0.572
 3519SOL    HW110594   5.350   1.691   0.484
 3519SOL    HW210595   5.373   1.640   0.637
 3520SOL     OW10596   4.322   0.729   0.270
 3520SOL    HW110597   4.346   0.798   0.202
 3520SOL    HW210598   4.244   0.762   0.324
 3521SOL     OW10599   5.005   0.345   0.944
 3521SOL    HW110600   4.919   0.295   0.931
 3521SOL    HW210601   5.067   0.291   1.000
 3522SOL     OW10602   4.531   0.605   1.465
 3522SOL    HW110603   4.484   0.602   1.554
 3522SOL    HW210604   4.480   0.550   1.399
 3523SOL     OW10605   5.118   0.469   1.674
 3523SOL    HW110606   5.098   0.512   1.762
 3523SOL    HW210607   5.196   0.407   1.683
 3524SOL     OW10608   4.697   0.890   1.572
 3524SOL    HW110609   4.743   0.806   1.543
 3524SOL    HW210610   4.641   0.924   1.497
 3525SOL     OW10611   4.715   0.410   1.242
 3525SOL    HW110612   4.638   0.444   1.296
 3525SOL    HW210613   4.681   0.359   1.163
 3526SOL     OW10614   4.765   0.701   0.429
 3526SOL    HW110615   4.791   0.697   0.525
 3526SOL    HW210616   4.680   0.650   0.415
 3527SOL     OW10617   3.800   0.811   0.789
 3527SOL    HW110618   3.899   0.799   0.798
 3527SOL    HW210619   3.776   0.906   0.810
 3528SOL     OW10620   3.854   1.821   1.571
 3528SOL    HW110621   3.844   1.806   1.670
 3528SOL    HW210622   3.768   1.857   1.535
 3529SOL     OW10623   4.589   0.348   0.195
 3529SOL    HW110624   4.648   0.411   0.146
 3529SOL    HW210625   4.608   0.254   0.166
 3530SOL     OW10626   5.086   1.144   0.545
 3530SOL    HW110627   5.169   1.115   0.497
 3530SOL    HW210628   5.037   1.211   0.489
 3531SOL     OW10629   4.274   0.196   0.885
 3531SOL    HW110630   4.269   0.191   0.985
 3531SOL    HW210631   4.276   0.292   0.856
 3532SOL     OW10632   4.732   1.456   0.477
 3532SOL    HW110633   4.686   1.528   0.425
 3532SOL    HW210634   4.728   1.476   0.575
 3533SOL     OW10635   4.075   1.801   0.853
 3533SOL    HW110636   4.125   1.715   0.859
 3533SOL    HW210637   4.140   1.878   0.850
 3534SOL     OW10638   4.951   1.550   1.506
 3534SOL    HW110639   4.957   1.473   1.570
 3534SOL    HW210640   4.899   1.524   1.426
 3535SOL     OW10641   4.045   0.943   0.242
 3535SOL    HW110642   4.127   0.982   0.200
 3535SOL    HW210643   4.018   0.861   0.193
 3536SOL     OW10644   5.182   0.735   0.728
 3536SOL    HW110645   5.177   0.670   0.803
 3536SOL    HW210646   5.262   0.794   0.741
 3537SOL     OW10647   4.185   1.266   1.727
 3537SOL    HW110648   4.135   1.267   1.641
 3537SOL    HW210649   4.122   1.248   1.803
 3538SOL     OW10650   4.835   1.776   0.237
 3538SOL    HW110651   4.775   1.714   0.287
 3538SOL    HW210652   4.866   1.732   0.152
 3539SOL     OW10653   3.926   0.285   1.498
 3539SOL    HW110654   3.846   0.345   1.485
 3539SOL    HW210655   3.916   0.236   1.584
 3540SOL     OW10656   4.188   1.743   0.323
 3540SOL    HW110657   4.221   1.782   0.409
 3540SOL    HW210658   4.264   1.736   0.258
 3541SOL     OW10659   5.124   0.107   0.426
 3541SOL    HW110660   5.100   0.070   0.336
 3541SOL    HW210661   5.223   0.123   0.430
 3542SOL     OW10662   3.973   1.785   1.241
 3542SOL    HW110663   4.030   1.720   1.291
 3542SOL    HW210664   3.957   1.752   1.148
 3543SOL     OW10665   4.664   1.698   0.904
 3543SOL    HW110666   4.744   1.641   0.925
 3543SOL    HW210667   4.615   1.658   0.827
 3544SOL     OW10668   4.106   0.700   0.480
 3544SOL    HW110669   4.151   0.610   0.477
 3544SOL    HW210670   4.012   0.689   0.513
 3545SOL     OW10671   4.338   0.122   0.117
 3545SOL    HW110672   4.436   0.100   0.124
 3545SOL    HW210673   4.307   0.105   0.024
 3546SOL     OW10674   4.505   0.264   1.749
 3546SOL    HW110675   4.572   0.203   1.792
 3546SOL    HW210676   4.432   0.283   1.814
 3547SOL     OW10677   4.612   1.514   1.195
 3547SOL    HW110678   4.589   1.489   1.101
 3547SOL    HW210679   4.673   1.445   1.234
 3548SOL     OW10680   5.075   0.590   1.433
 3548SOL    HW110681   5.103   0.547   1.518
 3548SOL    HW210682   5.100   0.686   1.434
 3549SOL     OW10683   4.527   1.402   0.924
 3549SOL    HW110684   4.617   1.416   0.882
 3549SOL    HW210685   4.456   1.404   0.853
 3550SOL     OW10686   4.646   0.503   0.899
 3550SOL    HW110687   4.621   0.494   0.803
 3550SOL    HW210688   4.694   0.421   0.930
 3551SOL     OW10689   4.263   0.064   0.512
 3551SOL    HW110690   4.182   0.065   0.570
 3551SOL    HW210691   4.266   0.147   0.457
 3552SOL     OW10692   5.158   1.188   0.041
 3552SOL    HW110693   5.190   1.112   0.098
 3552SOL    HW210694   5.066   1.215   0.071
 3553SOL     OW10695   4.021   0.035   0.171
 3553SOL    HW110696   4.070   0.119   0.150
 3553SOL    HW210697   4.083  -0.030   0.216
 3554SOL     OW10698   4.659   0.236   0.480
 3554SOL    HW110699   4.611   0.277   0.402
 3554SOL    HW210700   4.758   0.234   0.461
 3555SOL     OW10701   4.800   0.683   1.464
 3555SOL    HW110702   4.720   0.622   1.467
 3555SOL    HW210703   4.881   0.630   1.440
 3556SOL     OW10704   4.951   1.570   0.793
 3556SOL    HW110705   4.972   1.644   0.728
 3556SOL    HW210706   5.019   1.570   0.866
 3557SOL     OW10707   4.183   1.152   0.741
 3557SOL    HW110708   4.112   1.125   0.806
 3557SOL    HW210709   4.157   1.124   0.648
 3558SOL     OW10710   4.995   1.797   0.591
 3558SOL    HW110711   5.039   1.861   0.527
 3558SOL    HW210712   4.945   1.849   0.661
 3559SOL     OW10713   4.756   0.549   0.016
 3559SOL    HW110714   4.715   0.631  -0.023
 3559SOL    HW210715   4.820   0.575   0.089
 3560SOL     OW10716   3.802   0.556   1.386
 3560SOL    HW110717   3.894   0.555   1.345
 3560SOL    HW210718   3.796   0.630   1.453
 3561SOL     OW10719   4.285   0.222   1.147
 3561SOL    HW110720   4.323   0.138   1.184
 3561SOL    HW210721   4.197   0.241   1.191
 3562SOL     OW10722   4.590   0.454   0.642
 3562SOL    HW110723   4.558   0.526   0.580
 3562SOL    HW210724   4.614   0.373   0.589
 3563SOL     OW10725   4.741   0.039   0.753
 3563SOL    HW110726   4.669   0.044   0.684
 3563SOL    HW210727   4.717  -0.030   0.822
 3564SOL     OW10728   5.153   1.173   0.867
 3564SOL    HW110729   5.098   1.089   0.860
 3564SOL    HW210730   5.179   1.202   0.775
 3565SOL     OW10731   5.190   0.590   0.992
 3565SOL    HW110732   5.160   0.495   0.999
 3565SOL    HW210733   5.263   0.606   1.058
 3566SOL     OW10734   4.212   1.385   0.174
 3566SOL    HW110735   4.125   1.370   0.221
 3566SOL    HW210736   4.195   1.411   0.079
 3567SOL     OW10737   5.114   0.575   0.078
 3567SOL    HW110738   5.060   0.554   0.159
 3567SOL    HW210739   5.205   0.534   0.087
 3568SOL     OW10740   4.251   0.256   0.328
 3568SOL    HW110741   4.278   0.197   0.253
 3568SOL    HW210742   4.251   0.351   0.297
 3569SOL     OW10743   4.788   1.347   1.340
 3569SOL    HW110744   4.708   1.324   1.395
 3569SOL    HW210745   4.871   1.321   1.389
 3570SOL     OW10746   5.316   1.629   1.625
 3570SOL    HW110747   5.343   1.663   1.535
 3570SOL    HW210748   5.395   1.591   1.671
 3571SOL     OW10749   4.835   1.195   1.100
 3571SOL    HW110750   4.795   1.239   1.181
 3571SOL    HW210751   4.794   1.232   1.017
 3572SOL     OW10752   4.639   0.089   1.402
 3572SOL    HW110753   4.664   0.069   1.307
 3572SOL    HW210754   4.711   0.145   1.444
 3573SOL     OW10755   4.704   1.116   1.719
 3573SOL    HW110756   4.605   1.122   1.729
 3573SOL    HW210757   4.727   1.036   1.663
 3574SOL     OW10758   4.429   1.050   0.368
 3574SOL    HW110759   4.415   1.057   0.467
 3574SOL    HW210760   4.513   0.999   0.350
 3575SOL     OW10761   4.134   0.813   1.251
 3575SOL    HW110762   4.220   0.825   1.301
 3575SOL    HW210763   4.092   0.726   1.278
 3576SOL     OW10764   4.998   0.386   1.262
 3576SOL    HW110765   5.019   0.460   1.326
 3576SOL    HW210766   4.909   0.403   1.219
 3577SOL     OW10767   3.788   1.564   1.331
 3577SOL    HW110768   3.742   1.646   1.297
 3577SOL    HW210769   3.886   1.583   1.340
 3578SOL     OW10770   4.091   1.100   0.501
 3578SOL    HW110771   4.084   1.183   0.445
 3578SOL    HW210772   4.095   1.020   0.441
 3579SOL     OW10773   4.290   0.537   0.865
 3579SOL    HW110774   4.302   0.603   0.791
 3579SOL    HW210775   4.336   0.571   0.948
 3580SOL     OW10776   4.976   1.348   0.388
 3580SOL    HW110777   5.026   1.425   0.428
 3580SOL    HW210778   4.881   1.350   0.420
 3581SOL     OW10779   4.996   1.445   1.142
 3581SOL    HW110780   5.043   1.458   1.229
 3581SOL    HW210781   4.930   1.371   1.151
 3582SOL     OW10782   5.306   0.639   0.472
 3582SOL    HW110783   5.275   0.700   0.545
 3582SOL    HW210784   5.356   0.691   0.403
 3583SOL     OW10785   4.078   1.510   1.329
 3583SOL    HW110786   4.057   1.466   1.242
 3583SOL    HW210787   4.175   1.536   1.332
 3584SOL     OW10788   4.126   0.751   1.598
 3584SOL    HW110789   4.194   0.806   1.551
 3584SOL    HW210790   4.166   0.663   1.625
 3585SOL     OW10791   4.737   0.105   1.770
 3585SOL    HW110792   4.743   0.190   1.718
 3585SOL    HW210793   4.769   0.029   1.713
 3586SOL     OW10794   4.228   0.050   1.740
 3586SOL    HW110795   4.186  -0.007   1.670
 3586SOL    HW210796   4.162   0.119   1.772
 3587SOL     OW10797   4.297   0.870   1.029
 3587SOL    HW110798   4.341   0.959   1.020
 3587SOL    HW210799   4.234   0.870   1.106
 3588SOL     OW10800   5.084   0.862   1.045
 3588SOL    HW110801   5.009   0.862   0.979
 3588SOL    HW210802   5.121   0.770   1.054
 3589SOL     OW10803   4.933   0.525   0.275
 3589SOL    HW110804   4.946   0.441   0.329
 3589SOL    HW210805   4.904   0.599   0.335
 3590SOL     OW10806   4.031   0.213   1.231
 3590SOL    HW110807   4.008   0.250   1.321
 3590SOL    HW210808   4.001   0.118   1.225
 3591SOL     OW10809   3.761   1.310   1.282
 3591SOL    HW110810   3.814   1.261   1.350
 3591SOL    HW210811   3.783   1.408   1.287
 3592SOL     OW10812   4.456   0.634   1.064
 3592SOL    HW110813   4.515   0.608   0.988
 3592SOL    HW210814   4.428   0.730   1.053
 3593SOL     OW10815   4.031   0.063   0.618
 3593SOL    HW110816   4.020   0.157   0.651
 3593SOL    HW210817   4.026   0.000   0.695
 3594SOL     OW10818   5.346   0.367   0.374
 3594SOL    HW110819   5.348   0.291   0.438
 3594SOL    HW210820   5.298   0.444   0.414
 3595SOL     OW10821   4.747   0.766   0.966
 3595SOL    HW110822   4.762   0.787   1.062
 3595SOL    HW210823   4.717   0.671   0.957
 3596SOL     OW10824   4.704   1.573   1.700
 3596SOL    HW110825   4.684   1.617   1.612
 3596SOL    HW210826   4.743   1.482   1.684
 3597SOL     OW10827   4.074   0.898   1.804
 3597SOL    HW110828   4.150   0.942   1.852
 3597SOL    HW210829   4.109   0.851   1.722
 3598SOL     OW10830   5.264   0.274   0.125
 3598SOL    HW110831   5.203   0.199   0.148
 3598SOL    HW210832   5.286   0.326   0.208
 3599SOL     OW10833   5.027   0.838   0.042
 3599SOL    HW110834   5.061   0.745   0.057
 3599SOL    HW210835   5.045   0.865  -0.053
 3600SOL     OW10836   4.792   1.333   0.849
 3600SOL    HW110837   4.799   1.249   0.794
 3600SOL    HW210838   4.854   1.402   0.813
 3601SOL     OW10839   4.043   0.810   0.949
 3601SOL    HW110840   4.136   0.846   0.954
 3601SOL    HW210841   4.037   0.725   1.001
 3602SOL     OW10842   4.063   0.509   1.006
 3602SOL    HW110843   4.011   0.426   0.989
 3602SOL    HW210844   4.140   0.514   0.942
 3603SOL     OW10845   4.862   0.380   1.678
 3603SOL    HW110846   4.817   0.443   1.742
 3603SOL    HW210847   4.955   0.411   1.661
 3604SOL     OW10848   4.884   0.207   1.477
 3604SOL    HW110849   4.884   0.271   1.554
 3604SOL    HW210850   4.912   0.255   1.394
 3605SOL     OW10851   3.732   1.326   0.200
 3605SOL    HW110852   3.639   1.347   0.169
 3605SOL    HW210853   3.742   1.227   0.213
 3606SOL     OW10854   3.812   1.801   0.927
 3606SOL    HW110855   3.770   1.715   0.900
 3606SOL    HW210856   3.906   1.804   0.893
 3607SOL     OW10857   4.228   1.568   0.910
 3607SOL    HW110858   4.294   1.642   0.919
 3607SOL    HW210859   4.272   1.489   0.868
 3608SOL     OW10860   4.726   0.796   1.238
 3608SOL    HW110861   4.767   0.764   1.324
 3608SOL    HW210862   4.630   0.769   1.235
 3609SOL     OW10863   3.764   0.544   1.114
 3609SOL    HW110864   3.849   0.511   1.073
 3609SOL    HW210865   3.777   0.559   1.212
 3610SOL     OW10866   3.913   0.520   1.722
 3610SOL    HW110867   3.972   0.480   1.652
 3610SOL    HW210868   3.855   0.591   1.681
 3611SOL     OW10869   5.093   0.950   1.660
 3611SOL    HW110870   5.132   1.039   1.680
 3611SOL    HW210871   5.103   0.930   1.563
 3612SOL     OW10872   4.539   0.572   0.325
 3612SOL    HW110873   4.546   0.483   0.279
 3612SOL    HW210874   4.445   0.606   0.317
 3613SOL     OW10875   3.976   1.564   1.744
 3613SOL    HW110876   3.946   1.621   1.820
 3613SOL    HW210877   3.969   1.467   1.770
 3614SOL     OW10878   4.395   0.464   1.269
 3614SOL    HW110879   4.361   0.375   1.239
 3614SOL    HW210880   4.421   0.518   1.189
 3615SOL     OW10881   4.654   1.678   1.465
 3615SOL    HW110882   4.630   1.660   1.370
 3615SOL    HW210883   4.684   1.772   1.475
 3616SOL     OW10884   4.197   0.500   0.191
 3616SOL    HW110885   4.258   0.580   0.195
 3616SOL    HW210886   4.102   0.531   0.198
 3617SOL     OW10887   3.883   1.137   1.466
 3617SOL    HW110888   3.905   1.076   1.542
 3617SOL    HW210889   3.893   1.088   1.380
 3618SOL     OW10890   5.071   1.059   1.234
 3618SOL    HW110891   5.095   0.996   1.160
 3618SOL    HW210892   4.981   1.099   1.216
 3619SOL     OW10893   5.026   0.855   0.309
 3619SOL    HW110894   4.940   0.824   0.351
 3619SOL    HW210895   5.022   0.841   0.210
 3620SOL     OW10896   4.976   1.731   1.128
 3620SOL    HW110897   5.060   1.736   1.074
 3620SOL    HW210898   4.953   1.635   1.146
 3621SOL     OW10899   3.807   1.258   1.022
 3621SOL    HW110900   3.802   1.257   1.122
 3621SOL    HW210901   3.724   1.217   0.984
 3622SOL     OW10902   4.412   1.662   1.716
 3622SOL    HW110903   4.356   1.743   1.725
 3622SOL    HW210904   4.464   1.666   1.630
 3623SOL     OW10905   4.627   0.086   0.133
 3623SOL    HW110906   4.678   0.087   0.047
 3623SOL    HW210907   4.683   0.044   0.204
 3624SOL     OW10908   5.450   0.135   0.523
 3624SOL    HW110909   5.523   0.118   0.456
 3624SOL    HW210910   5.419   0.048   0.561
 3625SOL     OW10911   5.112   1.573   0.477
 3625SOL    HW110912   5.179   1.585   0.403
 3625SOL    HW210913   5.072   1.662   0.500
 3626SOL     OW10914   3.854   1.794   1.851
 3626SOL    HW110915   3.813   1.720   1.904
 3626SOL    HW210916   3.918   1.845   1.909
 3627SOL     OW10917   5.004   0.927   0.672
 3627SOL    HW110918   5.064   0.846   0.674
 3627SOL    HW210919   5.044   0.996   0.612
 3628SOL     OW10920   4.554   1.273   1.422
 3628SOL    HW110921   4.549   1.306   1.517
 3628SOL    HW210922   4.468   1.292   1.376
 3629SOL     OW10923   4.396   1.616   0.154
 3629SOL    HW110924   4.405   1.626   0.055
 3629SOL    HW210925   4.356   1.527   0.175
 3630SOL     OW10926   3.987   0.326   0.720
 3630SOL    HW110927   3.908   0.377   0.686
 3630SOL    HW210928   3.978   0.311   0.818
 3631SOL     OW10929   4.918   1.612   0.031
 3631SOL    HW110930   4.924   1.519   0.068
 3631SOL    HW210931   4.859   1.612  -0.049
 3632SOL     OW10932   4.546   1.002   1.372
 3632SOL    HW110933   4.586   1.001   1.280
 3632SOL    HW210934   4.556   1.094   1.412
 3633SOL     OW10935   4.640   0.910   0.291
 3633SOL    HW110936   4.703   0.948   0.223
 3633SOL    HW210937   4.680   0.827   0.330
 3634SOL     OW10938   5.228   1.607   0.044
 3634SOL    HW110939   5.136   1.644   0.051
 3634SOL    HW210940   5.266   1.627  -0.046
 3635SOL     OW10941   4.096   1.288   1.490
 3635SOL    HW110942   4.083   1.381   1.456
 3635SOL    HW210943   4.012   1.236   1.477
 3636SOL     OW10944   4.763   1.098   0.696
 3636SOL    HW110945   4.693   1.051   0.750
 3636SOL    HW210946   4.822   1.030   0.653
 3637SOL     OW10947   4.738   0.236   0.971
 3637SOL    HW110948   4.730   0.200   0.878
 3637SOL    HW210949   4.736   0.160   1.036
 3638SOL     OW10950   4.314   1.487   0.491
 3638SOL    HW110951   4.356   1.429   0.421
 3638SOL    HW210952   4.270   1.566   0.447
 3639SOL     OW10953   3.979   1.348   0.290
 3639SOL    HW110954   3.883   1.349   0.263
 3639SOL    HW210955   3.991   1.401   0.374
 3640SOL     OW10956   3.829   1.013   1.726
 3640SOL    HW110957   3.752   0.980   1.780
 3640SOL    HW210958   3.914   0.983   1.768
 3641SOL     OW10959   4.396   0.203   1.489
 3641SOL    HW110960   4.486   0.187   1.449
 3641SOL    HW210961   4.404   0.208   1.588
 3642SOL     OW10962   5.164   0.856   1.398
 3642SOL    HW110963   5.107   0.908   1.335
 3642SOL    HW210964   5.260   0.868   1.374
 3643SOL     OW10965   3.796   0.166   0.318
 3643SOL    HW110966   3.779   0.249   0.264
 3643SOL    HW210967   3.886   0.129   0.296
 3644SOL     OW10968   4.907   1.335   0.119
 3644SOL    HW110969   4.808   1.324   0.121
 3644SOL    HW210970   4.941   1.350   0.212
 3645SOL     OW10971   4.337   0.842   1.431
 3645SOL    HW110972   4.393   0.923   1.414
 3645SOL    HW210973   4.396   0.762   1.434
 3646SOL     OW10974   5.217   1.767   0.959
 3646SOL    HW110975   5.250   1.831   0.890
 3646SOL    HW210976   5.283   1.761   1.034
 3647SOL     OW10977   4.440   0.565   1.708
 3647SOL    HW110978   4.459   0.630   1.782
 3647SOL    HW210979   4.500   0.485   1.717
 3648SOL     OW10980   5.174   1.220   1.633
 3648SOL    HW110981   5.165   1.210   1.732
 3648SOL    HW210982   5.270   1.213   1.607
 3649SOL     OW10983   4.114   1.741   1.560
 3649SOL    HW110984   4.023   1.782   1.558
 3649SOL    HW210985   4.107   1.647   1.592
 3650SOL     OW10986   4.949   0.325   0.449
 3650SOL    HW110987   5.014   0.251   0.438
 3650SOL    HW210988   4.969   0.375   0.533
 3651SOL     OW10989   4.318   0.745   0.652
 3651SOL    HW110990   4.368   0.830   0.633
 3651SOL    HW210991   4.230   0.747   0.604
 3652SOL     OW10992   4.583   1.374   0.016
 3652SOL    HW110993   4.537   1.389   0.104
 3652SOL    HW210994   4.627   1.459  -0.014
 3653SOL     OW10995   4.385   1.790   0.953
 3653SOL    HW110996   4.339   1.878   0.940
 3653SOL    HW210997   4.484   1.802   0.946
 3654SOL     OW10998   4.583   0.956   0.861
 3654SOL    HW110999   4.637   0.887   0.909
 3654SOL    HW211000   4.551   1.025   0.927
 3655SOL     OW11001   4.807   0.984   0.087
 3655SOL    HW111002   4.784   1.037   0.005
 3655SOL    HW211003   4.888   0.928   0.068
 3656SOL     OW11004   5.585   1.569   0.851
 3656SOL    HW111005   5.514   1.557   0.781
 3656SOL    HW211006   5.586   1.490   0.911
 3657SOL     OW11007   3.945   1.314   1.844
 3657SOL    HW111008   3.880   1.241   1.823
 3657SOL    HW211009   3.949   1.328   1.942
 3658SOL     OW11010   3.803   1.240   0.653
 3658SOL    HW111011   3.802   1.193   0.741
 3658SOL    HW211012   3.885   1.212   0.602
 3659SOL     OW11013   4.396   1.391   1.624
 3659SOL    HW111014   4.318   1.341   1.662
 3659SOL    HW211015   4.393   1.486   1.655
 3660SOL     OW11016   4.152   0.424   0.520
 3660SOL    HW111017   4.182   0.352   0.458
 3660SOL    HW211018   4.113   0.384   0.603
 3661SOL     OW11019   4.041   0.547   1.280
 3661SOL    HW111020   4.079   0.488   1.352
 3661SOL    HW211021   4.081   0.521   1.192
 3662SOL     OW11022   4.536   1.586   0.687
 3662SOL    HW111023   4.568   1.596   0.593
 3662SOL    HW211024   4.457   1.524   0.689
 3663SOL     OW11025   5.148   0.214   1.112
 3663SOL    HW111026   5.200   0.149   1.167
 3663SOL    HW211027   5.099   0.277   1.173
 3664SOL     OW11028   4.725   0.034   1.154
 3664SOL    HW111029   4.662  -0.038   1.123
 3664SOL    HW211030   4.818  -0.002   1.154
 3665SOL     OW11031   4.494   1.330   0.301
 3665SOL    HW111032   4.448   1.243   0.318
 3665SOL    HW211033   4.585   1.327   0.342
 3666SOL     OW11034   4.342   1.567   1.284
 3666SOL    HW111035   4.337   1.649   1.341
 3666SOL    HW211036   4.431   1.564   1.239
 3667SOL     OW11037   5.076   0.052   0.168
 3667SOL    HW111038   5.111   0.011   0.084
 3667SOL    HW211039   4.986   0.014   0.188
 3668SOL     OW11040   5.024   0.453   0.691
 3668SOL    HW111041   4.965   0.533   0.695
 3668SOL    HW211042   5.039   0.418   0.784
 3669SOL     OW11043   5.317   0.221   0.882
 3669SOL    HW111044   5.233   0.220   0.936
 3669SOL    HW211045   5.319   0.304   0.826
 3670SOL     OW11046   3.763   1.077   0.300
 3670SOL    HW111047   3.862   1.066   0.291
 3670SOL    HW211048   3.723   0.991   0.332
 3671SOL     OW11049   4.599   1.646   0.337
 3671SOL    HW111050   4.522   1.611   0.283
 3671SOL    HW211051   4.567   1.717   0.399
 3672SOL     OW11052   3.954   0.628   1.975
 3672SOL    HW111053   3.861   0.626   2.012
 3672SOL    HW211054   3.955   0.589   1.883
 3673SOL     OW11055   3.949   0.275   2.858
 3673SOL    HW111056   3.984   0.258   2.950
 3673SOL    HW211057   3.861   0.230   2.846
 3674SOL     OW11058   3.743   0.368   2.509
 3674SOL    HW111059   3.661   0.411   2.548
 3674SOL    HW211060   3.715   0.295   2.446
 3675SOL     OW11061   4.293   1.275   3.027
 3675SOL    HW111062   4.200   1.268   2.990
 3675SOL    HW211063   4.304   1.364   3.071
 3676SOL     OW11064   5.279   1.511   2.565
 3676SOL    HW111065   5.222   1.495   2.646
 3676SOL    HW211066   5.220   1.521   2.485
 3677SOL     OW11067   4.859   0.703   2.579
 3677SOL    HW111068   4.916   0.781   2.554
 3677SOL    HW211069   4.799   0.729   2.655
 3678SOL     OW11070   4.492   1.144   2.885
 3678SOL    HW111071   4.414   1.161   2.945
 3678SOL    HW211072   4.526   1.231   2.849
 3679SOL     OW11073   4.574   0.798   3.685
 3679SOL    HW111074   4.570   0.874   3.750
 3679SOL    HW211075   4.596   0.834   3.594
 3680SOL     OW11076   4.409   1.012   2.527
 3680SOL    HW111077   4.478   0.996   2.597
 3680SOL    HW211078   4.336   1.069   2.565
 3681SOL     OW11079   4.410   1.161   3.665
 3681SOL    HW111080   4.470   1.240   3.679
 3681SOL    HW211081   4.324   1.192   3.624
 3682SOL     OW11082   4.059   1.435   2.923
 3682SOL    HW111083   3.981   1.404   2.870
 3682SOL    HW211084   4.117   1.493   2.866
 3683SOL     OW11085   5.184   1.505   3.201
 3683SOL    HW111086   5.208   1.599   3.227
 3683SOL    HW211087   5.168   1.451   3.283
 3684SOL     OW11088   4.162   0.392   3.361
 3684SOL    HW111089   4.244   0.336   3.370
 3684SOL    HW211090   4.081   0.334   3.365
 3685SOL     OW11091   3.955   1.713   2.345
 3685SOL    HW111092   3.989   1.790   2.399
 3685SOL    HW211093   3.999   1.713   2.255
 3686SOL     OW11094   4.851   1.341   3.552
 3686SOL    HW111095   4.898   1.341   3.640
 3686SOL    HW211096   4.803   1.254   3.541
 3687SOL     OW11097   3.954   1.434   2.400
 3687SOL    HW111098   3.928   1.530   2.400
 3687SOL    HW211099   3.883   1.380   2.445
 3688SOL     OW11100   3.964   1.091   2.748
 3688SOL    HW111101   3.978   1.007   2.800
 3688SOL    HW211102   3.909   1.155   2.803
 3689SOL     OW11103   4.344   1.786   3.301
 3689SOL    HW111104   4.252   1.769   3.336
 3689SOL    HW211105   4.372   1.878   3.327
 3690SOL     OW11106   4.330   0.964   1.985
 3690SOL    HW111107   4.337   1.048   1.931
 3690SOL    HW211108   4.376   0.977   2.073
 3691SOL     OW11109   5.318   0.114   3.342
 3691SOL    HW111110   5.300   0.181   3.270
 3691SOL    HW211111   5.315   0.160   3.431
 3692SOL     OW11112   3.846   0.643   2.425
 3692SOL    HW111113   3.801   0.555   2.442
 3692SOL    HW211114   3.845   0.697   2.509
 3693SOL     OW11115   3.751   1.596   1.979
 3693SOL    HW111116   3.732   1.500   2.000
 3693SOL    HW211117   3.718   1.654   2.054
 3694SOL     OW11118   5.413   0.922   2.474
 3694SOL    HW111119   5.508   0.893   2.482
 3694SOL    HW211120   5.405   0.987   2.399
 3695SOL     OW11121   3.837   0.737   3.459
 3695SOL    HW111122   3.925   0.724   3.504
 3695SOL    HW211123   3.824   0.834   3.437
 3696SOL     OW11124   4.337   1.365   2.588
 3696SOL    HW111125   4.288   1.278   2.597
 3696SOL    HW211126   4.314   1.408   2.501
 3697SOL     OW11127   5.017   1.228   3.285
 3697SOL    HW111128   5.054   1.155   3.227
 3697SOL    HW211129   5.069   1.233   3.370
 3698SOL     OW11130   4.533   0.004   2.364
 3698SOL    HW111131   4.573   0.095   2.355
 3698SOL    HW211132   4.433   0.012   2.370
 3699SOL     OW11133   3.921   0.976   3.126
 3699SOL    HW111134   4.010   0.931   3.112
 3699SOL    HW211135   3.848   0.911   3.107
 3700SOL     OW11136   4.911   1.792   3.478
 3700SOL    HW111137   4.935   1.852   3.402
 3700SOL    HW211138   4.918   1.697   3.448
 3701SOL     OW11139   4.041   0.251   3.663
 3701SOL    HW111140   4.112   0.322   3.669
 3701SOL    HW211141   3.953   0.290   3.691
 3702SOL     OW11142   5.190   1.417   2.815
 3702SOL    HW111143   5.131   1.423   2.895
 3702SOL    HW211144   5.175   1.329   2.769
 3703SOL     OW11145   5.391   1.714   2.434
 3703SOL    HW111146   5.350   1.691   2.346
 3703SOL    HW211147   5.373   1.640   2.499
 3704SOL     OW11148   4.322   0.729   2.132
 3704SOL    HW111149   4.346   0.798   2.064
 3704SOL    HW211150   4.244   0.762   2.186
 3705SOL     OW11151   5.005   0.345   2.806
 3705SOL    HW111152   4.919   0.295   2.793
 3705SOL    HW211153   5.067   0.291   2.862
 3706SOL     OW11154   4.531   0.605   3.327
 3706SOL    HW111155   4.484   0.602   3.416
 3706SOL    HW211156   4.480   0.550   3.261
 3707SOL     OW11157   5.118   0.469   3.536
 3707SOL    HW111158   5.098   0.512   3.624
 3707SOL    HW211159   5.196   0.407   3.545
 3708SOL     OW11160   4.697   0.890   3.434
 3708SOL    HW111161   4.743   0.806   3.405
 3708SOL    HW211162   4.641   0.924   3.359
 3709SOL     OW11163   4.715   0.410   3.104
 3709SOL    HW111164   4.638   0.444   3.158
 3709SOL    HW211165   4.681   0.359   3.025
 3710SOL     OW11166   4.765   0.701   2.291
 3710SOL    HW111167   4.791   0.697   2.387
 3710SOL    HW211168   4.680   0.650   2.277
 3711SOL     OW11169   3.800   0.811   2.651
 3711SOL    HW111170   3.899   0.799   2.660
 3711SOL    HW211171   3.776   0.906   2.672
 3712SOL     OW11172   3.854   1.821   3.433
 3712SOL    HW111173   3.844   1.806   3.532
 3712SOL    HW211174   3.768   1.857   3.397
 3713SOL     OW11175   4.589   0.348   2.057
 3713SOL    HW111176   4.648   0.411   2.008
 3713SOL    HW211177   4.608   0.254   2.028
 3714SOL     OW11178   5.086   1.144   2.407
 3714SOL    HW111179   5.169   1.115   2.359
 3714SOL    HW211180   5.037   1.211   2.351
 3715SOL     OW11181   4.274   0.196   2.747
 3715SOL    HW111182   4.269   0.191   2.847
 3715SOL    HW211183   4.276   0.292   2.718
 3716SOL     OW11184   4.732   1.456   2.339
 3716SOL    HW111185   4.686   1.528   2.287
 3716SOL    HW211186   4.728   1.476   2.437
 3717SOL     OW11187   4.075   1.801   2.715
 3717SOL    HW111188   4.125   1.715   2.721
 3717SOL    HW211189   4.140   1.878   2.712
 3718SOL     OW11190   4.951   1.550   3.368
 3718SOL    HW111191   4.957   1.473   3.432
 3718SOL    HW211192   4.899   1.524   3.288
 3719SOL     OW11193   4.045   0.943   2.104
 3719SOL    HW111194   4.127   0.982   2.062
 3719SOL    HW211195   4.018   0.861   2.055
 3720SOL     OW11196   5.182   0.735   2.590
 3720SOL    HW111197   5.177   0.670   2.665
 3720SOL    HW211198   5.262   0.794   2.603
 3721SOL     OW11199   4.185   1.266   3.589
 3721SOL    HW111200   4.135   1.267   3.503
 3721SOL    HW211201   4.122   1.248   3.665
 3722SOL     OW11202   4.835   1.776   2.099
 3722SOL    HW111203   4.775   1.714   2.149
 3722SOL    HW211204   4.866   1.732   2.014
 3723SOL     OW11205   3.926   0.285   3.360
 3723SOL    HW111206   3.846   0.345   3.347
 3723SOL    HW211207   3.916   0.236   3.446
 3724SOL     OW11208   4.188   1.743   2.185
 3724SOL    HW111209   4.221   1.782   2.271
 3724SOL    HW211210   4.264   1.736   2.120
 3725SOL     OW11211   5.124   0.107   2.288
 3725SOL    HW111212   5.100   0.070   2.198
 3725SOL    HW211213   5.223   0.123   2.292
 3726SOL     OW11214   3.973   1.785   3.103
 3726SOL    HW111215   4.030   1.720   3.153
 3726SOL    HW211216   3.957   1.752   3.010
 3727SOL     OW11217   4.664   1.698   2.766
 3727SOL    HW111218   4.744   1.641   2.787
 3727SOL    HW211219   4.615   1.658   2.689
 3728SOL     OW11220   4.106   0.700   2.342
 3728SOL    HW111221   4.151   0.610   2.339
 3728SOL    HW211222   4.012   0.689   2.375
 3729SOL     OW11223   4.338   0.122   1.979
 3729SOL    HW111224   4.436   0.100   1.986
 3729SOL    HW211225   4.307   0.105   1.886
 3730SOL     OW11226   4.505   0.264   3.611
 3730SOL    HW111227   4.572   0.203   3.654
 3730SOL    HW211228   4.432   0.283   3.676
 3731SOL     OW11229   4.612   1.514   3.057
 3731SOL    HW111230   4.589   1.489   2.963
 3731SOL    HW211231   4.673   1.445   3.096
 3732SOL     OW11232   5.075   0.590   3.295
 3732SOL    HW111233   5.103   0.547   3.380
 3732SOL    HW211234   5.100   0.686   3.296
 3733SOL     OW11235   4.527   1.402   2.786
 3733SOL    HW111236   4.617   1.416   2.744
 3733SOL    HW211237   4.456   1.404   2.715
 3734SOL     OW11238   4.646   0.503   2.761
 3734SOL    HW111239   4.621   0.494   2.665
 3734SOL    HW211240   4.694   0.421   2.792
 3735SOL     OW11241   4.263   0.064   2.374
 3735SOL    HW111242   4.182   0.065   2.432
 3735SOL    HW211243   4.266   0.147   2.319
 3736SOL     OW11244   5.158   1.188   1.903
 3736SOL    HW111245   5.190   1.112   1.960
 3736SOL    HW211246   5.066   1.215   1.933
 3737SOL     OW11247   4.021   0.035   2.033
 3737SOL    HW111248   4.070   0.119   2.012
 3737SOL    HW211249   4.083  -0.030   2.078
 3738SOL     OW11250   4.659   0.236   2.342
 3738SOL    HW111251   4.611   0.277   2.264
 3738SOL    HW211252   4.758   0.234   2.323
 3739SOL     OW11253   4.800   0.683   3.326
 3739SOL    HW111254   4.720   0.622   3.329
 3739SOL    HW211255   4.881   0.630   3.302
 3740SOL     OW11256   4.951   1.570   2.655
 3740SOL    HW111257   4.972   1.644   2.590
 3740SOL    HW211258   5.019   1.570   2.728
 3741SOL     OW11259   4.183   1.152   2.603
 3741SOL    HW111260   4.112   1.125   2.668
 3741SOL    HW211261   4.157   1.124   2.510
 3742SOL     OW11262   4.995   1.797   2.453
 3742SOL    HW111263   5.039   1.861   2.389
 3742SOL    HW211264   4.945   1.849   2.523
 3743SOL     OW11265   4.756   0.549   1.878
 3743SOL    HW111266   4.715   0.631   1.839
 3743SOL    HW211267   4.820   0.575   1.951
 3744SOL     OW11268   3.802   0.556   3.248
 3744SOL    HW111269   3.894   0.555   3.207
 3744SOL    HW211270   3.796   0.630   3.315
 3745SOL     OW11271   4.285   0.222   3.009
 3745SOL    HW111272   4.323   0.138   3.046
 3745SOL    HW211273   4.197   0.241   3.053
 3746SOL     OW11274   4.590   0.454   2.504
 3746SOL    HW111275   4.558   0.526   2.442
 3746SOL    HW211276   4.614   0.373   2.451
 3747SOL     OW11277   4.741   0.039   2.615
 3747SOL    HW111278   4.669   0.044   2.546
 3747SOL    HW211279   4.717  -0.030   2.684
 3748SOL     OW11280   5.153   1.173   2.729
 3748SOL    HW111281   5.098   1.089   2.722
 3748SOL    HW211282   5.179   1.202   2.637
 3749SOL     OW11283   5.190   0.590   2.854
 3749SOL    HW111284   5.160   0.495   2.861
 3749SOL    HW211285   5.263   0.606   2.920
 3750SOL     OW11286   4.212   1.385   2.036
 3750SOL    HW111287   4.125   1.370   2.083
 3750SOL    HW211288   4.195   1.411   1.941
 3751SOL     OW11289   5.114   0.575   1.940
 3751SOL    HW111290   5.060   0.554   2.021
 3751SOL    HW211291   5.205   0.534   1.949
 3752SOL     OW11292   4.251   0.256   2.190
 3752SOL    HW111293   4.278   0.197   2.115
 3752SOL    HW211294   4.251   0.351   2.159
 3753SOL     OW11295   4.788   1.347   3.202
 3753SOL    HW111296   4.708   1.324   3.257
 3753SOL    HW211297   4.871   1.321   3.251
 3754SOL     OW11298   5.316   1.629   3.487
 3754SOL    HW111299   5.343   1.663   3.397
 3754SOL    HW211300   5.395   1.591   3.533
 3755SOL     OW11301   4.835   1.195   2.962
 3755SOL    HW111302   4.795   1.239   3.043
 3755SOL    HW211303   4.794   1.232   2.879
 3756SOL     OW11304   4.639   0.089   3.264
 3756SOL    HW111305   4.664   0.069   3.169
 3756SOL    HW211306   4.711   0.145   3.306
 3757SOL     OW11307   4.704   1.116   3.581
 3757SOL    HW111308   4.605   1.122   3.591
 3757SOL    HW211309   4.727   1.036   3.525
 3758SOL     OW11310   4.429   1.050   2.230
 3758SOL    HW111311   4.415   1.057   2.329
 3758SOL    HW211312   4.513   0.999   2.212
 3759SOL     OW11313   4.134   0.813   3.113
 3759SOL    HW111314   4.220   0.825   3.163
 3759SOL    HW211315   4.092   0.726   3.140
 3760SOL     OW11316   4.998   0.386   3.124
 3760SOL    HW111317   5.019   0.460   3.188
 3760SOL    HW211318   4.909   0.403   3.081
 3761SOL     OW11319   3.788   1.564   3.193
 3761SOL    HW111320   3.742   1.646   3.159
 3761SOL    HW211321   3.886   1.583   3.202
 3762SOL     OW11322   4.091   1.100   2.363
 3762SOL    HW111323   4.084   1.183   2.307
 3762SOL    HW211324   4.095   1.020   2.303
 3763SOL     OW11325   4.290   0.537   2.727
 3763SOL    HW111326   4.302   0.603   2.653
 3763SOL    HW211327   4.336   0.571   2.810
 3764SOL     OW11328   4.976   1.348   2.250
 3764SOL    HW111329   5.026   1.425   2.290
 3764SOL    HW211330   4.881   1.350   2.282
 3765SOL     OW11331   4.996   1.445   3.004
 3765SOL    HW111332   5.043   1.458   3.091
 3765SOL    HW211333   4.930   1.371   3.013
 3766SOL     OW11334   5.306   0.639   2.334
 3766SOL    HW111335   5.275   0.700   2.407
 3766SOL    HW211336   5.356   0.691   2.265
 3767SOL     OW11337   4.078   1.510   3.191
 3767SOL    HW111338   4.057   1.466   3.104
 3767SOL    HW211339   4.175   1.536   3.194
 3768SOL     OW11340   4.126   0.751   3.460
 3768SOL    HW111341   4.194   0.806   3.413
 3768SOL    HW211342   4.166   0.663   3.487
 3769SOL     OW11343   4.737   0.105   3.632
 3769SOL    HW111344   4.743   0.190   3.580
 3769SOL    HW211345   4.769   0.029   3.575
 3770SOL     OW11346   4.228   0.050   3.602
 3770SOL    HW111347   4.186  -0.007   3.532
 3770SOL    HW211348   4.162   0.119   3.634
 3771SOL     OW11349   4.297   0.870   2.891
 3771SOL    HW111350   4.341   0.959   2.882
 3771SOL    HW211351   4.234   0.870   2.968
 3772SOL     OW11352   5.084   0.862   2.907
 3772SOL    HW111353   5.009   0.862   2.841
 3772SOL    HW211354   5.121   0.770   2.916
 3773SOL     OW11355   4.933   0.525   2.137
 3773SOL    HW111356   4.946   0.441   2.191
 3773SOL    HW211357   4.904   0.599   2.197
 3774SOL     OW11358   4.031   0.213   3.093
 3774SOL    HW111359   4.008   0.250   3.183
 3774SOL    HW211360   4.001   0.118   3.087
 3775SOL     OW11361   3.761   1.310   3.144
 3775SOL    HW111362   3.814   1.261   3.212
 3775SOL    HW211363   3.783   1.408   3.149
 3776SOL     OW11364   4.456   0.634   2.926
 3776SOL    HW111365   4.515   0.608   2.850
 3776SOL    HW211366   4.428   0.730   2.915
 3777SOL     OW11367   4.031   0.063   2.480
 3777SOL    HW111368   4.020   0.157   2.513
 3777SOL    HW211369   4.026   0.000   2.557
 3778SOL     OW11370   5.346   0.367   2.236
 3778SOL    HW111371   5.348   0.291   2.300
 3778SOL    HW211372   5.298   0.444   2.276
 3779SOL     OW11373   4.747   0.766   2.828
 3779SOL    HW111374   4.762   0.787   2.924
 3779SOL    HW211375   4.717   0.671   2.819
 3780SOL     OW11376   4.704   1.573   3.562
 3780SOL    HW111377   4.684   1.617   3.474
 3780SOL    HW211378   4.743   1.482   3.546
 3781SOL     OW11379   4.074   0.898   3.666
 3781SOL    HW111380   4.150   0.942   3.714
 3781SOL    HW211381   4.109   0.851   3.584
 3782SOL     OW11382   5.264   0.274   1.987
 3782SOL    HW111383   5.203   0.199   2.010
 3782SOL    HW211384   5.286   0.326   2.070
 3783SOL     OW11385   5.027   0.838   1.904
 3783SOL    HW111386   5.061   0.745   1.919
 3783SOL    HW211387   5.045   0.865   1.809
 3784SOL     OW11388   4.792   1.333   2.711
 3784SOL    HW111389   4.799   1.249   2.656
 3784SOL    HW211390   4.854   1.402   2.675
 3785SOL     OW11391   4.043   0.810   2.811
 3785SOL    HW111392   4.136   0.846   2.816
 3785SOL    HW211393   4.037   0.725   2.863
 3786SOL     OW11394   4.063   0.509   2.868
 3786SOL    HW111395   4.011   0.426   2.851
 3786SOL    HW211396   4.140   0.514   2.804
 3787SOL     OW11397   4.862   0.380   3.540
 3787SOL    HW111398   4.817   0.443   3.604
 3787SOL    HW211399   4.955   0.411   3.523
 3788SOL     OW11400   4.884   0.207   3.339
 3788SOL    HW111401   4.884   0.271   3.416
 3788SOL    HW211402   4.912   0.255   3.256
 3789SOL     OW11403   3.732   1.326   2.062
 3789SOL    HW111404   3.639   1.347   2.031
 3789SOL    HW211405   3.742   1.227   2.075
 3790SOL     OW11406   3.812   1.801   2.789
 3790SOL    HW111407   3.770   1.715   2.762
 3790SOL    HW211408   3.906   1.804   2.755
 3791SOL     OW11409   4.228   1.568   2.772
 3791SOL    HW111410   4.294   1.642   2.781
 3791SOL    HW211411   4.272   1.489   2.730
 3792SOL     OW11412   4.726   0.796   3.100
 3792SOL    HW111413   4.767   0.764   3.186
 3792SOL    HW211414   4.630   0.769   3.097
 3793SOL     OW11415   3.764   0.544   2.976
 3793SOL    HW111416   3.849   0.511   2.935
 3793SOL    HW211417   3.777   0.559   3.074
 3794SOL     OW11418   3.913   0.520   3.584
 3794SOL    HW111419   3.972   0.480   3.514
 3794SOL    HW211420   3.855   0.591   3.543
 3795SOL     OW11421   5.093   0.950   3.522
 3795SOL    HW111422   5.132   1.039   3.542
 3795SOL    HW211423   5.103   0.930   3.425
 3796SOL     OW11424   4.539   0.572   2.187
 3796SOL    HW111425   4.546   0.483   2.141
 3796SOL    HW211426   4.445   0.606   2.179
 3797SOL     OW11427   3.976   1.564   3.606
 3797SOL    HW111428   3.946   1.621   3.682
 3797SOL    HW211429   3.969   1.467   3.632
 3798SOL     OW11430   4.395   0.464   3.131
 3798SOL    HW111431   4.361   0.375   3.101
 3798SOL    HW211432   4.421   0.518   3.051
 3799SOL     OW11433   4.654   1.678   3.327
 3799SOL    HW111434   4.630   1.660   3.232
 3799SOL    HW211435   4.684   1.772   3.337
 3800SOL     OW11436   4.197   0.500   2.053
 3800SOL    HW111437   4.258   0.580   2.057
 3800SOL    HW211438   4.102   0.531   2.060
 3801SOL     OW11439   3.883   1.137   3.328
 3801SOL    HW111440   3.905   1.076   3.404
 3801SOL    HW211441   3.893   1.088   3.242
 3802SOL     OW11442   5.071   1.059   3.096
 3802SOL    HW111443   5.095   0.996   3.022
 3802SOL    HW211444   4.981   1.099   3.078
 3803SOL     OW11445   5.026   0.855   2.171
 3803SOL    HW111446   4.940   0.824   2.213
 3803SOL    HW211447   5.022   0.841   2.072
 3804SOL     OW11448   4.976   1.731   2.990
 3804SOL    HW111449   5.060   1.736   2.936
 3804SOL    HW211450   4.953   1.635   3.008
 3805SOL     OW11451   3.807   1.258   2.884
 3805SOL    HW111452   3.802   1.257   2.984
 3805SOL    HW211453   3.724   1.217   2.846
 3806SOL     OW11454   4.412   1.662   3.578
 3806SOL    HW111455   4.356   1.743   3.587
 3806SOL    HW211456   4.464   1.666   3.492
 3807SOL     OW11457   5.450   0.135   2.385
 3807SOL    HW111458   5.523   0.118   2.318
 3807SOL    HW211459   5.419   0.048   2.423
 3808SOL     OW11460   5.112   1.573   2.339
 3808SOL    HW111461   5.179   1.585   2.265
 3808SOL    HW211462   5.072   1.662   2.362
 3809SOL     OW11463   3.854   1.794   3.713
 3809SOL    HW111464   3.813   1.720   3.766
 3809SOL    HW211465   3.918   1.845   3.771
 3810SOL     OW11466   5.004   0.927   2.534
 3810SOL    HW111467   5.064   0.846   2.536
 3810SOL    HW211468   5.044   0.996   2.474
 3811SOL     OW11469   4.554   1.273   3.284
 3811SOL    HW111470   4.549   1.306   3.379
 3811SOL    HW211471   4.468   1.292   3.238
 3812SOL     OW11472   4.396   1.616   2.016
 3812SOL    HW111473   4.405   1.626   1.917
 3812SOL    HW211474   4.356   1.527   2.037
 3813SOL     OW11475   3.987   0.326   2.582
 3813SOL    HW111476   3.908   0.377   2.548
 3813SOL    HW211477   3.978   0.311   2.680
 3814SOL     OW11478   4.918   1.612   1.893
 3814SOL    HW111479   4.924   1.519   1.930
 3814SOL    HW211480   4.859   1.612   1.813
 3815SOL     OW11481   4.546   1.002   3.234
 3815SOL    HW111482   4.586   1.001   3.142
 3815SOL    HW211483   4.556   1.094   3.274
 3816SOL     OW11484   4.640   0.910   2.153
 3816SOL    HW111485   4.703   0.948   2.085
 3816SOL    HW211486   4.680   0.827   2.192
 3817SOL     OW11487   5.228   1.607   1.906
 3817SOL    HW111488   5.136   1.644   1.913
 3817SOL    HW211489   5.266   1.627   1.816
 3818SOL     OW11490   4.096   1.288   3.352
 3818SOL    HW111491   4.083   1.381   3.318
 3818SOL    HW211492   4.012   1.236   3.339
 3819SOL     OW11493   4.763   1.098   2.558
 3819SOL    HW111494   4.693   1.051   2.612
 3819SOL    HW211495   4.822   1.030   2.515
 3820SOL     OW11496   4.738   0.236   2.833
 3820SOL    HW111497   4.730   0.200   2.740
 3820SOL    HW211498   4.736   0.160   2.898
 3821SOL     OW11499   4.314   1.487   2.353
 3821SOL    HW111500   4.356   1.429   2.283
 3821SOL    HW211501   4.270   1.566   2.309
 3822SOL     OW11502   3.979   1.348   2.152
 3822SOL    HW111503   3.883   1.349   2.125
 3822SOL    HW211504   3.991   1.401   2.236
 3823SOL     OW11505   3.829   1.013   3.588
 3823SOL    HW111506   3.752   0.980   3.642
 3823SOL    HW211507   3.914   0.983   3.630
 3824SOL     OW11508   4.396   0.203   3.351
 3824SOL    HW111509   4.486   0.187   3.311
 3824SOL    HW211510   4.404   0.208   3.450
 3825SOL     OW11511   3.799   0.345   1.895
 3825SOL    HW111512   3.707   0.317   1.866
 3825SOL    HW211513   3.830   0.422   1.839
 3826SOL     OW11514   5.164   0.856   3.260
 3826SOL    HW111515   5.107   0.908   3.197
 3826SOL    HW211516   5.260   0.868   3.236
 3827SOL     OW11517   3.796   0.166   2.180
 3827SOL    HW111518   3.779   0.249   2.126
 3827SOL    HW211519   3.886   0.129   2.158
 3828SOL     OW11520   4.907   1.335   1.981
 3828SOL    HW111521   4.808   1.324   1.983
 3828SOL    HW211522   4.941   1.350   2.074
 3829SOL     OW11523   4.337   0.842   3.293
 3829SOL    HW111524   4.393   0.923   3.276
 3829SOL    HW211525   4.396   0.762   3.296
 3830SOL     OW11526   5.217   1.767   2.821
 3830SOL    HW111527   5.250   1.831   2.752
 3830SOL    HW211528   5.283   1.761   2.896
 3831SOL     OW11529   4.440   0.565   3.570
 3831SOL    HW111530   4.459   0.630   3.644
 3831SOL    HW211531   4.500   0.485   3.579
 3832SOL     OW11532   5.174   1.220   3.495
 3832SOL    HW111533   5.165   1.210   3.594
 3832SOL    HW211534   5.270   1.213   3.469
 3833SOL     OW11535   4.114   1.741   3.422
 3833SOL    HW111536   4.023   1.782   3.420
 3833SOL    HW211537   4.107   1.647   3.454
 3834SOL     OW11538   4.949   0.325   2.311
 3834SOL    HW111539   5.014   0.251   2.300
 3834SOL    HW211540   4.969   0.375   2.395
 3835SOL     OW11541   4.318   0.745   2.514
 3835SOL    HW111542   4.368   0.830   2.495
 3835SOL    HW211543   4.230   0.747   2.466
 3836SOL     OW11544   4.583   1.374   1.878
 3836SOL    HW111545   4.537   1.389   1.966
 3836SOL    HW211546   4.627   1.459   1.848
 3837SOL     OW11547   4.385   1.790   2.815
 3837SOL    HW111548   4.339   1.878   2.802
 3837SOL    HW211549   4.484   1.802   2.808
 3838SOL     OW11550   4.583   0.956   2.723
 3838SOL    HW111551   4.637   0.887   2.771
 3838SOL    HW211552   4.551   1.025   2.789
 3839SOL     OW11553   4.807   0.984   1.949
 3839SOL    HW111554   4.784   1.037   1.867
 3839SOL    HW211555   4.888   0.928   1.930
 3840SOL     OW11556   5.585   1.569   2.713
 3840SOL    HW111557   5.514   1.557   2.643
 3840SOL    HW211558   5.586   1.490   2.773
 3841SOL     OW11559   3.945   1.314   3.706
 3841SOL    HW111560   3.880   1.241   3.685
 3841SOL    HW211561   3.949   1.328   3.804
 3842SOL     OW11562   3.803   1.240   2.515
 3842SOL    HW111563   3.802   1.193   2.603
 3842SOL    HW211564   3.885   1.212   2.464
 3843SOL     OW11565   4.396   1.391   3.486
 3843SOL    HW111566   4.318   1.341   3.524
 3843SOL    HW211567   4.393   1.486   3.517
 3844SOL     OW11568   4.152   0.424   2.382
 3844SOL    HW111569   4.182   0.352   2.320
 3844SOL    HW211570   4.113   0.384   2.465
 3845SOL     OW11571   4.041   0.547   3.142
 3845SOL    HW111572   4.079   0.488   3.214
 3845SOL    HW211573   4.081   0.521   3.054
 3846SOL     OW11574   4.536   1.586   2.549
 3846SOL    HW111575   4.568   1.596   2.455
 3846SOL    HW211576   4.457   1.524   2.551
 3847SOL     OW11577   5.148   0.214   2.974
 3847SOL    HW111578   5.200   0.149   3.029
 3847SOL    HW211579   5.099   0.277   3.035
 3848SOL     OW11580   4.725   0.034   3.016
 3848SOL    HW111581   4.662  -0.038   2.985
 3848SOL    HW211582   4.818  -0.002   3.016
 3849SOL     OW11583   4.494   1.330   2.163
 3849SOL    HW111584   4.448   1.243   2.180
 3849SOL    HW211585   4.585   1.327   2.204
 3850SOL     OW11586   4.342   1.567   3.146
 3850SOL    HW111587   4.337   1.649   3.203
 3850SOL    HW211588   4.431   1.564   3.101
 3851SOL     OW11589   5.076   0.052   2.030
 3851SOL    HW111590   5.111   0.011   1.946
 3851SOL    HW211591   4.986   0.014   2.050
 3852SOL     OW11592   5.024   0.453   2.553
 3852SOL    HW111593   4.965   0.533   2.557
 3852SOL    HW211594   5.039   0.418   2.646
 3853SOL     OW11595   5.317   0.221   2.744
 3853SOL    HW111596   5.233   0.220   2.798
 3853SOL    HW211597   5.319   0.304   2.688
 3854SOL     OW11598   3.763   1.077   2.162
 3854SOL    HW111599   3.862   1.066   2.153
 3854SOL    HW211600   3.723   0.991   2.194
 3855SOL     OW11601   4.599   1.646   2.199
 3855SOL    HW111602   4.522   1.611   2.145
 3855SOL    HW211603   4.567   1.717   2.261
 3856SOL     OW11604   3.954   0.628   3.837
 3856SOL    HW111605   3.861   0.626   3.874
 3856SOL    HW211606   3.955   0.589   3.745
 3857SOL     OW11607   3.949   0.275   4.720
 3857SOL    HW111608   3.984   0.258   4.812
 3857SOL    HW211609   3.861   0.230   4.708
 3858SOL     OW11610   3.743   0.368   4.371
 3858SOL    HW111611   3.661   0.411   4.410
 3858SOL    HW211612   3.715   0.295   4.308
 3859SOL     OW11613   4.293   1.275   4.889
 3859SOL    HW111614   4.200   1.268   4.852
 3859SOL    HW211615   4.304   1.364   4.933
 3860SOL     OW11616   5.279   1.511   4.427
 3860SOL    HW111617   5.222   1.495   4.508
 3860SOL    HW211618   5.220   1.521   4.347
 3861SOL     OW11619   4.859   0.703   4.441
 3861SOL    HW111620   4.916   0.781   4.416
 3861SOL    HW211621   4.799   0.729   4.517
 3862SOL     OW11622   4.492   1.144   4.747
 3862SOL    HW111623   4.414   1.161   4.807
 3862SOL    HW211624   4.526   1.231   4.711
 3863SOL     OW11625   4.409   1.012   4.389
 3863SOL    HW111626   4.478   0.996   4.459
 3863SOL    HW211627   4.336   1.069   4.427
 3864SOL     OW11628   4.410   1.161   5.527
 3864SOL    HW111629   4.470   1.240   5.541
 3864SOL    HW211630   4.324   1.192   5.486
 3865SOL     OW11631   4.059   1.435   4.785
 3865SOL    HW111632   3.981   1.404   4.732
 3865SOL    HW211633   4.117   1.493   4.728
 3866SOL     OW11634   5.184   1.505   5.063
 3866SOL    HW111635   5.208   1.599   5.089
 3866SOL    HW211636   5.168   1.451   5.145
 3867SOL     OW11637   4.162   0.392   5.223
 3867SOL    HW111638   4.244   0.336   5.232
 3867SOL    HW211639   4.081   0.334   5.227
 3868SOL     OW11640   3.955   1.713   4.207
 3868SOL    HW111641   3.989   1.790   4.261
 3868SOL    HW211642   3.999   1.713   4.117
 3869SOL     OW11643   3.954   1.434   4.262
 3869SOL    HW111644   3.928   1.530   4.262
 3869SOL    HW211645   3.883   1.380   4.307
 3870SOL     OW11646   3.964   1.091   4.610
 3870SOL    HW111647   3.978   1.007   4.662
 3870SOL    HW211648   3.909   1.155   4.665
 3871SOL     OW11649   4.344   1.786   5.163
 3871SOL    HW111650   4.252   1.769   5.198
 3871SOL    HW211651   4.372   1.878   5.189
 3872SOL     OW11652   4.330   0.964   3.847
 3872SOL    HW111653   4.337   1.048   3.793
 3872SOL    HW211654   4.376   0.977   3.935
 3873SOL     OW11655   5.318   0.114   5.204
 3873SOL    HW111656   5.300   0.181   5.132
 3873SOL    HW211657   5.315   0.160   5.293
 3874SOL     OW11658   3.846   0.643   4.287
 3874SOL    HW111659   3.801   0.555   4.304
 3874SOL    HW211660   3.845   0.697   4.371
 3875SOL     OW11661   3.751   1.596   3.841
 3875SOL    HW111662   3.732   1.500   3.862
 3875SOL    HW211663   3.718   1.654   3.916
 3876SOL     OW11664   5.413   0.922   4.336
 3876SOL    HW111665   5.508   0.893   4.344
 3876SOL    HW211666   5.405   0.987   4.261
 3877SOL     OW11667   3.837   0.737   5.321
 3877SOL    HW111668   3.925   0.724   5.366
 3877SOL    HW211669   3.824   0.834   5.299
 3878SOL     OW11670   4.337   1.365   4.450
 3878SOL    HW111671   4.288   1.278   4.459
 3878SOL    HW211672   4.314   1.408   4.363
 3879SOL     OW11673   5.017   1.228   5.147
 3879SOL    HW111674   5.054   1.155   5.089
 3879SOL    HW211675   5.069   1.233   5.232
 3880SOL     OW11676   4.533   0.004   4.226
 3880SOL    HW111677   4.573   0.095   4.217
 3880SOL    HW211678   4.433   0.012   4.232
 3881SOL     OW11679   3.921   0.976   4.988
 3881SOL    HW111680   4.010   0.931   4.974
 3881SOL    HW211681   3.848   0.911   4.969
 3882SOL     OW11682   5.190   1.417   4.677
 3882SOL    HW111683   5.131   1.423   4.757
 3882SOL    HW211684   5.175   1.329   4.631
 3883SOL     OW11685   5.391   1.714   4.296
 3883SOL    HW111686   5.350   1.691   4.208
 3883SOL    HW211687   5.373   1.640   4.361
 3884SOL     OW11688   4.322   0.729   3.994
 3884SOL    HW111689   4.346   0.798   3.926
 3884SOL    HW211690   4.244   0.762   4.048
 3885SOL     OW11691   5.005   0.345   4.668
 3885SOL    HW111692   4.919   0.295   4.655
 3885SOL    HW211693   5.067   0.291   4.724
 3886SOL     OW11694   4.531   0.605   5.189
 3886SOL    HW111695   4.484   0.602   5.278
 3886SOL    HW211696   4.480   0.550   5.123
 3887SOL     OW11697   4.697   0.890   5.296
 3887SOL    HW111698   4.743   0.806   5.267
 3887SOL    HW211699   4.641   0.924   5.221
 3888SOL     OW11700   4.715   0.410   4.966
 3888SOL    HW111701   4.638   0.444   5.020
 3888SOL    HW211702   4.681   0.359   4.887
 3889SOL     OW11703   4.765   0.701   4.153
 3889SOL    HW111704   4.791   0.697   4.249
 3889SOL    HW211705   4.680   0.650   4.139
 3890SOL     OW11706   3.800   0.811   4.513
 3890SOL    HW111707   3.899   0.799   4.522
 3890SOL    HW211708   3.776   0.906   4.534
 3891SOL     OW11709   3.854   1.821   5.295
 3891SOL    HW111710   3.844   1.806   5.394
 3891SOL    HW211711   3.768   1.857   5.259
 3892SOL     OW11712   4.589   0.348   3.919
 3892SOL    HW111713   4.648   0.411   3.870
 3892SOL    HW211714   4.608   0.254   3.890
 3893SOL     OW11715   5.086   1.144   4.269
 3893SOL    HW111716   5.169   1.115   4.221
 3893SOL    HW211717   5.037   1.211   4.213
 3894SOL     OW11718   4.274   0.196   4.609
 3894SOL    HW111719   4.269   0.191   4.709
 3894SOL    HW211720   4.276   0.292   4.580
 3895SOL     OW11721   4.732   1.456   4.201
 3895SOL    HW111722   4.686   1.528   4.149
 3895SOL    HW211723   4.728   1.476   4.299
 3896SOL     OW11724   4.075   1.801   4.577
 3896SOL    HW111725   4.125   1.715   4.583
 3896SOL    HW211726   4.140   1.878   4.574
 3897SOL     OW11727   4.045   0.943   3.966
 3897SOL    HW111728   4.127   0.982   3.924
 3897SOL    HW211729   4.018   0.861   3.917
 3898SOL     OW11730   5.182   0.735   4.452
 3898SOL    HW111731   5.177   0.670   4.527
 3898SOL    HW211732   5.262   0.794   4.465
 3899SOL     OW11733   4.835   1.776   3.961
 3899SOL    HW111734   4.775   1.714   4.011
 3899SOL    HW211735   4.866   1.732   3.876
 3900SOL     OW11736   3.926   0.285   5.222
 3900SOL    HW111737   3.846   0.345   5.209
 3900SOL    HW211738   3.916   0.236   5.308
 3901SOL     OW11739   4.188   1.743   4.047
 3901SOL    HW111740   4.221   1.782   4.133
 3901SOL    HW211741   4.264   1.736   3.982
 3902SOL     OW11742   5.124   0.107   4.150
 3902SOL    HW111743   5.100   0.070   4.060
 3902SOL    HW211744   5.223   0.123   4.154
 3903SOL     OW11745   3.973   1.785   4.965
 3903SOL    HW111746   4.030   1.720   5.015
 3903SOL    HW211747   3.957   1.752   4.872
 3904SOL     OW11748   4.664   1.698   4.628
 3904SOL    HW111749   4.744   1.641   4.649
 3904SOL    HW211750   4.615   1.658   4.551
 3905SOL     OW11751   4.106   0.700   4.204
 3905SOL    HW111752   4.151   0.610   4.201
 3905SOL    HW211753   4.012   0.689   4.237
 3906SOL     OW11754   4.338   0.122   3.841
 3906SOL    HW111755   4.436   0.100   3.848
 3906SOL    HW211756   4.307   0.105   3.748
 3907SOL     OW11757   4.612   1.514   4.919
 3907SOL    HW111758   4.589   1.489   4.825
 3907SOL    HW211759   4.673   1.445   4.958
 3908SOL     OW11760   5.075   0.590   5.157
 3908SOL    HW111761   5.103   0.547   5.242
 3908SOL    HW211762   5.100   0.686   5.158
 3909SOL     OW11763   4.527   1.402   4.648
 3909SOL    HW111764   4.617   1.416   4.606
 3909SOL    HW211765   4.456   1.404   4.577
 3910SOL     OW11766   4.646   0.503   4.623
 3910SOL    HW111767   4.621   0.494   4.527
 3910SOL    HW211768   4.694   0.421   4.654
 3911SOL     OW11769   4.263   0.064   4.236
 3911SOL    HW111770   4.182   0.065   4.294
 3911SOL    HW211771   4.266   0.147   4.181
 3912SOL     OW11772   5.158   1.188   3.765
 3912SOL    HW111773   5.190   1.112   3.822
 3912SOL    HW211774   5.066   1.215   3.795
 3913SOL     OW11775   4.021   0.035   3.895
 3913SOL    HW111776   4.070   0.119   3.874
 3913SOL    HW211777   4.083  -0.030   3.940
 3914SOL     OW11778   4.659   0.236   4.204
 3914SOL    HW111779   4.611   0.277   4.126
 3914SOL    HW211780   4.758   0.234   4.185
 3915SOL     OW11781   4.800   0.683   5.188
 3915SOL    HW111782   4.720   0.622   5.191
 3915SOL    HW211783   4.881   0.630   5.164
 3916SOL     OW11784   4.951   1.570   4.517
 3916SOL    HW111785   4.972   1.644   4.452
 3916SOL    HW211786   5.019   1.570   4.590
 3917SOL     OW11787   4.183   1.152   4.465
 3917SOL    HW111788   4.112   1.125   4.530
 3917SOL    HW211789   4.157   1.124   4.372
 3918SOL     OW11790   4.995   1.797   4.315
 3918SOL    HW111791   5.039   1.861   4.251
 3918SOL    HW211792   4.945   1.849   4.385
 3919SOL     OW11793   4.756   0.549   3.740
 3919SOL    HW111794   4.715   0.631   3.701
 3919SOL    HW211795   4.820   0.575   3.813
 3920SOL     OW11796   3.802   0.556   5.110
 3920SOL    HW111797   3.894   0.555   5.069
 3920SOL    HW211798   3.796   0.630   5.177
 3921SOL     OW11799   4.285   0.222   4.871
 3921SOL    HW111800   4.323   0.138   4.908
 3921SOL    HW211801   4.197   0.241   4.915
 3922SOL     OW11802   4.590   0.454   4.366
 3922SOL    HW111803   4.558   0.526   4.304
 3922SOL    HW211804   4.614   0.373   4.313
 3923SOL     OW11805   4.741   0.039   4.477
 3923SOL    HW111806   4.669   0.044   4.408
 3923SOL    HW211807   4.717  -0.030   4.546
 3924SOL     OW11808   5.153   1.173   4.591
 3924SOL    HW111809   5.098   1.089   4.584
 3924SOL    HW211810   5.179   1.202   4.499
 3925SOL     OW11811   5.190   0.590   4.716
 3925SOL    HW111812   5.160   0.495   4.723
 3925SOL    HW211813   5.263   0.606   4.782
 3926SOL     OW11814   4.212   1.385   3.898
 3926SOL    HW111815   4.125   1.370   3.945
 3926SOL    HW211816   4.195   1.411   3.803
 3927SOL     OW11817   5.114   0.575   3.802
 3927SOL    HW111818   5.060   0.554   3.883
 3927SOL    HW211819   5.205   0.534   3.811
 3928SOL     OW11820   4.251   0.256   4.052
 3928SOL    HW111821   4.278   0.197   3.977
 3928SOL    HW211822   4.251   0.351   4.021
 3929SOL     OW11823   4.788   1.347   5.064
 3929SOL    HW111824   4.708   1.324   5.119
 3929SOL    HW211825   4.871   1.321   5.113
 3930SOL     OW11826   4.835   1.195   4.824
 3930SOL    HW111827   4.795   1.239   4.905
 3930SOL    HW211828   4.794   1.232   4.741
 3931SOL     OW11829   4.639   0.089   5.126
 3931SOL    HW111830   4.664   0.069   5.031
 3931SOL    HW211831   4.711   0.145   5.168
 3932SOL     OW11832   4.429   1.050   4.092
 3932SOL    HW111833   4.415   1.057   4.191
 3932SOL    HW211834   4.513   0.999   4.074
 3933SOL     OW11835   4.134   0.813   4.975
 3933SOL    HW111836   4.220   0.825   5.025
 3933SOL    HW211837   4.092   0.726   5.002
 3934SOL     OW11838   4.998   0.386   4.986
 3934SOL    HW111839   5.019   0.460   5.050
 3934SOL    HW211840   4.909   0.403   4.943
 3935SOL     OW11841   3.788   1.564   5.055
 3935SOL    HW111842   3.742   1.646   5.021
 3935SOL    HW211843   3.886   1.583   5.064
 3936SOL     OW11844   4.091   1.100   4.225
 3936SOL    HW111845   4.084   1.183   4.169
 3936SOL    HW211846   4.095   1.020   4.165
 3937SOL     OW11847   4.290   0.537   4.589
 3937SOL    HW111848   4.302   0.603   4.515
 3937SOL    HW211849   4.336   0.571   4.672
 3938SOL     OW11850   4.976   1.348   4.112
 3938SOL    HW111851   5.026   1.425   4.152
 3938SOL    HW211852   4.881   1.350   4.144
 3939SOL     OW11853   4.996   1.445   4.866
 3939SOL    HW111854   5.043   1.458   4.953
 3939SOL    HW211855   4.930   1.371   4.875
 3940SOL     OW11856   5.306   0.639   4.196
 3940SOL    HW111857   5.275   0.700   4.269
 3940SOL    HW211858   5.356   0.691   4.127
 3941SOL     OW11859   4.078   1.510   5.053
 3941SOL    HW111860   4.057   1.466   4.966
 3941SOL    HW211861   4.175   1.536   5.056
 3942SOL     OW11862   4.126   0.751   5.322
 3942SOL    HW111863   4.194   0.806   5.275
 3942SOL    HW211864   4.166   0.663   5.349
 3943SOL     OW11865   4.297   0.870   4.753
 3943SOL    HW111866   4.341   0.959   4.744
 3943SOL    HW211867   4.234   0.870   4.830
 3944SOL     OW11868   5.084   0.862   4.769
 3944SOL    HW111869   5.009   0.862   4.703
 3944SOL    HW211870   5.121   0.770   4.778
 3945SOL     OW11871   4.933   0.525   3.999
 3945SOL    HW111872   4.946   0.441   4.053
 3945SOL    HW211873   4.904   0.599   4.059
 3946SOL     OW11874   4.031   0.213   4.955
 3946SOL    HW111875   4.008   0.250   5.045
 3946SOL    HW211876   4.001   0.118   4.949
 3947SOL     OW11877   3.761   1.310   5.006
 3947SOL    HW111878   3.814   1.261   5.074
 3947SOL    HW211879   3.783   1.408   5.011
 3948SOL     OW11880   4.456   0.634   4.788
 3948SOL    HW111881   4.515   0.608   4.712
 3948SOL    HW211882   4.428   0.730   4.777
 3949SOL     OW11883   4.031   0.063   4.342
 3949SOL    HW111884   4.020   0.157   4.375
 3949SOL    HW211885   4.026   0.000   4.419
 3950SOL     OW11886   5.346   0.367   4.098
 3950SOL    HW111887   5.348   0.291   4.162
 3950SOL    HW211888   5.298   0.444   4.138
 3951SOL     OW11889   4.747   0.766   4.690
 3951SOL    HW111890   4.762   0.787   4.786
 3951SOL    HW211891   4.717   0.671   4.681
 3952SOL     OW11892   5.264   0.274   3.849
 3952SOL    HW111893   5.203   0.199   3.872
 3952SOL    HW211894   5.286   0.326   3.932
 3953SOL     OW11895   5.027   0.838   3.766
 3953SOL    HW111896   5.061   0.745   3.781
 3953SOL    HW211897   5.045   0.865   3.671
 3954SOL     OW11898   4.792   1.333   4.573
 3954SOL    HW111899   4.799   1.249   4.518
 3954SOL    HW211900   4.854   1.402   4.537
 3955SOL     OW11901   4.043   0.810   4.673
 3955SOL    HW111902   4.136   0.846   4.678
 3955SOL    HW211903   4.037   0.725   4.725
 3956SOL     OW11904   4.063   0.509   4.730
 3956SOL    HW111905   4.011   0.426   4.713
 3956SOL    HW211906   4.140   0.514   4.666
 3957SOL     OW11907   4.884   0.207   5.201
 3957SOL    HW111908   4.884   0.271   5.278
 3957SOL    HW211909   4.912   0.255   5.118
 3958SOL     OW11910   3.732   1.326   3.924
 3958SOL    HW111911   3.639   1.347   3.893
 3958SOL    HW211912   3.742   1.227   3.937
 3959SOL     OW11913   3.812   1.801   4.651
 3959SOL    HW111914   3.770   1.715   4.624
 3959SOL    HW211915   3.906   1.804   4.617
 3960SOL     OW11916   4.228   1.568   4.634
 3960SOL    HW111917   4.294   1.642   4.643
 3960SOL    HW211918   4.272   1.489   4.592
 3961SOL     OW11919   4.726   0.796   4.962
 3961SOL    HW111920   4.767   0.764   5.048
 3961SOL    HW211921   4.630   0.769   4.959
 3962SOL     OW11922   3.764   0.544   4.838
 3962SOL    HW111923   3.849   0.511   4.797
 3962SOL    HW211924   3.777   0.559   4.936
 3963SOL     OW11925   4.539   0.572   4.049
 3963SOL    HW111926   4.546   0.483   4.003
 3963SOL    HW211927   4.445   0.606   4.041
 3964SOL     OW11928   3.976   1.564   5.468
 3964SOL    HW111929   3.946   1.621   5.544
 3964SOL    HW211930   3.969   1.467   5.494
 3965SOL     OW11931   4.395   0.464   4.993
 3965SOL    HW111932   4.361   0.375   4.963
 3965SOL    HW211933   4.421   0.518   4.913
 3966SOL     OW11934   4.654   1.678   5.189
 3966SOL    HW111935   4.630   1.660   5.094
 3966SOL    HW211936   4.684   1.772   5.199
 3967SOL     OW11937   4.197   0.500   3.915
 3967SOL    HW111938   4.258   0.580   3.919
 3967SOL    HW211939   4.102   0.531   3.922
 3968SOL     OW11940   3.883   1.137   5.190
 3968SOL    HW111941   3.905   1.076   5.266
 3968SOL    HW211942   3.893   1.088   5.104
 3969SOL     OW11943   5.071   1.059   4.958
 3969SOL    HW111944   5.095   0.996   4.884
 3969SOL    HW211945   4.981   1.099   4.940
 3970SOL     OW11946   5.026   0.855   4.033
 3970SOL    HW111947   4.940   0.824   4.075
 3970SOL    HW211948   5.022   0.841   3.934
 3971SOL     OW11949   4.976   1.731   4.852
 3971SOL    HW111950   5.060   1.736   4.798
 3971SOL    HW211951   4.953   1.635   4.870
 3972SOL     OW11952   3.807   1.258   4.746
 3972SOL    HW111953   3.802   1.257   4.846
 3972SOL    HW211954   3.724   1.217   4.708
 3973SOL     OW11955   5.450   0.135   4.247
 3973SOL    HW111956   5.523   0.118   4.180
 3973SOL    HW211957   5.419   0.048   4.285
 3974SOL     OW11958   5.112   1.573   4.201
 3974SOL    HW111959   5.179   1.585   4.127
 3974SOL    HW211960   5.072   1.662   4.224
 3975SOL     OW11961   5.004   0.927   4.396
 3975SOL    HW111962   5.064   0.846   4.398
 3975SOL    HW211963   5.044   0.996   4.336
 3976SOL     OW11964   4.554   1.273   5.146
 3976SOL    HW111965   4.549   1.306   5.241
 3976SOL    HW211966   4.468   1.292   5.100
 3977SOL     OW11967   4.396   1.616   3.878
 3977SOL    HW111968   4.405   1.626   3.779
 3977SOL    HW211969   4.356   1.527   3.899
 3978SOL     OW11970   3.987   0.326   4.444
 3978SOL    HW111971   3.908   0.377   4.410
 3978SOL    HW211972   3.978   0.311   4.542
 3979SOL     OW11973   4.918   1.612   3.755
 3979SOL    HW111974   4.924   1.519   3.792
 3979SOL    HW211975   4.859   1.612   3.675
 3980SOL     OW11976   4.546   1.002   5.096
 3980SOL    HW111977   4.586   1.001   5.004
 3980SOL    HW211978   4.556   1.094   5.136
 3981SOL     OW11979   4.640   0.910   4.015
 3981SOL    HW111980   4.703   0.948   3.947
 3981SOL    HW211981   4.680   0.827   4.054
 3982SOL     OW11982   5.228   1.607   3.768
 3982SOL    HW111983   5.136   1.644   3.775
 3982SOL    HW211984   5.266   1.627   3.678
 3983SOL     OW11985   4.096   1.288   5.214
 3983SOL    HW111986   4.083   1.381   5.180
 3983SOL    HW211987   4.012   1.236   5.201
 3984SOL     OW11988   4.763   1.098   4.420
 3984SOL    HW111989   4.693   1.051   4.474
 3984SOL    HW211990   4.822   1.030   4.377
 3985SOL     OW11991   4.738   0.236   4.695
 3985SOL    HW111992   4.730   0.200   4.602
 3985SOL    HW211993   4.736   0.160   4.760
 3986SOL     OW11994   4.314   1.487   4.215
 3986SOL    HW111995   4.356   1.429   4.145
 3986SOL    HW211996   4.270   1.566   4.171
 3987SOL     OW11997   3.979   1.348   4.014
 3987SOL    HW111998   3.883   1.349   3.987
 3987SOL    HW211999   3.991   1.401   4.098
 3988SOL     OW12000   3.829   1.013   5.450
 3988SOL    HW112001   3.752   0.980   5.504
 3988SOL    HW212002   3.914   0.983   5.492
 3989SOL     OW12003   4.396   0.203   5.213
 3989SOL    HW112004   4.486   0.187   5.173
 3989SOL    HW212005   4.404   0.208   5.312
 3990SOL     OW12006   3.799   0.345   3.757
 3990SOL    HW112007   3.707   0.317   3.728
 3990SOL    HW212008   3.830   0.422   3.701
 3991SOL     OW12009   5.164   0.856   5.122
 3991SOL    HW112010   5.107   0.908   5.059
 3991SOL    HW212011   5.260   0.868   5.098
 3992SOL     OW12012   3.796   0.166   4.042
 3992SOL    HW112013   3.779   0.249   3.988
 3992SOL    HW212014   3.886   0.129   4.020
 3993SOL     OW12015   4.907   1.335   3.843
 3993SOL    HW112016   4.808   1.324   3.845
 3993SOL    HW212017   4.941   1.350   3.936
 3994SOL     OW12018   4.337   0.842   5.155
 3994SOL    HW112019   4.393   0.923   5.138
 3994SOL    HW212020   4.396   0.762   5.158
 3995SOL     OW12021   5.217   1.767   4.683
 3995SOL    HW112022   5.250   1.831   4.614
 3995SOL    HW212023   5.283   1.761   4.758
 3996SOL     OW12024   4.440   0.565   5.432
 3996SOL    HW112025   4.459   0.630   5.506
 3996SOL    HW212026   4.500   0.485   5.441
 3997SOL     OW12027   4.114   1.741   5.284
 3997SOL    HW112028   4.023   1.782   5.282
 3997SOL    HW212029   4.107   1.647   5.316
 3998SOL     OW12030   4.949   0.325   4.173
 3998SOL    HW112031   5.014   0.251   4.162
 3998SOL    HW212032   4.969   0.375   4.257
 3999SOL     OW12033   4.318   0.745   4.376
 3999SOL    HW112034   4.368   0.830   4.357
 3999SOL    HW212035   4.230   0.747   4.328
 4000SOL     OW12036   4.583   1.374   3.740
 4000SOL    HW112037   4.537   1.389   3.828
 4000SOL    HW212038   4.627   1.459   3.710
 4001SOL     OW12039   4.385   1.790   4.677
 4001SOL    HW112040   4.339   1.878   4.664
 4001SOL    HW212041   4.484   1.802   4.670
 4002SOL     OW12042   4.583   0.956   4.585
 4002SOL    HW112043   4.637   0.887   4.633
 4002SOL    HW212044   4.551   1.025   4.651
 4003SOL     OW12045   4.807   0.984   3.811
 4003SOL    HW112046   4.784   1.037   3.729
 4003SOL    HW212047   4.888   0.928   3.792
 4004SOL     OW12048   5.585   1.569   4.575
 4004SOL    HW112049   5.514   1.557   4.505
 4004SOL    HW212050   5.586   1.490   4.635
 4005SOL     OW12051   3.803   1.240   4.377
 4005SOL    HW112052   3.802   1.193   4.465
 4005SOL    HW212053   3.885   1.212   4.326
 4006SOL     OW12054   4.396   1.391   5.348
 4006SOL    HW112055   4.318   1.341   5.386
 4006SOL    HW212056   4.393   1.486   5.379
 4007SOL     OW12057   4.152   0.424   4.244
 4007SOL    HW112058   4.182   0.352   4.182
 4007SOL    HW212059   4.113   0.384   4.327
 4008SOL     OW12060   4.041   0.547   5.004
 4008SOL    HW112061   4.079   0.488   5.076
 4008SOL    HW212062   4.081   0.521   4.916
 4009SOL     OW12063   4.536   1.586   4.411
 4009SOL    HW112064   4.568   1.596   4.317
 4009SOL    HW212065   4.457   1.524   4.413
 4010SOL     OW12066   5.148   0.214   4.836
 4010SOL    HW112067   5.200   0.149   4.891
 4010SOL    HW212068   5.099   0.277   4.897
 4011SOL     OW12069   4.725   0.034   4.878
 4011SOL    HW112070   4.662  -0.038   4.847
 4011SOL    HW212071   4.818  -0.002   4.878
 4012SOL     OW12072   4.494   1.330   4.025
 4012SOL    HW112073   4.448   1.243   4.042
 4012SOL    HW212074   4.585   1.327   4.066
 4013SOL     OW12075   4.342   1.567   5.008
 4013SOL    HW112076   4.337   1.649   5.065
 4013SOL    HW212077   4.431   1.564   4.963
 4014SOL     OW12078   5.076   0.052   3.892
 4014SOL    HW112079   5.111   0.011   3.808
 4014SOL    HW212080   4.986   0.014   3.912
 4015SOL     OW12081   5.024   0.453   4.415
 4015SOL    HW112082   4.965   0.533   4.419
 4015SOL    HW212083   5.039   0.418   4.508
 4016SOL     OW12084   5.317   0.221   4.606
 4016SOL    HW112085   5.233   0.220   4.660
 4016SOL    HW212086   5.319   0.304   4.550
 4017SOL     OW12087   3.763   1.077   4.024
 4017SOL    HW112088   3.862   1.066   4.015
 4017SOL    HW212089   3.723   0.991   4.056
 4018SOL     OW12090   4.599   1.646   4.061
 4018SOL    HW112091   4.522   1.611   4.007
 4018SOL    HW212092   4.567   1.717   4.123
 4019SOL     OW12093   3.954   2.490   0.113
 4019SOL    HW112094   3.861   2.488   0.150
 4019SOL    HW212095   3.955   2.451   0.021
 4020SOL     OW12096   3.949   2.137   0.996
 4020SOL    HW112097   3.984   2.120   1.088
 4020SOL    HW212098   3.861   2.092   0.984
 4021SOL     OW12099   3.743   2.230   0.647
 4021SOL    HW112100   3.661   2.273   0.686
 4021SOL    HW212101   3.715   2.157   0.584
 4022SOL     OW12102   4.293   3.137   1.165
 4022SOL    HW112103   4.200   3.130   1.128
 4022SOL    HW212104   4.304   3.226   1.209
 4023SOL     OW12105   5.279   3.373   0.703
 4023SOL    HW112106   5.222   3.357   0.784
 4023SOL    HW212107   5.220   3.383   0.623
 4024SOL     OW12108   4.859   2.565   0.717
 4024SOL    HW112109   4.916   2.643   0.692
 4024SOL    HW212110   4.799   2.591   0.793
 4025SOL     OW12111   4.492   3.006   1.023
 4025SOL    HW112112   4.414   3.023   1.083
 4025SOL    HW212113   4.526   3.093   0.987
 4026SOL     OW12114   4.574   2.660   1.823
 4026SOL    HW112115   4.570   2.736   1.888
 4026SOL    HW212116   4.596   2.696   1.732
 4027SOL     OW12117   4.409   2.874   0.665
 4027SOL    HW112118   4.478   2.858   0.735
 4027SOL    HW212119   4.336   2.931   0.703
 4028SOL     OW12120   4.410   3.023   1.803
 4028SOL    HW112121   4.470   3.102   1.817
 4028SOL    HW212122   4.324   3.054   1.762
 4029SOL     OW12123   4.059   3.297   1.061
 4029SOL    HW112124   3.981   3.266   1.008
 4029SOL    HW212125   4.117   3.355   1.004
 4030SOL     OW12126   5.184   3.367   1.339
 4030SOL    HW112127   5.208   3.461   1.365
 4030SOL    HW212128   5.168   3.313   1.421
 4031SOL     OW12129   4.162   2.254   1.499
 4031SOL    HW112130   4.244   2.198   1.508
 4031SOL    HW212131   4.081   2.196   1.503
 4032SOL     OW12132   3.955   3.575   0.483
 4032SOL    HW112133   3.989   3.652   0.537
 4032SOL    HW212134   3.999   3.575   0.393
 4033SOL     OW12135   4.851   3.203   1.690
 4033SOL    HW112136   4.898   3.203   1.778
 4033SOL    HW212137   4.803   3.116   1.679
 4034SOL     OW12138   3.954   3.296   0.538
 4034SOL    HW112139   3.928   3.392   0.538
 4034SOL    HW212140   3.883   3.242   0.583
 4035SOL     OW12141   3.964   2.953   0.886
 4035SOL    HW112142   3.978   2.869   0.938
 4035SOL    HW212143   3.909   3.017   0.941
 4036SOL     OW12144   4.344   3.648   1.439
 4036SOL    HW112145   4.252   3.631   1.474
 4036SOL    HW212146   4.372   3.740   1.465
 4037SOL     OW12147   4.330   2.826   0.123
 4037SOL    HW112148   4.337   2.910   0.069
 4037SOL    HW212149   4.376   2.839   0.211
 4038SOL     OW12150   5.318   1.976   1.480
 4038SOL    HW112151   5.300   2.043   1.408
 4038SOL    HW212152   5.315   2.022   1.569
 4039SOL     OW12153   3.846   2.505   0.563
 4039SOL    HW112154   3.801   2.417   0.580
 4039SOL    HW212155   3.845   2.559   0.647
 4040SOL     OW12156   3.751   3.458   0.117
 4040SOL    HW112157   3.732   3.362   0.138
 4040SOL    HW212158   3.718   3.516   0.192
 4041SOL     OW12159   5.413   2.784   0.612
 4041SOL    HW112160   5.508   2.755   0.620
 4041SOL    HW212161   5.405   2.849   0.537
 4042SOL     OW12162   3.837   2.599   1.597
 4042SOL    HW112163   3.925   2.586   1.642
 4042SOL    HW212164   3.824   2.696   1.575
 4043SOL     OW12165   4.337   3.227   0.726
 4043SOL    HW112166   4.288   3.140   0.735
 4043SOL    HW212167   4.314   3.270   0.639
 4044SOL     OW12168   5.017   3.090   1.423
 4044SOL    HW112169   5.054   3.017   1.365
 4044SOL    HW212170   5.069   3.095   1.508
 4045SOL     OW12171   4.533   1.866   0.502
 4045SOL    HW112172   4.573   1.957   0.493
 4045SOL    HW212173   4.433   1.874   0.508
 4046SOL     OW12174   3.921   2.838   1.264
 4046SOL    HW112175   4.010   2.793   1.250
 4046SOL    HW212176   3.848   2.773   1.245
 4047SOL     OW12177   4.911   3.654   1.616
 4047SOL    HW112178   4.935   3.714   1.540
 4047SOL    HW212179   4.918   3.559   1.586
 4048SOL     OW12180   4.041   2.113   1.801
 4048SOL    HW112181   4.112   2.184   1.807
 4048SOL    HW212182   3.953   2.152   1.829
 4049SOL     OW12183   5.190   3.279   0.953
 4049SOL    HW112184   5.131   3.285   1.033
 4049SOL    HW212185   5.175   3.191   0.907
 4050SOL     OW12186   5.391   3.576   0.572
 4050SOL    HW112187   5.350   3.553   0.484
 4050SOL    HW212188   5.373   3.502   0.637
 4051SOL     OW12189   4.322   2.591   0.270
 4051SOL    HW112190   4.346   2.660   0.202
 4051SOL    HW212191   4.244   2.624   0.324
 4052SOL     OW12192   5.005   2.207   0.944
 4052SOL    HW112193   4.919   2.157   0.931
 4052SOL    HW212194   5.067   2.153   1.000
 4053SOL     OW12195   4.531   2.467   1.465
 4053SOL    HW112196   4.484   2.464   1.554
 4053SOL    HW212197   4.480   2.412   1.399
 4054SOL     OW12198   5.118   2.331   1.674
 4054SOL    HW112199   5.098   2.374   1.762
 4054SOL    HW212200   5.196   2.269   1.683
 4055SOL     OW12201   4.697   2.752   1.572
 4055SOL    HW112202   4.743   2.668   1.543
 4055SOL    HW212203   4.641   2.786   1.497
 4056SOL     OW12204   4.715   2.272   1.242
 4056SOL    HW112205   4.638   2.306   1.296
 4056SOL    HW212206   4.681   2.221   1.163
 4057SOL     OW12207   4.765   2.563   0.429
 4057SOL    HW112208   4.791   2.559   0.525
 4057SOL    HW212209   4.680   2.512   0.415
 4058SOL     OW12210   3.800   2.673   0.789
 4058SOL    HW112211   3.899   2.661   0.798
 4058SOL    HW212212   3.776   2.768   0.810
 4059SOL     OW12213   3.854   3.683   1.571
 4059SOL    HW112214   3.844   3.668   1.670
 4059SOL    HW212215   3.768   3.719   1.535
 4060SOL     OW12216   4.589   2.210   0.195
 4060SOL    HW112217   4.648   2.273   0.146
 4060SOL    HW212218   4.608   2.116   0.166
 4061SOL     OW12219   5.086   3.006   0.545
 4061SOL    HW112220   5.169   2.977   0.497
 4061SOL    HW212221   5.037   3.073   0.489
 4062SOL     OW12222   4.274   2.058   0.885
 4062SOL    HW112223   4.269   2.053   0.985
 4062SOL    HW212224   4.276   2.154   0.856
 4063SOL     OW12225   4.732   3.318   0.477
 4063SOL    HW112226   4.686   3.390   0.425
 4063SOL    HW212227   4.728   3.338   0.575
 4064SOL     OW12228   4.075   3.663   0.853
 4064SOL    HW112229   4.125   3.577   0.859
 4064SOL    HW212230   4.140   3.740   0.850
 4065SOL     OW12231   4.951   3.412   1.506
 4065SOL    HW112232   4.957   3.335   1.570
 4065SOL    HW212233   4.899   3.386   1.426
 4066SOL     OW12234   4.045   2.805   0.242
 4066SOL    HW112235   4.127   2.844   0.200
 4066SOL    HW212236   4.018   2.723   0.193
 4067SOL     OW12237   5.182   2.597   0.728
 4067SOL    HW112238   5.177   2.532   0.803
 4067SOL    HW212239   5.262   2.656   0.741
 4068SOL     OW12240   4.185   3.128   1.727
 4068SOL    HW112241   4.135   3.129   1.641
 4068SOL    HW212242   4.122   3.110   1.803
 4069SOL     OW12243   4.835   3.638   0.237
 4069SOL    HW112244   4.775   3.576   0.287
 4069SOL    HW212245   4.866   3.594   0.152
 4070SOL     OW12246   3.926   2.147   1.498
 4070SOL    HW112247   3.846   2.207   1.485
 4070SOL    HW212248   3.916   2.098   1.584
 4071SOL     OW12249   4.188   3.605   0.323
 4071SOL    HW112250   4.221   3.644   0.409
 4071SOL    HW212251   4.264   3.598   0.258
 4072SOL     OW12252   5.124   1.969   0.426
 4072SOL    HW112253   5.100   1.932   0.336
 4072SOL    HW212254   5.223   1.985   0.430
 4073SOL     OW12255   3.973   3.647   1.241
 4073SOL    HW112256   4.030   3.582   1.291
 4073SOL    HW212257   3.957   3.614   1.148
 4074SOL     OW12258   4.664   3.560   0.904
 4074SOL    HW112259   4.744   3.503   0.925
 4074SOL    HW212260   4.615   3.520   0.827
 4075SOL     OW12261   4.106   2.562   0.480
 4075SOL    HW112262   4.151   2.472   0.477
 4075SOL    HW212263   4.012   2.551   0.513
 4076SOL     OW12264   4.338   1.984   0.117
 4076SOL    HW112265   4.436   1.962   0.124
 4076SOL    HW212266   4.307   1.967   0.024
 4077SOL     OW12267   4.505   2.126   1.749
 4077SOL    HW112268   4.572   2.065   1.792
 4077SOL    HW212269   4.432   2.145   1.814
 4078SOL     OW12270   4.612   3.376   1.195
 4078SOL    HW112271   4.589   3.351   1.101
 4078SOL    HW212272   4.673   3.307   1.234
 4079SOL     OW12273   5.075   2.452   1.433
 4079SOL    HW112274   5.103   2.409   1.518
 4079SOL    HW212275   5.100   2.548   1.434
 4080SOL     OW12276   4.527   3.264   0.924
 4080SOL    HW112277   4.617   3.278   0.882
 4080SOL    HW212278   4.456   3.266   0.853
 4081SOL     OW12279   4.646   2.365   0.899
 4081SOL    HW112280   4.621   2.356   0.803
 4081SOL    HW212281   4.694   2.283   0.930
 4082SOL     OW12282   4.263   1.926   0.512
 4082SOL    HW112283   4.182   1.927   0.570
 4082SOL    HW212284   4.266   2.009   0.457
 4083SOL     OW12285   5.158   3.050   0.041
 4083SOL    HW112286   5.190   2.974   0.098
 4083SOL    HW212287   5.066   3.077   0.071
 4084SOL     OW12288   4.021   1.897   0.171
 4084SOL    HW112289   4.070   1.981   0.150
 4084SOL    HW212290   4.083   1.832   0.216
 4085SOL     OW12291   4.659   2.098   0.480
 4085SOL    HW112292   4.611   2.139   0.402
 4085SOL    HW212293   4.758   2.096   0.461
 4086SOL     OW12294   4.800   2.545   1.464
 4086SOL    HW112295   4.720   2.484   1.467
 4086SOL    HW212296   4.881   2.492   1.440
 4087SOL     OW12297   4.951   3.432   0.793
 4087SOL    HW112298   4.972   3.506   0.728
 4087SOL    HW212299   5.019   3.432   0.866
 4088SOL     OW12300   4.183   3.014   0.741
 4088SOL    HW112301   4.112   2.987   0.806
 4088SOL    HW212302   4.157   2.986   0.648
 4089SOL     OW12303   4.995   3.659   0.591
 4089SOL    HW112304   5.039   3.723   0.527
 4089SOL    HW212305   4.945   3.711   0.661
 4090SOL     OW12306   4.756   2.411   0.016
 4090SOL    HW112307   4.715   2.493  -0.023
 4090SOL    HW212308   4.820   2.437   0.089
 4091SOL     OW12309   3.802   2.418   1.386
 4091SOL    HW112310   3.894   2.417   1.345
 4091SOL    HW212311   3.796   2.492   1.453
 4092SOL     OW12312   4.285   2.084   1.147
 4092SOL    HW112313   4.323   2.000   1.184
 4092SOL    HW212314   4.197   2.103   1.191
 4093SOL     OW12315   4.590   2.316   0.642
 4093SOL    HW112316   4.558   2.388   0.580
 4093SOL    HW212317   4.614   2.235   0.589
 4094SOL     OW12318   4.741   1.901   0.753
 4094SOL    HW112319   4.669   1.906   0.684
 4094SOL    HW212320   4.717   1.832   0.822
 4095SOL     OW12321   5.153   3.035   0.867
 4095SOL    HW112322   5.098   2.951   0.860
 4095SOL    HW212323   5.179   3.064   0.775
 4096SOL     OW12324   5.190   2.452   0.992
 4096SOL    HW112325   5.160   2.357   0.999
 4096SOL    HW212326   5.263   2.468   1.058
 4097SOL     OW12327   4.212   3.247   0.174
 4097SOL    HW112328   4.125   3.232   0.221
 4097SOL    HW212329   4.195   3.273   0.079
 4098SOL     OW12330   5.114   2.437   0.078
 4098SOL    HW112331   5.060   2.416   0.159
 4098SOL    HW212332   5.205   2.396   0.087
 4099SOL     OW12333   4.251   2.118   0.328
 4099SOL    HW112334   4.278   2.059   0.253
 4099SOL    HW212335   4.251   2.213   0.297
 4100SOL     OW12336   4.788   3.209   1.340
 4100SOL    HW112337   4.708   3.186   1.395
 4100SOL    HW212338   4.871   3.183   1.389
 4101SOL     OW12339   5.316   3.491   1.625
 4101SOL    HW112340   5.343   3.525   1.535
 4101SOL    HW212341   5.395   3.453   1.671
 4102SOL     OW12342   4.835   3.057   1.100
 4102SOL    HW112343   4.795   3.101   1.181
 4102SOL    HW212344   4.794   3.094   1.017
 4103SOL     OW12345   4.639   1.951   1.402
 4103SOL    HW112346   4.664   1.931   1.307
 4103SOL    HW212347   4.711   2.007   1.444
 4104SOL     OW12348   4.704   2.978   1.719
 4104SOL    HW112349   4.605   2.984   1.729
 4104SOL    HW212350   4.727   2.898   1.663
 4105SOL     OW12351   4.429   2.912   0.368
 4105SOL    HW112352   4.415   2.919   0.467
 4105SOL    HW212353   4.513   2.861   0.350
 4106SOL     OW12354   4.134   2.675   1.251
 4106SOL    HW112355   4.220   2.687   1.301
 4106SOL    HW212356   4.092   2.588   1.278
 4107SOL     OW12357   4.998   2.248   1.262
 4107SOL    HW112358   5.019   2.322   1.326
 4107SOL    HW212359   4.909   2.265   1.219
 4108SOL     OW12360   3.788   3.426   1.331
 4108SOL    HW112361   3.742   3.508   1.297
 4108SOL    HW212362   3.886   3.445   1.340
 4109SOL     OW12363   4.091   2.962   0.501
 4109SOL    HW112364   4.084   3.045   0.445
 4109SOL    HW212365   4.095   2.882   0.441
 4110SOL     OW12366   4.290   2.399   0.865
 4110SOL    HW112367   4.302   2.465   0.791
 4110SOL    HW212368   4.336   2.433   0.948
 4111SOL     OW12369   4.976   3.210   0.388
 4111SOL    HW112370   5.026   3.287   0.428
 4111SOL    HW212371   4.881   3.212   0.420
 4112SOL     OW12372   4.996   3.307   1.142
 4112SOL    HW112373   5.043   3.320   1.229
 4112SOL    HW212374   4.930   3.233   1.151
 4113SOL     OW12375   5.306   2.501   0.472
 4113SOL    HW112376   5.275   2.562   0.545
 4113SOL    HW212377   5.356   2.553   0.403
 4114SOL     OW12378   4.078   3.372   1.329
 4114SOL    HW112379   4.057   3.328   1.242
 4114SOL    HW212380   4.175   3.398   1.332
 4115SOL     OW12381   4.126   2.613   1.598
 4115SOL    HW112382   4.194   2.668   1.551
 4115SOL    HW212383   4.166   2.525   1.625
 4116SOL     OW12384   4.737   1.967   1.770
 4116SOL    HW112385   4.743   2.052   1.718
 4116SOL    HW212386   4.769   1.891   1.713
 4117SOL     OW12387   4.228   1.912   1.740
 4117SOL    HW112388   4.186   1.855   1.670
 4117SOL    HW212389   4.162   1.981   1.772
 4118SOL     OW12390   4.297   2.732   1.029
 4118SOL    HW112391   4.341   2.821   1.020
 4118SOL    HW212392   4.234   2.732   1.106
 4119SOL     OW12393   5.084   2.724   1.045
 4119SOL    HW112394   5.009   2.724   0.979
 4119SOL    HW212395   5.121   2.632   1.054
 4120SOL     OW12396   4.933   2.387   0.275
 4120SOL    HW112397   4.946   2.303   0.329
 4120SOL    HW212398   4.904   2.461   0.335
 4121SOL     OW12399   4.031   2.075   1.231
 4121SOL    HW112400   4.008   2.112   1.321
 4121SOL    HW212401   4.001   1.980   1.225
 4122SOL     OW12402   3.761   3.172   1.282
 4122SOL    HW112403   3.814   3.123   1.350
 4122SOL    HW212404   3.783   3.270   1.287
 4123SOL     OW12405   4.456   2.496   1.064
 4123SOL    HW112406   4.515   2.470   0.988
 4123SOL    HW212407   4.428   2.592   1.053
 4124SOL     OW12408   4.031   1.925   0.618
 4124SOL    HW112409   4.020   2.019   0.651
 4124SOL    HW212410   4.026   1.862   0.695
 4125SOL     OW12411   5.346   2.229   0.374
 4125SOL    HW112412   5.348   2.153   0.438
 4125SOL    HW212413   5.298   2.306   0.414
 4126SOL     OW12414   4.747   2.628   0.966
 4126SOL    HW112415   4.762   2.649   1.062
 4126SOL    HW212416   4.717   2.533   0.957
 4127SOL     OW12417   4.704   3.435   1.700
 4127SOL    HW112418   4.684   3.479   1.612
 4127SOL    HW212419   4.743   3.344   1.684
 4128SOL     OW12420   4.074   2.760   1.804
 4128SOL    HW112421   4.150   2.804   1.852
 4128SOL    HW212422   4.109   2.713   1.722
 4129SOL     OW12423   5.264   2.136   0.125
 4129SOL    HW112424   5.203   2.061   0.148
 4129SOL    HW212425   5.286   2.188   0.208
 4130SOL     OW12426   5.027   2.700   0.042
 4130SOL    HW112427   5.061   2.607   0.057
 4130SOL    HW212428   5.045   2.727  -0.053
 4131SOL     OW12429   4.792   3.195   0.849
 4131SOL    HW112430   4.799   3.111   0.794
 4131SOL    HW212431   4.854   3.264   0.813
 4132SOL     OW12432   4.043   2.672   0.949
 4132SOL    HW112433   4.136   2.708   0.954
 4132SOL    HW212434   4.037   2.587   1.001
 4133SOL     OW12435   4.063   2.371   1.006
 4133SOL    HW112436   4.011   2.288   0.989
 4133SOL    HW212437   4.140   2.376   0.942
 4134SOL     OW12438   4.862   2.242   1.678
 4134SOL    HW112439   4.817   2.305   1.742
 4134SOL    HW212440   4.955   2.273   1.661
 4135SOL     OW12441   4.884   2.069   1.477
 4135SOL    HW112442   4.884   2.133   1.554
 4135SOL    HW212443   4.912   2.117   1.394
 4136SOL     OW12444   3.732   3.188   0.200
 4136SOL    HW112445   3.639   3.209   0.169
 4136SOL    HW212446   3.742   3.089   0.213
 4137SOL     OW12447   3.812   3.663   0.927
 4137SOL    HW112448   3.770   3.577   0.900
 4137SOL    HW212449   3.906   3.666   0.893
 4138SOL     OW12450   4.228   3.430   0.910
 4138SOL    HW112451   4.294   3.504   0.919
 4138SOL    HW212452   4.272   3.351   0.868
 4139SOL     OW12453   4.726   2.658   1.238
 4139SOL    HW112454   4.767   2.626   1.324
 4139SOL    HW212455   4.630   2.631   1.235
 4140SOL     OW12456   3.764   2.406   1.114
 4140SOL    HW112457   3.849   2.373   1.073
 4140SOL    HW212458   3.777   2.421   1.212
 4141SOL     OW12459   3.913   2.382   1.722
 4141SOL    HW112460   3.972   2.342   1.652
 4141SOL    HW212461   3.855   2.453   1.681
 4142SOL     OW12462   5.093   2.812   1.660
 4142SOL    HW112463   5.132   2.901   1.680
 4142SOL    HW212464   5.103   2.792   1.563
 4143SOL     OW12465   4.539   2.434   0.325
 4143SOL    HW112466   4.546   2.345   0.279
 4143SOL    HW212467   4.445   2.468   0.317
 4144SOL     OW12468   3.976   3.426   1.744
 4144SOL    HW112469   3.946   3.483   1.820
 4144SOL    HW212470   3.969   3.329   1.770
 4145SOL     OW12471   4.395   2.326   1.269
 4145SOL    HW112472   4.361   2.237   1.239
 4145SOL    HW212473   4.421   2.380   1.189
 4146SOL     OW12474   4.654   3.540   1.465
 4146SOL    HW112475   4.630   3.522   1.370
 4146SOL    HW212476   4.684   3.634   1.475
 4147SOL     OW12477   4.197   2.362   0.191
 4147SOL    HW112478   4.258   2.442   0.195
 4147SOL    HW212479   4.102   2.393   0.198
 4148SOL     OW12480   3.883   2.999   1.466
 4148SOL    HW112481   3.905   2.938   1.542
 4148SOL    HW212482   3.893   2.950   1.380
 4149SOL     OW12483   5.071   2.921   1.234
 4149SOL    HW112484   5.095   2.858   1.160
 4149SOL    HW212485   4.981   2.961   1.216
 4150SOL     OW12486   5.026   2.717   0.309
 4150SOL    HW112487   4.940   2.686   0.351
 4150SOL    HW212488   5.022   2.703   0.210
 4151SOL     OW12489   4.976   3.593   1.128
 4151SOL    HW112490   5.060   3.598   1.074
 4151SOL    HW212491   4.953   3.497   1.146
 4152SOL     OW12492   3.807   3.120   1.022
 4152SOL    HW112493   3.802   3.119   1.122
 4152SOL    HW212494   3.724   3.079   0.984
 4153SOL     OW12495   4.412   3.524   1.716
 4153SOL    HW112496   4.356   3.605   1.725
 4153SOL    HW212497   4.464   3.528   1.630
 4154SOL     OW12498   4.627   1.948   0.133
 4154SOL    HW112499   4.678   1.949   0.047
 4154SOL    HW212500   4.683   1.906   0.204
 4155SOL     OW12501   5.450   1.997   0.523
 4155SOL    HW112502   5.523   1.980   0.456
 4155SOL    HW212503   5.419   1.910   0.561
 4156SOL     OW12504   5.112   3.435   0.477
 4156SOL    HW112505   5.179   3.447   0.403
 4156SOL    HW212506   5.072   3.524   0.500
 4157SOL     OW12507   3.854   3.656   1.851
 4157SOL    HW112508   3.813   3.582   1.904
 4157SOL    HW212509   3.918   3.707   1.909
 4158SOL     OW12510   5.004   2.789   0.672
 4158SOL    HW112511   5.064   2.708   0.674
 4158SOL    HW212512   5.044   2.858   0.612
 4159SOL     OW12513   4.554   3.135   1.422
 4159SOL    HW112514   4.549   3.168   1.517
 4159SOL    HW212515   4.468   3.154   1.376
 4160SOL     OW12516   4.396   3.478   0.154
 4160SOL    HW112517   4.405   3.488   0.055
 4160SOL    HW212518   4.356   3.389   0.175
 4161SOL     OW12519   3.987   2.188   0.720
 4161SOL    HW112520   3.908   2.239   0.686
 4161SOL    HW212521   3.978   2.173   0.818
 4162SOL     OW12522   4.918   3.474   0.031
 4162SOL    HW112523   4.924   3.381   0.068
 4162SOL    HW212524   4.859   3.474  -0.049
 4163SOL     OW12525   4.546   2.864   1.372
 4163SOL    HW112526   4.586   2.863   1.280
 4163SOL    HW212527   4.556   2.956   1.412
 4164SOL     OW12528   4.640   2.772   0.291
 4164SOL    HW112529   4.703   2.810   0.223
 4164SOL    HW212530   4.680   2.689   0.330
 4165SOL     OW12531   5.228   3.469   0.044
 4165SOL    HW112532   5.136   3.506   0.051
 4165SOL    HW212533   5.266   3.489  -0.046
 4166SOL     OW12534   4.096   3.150   1.490
 4166SOL    HW112535   4.083   3.243   1.456
 4166SOL    HW212536   4.012   3.098   1.477
 4167SOL     OW12537   4.763   2.960   0.696
 4167SOL    HW112538   4.693   2.913   0.750
 4167SOL    HW212539   4.822   2.892   0.653
 4168SOL     OW12540   4.738   2.098   0.971
 4168SOL    HW112541   4.730   2.062   0.878
 4168SOL    HW212542   4.736   2.022   1.036
 4169SOL     OW12543   4.314   3.349   0.491
 4169SOL    HW112544   4.356   3.291   0.421
 4169SOL    HW212545   4.270   3.428   0.447
 4170SOL     OW12546   3.979   3.210   0.290
 4170SOL    HW112547   3.883   3.211   0.263
 4170SOL    HW212548   3.991   3.263   0.374
 4171SOL     OW12549   3.829   2.875   1.726
 4171SOL    HW112550   3.752   2.842   1.780
 4171SOL    HW212551   3.914   2.845   1.768
 4172SOL     OW12552   4.396   2.065   1.489
 4172SOL    HW112553   4.486   2.049   1.449
 4172SOL    HW212554   4.404   2.070   1.588
 4173SOL     OW12555   5.164   2.718   1.398
 4173SOL    HW112556   5.107   2.770   1.335
 4173SOL    HW212557   5.260   2.730   1.374
 4174SOL     OW12558   3.796   2.028   0.318
 4174SOL    HW112559   3.779   2.111   0.264
 4174SOL    HW212560   3.886   1.991   0.296
 4175SOL     OW12561   4.907   3.197   0.119
 4175SOL    HW112562   4.808   3.186   0.121
 4175SOL    HW212563   4.941   3.212   0.212
 4176SOL     OW12564   4.337   2.704   1.431
 4176SOL    HW112565   4.393   2.785   1.414
 4176SOL    HW212566   4.396   2.624   1.434
 4177SOL     OW12567   5.217   3.629   0.959
 4177SOL    HW112568   5.250   3.693   0.890
 4177SOL    HW212569   5.283   3.623   1.034
 4178SOL     OW12570   4.440   2.427   1.708
 4178SOL    HW112571   4.459   2.492   1.782
 4178SOL    HW212572   4.500   2.347   1.717
 4179SOL     OW12573   5.174   3.082   1.633
 4179SOL    HW112574   5.165   3.072   1.732
 4179SOL    HW212575   5.270   3.075   1.607
 4180SOL     OW12576   4.114   3.603   1.560
 4180SOL    HW112577   4.023   3.644   1.558
 4180SOL    HW212578   4.107   3.509   1.592
 4181SOL     OW12579   4.949   2.187   0.449
 4181SOL    HW112580   5.014   2.113   0.438
 4181SOL    HW212581   4.969   2.237   0.533
 4182SOL     OW12582   4.318   2.607   0.652
 4182SOL    HW112583   4.368   2.692   0.633
 4182SOL    HW212584   4.230   2.609   0.604
 4183SOL     OW12585   4.583   3.236   0.016
 4183SOL    HW112586   4.537   3.251   0.104
 4183SOL    HW212587   4.627   3.321  -0.014
 4184SOL     OW12588   4.385   3.652   0.953
 4184SOL    HW112589   4.339   3.740   0.940
 4184SOL    HW212590   4.484   3.664   0.946
 4185SOL     OW12591   4.583   2.818   0.861
 4185SOL    HW112592   4.637   2.749   0.909
 4185SOL    HW212593   4.551   2.887   0.927
 4186SOL     OW12594   4.807   2.846   0.087
 4186SOL    HW112595   4.784   2.899   0.005
 4186SOL    HW212596   4.888   2.790   0.068
 4187SOL     OW12597   5.585   3.431   0.851
 4187SOL    HW112598   5.514   3.419   0.781
 4187SOL    HW212599   5.586   3.352   0.911
 4188SOL     OW12600   3.945   3.176   1.844
 4188SOL    HW112601   3.880   3.103   1.823
 4188SOL    HW212602   3.949   3.190   1.942
 4189SOL     OW12603   3.803   3.102   0.653
 4189SOL    HW112604   3.802   3.055   0.741
 4189SOL    HW212605   3.885   3.074   0.602
 4190SOL     OW12606   4.396   3.253   1.624
 4190SOL    HW112607   4.318   3.203   1.662
 4190SOL    HW212608   4.393   3.348   1.655
 4191SOL     OW12609   4.152   2.286   0.520
 4191SOL    HW112610   4.182   2.214   0.458
 4191SOL    HW212611   4.113   2.246   0.603
 4192SOL     OW12612   4.041   2.409   1.280
 4192SOL    HW112613   4.079   2.350   1.352
 4192SOL    HW212614   4.081   2.383   1.192
 4193SOL     OW12615   4.536   3.448   0.687
 4193SOL    HW112616   4.568   3.458   0.593
 4193SOL    HW212617   4.457   3.386   0.689
 4194SOL     OW12618   5.148   2.076   1.112
 4194SOL    HW112619   5.200   2.011   1.167
 4194SOL    HW212620   5.099   2.139   1.173
 4195SOL     OW12621   4.725   1.896   1.154
 4195SOL    HW112622   4.662   1.824   1.123
 4195SOL    HW212623   4.818   1.860   1.154
 4196SOL     OW12624   4.494   3.192   0.301
 4196SOL    HW112625   4.448   3.105   0.318
 4196SOL    HW212626   4.585   3.189   0.342
 4197SOL     OW12627   4.342   3.429   1.284
 4197SOL    HW112628   4.337   3.511   1.341
 4197SOL    HW212629   4.431   3.426   1.239
 4198SOL     OW12630   5.076   1.914   0.168
 4198SOL    HW112631   5.111   1.873   0.084
 4198SOL    HW212632   4.986   1.876   0.188
 4199SOL     OW12633   5.024   2.315   0.691
 4199SOL    HW112634   4.965   2.395   0.695
 4199SOL    HW212635   5.039   2.280   0.784
 4200SOL     OW12636   5.317   2.083   0.882
 4200SOL    HW112637   5.233   2.082   0.936
 4200SOL    HW212638   5.319   2.166   0.826
 4201SOL     OW12639   3.763   2.939   0.300
 4201SOL    HW112640   3.862   2.928   0.291
 4201SOL    HW212641   3.723   2.853   0.332
 4202SOL     OW12642   4.599   3.508   0.337
 4202SOL    HW112643   4.522   3.473   0.283
 4202SOL    HW212644   4.567   3.579   0.399
 4203SOL     OW12645   3.954   2.490   1.975
 4203SOL    HW112646   3.861   2.488   2.012
 4203SOL    HW212647   3.955   2.451   1.883
 4204SOL     OW12648   3.949   2.137   2.858
 4204SOL    HW112649   3.984   2.120   2.950
 4204SOL    HW212650   3.861   2.092   2.846
 4205SOL     OW12651   3.743   2.230   2.509
 4205SOL    HW112652   3.661   2.273   2.548
 4205SOL    HW212653   3.715   2.157   2.446
 4206SOL     OW12654   4.293   3.137   3.027
 4206SOL    HW112655   4.200   3.130   2.990
 4206SOL    HW212656   4.304   3.226   3.071
 4207SOL     OW12657   5.279   3.373   2.565
 4207SOL    HW112658   5.222   3.357   2.646
 4207SOL    HW212659   5.220   3.383   2.485
 4208SOL     OW12660   4.859   2.565   2.579
 4208SOL    HW112661   4.916   2.643   2.554
 4208SOL    HW212662   4.799   2.591   2.655
 4209SOL     OW12663   4.492   3.006   2.885
 4209SOL    HW112664   4.414   3.023   2.945
 4209SOL    HW212665   4.526   3.093   2.849
 4210SOL     OW12666   4.574   2.660   3.685
 4210SOL    HW112667   4.570   2.736   3.750
 4210SOL    HW212668   4.596   2.696   3.594
 4211SOL     OW12669   4.409   2.874   2.527
 4211SOL    HW112670   4.478   2.858   2.597
 4211SOL    HW212671   4.336   2.931   2.565
 4212SOL     OW12672   4.410   3.023   3.665
 4212SOL    HW112673   4.470   3.102   3.679
 4212SOL    HW212674   4.324   3.054   3.624
 4213SOL     OW12675   4.059   3.297   2.923
 4213SOL    HW112676   3.981   3.266   2.870
 4213SOL    HW212677   4.117   3.355   2.866
 4214SOL     OW12678   5.184   3.367   3.201
 4214SOL    HW112679   5.208   3.461   3.227
 4214SOL    HW212680   5.168   3.313   3.283
 4215SOL     OW12681   4.162   2.254   3.361
 4215SOL    HW112682   4.244   2.198   3.370
 4215SOL    HW212683   4.081   2.196   3.365
 4216SOL     OW12684   3.955   3.575   2.345
 4216SOL    HW112685   3.989   3.652   2.399
 4216SOL    HW212686   3.999   3.575   2.255
 4217SOL     OW12687   4.851   3.203   3.552
 4217SOL    HW112688   4.898   3.203   3.640
 4217SOL    HW212689   4.803   3.116   3.541
 4218SOL     OW12690   3.954   3.296   2.400
 4218SOL    HW112691   3.928   3.392   2.400
 4218SOL    HW212692   3.883   3.242   2.445
 4219SOL     OW12693   3.964   2.953   2.748
 4219SOL    HW112694   3.978   2.869   2.800
 4219SOL    HW212695   3.909   3.017   2.803
 4220SOL     OW12696   4.344   3.648   3.301
 4220SOL    HW112697   4.252   3.631   3.336
 4220SOL    HW212698   4.372   3.740   3.327
 4221SOL     OW12699   4.330   2.826   1.985
 4221SOL    HW112700   4.337   2.910   1.931
 4221SOL    HW212701   4.376   2.839   2.073
 4222SOL     OW12702   5.318   1.976   3.342
 4222SOL    HW112703   5.300   2.043   3.270
 4222SOL    HW212704   5.315   2.022   3.431
 4223SOL     OW12705   3.846   2.505   2.425
 4223SOL    HW112706   3.801   2.417   2.442
 4223SOL    HW212707   3.845   2.559   2.509
 4224SOL     OW12708   3.751   3.458   1.979
 4224SOL    HW112709   3.732   3.362   2.000
 4224SOL    HW212710   3.718   3.516   2.054
 4225SOL     OW12711   5.413   2.784   2.474
 4225SOL    HW112712   5.508   2.755   2.482
 4225SOL    HW212713   5.405   2.849   2.399
 4226SOL     OW12714   3.837   2.599   3.459
 4226SOL    HW112715   3.925   2.586   3.504
 4226SOL    HW212716   3.824   2.696   3.437
 4227SOL     OW12717   4.337   3.227   2.588
 4227SOL    HW112718   4.288   3.140   2.597
 4227SOL    HW212719   4.314   3.270   2.501
 4228SOL     OW12720   5.017   3.090   3.285
 4228SOL    HW112721   5.054   3.017   3.227
 4228SOL    HW212722   5.069   3.095   3.370
 4229SOL     OW12723   4.533   1.866   2.364
 4229SOL    HW112724   4.573   1.957   2.355
 4229SOL    HW212725   4.433   1.874   2.370
 4230SOL     OW12726   3.921   2.838   3.126
 4230SOL    HW112727   4.010   2.793   3.112
 4230SOL    HW212728   3.848   2.773   3.107
 4231SOL     OW12729   4.911   3.654   3.478
 4231SOL    HW112730   4.935   3.714   3.402
 4231SOL    HW212731   4.918   3.559   3.448
 4232SOL     OW12732   4.041   2.113   3.663
 4232SOL    HW112733   4.112   2.184   3.669
 4232SOL    HW212734   3.953   2.152   3.691
 4233SOL     OW12735   5.190   3.279   2.815
 4233SOL    HW112736   5.131   3.285   2.895
 4233SOL    HW212737   5.175   3.191   2.769
 4234SOL     OW12738   5.391   3.576   2.434
 4234SOL    HW112739   5.350   3.553   2.346
 4234SOL    HW212740   5.373   3.502   2.499
 4235SOL     OW12741   4.322   2.591   2.132
 4235SOL    HW112742   4.346   2.660   2.064
 4235SOL    HW212743   4.244   2.624   2.186
 4236SOL     OW12744   5.005   2.207   2.806
 4236SOL    HW112745   4.919   2.157   2.793
 4236SOL    HW212746   5.067   2.153   2.862
 4237SOL     OW12747   4.531   2.467   3.327
 4237SOL    HW112748   4.484   2.464   3.416
 4237SOL    HW212749   4.480   2.412   3.261
 4238SOL     OW12750   5.118   2.331   3.536
 4238SOL    HW112751   5.098   2.374   3.624
 4238SOL    HW212752   5.196   2.269   3.545
 4239SOL     OW12753   4.697   2.752   3.434
 4239SOL    HW112754   4.743   2.668   3.405
 4239SOL    HW212755   4.641   2.786   3.359
 4240SOL     OW12756   4.715   2.272   3.104
 4240SOL    HW112757   4.638   2.306   3.158
 4240SOL    HW212758   4.681   2.221   3.025
 4241SOL     OW12759   4.765   2.563   2.291
 4241SOL    HW112760   4.791   2.559   2.387
 4241SOL    HW212761   4.680   2.512   2.277
 4242SOL     OW12762   3.800   2.673   2.651
 4242SOL    HW112763   3.899   2.661   2.660
 4242SOL    HW212764   3.776   2.768   2.672
 4243SOL     OW12765   3.854   3.683   3.433
 4243SOL    HW112766   3.844   3.668   3.532
 4243SOL    HW212767   3.768   3.719   3.397
 4244SOL     OW12768   4.589   2.210   2.057
 4244SOL    HW112769   4.648   2.273   2.008
 4244SOL    HW212770   4.608   2.116   2.028
 4245SOL     OW12771   5.086   3.006   2.407
 4245SOL    HW112772   5.169   2.977   2.359
 4245SOL    HW212773   5.037   3.073   2.351
 4246SOL     OW12774   4.274   2.058   2.747
 4246SOL    HW112775   4.269   2.053   2.847
 4246SOL    HW212776   4.276   2.154   2.718
 4247SOL     OW12777   4.732   3.318   2.339
 4247SOL    HW112778   4.686   3.390   2.287
 4247SOL    HW212779   4.728   3.338   2.437
 4248SOL     OW12780   4.075   3.663   2.715
 4248SOL    HW112781   4.125   3.577   2.721
 4248SOL    HW212782   4.140   3.740   2.712
 4249SOL     OW12783   4.951   3.412   3.368
 4249SOL    HW112784   4.957   3.335   3.432
 4249SOL    HW212785   4.899   3.386   3.288
 4250SOL     OW12786   4.045   2.805   2.104
 4250SOL    HW112787   4.127   2.844   2.062
 4250SOL    HW212788   4.018   2.723   2.055
 4251SOL     OW12789   5.182   2.597   2.590
 4251SOL    HW112790   5.177   2.532   2.665
 4251SOL    HW212791   5.262   2.656   2.603
 4252SOL     OW12792   4.185   3.128   3.589
 4252SOL    HW112793   4.135   3.129   3.503
 4252SOL    HW212794   4.122   3.110   3.665
 4253SOL     OW12795   4.835   3.638   2.099
 4253SOL    HW112796   4.775   3.576   2.149
 4253SOL    HW212797   4.866   3.594   2.014
 4254SOL     OW12798   3.926   2.147   3.360
 4254SOL    HW112799   3.846   2.207   3.347
 4254SOL    HW212800   3.916   2.098   3.446
 4255SOL     OW12801   4.188   3.605   2.185
 4255SOL    HW112802   4.221   3.644   2.271
 4255SOL    HW212803   4.264   3.598   2.120
 4256SOL     OW12804   5.124   1.969   2.288
 4256SOL    HW112805   5.100   1.932   2.198
 4256SOL    HW212806   5.223   1.985   2.292
 4257SOL     OW12807   3.973   3.647   3.103
 4257SOL    HW112808   4.030   3.582   3.153
 4257SOL    HW212809   3.957   3.614   3.010
 4258SOL     OW12810   4.664   3.560   2.766
 4258SOL    HW112811   4.744   3.503   2.787
 4258SOL    HW212812   4.615   3.520   2.689
 4259SOL     OW12813   4.106   2.562   2.342
 4259SOL    HW112814   4.151   2.472   2.339
 4259SOL    HW212815   4.012   2.551   2.375
 4260SOL     OW12816   4.338   1.984   1.979
 4260SOL    HW112817   4.436   1.962   1.986
 4260SOL    HW212818   4.307   1.967   1.886
 4261SOL     OW12819   4.505   2.126   3.611
 4261SOL    HW112820   4.572   2.065   3.654
 4261SOL    HW212821   4.432   2.145   3.676
 4262SOL     OW12822   4.612   3.376   3.057
 4262SOL    HW112823   4.589   3.351   2.963
 4262SOL    HW212824   4.673   3.307   3.096
 4263SOL     OW12825   5.075   2.452   3.295
 4263SOL    HW112826   5.103   2.409   3.380
 4263SOL    HW212827   5.100   2.548   3.296
 4264SOL     OW12828   4.527   3.264   2.786
 4264SOL    HW112829   4.617   3.278   2.744
 4264SOL    HW212830   4.456   3.266   2.715
 4265SOL     OW12831   4.646   2.365   2.761
 4265SOL    HW112832   4.621   2.356   2.665
 4265SOL    HW212833   4.694   2.283   2.792
 4266SOL     OW12834   4.263   1.926   2.374
 4266SOL    HW112835   4.182   1.927   2.432
 4266SOL    HW212836   4.266   2.009   2.319
 4267SOL     OW12837   5.158   3.050   1.903
 4267SOL    HW112838   5.190   2.974   1.960
 4267SOL    HW212839   5.066   3.077   1.933
 4268SOL     OW12840   4.021   1.897   2.033
 4268SOL    HW112841   4.070   1.981   2.012
 4268SOL    HW212842   4.083   1.832   2.078
 4269SOL     OW12843   4.659   2.098   2.342
 4269SOL    HW112844   4.611   2.139   2.264
 4269SOL    HW212845   4.758   2.096   2.323
 4270SOL     OW12846   4.800   2.545   3.326
 4270SOL    HW112847   4.720   2.484   3.329
 4270SOL    HW212848   4.881   2.492   3.302
 4271SOL     OW12849   4.951   3.432   2.655
 4271SOL    HW112850   4.972   3.506   2.590
 4271SOL    HW212851   5.019   3.432   2.728
 4272SOL     OW12852   4.183   3.014   2.603
 4272SOL    HW112853   4.112   2.987   2.668
 4272SOL    HW212854   4.157   2.986   2.510
 4273SOL     OW12855   4.995   3.659   2.453
 4273SOL    HW112856   5.039   3.723   2.389
 4273SOL    HW212857   4.945   3.711   2.523
 4274SOL     OW12858   4.756   2.411   1.878
 4274SOL    HW112859   4.715   2.493   1.839
 4274SOL    HW212860   4.820   2.437   1.951
 4275SOL     OW12861   3.802   2.418   3.248
 4275SOL    HW112862   3.894   2.417   3.207
 4275SOL    HW212863   3.796   2.492   3.315
 4276SOL     OW12864   4.285   2.084   3.009
 4276SOL    HW112865   4.323   2.000   3.046
 4276SOL    HW212866   4.197   2.103   3.053
 4277SOL     OW12867   4.590   2.316   2.504
 4277SOL    HW112868   4.558   2.388   2.442
 4277SOL    HW212869   4.614   2.235   2.451
 4278SOL     OW12870   4.741   1.901   2.615
 4278SOL    HW112871   4.669   1.906   2.546
 4278SOL    HW212872   4.717   1.832   2.684
 4279SOL     OW12873   5.153   3.035   2.729
 4279SOL    HW112874   5.098   2.951   2.722
 4279SOL    HW212875   5.179   3.064   2.637
 4280SOL     OW12876   5.190   2.452   2.854
 4280SOL    HW112877   5.160   2.357   2.861
 4280SOL    HW212878   5.263   2.468   2.920
 4281SOL     OW12879   4.212   3.247   2.036
 4281SOL    HW112880   4.125   3.232   2.083
 4281SOL    HW212881   4.195   3.273   1.941
 4282SOL     OW12882   5.114   2.437   1.940
 4282SOL    HW112883   5.060   2.416   2.021
 4282SOL    HW212884   5.205   2.396   1.949
 4283SOL     OW12885   4.251   2.118   2.190
 4283SOL    HW112886   4.278   2.059   2.115
 4283SOL    HW212887   4.251   2.213   2.159
 4284SOL     OW12888   4.788   3.209   3.202
 4284SOL    HW112889   4.708   3.186   3.257
 4284SOL    HW212890   4.871   3.183   3.251
 4285SOL     OW12891   5.316   3.491   3.487
 4285SOL    HW112892   5.343   3.525   3.397
 4285SOL    HW212893   5.395   3.453   3.533
 4286SOL     OW12894   4.835   3.057   2.962
 4286SOL    HW112895   4.795   3.101   3.043
 4286SOL    HW212896   4.794   3.094   2.879
 4287SOL     OW12897   4.639   1.951   3.264
 4287SOL    HW112898   4.664   1.931   3.169
 4287SOL    HW212899   4.711   2.007   3.306
 4288SOL     OW12900   4.704   2.978   3.581
 4288SOL    HW112901   4.605   2.984   3.591
 4288SOL    HW212902   4.727   2.898   3.525
 4289SOL     OW12903   4.429   2.912   2.230
 4289SOL    HW112904   4.415   2.919   2.329
 4289SOL    HW212905   4.513   2.861   2.212
 4290SOL     OW12906   4.134   2.675   3.113
 4290SOL    HW112907   4.220   2.687   3.163
 4290SOL    HW212908   4.092   2.588   3.140
 4291SOL     OW12909   4.998   2.248   3.124
 4291SOL    HW112910   5.019   2.322   3.188
 4291SOL    HW212911   4.909   2.265   3.081
 4292SOL     OW12912   3.788   3.426   3.193
 4292SOL    HW112913   3.742   3.508   3.159
 4292SOL    HW212914   3.886   3.445   3.202
 4293SOL     OW12915   4.091   2.962   2.363
 4293SOL    HW112916   4.084   3.045   2.307
 4293SOL    HW212917   4.095   2.882   2.303
 4294SOL     OW12918   4.290   2.399   2.727
 4294SOL    HW112919   4.302   2.465   2.653
 4294SOL    HW212920   4.336   2.433   2.810
 4295SOL     OW12921   4.976   3.210   2.250
 4295SOL    HW112922   5.026   3.287   2.290
 4295SOL    HW212923   4.881   3.212   2.282
 4296SOL     OW12924   4.996   3.307   3.004
 4296SOL    HW112925   5.043   3.320   3.091
 4296SOL    HW212926   4.930   3.233   3.013
 4297SOL     OW12927   5.306   2.501   2.334
 4297SOL    HW112928   5.275   2.562   2.407
 4297SOL    HW212929   5.356   2.553   2.265
 4298SOL     OW12930   4.078   3.372   3.191
 4298SOL    HW112931   4.057   3.328   3.104
 4298SOL    HW212932   4.175   3.398   3.194
 4299SOL     OW12933   4.126   2.613   3.460
 4299SOL    HW112934   4.194   2.668   3.413
 4299SOL    HW212935   4.166   2.525   3.487
 4300SOL     OW12936   4.737   1.967   3.632
 4300SOL    HW112937   4.743   2.052   3.580
 4300SOL    HW212938   4.769   1.891   3.575
 4301SOL     OW12939   4.228   1.912   3.602
 4301SOL    HW112940   4.186   1.855   3.532
 4301SOL    HW212941   4.162   1.981   3.634
 4302SOL     OW12942   4.297   2.732   2.891
 4302SOL    HW112943   4.341   2.821   2.882
 4302SOL    HW212944   4.234   2.732   2.968
 4303SOL     OW12945   5.084   2.724   2.907
 4303SOL    HW112946   5.009   2.724   2.841
 4303SOL    HW212947   5.121   2.632   2.916
 4304SOL     OW12948   4.933   2.387   2.137
 4304SOL    HW112949   4.946   2.303   2.191
 4304SOL    HW212950   4.904   2.461   2.197
 4305SOL     OW12951   4.031   2.075   3.093
 4305SOL    HW112952   4.008   2.112   3.183
 4305SOL    HW212953   4.001   1.980   3.087
 4306SOL     OW12954   3.761   3.172   3.144
 4306SOL    HW112955   3.814   3.123   3.212
 4306SOL    HW212956   3.783   3.270   3.149
 4307SOL     OW12957   4.456   2.496   2.926
 4307SOL    HW112958   4.515   2.470   2.850
 4307SOL    HW212959   4.428   2.592   2.915
 4308SOL     OW12960   4.031   1.925   2.480
 4308SOL    HW112961   4.020   2.019   2.513
 4308SOL    HW212962   4.026   1.862   2.557
 4309SOL     OW12963   5.346   2.229   2.236
 4309SOL    HW112964   5.348   2.153   2.300
 4309SOL    HW212965   5.298   2.306   2.276
 4310SOL     OW12966   4.747   2.628   2.828
 4310SOL    HW112967   4.762   2.649   2.924
 4310SOL    HW212968   4.717   2.533   2.819
 4311SOL     OW12969   4.704   3.435   3.562
 4311SOL    HW112970   4.684   3.479   3.474
 4311SOL    HW212971   4.743   3.344   3.546
 4312SOL     OW12972   4.074   2.760   3.666
 4312SOL    HW112973   4.150   2.804   3.714
 4312SOL    HW212974   4.109   2.713   3.584
 4313SOL     OW12975   5.264   2.136   1.987
 4313SOL    HW112976   5.203   2.061   2.010
 4313SOL    HW212977   5.286   2.188   2.070
 4314SOL     OW12978   5.027   2.700   1.904
 4314SOL    HW112979   5.061   2.607   1.919
 4314SOL    HW212980   5.045   2.727   1.809
 4315SOL     OW12981   4.792   3.195   2.711
 4315SOL    HW112982   4.799   3.111   2.656
 4315SOL    HW212983   4.854   3.264   2.675
 4316SOL     OW12984   4.043   2.672   2.811
 4316SOL    HW112985   4.136   2.708   2.816
 4316SOL    HW212986   4.037   2.587   2.863
 4317SOL     OW12987   4.063   2.371   2.868
 4317SOL    HW112988   4.011   2.288   2.851
 4317SOL    HW212989   4.140   2.376   2.804
 4318SOL     OW12990   4.862   2.242   3.540
 4318SOL    HW112991   4.817   2.305   3.604
 4318SOL    HW212992   4.955   2.273   3.523
 4319SOL     OW12993   4.884   2.069   3.339
 4319SOL    HW112994   4.884   2.133   3.416
 4319SOL    HW212995   4.912   2.117   3.256
 4320SOL     OW12996   3.732   3.188   2.062
 4320SOL    HW112997   3.639   3.209   2.031
 4320SOL    HW212998   3.742   3.089   2.075
 4321SOL     OW12999   3.812   3.663   2.789
 4321SOL    HW113000   3.770   3.577   2.762
 4321SOL    HW213001   3.906   3.666   2.755
 4322SOL     OW13002   4.228   3.430   2.772
 4322SOL    HW113003   4.294   3.504   2.781
 4322SOL    HW213004   4.272   3.351   2.730
 4323SOL     OW13005   4.726   2.658   3.100
 4323SOL    HW113006   4.767   2.626   3.186
 4323SOL    HW213007   4.630   2.631   3.097
 4324SOL     OW13008   3.764   2.406   2.976
 4324SOL    HW113009   3.849   2.373   2.935
 4324SOL    HW213010   3.777   2.421   3.074
 4325SOL     OW13011   3.913   2.382   3.584
 4325SOL    HW113012   3.972   2.342   3.514
 4325SOL    HW213013   3.855   2.453   3.543
 4326SOL     OW13014   5.093   2.812   3.522
 4326SOL    HW113015   5.132   2.901   3.542
 4326SOL    HW213016   5.103   2.792   3.425
 4327SOL     OW13017   4.539   2.434   2.187
 4327SOL    HW113018   4.546   2.345   2.141
 4327SOL    HW213019   4.445   2.468   2.179
 4328SOL     OW13020   3.976   3.426   3.606
 4328SOL    HW113021   3.946   3.483   3.682
 4328SOL    HW213022   3.969   3.329   3.632
 4329SOL     OW13023   4.395   2.326   3.131
 4329SOL    HW113024   4.361   2.237   3.101
 4329SOL    HW213025   4.421   2.380   3.051
 4330SOL     OW13026   4.654   3.540   3.327
 4330SOL    HW113027   4.630   3.522   3.232
 4330SOL    HW213028   4.684   3.634   3.337
 4331SOL     OW13029   4.197   2.362   2.053
 4331SOL    HW113030   4.258   2.442   2.057
 4331SOL    HW213031   4.102   2.393   2.060
 4332SOL     OW13032   3.883   2.999   3.328
 4332SOL    HW113033   3.905   2.938   3.404
 4332SOL    HW213034   3.893   2.950   3.242
 4333SOL     OW13035   5.071   2.921   3.096
 4333SOL    HW113036   5.095   2.858   3.022
 4333SOL    HW213037   4.981   2.961   3.078
 4334SOL     OW13038   5.026   2.717   2.171
 4334SOL    HW113039   4.940   2.686   2.213
 4334SOL    HW213040   5.022   2.703   2.072
 4335SOL     OW13041   4.976   3.593   2.990
 4335SOL    HW113042   5.060   3.598   2.936
 4335SOL    HW213043   4.953   3.497   3.008
 4336SOL     OW13044   3.807   3.120   2.884
 4336SOL    HW113045   3.802   3.119   2.984
 4336SOL    HW213046   3.724   3.079   2.846
 4337SOL     OW13047   4.412   3.524   3.578
 4337SOL    HW113048   4.356   3.605   3.587
 4337SOL    HW213049   4.464   3.528   3.492
 4338SOL     OW13050   5.450   1.997   2.385
 4338SOL    HW113051   5.523   1.980   2.318
 4338SOL    HW213052   5.419   1.910   2.423
 4339SOL     OW13053   5.112   3.435   2.339
 4339SOL    HW113054   5.179   3.447   2.265
 4339SOL    HW213055   5.072   3.524   2.362
 4340SOL     OW13056   3.854   3.656   3.713
 4340SOL    HW113057   3.813   3.582   3.766
 4340SOL    HW213058   3.918   3.707   3.771
 4341SOL     OW13059   5.004   2.789   2.534
 4341SOL    HW113060   5.064   2.708   2.536
 4341SOL    HW213061   5.044   2.858   2.474
 4342SOL     OW13062   4.554   3.135   3.284
 4342SOL    HW113063   4.549   3.168   3.379
 4342SOL    HW213064   4.468   3.154   3.238
 4343SOL     OW13065   4.396   3.478   2.016
 4343SOL    HW113066   4.405   3.488   1.917
 4343SOL    HW213067   4.356   3.389   2.037
 4344SOL     OW13068   3.987   2.188   2.582
 4344SOL    HW113069   3.908   2.239   2.548
 4344SOL    HW213070   3.978   2.173   2.680
 4345SOL     OW13071   4.918   3.474   1.893
 4345SOL    HW113072   4.924   3.381   1.930
 4345SOL    HW213073   4.859   3.474   1.813
 4346SOL     OW13074   4.546   2.864   3.234
 4346SOL    HW113075   4.586   2.863   3.142
 4346SOL    HW213076   4.556   2.956   3.274
 4347SOL     OW13077   4.640   2.772   2.153
 4347SOL    HW113078   4.703   2.810   2.085
 4347SOL    HW213079   4.680   2.689   2.192
 4348SOL     OW13080   5.228   3.469   1.906
 4348SOL    HW113081   5.136   3.506   1.913
 4348SOL    HW213082   5.266   3.489   1.816
 4349SOL     OW13083   4.096   3.150   3.352
 4349SOL    HW113084   4.083   3.243   3.318
 4349SOL    HW213085   4.012   3.098   3.339
 4350SOL     OW13086   4.763   2.960   2.558
 4350SOL    HW113087   4.693   2.913   2.612
 4350SOL    HW213088   4.822   2.892   2.515
 4351SOL     OW13089   4.738   2.098   2.833
 4351SOL    HW113090   4.730   2.062   2.740
 4351SOL    HW213091   4.736   2.022   2.898
 4352SOL     OW13092   4.314   3.349   2.353
 4352SOL    HW113093   4.356   3.291   2.283
 4352SOL    HW213094   4.270   3.428   2.309
 4353SOL     OW13095   3.979   3.210   2.152
 4353SOL    HW113096   3.883   3.211   2.125
 4353SOL    HW213097   3.991   3.263   2.236
 4354SOL     OW13098   3.829   2.875   3.588
 4354SOL    HW113099   3.752   2.842   3.642
 4354SOL    HW213100   3.914   2.845   3.630
 4355SOL     OW13101   4.396   2.065   3.351
 4355SOL    HW113102   4.486   2.049   3.311
 4355SOL    HW213103   4.404   2.070   3.450
 4356SOL     OW13104   3.799   2.207   1.895
 4356SOL    HW113105   3.707   2.179   1.866
 4356SOL    HW213106   3.830   2.284   1.839
 4357SOL     OW13107   5.164   2.718   3.260
 4357SOL    HW113108   5.107   2.770   3.197
 4357SOL    HW213109   5.260   2.730   3.236
 4358SOL     OW13110   3.796   2.028   2.180
 4358SOL    HW113111   3.779   2.111   2.126
 4358SOL    HW213112   3.886   1.991   2.158
 4359SOL     OW13113   4.907   3.197   1.981
 4359SOL    HW113114   4.808   3.186   1.983
 4359SOL    HW213115   4.941   3.212   2.074
 4360SOL     OW13116   4.337   2.704   3.293
 4360SOL    HW113117   4.393   2.785   3.276
 4360SOL    HW213118   4.396   2.624   3.296
 4361SOL     OW13119   5.217   3.629   2.821
 4361SOL    HW113120   5.250   3.693   2.752
 4361SOL    HW213121   5.283   3.623   2.896
 4362SOL     OW13122   4.440   2.427   3.570
 4362SOL    HW113123   4.459   2.492   3.644
 4362SOL    HW213124   4.500   2.347   3.579
 4363SOL     OW13125   5.174   3.082   3.495
 4363SOL    HW113126   5.165   3.072   3.594
 4363SOL    HW213127   5.270   3.075   3.469
 4364SOL     OW13128   4.114   3.603   3.422
 4364SOL    HW113129   4.023   3.644   3.420
 4364SOL    HW213130   4.107   3.509   3.454
 4365SOL     OW13131   4.949   2.187   2.311
 4365SOL    HW113132   5.014   2.113   2.300
 4365SOL    HW213133   4.969   2.237   2.395
 4366SOL     OW13134   4.318   2.607   2.514
 4366SOL    HW113135   4.368   2.692   2.495
 4366SOL    HW213136   4.230   2.609   2.466
 4367SOL     OW13137   4.583   3.236   1.878
 4367SOL    HW113138   4.537   3.251   1.966
 4367SOL    HW213139   4.627   3.321   1.848
 4368SOL     OW13140   4.385   3.652   2.815
 4368SOL    HW113141   4.339   3.740   2.802
 4368SOL    HW213142   4.484   3.664   2.808
 4369SOL     OW13143   4.583   2.818   2.723
 4369SOL    HW113144   4.637   2.749   2.771
 4369SOL    HW213145   4.551   2.887   2.789
 4370SOL     OW13146   4.807   2.846   1.949
 4370SOL    HW113147   4.784   2.899   1.867
 4370SOL    HW213148   4.888   2.790   1.930
 4371SOL     OW13149   5.585   3.431   2.713
 4371SOL    HW113150   5.514   3.419   2.643
 4371SOL    HW213151   5.586   3.352   2.773
 4372SOL     OW13152   3.945   3.176   3.706
 4372SOL    HW113153   3.880   3.103   3.685
 4372SOL    HW213154   3.949   3.190   3.804
 4373SOL     OW13155   3.803   3.102   2.515
 4373SOL    HW113156   3.802   3.055   2.603
 4373SOL    HW213157   3.885   3.074   2.464
 4374SOL     OW13158   4.396   3.253   3.486
 4374SOL    HW113159   4.318   3.203   3.524
 4374SOL    HW213160   4.393   3.348   3.517
 4375SOL     OW13161   4.152   2.286   2.382
 4375SOL    HW113162   4.182   2.214   2.320
 4375SOL    HW213163   4.113   2.246   2.465
 4376SOL     OW13164   4.041   2.409   3.142
 4376SOL    HW113165   4.079   2.350   3.214
 4376SOL    HW213166   4.081   2.383   3.054
 4377SOL     OW13167   4.536   3.448   2.549
 4377SOL    HW113168   4.568   3.458   2.455
 4377SOL    HW213169   4.457   3.386   2.551
 4378SOL     OW13170   5.148   2.076   2.974
 4378SOL    HW113171   5.200   2.011   3.029
 4378SOL    HW213172   5.099   2.139   3.035
 4379SOL     OW13173   4.725   1.896   3.016
 4379SOL    HW113174   4.662   1.824   2.985
 4379SOL    HW213175   4.818   1.860   3.016
 4380SOL     OW13176   4.494   3.192   2.163
 4380SOL    HW113177   4.448   3.105   2.180
 4380SOL    HW213178   4.585   3.189   2.204
 4381SOL     OW13179   4.342   3.429   3.146
 4381SOL    HW113180   4.337   3.511   3.203
 4381SOL    HW213181   4.431   3.426   3.101
 4382SOL     OW13182   5.076   1.914   2.030
 4382SOL    HW113183   5.111   1.873   1.946
 4382SOL    HW213184   4.986   1.876   2.050
 4383SOL     OW13185   5.024   2.315   2.553
 4383SOL    HW113186   4.965   2.395   2.557
 4383SOL    HW213187   5.039   2.280   2.646
 4384SOL     OW13188   5.317   2.083   2.744
 4384SOL    HW113189   5.233   2.082   2.798
 4384SOL    HW213190   5.319   2.166   2.688
 4385SOL     OW13191   3.763   2.939   2.162
 4385SOL    HW113192   3.862   2.928   2.153
 4385SOL    HW213193   3.723   2.853   2.194
 4386SOL     OW13194   4.599   3.508   2.199
 4386SOL    HW113195   4.522   3.473   2.145
 4386SOL    HW213196   4.567   3.579   2.261
 4387SOL     OW13197   3.954   2.490   3.837
 4387SOL    HW113198   3.861   2.488   3.874
 4387SOL    HW213199   3.955   2.451   3.745
 4388SOL     OW13200   3.949   2.137   4.720
 4388SOL    HW113201   3.984   2.120   4.812
 4388SOL    HW213202   3.861   2.092   4.708
 4389SOL     OW13203   3.743   2.230   4.371
 4389SOL    HW113204   3.661   2.273   4.410
 4389SOL    HW213205   3.715   2.157   4.308
 4390SOL     OW13206   4.293   3.137   4.889
 4390SOL    HW113207   4.200   3.130   4.852
 4390SOL    HW213208   4.304   3.226   4.933
 4391SOL     OW13209   5.279   3.373   4.427
 4391SOL    HW113210   5.222   3.357   4.508
 4391SOL    HW213211   5.220   3.383   4.347
 4392SOL     OW13212   4.859   2.565   4.441
 4392SOL    HW113213   4.916   2.643   4.416
 4392SOL    HW213214   4.799   2.591   4.517
 4393SOL     OW13215   4.492   3.006   4.747
 4393SOL    HW113216   4.414   3.023   4.807
 4393SOL    HW213217   4.526   3.093   4.711
 4394SOL     OW13218   4.409   2.874   4.389
 4394SOL    HW113219   4.478   2.858   4.459
 4394SOL    HW213220   4.336   2.931   4.427
 4395SOL     OW13221   4.410   3.023   5.527
 4395SOL    HW113222   4.470   3.102   5.541
 4395SOL    HW213223   4.324   3.054   5.486
 4396SOL     OW13224   4.059   3.297   4.785
 4396SOL    HW113225   3.981   3.266   4.732
 4396SOL    HW213226   4.117   3.355   4.728
 4397SOL     OW13227   5.184   3.367   5.063
 4397SOL    HW113228   5.208   3.461   5.089
 4397SOL    HW213229   5.168   3.313   5.145
 4398SOL     OW13230   4.162   2.254   5.223
 4398SOL    HW113231   4.244   2.198   5.232
 4398SOL    HW213232   4.081   2.196   5.227
 4399SOL     OW13233   3.955   3.575   4.207
 4399SOL    HW113234   3.989   3.652   4.261
 4399SOL    HW213235   3.999   3.575   4.117
 4400SOL     OW13236   3.954   3.296   4.262
 4400SOL    HW113237   3.928   3.392   4.262
 4400SOL    HW213238   3.883   3.242   4.307
 4401SOL     OW13239   3.964   2.953   4.610
 4401SOL    HW113240   3.978   2.869   4.662
 4401SOL    HW213241   3.909   3.017   4.665
 4402SOL     OW13242   4.344   3.648   5.163
 4402SOL    HW113243   4.252   3.631   5.198
 4402SOL    HW213244   4.372   3.740   5.189
 4403SOL     OW13245   4.330   2.826   3.847
 4403SOL    HW113246   4.337   2.910   3.793
 4403SOL    HW213247   4.376   2.839   3.935
 4404SOL     OW13248   5.318   1.976   5.204
 4404SOL    HW113249   5.300   2.043   5.132
 4404SOL    HW213250   5.315   2.022   5.293
 4405SOL     OW13251   3.846   2.505   4.287
 4405SOL    HW113252   3.801   2.417   4.304
 4405SOL    HW213253   3.845   2.559   4.371
 4406SOL     OW13254   3.751   3.458   3.841
 4406SOL    HW113255   3.732   3.362   3.862
 4406SOL    HW213256   3.718   3.516   3.916
 4407SOL     OW13257   5.413   2.784   4.336
 4407SOL    HW113258   5.508   2.755   4.344
 4407SOL    HW213259   5.405   2.849   4.261
 4408SOL     OW13260   3.837   2.599   5.321
 4408SOL    HW113261   3.925   2.586   5.366
 4408SOL    HW213262   3.824   2.696   5.299
 4409SOL     OW13263   4.337   3.227   4.450
 4409SOL    HW113264   4.288   3.140   4.459
 4409SOL    HW213265   4.314   3.270   4.363
 4410SOL     OW13266   5.017   3.090   5.147
 4410SOL    HW113267   5.054   3.017   5.089
 4410SOL    HW213268   5.069   3.095   5.232
 4411SOL     OW13269   4.533   1.866   4.226
 4411SOL    HW113270   4.573   1.957   4.217
 4411SOL    HW213271   4.433   1.874   4.232
 4412SOL     OW13272   3.921   2.838   4.988
 4412SOL    HW113273   4.010   2.793   4.974
 4412SOL    HW213274   3.848   2.773   4.969
 4413SOL     OW13275   5.190   3.279   4.677
 4413SOL    HW113276   5.131   3.285   4.757
 4413SOL    HW213277   5.175   3.191   4.631
 4414SOL     OW13278   5.391   3.576   4.296
 4414SOL    HW113279   5.350   3.553   4.208
 4414SOL    HW213280   5.373   3.502   4.361
 4415SOL     OW13281   4.322   2.591   3.994
 4415SOL    HW113282   4.346   2.660   3.926
 4415SOL    HW213283   4.244   2.624   4.048
 4416SOL     OW13284   5.005   2.207   4.668
 4416SOL    HW113285   4.919   2.157   4.655
 4416SOL    HW213286   5.067   2.153   4.724
 4417SOL     OW13287   4.531   2.467   5.189
 4417SOL    HW113288   4.484   2.464   5.278
 4417SOL    HW213289   4.480   2.412   5.123
 4418SOL     OW13290   4.697   2.752   5.296
 4418SOL    HW113291   4.743   2.668   5.267
 4418SOL    HW213292   4.641   2.786   5.221
 4419SOL     OW13293   4.715   2.272   4.966
 4419SOL    HW113294   4.638   2.306   5.020
 4419SOL    HW213295   4.681   2.221   4.887
 4420SOL     OW13296   4.765   2.563   4.153
 4420SOL    HW113297   4.791   2.559   4.249
 4420SOL    HW213298   4.680   2.512   4.139
 4421SOL     OW13299   3.800   2.673   4.513
 4421SOL    HW113300   3.899   2.661   4.522
 4421SOL    HW213301   3.776   2.768   4.534
 4422SOL     OW13302   3.854   3.683   5.295
 4422SOL    HW113303   3.844   3.668   5.394
 4422SOL    HW213304   3.768   3.719   5.259
 4423SOL     OW13305   4.589   2.210   3.919
 4423SOL    HW113306   4.648   2.273   3.870
 4423SOL    HW213307   4.608   2.116   3.890
 4424SOL     OW13308   5.086   3.006   4.269
 4424SOL    HW113309   5.169   2.977   4.221
 4424SOL    HW213310   5.037   3.073   4.213
 4425SOL     OW13311   4.274   2.058   4.609
 4425SOL    HW113312   4.269   2.053   4.709
 4425SOL    HW213313   4.276   2.154   4.580
 4426SOL     OW13314   4.732   3.318   4.201
 4426SOL    HW113315   4.686   3.390   4.149
 4426SOL    HW213316   4.728   3.338   4.299
 4427SOL     OW13317   4.075   3.663   4.577
 4427SOL    HW113318   4.125   3.577   4.583
 4427SOL    HW213319   4.140   3.740   4.574
 4428SOL     OW13320   4.045   2.805   3.966
 4428SOL    HW113321   4.127   2.844   3.924
 4428SOL    HW213322   4.018   2.723   3.917
 4429SOL     OW13323   5.182   2.597   4.452
 4429SOL    HW113324   5.177   2.532   4.527
 4429SOL    HW213325   5.262   2.656   4.465
 4430SOL     OW13326   4.835   3.638   3.961
 4430SOL    HW113327   4.775   3.576   4.011
 4430SOL    HW213328   4.866   3.594   3.876
 4431SOL     OW13329   3.926   2.147   5.222
 4431SOL    HW113330   3.846   2.207   5.209
 4431SOL    HW213331   3.916   2.098   5.308
 4432SOL     OW13332   4.188   3.605   4.047
 4432SOL    HW113333   4.221   3.644   4.133
 4432SOL    HW213334   4.264   3.598   3.982
 4433SOL     OW13335   5.124   1.969   4.150
 4433SOL    HW113336   5.100   1.932   4.060
 4433SOL    HW213337   5.223   1.985   4.154
 4434SOL     OW13338   3.973   3.647   4.965
 4434SOL    HW113339   4.030   3.582   5.015
 4434SOL    HW213340   3.957   3.614   4.872
 4435SOL     OW13341   4.664   3.560   4.628
 4435SOL    HW113342   4.744   3.503   4.649
 4435SOL    HW213343   4.615   3.520   4.551
 4436SOL     OW13344   4.106   2.562   4.204
 4436SOL    HW113345   4.151   2.472   4.201
 4436SOL    HW213346   4.012   2.551   4.237
 4437SOL     OW13347   4.338   1.984   3.841
 4437SOL    HW113348   4.436   1.962   3.848
 4437SOL    HW213349   4.307   1.967   3.748
 4438SOL     OW13350   4.612   3.376   4.919
 4438SOL    HW113351   4.589   3.351   4.825
 4438SOL    HW213352   4.673   3.307   4.958
 4439SOL     OW13353   5.075   2.452   5.157
 4439SOL    HW113354   5.103   2.409   5.242
 4439SOL    HW213355   5.100   2.548   5.158
 4440SOL     OW13356   4.527   3.264   4.648
 4440SOL    HW113357   4.617   3.278   4.606
 4440SOL    HW213358   4.456   3.266   4.577
 4441SOL     OW13359   4.646   2.365   4.623
 4441SOL    HW113360   4.621   2.356   4.527
 4441SOL    HW213361   4.694   2.283   4.654
 4442SOL     OW13362   4.263   1.926   4.236
 4442SOL    HW113363   4.182   1.927   4.294
 4442SOL    HW213364   4.266   2.009   4.181
 4443SOL     OW13365   5.158   3.050   3.765
 4443SOL    HW113366   5.190   2.974   3.822
 4443SOL    HW213367   5.066   3.077   3.795
 4444SOL     OW13368   4.021   1.897   3.895
 4444SOL    HW113369   4.070   1.981   3.874
 4444SOL    HW213370   4.083   1.832   3.940
 4445SOL     OW13371   4.659   2.098   4.204
 4445SOL    HW113372   4.611   2.139   4.126
 4445SOL    HW213373   4.758   2.096   4.185
 4446SOL     OW13374   4.800   2.545   5.188
 4446SOL    HW113375   4.720   2.484   5.191
 4446SOL    HW213376   4.881   2.492   5.164
 4447SOL     OW13377   4.951   3.432   4.517
 4447SOL    HW113378   4.972   3.506   4.452
 4447SOL    HW213379   5.019   3.432   4.590
 4448SOL     OW13380   4.183   3.014   4.465
 4448SOL    HW113381   4.112   2.987   4.530
 4448SOL    HW213382   4.157   2.986   4.372
 4449SOL     OW13383   4.995   3.659   4.315
 4449SOL    HW113384   5.039   3.723   4.251
 4449SOL    HW213385   4.945   3.711   4.385
 4450SOL     OW13386   4.756   2.411   3.740
 4450SOL    HW113387   4.715   2.493   3.701
 4450SOL    HW213388   4.820   2.437   3.813
 4451SOL     OW13389   3.802   2.418   5.110
 4451SOL    HW113390   3.894   2.417   5.069
 4451SOL    HW213391   3.796   2.492   5.177
 4452SOL     OW13392   4.285   2.084   4.871
 4452SOL    HW113393   4.323   2.000   4.908
 4452SOL    HW213394   4.197   2.103   4.915
 4453SOL     OW13395   4.590   2.316   4.366
 4453SOL    HW113396   4.558   2.388   4.304
 4453SOL    HW213397   4.614   2.235   4.313
 4454SOL     OW13398   4.741   1.901   4.477
 4454SOL    HW113399   4.669   1.906   4.408
 4454SOL    HW213400   4.717   1.832   4.546
 4455SOL     OW13401   5.153   3.035   4.591
 4455SOL    HW113402   5.098   2.951   4.584
 4455SOL    HW213403   5.179   3.064   4.499
 4456SOL     OW13404   5.190   2.452   4.716
 4456SOL    HW113405   5.160   2.357   4.723
 4456SOL    HW213406   5.263   2.468   4.782
 4457SOL     OW13407   4.212   3.247   3.898
 4457SOL    HW113408   4.125   3.232   3.945
 4457SOL    HW213409   4.195   3.273   3.803
 4458SOL     OW13410   5.114   2.437   3.802
 4458SOL    HW113411   5.060   2.416   3.883
 4458SOL    HW213412   5.205   2.396   3.811
 4459SOL     OW13413   4.251   2.118   4.052
 4459SOL    HW113414   4.278   2.059   3.977
 4459SOL    HW213415   4.251   2.213   4.021
 4460SOL     OW13416   4.788   3.209   5.064
 4460SOL    HW113417   4.708   3.186   5.119
 4460SOL    HW213418   4.871   3.183   5.113
 4461SOL     OW13419   4.835   3.057   4.824
 4461SOL    HW113420   4.795   3.101   4.905
 4461SOL    HW213421   4.794   3.094   4.741
 4462SOL     OW13422   4.639   1.951   5.126
 4462SOL    HW113423   4.664   1.931   5.031
 4462SOL    HW213424   4.711   2.007   5.168
 4463SOL     OW13425   4.429   2.912   4.092
 4463SOL    HW113426   4.415   2.919   4.191
 4463SOL    HW213427   4.513   2.861   4.074
 4464SOL     OW13428   4.134   2.675   4.975
 4464SOL    HW113429   4.220   2.687   5.025
 4464SOL    HW213430   4.092   2.588   5.002
 4465SOL     OW13431   4.998   2.248   4.986
 4465SOL    HW113432   5.019   2.322   5.050
 4465SOL    HW213433   4.909   2.265   4.943
 4466SOL     OW13434   3.788   3.426   5.055
 4466SOL    HW113435   3.742   3.508   5.021
 4466SOL    HW213436   3.886   3.445   5.064
 4467SOL     OW13437   4.091   2.962   4.225
 4467SOL    HW113438   4.084   3.045   4.169
 4467SOL    HW213439   4.095   2.882   4.165
 4468SOL     OW13440   4.290   2.399   4.589
 4468SOL    HW113441   4.302   2.465   4.515
 4468SOL    HW213442   4.336   2.433   4.672
 4469SOL     OW13443   4.976   3.210   4.112
 4469SOL    HW113444   5.026   3.287   4.152
 4469SOL    HW213445   4.881   3.212   4.144
 4470SOL     OW13446   4.996   3.307   4.866
 4470SOL    HW113447   5.043   3.320   4.953
 4470SOL    HW213448   4.930   3.233   4.875
 4471SOL     OW13449   5.306   2.501   4.196
 4471SOL    HW113450   5.275   2.562   4.269
 4471SOL    HW213451   5.356   2.553   4.127
 4472SOL     OW13452   4.078   3.372   5.053
 4472SOL    HW113453   4.057   3.328   4.966
 4472SOL    HW213454   4.175   3.398   5.056
 4473SOL     OW13455   4.126   2.613   5.322
 4473SOL    HW113456   4.194   2.668   5.275
 4473SOL    HW213457   4.166   2.525   5.349
 4474SOL     OW13458   4.297   2.732   4.753
 4474SOL    HW113459   4.341   2.821   4.744
 4474SOL    HW213460   4.234   2.732   4.830
 4475SOL     OW13461   5.084   2.724   4.769
 4475SOL    HW113462   5.009   2.724   4.703
 4475SOL    HW213463   5.121   2.632   4.778
 4476SOL     OW13464   4.933   2.387   3.999
 4476SOL    HW113465   4.946   2.303   4.053
 4476SOL    HW213466   4.904   2.461   4.059
 4477SOL     OW13467   4.031   2.075   4.955
 4477SOL    HW113468   4.008   2.112   5.045
 4477SOL    HW213469   4.001   1.980   4.949
 4478SOL     OW13470   3.761   3.172   5.006
 4478SOL    HW113471   3.814   3.123   5.074
 4478SOL    HW213472   3.783   3.270   5.011
 4479SOL     OW13473   4.456   2.496   4.788
 4479SOL    HW113474   4.515   2.470   4.712
 4479SOL    HW213475   4.428   2.592   4.777
 4480SOL     OW13476   4.031   1.925   4.342
 4480SOL    HW113477   4.020   2.019   4.375
 4480SOL    HW213478   4.026   1.862   4.419
 4481SOL     OW13479   5.346   2.229   4.098
 4481SOL    HW113480   5.348   2.153   4.162
 4481SOL    HW213481   5.298   2.306   4.138
 4482SOL     OW13482   4.747   2.628   4.690
 4482SOL    HW113483   4.762   2.649   4.786
 4482SOL    HW213484   4.717   2.533   4.681
 4483SOL     OW13485   5.264   2.136   3.849
 4483SOL    HW113486   5.203   2.061   3.872
 4483SOL    HW213487   5.286   2.188   3.932
 4484SOL     OW13488   5.027   2.700   3.766
 4484SOL    HW113489   5.061   2.607   3.781
 4484SOL    HW213490   5.045   2.727   3.671
 4485SOL     OW13491   4.792   3.195   4.573
 4485SOL    HW113492   4.799   3.111   4.518
 4485SOL    HW213493   4.854   3.264   4.537
 4486SOL     OW13494   4.043   2.672   4.673
 4486SOL    HW113495   4.136   2.708   4.678
 4486SOL    HW213496   4.037   2.587   4.725
 4487SOL     OW13497   4.063   2.371   4.730
 4487SOL    HW113498   4.011   2.288   4.713
 4487SOL    HW213499   4.140   2.376   4.666
 4488SOL     OW13500   4.884   2.069   5.201
 4488SOL    HW113501   4.884   2.133   5.278
 4488SOL    HW213502   4.912   2.117   5.118
 4489SOL     OW13503   3.732   3.188   3.924
 4489SOL    HW113504   3.639   3.209   3.893
 4489SOL    HW213505   3.742   3.089   3.937
 4490SOL     OW13506   3.812   3.663   4.651
 4490SOL    HW113507   3.770   3.577   4.624
 4490SOL    HW213508   3.906   3.666   4.617
 4491SOL     OW13509   4.228   3.430   4.634
 4491SOL    HW113510   4.294   3.504   4.643
 4491SOL    HW213511   4.272   3.351   4.592
 4492SOL     OW13512   4.726   2.658   4.962
 4492SOL    HW113513   4.767   2.626   5.048
 4492SOL    HW213514   4.630   2.631   4.959
 4493SOL     OW13515   3.764   2.406   4.838
 4493SOL    HW113516   3.849   2.373   4.797
 4493SOL    HW213517   3.777   2.421   4.936
 4494SOL     OW13518   4.539   2.434   4.049
 4494SOL    HW113519   4.546   2.345   4.003
 4494SOL    HW213520   4.445   2.468   4.041
 4495SOL     OW13521   3.976   3.426   5.468
 4495SOL    HW113522   3.946   3.483   5.544
 4495SOL    HW213523   3.969   3.329   5.494
 4496SOL     OW13524   4.395   2.326   4.993
 4496SOL    HW113525   4.361   2.237   4.963
 4496SOL    HW213526   4.421   2.380   4.913
 4497SOL     OW13527   4.654   3.540   5.189
 4497SOL    HW113528   4.630   3.522   5.094
 4497SOL    HW213529   4.684   3.634   5.199
 4498SOL     OW13530   4.197   2.362   3.915
 4498SOL    HW113531   4.258   2.442   3.919
 4498SOL    HW213532   4.102   2.393   3.922
 4499SOL     OW13533   3.883   2.999   5.190
 4499SOL    HW113534   3.905   2.938   5.266
 4499SOL    HW213535   3.893   2.950   5.104
 4500SOL     OW13536   5.071   2.921   4.958
 4500SOL    HW113537   5.095   2.858   4.884
 4500SOL    HW213538   4.981   2.961   4.940
 4501SOL     OW13539   5.026   2.717   4.033
 4501SOL    HW113540   4.940   2.686   4.075
 4501SOL    HW213541   5.022   2.703   3.934
 4502SOL     OW13542   4.976   3.593   4.852
 4502SOL    HW113543   5.060   3.598   4.798
 4502SOL    HW213544   4.953   3.497   4.870
 4503SOL     OW13545   3.807   3.120   4.746
 4503SOL    HW113546   3.802   3.119   4.846
 4503SOL    HW213547   3.724   3.079   4.708
 4504SOL     OW13548   5.450   1.997   4.247
 4504SOL    HW113549   5.523   1.980   4.180
 4504SOL    HW213550   5.419   1.910   4.285
 4505SOL     OW13551   5.112   3.435   4.201
 4505SOL    HW113552   5.179   3.447   4.127
 4505SOL    HW213553   5.072   3.524   4.224
 4506SOL     OW13554   5.004   2.789   4.396
 4506SOL    HW113555   5.064   2.708   4.398
 4506SOL    HW213556   5.044   2.858   4.336
 4507SOL     OW13557   4.554   3.135   5.146
 4507SOL    HW113558   4.549   3.168   5.241
 4507SOL    HW213559   4.468   3.154   5.100
 4508SOL     OW13560   4.396   3.478   3.878
 4508SOL    HW113561   4.405   3.488   3.779
 4508SOL    HW213562   4.356   3.389   3.899
 4509SOL     OW13563   3.987   2.188   4.444
 4509SOL    HW113564   3.908   2.239   4.410
 4509SOL    HW213565   3.978   2.173   4.542
 4510SOL     OW13566   4.918   3.474   3.755
 4510SOL    HW113567   4.924   3.381   3.792
 4510SOL    HW213568   4.859   3.474   3.675
 4511SOL     OW13569   4.546   2.864   5.096
 4511SOL    HW113570   4.586   2.863   5.004
 4511SOL    HW213571   4.556   2.956   5.136
 4512SOL     OW13572   4.640   2.772   4.015
 4512SOL    HW113573   4.703   2.810   3.947
 4512SOL    HW213574   4.680   2.689   4.054
 4513SOL     OW13575   5.228   3.469   3.768
 4513SOL    HW113576   5.136   3.506   3.775
 4513SOL    HW213577   5.266   3.489   3.678
 4514SOL     OW13578   4.096   3.150   5.214
 4514SOL    HW113579   4.083   3.243   5.180
 4514SOL    HW213580   4.012   3.098   5.201
 4515SOL     OW13581   4.763   2.960   4.420
 4515SOL    HW113582   4.693   2.913   4.474
 4515SOL    HW213583   4.822   2.892   4.377
 4516SOL     OW13584   4.738   2.098   4.695
 4516SOL    HW113585   4.730   2.062   4.602
 4516SOL    HW213586   4.736   2.022   4.760
 4517SOL     OW13587   4.314   3.349   4.215
 4517SOL    HW113588   4.356   3.291   4.145
 4517SOL    HW213589   4.270   3.428   4.171
 4518SOL     OW13590   3.979   3.210   4.014
 4518SOL    HW113591   3.883   3.211   3.987
 4518SOL    HW213592   3.991   3.263   4.098
 4519SOL     OW13593   3.829   2.875   5.450
 4519SOL    HW113594   3.752   2.842   5.504
 4519SOL    HW213595   3.914   2.845   5.492
 4520SOL     OW13596   4.396   2.065   5.213
 4520SOL    HW113597   4.486   2.049   5.173
 4520SOL    HW213598   4.404   2.070   5.312
 4521SOL     OW13599   3.799   2.207   3.757
 4521SOL    HW113600   3.707   2.179   3.728
 4521SOL    HW213601   3.830   2.284   3.701
 4522SOL     OW13602   5.164   2.718   5.122
 4522SOL    HW113603   5.107   2.770   5.059
 4522SOL    HW213604   5.260   2.730   5.098
 4523SOL     OW13605   3.796   2.028   4.042
 4523SOL    HW113606   3.779   2.111   3.988
 4523SOL    HW213607   3.886   1.991   4.020
 4524SOL     OW13608   4.907   3.197   3.843
 4524SOL    HW113609   4.808   3.186   3.845
 4524SOL    HW213610   4.941   3.212   3.936
 4525SOL     OW13611   4.337   2.704   5.155
 4525SOL    HW113612   4.393   2.785   5.138
 4525SOL    HW213613   4.396   2.624   5.158
 4526SOL     OW13614   5.217   3.629   4.683
 4526SOL    HW113615   5.250   3.693   4.614
 4526SOL    HW213616   5.283   3.623   4.758
 4527SOL     OW13617   4.440   2.427   5.432
 4527SOL    HW113618   4.459   2.492   5.506
 4527SOL    HW213619   4.500   2.347   5.441
 4528SOL     OW13620   4.114   3.603   5.284
 4528SOL    HW113621   4.023   3.644   5.282
 4528SOL    HW213622   4.107   3.509   5.316
 4529SOL     OW13623   4.949   2.187   4.173
 4529SOL    HW113624   5.014   2.113   4.162
 4529SOL    HW213625   4.969   2.237   4.257
 4530SOL     OW13626   4.318   2.607   4.376
 4530SOL    HW113627   4.368   2.692   4.357
 4530SOL    HW213628   4.230   2.609   4.328
 4531SOL     OW13629   4.583   3.236   3.740
 4531SOL    HW113630   4.537   3.251   3.828
 4531SOL    HW213631   4.627   3.321   3.710
 4532SOL     OW13632   4.385   3.652   4.677
 4532SOL    HW113633   4.339   3.740   4.664
 4532SOL    HW213634   4.484   3.664   4.670
 4533SOL     OW13635   4.583   2.818   4.585
 4533SOL    HW113636   4.637   2.749   4.633
 4533SOL    HW213637   4.551   2.887   4.651
 4534SOL     OW13638   4.807   2.846   3.811
 4534SOL    HW113639   4.784   2.899   3.729
 4534SOL    HW213640   4.888   2.790   3.792
 4535SOL     OW13641   5.585   3.431   4.575
 4535SOL    HW113642   5.514   3.419   4.505
 4535SOL    HW213643   5.586   3.352   4.635
 4536SOL     OW13644   3.803   3.102   4.377
 4536SOL    HW113645   3.802   3.055   4.465
 4536SOL    HW213646   3.885   3.074   4.326
 4537SOL     OW13647   4.396   3.253   5.348
 4537SOL    HW113648   4.318   3.203   5.386
 4537SOL    HW213649   4.393   3.348   5.379
 4538SOL     OW13650   4.152   2.286   4.244
 4538SOL    HW113651   4.182   2.214   4.182
 4538SOL    HW213652   4.113   2.246   4.327
 4539SOL     OW13653   4.041   2.409   5.004
 4539SOL    HW113654   4.079   2.350   5.076
 4539SOL    HW213655   4.081   2.383   4.916
 4540SOL     OW13656   4.536   3.448   4.411
 4540SOL    HW113657   4.568   3.458   4.317
 4540SOL    HW213658   4.457   3.386   4.413
 4541SOL     OW13659   5.148   2.076   4.836
 4541SOL    HW113660   5.200   2.011   4.891
 4541SOL    HW213661   5.099   2.139   4.897
 4542SOL     OW13662   4.725   1.896   4.878
 4542SOL    HW113663   4.662   1.824   4.847
 4542SOL    HW213664   4.818   1.860   4.878
 4543SOL     OW13665   4.494   3.192   4.025
 4543SOL    HW113666   4.448   3.105   4.042
 4543SOL    HW213667   4.585   3.189   4.066
 4544SOL     OW13668   4.342   3.429   5.008
 4544SOL    HW113669   4.337   3.511   5.065
 4544SOL    HW213670   4.431   3.426   4.963
 4545SOL     OW13671   5.076   1.914   3.892
 4545SOL    HW113672   5.111   1.873   3.808
 4545SOL    HW213673   4.986   1.876   3.912
 4546SOL     OW13674   5.024   2.315   4.415
 4546SOL    HW113675   4.965   2.395   4.419
 4546SOL    HW213676   5.039   2.280   4.508
 4547SOL     OW13677   5.317   2.083   4.606
 4547SOL    HW113678   5.233   2.082   4.660
 4547SOL    HW213679   5.319   2.166   4.550
 4548SOL     OW13680   3.763   2.939   4.024
 4548SOL    HW113681   3.862   2.928   4.015
 4548SOL    HW213682   3.723   2.853   4.056
 4549SOL     OW13683   4.599   3.508   4.061
 4549SOL    HW113684   4.522   3.473   4.007
 4549SOL    HW213685   4.567   3.579   4.123
 4550SOL     OW13686   3.954   4.352   0.113
 4550SOL    HW113687   3.861   4.350   0.150
 4550SOL    HW213688   3.955   4.313   0.021
 4551SOL     OW13689   3.949   3.999   0.996
 4551SOL    HW113690   3.984   3.982   1.088
 4551SOL    HW213691   3.861   3.954   0.984
 4552SOL     OW13692   3.743   4.092   0.647
 4552SOL    HW113693   3.661   4.135   0.686
 4552SOL    HW213694   3.715   4.019   0.584
 4553SOL     OW13695   4.293   4.999   1.165
 4553SOL    HW113696   4.200   4.992   1.128
 4553SOL    HW213697   4.304   5.088   1.209
 4554SOL     OW13698   5.279   5.235   0.703
 4554SOL    HW113699   5.222   5.219   0.784
 4554SOL    HW213700   5.220   5.245   0.623
 4555SOL     OW13701   4.859   4.427   0.717
 4555SOL    HW113702   4.916   4.505   0.692
 4555SOL    HW213703   4.799   4.453   0.793
 4556SOL     OW13704   4.492   4.868   1.023
 4556SOL    HW113705   4.414   4.885   1.083
 4556SOL    HW213706   4.526   4.955   0.987
 4557SOL     OW13707   4.574   4.522   1.823
 4557SOL    HW113708   4.570   4.598   1.888
 4557SOL    HW213709   4.596   4.558   1.732
 4558SOL     OW13710   4.409   4.736   0.665
 4558SOL    HW113711   4.478   4.720   0.735
 4558SOL    HW213712   4.336   4.793   0.703
 4559SOL     OW13713   4.410   4.885   1.803
 4559SOL    HW113714   4.470   4.964   1.817
 4559SOL    HW213715   4.324   4.916   1.762
 4560SOL     OW13716   4.059   5.159   1.061
 4560SOL    HW113717   3.981   5.128   1.008
 4560SOL    HW213718   4.117   5.217   1.004
 4561SOL     OW13719   5.184   5.229   1.339
 4561SOL    HW113720   5.208   5.323   1.365
 4561SOL    HW213721   5.168   5.175   1.421
 4562SOL     OW13722   4.162   4.116   1.499
 4562SOL    HW113723   4.244   4.060   1.508
 4562SOL    HW213724   4.081   4.058   1.503
 4563SOL     OW13725   4.851   5.065   1.690
 4563SOL    HW113726   4.898   5.065   1.778
 4563SOL    HW213727   4.803   4.978   1.679
 4564SOL     OW13728   3.954   5.158   0.538
 4564SOL    HW113729   3.928   5.254   0.538
 4564SOL    HW213730   3.883   5.104   0.583
 4565SOL     OW13731   3.964   4.815   0.886
 4565SOL    HW113732   3.978   4.731   0.938
 4565SOL    HW213733   3.909   4.879   0.941
 4566SOL     OW13734   4.330   4.688   0.123
 4566SOL    HW113735   4.337   4.772   0.069
 4566SOL    HW213736   4.376   4.701   0.211
 4567SOL     OW13737   5.318   3.838   1.480
 4567SOL    HW113738   5.300   3.905   1.408
 4567SOL    HW213739   5.315   3.884   1.569
 4568SOL     OW13740   3.846   4.367   0.563
 4568SOL    HW113741   3.801   4.279   0.580
 4568SOL    HW213742   3.845   4.421   0.647
 4569SOL     OW13743   3.751   5.320   0.117
 4569SOL    HW113744   3.732   5.224   0.138
 4569SOL    HW213745   3.718   5.378   0.192
 4570SOL     OW13746   5.413   4.646   0.612
 4570SOL    HW113747   5.508   4.617   0.620
 4570SOL    HW213748   5.405   4.711   0.537
 4571SOL     OW13749   3.837   4.461   1.597
 4571SOL    HW113750   3.925   4.448   1.642
 4571SOL    HW213751   3.824   4.558   1.575
 4572SOL     OW13752   4.337   5.089   0.726
 4572SOL    HW113753   4.288   5.002   0.735
 4572SOL    HW213754   4.314   5.132   0.639
 4573SOL     OW13755   5.017   4.952   1.423
 4573SOL    HW113756   5.054   4.879   1.365
 4573SOL    HW213757   5.069   4.957   1.508
 4574SOL     OW13758   4.533   3.728   0.502
 4574SOL    HW113759   4.573   3.819   0.493
 4574SOL    HW213760   4.433   3.736   0.508
 4575SOL     OW13761   3.921   4.700   1.264
 4575SOL    HW113762   4.010   4.655   1.250
 4575SOL    HW213763   3.848   4.635   1.245
 4576SOL     OW13764   4.041   3.975   1.801
 4576SOL    HW113765   4.112   4.046   1.807
 4576SOL    HW213766   3.953   4.014   1.829
 4577SOL     OW13767   5.190   5.141   0.953
 4577SOL    HW113768   5.131   5.147   1.033
 4577SOL    HW213769   5.175   5.053   0.907
 4578SOL     OW13770   4.322   4.453   0.270
 4578SOL    HW113771   4.346   4.522   0.202
 4578SOL    HW213772   4.244   4.486   0.324
 4579SOL     OW13773   5.005   4.069   0.944
 4579SOL    HW113774   4.919   4.019   0.931
 4579SOL    HW213775   5.067   4.015   1.000
 4580SOL     OW13776   4.531   4.329   1.465
 4580SOL    HW113777   4.484   4.326   1.554
 4580SOL    HW213778   4.480   4.274   1.399
 4581SOL     OW13779   5.118   4.193   1.674
 4581SOL    HW113780   5.098   4.236   1.762
 4581SOL    HW213781   5.196   4.131   1.683
 4582SOL     OW13782   4.697   4.614   1.572
 4582SOL    HW113783   4.743   4.530   1.543
 4582SOL    HW213784   4.641   4.648   1.497
 4583SOL     OW13785   4.715   4.134   1.242
 4583SOL    HW113786   4.638   4.168   1.296
 4583SOL    HW213787   4.681   4.083   1.163
 4584SOL     OW13788   4.765   4.425   0.429
 4584SOL    HW113789   4.791   4.421   0.525
 4584SOL    HW213790   4.680   4.374   0.415
 4585SOL     OW13791   3.800   4.535   0.789
 4585SOL    HW113792   3.899   4.523   0.798
 4585SOL    HW213793   3.776   4.630   0.810
 4586SOL     OW13794   4.589   4.072   0.195
 4586SOL    HW113795   4.648   4.135   0.146
 4586SOL    HW213796   4.608   3.978   0.166
 4587SOL     OW13797   5.086   4.868   0.545
 4587SOL    HW113798   5.169   4.839   0.497
 4587SOL    HW213799   5.037   4.935   0.489
 4588SOL     OW13800   4.274   3.920   0.885
 4588SOL    HW113801   4.269   3.915   0.985
 4588SOL    HW213802   4.276   4.016   0.856
 4589SOL     OW13803   4.732   5.180   0.477
 4589SOL    HW113804   4.686   5.252   0.425
 4589SOL    HW213805   4.728   5.200   0.575
 4590SOL     OW13806   4.951   5.274   1.506
 4590SOL    HW113807   4.957   5.197   1.570
 4590SOL    HW213808   4.899   5.248   1.426
 4591SOL     OW13809   4.045   4.667   0.242
 4591SOL    HW113810   4.127   4.706   0.200
 4591SOL    HW213811   4.018   4.585   0.193
 4592SOL     OW13812   5.182   4.459   0.728
 4592SOL    HW113813   5.177   4.394   0.803
 4592SOL    HW213814   5.262   4.518   0.741
 4593SOL     OW13815   4.185   4.990   1.727
 4593SOL    HW113816   4.135   4.991   1.641
 4593SOL    HW213817   4.122   4.972   1.803
 4594SOL     OW13818   3.926   4.009   1.498
 4594SOL    HW113819   3.846   4.069   1.485
 4594SOL    HW213820   3.916   3.960   1.584
 4595SOL     OW13821   5.124   3.831   0.426
 4595SOL    HW113822   5.100   3.794   0.336
 4595SOL    HW213823   5.223   3.847   0.430
 4596SOL     OW13824   4.106   4.424   0.480
 4596SOL    HW113825   4.151   4.334   0.477
 4596SOL    HW213826   4.012   4.413   0.513
 4597SOL     OW13827   4.338   3.846   0.117
 4597SOL    HW113828   4.436   3.824   0.124
 4597SOL    HW213829   4.307   3.829   0.024
 4598SOL     OW13830   4.505   3.988   1.749
 4598SOL    HW113831   4.572   3.927   1.792
 4598SOL    HW213832   4.432   4.007   1.814
 4599SOL     OW13833   5.075   4.314   1.433
 4599SOL    HW113834   5.103   4.271   1.518
 4599SOL    HW213835   5.100   4.410   1.434
 4600SOL     OW13836   4.527   5.126   0.924
 4600SOL    HW113837   4.617   5.140   0.882
 4600SOL    HW213838   4.456   5.128   0.853
 4601SOL     OW13839   4.646   4.227   0.899
 4601SOL    HW113840   4.621   4.218   0.803
 4601SOL    HW213841   4.694   4.145   0.930
 4602SOL     OW13842   4.263   3.788   0.512
 4602SOL    HW113843   4.182   3.789   0.570
 4602SOL    HW213844   4.266   3.871   0.457
 4603SOL     OW13845   5.158   4.912   0.041
 4603SOL    HW113846   5.190   4.836   0.098
 4603SOL    HW213847   5.066   4.939   0.071
 4604SOL     OW13848   4.021   3.759   0.171
 4604SOL    HW113849   4.070   3.843   0.150
 4604SOL    HW213850   4.083   3.694   0.216
 4605SOL     OW13851   4.659   3.960   0.480
 4605SOL    HW113852   4.611   4.001   0.402
 4605SOL    HW213853   4.758   3.958   0.461
 4606SOL     OW13854   4.800   4.407   1.464
 4606SOL    HW113855   4.720   4.346   1.467
 4606SOL    HW213856   4.881   4.354   1.440
 4607SOL     OW13857   4.951   5.294   0.793
 4607SOL    HW113858   4.972   5.368   0.728
 4607SOL    HW213859   5.019   5.294   0.866
 4608SOL     OW13860   4.183   4.876   0.741
 4608SOL    HW113861   4.112   4.849   0.806
 4608SOL    HW213862   4.157   4.848   0.648
 4609SOL     OW13863   4.756   4.273   0.016
 4609SOL    HW113864   4.715   4.355  -0.023
 4609SOL    HW213865   4.820   4.299   0.089
 4610SOL     OW13866   3.802   4.280   1.386
 4610SOL    HW113867   3.894   4.279   1.345
 4610SOL    HW213868   3.796   4.354   1.453
 4611SOL     OW13869   4.285   3.946   1.147
 4611SOL    HW113870   4.323   3.862   1.184
 4611SOL    HW213871   4.197   3.965   1.191
 4612SOL     OW13872   4.590   4.178   0.642
 4612SOL    HW113873   4.558   4.250   0.580
 4612SOL    HW213874   4.614   4.097   0.589
 4613SOL     OW13875   4.741   3.763   0.753
 4613SOL    HW113876   4.669   3.768   0.684
 4613SOL    HW213877   4.717   3.694   0.822
 4614SOL     OW13878   5.153   4.897   0.867
 4614SOL    HW113879   5.098   4.813   0.860
 4614SOL    HW213880   5.179   4.926   0.775
 4615SOL     OW13881   5.190   4.314   0.992
 4615SOL    HW113882   5.160   4.219   0.999
 4615SOL    HW213883   5.263   4.330   1.058
 4616SOL     OW13884   4.212   5.109   0.174
 4616SOL    HW113885   4.125   5.094   0.221
 4616SOL    HW213886   4.195   5.135   0.079
 4617SOL     OW13887   5.114   4.299   0.078
 4617SOL    HW113888   5.060   4.278   0.159
 4617SOL    HW213889   5.205   4.258   0.087
 4618SOL     OW13890   4.251   3.980   0.328
 4618SOL    HW113891   4.278   3.921   0.253
 4618SOL    HW213892   4.251   4.075   0.297
 4619SOL     OW13893   4.788   5.071   1.340
 4619SOL    HW113894   4.708   5.048   1.395
 4619SOL    HW213895   4.871   5.045   1.389
 4620SOL     OW13896   4.835   4.919   1.100
 4620SOL    HW113897   4.795   4.963   1.181
 4620SOL    HW213898   4.794   4.956   1.017
 4621SOL     OW13899   4.639   3.813   1.402
 4621SOL    HW113900   4.664   3.793   1.307
 4621SOL    HW213901   4.711   3.869   1.444
 4622SOL     OW13902   4.704   4.840   1.719
 4622SOL    HW113903   4.605   4.846   1.729
 4622SOL    HW213904   4.727   4.760   1.663
 4623SOL     OW13905   4.429   4.774   0.368
 4623SOL    HW113906   4.415   4.781   0.467
 4623SOL    HW213907   4.513   4.723   0.350
 4624SOL     OW13908   4.134   4.537   1.251
 4624SOL    HW113909   4.220   4.549   1.301
 4624SOL    HW213910   4.092   4.450   1.278
 4625SOL     OW13911   4.998   4.110   1.262
 4625SOL    HW113912   5.019   4.184   1.326
 4625SOL    HW213913   4.909   4.127   1.219
 4626SOL     OW13914   4.091   4.824   0.501
 4626SOL    HW113915   4.084   4.907   0.445
 4626SOL    HW213916   4.095   4.744   0.441
 4627SOL     OW13917   4.290   4.261   0.865
 4627SOL    HW113918   4.302   4.327   0.791
 4627SOL    HW213919   4.336   4.295   0.948
 4628SOL     OW13920   4.976   5.072   0.388
 4628SOL    HW113921   5.026   5.149   0.428
 4628SOL    HW213922   4.881   5.074   0.420
 4629SOL     OW13923   4.996   5.169   1.142
 4629SOL    HW113924   5.043   5.182   1.229
 4629SOL    HW213925   4.930   5.095   1.151
 4630SOL     OW13926   5.306   4.363   0.472
 4630SOL    HW113927   5.275   4.424   0.545
 4630SOL    HW213928   5.356   4.415   0.403
 4631SOL     OW13929   4.078   5.234   1.329
 4631SOL    HW113930   4.057   5.190   1.242
 4631SOL    HW213931   4.175   5.260   1.332
 4632SOL     OW13932   4.126   4.475   1.598
 4632SOL    HW113933   4.194   4.530   1.551
 4632SOL    HW213934   4.166   4.387   1.625
 4633SOL     OW13935   4.737   3.829   1.770
 4633SOL    HW113936   4.743   3.914   1.718
 4633SOL    HW213937   4.769   3.753   1.713
 4634SOL     OW13938   4.228   3.774   1.740
 4634SOL    HW113939   4.186   3.717   1.670
 4634SOL    HW213940   4.162   3.843   1.772
 4635SOL     OW13941   4.297   4.594   1.029
 4635SOL    HW113942   4.341   4.683   1.020
 4635SOL    HW213943   4.234   4.594   1.106
 4636SOL     OW13944   5.084   4.586   1.045
 4636SOL    HW113945   5.009   4.586   0.979
 4636SOL    HW213946   5.121   4.494   1.054
 4637SOL     OW13947   4.933   4.249   0.275
 4637SOL    HW113948   4.946   4.165   0.329
 4637SOL    HW213949   4.904   4.323   0.335
 4638SOL     OW13950   4.031   3.937   1.231
 4638SOL    HW113951   4.008   3.974   1.321
 4638SOL    HW213952   4.001   3.842   1.225
 4639SOL     OW13953   3.761   5.034   1.282
 4639SOL    HW113954   3.814   4.985   1.350
 4639SOL    HW213955   3.783   5.132   1.287
 4640SOL     OW13956   4.456   4.358   1.064
 4640SOL    HW113957   4.515   4.332   0.988
 4640SOL    HW213958   4.428   4.454   1.053
 4641SOL     OW13959   4.031   3.787   0.618
 4641SOL    HW113960   4.020   3.881   0.651
 4641SOL    HW213961   4.026   3.724   0.695
 4642SOL     OW13962   5.346   4.091   0.374
 4642SOL    HW113963   5.348   4.015   0.438
 4642SOL    HW213964   5.298   4.168   0.414
 4643SOL     OW13965   4.747   4.490   0.966
 4643SOL    HW113966   4.762   4.511   1.062
 4643SOL    HW213967   4.717   4.395   0.957
 4644SOL     OW13968   4.074   4.622   1.804
 4644SOL    HW113969   4.150   4.666   1.852
 4644SOL    HW213970   4.109   4.575   1.722
 4645SOL     OW13971   5.264   3.998   0.125
 4645SOL    HW113972   5.203   3.923   0.148
 4645SOL    HW213973   5.286   4.050   0.208
 4646SOL     OW13974   5.027   4.562   0.042
 4646SOL    HW113975   5.061   4.469   0.057
 4646SOL    HW213976   5.045   4.589  -0.053
 4647SOL     OW13977   4.792   5.057   0.849
 4647SOL    HW113978   4.799   4.973   0.794
 4647SOL    HW213979   4.854   5.126   0.813
 4648SOL     OW13980   4.043   4.534   0.949
 4648SOL    HW113981   4.136   4.570   0.954
 4648SOL    HW213982   4.037   4.449   1.001
 4649SOL     OW13983   4.063   4.233   1.006
 4649SOL    HW113984   4.011   4.150   0.989
 4649SOL    HW213985   4.140   4.238   0.942
 4650SOL     OW13986   4.862   4.104   1.678
 4650SOL    HW113987   4.817   4.167   1.742
 4650SOL    HW213988   4.955   4.135   1.661
 4651SOL     OW13989   4.884   3.931   1.477
 4651SOL    HW113990   4.884   3.995   1.554
 4651SOL    HW213991   4.912   3.979   1.394
 4652SOL     OW13992   3.732   5.050   0.200
 4652SOL    HW113993   3.639   5.071   0.169
 4652SOL    HW213994   3.742   4.951   0.213
 4653SOL     OW13995   4.228   5.292   0.910
 4653SOL    HW113996   4.294   5.366   0.919
 4653SOL    HW213997   4.272   5.213   0.868
 4654SOL     OW13998   4.726   4.520   1.238
 4654SOL    HW113999   4.767   4.488   1.324
 4654SOL    HW214000   4.630   4.493   1.235
 4655SOL     OW14001   3.764   4.268   1.114
 4655SOL    HW114002   3.849   4.235   1.073
 4655SOL    HW214003   3.777   4.283   1.212
 4656SOL     OW14004   3.913   4.244   1.722
 4656SOL    HW114005   3.972   4.204   1.652
 4656SOL    HW214006   3.855   4.315   1.681
 4657SOL     OW14007   5.093   4.674   1.660
 4657SOL    HW114008   5.132   4.763   1.680
 4657SOL    HW214009   5.103   4.654   1.563
 4658SOL     OW14010   4.539   4.296   0.325
 4658SOL    HW114011   4.546   4.207   0.279
 4658SOL    HW214012   4.445   4.330   0.317
 4659SOL     OW14013   3.976   5.288   1.744
 4659SOL    HW114014   3.946   5.345   1.820
 4659SOL    HW214015   3.969   5.191   1.770
 4660SOL     OW14016   4.395   4.188   1.269
 4660SOL    HW114017   4.361   4.099   1.239
 4660SOL    HW214018   4.421   4.242   1.189
 4661SOL     OW14019   4.197   4.224   0.191
 4661SOL    HW114020   4.258   4.304   0.195
 4661SOL    HW214021   4.102   4.255   0.198
 4662SOL     OW14022   3.883   4.861   1.466
 4662SOL    HW114023   3.905   4.800   1.542
 4662SOL    HW214024   3.893   4.812   1.380
 4663SOL     OW14025   5.071   4.783   1.234
 4663SOL    HW114026   5.095   4.720   1.160
 4663SOL    HW214027   4.981   4.823   1.216
 4664SOL     OW14028   5.026   4.579   0.309
 4664SOL    HW114029   4.940   4.548   0.351
 4664SOL    HW214030   5.022   4.565   0.210
 4665SOL     OW14031   5.483   5.471   1.154
 4665SOL    HW114032   5.544   5.501   1.081
 4665SOL    HW214033   5.445   5.382   1.132
 4666SOL     OW14034   3.807   4.982   1.022
 4666SOL    HW114035   3.802   4.981   1.122
 4666SOL    HW214036   3.724   4.941   0.984
 4667SOL     OW14037   4.627   3.810   0.133
 4667SOL    HW114038   4.678   3.811   0.047
 4667SOL    HW214039   4.683   3.768   0.204
 4668SOL     OW14040   5.450   3.859   0.523
 4668SOL    HW114041   5.523   3.842   0.456
 4668SOL    HW214042   5.419   3.772   0.561
 4669SOL     OW14043   5.004   4.651   0.672
 4669SOL    HW114044   5.064   4.570   0.674
 4669SOL    HW214045   5.044   4.720   0.612
 4670SOL     OW14046   4.554   4.997   1.422
 4670SOL    HW114047   4.549   5.030   1.517
 4670SOL    HW214048   4.468   5.016   1.376
 4671SOL     OW14049   3.987   4.050   0.720
 4671SOL    HW114050   3.908   4.101   0.686
 4671SOL    HW214051   3.978   4.035   0.818
 4672SOL     OW14052   4.918   5.336   0.031
 4672SOL    HW114053   4.924   5.243   0.068
 4672SOL    HW214054   4.859   5.336  -0.049
 4673SOL     OW14055   4.546   4.726   1.372
 4673SOL    HW114056   4.586   4.725   1.280
 4673SOL    HW214057   4.556   4.818   1.412
 4674SOL     OW14058   4.640   4.634   0.291
 4674SOL    HW114059   4.703   4.672   0.223
 4674SOL    HW214060   4.680   4.551   0.330
 4675SOL     OW14061   4.096   5.012   1.490
 4675SOL    HW114062   4.083   5.105   1.456
 4675SOL    HW214063   4.012   4.960   1.477
 4676SOL     OW14064   4.763   4.822   0.696
 4676SOL    HW114065   4.693   4.775   0.750
 4676SOL    HW214066   4.822   4.754   0.653
 4677SOL     OW14067   4.738   3.960   0.971
 4677SOL    HW114068   4.730   3.924   0.878
 4677SOL    HW214069   4.736   3.884   1.036
 4678SOL     OW14070   4.314   5.211   0.491
 4678SOL    HW114071   4.356   5.153   0.421
 4678SOL    HW214072   4.270   5.290   0.447
 4679SOL     OW14073   3.979   5.072   0.290
 4679SOL    HW114074   3.883   5.073   0.263
 4679SOL    HW214075   3.991   5.125   0.374
 4680SOL     OW14076   3.829   4.737   1.726
 4680SOL    HW114077   3.752   4.704   1.780
 4680SOL    HW214078   3.914   4.707   1.768
 4681SOL     OW14079   4.396   3.927   1.489
 4681SOL    HW114080   4.486   3.911   1.449
 4681SOL    HW214081   4.404   3.932   1.588
 4682SOL     OW14082   5.164   4.580   1.398
 4682SOL    HW114083   5.107   4.632   1.335
 4682SOL    HW214084   5.260   4.592   1.374
 4683SOL     OW14085   3.796   3.890   0.318
 4683SOL    HW114086   3.779   3.973   0.264
 4683SOL    HW214087   3.886   3.853   0.296
 4684SOL     OW14088   4.907   5.059   0.119
 4684SOL    HW114089   4.808   5.048   0.121
 4684SOL    HW214090   4.941   5.074   0.212
 4685SOL     OW14091   4.337   4.566   1.431
 4685SOL    HW114092   4.393   4.647   1.414
 4685SOL    HW214093   4.396   4.486   1.434
 4686SOL     OW14094   4.440   4.289   1.708
 4686SOL    HW114095   4.459   4.354   1.782
 4686SOL    HW214096   4.500   4.209   1.717
 4687SOL     OW14097   5.174   4.944   1.633
 4687SOL    HW114098   5.165   4.934   1.732
 4687SOL    HW214099   5.270   4.937   1.607
 4688SOL     OW14100   4.949   4.049   0.449
 4688SOL    HW114101   5.014   3.975   0.438
 4688SOL    HW214102   4.969   4.099   0.533
 4689SOL     OW14103   4.318   4.469   0.652
 4689SOL    HW114104   4.368   4.554   0.633
 4689SOL    HW214105   4.230   4.471   0.604
 4690SOL     OW14106   4.583   5.098   0.016
 4690SOL    HW114107   4.537   5.113   0.104
 4690SOL    HW214108   4.627   5.183  -0.014
 4691SOL     OW14109   5.132   5.575   1.720
 4691SOL    HW114110   5.036   5.564   1.693
 4691SOL    HW214111   5.188   5.508   1.672
 4692SOL     OW14112   4.583   4.680   0.861
 4692SOL    HW114113   4.637   4.611   0.909
 4692SOL    HW214114   4.551   4.749   0.927
 4693SOL     OW14115   4.807   4.708   0.087
 4693SOL    HW114116   4.784   4.761   0.005
 4693SOL    HW214117   4.888   4.652   0.068
 4694SOL     OW14118   5.585   5.293   0.851
 4694SOL    HW114119   5.514   5.281   0.781
 4694SOL    HW214120   5.586   5.214   0.911
 4695SOL     OW14121   3.945   5.038   1.844
 4695SOL    HW114122   3.880   4.965   1.823
 4695SOL    HW214123   3.949   5.052   1.942
 4696SOL     OW14124   3.803   4.964   0.653
 4696SOL    HW114125   3.802   4.917   0.741
 4696SOL    HW214126   3.885   4.936   0.602
 4697SOL     OW14127   4.396   5.115   1.624
 4697SOL    HW114128   4.318   5.065   1.662
 4697SOL    HW214129   4.393   5.210   1.655
 4698SOL     OW14130   4.152   4.148   0.520
 4698SOL    HW114131   4.182   4.076   0.458
 4698SOL    HW214132   4.113   4.108   0.603
 4699SOL     OW14133   4.041   4.271   1.280
 4699SOL    HW114134   4.079   4.212   1.352
 4699SOL    HW214135   4.081   4.245   1.192
 4700SOL     OW14136   5.148   3.938   1.112
 4700SOL    HW114137   5.200   3.873   1.167
 4700SOL    HW214138   5.099   4.001   1.173
 4701SOL     OW14139   4.725   3.758   1.154
 4701SOL    HW114140   4.662   3.686   1.123
 4701SOL    HW214141   4.818   3.722   1.154
 4702SOL     OW14142   4.494   5.054   0.301
 4702SOL    HW114143   4.448   4.967   0.318
 4702SOL    HW214144   4.585   5.051   0.342
 4703SOL     OW14145   4.342   5.291   1.284
 4703SOL    HW114146   4.337   5.373   1.341
 4703SOL    HW214147   4.431   5.288   1.239
 4704SOL     OW14148   5.076   3.776   0.168
 4704SOL    HW114149   5.111   3.735   0.084
 4704SOL    HW214150   4.986   3.738   0.188
 4705SOL     OW14151   5.024   4.177   0.691
 4705SOL    HW114152   4.965   4.257   0.695
 4705SOL    HW214153   5.039   4.142   0.784
 4706SOL     OW14154   5.317   3.945   0.882
 4706SOL    HW114155   5.233   3.944   0.936
 4706SOL    HW214156   5.319   4.028   0.826
 4707SOL     OW14157   3.763   4.801   0.300
 4707SOL    HW114158   3.862   4.790   0.291
 4707SOL    HW214159   3.723   4.715   0.332
 4708SOL     OW14160   3.954   4.352   1.975
 4708SOL    HW114161   3.861   4.350   2.012
 4708SOL    HW214162   3.955   4.313   1.883
 4709SOL     OW14163   3.949   3.999   2.858
 4709SOL    HW114164   3.984   3.982   2.950
 4709SOL    HW214165   3.861   3.954   2.846
 4710SOL     OW14166   3.743   4.092   2.509
 4710SOL    HW114167   3.661   4.135   2.548
 4710SOL    HW214168   3.715   4.019   2.446
 4711SOL     OW14169   4.293   4.999   3.027
 4711SOL    HW114170   4.200   4.992   2.990
 4711SOL    HW214171   4.304   5.088   3.071
 4712SOL     OW14172   5.279   5.235   2.565
 4712SOL    HW114173   5.222   5.219   2.646
 4712SOL    HW214174   5.220   5.245   2.485
 4713SOL     OW14175   4.859   4.427   2.579
 4713SOL    HW114176   4.916   4.505   2.554
 4713SOL    HW214177   4.799   4.453   2.655
 4714SOL     OW14178   4.492   4.868   2.885
 4714SOL    HW114179   4.414   4.885   2.945
 4714SOL    HW214180   4.526   4.955   2.849
 4715SOL     OW14181   4.574   4.522   3.685
 4715SOL    HW114182   4.570   4.598   3.750
 4715SOL    HW214183   4.596   4.558   3.594
 4716SOL     OW14184   4.409   4.736   2.527
 4716SOL    HW114185   4.478   4.720   2.597
 4716SOL    HW214186   4.336   4.793   2.565
 4717SOL     OW14187   4.410   4.885   3.665
 4717SOL    HW114188   4.470   4.964   3.679
 4717SOL    HW214189   4.324   4.916   3.624
 4718SOL     OW14190   4.059   5.159   2.923
 4718SOL    HW114191   3.981   5.128   2.870
 4718SOL    HW214192   4.117   5.217   2.866
 4719SOL     OW14193   5.184   5.229   3.201
 4719SOL    HW114194   5.208   5.323   3.227
 4719SOL    HW214195   5.168   5.175   3.283
 4720SOL     OW14196   4.162   4.116   3.361
 4720SOL    HW114197   4.244   4.060   3.370
 4720SOL    HW214198   4.081   4.058   3.365
 4721SOL     OW14199   4.851   5.065   3.552
 4721SOL    HW114200   4.898   5.065   3.640
 4721SOL    HW214201   4.803   4.978   3.541
 4722SOL     OW14202   3.954   5.158   2.400
 4722SOL    HW114203   3.928   5.254   2.400
 4722SOL    HW214204   3.883   5.104   2.445
 4723SOL     OW14205   3.964   4.815   2.748
 4723SOL    HW114206   3.978   4.731   2.800
 4723SOL    HW214207   3.909   4.879   2.803
 4724SOL     OW14208   4.330   4.688   1.985
 4724SOL    HW114209   4.337   4.772   1.931
 4724SOL    HW214210   4.376   4.701   2.073
 4725SOL     OW14211   5.318   3.838   3.342
 4725SOL    HW114212   5.300   3.905   3.270
 4725SOL    HW214213   5.315   3.884   3.431
 4726SOL     OW14214   3.846   4.367   2.425
 4726SOL    HW114215   3.801   4.279   2.442
 4726SOL    HW214216   3.845   4.421   2.509
 4727SOL     OW14217   3.751   5.320   1.979
 4727SOL    HW114218   3.732   5.224   2.000
 4727SOL    HW214219   3.718   5.378   2.054
 4728SOL     OW14220   5.413   4.646   2.474
 4728SOL    HW114221   5.508   4.617   2.482
 4728SOL    HW214222   5.405   4.711   2.399
 4729SOL     OW14223   3.837   4.461   3.459
 4729SOL    HW114224   3.925   4.448   3.504
 4729SOL    HW214225   3.824   4.558   3.437
 4730SOL     OW14226   4.337   5.089   2.588
 4730SOL    HW114227   4.288   5.002   2.597
 4730SOL    HW214228   4.314   5.132   2.501
 4731SOL     OW14229   5.017   4.952   3.285
 4731SOL    HW114230   5.054   4.879   3.227
 4731SOL    HW214231   5.069   4.957   3.370
 4732SOL     OW14232   4.533   3.728   2.364
 4732SOL    HW114233   4.573   3.819   2.355
 4732SOL    HW214234   4.433   3.736   2.370
 4733SOL     OW14235   3.921   4.700   3.126
 4733SOL    HW114236   4.010   4.655   3.112
 4733SOL    HW214237   3.848   4.635   3.107
 4734SOL     OW14238   4.041   3.975   3.663
 4734SOL    HW114239   4.112   4.046   3.669
 4734SOL    HW214240   3.953   4.014   3.691
 4735SOL     OW14241   5.190   5.141   2.815
 4735SOL    HW114242   5.131   5.147   2.895
 4735SOL    HW214243   5.175   5.053   2.769
 4736SOL     OW14244   4.322   4.453   2.132
 4736SOL    HW114245   4.346   4.522   2.064
 4736SOL    HW214246   4.244   4.486   2.186
 4737SOL     OW14247   5.005   4.069   2.806
 4737SOL    HW114248   4.919   4.019   2.793
 4737SOL    HW214249   5.067   4.015   2.862
 4738SOL     OW14250   4.531   4.329   3.327
 4738SOL    HW114251   4.484   4.326   3.416
 4738SOL    HW214252   4.480   4.274   3.261
 4739SOL     OW14253   5.118   4.193   3.536
 4739SOL    HW114254   5.098   4.236   3.624
 4739SOL    HW214255   5.196   4.131   3.545
 4740SOL     OW14256   4.697   4.614   3.434
 4740SOL    HW114257   4.743   4.530   3.405
 4740SOL    HW214258   4.641   4.648   3.359
 4741SOL     OW14259   4.715   4.134   3.104
 4741SOL    HW114260   4.638   4.168   3.158
 4741SOL    HW214261   4.681   4.083   3.025
 4742SOL     OW14262   4.765   4.425   2.291
 4742SOL    HW114263   4.791   4.421   2.387
 4742SOL    HW214264   4.680   4.374   2.277
 4743SOL     OW14265   3.800   4.535   2.651
 4743SOL    HW114266   3.899   4.523   2.660
 4743SOL    HW214267   3.776   4.630   2.672
 4744SOL     OW14268   4.589   4.072   2.057
 4744SOL    HW114269   4.648   4.135   2.008
 4744SOL    HW214270   4.608   3.978   2.028
 4745SOL     OW14271   5.086   4.868   2.407
 4745SOL    HW114272   5.169   4.839   2.359
 4745SOL    HW214273   5.037   4.935   2.351
 4746SOL     OW14274   4.274   3.920   2.747
 4746SOL    HW114275   4.269   3.915   2.847
 4746SOL    HW214276   4.276   4.016   2.718
 4747SOL     OW14277   4.732   5.180   2.339
 4747SOL    HW114278   4.686   5.252   2.287
 4747SOL    HW214279   4.728   5.200   2.437
 4748SOL     OW14280   4.951   5.274   3.368
 4748SOL    HW114281   4.957   5.197   3.432
 4748SOL    HW214282   4.899   5.248   3.288
 4749SOL     OW14283   4.045   4.667   2.104
 4749SOL    HW114284   4.127   4.706   2.062
 4749SOL    HW214285   4.018   4.585   2.055
 4750SOL     OW14286   5.182   4.459   2.590
 4750SOL    HW114287   5.177   4.394   2.665
 4750SOL    HW214288   5.262   4.518   2.603
 4751SOL     OW14289   4.185   4.990   3.589
 4751SOL    HW114290   4.135   4.991   3.503
 4751SOL    HW214291   4.122   4.972   3.665
 4752SOL     OW14292   4.835   5.500   2.099
 4752SOL    HW114293   4.775   5.438   2.149
 4752SOL    HW214294   4.866   5.456   2.014
 4753SOL     OW14295   3.926   4.009   3.360
 4753SOL    HW114296   3.846   4.069   3.347
 4753SOL    HW214297   3.916   3.960   3.446
 4754SOL     OW14298   5.124   3.831   2.288
 4754SOL    HW114299   5.100   3.794   2.198
 4754SOL    HW214300   5.223   3.847   2.292
 4755SOL     OW14301   4.106   4.424   2.342
 4755SOL    HW114302   4.151   4.334   2.339
 4755SOL    HW214303   4.012   4.413   2.375
 4756SOL     OW14304   4.338   3.846   1.979
 4756SOL    HW114305   4.436   3.824   1.986
 4756SOL    HW214306   4.307   3.829   1.886
 4757SOL     OW14307   4.505   3.988   3.611
 4757SOL    HW114308   4.572   3.927   3.654
 4757SOL    HW214309   4.432   4.007   3.676
 4758SOL     OW14310   5.075   4.314   3.295
 4758SOL    HW114311   5.103   4.271   3.380
 4758SOL    HW214312   5.100   4.410   3.296
 4759SOL     OW14313   4.527   5.126   2.786
 4759SOL    HW114314   4.617   5.140   2.744
 4759SOL    HW214315   4.456   5.128   2.715
 4760SOL     OW14316   4.646   4.227   2.761
 4760SOL    HW114317   4.621   4.218   2.665
 4760SOL    HW214318   4.694   4.145   2.792
 4761SOL     OW14319   4.263   3.788   2.374
 4761SOL    HW114320   4.182   3.789   2.432
 4761SOL    HW214321   4.266   3.871   2.319
 4762SOL     OW14322   5.158   4.912   1.903
 4762SOL    HW114323   5.190   4.836   1.960
 4762SOL    HW214324   5.066   4.939   1.933
 4763SOL     OW14325   4.021   3.759   2.033
 4763SOL    HW114326   4.070   3.843   2.012
 4763SOL    HW214327   4.083   3.694   2.078
 4764SOL     OW14328   4.659   3.960   2.342
 4764SOL    HW114329   4.611   4.001   2.264
 4764SOL    HW214330   4.758   3.958   2.323
 4765SOL     OW14331   4.800   4.407   3.326
 4765SOL    HW114332   4.720   4.346   3.329
 4765SOL    HW214333   4.881   4.354   3.302
 4766SOL     OW14334   4.951   5.294   2.655
 4766SOL    HW114335   4.972   5.368   2.590
 4766SOL    HW214336   5.019   5.294   2.728
 4767SOL     OW14337   4.183   4.876   2.603
 4767SOL    HW114338   4.112   4.849   2.668
 4767SOL    HW214339   4.157   4.848   2.510
 4768SOL     OW14340   4.756   4.273   1.878
 4768SOL    HW114341   4.715   4.355   1.839
 4768SOL    HW214342   4.820   4.299   1.951
 4769SOL     OW14343   3.802   4.280   3.248
 4769SOL    HW114344   3.894   4.279   3.207
 4769SOL    HW214345   3.796   4.354   3.315
 4770SOL     OW14346   4.285   3.946   3.009
 4770SOL    HW114347   4.323   3.862   3.046
 4770SOL    HW214348   4.197   3.965   3.053
 4771SOL     OW14349   4.590   4.178   2.504
 4771SOL    HW114350   4.558   4.250   2.442
 4771SOL    HW214351   4.614   4.097   2.451
 4772SOL     OW14352   4.741   3.763   2.615
 4772SOL    HW114353   4.669   3.768   2.546
 4772SOL    HW214354   4.717   3.694   2.684
 4773SOL     OW14355   5.153   4.897   2.729
 4773SOL    HW114356   5.098   4.813   2.722
 4773SOL    HW214357   5.179   4.926   2.637
 4774SOL     OW14358   5.190   4.314   2.854
 4774SOL    HW114359   5.160   4.219   2.861
 4774SOL    HW214360   5.263   4.330   2.920
 4775SOL     OW14361   4.212   5.109   2.036
 4775SOL    HW114362   4.125   5.094   2.083
 4775SOL    HW214363   4.195   5.135   1.941
 4776SOL     OW14364   5.114   4.299   1.940
 4776SOL    HW114365   5.060   4.278   2.021
 4776SOL    HW214366   5.205   4.258   1.949
 4777SOL     OW14367   4.251   3.980   2.190
 4777SOL    HW114368   4.278   3.921   2.115
 4777SOL    HW214369   4.251   4.075   2.159
 4778SOL     OW14370   4.788   5.071   3.202
 4778SOL    HW114371   4.708   5.048   3.257
 4778SOL    HW214372   4.871   5.045   3.251
 4779SOL     OW14373   4.835   4.919   2.962
 4779SOL    HW114374   4.795   4.963   3.043
 4779SOL    HW214375   4.794   4.956   2.879
 4780SOL     OW14376   4.639   3.813   3.264
 4780SOL    HW114377   4.664   3.793   3.169
 4780SOL    HW214378   4.711   3.869   3.306
 4781SOL     OW14379   4.704   4.840   3.581
 4781SOL    HW114380   4.605   4.846   3.591
 4781SOL    HW214381   4.727   4.760   3.525
 4782SOL     OW14382   4.429   4.774   2.230
 4782SOL    HW114383   4.415   4.781   2.329
 4782SOL    HW214384   4.513   4.723   2.212
 4783SOL     OW14385   4.134   4.537   3.113
 4783SOL    HW114386   4.220   4.549   3.163
 4783SOL    HW214387   4.092   4.450   3.140
 4784SOL     OW14388   4.998   4.110   3.124
 4784SOL    HW114389   5.019   4.184   3.188
 4784SOL    HW214390   4.909   4.127   3.081
 4785SOL     OW14391   4.091   4.824   2.363
 4785SOL    HW114392   4.084   4.907   2.307
 4785SOL    HW214393   4.095   4.744   2.303
 4786SOL     OW14394   4.290   4.261   2.727
 4786SOL    HW114395   4.302   4.327   2.653
 4786SOL    HW214396   4.336   4.295   2.810
 4787SOL     OW14397   4.976   5.072   2.250
 4787SOL    HW114398   5.026   5.149   2.290
 4787SOL    HW214399   4.881   5.074   2.282
 4788SOL     OW14400   4.996   5.169   3.004
 4788SOL    HW114401   5.043   5.182   3.091
 4788SOL    HW214402   4.930   5.095   3.013
 4789SOL     OW14403   5.306   4.363   2.334
 4789SOL    HW114404   5.275   4.424   2.407
 4789SOL    HW214405   5.356   4.415   2.265
 4790SOL     OW14406   4.078   5.234   3.191
 4790SOL    HW114407   4.057   5.190   3.104
 4790SOL    HW214408   4.175   5.260   3.194
 4791SOL     OW14409   4.126   4.475   3.460
 4791SOL    HW114410   4.194   4.530   3.413
 4791SOL    HW214411   4.166   4.387   3.487
 4792SOL     OW14412   4.737   3.829   3.632
 4792SOL    HW114413   4.743   3.914   3.580
 4792SOL    HW214414   4.769   3.753   3.575
 4793SOL     OW14415   4.228   3.774   3.602
 4793SOL    HW114416   4.186   3.717   3.532
 4793SOL    HW214417   4.162   3.843   3.634
 4794SOL     OW14418   4.297   4.594   2.891
 4794SOL    HW114419   4.341   4.683   2.882
 4794SOL    HW214420   4.234   4.594   2.968
 4795SOL     OW14421   5.084   4.586   2.907
 4795SOL    HW114422   5.009   4.586   2.841
 4795SOL    HW214423   5.121   4.494   2.916
 4796SOL     OW14424   4.933   4.249   2.137
 4796SOL    HW114425   4.946   4.165   2.191
 4796SOL    HW214426   4.904   4.323   2.197
 4797SOL     OW14427   4.031   3.937   3.093
 4797SOL    HW114428   4.008   3.974   3.183
 4797SOL    HW214429   4.001   3.842   3.087
 4798SOL     OW14430   3.761   5.034   3.144
 4798SOL    HW114431   3.814   4.985   3.212
 4798SOL    HW214432   3.783   5.132   3.149
 4799SOL     OW14433   4.456   4.358   2.926
 4799SOL    HW114434   4.515   4.332   2.850
 4799SOL    HW214435   4.428   4.454   2.915
 4800SOL     OW14436   4.031   3.787   2.480
 4800SOL    HW114437   4.020   3.881   2.513
 4800SOL    HW214438   4.026   3.724   2.557
 4801SOL     OW14439   5.346   4.091   2.236
 4801SOL    HW114440   5.348   4.015   2.300
 4801SOL    HW214441   5.298   4.168   2.276
 4802SOL     OW14442   4.747   4.490   2.828
 4802SOL    HW114443   4.762   4.511   2.924
 4802SOL    HW214444   4.717   4.395   2.819
 4803SOL     OW14445   4.074   4.622   3.666
 4803SOL    HW114446   4.150   4.666   3.714
 4803SOL    HW214447   4.109   4.575   3.584
 4804SOL     OW14448   5.264   3.998   1.987
 4804SOL    HW114449   5.203   3.923   2.010
 4804SOL    HW214450   5.286   4.050   2.070
 4805SOL     OW14451   5.027   4.562   1.904
 4805SOL    HW114452   5.061   4.469   1.919
 4805SOL    HW214453   5.045   4.589   1.809
 4806SOL     OW14454   4.792   5.057   2.711
 4806SOL    HW114455   4.799   4.973   2.656
 4806SOL    HW214456   4.854   5.126   2.675
 4807SOL     OW14457   4.043   4.534   2.811
 4807SOL    HW114458   4.136   4.570   2.816
 4807SOL    HW214459   4.037   4.449   2.863
 4808SOL     OW14460   4.063   4.233   2.868
 4808SOL    HW114461   4.011   4.150   2.851
 4808SOL    HW214462   4.140   4.238   2.804
 4809SOL     OW14463   4.862   4.104   3.540
 4809SOL    HW114464   4.817   4.167   3.604
 4809SOL    HW214465   4.955   4.135   3.523
 4810SOL     OW14466   4.884   3.931   3.339
 4810SOL    HW114467   4.884   3.995   3.416
 4810SOL    HW214468   4.912   3.979   3.256
 4811SOL     OW14469   3.732   5.050   2.062
 4811SOL    HW114470   3.639   5.071   2.031
 4811SOL    HW214471   3.742   4.951   2.075
 4812SOL     OW14472   4.228   5.292   2.772
 4812SOL    HW114473   4.294   5.366   2.781
 4812SOL    HW214474   4.272   5.213   2.730
 4813SOL     OW14475   4.726   4.520   3.100
 4813SOL    HW114476   4.767   4.488   3.186
 4813SOL    HW214477   4.630   4.493   3.097
 4814SOL     OW14478   3.764   4.268   2.976
 4814SOL    HW114479   3.849   4.235   2.935
 4814SOL    HW214480   3.777   4.283   3.074
 4815SOL     OW14481   3.913   4.244   3.584
 4815SOL    HW114482   3.972   4.204   3.514
 4815SOL    HW214483   3.855   4.315   3.543
 4816SOL     OW14484   5.093   4.674   3.522
 4816SOL    HW114485   5.132   4.763   3.542
 4816SOL    HW214486   5.103   4.654   3.425
 4817SOL     OW14487   4.539   4.296   2.187
 4817SOL    HW114488   4.546   4.207   2.141
 4817SOL    HW214489   4.445   4.330   2.179
 4818SOL     OW14490   3.976   5.288   3.606
 4818SOL    HW114491   3.946   5.345   3.682
 4818SOL    HW214492   3.969   5.191   3.632
 4819SOL     OW14493   4.395   4.188   3.131
 4819SOL    HW114494   4.361   4.099   3.101
 4819SOL    HW214495   4.421   4.242   3.051
 4820SOL     OW14496   4.197   4.224   2.053
 4820SOL    HW114497   4.258   4.304   2.057
 4820SOL    HW214498   4.102   4.255   2.060
 4821SOL     OW14499   3.883   4.861   3.328
 4821SOL    HW114500   3.905   4.800   3.404
 4821SOL    HW214501   3.893   4.812   3.242
 4822SOL     OW14502   5.071   4.783   3.096
 4822SOL    HW114503   5.095   4.720   3.022
 4822SOL    HW214504   4.981   4.823   3.078
 4823SOL     OW14505   5.026   4.579   2.171
 4823SOL    HW114506   4.940   4.548   2.213
 4823SOL    HW214507   5.022   4.565   2.072
 4824SOL     OW14508   5.483   5.471   3.016
 4824SOL    HW114509   5.544   5.501   2.943
 4824SOL    HW214510   5.445   5.382   2.994
 4825SOL     OW14511   3.807   4.982   2.884
 4825SOL    HW114512   3.802   4.981   2.984
 4825SOL    HW214513   3.724   4.941   2.846
 4826SOL     OW14514   5.450   3.859   2.385
 4826SOL    HW114515   5.523   3.842   2.318
 4826SOL    HW214516   5.419   3.772   2.423
 4827SOL     OW14517   5.004   4.651   2.534
 4827SOL    HW114518   5.064   4.570   2.536
 4827SOL    HW214519   5.044   4.720   2.474
 4828SOL     OW14520   4.554   4.997   3.284
 4828SOL    HW114521   4.549   5.030   3.379
 4828SOL    HW214522   4.468   5.016   3.238
 4829SOL     OW14523   3.987   4.050   2.582
 4829SOL    HW114524   3.908   4.101   2.548
 4829SOL    HW214525   3.978   4.035   2.680
 4830SOL     OW14526   4.918   5.336   1.893
 4830SOL    HW114527   4.924   5.243   1.930
 4830SOL    HW214528   4.859   5.336   1.813
 4831SOL     OW14529   4.546   4.726   3.234
 4831SOL    HW114530   4.586   4.725   3.142
 4831SOL    HW214531   4.556   4.818   3.274
 4832SOL     OW14532   4.640   4.634   2.153
 4832SOL    HW114533   4.703   4.672   2.085
 4832SOL    HW214534   4.680   4.551   2.192
 4833SOL     OW14535   4.096   5.012   3.352
 4833SOL    HW114536   4.083   5.105   3.318
 4833SOL    HW214537   4.012   4.960   3.339
 4834SOL     OW14538   4.763   4.822   2.558
 4834SOL    HW114539   4.693   4.775   2.612
 4834SOL    HW214540   4.822   4.754   2.515
 4835SOL     OW14541   4.738   3.960   2.833
 4835SOL    HW114542   4.730   3.924   2.740
 4835SOL    HW214543   4.736   3.884   2.898
 4836SOL     OW14544   4.314   5.211   2.353
 4836SOL    HW114545   4.356   5.153   2.283
 4836SOL    HW214546   4.270   5.290   2.309
 4837SOL     OW14547   3.979   5.072   2.152
 4837SOL    HW114548   3.883   5.073   2.125
 4837SOL    HW214549   3.991   5.125   2.236
 4838SOL     OW14550   3.829   4.737   3.588
 4838SOL    HW114551   3.752   4.704   3.642
 4838SOL    HW214552   3.914   4.707   3.630
 4839SOL     OW14553   4.396   3.927   3.351
 4839SOL    HW114554   4.486   3.911   3.311
 4839SOL    HW214555   4.404   3.932   3.450
 4840SOL     OW14556   3.799   4.069   1.895
 4840SOL    HW114557   3.707   4.041   1.866
 4840SOL    HW214558   3.830   4.146   1.839
 4841SOL     OW14559   5.164   4.580   3.260
 4841SOL    HW114560   5.107   4.632   3.197
 4841SOL    HW214561   5.260   4.592   3.236
 4842SOL     OW14562   3.796   3.890   2.180
 4842SOL    HW114563   3.779   3.973   2.126
 4842SOL    HW214564   3.886   3.853   2.158
 4843SOL     OW14565   4.907   5.059   1.981
 4843SOL    HW114566   4.808   5.048   1.983
 4843SOL    HW214567   4.941   5.074   2.074
 4844SOL     OW14568   4.337   4.566   3.293
 4844SOL    HW114569   4.393   4.647   3.276
 4844SOL    HW214570   4.396   4.486   3.296
 4845SOL     OW14571   4.440   4.289   3.570
 4845SOL    HW114572   4.459   4.354   3.644
 4845SOL    HW214573   4.500   4.209   3.579
 4846SOL     OW14574   5.174   4.944   3.495
 4846SOL    HW114575   5.165   4.934   3.594
 4846SOL    HW214576   5.270   4.937   3.469
 4847SOL     OW14577   4.949   4.049   2.311
 4847SOL    HW114578   5.014   3.975   2.300
 4847SOL    HW214579   4.969   4.099   2.395
 4848SOL     OW14580   4.318   4.469   2.514
 4848SOL    HW114581   4.368   4.554   2.495
 4848SOL    HW214582   4.230   4.471   2.466
 4849SOL     OW14583   4.583   5.098   1.878
 4849SOL    HW114584   4.537   5.113   1.966
 4849SOL    HW214585   4.627   5.183   1.848
 4850SOL     OW14586   5.132   5.575   3.582
 4850SOL    HW114587   5.036   5.564   3.555
 4850SOL    HW214588   5.188   5.508   3.534
 4851SOL     OW14589   4.583   4.680   2.723
 4851SOL    HW114590   4.637   4.611   2.771
 4851SOL    HW214591   4.551   4.749   2.789
 4852SOL     OW14592   4.807   4.708   1.949
 4852SOL    HW114593   4.784   4.761   1.867
 4852SOL    HW214594   4.888   4.652   1.930
 4853SOL     OW14595   5.585   5.293   2.713
 4853SOL    HW114596   5.514   5.281   2.643
 4853SOL    HW214597   5.586   5.214   2.773
 4854SOL     OW14598   3.945   5.038   3.706
 4854SOL    HW114599   3.880   4.965   3.685
 4854SOL    HW214600   3.949   5.052   3.804
 4855SOL     OW14601   3.803   4.964   2.515
 4855SOL    HW114602   3.802   4.917   2.603
 4855SOL    HW214603   3.885   4.936   2.464
 4856SOL     OW14604   4.396   5.115   3.486
 4856SOL    HW114605   4.318   5.065   3.524
 4856SOL    HW214606   4.393   5.210   3.517
 4857SOL     OW14607   4.152   4.148   2.382
 4857SOL    HW114608   4.182   4.076   2.320
 4857SOL    HW214609   4.113   4.108   2.465
 4858SOL     OW14610   4.041   4.271   3.142
 4858SOL    HW114611   4.079   4.212   3.214
 4858SOL    HW214612   4.081   4.245   3.054
 4859SOL     OW14613   5.148   3.938   2.974
 4859SOL    HW114614   5.200   3.873   3.029
 4859SOL    HW214615   5.099   4.001   3.035
 4860SOL     OW14616   4.725   3.758   3.016
 4860SOL    HW114617   4.662   3.686   2.985
 4860SOL    HW214618   4.818   3.722   3.016
 4861SOL     OW14619   4.494   5.054   2.163
 4861SOL    HW114620   4.448   4.967   2.180
 4861SOL    HW214621   4.585   5.051   2.204
 4862SOL     OW14622   4.342   5.291   3.146
 4862SOL    HW114623   4.337   5.373   3.203
 4862SOL    HW214624   4.431   5.288   3.101
 4863SOL     OW14625   5.076   3.776   2.030
 4863SOL    HW114626   5.111   3.735   1.946
 4863SOL    HW214627   4.986   3.738   2.050
 4864SOL     OW14628   5.024   4.177   2.553
 4864SOL    HW114629   4.965   4.257   2.557
 4864SOL    HW214630   5.039   4.142   2.646
 4865SOL     OW14631   5.317   3.945   2.744
 4865SOL    HW114632   5.233   3.944   2.798
 4865SOL    HW214633   5.319   4.028   2.688
 4866SOL     OW14634   3.763   4.801   2.162
 4866SOL    HW114635   3.862   4.790   2.153
 4866SOL    HW214636   3.723   4.715   2.194
 4867SOL     OW14637   3.954   4.352   3.837
 4867SOL    HW114638   3.861   4.350   3.874
 4867SOL    HW214639   3.955   4.313   3.745
 4868SOL     OW14640   3.949   3.999   4.720
 4868SOL    HW114641   3.984   3.982   4.812
 4868SOL    HW214642   3.861   3.954   4.708
 4869SOL     OW14643   3.743   4.092   4.371
 4869SOL    HW114644   3.661   4.135   4.410
 4869SOL    HW214645   3.715   4.019   4.308
 4870SOL     OW14646   4.293   4.999   4.889
 4870SOL    HW114647   4.200   4.992   4.852
 4870SOL    HW214648   4.304   5.088   4.933
 4871SOL     OW14649   5.279   5.235   4.427
 4871SOL    HW114650   5.222   5.219   4.508
 4871SOL    HW214651   5.220   5.245   4.347
 4872SOL     OW14652   4.859   4.427   4.441
 4872SOL    HW114653   4.916   4.505   4.416
 4872SOL    HW214654   4.799   4.453   4.517
 4873SOL     OW14655   4.492   4.868   4.747
 4873SOL    HW114656   4.414   4.885   4.807
 4873SOL    HW214657   4.526   4.955   4.711
 4874SOL     OW14658   4.409   4.736   4.389
 4874SOL    HW114659   4.478   4.720   4.459
 4874SOL    HW214660   4.336   4.793   4.427
 4875SOL     OW14661   4.410   4.885   5.527
 4875SOL    HW114662   4.470   4.964   5.541
 4875SOL    HW214663   4.324   4.916   5.486
 4876SOL     OW14664   4.059   5.159   4.785
 4876SOL    HW114665   3.981   5.128   4.732
 4876SOL    HW214666   4.117   5.217   4.728
 4877SOL     OW14667   5.184   5.229   5.063
 4877SOL    HW114668   5.208   5.323   5.089
 4877SOL    HW214669   5.168   5.175   5.145
 4878SOL     OW14670   4.162   4.116   5.223
 4878SOL    HW114671   4.244   4.060   5.232
 4878SOL    HW214672   4.081   4.058   5.227
 4879SOL     OW14673   3.954   5.158   4.262
 4879SOL    HW114674   3.928   5.254   4.262
 4879SOL    HW214675   3.883   5.104   4.307
 4880SOL     OW14676   3.964   4.815   4.610
 4880SOL    HW114677   3.978   4.731   4.662
 4880SOL    HW214678   3.909   4.879   4.665
 4881SOL     OW14679   4.330   4.688   3.847
 4881SOL    HW114680   4.337   4.772   3.793
 4881SOL    HW214681   4.376   4.701   3.935
 4882SOL     OW14682   5.318   3.838   5.204
 4882SOL    HW114683   5.300   3.905   5.132
 4882SOL    HW214684   5.315   3.884   5.293
 4883SOL     OW14685   3.846   4.367   4.287
 4883SOL    HW114686   3.801   4.279   4.304
 4883SOL    HW214687   3.845   4.421   4.371
 4884SOL     OW14688   3.751   5.320   3.841
 4884SOL    HW114689   3.732   5.224   3.862
 4884SOL    HW214690   3.718   5.378   3.916
 4885SOL     OW14691   5.413   4.646   4.336
 4885SOL    HW114692   5.508   4.617   4.344
 4885SOL    HW214693   5.405   4.711   4.261
 4886SOL     OW14694   3.837   4.461   5.321
 4886SOL    HW114695   3.925   4.448   5.366
 4886SOL    HW214696   3.824   4.558   5.299
 4887SOL     OW14697   4.337   5.089   4.450
 4887SOL    HW114698   4.288   5.002   4.459
 4887SOL    HW214699   4.314   5.132   4.363
 4888SOL     OW14700   5.017   4.952   5.147
 4888SOL    HW114701   5.054   4.879   5.089
 4888SOL    HW214702   5.069   4.957   5.232
 4889SOL     OW14703   4.533   3.728   4.226
 4889SOL    HW114704   4.573   3.819   4.217
 4889SOL    HW214705   4.433   3.736   4.232
 4890SOL     OW14706   3.921   4.700   4.988
 4890SOL    HW114707   4.010   4.655   4.974
 4890SOL    HW214708   3.848   4.635   4.969
 4891SOL     OW14709   5.190   5.141   4.677
 4891SOL    HW114710   5.131   5.147   4.757
 4891SOL    HW214711   5.175   5.053   4.631
 4892SOL     OW14712   4.322   4.453   3.994
 4892SOL    HW114713   4.346   4.522   3.926
 4892SOL    HW214714   4.244   4.486   4.048
 4893SOL     OW14715   5.005   4.069   4.668
 4893SOL    HW114716   4.919   4.019   4.655
 4893SOL    HW214717   5.067   4.015   4.724
 4894SOL     OW14718   4.531   4.329   5.189
 4894SOL    HW114719   4.484   4.326   5.278
 4894SOL    HW214720   4.480   4.274   5.123
 4895SOL     OW14721   4.697   4.614   5.296
 4895SOL    HW114722   4.743   4.530   5.267
 4895SOL    HW214723   4.641   4.648   5.221
 4896SOL     OW14724   4.715   4.134   4.966
 4896SOL    HW114725   4.638   4.168   5.020
 4896SOL    HW214726   4.681   4.083   4.887
 4897SOL     OW14727   4.765   4.425   4.153
 4897SOL    HW114728   4.791   4.421   4.249
 4897SOL    HW214729   4.680   4.374   4.139
 4898SOL     OW14730   3.800   4.535   4.513
 4898SOL    HW114731   3.899   4.523   4.522
 4898SOL    HW214732   3.776   4.630   4.534
 4899SOL     OW14733   4.589   4.072   3.919
 4899SOL    HW114734   4.648   4.135   3.870
 4899SOL    HW214735   4.608   3.978   3.890
 4900SOL     OW14736   5.086   4.868   4.269
 4900SOL    HW114737   5.169   4.839   4.221
 4900SOL    HW214738   5.037   4.935   4.213
 4901SOL     OW14739   4.274   3.920   4.609
 4901SOL    HW114740   4.269   3.915   4.709
 4901SOL    HW214741   4.276   4.016   4.580
 4902SOL     OW14742   4.732   5.180   4.201
 4902SOL    HW114743   4.686   5.252   4.149
 4902SOL    HW214744   4.728   5.200   4.299
 4903SOL     OW14745   4.045   4.667   3.966
 4903SOL    HW114746   4.127   4.706   3.924
 4903SOL    HW214747   4.018   4.585   3.917
 4904SOL     OW14748   5.182   4.459   4.452
 4904SOL    HW114749   5.177   4.394   4.527
 4904SOL    HW214750   5.262   4.518   4.465
 4905SOL     OW14751   4.835   5.500   3.961
 4905SOL    HW114752   4.775   5.438   4.011
 4905SOL    HW214753   4.866   5.456   3.876
 4906SOL     OW14754   3.926   4.009   5.222
 4906SOL    HW114755   3.846   4.069   5.209
 4906SOL    HW214756   3.916   3.960   5.308
 4907SOL     OW14757   5.124   3.831   4.150
 4907SOL    HW114758   5.100   3.794   4.060
 4907SOL    HW214759   5.223   3.847   4.154
 4908SOL     OW14760   4.106   4.424   4.204
 4908SOL    HW114761   4.151   4.334   4.201
 4908SOL    HW214762   4.012   4.413   4.237
 4909SOL     OW14763   4.338   3.846   3.841
 4909SOL    HW114764   4.436   3.824   3.848
 4909SOL    HW214765   4.307   3.829   3.748
 4910SOL     OW14766   5.075   4.314   5.157
 4910SOL    HW114767   5.103   4.271   5.242
 4910SOL    HW214768   5.100   4.410   5.158
 4911SOL     OW14769   4.527   5.126   4.648
 4911SOL    HW114770   4.617   5.140   4.606
 4911SOL    HW214771   4.456   5.128   4.577
 4912SOL     OW14772   4.646   4.227   4.623
 4912SOL    HW114773   4.621   4.218   4.527
 4912SOL    HW214774   4.694   4.145   4.654
 4913SOL     OW14775   4.263   3.788   4.236
 4913SOL    HW114776   4.182   3.789   4.294
 4913SOL    HW214777   4.266   3.871   4.181
 4914SOL     OW14778   5.158   4.912   3.765
 4914SOL    HW114779   5.190   4.836   3.822
 4914SOL    HW214780   5.066   4.939   3.795
 4915SOL     OW14781   4.021   3.759   3.895
 4915SOL    HW114782   4.070   3.843   3.874
 4915SOL    HW214783   4.083   3.694   3.940
 4916SOL     OW14784   4.659   3.960   4.204
 4916SOL    HW114785   4.611   4.001   4.126
 4916SOL    HW214786   4.758   3.958   4.185
 4917SOL     OW14787   4.800   4.407   5.188
 4917SOL    HW114788   4.720   4.346   5.191
 4917SOL    HW214789   4.881   4.354   5.164
 4918SOL     OW14790   4.951   5.294   4.517
 4918SOL    HW114791   4.972   5.368   4.452
 4918SOL    HW214792   5.019   5.294   4.590
 4919SOL     OW14793   4.183   4.876   4.465
 4919SOL    HW114794   4.112   4.849   4.530
 4919SOL    HW214795   4.157   4.848   4.372
 4920SOL     OW14796   4.756   4.273   3.740
 4920SOL    HW114797   4.715   4.355   3.701
 4920SOL    HW214798   4.820   4.299   3.813
 4921SOL     OW14799   3.802   4.280   5.110
 4921SOL    HW114800   3.894   4.279   5.069
 4921SOL    HW214801   3.796   4.354   5.177
 4922SOL     OW14802   4.285   3.946   4.871
 4922SOL    HW114803   4.323   3.862   4.908
 4922SOL    HW214804   4.197   3.965   4.915
 4923SOL     OW14805   4.590   4.178   4.366
 4923SOL    HW114806   4.558   4.250   4.304
 4923SOL    HW214807   4.614   4.097   4.313
 4924SOL     OW14808   4.741   3.763   4.477
 4924SOL    HW114809   4.669   3.768   4.408
 4924SOL    HW214810   4.717   3.694   4.546
 4925SOL     OW14811   5.153   4.897   4.591
 4925SOL    HW114812   5.098   4.813   4.584
 4925SOL    HW214813   5.179   4.926   4.499
 4926SOL     OW14814   5.190   4.314   4.716
 4926SOL    HW114815   5.160   4.219   4.723
 4926SOL    HW214816   5.263   4.330   4.782
 4927SOL     OW14817   4.212   5.109   3.898
 4927SOL    HW114818   4.125   5.094   3.945
 4927SOL    HW214819   4.195   5.135   3.803
 4928SOL     OW14820   5.114   4.299   3.802
 4928SOL    HW114821   5.060   4.278   3.883
 4928SOL    HW214822   5.205   4.258   3.811
 4929SOL     OW14823   4.251   3.980   4.052
 4929SOL    HW114824   4.278   3.921   3.977
 4929SOL    HW214825   4.251   4.075   4.021
 4930SOL     OW14826   4.788   5.071   5.064
 4930SOL    HW114827   4.708   5.048   5.119
 4930SOL    HW214828   4.871   5.045   5.113
 4931SOL     OW14829   4.835   4.919   4.824
 4931SOL    HW114830   4.795   4.963   4.905
 4931SOL    HW214831   4.794   4.956   4.741
 4932SOL     OW14832   4.639   3.813   5.126
 4932SOL    HW114833   4.664   3.793   5.031
 4932SOL    HW214834   4.711   3.869   5.168
 4933SOL     OW14835   4.429   4.774   4.092
 4933SOL    HW114836   4.415   4.781   4.191
 4933SOL    HW214837   4.513   4.723   4.074
 4934SOL     OW14838   4.134   4.537   4.975
 4934SOL    HW114839   4.220   4.549   5.025
 4934SOL    HW214840   4.092   4.450   5.002
 4935SOL     OW14841   4.998   4.110   4.986
 4935SOL    HW114842   5.019   4.184   5.050
 4935SOL    HW214843   4.909   4.127   4.943
 4936SOL     OW14844   4.091   4.824   4.225
 4936SOL    HW114845   4.084   4.907   4.169
 4936SOL    HW214846   4.095   4.744   4.165
 4937SOL     OW14847   4.290   4.261   4.589
 4937SOL    HW114848   4.302   4.327   4.515
 4937SOL    HW214849   4.336   4.295   4.672
 4938SOL     OW14850   4.976   5.072   4.112
 4938SOL    HW114851   5.026   5.149   4.152
 4938SOL    HW214852   4.881   5.074   4.144
 4939SOL     OW14853   4.996   5.169   4.866
 4939SOL    HW114854   5.043   5.182   4.953
 4939SOL    HW214855   4.930   5.095   4.875
 4940SOL     OW14856   5.306   4.363   4.196
 4940SOL    HW114857   5.275   4.424   4.269
 4940SOL    HW214858   5.356   4.415   4.127
 4941SOL     OW14859   4.078   5.234   5.053
 4941SOL    HW114860   4.057   5.190   4.966
 4941SOL    HW214861   4.175   5.260   5.056
 4942SOL     OW14862   4.126   4.475   5.322
 4942SOL    HW114863   4.194   4.530   5.275
 4942SOL    HW214864   4.166   4.387   5.349
 4943SOL     OW14865   4.297   4.594   4.753
 4943SOL    HW114866   4.341   4.683   4.744
 4943SOL    HW214867   4.234   4.594   4.830
 4944SOL     OW14868   5.084   4.586   4.769
 4944SOL    HW114869   5.009   4.586   4.703
 4944SOL    HW214870   5.121   4.494   4.778
 4945SOL     OW14871   4.933   4.249   3.999
 4945SOL    HW114872   4.946   4.165   4.053
 4945SOL    HW214873   4.904   4.323   4.059
 4946SOL     OW14874   4.031   3.937   4.955
 4946SOL    HW114875   4.008   3.974   5.045
 4946SOL    HW214876   4.001   3.842   4.949
 4947SOL     OW14877   3.761   5.034   5.006
 4947SOL    HW114878   3.814   4.985   5.074
 4947SOL    HW214879   3.783   5.132   5.011
 4948SOL     OW14880   4.456   4.358   4.788
 4948SOL    HW114881   4.515   4.332   4.712
 4948SOL    HW214882   4.428   4.454   4.777
 4949SOL     OW14883   4.031   3.787   4.342
 4949SOL    HW114884   4.020   3.881   4.375
 4949SOL    HW214885   4.026   3.724   4.419
 4950SOL     OW14886   5.346   4.091   4.098
 4950SOL    HW114887   5.348   4.015   4.162
 4950SOL    HW214888   5.298   4.168   4.138
 4951SOL     OW14889   4.747   4.490   4.690
 4951SOL    HW114890   4.762   4.511   4.786
 4951SOL    HW214891   4.717   4.395   4.681
 4952SOL     OW14892   5.583   5.242   5.329
 4952SOL    HW114893   5.597   5.269   5.234
 4952SOL    HW214894   5.666   5.264   5.382
 4953SOL     OW14895   5.264   3.998   3.849
 4953SOL    HW114896   5.203   3.923   3.872
 4953SOL    HW214897   5.286   4.050   3.932
 4954SOL     OW14898   5.027   4.562   3.766
 4954SOL    HW114899   5.061   4.469   3.781
 4954SOL    HW214900   5.045   4.589   3.671
 4955SOL     OW14901   4.792   5.057   4.573
 4955SOL    HW114902   4.799   4.973   4.518
 4955SOL    HW214903   4.854   5.126   4.537
 4956SOL     OW14904   4.043   4.534   4.673
 4956SOL    HW114905   4.136   4.570   4.678
 4956SOL    HW214906   4.037   4.449   4.725
 4957SOL     OW14907   4.063   4.233   4.730
 4957SOL    HW114908   4.011   4.150   4.713
 4957SOL    HW214909   4.140   4.238   4.666
 4958SOL     OW14910   4.884   3.931   5.201
 4958SOL    HW114911   4.884   3.995   5.278
 4958SOL    HW214912   4.912   3.979   5.118
 4959SOL     OW14913   3.732   5.050   3.924
 4959SOL    HW114914   3.639   5.071   3.893
 4959SOL    HW214915   3.742   4.951   3.937
 4960SOL     OW14916   4.228   5.292   4.634
 4960SOL    HW114917   4.294   5.366   4.643
 4960SOL    HW214918   4.272   5.213   4.592
 4961SOL     OW14919   4.726   4.520   4.962
 4961SOL    HW114920   4.767   4.488   5.048
 4961SOL    HW214921   4.630   4.493   4.959
 4962SOL     OW14922   3.764   4.268   4.838
 4962SOL    HW114923   3.849   4.235   4.797
 4962SOL    HW214924   3.777   4.283   4.936
 4963SOL     OW14925   4.539   4.296   4.049
 4963SOL    HW114926   4.546   4.207   4.003
 4963SOL    HW214927   4.445   4.330   4.041
 4964SOL     OW14928   4.395   4.188   4.993
 4964SOL    HW114929   4.361   4.099   4.963
 4964SOL    HW214930   4.421   4.242   4.913
 4965SOL     OW14931   4.197   4.224   3.915
 4965SOL    HW114932   4.258   4.304   3.919
 4965SOL    HW214933   4.102   4.255   3.922
 4966SOL     OW14934   3.883   4.861   5.190
 4966SOL    HW114935   3.905   4.800   5.266
 4966SOL    HW214936   3.893   4.812   5.104
 4967SOL     OW14937   5.071   4.783   4.958
 4967SOL    HW114938   5.095   4.720   4.884
 4967SOL    HW214939   4.981   4.823   4.940
 4968SOL     OW14940   5.026   4.579   4.033
 4968SOL    HW114941   4.940   4.548   4.075
 4968SOL    HW214942   5.022   4.565   3.934
 4969SOL     OW14943   5.483   5.471   4.878
 4969SOL    HW114944   5.544   5.501   4.805
 4969SOL    HW214945   5.445   5.382   4.856
 4970SOL     OW14946   3.807   4.982   4.746
 4970SOL    HW114947   3.802   4.981   4.846
 4970SOL    HW214948   3.724   4.941   4.708
 4971SOL     OW14949   5.450   3.859   4.247
 4971SOL    HW114950   5.523   3.842   4.180
 4971SOL    HW214951   5.419   3.772   4.285
 4972SOL     OW14952   5.004   4.651   4.396
 4972SOL    HW114953   5.064   4.570   4.398
 4972SOL    HW214954   5.044   4.720   4.336
 4973SOL     OW14955   4.554   4.997   5.146
 4973SOL    HW114956   4.549   5.030   5.241
 4973SOL    HW214957   4.468   5.016   5.100
 4974SOL     OW14958   3.987   4.050   4.444
 4974SOL    HW114959   3.908   4.101   4.410
 4974SOL    HW214960   3.978   4.035   4.542
 4975SOL     OW14961   4.918   5.336   3.755
 4975SOL    HW114962   4.924   5.243   3.792
 4975SOL    HW214963   4.859   5.336   3.675
 4976SOL     OW14964   4.546   4.726   5.096
 4976SOL    HW114965   4.586   4.725   5.004
 4976SOL    HW214966   4.556   4.818   5.136
 4977SOL     OW14967   4.640   4.634   4.015
 4977SOL    HW114968   4.703   4.672   3.947
 4977SOL    HW214969   4.680   4.551   4.054
 4978SOL     OW14970   4.096   5.012   5.214
 4978SOL    HW114971   4.083   5.105   5.180
 4978SOL    HW214972   4.012   4.960   5.201
 4979SOL     OW14973   4.763   4.822   4.420
 4979SOL    HW114974   4.693   4.775   4.474
 4979SOL    HW214975   4.822   4.754   4.377
 4980SOL     OW14976   4.738   3.960   4.695
 4980SOL    HW114977   4.730   3.924   4.602
 4980SOL    HW214978   4.736   3.884   4.760
 4981SOL     OW14979   4.314   5.211   4.215
 4981SOL    HW114980   4.356   5.153   4.145
 4981SOL    HW214981   4.270   5.290   4.171
 4982SOL     OW14982   3.979   5.072   4.014
 4982SOL    HW114983   3.883   5.073   3.987
 4982SOL    HW214984   3.991   5.125   4.098
 4983SOL     OW14985   3.829   4.737   5.450
 4983SOL    HW114986   3.752   4.704   5.504
 4983SOL    HW214987   3.914   4.707   5.492
 4984SOL     OW14988   4.396   3.927   5.213
 4984SOL    HW114989   4.486   3.911   5.173
 4984SOL    HW214990   4.404   3.932   5.312
 4985SOL     OW14991   3.799   4.069   3.757
 4985SOL    HW114992   3.707   4.041   3.728
 4985SOL    HW214993   3.830   4.146   3.701
 4986SOL     OW14994   5.164   4.580   5.122
 4986SOL    HW114995   5.107   4.632   5.059
 4986SOL    HW214996   5.260   4.592   5.098
 4987SOL     OW14997   3.796   3.890   4.042
 4987SOL    HW114998   3.779   3.973   3.988
 4987SOL    HW214999   3.886   3.853   4.020
 4988SOL     OW15000   4.907   5.059   3.843
 4988SOL    HW115001   4.808   5.048   3.845
 4988SOL    HW215002   4.941   5.074   3.936
 4989SOL     OW15003   4.337   4.566   5.155
 4989SOL    HW115004   4.393   4.647   5.138
 4989SOL    HW215005   4.396   4.486   5.158
 4990SOL     OW15006   4.440   4.289   5.432
 4990SOL    HW115007   4.459   4.354   5.506
 4990SOL    HW215008   4.500   4.209   5.441
 4991SOL     OW15009   4.114   5.465   5.284
 4991SOL    HW115010   4.023   5.506   5.282
 4991SOL    HW215011   4.107   5.371   5.316
 4992SOL     OW15012   4.949   4.049   4.173
 4992SOL    HW115013   5.014   3.975   4.162
 4992SOL    HW215014   4.969   4.099   4.257
 4993SOL     OW15015   4.318   4.469   4.376
 4993SOL    HW115016   4.368   4.554   4.357
 4993SOL    HW215017   4.230   4.471   4.328
 4994SOL     OW15018   4.583   5.098   3.740
 4994SOL    HW115019   4.537   5.113   3.828
 4994SOL    HW215020   4.627   5.183   3.710
 4995SOL     OW15021   4.583   4.680   4.585
 4995SOL    HW115022   4.637   4.611   4.633
 4995SOL    HW215023   4.551   4.749   4.651
 4996SOL     OW15024   4.807   4.708   3.811
 4996SOL    HW115025   4.784   4.761   3.729
 4996SOL    HW215026   4.888   4.652   3.792
 4997SOL     OW15027   5.585   5.293   4.575
 4997SOL    HW115028   5.514   5.281   4.505
 4997SOL    HW215029   5.586   5.214   4.635
 4998SOL     OW15030   3.803   4.964   4.377
 4998SOL    HW115031   3.802   4.917   4.465
 4998SOL    HW215032   3.885   4.936   4.326
 4999SOL     OW15033   4.396   5.115   5.348
 4999SOL    HW115034   4.318   5.065   5.386
 4999SOL    HW215035   4.393   5.210   5.379
 5000SOL     OW15036   4.152   4.148   4.244
 5000SOL    HW115037   4.182   4.076   4.182
 5000SOL    HW215038   4.113   4.108   4.327
 5001SOL     OW15039   4.041   4.271   5.004
 5001SOL    HW115040   4.079   4.212   5.076
 5001SOL    HW215041   4.081   4.245   4.916
 5002SOL     OW15042   5.148   3.938   4.836
 5002SOL    HW115043   5.200   3.873   4.891
 5002SOL    HW215044   5.099   4.001   4.897
 5003SOL     OW15045   4.725   3.758   4.878
 5003SOL    HW115046   4.662   3.686   4.847
 5003SOL    HW215047   4.818   3.722   4.878
 5004SOL     OW15048   4.494   5.054   4.025
 5004SOL    HW115049   4.448   4.967   4.042
 5004SOL    HW215050   4.585   5.051   4.066
 5005SOL     OW15051   4.342   5.291   5.008
 5005SOL    HW115052   4.337   5.373   5.065
 5005SOL    HW215053   4.431   5.288   4.963
 5006SOL     OW15054   5.076   3.776   3.892
 5006SOL    HW115055   5.111   3.735   3.808
 5006SOL    HW215056   4.986   3.738   3.912
 5007SOL     OW15057   5.024   4.177   4.415
 5007SOL    HW115058   4.965   4.257   4.419
 5007SOL    HW215059   5.039   4.142   4.508
 5008SOL     OW15060   5.317   3.945   4.606
 5008SOL    HW115061   5.233   3.944   4.660
 5008SOL    HW215062   5.319   4.028   4.550
 5009SOL     OW15063   3.763   4.801   4.024
 5009SOL    HW115064   3.862   4.790   4.015
 5009SOL    HW215065   3.723   4.715   4.056
   5.37550   5.37550   5.37550
