; mobley_2261979_GMX.itp created by acpype (v: 2023.10.27) on Wed May 20 23:46:14 2026

[ atomtypes ]
;name   bond_type     mass     charge   ptype   sigma         epsilon       Amb
 ca       ca          0.00000  0.00000   A     3.31521e-01   4.13379e-01 ; 1.86  0.0988
 c5       c5          0.00000  0.00000   A     3.39771e-01   4.51035e-01 ; 1.91  0.1078
 ha       ha          0.00000  0.00000   A     2.62548e-01   6.73624e-02 ; 1.47  0.0161
 hc       hc          0.00000  0.00000   A     2.60018e-01   8.70272e-02 ; 1.46  0.0208

[ moleculetype ]
;name            nrexcl
 mobley_2261979   3

[ atoms ]
;   nr  type  resi  res  atom  cgnr     charge      mass       ; qtot   bond_type
     1   ca     1   MOL    C1    1    -0.123000     12.01000 ; qtot -0.123
     2   ca     1   MOL    C2    2    -0.123000     12.01000 ; qtot -0.246
     3   ca     1   MOL    C3    3    -0.120000     12.01000 ; qtot -0.366
     4   ca     1   MOL    C4    4    -0.120000     12.01000 ; qtot -0.486
     5   ca     1   MOL    C5    5    -0.121000     12.01000 ; qtot -0.607
     6   ca     1   MOL    C6    6    -0.121000     12.01000 ; qtot -0.728
     7   ca     1   MOL    C7    7    -0.022000     12.01000 ; qtot -0.750
     8   ca     1   MOL    C8    8    -0.063000     12.01000 ; qtot -0.813
     9   ca     1   MOL    C9    9    -0.070300     12.01000 ; qtot -0.883
    10   ca     1   MOL   C10   10    -0.070300     12.01000 ; qtot -0.954
    11   c5     1   MOL   C11   11    -0.033100     12.01000 ; qtot -0.987
    12   c5     1   MOL   C12   12    -0.033100     12.01000 ; qtot -1.020
    13   ha     1   MOL    H1   13     0.129000      1.00800 ; qtot -0.891
    14   ha     1   MOL    H2   14     0.129000      1.00800 ; qtot -0.762
    15   ha     1   MOL    H3   15     0.132000      1.00800 ; qtot -0.630
    16   ha     1   MOL    H4   16     0.132000      1.00800 ; qtot -0.498
    17   ha     1   MOL    H5   17     0.133500      1.00800 ; qtot -0.364
    18   ha     1   MOL    H6   18     0.133500      1.00800 ; qtot -0.231
    19   hc     1   MOL    H7   19     0.057700      1.00800 ; qtot -0.173
    20   hc     1   MOL    H8   20     0.057700      1.00800 ; qtot -0.115
    21   hc     1   MOL    H9   21     0.057700      1.00800 ; qtot -0.058
    22   hc     1   MOL   H10   22     0.057700      1.00800 ; qtot -0.000

[ bonds ]
;   ai     aj funct   r             k
     1      3   1    1.3986e-01    2.9644e+05 ;     C1 - C3    
     1      5   1    1.3986e-01    2.9644e+05 ;     C1 - C5    
     1     13   1    1.0860e-01    3.0183e+05 ;     C1 - H1    
     2      4   1    1.3986e-01    2.9644e+05 ;     C2 - C4    
     2      6   1    1.3986e-01    2.9644e+05 ;     C2 - C6    
     2     14   1    1.0860e-01    3.0183e+05 ;     C2 - H2    
     3      7   1    1.3986e-01    2.9644e+05 ;     C3 - C7    
     3     15   1    1.0860e-01    3.0183e+05 ;     C3 - H3    
     4      7   1    1.3986e-01    2.9644e+05 ;     C4 - C7    
     4     16   1    1.0860e-01    3.0183e+05 ;     C4 - H4    
     5      9   1    1.3986e-01    2.9644e+05 ;     C5 - C9    
     5     17   1    1.0860e-01    3.0183e+05 ;     C5 - H5    
     6     10   1    1.3986e-01    2.9644e+05 ;     C6 - C10   
     6     18   1    1.0860e-01    3.0183e+05 ;     C6 - H6    
     7      8   1    1.3986e-01    2.9644e+05 ;     C7 - C8    
     8      9   1    1.3986e-01    2.9644e+05 ;     C8 - C9    
     8     10   1    1.3986e-01    2.9644e+05 ;     C8 - C10   
     9     11   1    1.5151e-01    2.0384e+05 ;     C9 - C11   
    10     12   1    1.5151e-01    2.0384e+05 ;    C10 - C12   
    11     12   1    1.5483e-01    1.8418e+05 ;    C11 - C12   
    11     19   1    1.0954e-01    2.8989e+05 ;    C11 - H7    
    11     20   1    1.0954e-01    2.8989e+05 ;    C11 - H8    
    12     21   1    1.0954e-01    2.8989e+05 ;    C12 - H9    
    12     22   1    1.0954e-01    2.8989e+05 ;    C12 - H10   

[ pairs ]
;   ai     aj    funct
     1      4      1 ;     C1 - C4    
     1      8      1 ;     C1 - C8    
     1     11      1 ;     C1 - C11   
     2      3      1 ;     C2 - C3    
     2      8      1 ;     C2 - C8    
     2     12      1 ;     C2 - C12   
     3      9      1 ;     C3 - C9    
     3     10      1 ;     C3 - C10   
     3     16      1 ;     C3 - H4    
     3     17      1 ;     C3 - H5    
     4      9      1 ;     C4 - C9    
     4     10      1 ;     C4 - C10   
     4     15      1 ;     C4 - H3    
     4     18      1 ;     C4 - H6    
     5      7      1 ;     C5 - C7    
     5     10      1 ;     C5 - C10   
     5     12      1 ;     C5 - C12   
     5     15      1 ;     C5 - H3    
     5     19      1 ;     C5 - H7    
     5     20      1 ;     C5 - H8    
     6      7      1 ;     C6 - C7    
     6      9      1 ;     C6 - C9    
     6     11      1 ;     C6 - C11   
     6     16      1 ;     C6 - H4    
     6     21      1 ;     C6 - H9    
     6     22      1 ;     C6 - H10   
     7     11      1 ;     C7 - C11   
     7     12      1 ;     C7 - C12   
     7     14      1 ;     C7 - H2    
     8     15      1 ;     C8 - H3    
     8     16      1 ;     C8 - H4    
     8     17      1 ;     C8 - H5    
     8     18      1 ;     C8 - H6    
     8     19      1 ;     C8 - H7    
     8     20      1 ;     C8 - H8    
     8     21      1 ;     C8 - H9    
     8     22      1 ;     C8 - H10   
     9     21      1 ;     C9 - H9    
     9     22      1 ;     C9 - H10   
    10     14      1 ;    C10 - H2    
    10     19      1 ;    C10 - H7    
    10     20      1 ;    C10 - H8    
    11     17      1 ;    C11 - H5    
    12     18      1 ;    C12 - H6    
    13      7      1 ;     H1 - C7    
    13      9      1 ;     H1 - C9    
    13     15      1 ;     H1 - H3    
    13     17      1 ;     H1 - H5    
    14     16      1 ;     H2 - H4    
    14     18      1 ;     H2 - H6    
    19     21      1 ;     H7 - H9    
    19     22      1 ;     H7 - H10   
    20     21      1 ;     H8 - H9    
    20     22      1 ;     H8 - H10   

[ angles ]
;   ai     aj     ak    funct   theta         cth
     1      3      7      1    1.2002e+02    5.3279e+02 ;     C1 - C3     - C7    
     1      3     15      1    1.1988e+02    3.7572e+02 ;     C1 - C3     - H3    
     1      5      9      1    1.2002e+02    5.3279e+02 ;     C1 - C5     - C9    
     1      5     17      1    1.1988e+02    3.7572e+02 ;     C1 - C5     - H5    
     2      4      7      1    1.2002e+02    5.3279e+02 ;     C2 - C4     - C7    
     2      4     16      1    1.1988e+02    3.7572e+02 ;     C2 - C4     - H4    
     2      6     10      1    1.2002e+02    5.3279e+02 ;     C2 - C6     - C10   
     2      6     18      1    1.1988e+02    3.7572e+02 ;     C2 - C6     - H6    
     3      1      5      1    1.2002e+02    5.3279e+02 ;     C3 - C1     - C5    
     3      1     13      1    1.1988e+02    3.7572e+02 ;     C3 - C1     - H1    
     3      7      4      1    1.2002e+02    5.3279e+02 ;     C3 - C7     - C4    
     3      7      8      1    1.2002e+02    5.3279e+02 ;     C3 - C7     - C8    
     4      2      6      1    1.2002e+02    5.3279e+02 ;     C4 - C2     - C6    
     4      2     14      1    1.1988e+02    3.7572e+02 ;     C4 - C2     - H2    
     4      7      8      1    1.2002e+02    5.3279e+02 ;     C4 - C7     - C8    
     5      1     13      1    1.1988e+02    3.7572e+02 ;     C5 - C1     - H1    
     5      9      8      1    1.2002e+02    5.3279e+02 ;     C5 - C9     - C8    
     5      9     11      1    1.2187e+02    5.0601e+02 ;     C5 - C9     - C11   
     6      2     14      1    1.1988e+02    3.7572e+02 ;     C6 - C2     - H2    
     6     10      8      1    1.2002e+02    5.3279e+02 ;     C6 - C10    - C8    
     6     10     12      1    1.2187e+02    5.0601e+02 ;     C6 - C10    - C12   
     7      3     15      1    1.1988e+02    3.7572e+02 ;     C7 - C3     - H3    
     7      4     16      1    1.1988e+02    3.7572e+02 ;     C7 - C4     - H4    
     7      8      9      1    1.2002e+02    5.3279e+02 ;     C7 - C8     - C9    
     7      8     10      1    1.2002e+02    5.3279e+02 ;     C7 - C8     - C10   
     8      9     11      1    1.2187e+02    5.0601e+02 ;     C8 - C9     - C11   
     8     10     12      1    1.2187e+02    5.0601e+02 ;     C8 - C10    - C12   
     9      5     17      1    1.1988e+02    3.7572e+02 ;     C9 - C5     - H5    
     9      8     10      1    1.2002e+02    5.3279e+02 ;     C9 - C8     - C10   
     9     11     12      1    1.0483e+02    5.2049e+02 ;     C9 - C11    - C12   
     9     11     19      1    1.1160e+02    3.6334e+02 ;     C9 - C11    - H7    
     9     11     20      1    1.1160e+02    3.6334e+02 ;     C9 - C11    - H8    
    10      6     18      1    1.1988e+02    3.7572e+02 ;    C10 - C6     - H6    
    10     12     11      1    1.0483e+02    5.2049e+02 ;    C10 - C12    - C11   
    10     12     21      1    1.1160e+02    3.6334e+02 ;    C10 - C12    - H9    
    10     12     22      1    1.1160e+02    3.6334e+02 ;    C10 - C12    - H10   
    11     12     21      1    1.1117e+02    3.5690e+02 ;    C11 - C12    - H9    
    11     12     22      1    1.1117e+02    3.5690e+02 ;    C11 - C12    - H10   
    12     11     19      1    1.1117e+02    3.5690e+02 ;    C12 - C11    - H7    
    12     11     20      1    1.1117e+02    3.5690e+02 ;    C12 - C11    - H8    
    19     11     20      1    1.0722e+02    3.0049e+02 ;     H7 - C11    - H8    
    21     12     22      1    1.0722e+02    3.0049e+02 ;     H9 - C12    - H10   

[ dihedrals ] ; propers
; for gromacs 4.5 or higher, using funct 9
;    i      j      k      l   func   phase     kd      pn
     1      3      7      4      9   180.00  15.16700   2 ;     C1-    C3-    C7-    C4
     1      3      7      8      9   180.00  15.16700   2 ;     C1-    C3-    C7-    C8
     1      5      9      8      9   180.00  15.16700   2 ;     C1-    C5-    C9-    C8
     1      5      9     11      9   180.00  15.16700   2 ;     C1-    C5-    C9-   C11
     2      4      7      3      9   180.00  15.16700   2 ;     C2-    C4-    C7-    C3
     2      4      7      8      9   180.00  15.16700   2 ;     C2-    C4-    C7-    C8
     2      6     10      8      9   180.00  15.16700   2 ;     C2-    C6-   C10-    C8
     2      6     10     12      9   180.00  15.16700   2 ;     C2-    C6-   C10-   C12
     3      1      5      9      9   180.00  15.16700   2 ;     C3-    C1-    C5-    C9
     3      1      5     17      9   180.00  15.16700   2 ;     C3-    C1-    C5-    H5
     3      7      4     16      9   180.00  15.16700   2 ;     C3-    C7-    C4-    H4
     3      7      8      9      9   180.00  15.16700   2 ;     C3-    C7-    C8-    C9
     3      7      8     10      9   180.00  15.16700   2 ;     C3-    C7-    C8-   C10
     4      2      6     10      9   180.00  15.16700   2 ;     C4-    C2-    C6-   C10
     4      2      6     18      9   180.00  15.16700   2 ;     C4-    C2-    C6-    H6
     4      7      3     15      9   180.00  15.16700   2 ;     C4-    C7-    C3-    H3
     4      7      8      9      9   180.00  15.16700   2 ;     C4-    C7-    C8-    C9
     4      7      8     10      9   180.00  15.16700   2 ;     C4-    C7-    C8-   C10
     5      1      3      7      9   180.00  15.16700   2 ;     C5-    C1-    C3-    C7
     5      1      3     15      9   180.00  15.16700   2 ;     C5-    C1-    C3-    H3
     5      9      8      7      9   180.00  15.16700   2 ;     C5-    C9-    C8-    C7
     5      9      8     10      9   180.00  15.16700   2 ;     C5-    C9-    C8-   C10
     5      9     11     12      9   180.00   1.00416   2 ;     C5-    C9-   C11-   C12
     5      9     11     19      9     0.00   0.00000   0 ;     C5-    C9-   C11-    H7
     5      9     11     20      9     0.00   0.00000   0 ;     C5-    C9-   C11-    H8
     6      2      4      7      9   180.00  15.16700   2 ;     C6-    C2-    C4-    C7
     6      2      4     16      9   180.00  15.16700   2 ;     C6-    C2-    C4-    H4
     6     10      8      7      9   180.00  15.16700   2 ;     C6-   C10-    C8-    C7
     6     10      8      9      9   180.00  15.16700   2 ;     C6-   C10-    C8-    C9
     6     10     12     11      9   180.00   1.00416   2 ;     C6-   C10-   C12-   C11
     6     10     12     21      9     0.00   0.00000   0 ;     C6-   C10-   C12-    H9
     6     10     12     22      9     0.00   0.00000   0 ;     C6-   C10-   C12-   H10
     7      4      2     14      9   180.00  15.16700   2 ;     C7-    C4-    C2-    H2
     7      8      9     11      9   180.00  15.16700   2 ;     C7-    C8-    C9-   C11
     7      8     10     12      9   180.00  15.16700   2 ;     C7-    C8-   C10-   C12
     8      7      3     15      9   180.00  15.16700   2 ;     C8-    C7-    C3-    H3
     8      7      4     16      9   180.00  15.16700   2 ;     C8-    C7-    C4-    H4
     8      9      5     17      9   180.00  15.16700   2 ;     C8-    C9-    C5-    H5
     8      9     11     12      9   180.00   1.00416   2 ;     C8-    C9-   C11-   C12
     8      9     11     19      9     0.00   0.00000   0 ;     C8-    C9-   C11-    H7
     8      9     11     20      9     0.00   0.00000   0 ;     C8-    C9-   C11-    H8
     8     10      6     18      9   180.00  15.16700   2 ;     C8-   C10-    C6-    H6
     8     10     12     11      9   180.00   1.00416   2 ;     C8-   C10-   C12-   C11
     8     10     12     21      9     0.00   0.00000   0 ;     C8-   C10-   C12-    H9
     8     10     12     22      9     0.00   0.00000   0 ;     C8-   C10-   C12-   H10
     9      8     10     12      9   180.00  15.16700   2 ;     C9-    C8-   C10-   C12
     9     11     12     10      9     0.00   0.65084   3 ;     C9-   C11-   C12-   C10
     9     11     12     21      9     0.00   0.65084   3 ;     C9-   C11-   C12-    H9
     9     11     12     22      9     0.00   0.65084   3 ;     C9-   C11-   C12-   H10
    10      6      2     14      9   180.00  15.16700   2 ;    C10-    C6-    C2-    H2
    10      8      9     11      9   180.00  15.16700   2 ;    C10-    C8-    C9-   C11
    10     12     11     19      9     0.00   0.65084   3 ;    C10-   C12-   C11-    H7
    10     12     11     20      9     0.00   0.65084   3 ;    C10-   C12-   C11-    H8
    11      9      5     17      9   180.00  15.16700   2 ;    C11-    C9-    C5-    H5
    12     10      6     18      9   180.00  15.16700   2 ;    C12-   C10-    C6-    H6
    13      1      3      7      9   180.00  15.16700   2 ;     H1-    C1-    C3-    C7
    13      1      3     15      9   180.00  15.16700   2 ;     H1-    C1-    C3-    H3
    13      1      5      9      9   180.00  15.16700   2 ;     H1-    C1-    C5-    C9
    13      1      5     17      9   180.00  15.16700   2 ;     H1-    C1-    C5-    H5
    14      2      4     16      9   180.00  15.16700   2 ;     H2-    C2-    C4-    H4
    14      2      6     18      9   180.00  15.16700   2 ;     H2-    C2-    C6-    H6
    19     11     12     21      9     0.00   0.50208   3 ;     H7-   C11-   C12-    H9
    19     11     12     22      9     0.00   0.50208   3 ;     H7-   C11-   C12-   H10
    20     11     12     21      9     0.00   0.50208   3 ;     H8-   C11-   C12-    H9
    20     11     12     22      9     0.00   0.50208   3 ;     H8-   C11-   C12-   H10

[ dihedrals ] ; impropers
; treated as propers in GROMACS to use correct AMBER analytical function
;    i      j      k      l   func   phase     kd      pn
     1      7      3     15      4   180.00   4.60240   2 ;     C1-    C7-    C3-    H3
     1      9      5     17      4   180.00   4.60240   2 ;     C1-    C9-    C5-    H5
     2      7      4     16      4   180.00   4.60240   2 ;     C2-    C7-    C4-    H4
     2     10      6     18      4   180.00   4.60240   2 ;     C2-   C10-    C6-    H6
     3      4      7      8      4   180.00   4.60240   2 ;     C3-    C4-    C7-    C8
     4      6      2     14      4   180.00   4.60240   2 ;     C4-    C6-    C2-    H2
     7      9      8     10      4   180.00   4.60240   2 ;     C7-    C9-    C8-   C10
    11      5      9      8      4   180.00   4.60240   2 ;    C11-    C5-    C9-    C8
    12      6     10      8      4   180.00   4.60240   2 ;    C12-    C6-   C10-    C8
    13      1      5      3      4   180.00   4.60240   2 ;     H1-    C1-    C5-    C3
