; mobley_2261979_GMX_OPLS.top created by acpype (v: 2023.10.27) on Wed May 20 23:46:14 2026

; Include forcefield parameters
#include "ffoplsaa.itp"

; Include mobley_2261979_GMX.itp topology
#include "mobley_2261979_GMX.itp"

; Ligand position restraints
#ifdef POSRES_LIG
#include "posre_mobley_2261979.itp"
#endif

[ system ]
 mobley_2261979

[ molecules ]
; Compound        nmols
 mobley_2261979   1     
