acenaphthene
    22
   5.8330000  -0.4960000   0.1920000   0.9670000  -0.4610000   0.1850000
   4.6690000   0.2400000  -0.1040000   2.1420000   0.2580000  -0.1080000
   5.7580000  -1.7960000   0.7190000   1.0220000  -1.7620000   0.7130000
   3.4010000  -0.3260000   0.1270000   3.3910000  -1.6200000   0.6510000
   4.5110000  -2.3520000   0.9460000   2.2600000  -2.3360000   0.9430000
   4.1520000  -3.7010000   1.4930000   2.5990000  -3.6900000   1.4920000
   6.8080000  -0.0490000   0.0090000  -0.0000000  -0.0000000  -0.0000000
   4.7600000   1.2440000  -0.5110000   2.0680000   1.2630000  -0.5150000
   6.6650000  -2.3490000   0.9420000   0.1060000  -2.3020000   0.9330000
   4.5350000  -4.5010000   0.8510000   4.5380000  -3.8320000   2.5090000
   2.2080000  -3.8120000   2.5080000   2.2050000  -4.4860000   0.8520000
