%VERSION  VERSION_STAMP = V0001.000  DATE = 05/21/26  00:00:17                  
%FLAG TITLE                                                                     
%FORMAT(20a4)                                                                   
SAMPL4_027                                                                      
%FLAG POINTERS                                                                  
%FORMAT(10I8)                                                                   
      17       6       6      10      15      11      24      10       0       0
      72       1      10      11      10       6      10       6       6       0
       0       0       0       0       0       0       0       0      17       0
       0
%FLAG ATOM_NAME                                                                 
%FORMAT(20a4)                                                                   
C1  C2  C3  N1  N2  O1  O2  O3  O4  O5  O6  H1  H2  H3  H4  H5  H6  
%FLAG CHARGE                                                                    
%FORMAT(5E16.8)                                                                 
 -1.73840742E+00  2.44907712E+00  2.44907712E+00  6.90989616E+00  6.90989616E+00
 -3.17068020E+00 -3.17068020E+00 -3.17068020E+00 -3.17068020E+00 -6.37780500E+00
 -6.37780500E+00  1.59809571E+00  1.59809571E+00  1.32476121E+00  1.32476121E+00
  1.32476121E+00  1.32476121E+00
%FLAG ATOMIC_NUMBER                                                             
%FORMAT(10I8)                                                                   
       6       6       6       7       7       8       8       8       8       8
       8       1       1       1       1       1       1
%FLAG MASS                                                                      
%FORMAT(5E16.8)                                                                 
  1.20100000E+01  1.20100000E+01  1.20100000E+01  1.40100000E+01  1.40100000E+01
  1.60000000E+01  1.60000000E+01  1.60000000E+01  1.60000000E+01  1.60000000E+01
  1.60000000E+01  1.00800000E+00  1.00800000E+00  1.00800000E+00  1.00800000E+00
  1.00800000E+00  1.00800000E+00
%FLAG ATOM_TYPE_INDEX                                                           
%FORMAT(10I8)                                                                   
       1       1       1       2       2       3       3       3       3       4
       4       5       5       6       6       6       6
%FLAG NUMBER_EXCLUDED_ATOMS                                                     
%FORMAT(10I8)                                                                   
      12      12      11       5       5       2       2       1       1       4
       4       5       4       1       1       1       1
%FLAG NONBONDED_PARM_INDEX                                                      
%FORMAT(10I8)                                                                   
       1       2       4       7      11      16       2       3       5       8
      12      17       4       5       6       9      13      18       7       8
       9      10      14      19      11      12      13      14      15      20
      16      17      18      19      20      21
%FLAG RESIDUE_LABEL                                                             
%FORMAT(20a4)                                                                   
MOL 
%FLAG RESIDUE_POINTER                                                           
%FORMAT(10I8)                                                                   
       1
%FLAG BOND_FORCE_CONSTANT                                                       
%FORMAT(5E16.8)                                                                 
  2.28890000E+02  3.45250000E+02  2.82270000E+02  3.44220000E+02  3.61740000E+02
  1.85340000E+02
%FLAG BOND_EQUIL_VALUE                                                          
%FORMAT(5E16.8)                                                                 
  1.53540000E+00  1.09620000E+00  1.42730000E+00  1.09690000E+00  1.23110000E+00
  1.42020000E+00
%FLAG ANGLE_FORCE_CONSTANT                                                      
%FORMAT(5E16.8)                                                                 
  7.74400000E+01  4.32800000E+01  5.98700000E+01  4.32700000E+01  9.38900000E+01
  1.31020000E+02  1.25700000E+02  5.62000000E+01  3.58000000E+01  3.56400000E+01
%FLAG ANGLE_EQUIL_VALUE                                                         
%FORMAT(5E16.8)                                                                 
  1.87832415E+00  1.91270715E+00  1.96576518E+00  1.91427794E+00  1.98740727E+00
  2.18253516E+00  2.00363884E+00  1.92579712E+00  1.88024401E+00  1.89455572E+00
%FLAG DIHEDRAL_FORCE_CONSTANT                                                   
%FORMAT(5E16.8)                                                                 
  3.83333333E-01  1.55555556E-01  2.53500000E+00  2.50000000E-01  0.00000000E+00
  1.10000000E+00
%FLAG DIHEDRAL_PERIODICITY                                                      
%FORMAT(5E16.8)                                                                 
  3.00000000E+00  3.00000000E+00  2.00000000E+00  1.00000000E+00  3.00000000E+00
  2.00000000E+00
%FLAG DIHEDRAL_PHASE                                                            
%FORMAT(5E16.8)                                                                 
  0.00000000E+00  0.00000000E+00  3.14159400E+00  0.00000000E+00  0.00000000E+00
  3.14159400E+00
%FLAG SCEE_SCALE_FACTOR                                                         
%FORMAT(5E16.8)                                                                 
  1.20000000E+00  1.20000000E+00  1.20000000E+00  1.20000000E+00  1.20000000E+00
  0.00000000E+00
%FLAG SCNB_SCALE_FACTOR                                                         
%FORMAT(5E16.8)                                                                 
  2.00000000E+00  2.00000000E+00  2.00000000E+00  2.00000000E+00  2.00000000E+00
  0.00000000E+00
%FLAG SOLTY                                                                     
%FORMAT(5E16.8)                                                                 
  0.00000000E+00  0.00000000E+00  0.00000000E+00  0.00000000E+00  0.00000000E+00
  0.00000000E+00
%FLAG LENNARD_JONES_ACOEF                                                       
%FORMAT(5E16.8)                                                                 
  1.02073671E+06  8.59569453E+05  7.23647490E+05  6.30925504E+05  5.29641935E+05
  3.76435470E+05  5.42502534E+05  4.55871651E+05  3.27367585E+05  2.83662575E+05
  1.00235148E+05  8.37616145E+04  5.68021765E+04  5.02224902E+04  7.94617769E+03
  6.97998263E+04  5.82112737E+04  3.86646725E+04  3.44374471E+04  5.22955465E+03
  3.39005767E+03
%FLAG LENNARD_JONES_BCOEF                                                       
%FORMAT(5E16.8)                                                                 
  6.63431737E+02  5.75038595E+02  4.98353106E+02  5.62969425E+02  4.87196412E+02
  4.69350655E+02  4.38146883E+02  3.79365004E+02  3.67361018E+02  2.87011518E+02
  1.37787728E+02  1.18970742E+02  1.11953944E+02  8.83545880E+01  2.57122925E+01
  1.14981426E+02  9.91793374E+01  9.23664132E+01  7.31636661E+01  2.08590256E+01
  1.67944276E+01
%FLAG BONDS_INC_HYDROGEN                                                        
%FORMAT(10I8)                                                                   
       0      33       2       0      36       2       3      39       4       3
      42       4       6      45       4       6      48       4
%FLAG BONDS_WITHOUT_HYDROGEN                                                    
%FORMAT(10I8)                                                                   
       0       3       1       0       6       1       3      27       3       6
      30       3       9      15       5       9      21       5       9      27
       6      12      18       5      12      24       5      12      30       6
%FLAG ANGLES_INC_HYDROGEN                                                       
%FORMAT(10I8)                                                                   
       0       3      39       2       0       3      42       2       0       6
      45       2       0       6      48       2       3       0      33       4
       3       0      36       4       6       0      33       4       6       0
      36       4      27       3      39       8      27       3      42       8
      30       6      45       8      30       6      48       8      33       0
      36       9      39       3      42      10      45       6      48      10
%FLAG ANGLES_WITHOUT_HYDROGEN                                                   
%FORMAT(10I8)                                                                   
       0       3      27       1       0       6      30       1       3       0
       6       3       3      27       9       5       6      30      12       5
      15       9      21       6      15       9      27       7      18      12
      24       6      18      12      30       7      21       9      27       7
      24      12      30       7
%FLAG DIHEDRALS_INC_HYDROGEN                                                    
%FORMAT(10I8)                                                                   
       3       0       6      45       2       3       0       6      48       2
       6       0       3      39       2       6       0       3      42       2
       9      27       3      39       1       9      27       3      42       1
      12      30       6      45       1      12      30       6      48       1
      33       0       3      27       4      33       0      -3      27       5
      36       0       3      27       4      36       0      -3      27       5
      33       0       6      30       4      33       0      -6      30       5
      36       0       6      30       4      36       0      -6      30       5
      33       0       3      39       2      33       0       3      42       2
      33       0       6      45       2      33       0       6      48       2
      36       0       3      39       2      36       0       3      42       2
      36       0       6      45       2      36       0       6      48       2
%FLAG DIHEDRALS_WITHOUT_HYDROGEN                                                
%FORMAT(10I8)                                                                   
       0       3      27       9       1       0       6      30      12       1
       3       0       6      30       2       3      27       9      15       3
       3      27       9      21       3       6       0       3      27       2
       6      30      12      18       3       6      30      12      24       3
      15      21      -9     -27       6      18      24     -12     -30       6
%FLAG EXCLUDED_ATOMS_LIST                                                       
%FORMAT(10I8)                                                                   
       2       3       4       5      10      11      12      13      14      15
      16      17       3       4       6       8      10      11      12      13
      14      15      16      17       5       7       9      10      11      12
      13      14      15      16      17       6       8      10      14      15
       7       9      11      16      17       8      10       9      11      10
      11      12      13      14      15      12      13      16      17      13
      14      15      16      17      14      15      16      17      15       0
      17       0
%FLAG HBOND_ACOEF                                                               
%FORMAT(5E16.8)                                                                 

%FLAG HBOND_BCOEF                                                               
%FORMAT(5E16.8)                                                                 

%FLAG HBCUT                                                                     
%FORMAT(5E16.8)                                                                 

%FLAG AMBER_ATOM_TYPE                                                           
%FORMAT(20a4)                                                                   
c3  c3  c3  no  no  o   o   o   o   os  os  hc  hc  h1  h1  h1  h1  
%FLAG TREE_CHAIN_CLASSIFICATION                                                 
%FORMAT(20a4)                                                                   
BLA BLA BLA BLA BLA BLA BLA BLA BLA BLA BLA BLA BLA BLA BLA BLA BLA 
%FLAG JOIN_ARRAY                                                                
%FORMAT(10I8)                                                                   
       0       0       0       0       0       0       0       0       0       0
       0       0       0       0       0       0       0
%FLAG IROTAT                                                                    
%FORMAT(10I8)                                                                   
       0       0       0       0       0       0       0       0       0       0
       0       0       0       0       0       0       0
%FLAG RADIUS_SET                                                                
%FORMAT(1a80)                                                                   
modified Bondi radii (mbondi)                                                   
%FLAG RADII                                                                     
%FORMAT(5E16.8)                                                                 
  1.70000000E+00  1.70000000E+00  1.70000000E+00  1.55000000E+00  1.55000000E+00
  1.50000000E+00  1.50000000E+00  1.50000000E+00  1.50000000E+00  1.50000000E+00
  1.50000000E+00  1.30000000E+00  1.30000000E+00  1.30000000E+00  1.30000000E+00
  1.30000000E+00  1.30000000E+00
%FLAG SCREEN                                                                    
%FORMAT(5E16.8)                                                                 
  7.20000000E-01  7.20000000E-01  7.20000000E-01  7.90000000E-01  7.90000000E-01
  8.50000000E-01  8.50000000E-01  8.50000000E-01  8.50000000E-01  8.50000000E-01
  8.50000000E-01  8.50000000E-01  8.50000000E-01  8.50000000E-01  8.50000000E-01
  8.50000000E-01  8.50000000E-01
%FLAG IPOL                                                                      
%FORMAT(1I8)                                                                    
       0
