SAMPL4_027
    17
  -6.1760000   0.8030000   0.1260000  -6.1870000   1.7610000  -1.0530000
  -5.2920000  -0.4070000  -0.1310000  -7.0990000   3.8350000  -1.7790000
  -4.4950000  -2.4230000   0.8500000  -6.4310000   3.5310000  -2.7680000
  -3.9360000  -2.4750000  -0.2460000  -7.8030000   4.8290000  -1.5820000
  -4.4500000  -3.2170000   1.7930000  -7.0180000   2.8700000  -0.7370000
  -5.3010000  -1.2610000   1.0050000  -5.8440000   1.3250000   1.0330000
  -7.2000000   0.4800000   0.3550000  -5.1780000   2.1320000  -1.2640000
  -6.5820000   1.2740000  -1.9490000  -4.2570000  -0.1020000  -0.3140000
  -5.6400000  -0.9790000  -0.9970000
