; mobley_2636578_GMX_OPLS.top created by acpype (v: 2023.10.27) on Thu May 21 00:00:15 2026

; Include forcefield parameters
#include "ffoplsaa.itp"

; Include mobley_2636578_GMX.itp topology
#include "mobley_2636578_GMX.itp"

; Ligand position restraints
#ifdef POSRES_LIG
#include "posre_mobley_2636578.itp"
#endif

[ system ]
 mobley_2636578

[ molecules ]
; Compound        nmols
 mobley_2636578   1     
