mobley_2636578_GMX.gro created by acpype (v: 2023.10.27) on Thu May 21 00:00:15 2026
 17
    1  MOL   C1    1  -0.618   0.080   0.013
    1  MOL   C2    2  -0.619   0.176  -0.105
    1  MOL   C3    3  -0.529  -0.041  -0.013
    1  MOL   N1    4  -0.710   0.384  -0.178
    1  MOL   N2    5  -0.450  -0.242   0.085
    1  MOL   O1    6  -0.643   0.353  -0.277
    1  MOL   O2    7  -0.394  -0.248  -0.025
    1  MOL   O3    8  -0.780   0.483  -0.158
    1  MOL   O4    9  -0.445  -0.322   0.179
    1  MOL   O5   10  -0.702   0.287  -0.074
    1  MOL   O6   11  -0.530  -0.126   0.100
    1  MOL   H1   12  -0.584   0.133   0.103
    1  MOL   H2   13  -0.720   0.048   0.035
    1  MOL   H3   14  -0.518   0.213  -0.126
    1  MOL   H4   15  -0.658   0.127  -0.195
    1  MOL   H5   16  -0.426  -0.010  -0.031
    1  MOL   H6   17  -0.564  -0.098  -0.100
    7.73400    16.09200     9.12200
