mobley_3105103_GMX.gro created by acpype (v: 2023.10.27) on Wed May 20 23:52:25 2026
   27
    1MOL     C1    1   2.596   2.314   2.510
    1MOL     C2    2   2.613   2.431   2.575
    1MOL     C3    3   2.469   2.294   2.434
    1MOL     C4    4   2.405   2.518   2.483
    1MOL     C5    5   2.729   2.467   2.662
    1MOL     C6    6   2.316   2.301   2.183
    1MOL     C7    7   2.158   2.348   2.373
    1MOL     C8    8   2.253   2.533   2.232
    1MOL     C9    9   2.284   2.397   2.301
    1MOL     N1   10   2.515   2.526   2.564
    1MOL     N2   11   2.399   2.409   2.397
    1MOL     O1   12   2.432   2.179   2.409
    1MOL     O2   13   2.321   2.607   2.493
    1MOL    CL1   14   2.707   2.183   2.517
    1MOL     H1   15   2.777   2.558   2.624
    1MOL     H2   16   2.806   2.390   2.667
    1MOL     H3   17   2.695   2.487   2.764
    1MOL     H4   18   2.414   2.324   2.139
    1MOL     H5   19   2.316   2.196   2.213
    1MOL     H6   20   2.241   2.308   2.104
    1MOL     H7   21   2.128   2.416   2.453
    1MOL     H8   22   2.174   2.250   2.419
    1MOL     H9   23   2.073   2.339   2.304
    1MOL    H10   24   2.203   2.604   2.298
    1MOL    H11   25   2.344   2.580   2.193
    1MOL    H12   26   2.184   2.520   2.147
    1MOL    H13   27   2.520   2.611   2.620
   4.82109   4.82109   4.82109
