2_methylpropan_2_ol
    15
  -0.4650000  -0.0650000   0.9890000   1.6270000   0.6910000   2.1570000
   1.2040000  -1.7600000   1.8120000   0.5610000  -0.3990000   2.0720000
  -0.1080000  -0.4450000   3.3330000  -0.9610000   0.8890000   1.2040000
   0.0000000   0.0000000   0.0000000  -1.2550000  -0.8230000   0.9520000
   2.3380000   0.4800000   2.9640000   1.1750000   1.6620000   2.3900000
   2.1850000   0.7840000   1.2190000   0.4460000  -2.5520000   1.7870000
   1.7490000  -1.7740000   0.8630000   1.8990000  -2.0230000   2.6170000
  -0.6580000   0.3520000   3.3800000
