; mobley_1650157_GMX_OPLS.itp created by acpype (v: 2023.10.27) on Wed May 20 23:59:27 2026

; For OPLS atomtypes manual fine tuning
; AC_at:OPLS_at:OPLScode: Possible_Alternatives (see ffoplsaa.atp and ffoplsaanb.itp)
; c3:CT:opls_135: ['136', '137', '149', '157', '158', '206', '209', '210', '223B', '224B', '245', '246', '274', '283', '284', '285', '292', '292B', '293B', '296', '307', '308', '505']
; oh:OH:opls_154: ['167']
; hc:HC:opls_140: []
; ho:HO:opls_155: ['168']

[ moleculetype ]
;name            nrexcl
 mobley_1650157   3

[ atoms ]
;   nr  type  resi  res  atom  cgnr     charge      mass       ; qtot   bond_type
     1 opls_135     1   MOL    C1    1    -0.109100     12.01100 ; qtot -0.109  CT  
     2 opls_135     1   MOL    C2    2    -0.109100     12.01100 ; qtot -0.218  CT  
     3 opls_135     1   MOL    C3    3    -0.109100     12.01100 ; qtot -0.327  CT  
     4 opls_135     1   MOL    C4    4     0.145800     12.01100 ; qtot -0.182  CT  
     5 opls_154     1   MOL    O1    5    -0.599800     15.99940 ; qtot -0.781  OH  
     6 opls_140     1   MOL    H1    6     0.042700      1.00800 ; qtot -0.739  HC  
     7 opls_140     1   MOL    H2    7     0.042700      1.00800 ; qtot -0.696  HC  
     8 opls_140     1   MOL    H3    8     0.042700      1.00800 ; qtot -0.653  HC  
     9 opls_140     1   MOL    H4    9     0.042700      1.00800 ; qtot -0.611  HC  
    10 opls_140     1   MOL    H5   10     0.042700      1.00800 ; qtot -0.568  HC  
    11 opls_140     1   MOL    H6   11     0.042700      1.00800 ; qtot -0.525  HC  
    12 opls_140     1   MOL    H7   12     0.042700      1.00800 ; qtot -0.482  HC  
    13 opls_140     1   MOL    H8   13     0.042700      1.00800 ; qtot -0.440  HC  
    14 opls_140     1   MOL    H9   14     0.042700      1.00800 ; qtot -0.397  HC  
    15 opls_155     1   MOL   H10   15     0.397000      1.00800 ; qtot -0.000  HO  

[ bonds ]
;   ai     aj funct   r             k
     1      4   1 ;    1.5354e-01    1.9154e+05 ;     C1 - C4         CT - CT    
     1      6   1 ;    1.0962e-01    2.8891e+05 ;     C1 - H1         CT - HC    
     1      7   1 ;    1.0962e-01    2.8891e+05 ;     C1 - H2         CT - HC    
     1      8   1 ;    1.0962e-01    2.8891e+05 ;     C1 - H3         CT - HC    
     2      4   1 ;    1.5354e-01    1.9154e+05 ;     C2 - C4         CT - CT    
     2      9   1 ;    1.0962e-01    2.8891e+05 ;     C2 - H4         CT - HC    
     2     10   1 ;    1.0962e-01    2.8891e+05 ;     C2 - H5         CT - HC    
     2     11   1 ;    1.0962e-01    2.8891e+05 ;     C2 - H6         CT - HC    
     3      4   1 ;    1.5354e-01    1.9154e+05 ;     C3 - C4         CT - CT    
     3     12   1 ;    1.0962e-01    2.8891e+05 ;     C3 - H7         CT - HC    
     3     13   1 ;    1.0962e-01    2.8891e+05 ;     C3 - H8         CT - HC    
     3     14   1 ;    1.0962e-01    2.8891e+05 ;     C3 - H9         CT - HC    
     4      5   1 ;    1.4242e-01    2.3861e+05 ;     C4 - O1         CT - OH    
     5     15   1 ;    9.7250e-02    4.4811e+05 ;     O1 - H10        OH - HO    

[ pairs ]
;   ai     aj    funct
     1      9      1 ;     C1 - H4    
     1     10      1 ;     C1 - H5    
     1     11      1 ;     C1 - H6    
     1     12      1 ;     C1 - H7    
     1     13      1 ;     C1 - H8    
     1     14      1 ;     C1 - H9    
     1     15      1 ;     C1 - H10   
     2     12      1 ;     C2 - H7    
     2     13      1 ;     C2 - H8    
     2     14      1 ;     C2 - H9    
     2     15      1 ;     C2 - H10   
     3      9      1 ;     C3 - H4    
     3     10      1 ;     C3 - H5    
     3     11      1 ;     C3 - H6    
     3     15      1 ;     C3 - H10   
     5      9      1 ;     O1 - H4    
     5     10      1 ;     O1 - H5    
     5     11      1 ;     O1 - H6    
     5     12      1 ;     O1 - H7    
     5     13      1 ;     O1 - H8    
     5     14      1 ;     O1 - H9    
     6      2      1 ;     H1 - C2    
     6      3      1 ;     H1 - C3    
     6      5      1 ;     H1 - O1    
     7      2      1 ;     H2 - C2    
     7      3      1 ;     H2 - C3    
     7      5      1 ;     H2 - O1    
     8      2      1 ;     H3 - C2    
     8      3      1 ;     H3 - C3    
     8      5      1 ;     H3 - O1    

[ angles ]
;   ai     aj     ak    funct   theta         cth
     1      4      2      1 ;    1.1263e+02    5.0099e+02 ;     C1 - C4   - C2       CT -   CT - CT  
     1      4      3      1 ;    1.1263e+02    5.0099e+02 ;     C1 - C4   - C3       CT -   CT - CT  
     1      4      5      1 ;    1.0966e+02    6.4258e+02 ;     C1 - C4   - O1       CT -   CT - OH  
     2      4      3      1 ;    1.1263e+02    5.0099e+02 ;     C2 - C4   - C3       CT -   CT - CT  
     2      4      5      1 ;    1.0966e+02    6.4258e+02 ;     C2 - C4   - O1       CT -   CT - OH  
     3      4      5      1 ;    1.0966e+02    6.4258e+02 ;     C3 - C4   - O1       CT -   CT - OH  
     4      1      6      1 ;    1.0968e+02    3.6208e+02 ;     C4 - C1   - H1       CT -   CT - HC  
     4      1      7      1 ;    1.0968e+02    3.6208e+02 ;     C4 - C1   - H2       CT -   CT - HC  
     4      1      8      1 ;    1.0968e+02    3.6208e+02 ;     C4 - C1   - H3       CT -   CT - HC  
     4      2      9      1 ;    1.0968e+02    3.6208e+02 ;     C4 - C2   - H4       CT -   CT - HC  
     4      2     10      1 ;    1.0968e+02    3.6208e+02 ;     C4 - C2   - H5       CT -   CT - HC  
     4      2     11      1 ;    1.0968e+02    3.6208e+02 ;     C4 - C2   - H6       CT -   CT - HC  
     4      3     12      1 ;    1.0968e+02    3.6208e+02 ;     C4 - C3   - H7       CT -   CT - HC  
     4      3     13      1 ;    1.0968e+02    3.6208e+02 ;     C4 - C3   - H8       CT -   CT - HC  
     4      3     14      1 ;    1.0968e+02    3.6208e+02 ;     C4 - C3   - H9       CT -   CT - HC  
     4      5     15      1 ;    1.0739e+02    5.4501e+02 ;     C4 - O1   - H10      CT -   OH - HO  
     6      1      7      1 ;    1.0773e+02    2.9957e+02 ;     H1 - C1   - H2       HC -   CT - HC  
     6      1      8      1 ;    1.0773e+02    2.9957e+02 ;     H1 - C1   - H3       HC -   CT - HC  
     7      1      8      1 ;    1.0773e+02    2.9957e+02 ;     H2 - C1   - H3       HC -   CT - HC  
     9      2     10      1 ;    1.0773e+02    2.9957e+02 ;     H4 - C2   - H5       HC -   CT - HC  
     9      2     11      1 ;    1.0773e+02    2.9957e+02 ;     H4 - C2   - H6       HC -   CT - HC  
    10      2     11      1 ;    1.0773e+02    2.9957e+02 ;     H5 - C2   - H6       HC -   CT - HC  
    12      3     13      1 ;    1.0773e+02    2.9957e+02 ;     H7 - C3   - H8       HC -   CT - HC  
    12      3     14      1 ;    1.0773e+02    2.9957e+02 ;     H7 - C3   - H9       HC -   CT - HC  
    13      3     14      1 ;    1.0773e+02    2.9957e+02 ;     H8 - C3   - H9       HC -   CT - HC  

[ dihedrals ] ; propers
; for gromacs 4.5 or higher, using funct 9
;    i      j      k      l   func   phase     kd      pn
     1      4      2      9      9 ;     0.00   0.54392   3 ;     C1-    C4-    C2-    H4
     1      4      2     10      9 ;     0.00   0.54392   3 ;     C1-    C4-    C2-    H5
     1      4      2     11      9 ;     0.00   0.54392   3 ;     C1-    C4-    C2-    H6
     1      4      3     12      9 ;     0.00   0.54392   3 ;     C1-    C4-    C3-    H7
     1      4      3     13      9 ;     0.00   0.54392   3 ;     C1-    C4-    C3-    H8
     1      4      3     14      9 ;     0.00   0.54392   3 ;     C1-    C4-    C3-    H9
     1      4      5     15      9 ;     0.00   0.25104   3 ;     C1-    C4-    O1-   H10
     2      4      3     12      9 ;     0.00   0.54392   3 ;     C2-    C4-    C3-    H7
     2      4      3     13      9 ;     0.00   0.54392   3 ;     C2-    C4-    C3-    H8
     2      4      3     14      9 ;     0.00   0.54392   3 ;     C2-    C4-    C3-    H9
     2      4      5     15      9 ;     0.00   0.25104   3 ;     C2-    C4-    O1-   H10
     3      4      2      9      9 ;     0.00   0.54392   3 ;     C3-    C4-    C2-    H4
     3      4      2     10      9 ;     0.00   0.54392   3 ;     C3-    C4-    C2-    H5
     3      4      2     11      9 ;     0.00   0.54392   3 ;     C3-    C4-    C2-    H6
     3      4      5     15      9 ;     0.00   0.25104   3 ;     C3-    C4-    O1-   H10
     5      4      2      9      9 ;     0.00   0.37656   3 ;     O1-    C4-    C2-    H4
     5      4      2     10      9 ;     0.00   0.37656   3 ;     O1-    C4-    C2-    H5
     5      4      2     11      9 ;     0.00   0.37656   3 ;     O1-    C4-    C2-    H6
     5      4      3     12      9 ;     0.00   0.37656   3 ;     O1-    C4-    C3-    H7
     5      4      3     13      9 ;     0.00   0.37656   3 ;     O1-    C4-    C3-    H8
     5      4      3     14      9 ;     0.00   0.37656   3 ;     O1-    C4-    C3-    H9
     6      1      4      2      9 ;     0.00   0.54392   3 ;     H1-    C1-    C4-    C2
     6      1      4      3      9 ;     0.00   0.54392   3 ;     H1-    C1-    C4-    C3
     6      1      4      5      9 ;     0.00   0.37656   3 ;     H1-    C1-    C4-    O1
     7      1      4      2      9 ;     0.00   0.54392   3 ;     H2-    C1-    C4-    C2
     7      1      4      3      9 ;     0.00   0.54392   3 ;     H2-    C1-    C4-    C3
     7      1      4      5      9 ;     0.00   0.37656   3 ;     H2-    C1-    C4-    O1
     8      1      4      2      9 ;     0.00   0.54392   3 ;     H3-    C1-    C4-    C2
     8      1      4      3      9 ;     0.00   0.54392   3 ;     H3-    C1-    C4-    C3
     8      1      4      5      9 ;     0.00   0.37656   3 ;     H3-    C1-    C4-    O1
