; mobley_1650157_GMX_OPLS.top created by acpype (v: 2023.10.27) on Wed May 20 23:59:27 2026

; Include forcefield parameters
#include "ffoplsaa.itp"

; Include mobley_1650157_GMX.itp topology
#include "mobley_1650157_GMX.itp"

; Ligand position restraints
#ifdef POSRES_LIG
#include "posre_mobley_1650157.itp"
#endif

[ system ]
 mobley_1650157

[ molecules ]
; Compound        nmols
 mobley_1650157   1     
