mobley_2844990_GMX.gro created by acpype (v: 2023.10.27) on Wed May 20 23:56:26 2026
   22
    1MOL     C1    1   2.617   2.794   2.542
    1MOL     C2    2   2.746   2.826   2.500
    1MOL     C3    3   2.788   2.594   2.447
    1MOL     C4    4   2.450   2.270   2.518
    1MOL     C5    5   2.574   2.661   2.536
    1MOL     C6    6   2.659   2.561   2.489
    1MOL     C7    7   2.493   2.403   2.524
    1MOL     C8    8   2.408   2.502   2.571
    1MOL     C9    9   2.832   2.726   2.453
    1MOL    C10   10   2.321   2.238   2.560
    1MOL    C11   11   2.279   2.470   2.613
    1MOL    C12   12   2.236   2.337   2.608
    1MOL     O1   13   2.446   2.634   2.579
    1MOL     O2   14   2.621   2.430   2.482
    1MOL    CL1   15   2.991   2.767   2.401
    1MOL    CL2   16   2.274   2.071   2.550
    1MOL    CL3   17   2.175   2.596   2.672
    1MOL    CL4   18   2.075   2.295   2.660
    1MOL     H1   19   2.551   2.872   2.579
    1MOL     H2   20   2.779   2.930   2.505
    1MOL     H3   21   2.854   2.516   2.410
    1MOL     H4   22   2.518   2.193   2.481
   5.06251   5.06251   5.06251
