mobley_2609604_GMX.gro created by acpype (v: 2023.10.27) on Wed May 20 23:52:32 2026
   23
    1MOL     C1    1   2.474   2.390   2.232
    1MOL     C2    2   2.282   2.068   2.202
    1MOL     C3    3   2.251   2.373   2.444
    1MOL     C4    4   2.093   2.307   2.264
    1MOL     C5    5   2.325   2.378   2.202
    1MOL     C6    6   2.286   2.155   2.327
    1MOL     C7    7   2.241   2.302   2.308
    1MOL     H1    8   2.493   2.444   2.325
    1MOL     H2    9   2.524   2.446   2.151
    1MOL     H3   10   2.522   2.292   2.238
    1MOL     H4   11   2.315   1.966   2.227
    1MOL     H5   12   2.181   2.060   2.161
    1MOL     H6   13   2.350   2.106   2.124
    1MOL     H7   14   2.225   2.479   2.436
    1MOL     H8   15   2.352   2.367   2.486
    1MOL     H9   16   2.183   2.328   2.518
    1MOL    H10   17   2.079   2.265   2.164
    1MOL    H11   18   2.029   2.252   2.333
    1MOL    H12   19   2.057   2.411   2.261
    1MOL    H13   20   2.285   2.480   2.190
    1MOL    H14   21   2.314   2.330   2.104
    1MOL    H15   22   2.387   2.152   2.368
    1MOL    H16   23   2.222   2.107   2.403
   4.56195   4.56195   4.56195
