; mobley_9913368_GMX_OPLS.itp created by acpype (v: 2023.10.27) on Wed May 20 23:57:56 2026

; For OPLS atomtypes manual fine tuning
; AC_at:OPLS_at:OPLScode: Possible_Alternatives (see ffoplsaa.atp and ffoplsaanb.itp)
; c2:CR:opls_509: ['510']
; cl:x:opls_x: []
; h4:HA:opls_146: []

[ moleculetype ]
;name            nrexcl
 mobley_9913368   3

[ atoms ]
;   nr  type  resi  res  atom  cgnr     charge      mass       ; qtot   bond_type
     1 opls_509     1   MOL    C1    1    -0.070600     12.01100 ; qtot -0.071  CR  
     2 opls_509     1   MOL    C2    2    -0.070600     12.01100 ; qtot -0.141  CR  
     3 opls_x     1   MOL   CL1    3    -0.095400      0.00000 ; qtot -0.237  x   
     4 opls_x     1   MOL   CL2    4    -0.095400      0.00000 ; qtot -0.332  x   
     5 opls_146     1   MOL    H1    5     0.166000      1.00800 ; qtot -0.166  HA  
     6 opls_146     1   MOL    H2    6     0.166000      1.00800 ; qtot  0.000  HA  

[ bonds ]
;   ai     aj funct   r             k
     1      2   1 ;    1.3379e-01    3.6484e+05 ;     C1 - C2         CR - CR    
     1      3   1 ;    1.7415e-01    1.6405e+05 ;     C1 - CL1        CR - x     
     1      5   1 ;    1.0865e-01    3.0117e+05 ;     C1 - H1         CR - HA    
     2      4   1 ;    1.7415e-01    1.6405e+05 ;     C2 - CL2        CR - x     
     2      6   1 ;    1.0865e-01    3.0117e+05 ;     C2 - H2         CR - HA    

[ pairs ]
;   ai     aj    funct
     3      4      1 ;    CL1 - CL2   
     3      6      1 ;    CL1 - H2    
     5      4      1 ;     H1 - CL2   
     5      6      1 ;     H1 - H2    

[ angles ]
;   ai     aj     ak    funct   theta         cth
     1      2      4      1 ;    1.2318e+02    5.3622e+02 ;     C1 - C2   - CL2      CR -   CR - x   
     1      2      6      1 ;    1.2272e+02    3.8451e+02 ;     C1 - C2   - H2       CR -   CR - HA  
     2      1      3      1 ;    1.2318e+02    5.3622e+02 ;     C2 - C1   - CL1      CR -   CR - x   
     2      1      5      1 ;    1.2272e+02    3.8451e+02 ;     C2 - C1   - H1       CR -   CR - HA  
     3      1      5      1 ;    1.1346e+02    3.6543e+02 ;    CL1 - C1   - H1        x -   CR - HA  
     4      2      6      1 ;    1.1346e+02    3.6543e+02 ;    CL2 - C2   - H2        x -   CR - HA  

[ dihedrals ] ; propers
; for gromacs 4.5 or higher, using funct 9
;    i      j      k      l   func   phase     kd      pn
     3      1      2      4      9 ;   180.00  27.82360   2 ;    CL1-    C1-    C2-   CL2
     3      1      2      6      9 ;   180.00  27.82360   2 ;    CL1-    C1-    C2-    H2
     5      1      2      4      9 ;   180.00  27.82360   2 ;     H1-    C1-    C2-   CL2
     5      1      2      6      9 ;   180.00  27.82360   2 ;     H1-    C1-    C2-    H2

[ dihedrals ] ; impropers
; treated as propers in GROMACS to use correct AMBER analytical function
;    i      j      k      l   func   phase     kd      pn
     1      4      2      6      4 ;   180.00   4.60240   2 ;     C1-   CL2-    C2-    H2
     5      1      3      2      4 ;   180.00   4.60240   2 ;     H1-    C1-   CL1-    C2
