mobley_2864987_GMX.gro created by acpype (v: 2023.10.27) on Wed May 20 23:43:05 2026
 18
    1  MOL   C1    1  -0.036   0.078  -0.078
    1  MOL   C2    2  -0.075  -0.279  -0.433
    1  MOL   C3    3   0.012   0.032  -0.214
    1  MOL   C4    4  -0.052  -0.102  -0.254
    1  MOL   C5    5  -0.008  -0.148  -0.393
    1  MOL   O1    6  -0.040  -0.049  -0.490
    1  MOL   H1    7   0.011   0.174  -0.052
    1  MOL   H2    8  -0.011   0.005  -0.000
    1  MOL   H3    9  -0.145   0.093  -0.077
    1  MOL   H4   10  -0.184  -0.267  -0.436
    1  MOL   H5   11  -0.044  -0.309  -0.533
    1  MOL   H6   12  -0.051  -0.359  -0.362
    1  MOL   H7   13  -0.012   0.108  -0.289
    1  MOL   H8   14   0.121   0.021  -0.212
    1  MOL   H9   15  -0.026  -0.178  -0.179
    1  MOL  H10   16  -0.161  -0.090  -0.252
    1  MOL  H11   17   0.101  -0.162  -0.395
    1  MOL  H12   18   0.014  -0.069  -0.568
    6.10600    10.65000    11.36200
