; mobley_2864987_GMX_OPLS.itp created by acpype (v: 2023.10.27) on Wed May 20 23:43:05 2026

; For OPLS atomtypes manual fine tuning
; AC_at:OPLS_at:OPLScode: Possible_Alternatives (see ffoplsaa.atp and ffoplsaanb.itp)
; c3:CT:opls_135: ['136', '137', '149', '157', '158', '206', '209', '210', '223B', '224B', '245', '246', '274', '283', '284', '285', '292', '292B', '293B', '296', '307', '308', '505']
; oh:OH:opls_154: ['167']
; hc:HC:opls_140: []
; h1:HC:opls_140: []
; ho:HO:opls_155: ['168']

[ moleculetype ]
;name            nrexcl
 mobley_2864987   3

[ atoms ]
;   nr  type  resi  res  atom  cgnr     charge      mass       ; qtot   bond_type
     1 opls_135     1   MOL    C1    1    -0.092100     12.01100 ; qtot -0.092  CT  
     2 opls_135     1   MOL    C2    2    -0.131100     12.01100 ; qtot -0.223  CT  
     3 opls_135     1   MOL    C3    3    -0.080400     12.01100 ; qtot -0.304  CT  
     4 opls_135     1   MOL    C4    4    -0.073400     12.01100 ; qtot -0.377  CT  
     5 opls_135     1   MOL    C5    5     0.138100     12.01100 ; qtot -0.239  CT  
     6 opls_154     1   MOL    O1    6    -0.599799     15.99940 ; qtot -0.839  OH  
     7 opls_140     1   MOL    H1    7     0.031700      1.00800 ; qtot -0.807  HC  
     8 opls_140     1   MOL    H2    8     0.031700      1.00800 ; qtot -0.775  HC  
     9 opls_140     1   MOL    H3    9     0.031700      1.00800 ; qtot -0.744  HC  
    10 opls_140     1   MOL    H4   10     0.042033      1.00800 ; qtot -0.702  HC  
    11 opls_140     1   MOL    H5   11     0.042033      1.00800 ; qtot -0.660  HC  
    12 opls_140     1   MOL    H6   12     0.042033      1.00800 ; qtot -0.618  HC  
    13 opls_140     1   MOL    H7   13     0.045700      1.00800 ; qtot -0.572  HC  
    14 opls_140     1   MOL    H8   14     0.045700      1.00800 ; qtot -0.526  HC  
    15 opls_140     1   MOL    H9   15     0.049200      1.00800 ; qtot -0.477  HC  
    16 opls_140     1   MOL   H10   16     0.049200      1.00800 ; qtot -0.428  HC  
    17 opls_140     1   MOL   H11   17     0.030700      1.00800 ; qtot -0.397  HC  
    18 opls_155     1   MOL   H12   18     0.397000      1.00800 ; qtot -0.000  HO  

[ bonds ]
;   ai     aj funct   r             k
     1      3   1 ;    1.5354e-01    1.9154e+05 ;     C1 - C3         CT - CT    
     1      7   1 ;    1.0962e-01    2.8891e+05 ;     C1 - H1         CT - HC    
     1      8   1 ;    1.0962e-01    2.8891e+05 ;     C1 - H2         CT - HC    
     1      9   1 ;    1.0962e-01    2.8891e+05 ;     C1 - H3         CT - HC    
     2      5   1 ;    1.5354e-01    1.9154e+05 ;     C2 - C5         CT - CT    
     2     10   1 ;    1.0962e-01    2.8891e+05 ;     C2 - H4         CT - HC    
     2     11   1 ;    1.0962e-01    2.8891e+05 ;     C2 - H5         CT - HC    
     2     12   1 ;    1.0962e-01    2.8891e+05 ;     C2 - H6         CT - HC    
     3      4   1 ;    1.5354e-01    1.9154e+05 ;     C3 - C4         CT - CT    
     3     13   1 ;    1.0962e-01    2.8891e+05 ;     C3 - H7         CT - HC    
     3     14   1 ;    1.0962e-01    2.8891e+05 ;     C3 - H8         CT - HC    
     4      5   1 ;    1.5354e-01    1.9154e+05 ;     C4 - C5         CT - CT    
     4     15   1 ;    1.0962e-01    2.8891e+05 ;     C4 - H9         CT - HC    
     4     16   1 ;    1.0962e-01    2.8891e+05 ;     C4 - H10        CT - HC    
     5      6   1 ;    1.4242e-01    2.3861e+05 ;     C5 - O1         CT - OH    
     5     17   1 ;    1.0969e-01    2.8804e+05 ;     C5 - H11        CT - HC    
     6     18   1 ;    9.7250e-02    4.4811e+05 ;     O1 - H12        OH - HO    

[ pairs ]
;   ai     aj    funct
     1      5      1 ;     C1 - C5    
     1     15      1 ;     C1 - H9    
     1     16      1 ;     C1 - H10   
     2      3      1 ;     C2 - C3    
     2     15      1 ;     C2 - H9    
     2     16      1 ;     C2 - H10   
     2     18      1 ;     C2 - H12   
     3      6      1 ;     C3 - O1    
     3     17      1 ;     C3 - H11   
     4     10      1 ;     C4 - H4    
     4     11      1 ;     C4 - H5    
     4     12      1 ;     C4 - H6    
     4     18      1 ;     C4 - H12   
     5     13      1 ;     C5 - H7    
     5     14      1 ;     C5 - H8    
     6     10      1 ;     O1 - H4    
     6     11      1 ;     O1 - H5    
     6     12      1 ;     O1 - H6    
     6     15      1 ;     O1 - H9    
     6     16      1 ;     O1 - H10   
     7      4      1 ;     H1 - C4    
     7     13      1 ;     H1 - H7    
     7     14      1 ;     H1 - H8    
     8      4      1 ;     H2 - C4    
     8     13      1 ;     H2 - H7    
     8     14      1 ;     H2 - H8    
     9      4      1 ;     H3 - C4    
     9     13      1 ;     H3 - H7    
     9     14      1 ;     H3 - H8    
    10     17      1 ;     H4 - H11   
    11     17      1 ;     H5 - H11   
    12     17      1 ;     H6 - H11   
    13     15      1 ;     H7 - H9    
    13     16      1 ;     H7 - H10   
    14     15      1 ;     H8 - H9    
    14     16      1 ;     H8 - H10   
    15     17      1 ;     H9 - H11   
    16     17      1 ;    H10 - H11   
    17     18      1 ;    H11 - H12   

[ angles ]
;   ai     aj     ak    funct   theta         cth
     1      3      4      1 ;    1.1263e+02    5.0099e+02 ;     C1 - C3   - C4       CT -   CT - CT  
     1      3     13      1 ;    1.0968e+02    3.6208e+02 ;     C1 - C3   - H7       CT -   CT - HC  
     1      3     14      1 ;    1.0968e+02    3.6208e+02 ;     C1 - C3   - H8       CT -   CT - HC  
     2      5      4      1 ;    1.1263e+02    5.0099e+02 ;     C2 - C5   - C4       CT -   CT - CT  
     2      5      6      1 ;    1.0966e+02    6.4258e+02 ;     C2 - C5   - O1       CT -   CT - OH  
     2      5     17      1 ;    1.0959e+02    3.6217e+02 ;     C2 - C5   - H11      CT -   CT - HC  
     3      1      7      1 ;    1.0968e+02    3.6208e+02 ;     C3 - C1   - H1       CT -   CT - HC  
     3      1      8      1 ;    1.0968e+02    3.6208e+02 ;     C3 - C1   - H2       CT -   CT - HC  
     3      1      9      1 ;    1.0968e+02    3.6208e+02 ;     C3 - C1   - H3       CT -   CT - HC  
     3      4      5      1 ;    1.1263e+02    5.0099e+02 ;     C3 - C4   - C5       CT -   CT - CT  
     3      4     15      1 ;    1.0968e+02    3.6208e+02 ;     C3 - C4   - H9       CT -   CT - HC  
     3      4     16      1 ;    1.0968e+02    3.6208e+02 ;     C3 - C4   - H10      CT -   CT - HC  
     4      3     13      1 ;    1.0968e+02    3.6208e+02 ;     C4 - C3   - H7       CT -   CT - HC  
     4      3     14      1 ;    1.0968e+02    3.6208e+02 ;     C4 - C3   - H8       CT -   CT - HC  
     4      5      6      1 ;    1.0966e+02    6.4258e+02 ;     C4 - C5   - O1       CT -   CT - OH  
     4      5     17      1 ;    1.0959e+02    3.6217e+02 ;     C4 - C5   - H11      CT -   CT - HC  
     5      2     10      1 ;    1.0968e+02    3.6208e+02 ;     C5 - C2   - H4       CT -   CT - HC  
     5      2     11      1 ;    1.0968e+02    3.6208e+02 ;     C5 - C2   - H5       CT -   CT - HC  
     5      2     12      1 ;    1.0968e+02    3.6208e+02 ;     C5 - C2   - H6       CT -   CT - HC  
     5      4     15      1 ;    1.0968e+02    3.6208e+02 ;     C5 - C4   - H9       CT -   CT - HC  
     5      4     16      1 ;    1.0968e+02    3.6208e+02 ;     C5 - C4   - H10      CT -   CT - HC  
     5      6     18      1 ;    1.0739e+02    5.4501e+02 ;     C5 - O1   - H12      CT -   OH - HO  
     6      5     17      1 ;    1.1038e+02    4.7103e+02 ;     O1 - C5   - H11      OH -   CT - HC  
     7      1      8      1 ;    1.0773e+02    2.9957e+02 ;     H1 - C1   - H2       HC -   CT - HC  
     7      1      9      1 ;    1.0773e+02    2.9957e+02 ;     H1 - C1   - H3       HC -   CT - HC  
     8      1      9      1 ;    1.0773e+02    2.9957e+02 ;     H2 - C1   - H3       HC -   CT - HC  
    10      2     11      1 ;    1.0773e+02    2.9957e+02 ;     H4 - C2   - H5       HC -   CT - HC  
    10      2     12      1 ;    1.0773e+02    2.9957e+02 ;     H4 - C2   - H6       HC -   CT - HC  
    11      2     12      1 ;    1.0773e+02    2.9957e+02 ;     H5 - C2   - H6       HC -   CT - HC  
    13      3     14      1 ;    1.0773e+02    2.9957e+02 ;     H7 - C3   - H8       HC -   CT - HC  
    15      4     16      1 ;    1.0773e+02    2.9957e+02 ;     H9 - C4   - H10      HC -   CT - HC  

[ dihedrals ] ; propers
; for gromacs 4.5 or higher, using funct 9
;    i      j      k      l   func   phase     kd      pn
     1      3      4      5      9 ;     0.00   2.17568   3 ;     C1-    C3-    C4-    C5
     1      3      4     15      9 ;     0.00   0.54392   3 ;     C1-    C3-    C4-    H9
     1      3      4     16      9 ;     0.00   0.54392   3 ;     C1-    C3-    C4-   H10
     2      5      4      3      9 ;     0.00   2.17568   3 ;     C2-    C5-    C4-    C3
     2      5      4     15      9 ;     0.00   0.54392   3 ;     C2-    C5-    C4-    H9
     2      5      4     16      9 ;     0.00   0.54392   3 ;     C2-    C5-    C4-   H10
     2      5      6     18      9 ;     0.00   0.25104   3 ;     C2-    C5-    O1-   H12
     3      4      5      6      9 ;     0.00   0.75312   3 ;     C3-    C4-    C5-    O1
     3      4      5     17      9 ;     0.00   0.65084   3 ;     C3-    C4-    C5-   H11
     4      5      2     10      9 ;     0.00   0.54392   3 ;     C4-    C5-    C2-    H4
     4      5      2     11      9 ;     0.00   0.54392   3 ;     C4-    C5-    C2-    H5
     4      5      2     12      9 ;     0.00   0.54392   3 ;     C4-    C5-    C2-    H6
     4      5      6     18      9 ;     0.00   0.25104   3 ;     C4-    C5-    O1-   H12
     5      4      3     13      9 ;     0.00   0.54392   3 ;     C5-    C4-    C3-    H7
     5      4      3     14      9 ;     0.00   0.54392   3 ;     C5-    C4-    C3-    H8
     6      5      2     10      9 ;     0.00   0.37656   3 ;     O1-    C5-    C2-    H4
     6      5      2     11      9 ;     0.00   0.37656   3 ;     O1-    C5-    C2-    H5
     6      5      2     12      9 ;     0.00   0.37656   3 ;     O1-    C5-    C2-    H6
     6      5      4     15      9 ;     0.00   0.37656   3 ;     O1-    C5-    C4-    H9
     6      5      4     16      9 ;     0.00   0.37656   3 ;     O1-    C5-    C4-   H10
     7      1      3      4      9 ;     0.00   0.54392   3 ;     H1-    C1-    C3-    C4
     7      1      3     13      9 ;     0.00   0.50208   3 ;     H1-    C1-    C3-    H7
     7      1      3     14      9 ;     0.00   0.50208   3 ;     H1-    C1-    C3-    H8
     8      1      3      4      9 ;     0.00   0.54392   3 ;     H2-    C1-    C3-    C4
     8      1      3     13      9 ;     0.00   0.50208   3 ;     H2-    C1-    C3-    H7
     8      1      3     14      9 ;     0.00   0.50208   3 ;     H2-    C1-    C3-    H8
     9      1      3      4      9 ;     0.00   0.54392   3 ;     H3-    C1-    C3-    C4
     9      1      3     13      9 ;     0.00   0.50208   3 ;     H3-    C1-    C3-    H7
     9      1      3     14      9 ;     0.00   0.50208   3 ;     H3-    C1-    C3-    H8
    10      2      5     17      9 ;     0.00   0.65084   3 ;     H4-    C2-    C5-   H11
    11      2      5     17      9 ;     0.00   0.65084   3 ;     H5-    C2-    C5-   H11
    12      2      5     17      9 ;     0.00   0.65084   3 ;     H6-    C2-    C5-   H11
    13      3      4     15      9 ;     0.00   0.50208   3 ;     H7-    C3-    C4-    H9
    13      3      4     16      9 ;     0.00   0.50208   3 ;     H7-    C3-    C4-   H10
    14      3      4     15      9 ;     0.00   0.50208   3 ;     H8-    C3-    C4-    H9
    14      3      4     16      9 ;     0.00   0.50208   3 ;     H8-    C3-    C4-   H10
    15      4      5     17      9 ;     0.00   0.65084   3 ;     H9-    C4-    C5-   H11
    16      4      5     17      9 ;     0.00   0.65084   3 ;    H10-    C4-    C5-   H11
    17      5      6     18      9 ;     0.00   0.51463   3 ;    H11-    C5-    O1-   H12
