; mobley_2864987_GMX_OPLS.top created by acpype (v: 2023.10.27) on Wed May 20 23:43:05 2026

; Include forcefield parameters
#include "ffoplsaa.itp"

; Include mobley_2864987_GMX.itp topology
#include "mobley_2864987_GMX.itp"

; Ligand position restraints
#ifdef POSRES_LIG
#include "posre_mobley_2864987.itp"
#endif

[ system ]
 mobley_2864987

[ molecules ]
; Compound        nmols
 mobley_2864987   1     
