pentan_2_ol
    18
  -0.3630000   0.7820000  -0.7780000  -0.7530000  -2.7860000  -4.3250000
   0.1200000   0.3160000  -2.1430000  -0.5210000  -1.0170000  -2.5370000
  -0.0770000  -1.4810000  -3.9280000  -0.3950000  -0.4880000  -4.9000000
   0.1060000   1.7350000  -0.5150000  -0.1100000   0.0530000  -0.0020000
  -1.4480000   0.9260000  -0.7740000  -1.8420000  -2.6710000  -4.3580000
  -0.4380000  -3.0890000  -5.3290000  -0.5060000  -3.5900000  -3.6240000
  -0.1180000   1.0850000  -2.8860000   1.2110000   0.2120000  -2.1200000
  -0.2590000  -1.7820000  -1.7950000  -1.6120000  -0.9000000  -2.5180000
   1.0100000  -1.6200000  -3.9460000   0.1420000  -0.6860000  -5.6830000
