; mobley_2493732_GMX_OPLS.top created by acpype (v: 2023.10.27) on Wed May 20 23:56:35 2026

; Include forcefield parameters
#include "ffoplsaa.itp"

; Include mobley_2493732_GMX.itp topology
#include "mobley_2493732_GMX.itp"

; Ligand position restraints
#ifdef POSRES_LIG
#include "posre_mobley_2493732.itp"
#endif

[ system ]
 mobley_2493732

[ molecules ]
; Compound        nmols
 mobley_2493732   1     
