mobley_2493732_GMX.gro created by acpype (v: 2023.10.27) on Wed May 20 23:56:35 2026
 6
    1  MOL   C1    1  -0.055  -0.026  -0.090
    1  MOL   C2    2  -0.094  -0.152  -0.114
    1  MOL  CL1    3  -0.058  -0.278  -0.002
    1  MOL  CL2    4  -0.180  -0.192  -0.257
    1  MOL   H1    5  -0.076   0.054  -0.160
    1  MOL   H2    6   0.000   0.000   0.000
    3.61000     6.64400     5.14400
