; mobley_900088_GMX_OPLS.top created by acpype (v: 2023.10.27) on Wed May 20 23:41:40 2026

; Include forcefield parameters
#include "ffoplsaa.itp"

; Include mobley_900088_GMX.itp topology
#include "mobley_900088_GMX.itp"

; Ligand position restraints
#ifdef POSRES_LIG
#include "posre_mobley_900088.itp"
#endif

[ system ]
 mobley_900088

[ molecules ]
; Compound        nmols
 mobley_900088    1     
