23_dimethylbuta_13_diene
    16
   0.6210000  -0.4100000  -0.7910000  -0.8310000  -3.7980000  -1.2030000
   0.4220000  -1.6580000  -1.2550000  -0.6320000  -2.5510000  -0.7390000
   1.3220000  -2.1640000  -2.3570000  -1.5340000  -2.0440000   0.3610000
   1.3950000   0.2470000  -1.1700000   0.0000000   0.0000000   0.0000000
  -1.6190000  -4.4280000  -0.7990000  -0.2320000  -4.2420000  -1.9900000
   2.0670000  -1.4180000  -2.6590000   0.7400000  -2.4120000  -3.2510000
   1.8750000  -3.0520000  -2.0310000  -2.0880000  -1.1580000   0.0330000
  -2.2780000  -2.7900000   0.6640000  -0.9530000  -1.7930000   1.2550000
