mobley_900088_GMX.gro created by acpype (v: 2023.10.27) on Wed May 20 23:41:40 2026
 16
    1  MOL   C1    1   0.062  -0.041  -0.079
    1  MOL   C2    2  -0.083  -0.380  -0.120
    1  MOL   C3    3   0.042  -0.166  -0.126
    1  MOL   C4    4  -0.063  -0.255  -0.074
    1  MOL   C5    5   0.132  -0.216  -0.236
    1  MOL   C6    6  -0.153  -0.204   0.036
    1  MOL   H1    7   0.140   0.025  -0.117
    1  MOL   H2    8   0.000   0.000   0.000
    1  MOL   H3    9  -0.162  -0.443  -0.080
    1  MOL   H4   10  -0.023  -0.424  -0.199
    1  MOL   H5   11   0.207  -0.142  -0.266
    1  MOL   H6   12   0.074  -0.241  -0.325
    1  MOL   H7   13   0.188  -0.305  -0.203
    1  MOL   H8   14  -0.209  -0.116   0.003
    1  MOL   H9   15  -0.228  -0.279   0.066
    1  MOL  H10   16  -0.095  -0.179   0.126
    8.69000     9.35000     9.01200
