; mobley_900088_GMX.top created by acpype (v: 2023.10.27) on Wed May 20 23:41:40 2026

[ defaults ]
; nbfunc        comb-rule       gen-pairs       fudgeLJ fudgeQQ
1               2               yes             0.5     0.8333333333

; Include mobley_900088_GMX.itp topology
#include "mobley_900088_GMX.itp"

; Ligand position restraints
#ifdef POSRES_LIG
#include "posre_mobley_900088.itp"
#endif

[ system ]
mobley_900088 in water

[ molecules ]
; Compound        nmols
 mobley_900088    1     
SOL              3117
