mobley_2126135_GMX.gro created by acpype (v: 2023.10.27) on Thu May 21 00:01:20 2026
 19
    1  MOL   C1    1   0.237  -0.130  -0.034
    1  MOL   C2    2   0.329  -0.196   0.049
    1  MOL   C3    3   0.132  -0.057   0.023
    1  MOL   C4    4   0.316  -0.188   0.187
    1  MOL   C5    5   0.120  -0.049   0.162
    1  MOL   C6    6   0.212  -0.114   0.244
    1  MOL   C7    7  -0.105  -0.059   0.272
    1  MOL   C8    8   0.007   0.030   0.220
    1  MOL   O1    9   0.201  -0.108   0.380
    1  MOL   H1   10   0.246  -0.136  -0.142
    1  MOL   H2   11   0.410  -0.253   0.004
    1  MOL   H3   12   0.061  -0.007  -0.042
    1  MOL   H4   13   0.388  -0.239   0.251
    1  MOL   H5   14  -0.144  -0.124   0.192
    1  MOL   H6   15  -0.188   0.001   0.310
    1  MOL   H7   16  -0.070  -0.124   0.353
    1  MOL   H8   17   0.044   0.093   0.303
    1  MOL   H9   18  -0.033   0.100   0.146
    1  MOL  H10   19   0.272  -0.159   0.421
   11.95800     7.05000    11.25800
