; mobley_2126135_GMX_OPLS.top created by acpype (v: 2023.10.27) on Thu May 21 00:01:20 2026

; Include forcefield parameters
#include "ffoplsaa.itp"

; Include mobley_2126135_GMX.itp topology
#include "mobley_2126135_GMX.itp"

; Ligand position restraints
#ifdef POSRES_LIG
#include "posre_mobley_2126135.itp"
#endif

[ system ]
 mobley_2126135

[ molecules ]
; Compound        nmols
 mobley_2126135   1     
