SAMPL4_036
    19
   2.3660000  -1.3020000  -0.3360000   3.2850000  -1.9550000   0.4850000
   1.3230000  -0.5690000   0.2300000   3.1600000  -1.8760000   1.8730000
   1.1970000  -0.4900000   1.6170000   2.1160000  -1.1440000   2.4380000
  -1.0530000  -0.5950000   2.7170000   0.0740000   0.2970000   2.2040000
   2.0070000  -1.0780000   3.7950000   2.4630000  -1.3630000  -1.4160000
   4.0970000  -2.5260000   0.0450000   0.6110000  -0.0650000  -0.4190000
   3.8780000  -2.3870000   2.5070000  -1.4410000  -1.2360000   1.9180000
  -1.8820000   0.0100000   3.0980000  -0.7040000  -1.2420000   3.5280000
   0.4390000   0.9270000   3.0300000  -0.3320000   0.9990000   1.4590000
   2.7210000  -1.5850000   4.2130000
