; mobley_1199854_GMX_OPLS.itp created by acpype (v: 2023.10.27) on Wed May 20 23:46:01 2026

; For OPLS atomtypes manual fine tuning
; AC_at:OPLS_at:OPLScode: Possible_Alternatives (see ffoplsaa.atp and ffoplsaanb.itp)
; c3:CT:opls_135: ['136', '137', '149', '157', '158', '206', '209', '210', '223B', '224B', '245', '246', '274', '283', '284', '285', '292', '292B', '293B', '296', '307', '308', '505']
; i:x:opls_x: []
; hc:HC:opls_140: []
; h1:HC:opls_140: []

[ moleculetype ]
;name            nrexcl
 mobley_1199854   3

[ atoms ]
;   nr  type  resi  res  atom  cgnr     charge      mass       ; qtot   bond_type
     1 opls_135     1   MOL    C1    1    -0.095100     12.01100 ; qtot -0.095  CT  
     2 opls_135     1   MOL    C2    2    -0.076400     12.01100 ; qtot -0.171  CT  
     3 opls_135     1   MOL    C3    3     0.068500     12.01100 ; qtot -0.103  CT  
     4 opls_x     1   MOL    I1    4    -0.256899      0.00000 ; qtot -0.360  x   
     5 opls_140     1   MOL    H1    5     0.037033      1.00800 ; qtot -0.323  HC  
     6 opls_140     1   MOL    H2    6     0.037033      1.00800 ; qtot -0.286  HC  
     7 opls_140     1   MOL    H3    7     0.037033      1.00800 ; qtot -0.249  HC  
     8 opls_140     1   MOL    H4    8     0.052700      1.00800 ; qtot -0.196  HC  
     9 opls_140     1   MOL    H5    9     0.052700      1.00800 ; qtot -0.143  HC  
    10 opls_140     1   MOL    H6   10     0.071700      1.00800 ; qtot -0.072  HC  
    11 opls_140     1   MOL    H7   11     0.071700      1.00800 ; qtot  0.000  HC  

[ bonds ]
;   ai     aj funct   r             k
     1      2   1 ;    1.5354e-01    1.9154e+05 ;     C1 - C2         CT - CT    
     1      5   1 ;    1.0962e-01    2.8891e+05 ;     C1 - H1         CT - HC    
     1      6   1 ;    1.0962e-01    2.8891e+05 ;     C1 - H2         CT - HC    
     1      7   1 ;    1.0962e-01    2.8891e+05 ;     C1 - H3         CT - HC    
     2      3   1 ;    1.5354e-01    1.9154e+05 ;     C2 - C3         CT - CT    
     2      8   1 ;    1.0962e-01    2.8891e+05 ;     C2 - H4         CT - HC    
     2      9   1 ;    1.0962e-01    2.8891e+05 ;     C2 - H5         CT - HC    
     3      4   1 ;    2.2260e-01    7.7295e+04 ;     C3 - I1         CT - x     
     3     10   1 ;    1.0969e-01    2.8804e+05 ;     C3 - H6         CT - HC    
     3     11   1 ;    1.0969e-01    2.8804e+05 ;     C3 - H7         CT - HC    

[ pairs ]
;   ai     aj    funct
     1      4      1 ;     C1 - I1    
     1     10      1 ;     C1 - H6    
     1     11      1 ;     C1 - H7    
     4      8      1 ;     I1 - H4    
     4      9      1 ;     I1 - H5    
     5      3      1 ;     H1 - C3    
     5      8      1 ;     H1 - H4    
     5      9      1 ;     H1 - H5    
     6      3      1 ;     H2 - C3    
     6      8      1 ;     H2 - H4    
     6      9      1 ;     H2 - H5    
     7      3      1 ;     H3 - C3    
     7      8      1 ;     H3 - H4    
     7      9      1 ;     H3 - H5    
     8     10      1 ;     H4 - H6    
     8     11      1 ;     H4 - H7    
     9     10      1 ;     H5 - H6    
     9     11      1 ;     H5 - H7    

[ angles ]
;   ai     aj     ak    funct   theta         cth
     1      2      3      1 ;    1.1263e+02    5.0099e+02 ;     C1 - C2   - C3       CT -   CT - CT  
     1      2      8      1 ;    1.0968e+02    3.6208e+02 ;     C1 - C2   - H4       CT -   CT - HC  
     1      2      9      1 ;    1.0968e+02    3.6208e+02 ;     C1 - C2   - H5       CT -   CT - HC  
     2      1      5      1 ;    1.0968e+02    3.6208e+02 ;     C2 - C1   - H1       CT -   CT - HC  
     2      1      6      1 ;    1.0968e+02    3.6208e+02 ;     C2 - C1   - H2       CT -   CT - HC  
     2      1      7      1 ;    1.0968e+02    3.6208e+02 ;     C2 - C1   - H3       CT -   CT - HC  
     2      3      4      1 ;    1.1144e+02    4.8785e+02 ;     C2 - C3   - I1       CT -   CT - x   
     2      3     10      1 ;    1.0959e+02    3.6217e+02 ;     C2 - C3   - H6       CT -   CT - HC  
     2      3     11      1 ;    1.0959e+02    3.6217e+02 ;     C2 - C3   - H7       CT -   CT - HC  
     3      2      8      1 ;    1.0968e+02    3.6208e+02 ;     C3 - C2   - H4       CT -   CT - HC  
     3      2      9      1 ;    1.0968e+02    3.6208e+02 ;     C3 - C2   - H5       CT -   CT - HC  
     4      3     10      1 ;    1.0437e+02    3.1313e+02 ;     I1 - C3   - H6        x -   CT - HC  
     4      3     11      1 ;    1.0437e+02    3.1313e+02 ;     I1 - C3   - H7        x -   CT - HC  
     5      1      6      1 ;    1.0773e+02    2.9957e+02 ;     H1 - C1   - H2       HC -   CT - HC  
     5      1      7      1 ;    1.0773e+02    2.9957e+02 ;     H1 - C1   - H3       HC -   CT - HC  
     6      1      7      1 ;    1.0773e+02    2.9957e+02 ;     H2 - C1   - H3       HC -   CT - HC  
     8      2      9      1 ;    1.0773e+02    2.9957e+02 ;     H4 - C2   - H5       HC -   CT - HC  
    10      3     11      1 ;    1.0855e+02    2.9824e+02 ;     H6 - C3   - H7       HC -   CT - HC  

[ dihedrals ] ; propers
; for gromacs 4.5 or higher, using funct 9
;    i      j      k      l   func   phase     kd      pn
     1      2      3      4      9 ;     0.00   0.65084   3 ;     C1-    C2-    C3-    I1
     1      2      3     10      9 ;     0.00   0.65084   3 ;     C1-    C2-    C3-    H6
     1      2      3     11      9 ;     0.00   0.65084   3 ;     C1-    C2-    C3-    H7
     4      3      2      8      9 ;     0.00   0.96232   3 ;     I1-    C3-    C2-    H4
     4      3      2      9      9 ;     0.00   0.96232   3 ;     I1-    C3-    C2-    H5
     5      1      2      3      9 ;     0.00   0.54392   3 ;     H1-    C1-    C2-    C3
     5      1      2      8      9 ;     0.00   0.50208   3 ;     H1-    C1-    C2-    H4
     5      1      2      9      9 ;     0.00   0.50208   3 ;     H1-    C1-    C2-    H5
     6      1      2      3      9 ;     0.00   0.54392   3 ;     H2-    C1-    C2-    C3
     6      1      2      8      9 ;     0.00   0.50208   3 ;     H2-    C1-    C2-    H4
     6      1      2      9      9 ;     0.00   0.50208   3 ;     H2-    C1-    C2-    H5
     7      1      2      3      9 ;     0.00   0.54392   3 ;     H3-    C1-    C2-    C3
     7      1      2      8      9 ;     0.00   0.50208   3 ;     H3-    C1-    C2-    H4
     7      1      2      9      9 ;     0.00   0.50208   3 ;     H3-    C1-    C2-    H5
     8      2      3     10      9 ;     0.00   0.65084   3 ;     H4-    C2-    C3-    H6
     8      2      3     11      9 ;     0.00   0.65084   3 ;     H4-    C2-    C3-    H7
     9      2      3     10      9 ;     0.00   0.65084   3 ;     H5-    C2-    C3-    H6
     9      2      3     11      9 ;     0.00   0.65084   3 ;     H5-    C2-    C3-    H7
