mobley_1199854_GMX.gro created by acpype (v: 2023.10.27) on Wed May 20 23:46:01 2026
 11
    1  MOL   C1    1  -0.051  -0.055   0.080
    1  MOL   C2    2   0.030  -0.052   0.208
    1  MOL   C3    3   0.168  -0.116   0.189
    1  MOL   I1    4   0.279  -0.114   0.371
    1  MOL   H1    5  -0.149  -0.009   0.096
    1  MOL   H2    6   0.000   0.000   0.000
    1  MOL   H3    7  -0.067  -0.158   0.046
    1  MOL   H4    8  -0.025  -0.105   0.287
    1  MOL   H5    9   0.042   0.052   0.241
    1  MOL   H6   10   0.224  -0.062   0.111
    1  MOL   H7   11   0.156  -0.220   0.154
    8.55200     5.43400     7.42400
