; mobley_1199854_GMX_OPLS.top created by acpype (v: 2023.10.27) on Wed May 20 23:46:01 2026

; Include forcefield parameters
#include "ffoplsaa.itp"

; Include mobley_1199854_GMX.itp topology
#include "mobley_1199854_GMX.itp"

; Ligand position restraints
#ifdef POSRES_LIG
#include "posre_mobley_1199854.itp"
#endif

[ system ]
 mobley_1199854

[ molecules ]
; Compound        nmols
 mobley_1199854   1     
