1_iodopropane
    11
  -0.5090000  -0.5490000   0.7980000   0.3040000  -0.5210000   2.0830000
   1.6750000  -1.1640000   1.8860000   2.7880000  -1.1440000   3.7120000
  -1.4880000  -0.0860000   0.9590000   0.0000000   0.0000000   0.0000000
  -0.6720000  -1.5770000   0.4590000  -0.2530000  -1.0470000   2.8690000
   0.4150000   0.5190000   2.4120000   2.2350000  -0.6250000   1.1140000
   1.5600000  -2.1980000   1.5430000
