mobley_252413_GMX.gro created by acpype (v: 2023.10.27) on Wed May 20 23:42:19 2026
10049
    1MOL     C1    1   2.115   2.376   2.155
    1MOL     C2    2   2.532   2.302   2.317
    1MOL     C3    3   2.421   2.469   2.468
    1MOL     C4    4   2.418   2.226   2.526
    1MOL     C5    5   2.251   2.401   2.217
    1MOL     C6    6   2.277   2.306   2.335
    1MOL     C7    7   2.412   2.327   2.410
    1MOL     H1    8   2.035   2.392   2.229
    1MOL     H2    9   2.098   2.444   2.071
    1MOL     H3   10   2.107   2.273   2.118
    1MOL     H4   11   2.525   2.204   2.270
    1MOL     H5   12   2.538   2.378   2.238
    1MOL     H6   13   2.626   2.306   2.373
    1MOL     H7   14   2.511   2.480   2.530
    1MOL     H8   15   2.335   2.492   2.531
    1MOL     H9   16   2.427   2.545   2.390
    1MOL    H10   17   2.413   2.123   2.489
    1MOL    H11   18   2.511   2.236   2.583
    1MOL    H12   19   2.335   2.241   2.596
    1MOL    H13   20   2.328   2.387   2.140
    1MOL    H14   21   2.256   2.505   2.250
    1MOL    H15   22   2.273   2.203   2.298
    1MOL    H16   23   2.195   2.316   2.407
    2SOL     OW   24   0.230   0.628   0.113
    2SOL    HW1   25   0.137   0.626   0.150
    2SOL    HW2   26   0.231   0.589   0.021
    3SOL     OW   27   0.225   0.275   0.996
    3SOL    HW1   28   0.260   0.258   1.088
    3SOL    HW2   29   0.137   0.230   0.984
    4SOL     OW   30   0.019   0.368   0.647
    4SOL    HW1   31  -0.063   0.411   0.686
    4SOL    HW2   32  -0.009   0.295   0.584
    5SOL     OW   33   0.569   1.275   1.165
    5SOL    HW1   34   0.476   1.268   1.128
    5SOL    HW2   35   0.580   1.364   1.209
    6SOL     OW   36   1.555   1.511   0.703
    6SOL    HW1   37   1.498   1.495   0.784
    6SOL    HW2   38   1.496   1.521   0.623
    7SOL     OW   39   1.135   0.703   0.717
    7SOL    HW1   40   1.192   0.781   0.692
    7SOL    HW2   41   1.075   0.729   0.793
    8SOL     OW   42   1.755   0.607   0.231
    8SOL    HW1   43   1.743   0.594   0.132
    8SOL    HW2   44   1.725   0.526   0.280
    9SOL     OW   45   0.768   1.144   1.023
    9SOL    HW1   46   0.690   1.161   1.083
    9SOL    HW2   47   0.802   1.231   0.987
   10SOL     OW   48   0.850   0.798   1.823
   10SOL    HW1   49   0.846   0.874   1.888
   10SOL    HW2   50   0.872   0.834   1.732
   11SOL     OW   51   0.685   1.012   0.665
   11SOL    HW1   52   0.754   0.996   0.735
   11SOL    HW2   53   0.612   1.069   0.703
   12SOL     OW   54   0.686   1.161   1.803
   12SOL    HW1   55   0.746   1.240   1.817
   12SOL    HW2   56   0.600   1.192   1.762
   13SOL     OW   57   0.335   1.435   1.061
   13SOL    HW1   58   0.257   1.404   1.008
   13SOL    HW2   59   0.393   1.493   1.004
   14SOL     OW   60   1.460   1.505   1.339
   14SOL    HW1   61   1.484   1.599   1.365
   14SOL    HW2   62   1.444   1.451   1.421
   15SOL     OW   63   0.438   0.392   1.499
   15SOL    HW1   64   0.520   0.336   1.508
   15SOL    HW2   65   0.357   0.334   1.503
   16SOL     OW   66   1.603   0.447   0.737
   16SOL    HW1   67   1.529   0.493   0.687
   16SOL    HW2   68   1.654   0.515   0.790
   17SOL     OW   69   0.231   1.713   0.483
   17SOL    HW1   70   0.265   1.790   0.537
   17SOL    HW2   71   0.275   1.713   0.393
   18SOL     OW   72   1.127   1.341   1.690
   18SOL    HW1   73   1.174   1.341   1.778
   18SOL    HW2   74   1.079   1.254   1.679
   19SOL     OW   75   0.230   1.434   0.538
   19SOL    HW1   76   0.204   1.530   0.538
   19SOL    HW2   77   0.159   1.380   0.583
   20SOL     OW   78   0.240   1.091   0.886
   20SOL    HW1   79   0.254   1.007   0.938
   20SOL    HW2   80   0.185   1.155   0.941
   21SOL     OW   81   0.620   1.786   1.439
   21SOL    HW1   82   0.528   1.769   1.474
   21SOL    HW2   83   0.648   1.878   1.465
   22SOL     OW   84   0.606   0.964   0.123
   22SOL    HW1   85   0.613   1.048   0.069
   22SOL    HW2   86   0.652   0.977   0.211
   23SOL     OW   87   1.594   0.114   1.480
   23SOL    HW1   88   1.576   0.181   1.408
   23SOL    HW2   89   1.591   0.160   1.569
   24SOL     OW   90   0.122   0.643   0.563
   24SOL    HW1   91   0.077   0.555   0.580
   24SOL    HW2   92   0.121   0.697   0.647
   25SOL     OW   93   1.842   1.767   0.359
   25SOL    HW1   94   1.896   1.738   0.439
   25SOL    HW2   95   1.872   1.857   0.330
   26SOL     OW   96   0.027   1.596   0.117
   26SOL    HW1   97   0.008   1.500   0.138
   26SOL    HW2   98  -0.006   1.654   0.192
   27SOL     OW   99   1.689   0.922   0.612
   27SOL    HW1  100   1.784   0.893   0.620
   27SOL    HW2  101   1.681   0.987   0.537
   28SOL     OW  102   1.641   1.108   0.432
   28SOL    HW1  103   1.727   1.110   0.380
   28SOL    HW2  104   1.655   1.155   0.520
   29SOL     OW  105   0.113   0.737   1.597
   29SOL    HW1  106   0.201   0.724   1.642
   29SOL    HW2  107   0.100   0.834   1.575
   30SOL     OW  108   0.613   1.365   0.726
   30SOL    HW1  109   0.564   1.278   0.735
   30SOL    HW2  110   0.590   1.408   0.639
   31SOL     OW  111   1.293   1.228   1.423
   31SOL    HW1  112   1.330   1.155   1.365
   31SOL    HW2  113   1.345   1.233   1.508
   32SOL     OW  114   0.809   0.004   0.502
   32SOL    HW1  115   0.849   0.095   0.493
   32SOL    HW2  116   0.709   0.012   0.508
   33SOL     OW  117   0.197   0.976   1.264
   33SOL    HW1  118   0.286   0.931   1.250
   33SOL    HW2  119   0.124   0.911   1.245
   34SOL     OW  120   1.525   0.999   0.190
   34SOL    HW1  121   1.462   0.923   0.203
   34SOL    HW2  122   1.573   1.017   0.276
   35SOL     OW  123   1.187   1.792   1.616
   35SOL    HW1  124   1.211   1.852   1.540
   35SOL    HW2  125   1.194   1.697   1.586
   36SOL     OW  126   0.317   0.251   1.801
   36SOL    HW1  127   0.388   0.322   1.807
   36SOL    HW2  128   0.229   0.290   1.829
   37SOL     OW  129   1.466   1.417   0.953
   37SOL    HW1  130   1.407   1.423   1.033
   37SOL    HW2  131   1.451   1.329   0.907
   38SOL     OW  132   1.667   1.714   0.572
   38SOL    HW1  133   1.626   1.691   0.484
   38SOL    HW2  134   1.649   1.640   0.637
   39SOL     OW  135   0.598   0.729   0.270
   39SOL    HW1  136   0.622   0.798   0.202
   39SOL    HW2  137   0.520   0.762   0.324
   40SOL     OW  138   1.281   0.345   0.944
   40SOL    HW1  139   1.195   0.295   0.931
   40SOL    HW2  140   1.343   0.291   1.000
   41SOL     OW  141   1.576   1.662   0.307
   41SOL    HW1  142   1.665   1.708   0.310
   41SOL    HW2  143   1.555   1.638   0.212
   42SOL     OW  144   0.807   0.605   1.465
   42SOL    HW1  145   0.760   0.602   1.554
   42SOL    HW2  146   0.756   0.550   1.399
   43SOL     OW  147   1.394   0.469   1.674
   43SOL    HW1  148   1.374   0.512   1.762
   43SOL    HW2  149   1.472   0.407   1.683
   44SOL     OW  150   0.973   0.890   1.572
   44SOL    HW1  151   1.019   0.806   1.543
   44SOL    HW2  152   0.917   0.924   1.497
   45SOL     OW  153   0.991   0.410   1.242
   45SOL    HW1  154   0.914   0.444   1.296
   45SOL    HW2  155   0.957   0.359   1.163
   46SOL     OW  156   1.041   0.701   0.429
   46SOL    HW1  157   1.067   0.697   0.525
   46SOL    HW2  158   0.956   0.650   0.415
   47SOL     OW  159   0.076   0.811   0.789
   47SOL    HW1  160   0.175   0.799   0.798
   47SOL    HW2  161   0.052   0.906   0.810
   48SOL     OW  162   0.130   1.821   1.571
   48SOL    HW1  163   0.120   1.806   1.670
   48SOL    HW2  164   0.044   1.857   1.535
   49SOL     OW  165   0.865   0.348   0.195
   49SOL    HW1  166   0.924   0.411   0.146
   49SOL    HW2  167   0.884   0.254   0.166
   50SOL     OW  168   1.719   0.585   1.831
   50SOL    HW1  169   1.693   0.674   1.795
   50SOL    HW2  170   1.717   0.517   1.758
   51SOL     OW  171   1.362   1.144   0.545
   51SOL    HW1  172   1.445   1.115   0.497
   51SOL    HW2  173   1.313   1.211   0.489
   52SOL     OW  174   0.550   0.196   0.885
   52SOL    HW1  175   0.545   0.191   0.985
   52SOL    HW2  176   0.552   0.292   0.856
   53SOL     OW  177   1.008   1.456   0.477
   53SOL    HW1  178   0.962   1.528   0.425
   53SOL    HW2  179   1.004   1.476   0.575
   54SOL     OW  180   0.351   1.801   0.853
   54SOL    HW1  181   0.401   1.715   0.859
   54SOL    HW2  182   0.416   1.878   0.850
   55SOL     OW  183   1.795   1.066   0.873
   55SOL    HW1  184   1.733   1.051   0.797
   55SOL    HW2  185   1.743   1.077   0.958
   56SOL     OW  186   1.227   1.550   1.506
   56SOL    HW1  187   1.233   1.473   1.570
   56SOL    HW2  188   1.175   1.524   1.426
   57SOL     OW  189   0.321   0.943   0.242
   57SOL    HW1  190   0.403   0.982   0.200
   57SOL    HW2  191   0.294   0.861   0.193
   58SOL     OW  192   1.458   0.735   0.728
   58SOL    HW1  193   1.453   0.670   0.803
   58SOL    HW2  194   1.538   0.794   0.741
   59SOL     OW  195   0.461   1.266   1.727
   59SOL    HW1  196   0.411   1.267   1.641
   59SOL    HW2  197   0.398   1.248   1.803
   60SOL     OW  198   1.111   1.776   0.237
   60SOL    HW1  199   1.051   1.714   0.287
   60SOL    HW2  200   1.142   1.732   0.152
   61SOL     OW  201   0.202   0.285   1.498
   61SOL    HW1  202   0.122   0.345   1.485
   61SOL    HW2  203   0.192   0.236   1.584
   62SOL     OW  204   1.632   1.377   0.081
   62SOL    HW1  205   1.600   1.471   0.071
   62SOL    HW2  206   1.556   1.314   0.069
   63SOL     OW  207   0.464   1.743   0.323
   63SOL    HW1  208   0.497   1.782   0.409
   63SOL    HW2  209   0.540   1.736   0.258
   64SOL     OW  210   1.400   0.107   0.426
   64SOL    HW1  211   1.376   0.070   0.336
   64SOL    HW2  212   1.499   0.123   0.430
   65SOL     OW  213   0.249   1.785   1.241
   65SOL    HW1  214   0.306   1.720   1.291
   65SOL    HW2  215   0.233   1.752   1.148
   66SOL     OW  216   0.940   1.698   0.904
   66SOL    HW1  217   1.020   1.641   0.925
   66SOL    HW2  218   0.891   1.658   0.827
   67SOL     OW  219   0.382   0.700   0.480
   67SOL    HW1  220   0.427   0.610   0.477
   67SOL    HW2  221   0.288   0.689   0.513
   68SOL     OW  222   1.547   0.222   1.729
   68SOL    HW1  223   1.542   0.259   1.821
   68SOL    HW2  224   1.475   0.153   1.717
   69SOL     OW  225   0.614   0.122   0.117
   69SOL    HW1  226   0.712   0.100   0.124
   69SOL    HW2  227   0.583   0.105   0.024
   70SOL     OW  228   0.781   0.264   1.749
   70SOL    HW1  229   0.848   0.203   1.792
   70SOL    HW2  230   0.708   0.283   1.814
   71SOL     OW  231   0.888   1.514   1.195
   71SOL    HW1  232   0.865   1.489   1.101
   71SOL    HW2  233   0.949   1.445   1.234
   72SOL     OW  234   1.351   0.590   1.433
   72SOL    HW1  235   1.379   0.547   1.518
   72SOL    HW2  236   1.376   0.686   1.434
   73SOL     OW  237   0.803   1.402   0.924
   73SOL    HW1  238   0.893   1.416   0.882
   73SOL    HW2  239   0.732   1.404   0.853
   74SOL     OW  240   0.922   0.503   0.899
   74SOL    HW1  241   0.897   0.494   0.803
   74SOL    HW2  242   0.970   0.421   0.930
   75SOL     OW  243   0.539   0.064   0.512
   75SOL    HW1  244   0.458   0.065   0.570
   75SOL    HW2  245   0.542   0.147   0.457
   76SOL     OW  246   1.434   1.188   0.041
   76SOL    HW1  247   1.466   1.112   0.098
   76SOL    HW2  248   1.342   1.215   0.071
   77SOL     OW  249   0.297   0.035   0.171
   77SOL    HW1  250   0.346   0.119   0.150
   77SOL    HW2  251   0.359  -0.030   0.216
   78SOL     OW  252   0.935   0.236   0.480
   78SOL    HW1  253   0.887   0.277   0.402
   78SOL    HW2  254   1.034   0.234   0.461
   79SOL     OW  255   1.076   0.683   1.464
   79SOL    HW1  256   0.996   0.622   1.467
   79SOL    HW2  257   1.157   0.630   1.440
   80SOL     OW  258   1.227   1.570   0.793
   80SOL    HW1  259   1.248   1.644   0.728
   80SOL    HW2  260   1.295   1.570   0.866
   81SOL     OW  261   0.459   1.152   0.741
   81SOL    HW1  262   0.388   1.125   0.806
   81SOL    HW2  263   0.433   1.124   0.648
   82SOL     OW  264   1.271   1.797   0.591
   82SOL    HW1  265   1.315   1.861   0.527
   82SOL    HW2  266   1.221   1.849   0.661
   83SOL     OW  267   1.032   0.549   0.016
   83SOL    HW1  268   0.991   0.631  -0.023
   83SOL    HW2  269   1.096   0.575   0.089
   84SOL     OW  270   0.078   0.556   1.386
   84SOL    HW1  271   0.170   0.555   1.345
   84SOL    HW2  272   0.072   0.630   1.453
   85SOL     OW  273   0.561   0.222   1.147
   85SOL    HW1  274   0.599   0.138   1.184
   85SOL    HW2  275   0.473   0.241   1.191
   86SOL     OW  276   0.866   0.454   0.642
   86SOL    HW1  277   0.834   0.526   0.580
   86SOL    HW2  278   0.890   0.373   0.589
   87SOL     OW  279   1.017   0.039   0.753
   87SOL    HW1  280   0.945   0.044   0.684
   87SOL    HW2  281   0.993  -0.030   0.822
   88SOL     OW  282   1.429   1.173   0.867
   88SOL    HW1  283   1.374   1.089   0.860
   88SOL    HW2  284   1.455   1.202   0.775
   89SOL     OW  285   1.466   0.590   0.992
   89SOL    HW1  286   1.436   0.495   0.999
   89SOL    HW2  287   1.539   0.606   1.058
   90SOL     OW  288   1.857   0.833   0.377
   90SOL    HW1  289   1.899   0.769   0.441
   90SOL    HW2  290   1.819   0.782   0.299
   91SOL     OW  291   0.488   1.385   0.174
   91SOL    HW1  292   0.401   1.370   0.221
   91SOL    HW2  293   0.471   1.411   0.079
   92SOL     OW  294   1.664   1.280   0.657
   92SOL    HW1  295   1.763   1.288   0.671
   92SOL    HW2  296   1.619   1.364   0.688
   93SOL     OW  297   1.390   0.575   0.078
   93SOL    HW1  298   1.336   0.554   0.159
   93SOL    HW2  299   1.481   0.534   0.087
   94SOL     OW  300   0.527   0.256   0.328
   94SOL    HW1  301   0.554   0.197   0.253
   94SOL    HW2  302   0.527   0.351   0.297
   95SOL     OW  303   1.754   1.223   1.588
   95SOL    HW1  304   1.845   1.184   1.575
   95SOL    HW2  305   1.762   1.319   1.612
   96SOL     OW  306   1.064   1.347   1.340
   96SOL    HW1  307   0.984   1.324   1.395
   96SOL    HW2  308   1.147   1.321   1.389
   97SOL     OW  309   1.592   1.629   1.625
   97SOL    HW1  310   1.619   1.663   1.535
   97SOL    HW2  311   1.671   1.591   1.671
   98SOL     OW  312   1.111   1.195   1.100
   98SOL    HW1  313   1.071   1.239   1.181
   98SOL    HW2  314   1.070   1.232   1.017
   99SOL     OW  315   1.638   1.099   1.079
   99SOL    HW1  316   1.643   1.180   1.138
   99SOL    HW2  317   1.552   1.101   1.028
  100SOL     OW  318   0.915   0.089   1.402
  100SOL    HW1  319   0.940   0.069   1.307
  100SOL    HW2  320   0.987   0.145   1.444
  101SOL     OW  321   0.980   1.116   1.719
  101SOL    HW1  322   0.881   1.122   1.729
  101SOL    HW2  323   1.003   1.036   1.663
  102SOL     OW  324   0.705   1.050   0.368
  102SOL    HW1  325   0.691   1.057   0.467
  102SOL    HW2  326   0.789   0.999   0.350
  103SOL     OW  327   0.410   0.813   1.251
  103SOL    HW1  328   0.496   0.825   1.301
  103SOL    HW2  329   0.368   0.726   1.278
  104SOL     OW  330   1.274   0.386   1.262
  104SOL    HW1  331   1.295   0.460   1.326
  104SOL    HW2  332   1.185   0.403   1.219
  105SOL     OW  333   0.064   1.564   1.331
  105SOL    HW1  334   0.018   1.646   1.297
  105SOL    HW2  335   0.162   1.583   1.340
  106SOL     OW  336   0.367   1.100   0.501
  106SOL    HW1  337   0.360   1.183   0.445
  106SOL    HW2  338   0.371   1.020   0.441
  107SOL     OW  339   0.566   0.537   0.865
  107SOL    HW1  340   0.578   0.603   0.791
  107SOL    HW2  341   0.612   0.571   0.948
  108SOL     OW  342   1.252   1.348   0.388
  108SOL    HW1  343   1.302   1.425   0.428
  108SOL    HW2  344   1.157   1.350   0.420
  109SOL     OW  345   1.272   1.445   1.142
  109SOL    HW1  346   1.319   1.458   1.229
  109SOL    HW2  347   1.206   1.371   1.151
  110SOL     OW  348   1.582   0.639   0.472
  110SOL    HW1  349   1.551   0.700   0.545
  110SOL    HW2  350   1.632   0.691   0.403
  111SOL     OW  351   0.354   1.510   1.329
  111SOL    HW1  352   0.333   1.466   1.242
  111SOL    HW2  353   0.451   1.536   1.332
  112SOL     OW  354   0.402   0.751   1.598
  112SOL    HW1  355   0.470   0.806   1.551
  112SOL    HW2  356   0.442   0.663   1.625
  113SOL     OW  357   1.587   0.779   1.670
  113SOL    HW1  358   1.495   0.817   1.665
  113SOL    HW2  359   1.647   0.826   1.605
  114SOL     OW  360   1.013   0.105   1.770
  114SOL    HW1  361   1.019   0.190   1.718
  114SOL    HW2  362   1.045   0.029   1.713
  115SOL     OW  363   0.504   0.050   1.740
  115SOL    HW1  364   0.462  -0.007   1.670
  115SOL    HW2  365   0.438   0.119   1.772
  116SOL     OW  366   0.573   0.870   1.029
  116SOL    HW1  367   0.617   0.959   1.020
  116SOL    HW2  368   0.510   0.870   1.106
  117SOL     OW  369   1.360   0.862   1.045
  117SOL    HW1  370   1.285   0.862   0.979
  117SOL    HW2  371   1.397   0.770   1.054
  118SOL     OW  372   1.209   0.525   0.275
  118SOL    HW1  373   1.222   0.441   0.329
  118SOL    HW2  374   1.180   0.599   0.335
  119SOL     OW  375   0.307   0.213   1.231
  119SOL    HW1  376   0.284   0.250   1.321
  119SOL    HW2  377   0.277   0.118   1.225
  120SOL     OW  378   0.037   1.310   1.282
  120SOL    HW1  379   0.090   1.261   1.350
  120SOL    HW2  380   0.059   1.408   1.287
  121SOL     OW  381   0.732   0.634   1.064
  121SOL    HW1  382   0.791   0.608   0.988
  121SOL    HW2  383   0.704   0.730   1.053
  122SOL     OW  384   1.728   0.935   1.854
  122SOL    HW1  385   1.682   0.928   1.765
  122SOL    HW2  386   1.666   0.979   1.920
  123SOL     OW  387   0.307   0.063   0.618
  123SOL    HW1  388   0.296   0.157   0.651
  123SOL    HW2  389   0.302   0.000   0.695
  124SOL     OW  390   1.622   0.367   0.374
  124SOL    HW1  391   1.624   0.291   0.438
  124SOL    HW2  392   1.574   0.444   0.414
  125SOL     OW  393   1.023   0.766   0.966
  125SOL    HW1  394   1.038   0.787   1.062
  125SOL    HW2  395   0.993   0.671   0.957
  126SOL     OW  396   0.980   1.573   1.700
  126SOL    HW1  397   0.960   1.617   1.612
  126SOL    HW2  398   1.019   1.482   1.684
  127SOL     OW  399   1.859   1.518   1.605
  127SOL    HW1  400   1.873   1.545   1.510
  127SOL    HW2  401   1.942   1.540   1.658
  128SOL     OW  402   0.350   0.898   1.804
  128SOL    HW1  403   0.426   0.942   1.852
  128SOL    HW2  404   0.385   0.851   1.722
  129SOL     OW  405   1.540   0.274   0.125
  129SOL    HW1  406   1.479   0.199   0.148
  129SOL    HW2  407   1.562   0.326   0.208
  130SOL     OW  408   1.303   0.838   0.042
  130SOL    HW1  409   1.337   0.745   0.057
  130SOL    HW2  410   1.321   0.865  -0.053
  131SOL     OW  411   1.068   1.333   0.849
  131SOL    HW1  412   1.075   1.249   0.794
  131SOL    HW2  413   1.130   1.402   0.813
  132SOL     OW  414   0.319   0.810   0.949
  132SOL    HW1  415   0.412   0.846   0.954
  132SOL    HW2  416   0.313   0.725   1.001
  133SOL     OW  417   0.339   0.509   1.006
  133SOL    HW1  418   0.287   0.426   0.989
  133SOL    HW2  419   0.416   0.514   0.942
  134SOL     OW  420   1.138   0.380   1.678
  134SOL    HW1  421   1.093   0.443   1.742
  134SOL    HW2  422   1.231   0.411   1.661
  135SOL     OW  423   1.160   0.207   1.477
  135SOL    HW1  424   1.160   0.271   1.554
  135SOL    HW2  425   1.188   0.255   1.394
  136SOL     OW  426   0.008   1.326   0.200
  136SOL    HW1  427  -0.085   1.347   0.169
  136SOL    HW2  428   0.018   1.227   0.213
  137SOL     OW  429   0.088   1.801   0.927
  137SOL    HW1  430   0.046   1.715   0.900
  137SOL    HW2  431   0.182   1.804   0.893
  138SOL     OW  432   0.504   1.568   0.910
  138SOL    HW1  433   0.570   1.642   0.919
  138SOL    HW2  434   0.548   1.489   0.868
  139SOL     OW  435   1.002   0.796   1.238
  139SOL    HW1  436   1.043   0.764   1.324
  139SOL    HW2  437   0.906   0.769   1.235
  140SOL     OW  438   0.040   0.544   1.114
  140SOL    HW1  439   0.125   0.511   1.073
  140SOL    HW2  440   0.053   0.559   1.212
  141SOL     OW  441   0.189   0.520   1.722
  141SOL    HW1  442   0.248   0.480   1.652
  141SOL    HW2  443   0.131   0.591   1.681
  142SOL     OW  444   1.369   0.950   1.660
  142SOL    HW1  445   1.408   1.039   1.680
  142SOL    HW2  446   1.379   0.930   1.563
  143SOL     OW  447   0.815   0.572   0.325
  143SOL    HW1  448   0.822   0.483   0.279
  143SOL    HW2  449   0.721   0.606   0.317
  144SOL     OW  450   1.657   0.604   1.206
  144SOL    HW1  451   1.619   0.535   1.268
  144SOL    HW2  452   1.739   0.568   1.162
  145SOL     OW  453   0.252   1.564   1.744
  145SOL    HW1  454   0.222   1.621   1.820
  145SOL    HW2  455   0.245   1.467   1.770
  146SOL     OW  456   0.671   0.464   1.269
  146SOL    HW1  457   0.637   0.375   1.239
  146SOL    HW2  458   0.697   0.518   1.189
  147SOL     OW  459   0.930   1.678   1.465
  147SOL    HW1  460   0.906   1.660   1.370
  147SOL    HW2  461   0.960   1.772   1.475
  148SOL     OW  462   0.473   0.500   0.191
  148SOL    HW1  463   0.534   0.580   0.195
  148SOL    HW2  464   0.378   0.531   0.198
  149SOL     OW  465   0.159   1.137   1.466
  149SOL    HW1  466   0.181   1.076   1.542
  149SOL    HW2  467   0.169   1.088   1.380
  150SOL     OW  468   1.347   1.059   1.234
  150SOL    HW1  469   1.371   0.996   1.160
  150SOL    HW2  470   1.257   1.099   1.216
  151SOL     OW  471   1.302   0.855   0.309
  151SOL    HW1  472   1.216   0.824   0.351
  151SOL    HW2  473   1.298   0.841   0.210
  152SOL     OW  474   1.759   1.747   1.154
  152SOL    HW1  475   1.820   1.777   1.081
  152SOL    HW2  476   1.721   1.658   1.132
  153SOL     OW  477   1.252   1.731   1.128
  153SOL    HW1  478   1.336   1.736   1.074
  153SOL    HW2  479   1.229   1.635   1.146
  154SOL     OW  480   0.083   1.258   1.022
  154SOL    HW1  481   0.078   1.257   1.122
  154SOL    HW2  482   0.000   1.217   0.984
  155SOL     OW  483   0.688   1.662   1.716
  155SOL    HW1  484   0.632   1.743   1.725
  155SOL    HW2  485   0.740   1.666   1.630
  156SOL     OW  486   0.903   0.086   0.133
  156SOL    HW1  487   0.954   0.087   0.047
  156SOL    HW2  488   0.959   0.044   0.204
  157SOL     OW  489   1.726   0.135   0.523
  157SOL    HW1  490   1.799   0.118   0.456
  157SOL    HW2  491   1.695   0.048   0.561
  158SOL     OW  492   1.388   1.573   0.477
  158SOL    HW1  493   1.455   1.585   0.403
  158SOL    HW2  494   1.348   1.662   0.500
  159SOL     OW  495   0.130   1.794   1.851
  159SOL    HW1  496   0.089   1.720   1.904
  159SOL    HW2  497   0.194   1.845   1.909
  160SOL     OW  498   1.280   0.927   0.672
  160SOL    HW1  499   1.340   0.846   0.674
  160SOL    HW2  500   1.320   0.996   0.612
  161SOL     OW  501   0.830   1.273   1.422
  161SOL    HW1  502   0.825   1.306   1.517
  161SOL    HW2  503   0.744   1.292   1.376
  162SOL     OW  504   0.672   1.616   0.154
  162SOL    HW1  505   0.681   1.626   0.055
  162SOL    HW2  506   0.632   1.527   0.175
  163SOL     OW  507   1.650   1.720   1.394
  163SOL    HW1  508   1.703   1.730   1.310
  163SOL    HW2  509   1.623   1.810   1.428
  164SOL     OW  510   1.841   0.175   0.963
  164SOL    HW1  511   1.880   0.090   0.927
  164SOL    HW2  512   1.743   0.177   0.944
  165SOL     OW  513   0.263   0.326   0.720
  165SOL    HW1  514   0.184   0.377   0.686
  165SOL    HW2  515   0.254   0.311   0.818
  166SOL     OW  516   1.194   1.612   0.031
  166SOL    HW1  517   1.200   1.519   0.068
  166SOL    HW2  518   1.135   1.612  -0.049
  167SOL     OW  519   0.822   1.002   1.372
  167SOL    HW1  520   0.862   1.001   1.280
  167SOL    HW2  521   0.832   1.094   1.412
  168SOL     OW  522   0.916   0.910   0.291
  168SOL    HW1  523   0.979   0.948   0.223
  168SOL    HW2  524   0.956   0.827   0.330
  169SOL     OW  525   1.504   1.607   0.044
  169SOL    HW1  526   1.412   1.644   0.051
  169SOL    HW2  527   1.542   1.627  -0.046
  170SOL     OW  528   0.372   1.288   1.490
  170SOL    HW1  529   0.359   1.381   1.456
  170SOL    HW2  530   0.288   1.236   1.477
  171SOL     OW  531   1.614   1.292   1.289
  171SOL    HW1  532   1.674   1.295   1.369
  171SOL    HW2  533   1.539   1.356   1.302
  172SOL     OW  534   1.039   1.098   0.696
  172SOL    HW1  535   0.969   1.051   0.750
  172SOL    HW2  536   1.098   1.030   0.653
  173SOL     OW  537   1.014   0.236   0.971
  173SOL    HW1  538   1.006   0.200   0.878
  173SOL    HW2  539   1.012   0.160   1.036
  174SOL     OW  540   0.590   1.487   0.491
  174SOL    HW1  541   0.632   1.429   0.421
  174SOL    HW2  542   0.546   1.566   0.447
  175SOL     OW  543   1.709   0.385   1.381
  175SOL    HW1  544   1.782   0.454   1.385
  175SOL    HW2  545   1.737   0.310   1.322
  176SOL     OW  546   0.255   1.348   0.290
  176SOL    HW1  547   0.159   1.349   0.263
  176SOL    HW2  548   0.267   1.401   0.374
  177SOL     OW  549   0.105   1.013   1.726
  177SOL    HW1  550   0.028   0.980   1.780
  177SOL    HW2  551   0.190   0.983   1.768
  178SOL     OW  552   0.672   0.203   1.489
  178SOL    HW1  553   0.762   0.187   1.449
  178SOL    HW2  554   0.680   0.208   1.588
  179SOL     OW  555   0.075   0.345   0.033
  179SOL    HW1  556  -0.017   0.317   0.004
  179SOL    HW2  557   0.106   0.422  -0.023
  180SOL     OW  558   1.440   0.856   1.398
  180SOL    HW1  559   1.383   0.908   1.335
  180SOL    HW2  560   1.536   0.868   1.374
  181SOL     OW  561   0.072   0.166   0.318
  181SOL    HW1  562   0.055   0.249   0.264
  181SOL    HW2  563   0.162   0.129   0.296
  182SOL     OW  564   1.183   1.335   0.119
  182SOL    HW1  565   1.084   1.324   0.121
  182SOL    HW2  566   1.217   1.350   0.212
  183SOL     OW  567   0.613   0.842   1.431
  183SOL    HW1  568   0.669   0.923   1.414
  183SOL    HW2  569   0.672   0.762   1.434
  184SOL     OW  570   1.493   1.767   0.959
  184SOL    HW1  571   1.526   1.831   0.890
  184SOL    HW2  572   1.559   1.761   1.034
  185SOL     OW  573   0.716   0.565   1.708
  185SOL    HW1  574   0.735   0.630   1.782
  185SOL    HW2  575   0.776   0.485   1.717
  186SOL     OW  576   1.450   1.220   1.633
  186SOL    HW1  577   1.441   1.210   1.732
  186SOL    HW2  578   1.546   1.213   1.607
  187SOL     OW  579   0.390   1.741   1.560
  187SOL    HW1  580   0.299   1.782   1.558
  187SOL    HW2  581   0.383   1.647   1.592
  188SOL     OW  582   1.674   0.883   1.254
  188SOL    HW1  583   1.647   0.794   1.217
  188SOL    HW2  584   1.675   0.951   1.181
  189SOL     OW  585   1.225   0.325   0.449
  189SOL    HW1  586   1.290   0.251   0.438
  189SOL    HW2  587   1.245   0.375   0.533
  190SOL     OW  588   0.594   0.745   0.652
  190SOL    HW1  589   0.644   0.830   0.633
  190SOL    HW2  590   0.506   0.747   0.604
  191SOL     OW  591   1.777   0.342   1.642
  191SOL    HW1  592   1.760   0.373   1.548
  191SOL    HW2  593   1.693   0.305   1.680
  192SOL     OW  594   1.730   0.934   1.517
  192SOL    HW1  595   1.768   1.025   1.532
  192SOL    HW2  596   1.722   0.917   1.418
  193SOL     OW  597   0.859   1.374   0.016
  193SOL    HW1  598   0.813   1.389   0.104
  193SOL    HW2  599   0.903   1.459  -0.014
  194SOL     OW  600   0.661   1.790   0.953
  194SOL    HW1  601   0.615   1.878   0.940
  194SOL    HW2  602   0.760   1.802   0.946
  195SOL     OW  603   0.859   0.956   0.861
  195SOL    HW1  604   0.913   0.887   0.909
  195SOL    HW2  605   0.827   1.025   0.927
  196SOL     OW  606   1.083   0.984   0.087
  196SOL    HW1  607   1.060   1.037   0.005
  196SOL    HW2  608   1.164   0.928   0.068
  197SOL     OW  609   1.861   1.569   0.851
  197SOL    HW1  610   1.790   1.557   0.781
  197SOL    HW2  611   1.862   1.490   0.911
  198SOL     OW  612   0.221   1.314   1.844
  198SOL    HW1  613   0.156   1.241   1.823
  198SOL    HW2  614   0.225   1.328   1.942
  199SOL     OW  615   0.079   1.240   0.653
  199SOL    HW1  616   0.078   1.193   0.741
  199SOL    HW2  617   0.161   1.212   0.602
  200SOL     OW  618   0.672   1.391   1.624
  200SOL    HW1  619   0.594   1.341   1.662
  200SOL    HW2  620   0.669   1.486   1.655
  201SOL     OW  621   1.824   0.192   1.227
  201SOL    HW1  622   1.820   0.102   1.271
  201SOL    HW2  623   1.827   0.181   1.128
  202SOL     OW  624   0.428   0.424   0.520
  202SOL    HW1  625   0.458   0.352   0.458
  202SOL    HW2  626   0.389   0.384   0.603
  203SOL     OW  627   1.705   1.487   1.104
  203SOL    HW1  628   1.612   1.462   1.077
  203SOL    HW2  629   1.731   1.437   1.186
  204SOL     OW  630   0.317   0.547   1.280
  204SOL    HW1  631   0.355   0.488   1.352
  204SOL    HW2  632   0.357   0.521   1.192
  205SOL     OW  633   0.812   1.586   0.687
  205SOL    HW1  634   0.844   1.596   0.593
  205SOL    HW2  635   0.733   1.524   0.689
  206SOL     OW  636   1.424   0.214   1.112
  206SOL    HW1  637   1.476   0.149   1.167
  206SOL    HW2  638   1.375   0.277   1.173
  207SOL     OW  639   1.001   0.034   1.154
  207SOL    HW1  640   0.938  -0.038   1.123
  207SOL    HW2  641   1.094  -0.002   1.154
  208SOL     OW  642   0.770   1.330   0.301
  208SOL    HW1  643   0.724   1.243   0.318
  208SOL    HW2  644   0.861   1.327   0.342
  209SOL     OW  645   0.618   1.567   1.284
  209SOL    HW1  646   0.613   1.649   1.341
  209SOL    HW2  647   0.707   1.564   1.239
  210SOL     OW  648   1.352   0.052   0.168
  210SOL    HW1  649   1.387   0.011   0.084
  210SOL    HW2  650   1.262   0.014   0.188
  211SOL     OW  651   1.300   0.453   0.691
  211SOL    HW1  652   1.241   0.533   0.695
  211SOL    HW2  653   1.315   0.418   0.784
  212SOL     OW  654   1.593   0.221   0.882
  212SOL    HW1  655   1.509   0.220   0.936
  212SOL    HW2  656   1.595   0.304   0.826
  213SOL     OW  657   0.039   1.077   0.300
  213SOL    HW1  658   0.138   1.066   0.291
  213SOL    HW2  659  -0.001   0.991   0.332
  214SOL     OW  660   0.875   1.646   0.337
  214SOL    HW1  661   0.798   1.611   0.283
  214SOL    HW2  662   0.843   1.717   0.399
  215SOL     OW  663   0.230   0.628   1.975
  215SOL    HW1  664   0.137   0.626   2.012
  215SOL    HW2  665   0.231   0.589   1.883
  216SOL     OW  666   0.225   0.275   2.858
  216SOL    HW1  667   0.260   0.258   2.950
  216SOL    HW2  668   0.137   0.230   2.846
  217SOL     OW  669   0.019   0.368   2.509
  217SOL    HW1  670  -0.063   0.411   2.548
  217SOL    HW2  671  -0.009   0.295   2.446
  218SOL     OW  672   0.569   1.275   3.027
  218SOL    HW1  673   0.476   1.268   2.990
  218SOL    HW2  674   0.580   1.364   3.071
  219SOL     OW  675   1.555   1.511   2.565
  219SOL    HW1  676   1.498   1.495   2.646
  219SOL    HW2  677   1.496   1.521   2.485
  220SOL     OW  678   1.135   0.703   2.579
  220SOL    HW1  679   1.192   0.781   2.554
  220SOL    HW2  680   1.075   0.729   2.655
  221SOL     OW  681   1.755   0.607   2.093
  221SOL    HW1  682   1.743   0.594   1.994
  221SOL    HW2  683   1.725   0.526   2.142
  222SOL     OW  684   0.768   1.144   2.885
  222SOL    HW1  685   0.690   1.161   2.945
  222SOL    HW2  686   0.802   1.231   2.849
  223SOL     OW  687   0.850   0.798   3.685
  223SOL    HW1  688   0.846   0.874   3.750
  223SOL    HW2  689   0.872   0.834   3.594
  224SOL     OW  690   0.685   1.012   2.527
  224SOL    HW1  691   0.754   0.996   2.597
  224SOL    HW2  692   0.612   1.069   2.565
  225SOL     OW  693   0.686   1.161   3.665
  225SOL    HW1  694   0.746   1.240   3.679
  225SOL    HW2  695   0.600   1.192   3.624
  226SOL     OW  696   0.335   1.435   2.923
  226SOL    HW1  697   0.257   1.404   2.870
  226SOL    HW2  698   0.393   1.493   2.866
  227SOL     OW  699   1.460   1.505   3.201
  227SOL    HW1  700   1.484   1.599   3.227
  227SOL    HW2  701   1.444   1.451   3.283
  228SOL     OW  702   0.438   0.392   3.361
  228SOL    HW1  703   0.520   0.336   3.370
  228SOL    HW2  704   0.357   0.334   3.365
  229SOL     OW  705   1.603   0.447   2.599
  229SOL    HW1  706   1.529   0.493   2.549
  229SOL    HW2  707   1.654   0.515   2.652
  230SOL     OW  708   0.231   1.713   2.345
  230SOL    HW1  709   0.265   1.790   2.399
  230SOL    HW2  710   0.275   1.713   2.255
  231SOL     OW  711   1.127   1.341   3.552
  231SOL    HW1  712   1.174   1.341   3.640
  231SOL    HW2  713   1.079   1.254   3.541
  232SOL     OW  714   0.230   1.434   2.400
  232SOL    HW1  715   0.204   1.530   2.400
  232SOL    HW2  716   0.159   1.380   2.445
  233SOL     OW  717   0.240   1.091   2.748
  233SOL    HW1  718   0.254   1.007   2.800
  233SOL    HW2  719   0.185   1.155   2.803
  234SOL     OW  720   0.620   1.786   3.301
  234SOL    HW1  721   0.528   1.769   3.336
  234SOL    HW2  722   0.648   1.878   3.327
  235SOL     OW  723   0.606   0.964   1.985
  235SOL    HW1  724   0.613   1.048   1.931
  235SOL    HW2  725   0.652   0.977   2.073
  236SOL     OW  726   1.594   0.114   3.342
  236SOL    HW1  727   1.576   0.181   3.270
  236SOL    HW2  728   1.591   0.160   3.431
  237SOL     OW  729   0.122   0.643   2.425
  237SOL    HW1  730   0.077   0.555   2.442
  237SOL    HW2  731   0.121   0.697   2.509
  238SOL     OW  732   1.842   1.767   2.221
  238SOL    HW1  733   1.896   1.738   2.301
  238SOL    HW2  734   1.872   1.857   2.192
  239SOL     OW  735   0.027   1.596   1.979
  239SOL    HW1  736   0.008   1.500   2.000
  239SOL    HW2  737  -0.006   1.654   2.054
  240SOL     OW  738   1.689   0.922   2.474
  240SOL    HW1  739   1.784   0.893   2.482
  240SOL    HW2  740   1.681   0.987   2.399
  241SOL     OW  741   1.641   1.108   2.294
  241SOL    HW1  742   1.727   1.110   2.242
  241SOL    HW2  743   1.655   1.155   2.382
  242SOL     OW  744   0.113   0.737   3.459
  242SOL    HW1  745   0.201   0.724   3.504
  242SOL    HW2  746   0.100   0.834   3.437
  243SOL     OW  747   0.613   1.365   2.588
  243SOL    HW1  748   0.564   1.278   2.597
  243SOL    HW2  749   0.590   1.408   2.501
  244SOL     OW  750   1.293   1.228   3.285
  244SOL    HW1  751   1.330   1.155   3.227
  244SOL    HW2  752   1.345   1.233   3.370
  245SOL     OW  753   0.809   0.004   2.364
  245SOL    HW1  754   0.849   0.095   2.355
  245SOL    HW2  755   0.709   0.012   2.370
  246SOL     OW  756   0.197   0.976   3.126
  246SOL    HW1  757   0.286   0.931   3.112
  246SOL    HW2  758   0.124   0.911   3.107
  247SOL     OW  759   1.525   0.999   2.052
  247SOL    HW1  760   1.462   0.923   2.065
  247SOL    HW2  761   1.573   1.017   2.138
  248SOL     OW  762   1.187   1.792   3.478
  248SOL    HW1  763   1.211   1.852   3.402
  248SOL    HW2  764   1.194   1.697   3.448
  249SOL     OW  765   0.317   0.251   3.663
  249SOL    HW1  766   0.388   0.322   3.669
  249SOL    HW2  767   0.229   0.290   3.691
  250SOL     OW  768   1.466   1.417   2.815
  250SOL    HW1  769   1.407   1.423   2.895
  250SOL    HW2  770   1.451   1.329   2.769
  251SOL     OW  771   1.667   1.714   2.434
  251SOL    HW1  772   1.626   1.691   2.346
  251SOL    HW2  773   1.649   1.640   2.499
  252SOL     OW  774   0.598   0.729   2.132
  252SOL    HW1  775   0.622   0.798   2.064
  252SOL    HW2  776   0.520   0.762   2.186
  253SOL     OW  777   1.281   0.345   2.806
  253SOL    HW1  778   1.195   0.295   2.793
  253SOL    HW2  779   1.343   0.291   2.862
  254SOL     OW  780   1.576   1.662   2.169
  254SOL    HW1  781   1.665   1.708   2.172
  254SOL    HW2  782   1.555   1.638   2.074
  255SOL     OW  783   0.807   0.605   3.327
  255SOL    HW1  784   0.760   0.602   3.416
  255SOL    HW2  785   0.756   0.550   3.261
  256SOL     OW  786   1.394   0.469   3.536
  256SOL    HW1  787   1.374   0.512   3.624
  256SOL    HW2  788   1.472   0.407   3.545
  257SOL     OW  789   0.973   0.890   3.434
  257SOL    HW1  790   1.019   0.806   3.405
  257SOL    HW2  791   0.917   0.924   3.359
  258SOL     OW  792   0.991   0.410   3.104
  258SOL    HW1  793   0.914   0.444   3.158
  258SOL    HW2  794   0.957   0.359   3.025
  259SOL     OW  795   1.041   0.701   2.291
  259SOL    HW1  796   1.067   0.697   2.387
  259SOL    HW2  797   0.956   0.650   2.277
  260SOL     OW  798   0.076   0.811   2.651
  260SOL    HW1  799   0.175   0.799   2.660
  260SOL    HW2  800   0.052   0.906   2.672
  261SOL     OW  801   0.130   1.821   3.433
  261SOL    HW1  802   0.120   1.806   3.532
  261SOL    HW2  803   0.044   1.857   3.397
  262SOL     OW  804   0.865   0.348   2.057
  262SOL    HW1  805   0.924   0.411   2.008
  262SOL    HW2  806   0.884   0.254   2.028
  263SOL     OW  807   1.719   0.585   3.693
  263SOL    HW1  808   1.693   0.674   3.657
  263SOL    HW2  809   1.717   0.517   3.620
  264SOL     OW  810   1.362   1.144   2.407
  264SOL    HW1  811   1.445   1.115   2.359
  264SOL    HW2  812   1.313   1.211   2.351
  265SOL     OW  813   0.550   0.196   2.747
  265SOL    HW1  814   0.545   0.191   2.847
  265SOL    HW2  815   0.552   0.292   2.718
  266SOL     OW  816   1.008   1.456   2.339
  266SOL    HW1  817   0.962   1.528   2.287
  266SOL    HW2  818   1.004   1.476   2.437
  267SOL     OW  819   0.351   1.801   2.715
  267SOL    HW1  820   0.401   1.715   2.721
  267SOL    HW2  821   0.416   1.878   2.712
  268SOL     OW  822   1.795   1.066   2.735
  268SOL    HW1  823   1.733   1.051   2.659
  268SOL    HW2  824   1.743   1.077   2.820
  269SOL     OW  825   1.227   1.550   3.368
  269SOL    HW1  826   1.233   1.473   3.432
  269SOL    HW2  827   1.175   1.524   3.288
  270SOL     OW  828   0.321   0.943   2.104
  270SOL    HW1  829   0.403   0.982   2.062
  270SOL    HW2  830   0.294   0.861   2.055
  271SOL     OW  831   1.458   0.735   2.590
  271SOL    HW1  832   1.453   0.670   2.665
  271SOL    HW2  833   1.538   0.794   2.603
  272SOL     OW  834   0.461   1.266   3.589
  272SOL    HW1  835   0.411   1.267   3.503
  272SOL    HW2  836   0.398   1.248   3.665
  273SOL     OW  837   1.111   1.776   2.099
  273SOL    HW1  838   1.051   1.714   2.149
  273SOL    HW2  839   1.142   1.732   2.014
  274SOL     OW  840   0.202   0.285   3.360
  274SOL    HW1  841   0.122   0.345   3.347
  274SOL    HW2  842   0.192   0.236   3.446
  275SOL     OW  843   1.632   1.377   1.943
  275SOL    HW1  844   1.600   1.471   1.933
  275SOL    HW2  845   1.556   1.314   1.931
  276SOL     OW  846   0.464   1.743   2.185
  276SOL    HW1  847   0.497   1.782   2.271
  276SOL    HW2  848   0.540   1.736   2.120
  277SOL     OW  849   1.400   0.107   2.288
  277SOL    HW1  850   1.376   0.070   2.198
  277SOL    HW2  851   1.499   0.123   2.292
  278SOL     OW  852   0.249   1.785   3.103
  278SOL    HW1  853   0.306   1.720   3.153
  278SOL    HW2  854   0.233   1.752   3.010
  279SOL     OW  855   0.940   1.698   2.766
  279SOL    HW1  856   1.020   1.641   2.787
  279SOL    HW2  857   0.891   1.658   2.689
  280SOL     OW  858   0.382   0.700   2.342
  280SOL    HW1  859   0.427   0.610   2.339
  280SOL    HW2  860   0.288   0.689   2.375
  281SOL     OW  861   1.547   0.222   3.591
  281SOL    HW1  862   1.542   0.259   3.683
  281SOL    HW2  863   1.475   0.153   3.579
  282SOL     OW  864   0.614   0.122   1.979
  282SOL    HW1  865   0.712   0.100   1.986
  282SOL    HW2  866   0.583   0.105   1.886
  283SOL     OW  867   0.781   0.264   3.611
  283SOL    HW1  868   0.848   0.203   3.654
  283SOL    HW2  869   0.708   0.283   3.676
  284SOL     OW  870   0.888   1.514   3.057
  284SOL    HW1  871   0.865   1.489   2.963
  284SOL    HW2  872   0.949   1.445   3.096
  285SOL     OW  873   1.351   0.590   3.295
  285SOL    HW1  874   1.379   0.547   3.380
  285SOL    HW2  875   1.376   0.686   3.296
  286SOL     OW  876   0.803   1.402   2.786
  286SOL    HW1  877   0.893   1.416   2.744
  286SOL    HW2  878   0.732   1.404   2.715
  287SOL     OW  879   0.922   0.503   2.761
  287SOL    HW1  880   0.897   0.494   2.665
  287SOL    HW2  881   0.970   0.421   2.792
  288SOL     OW  882   0.539   0.064   2.374
  288SOL    HW1  883   0.458   0.065   2.432
  288SOL    HW2  884   0.542   0.147   2.319
  289SOL     OW  885   1.434   1.188   1.903
  289SOL    HW1  886   1.466   1.112   1.960
  289SOL    HW2  887   1.342   1.215   1.933
  290SOL     OW  888   0.297   0.035   2.033
  290SOL    HW1  889   0.346   0.119   2.012
  290SOL    HW2  890   0.359  -0.030   2.078
  291SOL     OW  891   0.935   0.236   2.342
  291SOL    HW1  892   0.887   0.277   2.264
  291SOL    HW2  893   1.034   0.234   2.323
  292SOL     OW  894   1.076   0.683   3.326
  292SOL    HW1  895   0.996   0.622   3.329
  292SOL    HW2  896   1.157   0.630   3.302
  293SOL     OW  897   1.227   1.570   2.655
  293SOL    HW1  898   1.248   1.644   2.590
  293SOL    HW2  899   1.295   1.570   2.728
  294SOL     OW  900   0.459   1.152   2.603
  294SOL    HW1  901   0.388   1.125   2.668
  294SOL    HW2  902   0.433   1.124   2.510
  295SOL     OW  903   1.271   1.797   2.453
  295SOL    HW1  904   1.315   1.861   2.389
  295SOL    HW2  905   1.221   1.849   2.523
  296SOL     OW  906   1.032   0.549   1.878
  296SOL    HW1  907   0.991   0.631   1.839
  296SOL    HW2  908   1.096   0.575   1.951
  297SOL     OW  909   0.078   0.556   3.248
  297SOL    HW1  910   0.170   0.555   3.207
  297SOL    HW2  911   0.072   0.630   3.315
  298SOL     OW  912   0.561   0.222   3.009
  298SOL    HW1  913   0.599   0.138   3.046
  298SOL    HW2  914   0.473   0.241   3.053
  299SOL     OW  915   0.866   0.454   2.504
  299SOL    HW1  916   0.834   0.526   2.442
  299SOL    HW2  917   0.890   0.373   2.451
  300SOL     OW  918   1.017   0.039   2.615
  300SOL    HW1  919   0.945   0.044   2.546
  300SOL    HW2  920   0.993  -0.030   2.684
  301SOL     OW  921   1.429   1.173   2.729
  301SOL    HW1  922   1.374   1.089   2.722
  301SOL    HW2  923   1.455   1.202   2.637
  302SOL     OW  924   1.466   0.590   2.854
  302SOL    HW1  925   1.436   0.495   2.861
  302SOL    HW2  926   1.539   0.606   2.920
  303SOL     OW  927   1.857   0.833   2.239
  303SOL    HW1  928   1.899   0.769   2.303
  303SOL    HW2  929   1.819   0.782   2.161
  304SOL     OW  930   0.488   1.385   2.036
  304SOL    HW1  931   0.401   1.370   2.083
  304SOL    HW2  932   0.471   1.411   1.941
  305SOL     OW  933   1.664   1.280   2.519
  305SOL    HW1  934   1.763   1.288   2.533
  305SOL    HW2  935   1.619   1.364   2.550
  306SOL     OW  936   1.390   0.575   1.940
  306SOL    HW1  937   1.336   0.554   2.021
  306SOL    HW2  938   1.481   0.534   1.949
  307SOL     OW  939   0.527   0.256   2.190
  307SOL    HW1  940   0.554   0.197   2.115
  307SOL    HW2  941   0.527   0.351   2.159
  308SOL     OW  942   1.754   1.223   3.450
  308SOL    HW1  943   1.845   1.184   3.437
  308SOL    HW2  944   1.762   1.319   3.474
  309SOL     OW  945   1.064   1.347   3.202
  309SOL    HW1  946   0.984   1.324   3.257
  309SOL    HW2  947   1.147   1.321   3.251
  310SOL     OW  948   1.592   1.629   3.487
  310SOL    HW1  949   1.619   1.663   3.397
  310SOL    HW2  950   1.671   1.591   3.533
  311SOL     OW  951   1.111   1.195   2.962
  311SOL    HW1  952   1.071   1.239   3.043
  311SOL    HW2  953   1.070   1.232   2.879
  312SOL     OW  954   1.638   1.099   2.941
  312SOL    HW1  955   1.643   1.180   3.000
  312SOL    HW2  956   1.552   1.101   2.890
  313SOL     OW  957   0.915   0.089   3.264
  313SOL    HW1  958   0.940   0.069   3.169
  313SOL    HW2  959   0.987   0.145   3.306
  314SOL     OW  960   0.980   1.116   3.581
  314SOL    HW1  961   0.881   1.122   3.591
  314SOL    HW2  962   1.003   1.036   3.525
  315SOL     OW  963   0.705   1.050   2.230
  315SOL    HW1  964   0.691   1.057   2.329
  315SOL    HW2  965   0.789   0.999   2.212
  316SOL     OW  966   0.410   0.813   3.113
  316SOL    HW1  967   0.496   0.825   3.163
  316SOL    HW2  968   0.368   0.726   3.140
  317SOL     OW  969   1.274   0.386   3.124
  317SOL    HW1  970   1.295   0.460   3.188
  317SOL    HW2  971   1.185   0.403   3.081
  318SOL     OW  972   0.064   1.564   3.193
  318SOL    HW1  973   0.018   1.646   3.159
  318SOL    HW2  974   0.162   1.583   3.202
  319SOL     OW  975   0.367   1.100   2.363
  319SOL    HW1  976   0.360   1.183   2.307
  319SOL    HW2  977   0.371   1.020   2.303
  320SOL     OW  978   0.566   0.537   2.727
  320SOL    HW1  979   0.578   0.603   2.653
  320SOL    HW2  980   0.612   0.571   2.810
  321SOL     OW  981   1.252   1.348   2.250
  321SOL    HW1  982   1.302   1.425   2.290
  321SOL    HW2  983   1.157   1.350   2.282
  322SOL     OW  984   1.272   1.445   3.004
  322SOL    HW1  985   1.319   1.458   3.091
  322SOL    HW2  986   1.206   1.371   3.013
  323SOL     OW  987   1.582   0.639   2.334
  323SOL    HW1  988   1.551   0.700   2.407
  323SOL    HW2  989   1.632   0.691   2.265
  324SOL     OW  990   0.354   1.510   3.191
  324SOL    HW1  991   0.333   1.466   3.104
  324SOL    HW2  992   0.451   1.536   3.194
  325SOL     OW  993   0.402   0.751   3.460
  325SOL    HW1  994   0.470   0.806   3.413
  325SOL    HW2  995   0.442   0.663   3.487
  326SOL     OW  996   1.587   0.779   3.532
  326SOL    HW1  997   1.495   0.817   3.527
  326SOL    HW2  998   1.647   0.826   3.467
  327SOL     OW  999   1.013   0.105   3.632
  327SOL    HW1 1000   1.019   0.190   3.580
  327SOL    HW2 1001   1.045   0.029   3.575
  328SOL     OW 1002   0.504   0.050   3.602
  328SOL    HW1 1003   0.462  -0.007   3.532
  328SOL    HW2 1004   0.438   0.119   3.634
  329SOL     OW 1005   0.573   0.870   2.891
  329SOL    HW1 1006   0.617   0.959   2.882
  329SOL    HW2 1007   0.510   0.870   2.968
  330SOL     OW 1008   1.360   0.862   2.907
  330SOL    HW1 1009   1.285   0.862   2.841
  330SOL    HW2 1010   1.397   0.770   2.916
  331SOL     OW 1011   1.209   0.525   2.137
  331SOL    HW1 1012   1.222   0.441   2.191
  331SOL    HW2 1013   1.180   0.599   2.197
  332SOL     OW 1014   0.307   0.213   3.093
  332SOL    HW1 1015   0.284   0.250   3.183
  332SOL    HW2 1016   0.277   0.118   3.087
  333SOL     OW 1017   0.037   1.310   3.144
  333SOL    HW1 1018   0.090   1.261   3.212
  333SOL    HW2 1019   0.059   1.408   3.149
  334SOL     OW 1020   0.732   0.634   2.926
  334SOL    HW1 1021   0.791   0.608   2.850
  334SOL    HW2 1022   0.704   0.730   2.915
  335SOL     OW 1023   1.728   0.935   3.716
  335SOL    HW1 1024   1.682   0.928   3.627
  335SOL    HW2 1025   1.666   0.979   3.782
  336SOL     OW 1026   0.307   0.063   2.480
  336SOL    HW1 1027   0.296   0.157   2.513
  336SOL    HW2 1028   0.302   0.000   2.557
  337SOL     OW 1029   1.622   0.367   2.236
  337SOL    HW1 1030   1.624   0.291   2.300
  337SOL    HW2 1031   1.574   0.444   2.276
  338SOL     OW 1032   1.023   0.766   2.828
  338SOL    HW1 1033   1.038   0.787   2.924
  338SOL    HW2 1034   0.993   0.671   2.819
  339SOL     OW 1035   0.980   1.573   3.562
  339SOL    HW1 1036   0.960   1.617   3.474
  339SOL    HW2 1037   1.019   1.482   3.546
  340SOL     OW 1038   1.859   1.518   3.467
  340SOL    HW1 1039   1.873   1.545   3.372
  340SOL    HW2 1040   1.942   1.540   3.520
  341SOL     OW 1041   0.350   0.898   3.666
  341SOL    HW1 1042   0.426   0.942   3.714
  341SOL    HW2 1043   0.385   0.851   3.584
  342SOL     OW 1044   1.540   0.274   1.987
  342SOL    HW1 1045   1.479   0.199   2.010
  342SOL    HW2 1046   1.562   0.326   2.070
  343SOL     OW 1047   1.303   0.838   1.904
  343SOL    HW1 1048   1.337   0.745   1.919
  343SOL    HW2 1049   1.321   0.865   1.809
  344SOL     OW 1050   1.068   1.333   2.711
  344SOL    HW1 1051   1.075   1.249   2.656
  344SOL    HW2 1052   1.130   1.402   2.675
  345SOL     OW 1053   0.319   0.810   2.811
  345SOL    HW1 1054   0.412   0.846   2.816
  345SOL    HW2 1055   0.313   0.725   2.863
  346SOL     OW 1056   0.339   0.509   2.868
  346SOL    HW1 1057   0.287   0.426   2.851
  346SOL    HW2 1058   0.416   0.514   2.804
  347SOL     OW 1059   1.138   0.380   3.540
  347SOL    HW1 1060   1.093   0.443   3.604
  347SOL    HW2 1061   1.231   0.411   3.523
  348SOL     OW 1062   1.160   0.207   3.339
  348SOL    HW1 1063   1.160   0.271   3.416
  348SOL    HW2 1064   1.188   0.255   3.256
  349SOL     OW 1065   0.008   1.326   2.062
  349SOL    HW1 1066  -0.085   1.347   2.031
  349SOL    HW2 1067   0.018   1.227   2.075
  350SOL     OW 1068   0.088   1.801   2.789
  350SOL    HW1 1069   0.046   1.715   2.762
  350SOL    HW2 1070   0.182   1.804   2.755
  351SOL     OW 1071   0.504   1.568   2.772
  351SOL    HW1 1072   0.570   1.642   2.781
  351SOL    HW2 1073   0.548   1.489   2.730
  352SOL     OW 1074   1.002   0.796   3.100
  352SOL    HW1 1075   1.043   0.764   3.186
  352SOL    HW2 1076   0.906   0.769   3.097
  353SOL     OW 1077   0.040   0.544   2.976
  353SOL    HW1 1078   0.125   0.511   2.935
  353SOL    HW2 1079   0.053   0.559   3.074
  354SOL     OW 1080   0.189   0.520   3.584
  354SOL    HW1 1081   0.248   0.480   3.514
  354SOL    HW2 1082   0.131   0.591   3.543
  355SOL     OW 1083   1.369   0.950   3.522
  355SOL    HW1 1084   1.408   1.039   3.542
  355SOL    HW2 1085   1.379   0.930   3.425
  356SOL     OW 1086   0.815   0.572   2.187
  356SOL    HW1 1087   0.822   0.483   2.141
  356SOL    HW2 1088   0.721   0.606   2.179
  357SOL     OW 1089   1.657   0.604   3.068
  357SOL    HW1 1090   1.619   0.535   3.130
  357SOL    HW2 1091   1.739   0.568   3.024
  358SOL     OW 1092   0.252   1.564   3.606
  358SOL    HW1 1093   0.222   1.621   3.682
  358SOL    HW2 1094   0.245   1.467   3.632
  359SOL     OW 1095   0.671   0.464   3.131
  359SOL    HW1 1096   0.637   0.375   3.101
  359SOL    HW2 1097   0.697   0.518   3.051
  360SOL     OW 1098   0.930   1.678   3.327
  360SOL    HW1 1099   0.906   1.660   3.232
  360SOL    HW2 1100   0.960   1.772   3.337
  361SOL     OW 1101   0.473   0.500   2.053
  361SOL    HW1 1102   0.534   0.580   2.057
  361SOL    HW2 1103   0.378   0.531   2.060
  362SOL     OW 1104   0.159   1.137   3.328
  362SOL    HW1 1105   0.181   1.076   3.404
  362SOL    HW2 1106   0.169   1.088   3.242
  363SOL     OW 1107   1.347   1.059   3.096
  363SOL    HW1 1108   1.371   0.996   3.022
  363SOL    HW2 1109   1.257   1.099   3.078
  364SOL     OW 1110   1.302   0.855   2.171
  364SOL    HW1 1111   1.216   0.824   2.213
  364SOL    HW2 1112   1.298   0.841   2.072
  365SOL     OW 1113   1.759   1.747   3.016
  365SOL    HW1 1114   1.820   1.777   2.943
  365SOL    HW2 1115   1.721   1.658   2.994
  366SOL     OW 1116   1.252   1.731   2.990
  366SOL    HW1 1117   1.336   1.736   2.936
  366SOL    HW2 1118   1.229   1.635   3.008
  367SOL     OW 1119   0.083   1.258   2.884
  367SOL    HW1 1120   0.078   1.257   2.984
  367SOL    HW2 1121   0.000   1.217   2.846
  368SOL     OW 1122   0.688   1.662   3.578
  368SOL    HW1 1123   0.632   1.743   3.587
  368SOL    HW2 1124   0.740   1.666   3.492
  369SOL     OW 1125   1.726   0.135   2.385
  369SOL    HW1 1126   1.799   0.118   2.318
  369SOL    HW2 1127   1.695   0.048   2.423
  370SOL     OW 1128   1.388   1.573   2.339
  370SOL    HW1 1129   1.455   1.585   2.265
  370SOL    HW2 1130   1.348   1.662   2.362
  371SOL     OW 1131   0.130   1.794   3.713
  371SOL    HW1 1132   0.089   1.720   3.766
  371SOL    HW2 1133   0.194   1.845   3.771
  372SOL     OW 1134   1.280   0.927   2.534
  372SOL    HW1 1135   1.340   0.846   2.536
  372SOL    HW2 1136   1.320   0.996   2.474
  373SOL     OW 1137   0.830   1.273   3.284
  373SOL    HW1 1138   0.825   1.306   3.379
  373SOL    HW2 1139   0.744   1.292   3.238
  374SOL     OW 1140   0.672   1.616   2.016
  374SOL    HW1 1141   0.681   1.626   1.917
  374SOL    HW2 1142   0.632   1.527   2.037
  375SOL     OW 1143   1.650   1.720   3.256
  375SOL    HW1 1144   1.703   1.730   3.172
  375SOL    HW2 1145   1.623   1.810   3.290
  376SOL     OW 1146   1.841   0.175   2.825
  376SOL    HW1 1147   1.880   0.090   2.789
  376SOL    HW2 1148   1.743   0.177   2.806
  377SOL     OW 1149   0.263   0.326   2.582
  377SOL    HW1 1150   0.184   0.377   2.548
  377SOL    HW2 1151   0.254   0.311   2.680
  378SOL     OW 1152   1.194   1.612   1.893
  378SOL    HW1 1153   1.200   1.519   1.930
  378SOL    HW2 1154   1.135   1.612   1.813
  379SOL     OW 1155   0.822   1.002   3.234
  379SOL    HW1 1156   0.862   1.001   3.142
  379SOL    HW2 1157   0.832   1.094   3.274
  380SOL     OW 1158   0.916   0.910   2.153
  380SOL    HW1 1159   0.979   0.948   2.085
  380SOL    HW2 1160   0.956   0.827   2.192
  381SOL     OW 1161   1.504   1.607   1.906
  381SOL    HW1 1162   1.412   1.644   1.913
  381SOL    HW2 1163   1.542   1.627   1.816
  382SOL     OW 1164   0.372   1.288   3.352
  382SOL    HW1 1165   0.359   1.381   3.318
  382SOL    HW2 1166   0.288   1.236   3.339
  383SOL     OW 1167   1.614   1.292   3.151
  383SOL    HW1 1168   1.674   1.295   3.231
  383SOL    HW2 1169   1.539   1.356   3.164
  384SOL     OW 1170   1.039   1.098   2.558
  384SOL    HW1 1171   0.969   1.051   2.612
  384SOL    HW2 1172   1.098   1.030   2.515
  385SOL     OW 1173   1.014   0.236   2.833
  385SOL    HW1 1174   1.006   0.200   2.740
  385SOL    HW2 1175   1.012   0.160   2.898
  386SOL     OW 1176   0.590   1.487   2.353
  386SOL    HW1 1177   0.632   1.429   2.283
  386SOL    HW2 1178   0.546   1.566   2.309
  387SOL     OW 1179   1.709   0.385   3.243
  387SOL    HW1 1180   1.782   0.454   3.247
  387SOL    HW2 1181   1.737   0.310   3.184
  388SOL     OW 1182   0.255   1.348   2.152
  388SOL    HW1 1183   0.159   1.349   2.125
  388SOL    HW2 1184   0.267   1.401   2.236
  389SOL     OW 1185   0.105   1.013   3.588
  389SOL    HW1 1186   0.028   0.980   3.642
  389SOL    HW2 1187   0.190   0.983   3.630
  390SOL     OW 1188   0.672   0.203   3.351
  390SOL    HW1 1189   0.762   0.187   3.311
  390SOL    HW2 1190   0.680   0.208   3.450
  391SOL     OW 1191   0.075   0.345   1.895
  391SOL    HW1 1192  -0.017   0.317   1.866
  391SOL    HW2 1193   0.106   0.422   1.839
  392SOL     OW 1194   1.440   0.856   3.260
  392SOL    HW1 1195   1.383   0.908   3.197
  392SOL    HW2 1196   1.536   0.868   3.236
  393SOL     OW 1197   0.072   0.166   2.180
  393SOL    HW1 1198   0.055   0.249   2.126
  393SOL    HW2 1199   0.162   0.129   2.158
  394SOL     OW 1200   1.183   1.335   1.981
  394SOL    HW1 1201   1.084   1.324   1.983
  394SOL    HW2 1202   1.217   1.350   2.074
  395SOL     OW 1203   0.613   0.842   3.293
  395SOL    HW1 1204   0.669   0.923   3.276
  395SOL    HW2 1205   0.672   0.762   3.296
  396SOL     OW 1206   1.493   1.767   2.821
  396SOL    HW1 1207   1.526   1.831   2.752
  396SOL    HW2 1208   1.559   1.761   2.896
  397SOL     OW 1209   0.716   0.565   3.570
  397SOL    HW1 1210   0.735   0.630   3.644
  397SOL    HW2 1211   0.776   0.485   3.579
  398SOL     OW 1212   1.450   1.220   3.495
  398SOL    HW1 1213   1.441   1.210   3.594
  398SOL    HW2 1214   1.546   1.213   3.469
  399SOL     OW 1215   0.390   1.741   3.422
  399SOL    HW1 1216   0.299   1.782   3.420
  399SOL    HW2 1217   0.383   1.647   3.454
  400SOL     OW 1218   1.674   0.883   3.116
  400SOL    HW1 1219   1.647   0.794   3.079
  400SOL    HW2 1220   1.675   0.951   3.043
  401SOL     OW 1221   1.225   0.325   2.311
  401SOL    HW1 1222   1.290   0.251   2.300
  401SOL    HW2 1223   1.245   0.375   2.395
  402SOL     OW 1224   0.594   0.745   2.514
  402SOL    HW1 1225   0.644   0.830   2.495
  402SOL    HW2 1226   0.506   0.747   2.466
  403SOL     OW 1227   1.777   0.342   3.504
  403SOL    HW1 1228   1.760   0.373   3.410
  403SOL    HW2 1229   1.693   0.305   3.542
  404SOL     OW 1230   1.730   0.934   3.379
  404SOL    HW1 1231   1.768   1.025   3.394
  404SOL    HW2 1232   1.722   0.917   3.280
  405SOL     OW 1233   0.859   1.374   1.878
  405SOL    HW1 1234   0.813   1.389   1.966
  405SOL    HW2 1235   0.903   1.459   1.848
  406SOL     OW 1236   0.661   1.790   2.815
  406SOL    HW1 1237   0.615   1.878   2.802
  406SOL    HW2 1238   0.760   1.802   2.808
  407SOL     OW 1239   0.859   0.956   2.723
  407SOL    HW1 1240   0.913   0.887   2.771
  407SOL    HW2 1241   0.827   1.025   2.789
  408SOL     OW 1242   1.083   0.984   1.949
  408SOL    HW1 1243   1.060   1.037   1.867
  408SOL    HW2 1244   1.164   0.928   1.930
  409SOL     OW 1245   1.861   1.569   2.713
  409SOL    HW1 1246   1.790   1.557   2.643
  409SOL    HW2 1247   1.862   1.490   2.773
  410SOL     OW 1248   0.221   1.314   3.706
  410SOL    HW1 1249   0.156   1.241   3.685
  410SOL    HW2 1250   0.225   1.328   3.804
  411SOL     OW 1251   0.079   1.240   2.515
  411SOL    HW1 1252   0.078   1.193   2.603
  411SOL    HW2 1253   0.161   1.212   2.464
  412SOL     OW 1254   0.672   1.391   3.486
  412SOL    HW1 1255   0.594   1.341   3.524
  412SOL    HW2 1256   0.669   1.486   3.517
  413SOL     OW 1257   1.824   0.192   3.089
  413SOL    HW1 1258   1.820   0.102   3.133
  413SOL    HW2 1259   1.827   0.181   2.990
  414SOL     OW 1260   0.428   0.424   2.382
  414SOL    HW1 1261   0.458   0.352   2.320
  414SOL    HW2 1262   0.389   0.384   2.465
  415SOL     OW 1263   1.705   1.487   2.966
  415SOL    HW1 1264   1.612   1.462   2.939
  415SOL    HW2 1265   1.731   1.437   3.048
  416SOL     OW 1266   0.317   0.547   3.142
  416SOL    HW1 1267   0.355   0.488   3.214
  416SOL    HW2 1268   0.357   0.521   3.054
  417SOL     OW 1269   0.812   1.586   2.549
  417SOL    HW1 1270   0.844   1.596   2.455
  417SOL    HW2 1271   0.733   1.524   2.551
  418SOL     OW 1272   1.424   0.214   2.974
  418SOL    HW1 1273   1.476   0.149   3.029
  418SOL    HW2 1274   1.375   0.277   3.035
  419SOL     OW 1275   1.001   0.034   3.016
  419SOL    HW1 1276   0.938  -0.038   2.985
  419SOL    HW2 1277   1.094  -0.002   3.016
  420SOL     OW 1278   0.770   1.330   2.163
  420SOL    HW1 1279   0.724   1.243   2.180
  420SOL    HW2 1280   0.861   1.327   2.204
  421SOL     OW 1281   0.618   1.567   3.146
  421SOL    HW1 1282   0.613   1.649   3.203
  421SOL    HW2 1283   0.707   1.564   3.101
  422SOL     OW 1284   1.352   0.052   2.030
  422SOL    HW1 1285   1.387   0.011   1.946
  422SOL    HW2 1286   1.262   0.014   2.050
  423SOL     OW 1287   1.300   0.453   2.553
  423SOL    HW1 1288   1.241   0.533   2.557
  423SOL    HW2 1289   1.315   0.418   2.646
  424SOL     OW 1290   1.593   0.221   2.744
  424SOL    HW1 1291   1.509   0.220   2.798
  424SOL    HW2 1292   1.595   0.304   2.688
  425SOL     OW 1293   0.039   1.077   2.162
  425SOL    HW1 1294   0.138   1.066   2.153
  425SOL    HW2 1295  -0.001   0.991   2.194
  426SOL     OW 1296   0.875   1.646   2.199
  426SOL    HW1 1297   0.798   1.611   2.145
  426SOL    HW2 1298   0.843   1.717   2.261
  427SOL     OW 1299   0.230   0.628   3.837
  427SOL    HW1 1300   0.137   0.626   3.874
  427SOL    HW2 1301   0.231   0.589   3.745
  428SOL     OW 1302   0.019   0.368   4.371
  428SOL    HW1 1303  -0.063   0.411   4.410
  428SOL    HW2 1304  -0.009   0.295   4.308
  429SOL     OW 1305   1.555   1.511   4.427
  429SOL    HW1 1306   1.498   1.495   4.508
  429SOL    HW2 1307   1.496   1.521   4.347
  430SOL     OW 1308   1.135   0.703   4.441
  430SOL    HW1 1309   1.192   0.781   4.416
  430SOL    HW2 1310   1.075   0.729   4.517
  431SOL     OW 1311   1.755   0.607   3.955
  431SOL    HW1 1312   1.743   0.594   3.856
  431SOL    HW2 1313   1.725   0.526   4.004
  432SOL     OW 1314   0.685   1.012   4.389
  432SOL    HW1 1315   0.754   0.996   4.459
  432SOL    HW2 1316   0.612   1.069   4.427
  433SOL     OW 1317   1.603   0.447   4.461
  433SOL    HW1 1318   1.529   0.493   4.411
  433SOL    HW2 1319   1.654   0.515   4.514
  434SOL     OW 1320   0.231   1.713   4.207
  434SOL    HW1 1321   0.265   1.790   4.261
  434SOL    HW2 1322   0.275   1.713   4.117
  435SOL     OW 1323   0.230   1.434   4.262
  435SOL    HW1 1324   0.204   1.530   4.262
  435SOL    HW2 1325   0.159   1.380   4.307
  436SOL     OW 1326   0.240   1.091   4.610
  436SOL    HW1 1327   0.254   1.007   4.662
  436SOL    HW2 1328   0.185   1.155   4.665
  437SOL     OW 1329   0.606   0.964   3.847
  437SOL    HW1 1330   0.613   1.048   3.793
  437SOL    HW2 1331   0.652   0.977   3.935
  438SOL     OW 1332   0.122   0.643   4.287
  438SOL    HW1 1333   0.077   0.555   4.304
  438SOL    HW2 1334   0.121   0.697   4.371
  439SOL     OW 1335   1.842   1.767   4.083
  439SOL    HW1 1336   1.896   1.738   4.163
  439SOL    HW2 1337   1.872   1.857   4.054
  440SOL     OW 1338   0.027   1.596   3.841
  440SOL    HW1 1339   0.008   1.500   3.862
  440SOL    HW2 1340  -0.006   1.654   3.916
  441SOL     OW 1341   1.689   0.922   4.336
  441SOL    HW1 1342   1.784   0.893   4.344
  441SOL    HW2 1343   1.681   0.987   4.261
  442SOL     OW 1344   1.641   1.108   4.156
  442SOL    HW1 1345   1.727   1.110   4.104
  442SOL    HW2 1346   1.655   1.155   4.244
  443SOL     OW 1347   0.613   1.365   4.450
  443SOL    HW1 1348   0.564   1.278   4.459
  443SOL    HW2 1349   0.590   1.408   4.363
  444SOL     OW 1350   0.809   0.004   4.226
  444SOL    HW1 1351   0.849   0.095   4.217
  444SOL    HW2 1352   0.709   0.012   4.232
  445SOL     OW 1353   1.525   0.999   3.914
  445SOL    HW1 1354   1.462   0.923   3.927
  445SOL    HW2 1355   1.573   1.017   4.000
  446SOL     OW 1356   1.466   1.417   4.677
  446SOL    HW1 1357   1.407   1.423   4.757
  446SOL    HW2 1358   1.451   1.329   4.631
  447SOL     OW 1359   1.667   1.714   4.296
  447SOL    HW1 1360   1.626   1.691   4.208
  447SOL    HW2 1361   1.649   1.640   4.361
  448SOL     OW 1362   0.598   0.729   3.994
  448SOL    HW1 1363   0.622   0.798   3.926
  448SOL    HW2 1364   0.520   0.762   4.048
  449SOL     OW 1365   1.281   0.345   4.668
  449SOL    HW1 1366   1.195   0.295   4.655
  449SOL    HW2 1367   1.343   0.291   4.724
  450SOL     OW 1368   1.576   1.662   4.031
  450SOL    HW1 1369   1.665   1.708   4.034
  450SOL    HW2 1370   1.555   1.638   3.936
  451SOL     OW 1371   1.041   0.701   4.153
  451SOL    HW1 1372   1.067   0.697   4.249
  451SOL    HW2 1373   0.956   0.650   4.139
  452SOL     OW 1374   0.076   0.811   4.513
  452SOL    HW1 1375   0.175   0.799   4.522
  452SOL    HW2 1376   0.052   0.906   4.534
  453SOL     OW 1377   0.865   0.348   3.919
  453SOL    HW1 1378   0.924   0.411   3.870
  453SOL    HW2 1379   0.884   0.254   3.890
  454SOL     OW 1380   1.362   1.144   4.269
  454SOL    HW1 1381   1.445   1.115   4.221
  454SOL    HW2 1382   1.313   1.211   4.213
  455SOL     OW 1383   1.008   1.456   4.201
  455SOL    HW1 1384   0.962   1.528   4.149
  455SOL    HW2 1385   1.004   1.476   4.299
  456SOL     OW 1386   0.351   1.801   4.577
  456SOL    HW1 1387   0.401   1.715   4.583
  456SOL    HW2 1388   0.416   1.878   4.574
  457SOL     OW 1389   1.795   1.066   4.597
  457SOL    HW1 1390   1.733   1.051   4.521
  457SOL    HW2 1391   1.743   1.077   4.682
  458SOL     OW 1392   0.321   0.943   3.966
  458SOL    HW1 1393   0.403   0.982   3.924
  458SOL    HW2 1394   0.294   0.861   3.917
  459SOL     OW 1395   1.458   0.735   4.452
  459SOL    HW1 1396   1.453   0.670   4.527
  459SOL    HW2 1397   1.538   0.794   4.465
  460SOL     OW 1398   1.111   1.776   3.961
  460SOL    HW1 1399   1.051   1.714   4.011
  460SOL    HW2 1400   1.142   1.732   3.876
  461SOL     OW 1401   1.632   1.377   3.805
  461SOL    HW1 1402   1.600   1.471   3.795
  461SOL    HW2 1403   1.556   1.314   3.793
  462SOL     OW 1404   0.464   1.743   4.047
  462SOL    HW1 1405   0.497   1.782   4.133
  462SOL    HW2 1406   0.540   1.736   3.982
  463SOL     OW 1407   1.400   0.107   4.150
  463SOL    HW1 1408   1.376   0.070   4.060
  463SOL    HW2 1409   1.499   0.123   4.154
  464SOL     OW 1410   0.382   0.700   4.204
  464SOL    HW1 1411   0.427   0.610   4.201
  464SOL    HW2 1412   0.288   0.689   4.237
  465SOL     OW 1413   0.614   0.122   3.841
  465SOL    HW1 1414   0.712   0.100   3.848
  465SOL    HW2 1415   0.583   0.105   3.748
  466SOL     OW 1416   0.539   0.064   4.236
  466SOL    HW1 1417   0.458   0.065   4.294
  466SOL    HW2 1418   0.542   0.147   4.181
  467SOL     OW 1419   1.434   1.188   3.765
  467SOL    HW1 1420   1.466   1.112   3.822
  467SOL    HW2 1421   1.342   1.215   3.795
  468SOL     OW 1422   0.297   0.035   3.895
  468SOL    HW1 1423   0.346   0.119   3.874
  468SOL    HW2 1424   0.359  -0.030   3.940
  469SOL     OW 1425   0.935   0.236   4.204
  469SOL    HW1 1426   0.887   0.277   4.126
  469SOL    HW2 1427   1.034   0.234   4.185
  470SOL     OW 1428   1.227   1.570   4.517
  470SOL    HW1 1429   1.248   1.644   4.452
  470SOL    HW2 1430   1.295   1.570   4.590
  471SOL     OW 1431   0.459   1.152   4.465
  471SOL    HW1 1432   0.388   1.125   4.530
  471SOL    HW2 1433   0.433   1.124   4.372
  472SOL     OW 1434   1.271   1.797   4.315
  472SOL    HW1 1435   1.315   1.861   4.251
  472SOL    HW2 1436   1.221   1.849   4.385
  473SOL     OW 1437   1.032   0.549   3.740
  473SOL    HW1 1438   0.991   0.631   3.701
  473SOL    HW2 1439   1.096   0.575   3.813
  474SOL     OW 1440   0.866   0.454   4.366
  474SOL    HW1 1441   0.834   0.526   4.304
  474SOL    HW2 1442   0.890   0.373   4.313
  475SOL     OW 1443   1.017   0.039   4.477
  475SOL    HW1 1444   0.945   0.044   4.408
  475SOL    HW2 1445   0.993  -0.030   4.546
  476SOL     OW 1446   1.857   0.833   4.101
  476SOL    HW1 1447   1.899   0.769   4.165
  476SOL    HW2 1448   1.819   0.782   4.023
  477SOL     OW 1449   0.488   1.385   3.898
  477SOL    HW1 1450   0.401   1.370   3.945
  477SOL    HW2 1451   0.471   1.411   3.803
  478SOL     OW 1452   1.664   1.280   4.381
  478SOL    HW1 1453   1.763   1.288   4.395
  478SOL    HW2 1454   1.619   1.364   4.412
  479SOL     OW 1455   1.390   0.575   3.802
  479SOL    HW1 1456   1.336   0.554   3.883
  479SOL    HW2 1457   1.481   0.534   3.811
  480SOL     OW 1458   0.527   0.256   4.052
  480SOL    HW1 1459   0.554   0.197   3.977
  480SOL    HW2 1460   0.527   0.351   4.021
  481SOL     OW 1461   0.705   1.050   4.092
  481SOL    HW1 1462   0.691   1.057   4.191
  481SOL    HW2 1463   0.789   0.999   4.074
  482SOL     OW 1464   0.367   1.100   4.225
  482SOL    HW1 1465   0.360   1.183   4.169
  482SOL    HW2 1466   0.371   1.020   4.165
  483SOL     OW 1467   0.566   0.537   4.589
  483SOL    HW1 1468   0.578   0.603   4.515
  483SOL    HW2 1469   0.612   0.571   4.672
  484SOL     OW 1470   1.252   1.348   4.112
  484SOL    HW1 1471   1.302   1.425   4.152
  484SOL    HW2 1472   1.157   1.350   4.144
  485SOL     OW 1473   1.582   0.639   4.196
  485SOL    HW1 1474   1.551   0.700   4.269
  485SOL    HW2 1475   1.632   0.691   4.127
  486SOL     OW 1476   1.209   0.525   3.999
  486SOL    HW1 1477   1.222   0.441   4.053
  486SOL    HW2 1478   1.180   0.599   4.059
  487SOL     OW 1479   0.732   0.634   4.788
  487SOL    HW1 1480   0.791   0.608   4.712
  487SOL    HW2 1481   0.704   0.730   4.777
  488SOL     OW 1482   0.307   0.063   4.342
  488SOL    HW1 1483   0.296   0.157   4.375
  488SOL    HW2 1484   0.302   0.000   4.419
  489SOL     OW 1485   1.622   0.367   4.098
  489SOL    HW1 1486   1.624   0.291   4.162
  489SOL    HW2 1487   1.574   0.444   4.138
  490SOL     OW 1488   1.540   0.274   3.849
  490SOL    HW1 1489   1.479   0.199   3.872
  490SOL    HW2 1490   1.562   0.326   3.932
  491SOL     OW 1491   1.303   0.838   3.766
  491SOL    HW1 1492   1.337   0.745   3.781
  491SOL    HW2 1493   1.321   0.865   3.671
  492SOL     OW 1494   1.068   1.333   4.573
  492SOL    HW1 1495   1.075   1.249   4.518
  492SOL    HW2 1496   1.130   1.402   4.537
  493SOL     OW 1497   0.008   1.326   3.924
  493SOL    HW1 1498  -0.085   1.347   3.893
  493SOL    HW2 1499   0.018   1.227   3.937
  494SOL     OW 1500   0.088   1.801   4.651
  494SOL    HW1 1501   0.046   1.715   4.624
  494SOL    HW2 1502   0.182   1.804   4.617
  495SOL     OW 1503   0.504   1.568   4.634
  495SOL    HW1 1504   0.570   1.642   4.643
  495SOL    HW2 1505   0.548   1.489   4.592
  496SOL     OW 1506   0.815   0.572   4.049
  496SOL    HW1 1507   0.822   0.483   4.003
  496SOL    HW2 1508   0.721   0.606   4.041
  497SOL     OW 1509   0.473   0.500   3.915
  497SOL    HW1 1510   0.534   0.580   3.919
  497SOL    HW2 1511   0.378   0.531   3.922
  498SOL     OW 1512   1.302   0.855   4.033
  498SOL    HW1 1513   1.216   0.824   4.075
  498SOL    HW2 1514   1.298   0.841   3.934
  499SOL     OW 1515   1.759   1.747   4.878
  499SOL    HW1 1516   1.820   1.777   4.805
  499SOL    HW2 1517   1.721   1.658   4.856
  500SOL     OW 1518   1.726   0.135   4.247
  500SOL    HW1 1519   1.799   0.118   4.180
  500SOL    HW2 1520   1.695   0.048   4.285
  501SOL     OW 1521   1.388   1.573   4.201
  501SOL    HW1 1522   1.455   1.585   4.127
  501SOL    HW2 1523   1.348   1.662   4.224
  502SOL     OW 1524   1.280   0.927   4.396
  502SOL    HW1 1525   1.340   0.846   4.398
  502SOL    HW2 1526   1.320   0.996   4.336
  503SOL     OW 1527   0.672   1.616   3.878
  503SOL    HW1 1528   0.681   1.626   3.779
  503SOL    HW2 1529   0.632   1.527   3.899
  504SOL     OW 1530   1.841   0.175   4.687
  504SOL    HW1 1531   1.880   0.090   4.651
  504SOL    HW2 1532   1.743   0.177   4.668
  505SOL     OW 1533   0.263   0.326   4.444
  505SOL    HW1 1534   0.184   0.377   4.410
  505SOL    HW2 1535   0.254   0.311   4.542
  506SOL     OW 1536   1.194   1.612   3.755
  506SOL    HW1 1537   1.200   1.519   3.792
  506SOL    HW2 1538   1.135   1.612   3.675
  507SOL     OW 1539   0.916   0.910   4.015
  507SOL    HW1 1540   0.979   0.948   3.947
  507SOL    HW2 1541   0.956   0.827   4.054
  508SOL     OW 1542   1.504   1.607   3.768
  508SOL    HW1 1543   1.412   1.644   3.775
  508SOL    HW2 1544   1.542   1.627   3.678
  509SOL     OW 1545   1.039   1.098   4.420
  509SOL    HW1 1546   0.969   1.051   4.474
  509SOL    HW2 1547   1.098   1.030   4.377
  510SOL     OW 1548   0.590   1.487   4.215
  510SOL    HW1 1549   0.632   1.429   4.145
  510SOL    HW2 1550   0.546   1.566   4.171
  511SOL     OW 1551   0.255   1.348   4.014
  511SOL    HW1 1552   0.159   1.349   3.987
  511SOL    HW2 1553   0.267   1.401   4.098
  512SOL     OW 1554   0.075   0.345   3.757
  512SOL    HW1 1555  -0.017   0.317   3.728
  512SOL    HW2 1556   0.106   0.422   3.701
  513SOL     OW 1557   0.072   0.166   4.042
  513SOL    HW1 1558   0.055   0.249   3.988
  513SOL    HW2 1559   0.162   0.129   4.020
  514SOL     OW 1560   1.183   1.335   3.843
  514SOL    HW1 1561   1.084   1.324   3.845
  514SOL    HW2 1562   1.217   1.350   3.936
  515SOL     OW 1563   1.225   0.325   4.173
  515SOL    HW1 1564   1.290   0.251   4.162
  515SOL    HW2 1565   1.245   0.375   4.257
  516SOL     OW 1566   0.594   0.745   4.376
  516SOL    HW1 1567   0.644   0.830   4.357
  516SOL    HW2 1568   0.506   0.747   4.328
  517SOL     OW 1569   0.859   1.374   3.740
  517SOL    HW1 1570   0.813   1.389   3.828
  517SOL    HW2 1571   0.903   1.459   3.710
  518SOL     OW 1572   0.661   1.790   4.677
  518SOL    HW1 1573   0.615   1.878   4.664
  518SOL    HW2 1574   0.760   1.802   4.670
  519SOL     OW 1575   0.859   0.956   4.585
  519SOL    HW1 1576   0.913   0.887   4.633
  519SOL    HW2 1577   0.827   1.025   4.651
  520SOL     OW 1578   1.083   0.984   3.811
  520SOL    HW1 1579   1.060   1.037   3.729
  520SOL    HW2 1580   1.164   0.928   3.792
  521SOL     OW 1581   1.861   1.569   4.575
  521SOL    HW1 1582   1.790   1.557   4.505
  521SOL    HW2 1583   1.862   1.490   4.635
  522SOL     OW 1584   0.079   1.240   4.377
  522SOL    HW1 1585   0.078   1.193   4.465
  522SOL    HW2 1586   0.161   1.212   4.326
  523SOL     OW 1587   1.824   0.192   4.951
  523SOL    HW1 1588   1.820   0.102   4.995
  523SOL    HW2 1589   1.827   0.181   4.852
  524SOL     OW 1590   0.428   0.424   4.244
  524SOL    HW1 1591   0.458   0.352   4.182
  524SOL    HW2 1592   0.389   0.384   4.327
  525SOL     OW 1593   0.812   1.586   4.411
  525SOL    HW1 1594   0.844   1.596   4.317
  525SOL    HW2 1595   0.733   1.524   4.413
  526SOL     OW 1596   0.770   1.330   4.025
  526SOL    HW1 1597   0.724   1.243   4.042
  526SOL    HW2 1598   0.861   1.327   4.066
  527SOL     OW 1599   1.352   0.052   3.892
  527SOL    HW1 1600   1.387   0.011   3.808
  527SOL    HW2 1601   1.262   0.014   3.912
  528SOL     OW 1602   1.300   0.453   4.415
  528SOL    HW1 1603   1.241   0.533   4.419
  528SOL    HW2 1604   1.315   0.418   4.508
  529SOL     OW 1605   1.593   0.221   4.606
  529SOL    HW1 1606   1.509   0.220   4.660
  529SOL    HW2 1607   1.595   0.304   4.550
  530SOL     OW 1608   0.039   1.077   4.024
  530SOL    HW1 1609   0.138   1.066   4.015
  530SOL    HW2 1610  -0.001   0.991   4.056
  531SOL     OW 1611   0.875   1.646   4.061
  531SOL    HW1 1612   0.798   1.611   4.007
  531SOL    HW2 1613   0.843   1.717   4.123
  532SOL     OW 1614   0.230   2.490   0.113
  532SOL    HW1 1615   0.137   2.488   0.150
  532SOL    HW2 1616   0.231   2.451   0.021
  533SOL     OW 1617   0.225   2.137   0.996
  533SOL    HW1 1618   0.260   2.120   1.088
  533SOL    HW2 1619   0.137   2.092   0.984
  534SOL     OW 1620   0.019   2.230   0.647
  534SOL    HW1 1621  -0.063   2.273   0.686
  534SOL    HW2 1622  -0.009   2.157   0.584
  535SOL     OW 1623   0.569   3.137   1.165
  535SOL    HW1 1624   0.476   3.130   1.128
  535SOL    HW2 1625   0.580   3.226   1.209
  536SOL     OW 1626   1.555   3.373   0.703
  536SOL    HW1 1627   1.498   3.357   0.784
  536SOL    HW2 1628   1.496   3.383   0.623
  537SOL     OW 1629   1.135   2.565   0.717
  537SOL    HW1 1630   1.192   2.643   0.692
  537SOL    HW2 1631   1.075   2.591   0.793
  538SOL     OW 1632   1.755   2.469   0.231
  538SOL    HW1 1633   1.743   2.456   0.132
  538SOL    HW2 1634   1.725   2.388   0.280
  539SOL     OW 1635   0.768   3.006   1.023
  539SOL    HW1 1636   0.690   3.023   1.083
  539SOL    HW2 1637   0.802   3.093   0.987
  540SOL     OW 1638   0.850   2.660   1.823
  540SOL    HW1 1639   0.846   2.736   1.888
  540SOL    HW2 1640   0.872   2.696   1.732
  541SOL     OW 1641   0.685   2.874   0.665
  541SOL    HW1 1642   0.754   2.858   0.735
  541SOL    HW2 1643   0.612   2.931   0.703
  542SOL     OW 1644   0.686   3.023   1.803
  542SOL    HW1 1645   0.746   3.102   1.817
  542SOL    HW2 1646   0.600   3.054   1.762
  543SOL     OW 1647   0.335   3.297   1.061
  543SOL    HW1 1648   0.257   3.266   1.008
  543SOL    HW2 1649   0.393   3.355   1.004
  544SOL     OW 1650   1.460   3.367   1.339
  544SOL    HW1 1651   1.484   3.461   1.365
  544SOL    HW2 1652   1.444   3.313   1.421
  545SOL     OW 1653   0.438   2.254   1.499
  545SOL    HW1 1654   0.520   2.198   1.508
  545SOL    HW2 1655   0.357   2.196   1.503
  546SOL     OW 1656   1.603   2.309   0.737
  546SOL    HW1 1657   1.529   2.355   0.687
  546SOL    HW2 1658   1.654   2.377   0.790
  547SOL     OW 1659   0.231   3.575   0.483
  547SOL    HW1 1660   0.265   3.652   0.537
  547SOL    HW2 1661   0.275   3.575   0.393
  548SOL     OW 1662   1.127   3.203   1.690
  548SOL    HW1 1663   1.174   3.203   1.778
  548SOL    HW2 1664   1.079   3.116   1.679
  549SOL     OW 1665   0.230   3.296   0.538
  549SOL    HW1 1666   0.204   3.392   0.538
  549SOL    HW2 1667   0.159   3.242   0.583
  550SOL     OW 1668   0.240   2.953   0.886
  550SOL    HW1 1669   0.254   2.869   0.938
  550SOL    HW2 1670   0.185   3.017   0.941
  551SOL     OW 1671   0.620   3.648   1.439
  551SOL    HW1 1672   0.528   3.631   1.474
  551SOL    HW2 1673   0.648   3.740   1.465
  552SOL     OW 1674   0.606   2.826   0.123
  552SOL    HW1 1675   0.613   2.910   0.069
  552SOL    HW2 1676   0.652   2.839   0.211
  553SOL     OW 1677   1.594   1.976   1.480
  553SOL    HW1 1678   1.576   2.043   1.408
  553SOL    HW2 1679   1.591   2.022   1.569
  554SOL     OW 1680   0.122   2.505   0.563
  554SOL    HW1 1681   0.077   2.417   0.580
  554SOL    HW2 1682   0.121   2.559   0.647
  555SOL     OW 1683   1.842   3.629   0.359
  555SOL    HW1 1684   1.896   3.600   0.439
  555SOL    HW2 1685   1.872   3.719   0.330
  556SOL     OW 1686   0.027   3.458   0.117
  556SOL    HW1 1687   0.008   3.362   0.138
  556SOL    HW2 1688  -0.006   3.516   0.192
  557SOL     OW 1689   1.689   2.784   0.612
  557SOL    HW1 1690   1.784   2.755   0.620
  557SOL    HW2 1691   1.681   2.849   0.537
  558SOL     OW 1692   1.641   2.970   0.432
  558SOL    HW1 1693   1.727   2.972   0.380
  558SOL    HW2 1694   1.655   3.017   0.520
  559SOL     OW 1695   0.113   2.599   1.597
  559SOL    HW1 1696   0.201   2.586   1.642
  559SOL    HW2 1697   0.100   2.696   1.575
  560SOL     OW 1698   0.613   3.227   0.726
  560SOL    HW1 1699   0.564   3.140   0.735
  560SOL    HW2 1700   0.590   3.270   0.639
  561SOL     OW 1701   1.293   3.090   1.423
  561SOL    HW1 1702   1.330   3.017   1.365
  561SOL    HW2 1703   1.345   3.095   1.508
  562SOL     OW 1704   0.809   1.866   0.502
  562SOL    HW1 1705   0.849   1.957   0.493
  562SOL    HW2 1706   0.709   1.874   0.508
  563SOL     OW 1707   0.197   2.838   1.264
  563SOL    HW1 1708   0.286   2.793   1.250
  563SOL    HW2 1709   0.124   2.773   1.245
  564SOL     OW 1710   1.525   2.861   0.190
  564SOL    HW1 1711   1.462   2.785   0.203
  564SOL    HW2 1712   1.573   2.879   0.276
  565SOL     OW 1713   1.187   3.654   1.616
  565SOL    HW1 1714   1.211   3.714   1.540
  565SOL    HW2 1715   1.194   3.559   1.586
  566SOL     OW 1716   0.317   2.113   1.801
  566SOL    HW1 1717   0.388   2.184   1.807
  566SOL    HW2 1718   0.229   2.152   1.829
  567SOL     OW 1719   1.466   3.279   0.953
  567SOL    HW1 1720   1.407   3.285   1.033
  567SOL    HW2 1721   1.451   3.191   0.907
  568SOL     OW 1722   1.667   3.576   0.572
  568SOL    HW1 1723   1.626   3.553   0.484
  568SOL    HW2 1724   1.649   3.502   0.637
  569SOL     OW 1725   0.598   2.591   0.270
  569SOL    HW1 1726   0.622   2.660   0.202
  569SOL    HW2 1727   0.520   2.624   0.324
  570SOL     OW 1728   1.281   2.207   0.944
  570SOL    HW1 1729   1.195   2.157   0.931
  570SOL    HW2 1730   1.343   2.153   1.000
  571SOL     OW 1731   1.576   3.524   0.307
  571SOL    HW1 1732   1.665   3.570   0.310
  571SOL    HW2 1733   1.555   3.500   0.212
  572SOL     OW 1734   0.807   2.467   1.465
  572SOL    HW1 1735   0.760   2.464   1.554
  572SOL    HW2 1736   0.756   2.412   1.399
  573SOL     OW 1737   1.394   2.331   1.674
  573SOL    HW1 1738   1.374   2.374   1.762
  573SOL    HW2 1739   1.472   2.269   1.683
  574SOL     OW 1740   0.973   2.752   1.572
  574SOL    HW1 1741   1.019   2.668   1.543
  574SOL    HW2 1742   0.917   2.786   1.497
  575SOL     OW 1743   0.991   2.272   1.242
  575SOL    HW1 1744   0.914   2.306   1.296
  575SOL    HW2 1745   0.957   2.221   1.163
  576SOL     OW 1746   1.041   2.563   0.429
  576SOL    HW1 1747   1.067   2.559   0.525
  576SOL    HW2 1748   0.956   2.512   0.415
  577SOL     OW 1749   0.076   2.673   0.789
  577SOL    HW1 1750   0.175   2.661   0.798
  577SOL    HW2 1751   0.052   2.768   0.810
  578SOL     OW 1752   0.130   3.683   1.571
  578SOL    HW1 1753   0.120   3.668   1.670
  578SOL    HW2 1754   0.044   3.719   1.535
  579SOL     OW 1755   0.865   2.210   0.195
  579SOL    HW1 1756   0.924   2.273   0.146
  579SOL    HW2 1757   0.884   2.116   0.166
  580SOL     OW 1758   1.719   2.447   1.831
  580SOL    HW1 1759   1.693   2.536   1.795
  580SOL    HW2 1760   1.717   2.379   1.758
  581SOL     OW 1761   1.362   3.006   0.545
  581SOL    HW1 1762   1.445   2.977   0.497
  581SOL    HW2 1763   1.313   3.073   0.489
  582SOL     OW 1764   0.550   2.058   0.885
  582SOL    HW1 1765   0.545   2.053   0.985
  582SOL    HW2 1766   0.552   2.154   0.856
  583SOL     OW 1767   1.008   3.318   0.477
  583SOL    HW1 1768   0.962   3.390   0.425
  583SOL    HW2 1769   1.004   3.338   0.575
  584SOL     OW 1770   0.351   3.663   0.853
  584SOL    HW1 1771   0.401   3.577   0.859
  584SOL    HW2 1772   0.416   3.740   0.850
  585SOL     OW 1773   1.795   2.928   0.873
  585SOL    HW1 1774   1.733   2.913   0.797
  585SOL    HW2 1775   1.743   2.939   0.958
  586SOL     OW 1776   1.227   3.412   1.506
  586SOL    HW1 1777   1.233   3.335   1.570
  586SOL    HW2 1778   1.175   3.386   1.426
  587SOL     OW 1779   0.321   2.805   0.242
  587SOL    HW1 1780   0.403   2.844   0.200
  587SOL    HW2 1781   0.294   2.723   0.193
  588SOL     OW 1782   1.458   2.597   0.728
  588SOL    HW1 1783   1.453   2.532   0.803
  588SOL    HW2 1784   1.538   2.656   0.741
  589SOL     OW 1785   0.461   3.128   1.727
  589SOL    HW1 1786   0.411   3.129   1.641
  589SOL    HW2 1787   0.398   3.110   1.803
  590SOL     OW 1788   1.111   3.638   0.237
  590SOL    HW1 1789   1.051   3.576   0.287
  590SOL    HW2 1790   1.142   3.594   0.152
  591SOL     OW 1791   0.202   2.147   1.498
  591SOL    HW1 1792   0.122   2.207   1.485
  591SOL    HW2 1793   0.192   2.098   1.584
  592SOL     OW 1794   1.632   3.239   0.081
  592SOL    HW1 1795   1.600   3.333   0.071
  592SOL    HW2 1796   1.556   3.176   0.069
  593SOL     OW 1797   0.464   3.605   0.323
  593SOL    HW1 1798   0.497   3.644   0.409
  593SOL    HW2 1799   0.540   3.598   0.258
  594SOL     OW 1800   1.400   1.969   0.426
  594SOL    HW1 1801   1.376   1.932   0.336
  594SOL    HW2 1802   1.499   1.985   0.430
  595SOL     OW 1803   0.249   3.647   1.241
  595SOL    HW1 1804   0.306   3.582   1.291
  595SOL    HW2 1805   0.233   3.614   1.148
  596SOL     OW 1806   0.940   3.560   0.904
  596SOL    HW1 1807   1.020   3.503   0.925
  596SOL    HW2 1808   0.891   3.520   0.827
  597SOL     OW 1809   0.382   2.562   0.480
  597SOL    HW1 1810   0.427   2.472   0.477
  597SOL    HW2 1811   0.288   2.551   0.513
  598SOL     OW 1812   1.547   2.084   1.729
  598SOL    HW1 1813   1.542   2.121   1.821
  598SOL    HW2 1814   1.475   2.015   1.717
  599SOL     OW 1815   0.781   2.126   1.749
  599SOL    HW1 1816   0.848   2.065   1.792
  599SOL    HW2 1817   0.708   2.145   1.814
  600SOL     OW 1818   0.888   3.376   1.195
  600SOL    HW1 1819   0.865   3.351   1.101
  600SOL    HW2 1820   0.949   3.307   1.234
  601SOL     OW 1821   1.351   2.452   1.433
  601SOL    HW1 1822   1.379   2.409   1.518
  601SOL    HW2 1823   1.376   2.548   1.434
  602SOL     OW 1824   0.803   3.264   0.924
  602SOL    HW1 1825   0.893   3.278   0.882
  602SOL    HW2 1826   0.732   3.266   0.853
  603SOL     OW 1827   0.922   2.365   0.899
  603SOL    HW1 1828   0.897   2.356   0.803
  603SOL    HW2 1829   0.970   2.283   0.930
  604SOL     OW 1830   0.539   1.926   0.512
  604SOL    HW1 1831   0.458   1.927   0.570
  604SOL    HW2 1832   0.542   2.009   0.457
  605SOL     OW 1833   1.434   3.050   0.041
  605SOL    HW1 1834   1.466   2.974   0.098
  605SOL    HW2 1835   1.342   3.077   0.071
  606SOL     OW 1836   0.297   1.897   0.171
  606SOL    HW1 1837   0.346   1.981   0.150
  606SOL    HW2 1838   0.359   1.832   0.216
  607SOL     OW 1839   0.935   2.098   0.480
  607SOL    HW1 1840   0.887   2.139   0.402
  607SOL    HW2 1841   1.034   2.096   0.461
  608SOL     OW 1842   1.076   2.545   1.464
  608SOL    HW1 1843   0.996   2.484   1.467
  608SOL    HW2 1844   1.157   2.492   1.440
  609SOL     OW 1845   1.227   3.432   0.793
  609SOL    HW1 1846   1.248   3.506   0.728
  609SOL    HW2 1847   1.295   3.432   0.866
  610SOL     OW 1848   0.459   3.014   0.741
  610SOL    HW1 1849   0.388   2.987   0.806
  610SOL    HW2 1850   0.433   2.986   0.648
  611SOL     OW 1851   1.271   3.659   0.591
  611SOL    HW1 1852   1.315   3.723   0.527
  611SOL    HW2 1853   1.221   3.711   0.661
  612SOL     OW 1854   1.032   2.411   0.016
  612SOL    HW1 1855   0.991   2.493  -0.023
  612SOL    HW2 1856   1.096   2.437   0.089
  613SOL     OW 1857   0.078   2.418   1.386
  613SOL    HW1 1858   0.170   2.417   1.345
  613SOL    HW2 1859   0.072   2.492   1.453
  614SOL     OW 1860   0.561   2.084   1.147
  614SOL    HW1 1861   0.599   2.000   1.184
  614SOL    HW2 1862   0.473   2.103   1.191
  615SOL     OW 1863   0.866   2.316   0.642
  615SOL    HW1 1864   0.834   2.388   0.580
  615SOL    HW2 1865   0.890   2.235   0.589
  616SOL     OW 1866   1.017   1.901   0.753
  616SOL    HW1 1867   0.945   1.906   0.684
  616SOL    HW2 1868   0.993   1.832   0.822
  617SOL     OW 1869   1.429   3.035   0.867
  617SOL    HW1 1870   1.374   2.951   0.860
  617SOL    HW2 1871   1.455   3.064   0.775
  618SOL     OW 1872   1.466   2.452   0.992
  618SOL    HW1 1873   1.436   2.357   0.999
  618SOL    HW2 1874   1.539   2.468   1.058
  619SOL     OW 1875   1.857   2.695   0.377
  619SOL    HW1 1876   1.899   2.631   0.441
  619SOL    HW2 1877   1.819   2.644   0.299
  620SOL     OW 1878   0.488   3.247   0.174
  620SOL    HW1 1879   0.401   3.232   0.221
  620SOL    HW2 1880   0.471   3.273   0.079
  621SOL     OW 1881   1.664   3.142   0.657
  621SOL    HW1 1882   1.763   3.150   0.671
  621SOL    HW2 1883   1.619   3.226   0.688
  622SOL     OW 1884   1.390   2.437   0.078
  622SOL    HW1 1885   1.336   2.416   0.159
  622SOL    HW2 1886   1.481   2.396   0.087
  623SOL     OW 1887   0.527   2.118   0.328
  623SOL    HW1 1888   0.554   2.059   0.253
  623SOL    HW2 1889   0.527   2.213   0.297
  624SOL     OW 1890   1.754   3.085   1.588
  624SOL    HW1 1891   1.845   3.046   1.575
  624SOL    HW2 1892   1.762   3.181   1.612
  625SOL     OW 1893   1.064   3.209   1.340
  625SOL    HW1 1894   0.984   3.186   1.395
  625SOL    HW2 1895   1.147   3.183   1.389
  626SOL     OW 1896   1.592   3.491   1.625
  626SOL    HW1 1897   1.619   3.525   1.535
  626SOL    HW2 1898   1.671   3.453   1.671
  627SOL     OW 1899   1.111   3.057   1.100
  627SOL    HW1 1900   1.071   3.101   1.181
  627SOL    HW2 1901   1.070   3.094   1.017
  628SOL     OW 1902   1.638   2.961   1.079
  628SOL    HW1 1903   1.643   3.042   1.138
  628SOL    HW2 1904   1.552   2.963   1.028
  629SOL     OW 1905   0.915   1.951   1.402
  629SOL    HW1 1906   0.940   1.931   1.307
  629SOL    HW2 1907   0.987   2.007   1.444
  630SOL     OW 1908   0.980   2.978   1.719
  630SOL    HW1 1909   0.881   2.984   1.729
  630SOL    HW2 1910   1.003   2.898   1.663
  631SOL     OW 1911   0.705   2.912   0.368
  631SOL    HW1 1912   0.691   2.919   0.467
  631SOL    HW2 1913   0.789   2.861   0.350
  632SOL     OW 1914   0.410   2.675   1.251
  632SOL    HW1 1915   0.496   2.687   1.301
  632SOL    HW2 1916   0.368   2.588   1.278
  633SOL     OW 1917   1.274   2.248   1.262
  633SOL    HW1 1918   1.295   2.322   1.326
  633SOL    HW2 1919   1.185   2.265   1.219
  634SOL     OW 1920   0.064   3.426   1.331
  634SOL    HW1 1921   0.018   3.508   1.297
  634SOL    HW2 1922   0.162   3.445   1.340
  635SOL     OW 1923   0.367   2.962   0.501
  635SOL    HW1 1924   0.360   3.045   0.445
  635SOL    HW2 1925   0.371   2.882   0.441
  636SOL     OW 1926   0.566   2.399   0.865
  636SOL    HW1 1927   0.578   2.465   0.791
  636SOL    HW2 1928   0.612   2.433   0.948
  637SOL     OW 1929   1.252   3.210   0.388
  637SOL    HW1 1930   1.302   3.287   0.428
  637SOL    HW2 1931   1.157   3.212   0.420
  638SOL     OW 1932   1.272   3.307   1.142
  638SOL    HW1 1933   1.319   3.320   1.229
  638SOL    HW2 1934   1.206   3.233   1.151
  639SOL     OW 1935   1.582   2.501   0.472
  639SOL    HW1 1936   1.551   2.562   0.545
  639SOL    HW2 1937   1.632   2.553   0.403
  640SOL     OW 1938   0.354   3.372   1.329
  640SOL    HW1 1939   0.333   3.328   1.242
  640SOL    HW2 1940   0.451   3.398   1.332
  641SOL     OW 1941   0.402   2.613   1.598
  641SOL    HW1 1942   0.470   2.668   1.551
  641SOL    HW2 1943   0.442   2.525   1.625
  642SOL     OW 1944   1.587   2.641   1.670
  642SOL    HW1 1945   1.495   2.679   1.665
  642SOL    HW2 1946   1.647   2.688   1.605
  643SOL     OW 1947   1.013   1.967   1.770
  643SOL    HW1 1948   1.019   2.052   1.718
  643SOL    HW2 1949   1.045   1.891   1.713
  644SOL     OW 1950   0.504   1.912   1.740
  644SOL    HW1 1951   0.462   1.855   1.670
  644SOL    HW2 1952   0.438   1.981   1.772
  645SOL     OW 1953   0.573   2.732   1.029
  645SOL    HW1 1954   0.617   2.821   1.020
  645SOL    HW2 1955   0.510   2.732   1.106
  646SOL     OW 1956   1.360   2.724   1.045
  646SOL    HW1 1957   1.285   2.724   0.979
  646SOL    HW2 1958   1.397   2.632   1.054
  647SOL     OW 1959   1.209   2.387   0.275
  647SOL    HW1 1960   1.222   2.303   0.329
  647SOL    HW2 1961   1.180   2.461   0.335
  648SOL     OW 1962   0.307   2.075   1.231
  648SOL    HW1 1963   0.284   2.112   1.321
  648SOL    HW2 1964   0.277   1.980   1.225
  649SOL     OW 1965   0.037   3.172   1.282
  649SOL    HW1 1966   0.090   3.123   1.350
  649SOL    HW2 1967   0.059   3.270   1.287
  650SOL     OW 1968   0.732   2.496   1.064
  650SOL    HW1 1969   0.791   2.470   0.988
  650SOL    HW2 1970   0.704   2.592   1.053
  651SOL     OW 1971   1.728   2.797   1.854
  651SOL    HW1 1972   1.682   2.790   1.765
  651SOL    HW2 1973   1.666   2.841   1.920
  652SOL     OW 1974   0.307   1.925   0.618
  652SOL    HW1 1975   0.296   2.019   0.651
  652SOL    HW2 1976   0.302   1.862   0.695
  653SOL     OW 1977   1.622   2.229   0.374
  653SOL    HW1 1978   1.624   2.153   0.438
  653SOL    HW2 1979   1.574   2.306   0.414
  654SOL     OW 1980   1.023   2.628   0.966
  654SOL    HW1 1981   1.038   2.649   1.062
  654SOL    HW2 1982   0.993   2.533   0.957
  655SOL     OW 1983   0.980   3.435   1.700
  655SOL    HW1 1984   0.960   3.479   1.612
  655SOL    HW2 1985   1.019   3.344   1.684
  656SOL     OW 1986   1.859   3.380   1.605
  656SOL    HW1 1987   1.873   3.407   1.510
  656SOL    HW2 1988   1.942   3.402   1.658
  657SOL     OW 1989   0.350   2.760   1.804
  657SOL    HW1 1990   0.426   2.804   1.852
  657SOL    HW2 1991   0.385   2.713   1.722
  658SOL     OW 1992   1.540   2.136   0.125
  658SOL    HW1 1993   1.479   2.061   0.148
  658SOL    HW2 1994   1.562   2.188   0.208
  659SOL     OW 1995   1.303   2.700   0.042
  659SOL    HW1 1996   1.337   2.607   0.057
  659SOL    HW2 1997   1.321   2.727  -0.053
  660SOL     OW 1998   1.068   3.195   0.849
  660SOL    HW1 1999   1.075   3.111   0.794
  660SOL    HW2 2000   1.130   3.264   0.813
  661SOL     OW 2001   0.319   2.672   0.949
  661SOL    HW1 2002   0.412   2.708   0.954
  661SOL    HW2 2003   0.313   2.587   1.001
  662SOL     OW 2004   0.339   2.371   1.006
  662SOL    HW1 2005   0.287   2.288   0.989
  662SOL    HW2 2006   0.416   2.376   0.942
  663SOL     OW 2007   1.138   2.242   1.678
  663SOL    HW1 2008   1.093   2.305   1.742
  663SOL    HW2 2009   1.231   2.273   1.661
  664SOL     OW 2010   1.160   2.069   1.477
  664SOL    HW1 2011   1.160   2.133   1.554
  664SOL    HW2 2012   1.188   2.117   1.394
  665SOL     OW 2013   0.008   3.188   0.200
  665SOL    HW1 2014  -0.085   3.209   0.169
  665SOL    HW2 2015   0.018   3.089   0.213
  666SOL     OW 2016   0.088   3.663   0.927
  666SOL    HW1 2017   0.046   3.577   0.900
  666SOL    HW2 2018   0.182   3.666   0.893
  667SOL     OW 2019   0.504   3.430   0.910
  667SOL    HW1 2020   0.570   3.504   0.919
  667SOL    HW2 2021   0.548   3.351   0.868
  668SOL     OW 2022   1.002   2.658   1.238
  668SOL    HW1 2023   1.043   2.626   1.324
  668SOL    HW2 2024   0.906   2.631   1.235
  669SOL     OW 2025   0.040   2.406   1.114
  669SOL    HW1 2026   0.125   2.373   1.073
  669SOL    HW2 2027   0.053   2.421   1.212
  670SOL     OW 2028   0.189   2.382   1.722
  670SOL    HW1 2029   0.248   2.342   1.652
  670SOL    HW2 2030   0.131   2.453   1.681
  671SOL     OW 2031   1.369   2.812   1.660
  671SOL    HW1 2032   1.408   2.901   1.680
  671SOL    HW2 2033   1.379   2.792   1.563
  672SOL     OW 2034   0.815   2.434   0.325
  672SOL    HW1 2035   0.822   2.345   0.279
  672SOL    HW2 2036   0.721   2.468   0.317
  673SOL     OW 2037   1.657   2.466   1.206
  673SOL    HW1 2038   1.619   2.397   1.268
  673SOL    HW2 2039   1.739   2.430   1.162
  674SOL     OW 2040   0.252   3.426   1.744
  674SOL    HW1 2041   0.222   3.483   1.820
  674SOL    HW2 2042   0.245   3.329   1.770
  675SOL     OW 2043   0.671   2.326   1.269
  675SOL    HW1 2044   0.637   2.237   1.239
  675SOL    HW2 2045   0.697   2.380   1.189
  676SOL     OW 2046   0.930   3.540   1.465
  676SOL    HW1 2047   0.906   3.522   1.370
  676SOL    HW2 2048   0.960   3.634   1.475
  677SOL     OW 2049   0.473   2.362   0.191
  677SOL    HW1 2050   0.534   2.442   0.195
  677SOL    HW2 2051   0.378   2.393   0.198
  678SOL     OW 2052   0.159   2.999   1.466
  678SOL    HW1 2053   0.181   2.938   1.542
  678SOL    HW2 2054   0.169   2.950   1.380
  679SOL     OW 2055   1.347   2.921   1.234
  679SOL    HW1 2056   1.371   2.858   1.160
  679SOL    HW2 2057   1.257   2.961   1.216
  680SOL     OW 2058   1.302   2.717   0.309
  680SOL    HW1 2059   1.216   2.686   0.351
  680SOL    HW2 2060   1.298   2.703   0.210
  681SOL     OW 2061   1.759   3.609   1.154
  681SOL    HW1 2062   1.820   3.639   1.081
  681SOL    HW2 2063   1.721   3.520   1.132
  682SOL     OW 2064   1.252   3.593   1.128
  682SOL    HW1 2065   1.336   3.598   1.074
  682SOL    HW2 2066   1.229   3.497   1.146
  683SOL     OW 2067   0.083   3.120   1.022
  683SOL    HW1 2068   0.078   3.119   1.122
  683SOL    HW2 2069   0.000   3.079   0.984
  684SOL     OW 2070   0.688   3.524   1.716
  684SOL    HW1 2071   0.632   3.605   1.725
  684SOL    HW2 2072   0.740   3.528   1.630
  685SOL     OW 2073   0.903   1.948   0.133
  685SOL    HW1 2074   0.954   1.949   0.047
  685SOL    HW2 2075   0.959   1.906   0.204
  686SOL     OW 2076   1.726   1.997   0.523
  686SOL    HW1 2077   1.799   1.980   0.456
  686SOL    HW2 2078   1.695   1.910   0.561
  687SOL     OW 2079   1.388   3.435   0.477
  687SOL    HW1 2080   1.455   3.447   0.403
  687SOL    HW2 2081   1.348   3.524   0.500
  688SOL     OW 2082   0.130   3.656   1.851
  688SOL    HW1 2083   0.089   3.582   1.904
  688SOL    HW2 2084   0.194   3.707   1.909
  689SOL     OW 2085   1.280   2.789   0.672
  689SOL    HW1 2086   1.340   2.708   0.674
  689SOL    HW2 2087   1.320   2.858   0.612
  690SOL     OW 2088   0.830   3.135   1.422
  690SOL    HW1 2089   0.825   3.168   1.517
  690SOL    HW2 2090   0.744   3.154   1.376
  691SOL     OW 2091   0.672   3.478   0.154
  691SOL    HW1 2092   0.681   3.488   0.055
  691SOL    HW2 2093   0.632   3.389   0.175
  692SOL     OW 2094   1.650   3.582   1.394
  692SOL    HW1 2095   1.703   3.592   1.310
  692SOL    HW2 2096   1.623   3.672   1.428
  693SOL     OW 2097   1.841   2.037   0.963
  693SOL    HW1 2098   1.880   1.952   0.927
  693SOL    HW2 2099   1.743   2.039   0.944
  694SOL     OW 2100   0.263   2.188   0.720
  694SOL    HW1 2101   0.184   2.239   0.686
  694SOL    HW2 2102   0.254   2.173   0.818
  695SOL     OW 2103   1.194   3.474   0.031
  695SOL    HW1 2104   1.200   3.381   0.068
  695SOL    HW2 2105   1.135   3.474  -0.049
  696SOL     OW 2106   0.822   2.864   1.372
  696SOL    HW1 2107   0.862   2.863   1.280
  696SOL    HW2 2108   0.832   2.956   1.412
  697SOL     OW 2109   0.916   2.772   0.291
  697SOL    HW1 2110   0.979   2.810   0.223
  697SOL    HW2 2111   0.956   2.689   0.330
  698SOL     OW 2112   1.504   3.469   0.044
  698SOL    HW1 2113   1.412   3.506   0.051
  698SOL    HW2 2114   1.542   3.489  -0.046
  699SOL     OW 2115   0.372   3.150   1.490
  699SOL    HW1 2116   0.359   3.243   1.456
  699SOL    HW2 2117   0.288   3.098   1.477
  700SOL     OW 2118   1.614   3.154   1.289
  700SOL    HW1 2119   1.674   3.157   1.369
  700SOL    HW2 2120   1.539   3.218   1.302
  701SOL     OW 2121   1.039   2.960   0.696
  701SOL    HW1 2122   0.969   2.913   0.750
  701SOL    HW2 2123   1.098   2.892   0.653
  702SOL     OW 2124   1.014   2.098   0.971
  702SOL    HW1 2125   1.006   2.062   0.878
  702SOL    HW2 2126   1.012   2.022   1.036
  703SOL     OW 2127   0.590   3.349   0.491
  703SOL    HW1 2128   0.632   3.291   0.421
  703SOL    HW2 2129   0.546   3.428   0.447
  704SOL     OW 2130   1.709   2.247   1.381
  704SOL    HW1 2131   1.782   2.316   1.385
  704SOL    HW2 2132   1.737   2.172   1.322
  705SOL     OW 2133   0.255   3.210   0.290
  705SOL    HW1 2134   0.159   3.211   0.263
  705SOL    HW2 2135   0.267   3.263   0.374
  706SOL     OW 2136   0.105   2.875   1.726
  706SOL    HW1 2137   0.028   2.842   1.780
  706SOL    HW2 2138   0.190   2.845   1.768
  707SOL     OW 2139   0.672   2.065   1.489
  707SOL    HW1 2140   0.762   2.049   1.449
  707SOL    HW2 2141   0.680   2.070   1.588
  708SOL     OW 2142   0.075   2.207   0.033
  708SOL    HW1 2143  -0.017   2.179   0.004
  708SOL    HW2 2144   0.106   2.284  -0.023
  709SOL     OW 2145   1.440   2.718   1.398
  709SOL    HW1 2146   1.383   2.770   1.335
  709SOL    HW2 2147   1.536   2.730   1.374
  710SOL     OW 2148   0.072   2.028   0.318
  710SOL    HW1 2149   0.055   2.111   0.264
  710SOL    HW2 2150   0.162   1.991   0.296
  711SOL     OW 2151   1.183   3.197   0.119
  711SOL    HW1 2152   1.084   3.186   0.121
  711SOL    HW2 2153   1.217   3.212   0.212
  712SOL     OW 2154   0.613   2.704   1.431
  712SOL    HW1 2155   0.669   2.785   1.414
  712SOL    HW2 2156   0.672   2.624   1.434
  713SOL     OW 2157   1.493   3.629   0.959
  713SOL    HW1 2158   1.526   3.693   0.890
  713SOL    HW2 2159   1.559   3.623   1.034
  714SOL     OW 2160   0.716   2.427   1.708
  714SOL    HW1 2161   0.735   2.492   1.782
  714SOL    HW2 2162   0.776   2.347   1.717
  715SOL     OW 2163   1.450   3.082   1.633
  715SOL    HW1 2164   1.441   3.072   1.732
  715SOL    HW2 2165   1.546   3.075   1.607
  716SOL     OW 2166   0.390   3.603   1.560
  716SOL    HW1 2167   0.299   3.644   1.558
  716SOL    HW2 2168   0.383   3.509   1.592
  717SOL     OW 2169   1.674   2.745   1.254
  717SOL    HW1 2170   1.647   2.656   1.217
  717SOL    HW2 2171   1.675   2.813   1.181
  718SOL     OW 2172   1.225   2.187   0.449
  718SOL    HW1 2173   1.290   2.113   0.438
  718SOL    HW2 2174   1.245   2.237   0.533
  719SOL     OW 2175   0.594   2.607   0.652
  719SOL    HW1 2176   0.644   2.692   0.633
  719SOL    HW2 2177   0.506   2.609   0.604
  720SOL     OW 2178   1.777   2.204   1.642
  720SOL    HW1 2179   1.760   2.235   1.548
  720SOL    HW2 2180   1.693   2.167   1.680
  721SOL     OW 2181   1.730   2.796   1.517
  721SOL    HW1 2182   1.768   2.887   1.532
  721SOL    HW2 2183   1.722   2.779   1.418
  722SOL     OW 2184   0.859   3.236   0.016
  722SOL    HW1 2185   0.813   3.251   0.104
  722SOL    HW2 2186   0.903   3.321  -0.014
  723SOL     OW 2187   0.661   3.652   0.953
  723SOL    HW1 2188   0.615   3.740   0.940
  723SOL    HW2 2189   0.760   3.664   0.946
  724SOL     OW 2190   0.859   2.818   0.861
  724SOL    HW1 2191   0.913   2.749   0.909
  724SOL    HW2 2192   0.827   2.887   0.927
  725SOL     OW 2193   1.083   2.846   0.087
  725SOL    HW1 2194   1.060   2.899   0.005
  725SOL    HW2 2195   1.164   2.790   0.068
  726SOL     OW 2196   1.861   3.431   0.851
  726SOL    HW1 2197   1.790   3.419   0.781
  726SOL    HW2 2198   1.862   3.352   0.911
  727SOL     OW 2199   0.221   3.176   1.844
  727SOL    HW1 2200   0.156   3.103   1.823
  727SOL    HW2 2201   0.225   3.190   1.942
  728SOL     OW 2202   0.079   3.102   0.653
  728SOL    HW1 2203   0.078   3.055   0.741
  728SOL    HW2 2204   0.161   3.074   0.602
  729SOL     OW 2205   0.672   3.253   1.624
  729SOL    HW1 2206   0.594   3.203   1.662
  729SOL    HW2 2207   0.669   3.348   1.655
  730SOL     OW 2208   1.824   2.054   1.227
  730SOL    HW1 2209   1.820   1.964   1.271
  730SOL    HW2 2210   1.827   2.043   1.128
  731SOL     OW 2211   0.428   2.286   0.520
  731SOL    HW1 2212   0.458   2.214   0.458
  731SOL    HW2 2213   0.389   2.246   0.603
  732SOL     OW 2214   1.705   3.349   1.104
  732SOL    HW1 2215   1.612   3.324   1.077
  732SOL    HW2 2216   1.731   3.299   1.186
  733SOL     OW 2217   0.317   2.409   1.280
  733SOL    HW1 2218   0.355   2.350   1.352
  733SOL    HW2 2219   0.357   2.383   1.192
  734SOL     OW 2220   0.812   3.448   0.687
  734SOL    HW1 2221   0.844   3.458   0.593
  734SOL    HW2 2222   0.733   3.386   0.689
  735SOL     OW 2223   1.424   2.076   1.112
  735SOL    HW1 2224   1.476   2.011   1.167
  735SOL    HW2 2225   1.375   2.139   1.173
  736SOL     OW 2226   1.001   1.896   1.154
  736SOL    HW1 2227   0.938   1.824   1.123
  736SOL    HW2 2228   1.094   1.860   1.154
  737SOL     OW 2229   0.770   3.192   0.301
  737SOL    HW1 2230   0.724   3.105   0.318
  737SOL    HW2 2231   0.861   3.189   0.342
  738SOL     OW 2232   0.618   3.429   1.284
  738SOL    HW1 2233   0.613   3.511   1.341
  738SOL    HW2 2234   0.707   3.426   1.239
  739SOL     OW 2235   1.352   1.914   0.168
  739SOL    HW1 2236   1.387   1.873   0.084
  739SOL    HW2 2237   1.262   1.876   0.188
  740SOL     OW 2238   1.300   2.315   0.691
  740SOL    HW1 2239   1.241   2.395   0.695
  740SOL    HW2 2240   1.315   2.280   0.784
  741SOL     OW 2241   1.593   2.083   0.882
  741SOL    HW1 2242   1.509   2.082   0.936
  741SOL    HW2 2243   1.595   2.166   0.826
  742SOL     OW 2244   0.039   2.939   0.300
  742SOL    HW1 2245   0.138   2.928   0.291
  742SOL    HW2 2246  -0.001   2.853   0.332
  743SOL     OW 2247   0.875   3.508   0.337
  743SOL    HW1 2248   0.798   3.473   0.283
  743SOL    HW2 2249   0.843   3.579   0.399
  744SOL     OW 2250   0.230   2.490   1.975
  744SOL    HW1 2251   0.137   2.488   2.012
  744SOL    HW2 2252   0.231   2.451   1.883
  745SOL     OW 2253   0.225   2.137   2.858
  745SOL    HW1 2254   0.260   2.120   2.950
  745SOL    HW2 2255   0.137   2.092   2.846
  746SOL     OW 2256   0.019   2.230   2.509
  746SOL    HW1 2257  -0.063   2.273   2.548
  746SOL    HW2 2258  -0.009   2.157   2.446
  747SOL     OW 2259   0.569   3.137   3.027
  747SOL    HW1 2260   0.476   3.130   2.990
  747SOL    HW2 2261   0.580   3.226   3.071
  748SOL     OW 2262   1.555   3.373   2.565
  748SOL    HW1 2263   1.498   3.357   2.646
  748SOL    HW2 2264   1.496   3.383   2.485
  749SOL     OW 2265   1.135   2.565   2.579
  749SOL    HW1 2266   1.192   2.643   2.554
  749SOL    HW2 2267   1.075   2.591   2.655
  750SOL     OW 2268   1.755   2.469   2.093
  750SOL    HW1 2269   1.743   2.456   1.994
  750SOL    HW2 2270   1.725   2.388   2.142
  751SOL     OW 2271   0.768   3.006   2.885
  751SOL    HW1 2272   0.690   3.023   2.945
  751SOL    HW2 2273   0.802   3.093   2.849
  752SOL     OW 2274   0.850   2.660   3.685
  752SOL    HW1 2275   0.846   2.736   3.750
  752SOL    HW2 2276   0.872   2.696   3.594
  753SOL     OW 2277   0.685   2.874   2.527
  753SOL    HW1 2278   0.754   2.858   2.597
  753SOL    HW2 2279   0.612   2.931   2.565
  754SOL     OW 2280   0.686   3.023   3.665
  754SOL    HW1 2281   0.746   3.102   3.679
  754SOL    HW2 2282   0.600   3.054   3.624
  755SOL     OW 2283   0.335   3.297   2.923
  755SOL    HW1 2284   0.257   3.266   2.870
  755SOL    HW2 2285   0.393   3.355   2.866
  756SOL     OW 2286   1.460   3.367   3.201
  756SOL    HW1 2287   1.484   3.461   3.227
  756SOL    HW2 2288   1.444   3.313   3.283
  757SOL     OW 2289   0.438   2.254   3.361
  757SOL    HW1 2290   0.520   2.198   3.370
  757SOL    HW2 2291   0.357   2.196   3.365
  758SOL     OW 2292   1.603   2.309   2.599
  758SOL    HW1 2293   1.529   2.355   2.549
  758SOL    HW2 2294   1.654   2.377   2.652
  759SOL     OW 2295   0.231   3.575   2.345
  759SOL    HW1 2296   0.265   3.652   2.399
  759SOL    HW2 2297   0.275   3.575   2.255
  760SOL     OW 2298   1.127   3.203   3.552
  760SOL    HW1 2299   1.174   3.203   3.640
  760SOL    HW2 2300   1.079   3.116   3.541
  761SOL     OW 2301   0.230   3.296   2.400
  761SOL    HW1 2302   0.204   3.392   2.400
  761SOL    HW2 2303   0.159   3.242   2.445
  762SOL     OW 2304   0.240   2.953   2.748
  762SOL    HW1 2305   0.254   2.869   2.800
  762SOL    HW2 2306   0.185   3.017   2.803
  763SOL     OW 2307   0.620   3.648   3.301
  763SOL    HW1 2308   0.528   3.631   3.336
  763SOL    HW2 2309   0.648   3.740   3.327
  764SOL     OW 2310   0.606   2.826   1.985
  764SOL    HW1 2311   0.613   2.910   1.931
  764SOL    HW2 2312   0.652   2.839   2.073
  765SOL     OW 2313   1.594   1.976   3.342
  765SOL    HW1 2314   1.576   2.043   3.270
  765SOL    HW2 2315   1.591   2.022   3.431
  766SOL     OW 2316   0.122   2.505   2.425
  766SOL    HW1 2317   0.077   2.417   2.442
  766SOL    HW2 2318   0.121   2.559   2.509
  767SOL     OW 2319   1.842   3.629   2.221
  767SOL    HW1 2320   1.896   3.600   2.301
  767SOL    HW2 2321   1.872   3.719   2.192
  768SOL     OW 2322   0.027   3.458   1.979
  768SOL    HW1 2323   0.008   3.362   2.000
  768SOL    HW2 2324  -0.006   3.516   2.054
  769SOL     OW 2325   1.689   2.784   2.474
  769SOL    HW1 2326   1.784   2.755   2.482
  769SOL    HW2 2327   1.681   2.849   2.399
  770SOL     OW 2328   1.641   2.970   2.294
  770SOL    HW1 2329   1.727   2.972   2.242
  770SOL    HW2 2330   1.655   3.017   2.382
  771SOL     OW 2331   0.113   2.599   3.459
  771SOL    HW1 2332   0.201   2.586   3.504
  771SOL    HW2 2333   0.100   2.696   3.437
  772SOL     OW 2334   0.613   3.227   2.588
  772SOL    HW1 2335   0.564   3.140   2.597
  772SOL    HW2 2336   0.590   3.270   2.501
  773SOL     OW 2337   1.293   3.090   3.285
  773SOL    HW1 2338   1.330   3.017   3.227
  773SOL    HW2 2339   1.345   3.095   3.370
  774SOL     OW 2340   0.809   1.866   2.364
  774SOL    HW1 2341   0.849   1.957   2.355
  774SOL    HW2 2342   0.709   1.874   2.370
  775SOL     OW 2343   0.197   2.838   3.126
  775SOL    HW1 2344   0.286   2.793   3.112
  775SOL    HW2 2345   0.124   2.773   3.107
  776SOL     OW 2346   1.525   2.861   2.052
  776SOL    HW1 2347   1.462   2.785   2.065
  776SOL    HW2 2348   1.573   2.879   2.138
  777SOL     OW 2349   1.187   3.654   3.478
  777SOL    HW1 2350   1.211   3.714   3.402
  777SOL    HW2 2351   1.194   3.559   3.448
  778SOL     OW 2352   0.317   2.113   3.663
  778SOL    HW1 2353   0.388   2.184   3.669
  778SOL    HW2 2354   0.229   2.152   3.691
  779SOL     OW 2355   1.466   3.279   2.815
  779SOL    HW1 2356   1.407   3.285   2.895
  779SOL    HW2 2357   1.451   3.191   2.769
  780SOL     OW 2358   1.667   3.576   2.434
  780SOL    HW1 2359   1.626   3.553   2.346
  780SOL    HW2 2360   1.649   3.502   2.499
  781SOL     OW 2361   0.598   2.591   2.132
  781SOL    HW1 2362   0.622   2.660   2.064
  781SOL    HW2 2363   0.520   2.624   2.186
  782SOL     OW 2364   1.281   2.207   2.806
  782SOL    HW1 2365   1.195   2.157   2.793
  782SOL    HW2 2366   1.343   2.153   2.862
  783SOL     OW 2367   1.576   3.524   2.169
  783SOL    HW1 2368   1.665   3.570   2.172
  783SOL    HW2 2369   1.555   3.500   2.074
  784SOL     OW 2370   0.807   2.467   3.327
  784SOL    HW1 2371   0.760   2.464   3.416
  784SOL    HW2 2372   0.756   2.412   3.261
  785SOL     OW 2373   1.394   2.331   3.536
  785SOL    HW1 2374   1.374   2.374   3.624
  785SOL    HW2 2375   1.472   2.269   3.545
  786SOL     OW 2376   0.973   2.752   3.434
  786SOL    HW1 2377   1.019   2.668   3.405
  786SOL    HW2 2378   0.917   2.786   3.359
  787SOL     OW 2379   0.991   2.272   3.104
  787SOL    HW1 2380   0.914   2.306   3.158
  787SOL    HW2 2381   0.957   2.221   3.025
  788SOL     OW 2382   1.041   2.563   2.291
  788SOL    HW1 2383   1.067   2.559   2.387
  788SOL    HW2 2384   0.956   2.512   2.277
  789SOL     OW 2385   0.076   2.673   2.651
  789SOL    HW1 2386   0.175   2.661   2.660
  789SOL    HW2 2387   0.052   2.768   2.672
  790SOL     OW 2388   0.130   3.683   3.433
  790SOL    HW1 2389   0.120   3.668   3.532
  790SOL    HW2 2390   0.044   3.719   3.397
  791SOL     OW 2391   0.865   2.210   2.057
  791SOL    HW1 2392   0.924   2.273   2.008
  791SOL    HW2 2393   0.884   2.116   2.028
  792SOL     OW 2394   1.719   2.447   3.693
  792SOL    HW1 2395   1.693   2.536   3.657
  792SOL    HW2 2396   1.717   2.379   3.620
  793SOL     OW 2397   1.362   3.006   2.407
  793SOL    HW1 2398   1.445   2.977   2.359
  793SOL    HW2 2399   1.313   3.073   2.351
  794SOL     OW 2400   0.550   2.058   2.747
  794SOL    HW1 2401   0.545   2.053   2.847
  794SOL    HW2 2402   0.552   2.154   2.718
  795SOL     OW 2403   1.008   3.318   2.339
  795SOL    HW1 2404   0.962   3.390   2.287
  795SOL    HW2 2405   1.004   3.338   2.437
  796SOL     OW 2406   0.351   3.663   2.715
  796SOL    HW1 2407   0.401   3.577   2.721
  796SOL    HW2 2408   0.416   3.740   2.712
  797SOL     OW 2409   1.795   2.928   2.735
  797SOL    HW1 2410   1.733   2.913   2.659
  797SOL    HW2 2411   1.743   2.939   2.820
  798SOL     OW 2412   1.227   3.412   3.368
  798SOL    HW1 2413   1.233   3.335   3.432
  798SOL    HW2 2414   1.175   3.386   3.288
  799SOL     OW 2415   0.321   2.805   2.104
  799SOL    HW1 2416   0.403   2.844   2.062
  799SOL    HW2 2417   0.294   2.723   2.055
  800SOL     OW 2418   1.458   2.597   2.590
  800SOL    HW1 2419   1.453   2.532   2.665
  800SOL    HW2 2420   1.538   2.656   2.603
  801SOL     OW 2421   0.461   3.128   3.589
  801SOL    HW1 2422   0.411   3.129   3.503
  801SOL    HW2 2423   0.398   3.110   3.665
  802SOL     OW 2424   1.111   3.638   2.099
  802SOL    HW1 2425   1.051   3.576   2.149
  802SOL    HW2 2426   1.142   3.594   2.014
  803SOL     OW 2427   0.202   2.147   3.360
  803SOL    HW1 2428   0.122   2.207   3.347
  803SOL    HW2 2429   0.192   2.098   3.446
  804SOL     OW 2430   1.632   3.239   1.943
  804SOL    HW1 2431   1.600   3.333   1.933
  804SOL    HW2 2432   1.556   3.176   1.931
  805SOL     OW 2433   0.464   3.605   2.185
  805SOL    HW1 2434   0.497   3.644   2.271
  805SOL    HW2 2435   0.540   3.598   2.120
  806SOL     OW 2436   1.400   1.969   2.288
  806SOL    HW1 2437   1.376   1.932   2.198
  806SOL    HW2 2438   1.499   1.985   2.292
  807SOL     OW 2439   0.249   3.647   3.103
  807SOL    HW1 2440   0.306   3.582   3.153
  807SOL    HW2 2441   0.233   3.614   3.010
  808SOL     OW 2442   0.940   3.560   2.766
  808SOL    HW1 2443   1.020   3.503   2.787
  808SOL    HW2 2444   0.891   3.520   2.689
  809SOL     OW 2445   0.382   2.562   2.342
  809SOL    HW1 2446   0.427   2.472   2.339
  809SOL    HW2 2447   0.288   2.551   2.375
  810SOL     OW 2448   1.547   2.084   3.591
  810SOL    HW1 2449   1.542   2.121   3.683
  810SOL    HW2 2450   1.475   2.015   3.579
  811SOL     OW 2451   0.614   1.984   1.979
  811SOL    HW1 2452   0.712   1.962   1.986
  811SOL    HW2 2453   0.583   1.967   1.886
  812SOL     OW 2454   0.781   2.126   3.611
  812SOL    HW1 2455   0.848   2.065   3.654
  812SOL    HW2 2456   0.708   2.145   3.676
  813SOL     OW 2457   0.888   3.376   3.057
  813SOL    HW1 2458   0.865   3.351   2.963
  813SOL    HW2 2459   0.949   3.307   3.096
  814SOL     OW 2460   1.351   2.452   3.295
  814SOL    HW1 2461   1.379   2.409   3.380
  814SOL    HW2 2462   1.376   2.548   3.296
  815SOL     OW 2463   0.803   3.264   2.786
  815SOL    HW1 2464   0.893   3.278   2.744
  815SOL    HW2 2465   0.732   3.266   2.715
  816SOL     OW 2466   0.922   2.365   2.761
  816SOL    HW1 2467   0.897   2.356   2.665
  816SOL    HW2 2468   0.970   2.283   2.792
  817SOL     OW 2469   0.539   1.926   2.374
  817SOL    HW1 2470   0.458   1.927   2.432
  817SOL    HW2 2471   0.542   2.009   2.319
  818SOL     OW 2472   1.434   3.050   1.903
  818SOL    HW1 2473   1.466   2.974   1.960
  818SOL    HW2 2474   1.342   3.077   1.933
  819SOL     OW 2475   0.297   1.897   2.033
  819SOL    HW1 2476   0.346   1.981   2.012
  819SOL    HW2 2477   0.359   1.832   2.078
  820SOL     OW 2478   0.935   2.098   2.342
  820SOL    HW1 2479   0.887   2.139   2.264
  820SOL    HW2 2480   1.034   2.096   2.323
  821SOL     OW 2481   1.076   2.545   3.326
  821SOL    HW1 2482   0.996   2.484   3.329
  821SOL    HW2 2483   1.157   2.492   3.302
  822SOL     OW 2484   1.227   3.432   2.655
  822SOL    HW1 2485   1.248   3.506   2.590
  822SOL    HW2 2486   1.295   3.432   2.728
  823SOL     OW 2487   0.459   3.014   2.603
  823SOL    HW1 2488   0.388   2.987   2.668
  823SOL    HW2 2489   0.433   2.986   2.510
  824SOL     OW 2490   1.271   3.659   2.453
  824SOL    HW1 2491   1.315   3.723   2.389
  824SOL    HW2 2492   1.221   3.711   2.523
  825SOL     OW 2493   1.032   2.411   1.878
  825SOL    HW1 2494   0.991   2.493   1.839
  825SOL    HW2 2495   1.096   2.437   1.951
  826SOL     OW 2496   0.078   2.418   3.248
  826SOL    HW1 2497   0.170   2.417   3.207
  826SOL    HW2 2498   0.072   2.492   3.315
  827SOL     OW 2499   0.561   2.084   3.009
  827SOL    HW1 2500   0.599   2.000   3.046
  827SOL    HW2 2501   0.473   2.103   3.053
  828SOL     OW 2502   0.866   2.316   2.504
  828SOL    HW1 2503   0.834   2.388   2.442
  828SOL    HW2 2504   0.890   2.235   2.451
  829SOL     OW 2505   1.017   1.901   2.615
  829SOL    HW1 2506   0.945   1.906   2.546
  829SOL    HW2 2507   0.993   1.832   2.684
  830SOL     OW 2508   1.429   3.035   2.729
  830SOL    HW1 2509   1.374   2.951   2.722
  830SOL    HW2 2510   1.455   3.064   2.637
  831SOL     OW 2511   1.466   2.452   2.854
  831SOL    HW1 2512   1.436   2.357   2.861
  831SOL    HW2 2513   1.539   2.468   2.920
  832SOL     OW 2514   1.857   2.695   2.239
  832SOL    HW1 2515   1.899   2.631   2.303
  832SOL    HW2 2516   1.819   2.644   2.161
  833SOL     OW 2517   0.488   3.247   2.036
  833SOL    HW1 2518   0.401   3.232   2.083
  833SOL    HW2 2519   0.471   3.273   1.941
  834SOL     OW 2520   1.664   3.142   2.519
  834SOL    HW1 2521   1.763   3.150   2.533
  834SOL    HW2 2522   1.619   3.226   2.550
  835SOL     OW 2523   1.390   2.437   1.940
  835SOL    HW1 2524   1.336   2.416   2.021
  835SOL    HW2 2525   1.481   2.396   1.949
  836SOL     OW 2526   0.527   2.118   2.190
  836SOL    HW1 2527   0.554   2.059   2.115
  836SOL    HW2 2528   0.527   2.213   2.159
  837SOL     OW 2529   1.754   3.085   3.450
  837SOL    HW1 2530   1.845   3.046   3.437
  837SOL    HW2 2531   1.762   3.181   3.474
  838SOL     OW 2532   1.064   3.209   3.202
  838SOL    HW1 2533   0.984   3.186   3.257
  838SOL    HW2 2534   1.147   3.183   3.251
  839SOL     OW 2535   1.592   3.491   3.487
  839SOL    HW1 2536   1.619   3.525   3.397
  839SOL    HW2 2537   1.671   3.453   3.533
  840SOL     OW 2538   1.111   3.057   2.962
  840SOL    HW1 2539   1.071   3.101   3.043
  840SOL    HW2 2540   1.070   3.094   2.879
  841SOL     OW 2541   1.638   2.961   2.941
  841SOL    HW1 2542   1.643   3.042   3.000
  841SOL    HW2 2543   1.552   2.963   2.890
  842SOL     OW 2544   0.915   1.951   3.264
  842SOL    HW1 2545   0.940   1.931   3.169
  842SOL    HW2 2546   0.987   2.007   3.306
  843SOL     OW 2547   0.980   2.978   3.581
  843SOL    HW1 2548   0.881   2.984   3.591
  843SOL    HW2 2549   1.003   2.898   3.525
  844SOL     OW 2550   0.705   2.912   2.230
  844SOL    HW1 2551   0.691   2.919   2.329
  844SOL    HW2 2552   0.789   2.861   2.212
  845SOL     OW 2553   0.410   2.675   3.113
  845SOL    HW1 2554   0.496   2.687   3.163
  845SOL    HW2 2555   0.368   2.588   3.140
  846SOL     OW 2556   1.274   2.248   3.124
  846SOL    HW1 2557   1.295   2.322   3.188
  846SOL    HW2 2558   1.185   2.265   3.081
  847SOL     OW 2559   0.064   3.426   3.193
  847SOL    HW1 2560   0.018   3.508   3.159
  847SOL    HW2 2561   0.162   3.445   3.202
  848SOL     OW 2562   0.367   2.962   2.363
  848SOL    HW1 2563   0.360   3.045   2.307
  848SOL    HW2 2564   0.371   2.882   2.303
  849SOL     OW 2565   0.566   2.399   2.727
  849SOL    HW1 2566   0.578   2.465   2.653
  849SOL    HW2 2567   0.612   2.433   2.810
  850SOL     OW 2568   1.252   3.210   2.250
  850SOL    HW1 2569   1.302   3.287   2.290
  850SOL    HW2 2570   1.157   3.212   2.282
  851SOL     OW 2571   1.272   3.307   3.004
  851SOL    HW1 2572   1.319   3.320   3.091
  851SOL    HW2 2573   1.206   3.233   3.013
  852SOL     OW 2574   1.582   2.501   2.334
  852SOL    HW1 2575   1.551   2.562   2.407
  852SOL    HW2 2576   1.632   2.553   2.265
  853SOL     OW 2577   0.354   3.372   3.191
  853SOL    HW1 2578   0.333   3.328   3.104
  853SOL    HW2 2579   0.451   3.398   3.194
  854SOL     OW 2580   0.402   2.613   3.460
  854SOL    HW1 2581   0.470   2.668   3.413
  854SOL    HW2 2582   0.442   2.525   3.487
  855SOL     OW 2583   1.587   2.641   3.532
  855SOL    HW1 2584   1.495   2.679   3.527
  855SOL    HW2 2585   1.647   2.688   3.467
  856SOL     OW 2586   1.013   1.967   3.632
  856SOL    HW1 2587   1.019   2.052   3.580
  856SOL    HW2 2588   1.045   1.891   3.575
  857SOL     OW 2589   0.504   1.912   3.602
  857SOL    HW1 2590   0.462   1.855   3.532
  857SOL    HW2 2591   0.438   1.981   3.634
  858SOL     OW 2592   0.573   2.732   2.891
  858SOL    HW1 2593   0.617   2.821   2.882
  858SOL    HW2 2594   0.510   2.732   2.968
  859SOL     OW 2595   1.360   2.724   2.907
  859SOL    HW1 2596   1.285   2.724   2.841
  859SOL    HW2 2597   1.397   2.632   2.916
  860SOL     OW 2598   1.209   2.387   2.137
  860SOL    HW1 2599   1.222   2.303   2.191
  860SOL    HW2 2600   1.180   2.461   2.197
  861SOL     OW 2601   0.307   2.075   3.093
  861SOL    HW1 2602   0.284   2.112   3.183
  861SOL    HW2 2603   0.277   1.980   3.087
  862SOL     OW 2604   0.037   3.172   3.144
  862SOL    HW1 2605   0.090   3.123   3.212
  862SOL    HW2 2606   0.059   3.270   3.149
  863SOL     OW 2607   0.732   2.496   2.926
  863SOL    HW1 2608   0.791   2.470   2.850
  863SOL    HW2 2609   0.704   2.592   2.915
  864SOL     OW 2610   1.728   2.797   3.716
  864SOL    HW1 2611   1.682   2.790   3.627
  864SOL    HW2 2612   1.666   2.841   3.782
  865SOL     OW 2613   0.307   1.925   2.480
  865SOL    HW1 2614   0.296   2.019   2.513
  865SOL    HW2 2615   0.302   1.862   2.557
  866SOL     OW 2616   1.622   2.229   2.236
  866SOL    HW1 2617   1.624   2.153   2.300
  866SOL    HW2 2618   1.574   2.306   2.276
  867SOL     OW 2619   1.023   2.628   2.828
  867SOL    HW1 2620   1.038   2.649   2.924
  867SOL    HW2 2621   0.993   2.533   2.819
  868SOL     OW 2622   0.980   3.435   3.562
  868SOL    HW1 2623   0.960   3.479   3.474
  868SOL    HW2 2624   1.019   3.344   3.546
  869SOL     OW 2625   1.859   3.380   3.467
  869SOL    HW1 2626   1.873   3.407   3.372
  869SOL    HW2 2627   1.942   3.402   3.520
  870SOL     OW 2628   0.350   2.760   3.666
  870SOL    HW1 2629   0.426   2.804   3.714
  870SOL    HW2 2630   0.385   2.713   3.584
  871SOL     OW 2631   1.540   2.136   1.987
  871SOL    HW1 2632   1.479   2.061   2.010
  871SOL    HW2 2633   1.562   2.188   2.070
  872SOL     OW 2634   1.303   2.700   1.904
  872SOL    HW1 2635   1.337   2.607   1.919
  872SOL    HW2 2636   1.321   2.727   1.809
  873SOL     OW 2637   1.068   3.195   2.711
  873SOL    HW1 2638   1.075   3.111   2.656
  873SOL    HW2 2639   1.130   3.264   2.675
  874SOL     OW 2640   0.319   2.672   2.811
  874SOL    HW1 2641   0.412   2.708   2.816
  874SOL    HW2 2642   0.313   2.587   2.863
  875SOL     OW 2643   0.339   2.371   2.868
  875SOL    HW1 2644   0.287   2.288   2.851
  875SOL    HW2 2645   0.416   2.376   2.804
  876SOL     OW 2646   1.138   2.242   3.540
  876SOL    HW1 2647   1.093   2.305   3.604
  876SOL    HW2 2648   1.231   2.273   3.523
  877SOL     OW 2649   1.160   2.069   3.339
  877SOL    HW1 2650   1.160   2.133   3.416
  877SOL    HW2 2651   1.188   2.117   3.256
  878SOL     OW 2652   0.008   3.188   2.062
  878SOL    HW1 2653  -0.085   3.209   2.031
  878SOL    HW2 2654   0.018   3.089   2.075
  879SOL     OW 2655   0.088   3.663   2.789
  879SOL    HW1 2656   0.046   3.577   2.762
  879SOL    HW2 2657   0.182   3.666   2.755
  880SOL     OW 2658   0.504   3.430   2.772
  880SOL    HW1 2659   0.570   3.504   2.781
  880SOL    HW2 2660   0.548   3.351   2.730
  881SOL     OW 2661   1.002   2.658   3.100
  881SOL    HW1 2662   1.043   2.626   3.186
  881SOL    HW2 2663   0.906   2.631   3.097
  882SOL     OW 2664   0.040   2.406   2.976
  882SOL    HW1 2665   0.125   2.373   2.935
  882SOL    HW2 2666   0.053   2.421   3.074
  883SOL     OW 2667   0.189   2.382   3.584
  883SOL    HW1 2668   0.248   2.342   3.514
  883SOL    HW2 2669   0.131   2.453   3.543
  884SOL     OW 2670   1.369   2.812   3.522
  884SOL    HW1 2671   1.408   2.901   3.542
  884SOL    HW2 2672   1.379   2.792   3.425
  885SOL     OW 2673   0.815   2.434   2.187
  885SOL    HW1 2674   0.822   2.345   2.141
  885SOL    HW2 2675   0.721   2.468   2.179
  886SOL     OW 2676   1.657   2.466   3.068
  886SOL    HW1 2677   1.619   2.397   3.130
  886SOL    HW2 2678   1.739   2.430   3.024
  887SOL     OW 2679   0.252   3.426   3.606
  887SOL    HW1 2680   0.222   3.483   3.682
  887SOL    HW2 2681   0.245   3.329   3.632
  888SOL     OW 2682   0.671   2.326   3.131
  888SOL    HW1 2683   0.637   2.237   3.101
  888SOL    HW2 2684   0.697   2.380   3.051
  889SOL     OW 2685   0.930   3.540   3.327
  889SOL    HW1 2686   0.906   3.522   3.232
  889SOL    HW2 2687   0.960   3.634   3.337
  890SOL     OW 2688   0.473   2.362   2.053
  890SOL    HW1 2689   0.534   2.442   2.057
  890SOL    HW2 2690   0.378   2.393   2.060
  891SOL     OW 2691   0.159   2.999   3.328
  891SOL    HW1 2692   0.181   2.938   3.404
  891SOL    HW2 2693   0.169   2.950   3.242
  892SOL     OW 2694   1.347   2.921   3.096
  892SOL    HW1 2695   1.371   2.858   3.022
  892SOL    HW2 2696   1.257   2.961   3.078
  893SOL     OW 2697   1.302   2.717   2.171
  893SOL    HW1 2698   1.216   2.686   2.213
  893SOL    HW2 2699   1.298   2.703   2.072
  894SOL     OW 2700   1.759   3.609   3.016
  894SOL    HW1 2701   1.820   3.639   2.943
  894SOL    HW2 2702   1.721   3.520   2.994
  895SOL     OW 2703   1.252   3.593   2.990
  895SOL    HW1 2704   1.336   3.598   2.936
  895SOL    HW2 2705   1.229   3.497   3.008
  896SOL     OW 2706   0.083   3.120   2.884
  896SOL    HW1 2707   0.078   3.119   2.984
  896SOL    HW2 2708   0.000   3.079   2.846
  897SOL     OW 2709   0.688   3.524   3.578
  897SOL    HW1 2710   0.632   3.605   3.587
  897SOL    HW2 2711   0.740   3.528   3.492
  898SOL     OW 2712   1.726   1.997   2.385
  898SOL    HW1 2713   1.799   1.980   2.318
  898SOL    HW2 2714   1.695   1.910   2.423
  899SOL     OW 2715   1.388   3.435   2.339
  899SOL    HW1 2716   1.455   3.447   2.265
  899SOL    HW2 2717   1.348   3.524   2.362
  900SOL     OW 2718   0.130   3.656   3.713
  900SOL    HW1 2719   0.089   3.582   3.766
  900SOL    HW2 2720   0.194   3.707   3.771
  901SOL     OW 2721   1.280   2.789   2.534
  901SOL    HW1 2722   1.340   2.708   2.536
  901SOL    HW2 2723   1.320   2.858   2.474
  902SOL     OW 2724   0.830   3.135   3.284
  902SOL    HW1 2725   0.825   3.168   3.379
  902SOL    HW2 2726   0.744   3.154   3.238
  903SOL     OW 2727   0.672   3.478   2.016
  903SOL    HW1 2728   0.681   3.488   1.917
  903SOL    HW2 2729   0.632   3.389   2.037
  904SOL     OW 2730   1.650   3.582   3.256
  904SOL    HW1 2731   1.703   3.592   3.172
  904SOL    HW2 2732   1.623   3.672   3.290
  905SOL     OW 2733   1.841   2.037   2.825
  905SOL    HW1 2734   1.880   1.952   2.789
  905SOL    HW2 2735   1.743   2.039   2.806
  906SOL     OW 2736   0.263   2.188   2.582
  906SOL    HW1 2737   0.184   2.239   2.548
  906SOL    HW2 2738   0.254   2.173   2.680
  907SOL     OW 2739   1.194   3.474   1.893
  907SOL    HW1 2740   1.200   3.381   1.930
  907SOL    HW2 2741   1.135   3.474   1.813
  908SOL     OW 2742   0.822   2.864   3.234
  908SOL    HW1 2743   0.862   2.863   3.142
  908SOL    HW2 2744   0.832   2.956   3.274
  909SOL     OW 2745   0.916   2.772   2.153
  909SOL    HW1 2746   0.979   2.810   2.085
  909SOL    HW2 2747   0.956   2.689   2.192
  910SOL     OW 2748   1.504   3.469   1.906
  910SOL    HW1 2749   1.412   3.506   1.913
  910SOL    HW2 2750   1.542   3.489   1.816
  911SOL     OW 2751   0.372   3.150   3.352
  911SOL    HW1 2752   0.359   3.243   3.318
  911SOL    HW2 2753   0.288   3.098   3.339
  912SOL     OW 2754   1.614   3.154   3.151
  912SOL    HW1 2755   1.674   3.157   3.231
  912SOL    HW2 2756   1.539   3.218   3.164
  913SOL     OW 2757   1.039   2.960   2.558
  913SOL    HW1 2758   0.969   2.913   2.612
  913SOL    HW2 2759   1.098   2.892   2.515
  914SOL     OW 2760   1.014   2.098   2.833
  914SOL    HW1 2761   1.006   2.062   2.740
  914SOL    HW2 2762   1.012   2.022   2.898
  915SOL     OW 2763   0.590   3.349   2.353
  915SOL    HW1 2764   0.632   3.291   2.283
  915SOL    HW2 2765   0.546   3.428   2.309
  916SOL     OW 2766   1.709   2.247   3.243
  916SOL    HW1 2767   1.782   2.316   3.247
  916SOL    HW2 2768   1.737   2.172   3.184
  917SOL     OW 2769   0.255   3.210   2.152
  917SOL    HW1 2770   0.159   3.211   2.125
  917SOL    HW2 2771   0.267   3.263   2.236
  918SOL     OW 2772   0.105   2.875   3.588
  918SOL    HW1 2773   0.028   2.842   3.642
  918SOL    HW2 2774   0.190   2.845   3.630
  919SOL     OW 2775   0.672   2.065   3.351
  919SOL    HW1 2776   0.762   2.049   3.311
  919SOL    HW2 2777   0.680   2.070   3.450
  920SOL     OW 2778   0.075   2.207   1.895
  920SOL    HW1 2779  -0.017   2.179   1.866
  920SOL    HW2 2780   0.106   2.284   1.839
  921SOL     OW 2781   1.440   2.718   3.260
  921SOL    HW1 2782   1.383   2.770   3.197
  921SOL    HW2 2783   1.536   2.730   3.236
  922SOL     OW 2784   0.072   2.028   2.180
  922SOL    HW1 2785   0.055   2.111   2.126
  922SOL    HW2 2786   0.162   1.991   2.158
  923SOL     OW 2787   1.183   3.197   1.981
  923SOL    HW1 2788   1.084   3.186   1.983
  923SOL    HW2 2789   1.217   3.212   2.074
  924SOL     OW 2790   0.613   2.704   3.293
  924SOL    HW1 2791   0.669   2.785   3.276
  924SOL    HW2 2792   0.672   2.624   3.296
  925SOL     OW 2793   1.493   3.629   2.821
  925SOL    HW1 2794   1.526   3.693   2.752
  925SOL    HW2 2795   1.559   3.623   2.896
  926SOL     OW 2796   0.716   2.427   3.570
  926SOL    HW1 2797   0.735   2.492   3.644
  926SOL    HW2 2798   0.776   2.347   3.579
  927SOL     OW 2799   1.450   3.082   3.495
  927SOL    HW1 2800   1.441   3.072   3.594
  927SOL    HW2 2801   1.546   3.075   3.469
  928SOL     OW 2802   0.390   3.603   3.422
  928SOL    HW1 2803   0.299   3.644   3.420
  928SOL    HW2 2804   0.383   3.509   3.454
  929SOL     OW 2805   1.674   2.745   3.116
  929SOL    HW1 2806   1.647   2.656   3.079
  929SOL    HW2 2807   1.675   2.813   3.043
  930SOL     OW 2808   1.225   2.187   2.311
  930SOL    HW1 2809   1.290   2.113   2.300
  930SOL    HW2 2810   1.245   2.237   2.395
  931SOL     OW 2811   0.594   2.607   2.514
  931SOL    HW1 2812   0.644   2.692   2.495
  931SOL    HW2 2813   0.506   2.609   2.466
  932SOL     OW 2814   1.777   2.204   3.504
  932SOL    HW1 2815   1.760   2.235   3.410
  932SOL    HW2 2816   1.693   2.167   3.542
  933SOL     OW 2817   1.730   2.796   3.379
  933SOL    HW1 2818   1.768   2.887   3.394
  933SOL    HW2 2819   1.722   2.779   3.280
  934SOL     OW 2820   0.859   3.236   1.878
  934SOL    HW1 2821   0.813   3.251   1.966
  934SOL    HW2 2822   0.903   3.321   1.848
  935SOL     OW 2823   0.661   3.652   2.815
  935SOL    HW1 2824   0.615   3.740   2.802
  935SOL    HW2 2825   0.760   3.664   2.808
  936SOL     OW 2826   0.859   2.818   2.723
  936SOL    HW1 2827   0.913   2.749   2.771
  936SOL    HW2 2828   0.827   2.887   2.789
  937SOL     OW 2829   1.083   2.846   1.949
  937SOL    HW1 2830   1.060   2.899   1.867
  937SOL    HW2 2831   1.164   2.790   1.930
  938SOL     OW 2832   1.861   3.431   2.713
  938SOL    HW1 2833   1.790   3.419   2.643
  938SOL    HW2 2834   1.862   3.352   2.773
  939SOL     OW 2835   0.221   3.176   3.706
  939SOL    HW1 2836   0.156   3.103   3.685
  939SOL    HW2 2837   0.225   3.190   3.804
  940SOL     OW 2838   0.079   3.102   2.515
  940SOL    HW1 2839   0.078   3.055   2.603
  940SOL    HW2 2840   0.161   3.074   2.464
  941SOL     OW 2841   0.672   3.253   3.486
  941SOL    HW1 2842   0.594   3.203   3.524
  941SOL    HW2 2843   0.669   3.348   3.517
  942SOL     OW 2844   1.824   2.054   3.089
  942SOL    HW1 2845   1.820   1.964   3.133
  942SOL    HW2 2846   1.827   2.043   2.990
  943SOL     OW 2847   0.428   2.286   2.382
  943SOL    HW1 2848   0.458   2.214   2.320
  943SOL    HW2 2849   0.389   2.246   2.465
  944SOL     OW 2850   1.705   3.349   2.966
  944SOL    HW1 2851   1.612   3.324   2.939
  944SOL    HW2 2852   1.731   3.299   3.048
  945SOL     OW 2853   0.317   2.409   3.142
  945SOL    HW1 2854   0.355   2.350   3.214
  945SOL    HW2 2855   0.357   2.383   3.054
  946SOL     OW 2856   0.812   3.448   2.549
  946SOL    HW1 2857   0.844   3.458   2.455
  946SOL    HW2 2858   0.733   3.386   2.551
  947SOL     OW 2859   1.424   2.076   2.974
  947SOL    HW1 2860   1.476   2.011   3.029
  947SOL    HW2 2861   1.375   2.139   3.035
  948SOL     OW 2862   1.001   1.896   3.016
  948SOL    HW1 2863   0.938   1.824   2.985
  948SOL    HW2 2864   1.094   1.860   3.016
  949SOL     OW 2865   0.770   3.192   2.163
  949SOL    HW1 2866   0.724   3.105   2.180
  949SOL    HW2 2867   0.861   3.189   2.204
  950SOL     OW 2868   0.618   3.429   3.146
  950SOL    HW1 2869   0.613   3.511   3.203
  950SOL    HW2 2870   0.707   3.426   3.101
  951SOL     OW 2871   1.352   1.914   2.030
  951SOL    HW1 2872   1.387   1.873   1.946
  951SOL    HW2 2873   1.262   1.876   2.050
  952SOL     OW 2874   1.300   2.315   2.553
  952SOL    HW1 2875   1.241   2.395   2.557
  952SOL    HW2 2876   1.315   2.280   2.646
  953SOL     OW 2877   1.593   2.083   2.744
  953SOL    HW1 2878   1.509   2.082   2.798
  953SOL    HW2 2879   1.595   2.166   2.688
  954SOL     OW 2880   0.039   2.939   2.162
  954SOL    HW1 2881   0.138   2.928   2.153
  954SOL    HW2 2882  -0.001   2.853   2.194
  955SOL     OW 2883   0.875   3.508   2.199
  955SOL    HW1 2884   0.798   3.473   2.145
  955SOL    HW2 2885   0.843   3.579   2.261
  956SOL     OW 2886   0.230   2.490   3.837
  956SOL    HW1 2887   0.137   2.488   3.874
  956SOL    HW2 2888   0.231   2.451   3.745
  957SOL     OW 2889   0.019   2.230   4.371
  957SOL    HW1 2890  -0.063   2.273   4.410
  957SOL    HW2 2891  -0.009   2.157   4.308
  958SOL     OW 2892   1.555   3.373   4.427
  958SOL    HW1 2893   1.498   3.357   4.508
  958SOL    HW2 2894   1.496   3.383   4.347
  959SOL     OW 2895   1.135   2.565   4.441
  959SOL    HW1 2896   1.192   2.643   4.416
  959SOL    HW2 2897   1.075   2.591   4.517
  960SOL     OW 2898   1.755   2.469   3.955
  960SOL    HW1 2899   1.743   2.456   3.856
  960SOL    HW2 2900   1.725   2.388   4.004
  961SOL     OW 2901   0.685   2.874   4.389
  961SOL    HW1 2902   0.754   2.858   4.459
  961SOL    HW2 2903   0.612   2.931   4.427
  962SOL     OW 2904   1.603   2.309   4.461
  962SOL    HW1 2905   1.529   2.355   4.411
  962SOL    HW2 2906   1.654   2.377   4.514
  963SOL     OW 2907   0.231   3.575   4.207
  963SOL    HW1 2908   0.265   3.652   4.261
  963SOL    HW2 2909   0.275   3.575   4.117
  964SOL     OW 2910   0.230   3.296   4.262
  964SOL    HW1 2911   0.204   3.392   4.262
  964SOL    HW2 2912   0.159   3.242   4.307
  965SOL     OW 2913   0.240   2.953   4.610
  965SOL    HW1 2914   0.254   2.869   4.662
  965SOL    HW2 2915   0.185   3.017   4.665
  966SOL     OW 2916   0.606   2.826   3.847
  966SOL    HW1 2917   0.613   2.910   3.793
  966SOL    HW2 2918   0.652   2.839   3.935
  967SOL     OW 2919   0.122   2.505   4.287
  967SOL    HW1 2920   0.077   2.417   4.304
  967SOL    HW2 2921   0.121   2.559   4.371
  968SOL     OW 2922   1.842   3.629   4.083
  968SOL    HW1 2923   1.896   3.600   4.163
  968SOL    HW2 2924   1.872   3.719   4.054
  969SOL     OW 2925   0.027   3.458   3.841
  969SOL    HW1 2926   0.008   3.362   3.862
  969SOL    HW2 2927  -0.006   3.516   3.916
  970SOL     OW 2928   1.689   2.784   4.336
  970SOL    HW1 2929   1.784   2.755   4.344
  970SOL    HW2 2930   1.681   2.849   4.261
  971SOL     OW 2931   1.641   2.970   4.156
  971SOL    HW1 2932   1.727   2.972   4.104
  971SOL    HW2 2933   1.655   3.017   4.244
  972SOL     OW 2934   0.613   3.227   4.450
  972SOL    HW1 2935   0.564   3.140   4.459
  972SOL    HW2 2936   0.590   3.270   4.363
  973SOL     OW 2937   0.809   1.866   4.226
  973SOL    HW1 2938   0.849   1.957   4.217
  973SOL    HW2 2939   0.709   1.874   4.232
  974SOL     OW 2940   1.525   2.861   3.914
  974SOL    HW1 2941   1.462   2.785   3.927
  974SOL    HW2 2942   1.573   2.879   4.000
  975SOL     OW 2943   1.466   3.279   4.677
  975SOL    HW1 2944   1.407   3.285   4.757
  975SOL    HW2 2945   1.451   3.191   4.631
  976SOL     OW 2946   1.667   3.576   4.296
  976SOL    HW1 2947   1.626   3.553   4.208
  976SOL    HW2 2948   1.649   3.502   4.361
  977SOL     OW 2949   0.598   2.591   3.994
  977SOL    HW1 2950   0.622   2.660   3.926
  977SOL    HW2 2951   0.520   2.624   4.048
  978SOL     OW 2952   1.281   2.207   4.668
  978SOL    HW1 2953   1.195   2.157   4.655
  978SOL    HW2 2954   1.343   2.153   4.724
  979SOL     OW 2955   1.576   3.524   4.031
  979SOL    HW1 2956   1.665   3.570   4.034
  979SOL    HW2 2957   1.555   3.500   3.936
  980SOL     OW 2958   1.041   2.563   4.153
  980SOL    HW1 2959   1.067   2.559   4.249
  980SOL    HW2 2960   0.956   2.512   4.139
  981SOL     OW 2961   0.076   2.673   4.513
  981SOL    HW1 2962   0.175   2.661   4.522
  981SOL    HW2 2963   0.052   2.768   4.534
  982SOL     OW 2964   0.865   2.210   3.919
  982SOL    HW1 2965   0.924   2.273   3.870
  982SOL    HW2 2966   0.884   2.116   3.890
  983SOL     OW 2967   1.362   3.006   4.269
  983SOL    HW1 2968   1.445   2.977   4.221
  983SOL    HW2 2969   1.313   3.073   4.213
  984SOL     OW 2970   0.550   2.058   4.609
  984SOL    HW1 2971   0.545   2.053   4.709
  984SOL    HW2 2972   0.552   2.154   4.580
  985SOL     OW 2973   1.008   3.318   4.201
  985SOL    HW1 2974   0.962   3.390   4.149
  985SOL    HW2 2975   1.004   3.338   4.299
  986SOL     OW 2976   0.351   3.663   4.577
  986SOL    HW1 2977   0.401   3.577   4.583
  986SOL    HW2 2978   0.416   3.740   4.574
  987SOL     OW 2979   1.795   2.928   4.597
  987SOL    HW1 2980   1.733   2.913   4.521
  987SOL    HW2 2981   1.743   2.939   4.682
  988SOL     OW 2982   0.321   2.805   3.966
  988SOL    HW1 2983   0.403   2.844   3.924
  988SOL    HW2 2984   0.294   2.723   3.917
  989SOL     OW 2985   1.458   2.597   4.452
  989SOL    HW1 2986   1.453   2.532   4.527
  989SOL    HW2 2987   1.538   2.656   4.465
  990SOL     OW 2988   1.111   3.638   3.961
  990SOL    HW1 2989   1.051   3.576   4.011
  990SOL    HW2 2990   1.142   3.594   3.876
  991SOL     OW 2991   1.632   3.239   3.805
  991SOL    HW1 2992   1.600   3.333   3.795
  991SOL    HW2 2993   1.556   3.176   3.793
  992SOL     OW 2994   0.464   3.605   4.047
  992SOL    HW1 2995   0.497   3.644   4.133
  992SOL    HW2 2996   0.540   3.598   3.982
  993SOL     OW 2997   1.400   1.969   4.150
  993SOL    HW1 2998   1.376   1.932   4.060
  993SOL    HW2 2999   1.499   1.985   4.154
  994SOL     OW 3000   0.382   2.562   4.204
  994SOL    HW1 3001   0.427   2.472   4.201
  994SOL    HW2 3002   0.288   2.551   4.237
  995SOL     OW 3003   0.614   1.984   3.841
  995SOL    HW1 3004   0.712   1.962   3.848
  995SOL    HW2 3005   0.583   1.967   3.748
  996SOL     OW 3006   0.539   1.926   4.236
  996SOL    HW1 3007   0.458   1.927   4.294
  996SOL    HW2 3008   0.542   2.009   4.181
  997SOL     OW 3009   1.434   3.050   3.765
  997SOL    HW1 3010   1.466   2.974   3.822
  997SOL    HW2 3011   1.342   3.077   3.795
  998SOL     OW 3012   0.297   1.897   3.895
  998SOL    HW1 3013   0.346   1.981   3.874
  998SOL    HW2 3014   0.359   1.832   3.940
  999SOL     OW 3015   0.935   2.098   4.204
  999SOL    HW1 3016   0.887   2.139   4.126
  999SOL    HW2 3017   1.034   2.096   4.185
 1000SOL     OW 3018   1.227   3.432   4.517
 1000SOL    HW1 3019   1.248   3.506   4.452
 1000SOL    HW2 3020   1.295   3.432   4.590
 1001SOL     OW 3021   0.459   3.014   4.465
 1001SOL    HW1 3022   0.388   2.987   4.530
 1001SOL    HW2 3023   0.433   2.986   4.372
 1002SOL     OW 3024   1.271   3.659   4.315
 1002SOL    HW1 3025   1.315   3.723   4.251
 1002SOL    HW2 3026   1.221   3.711   4.385
 1003SOL     OW 3027   1.032   2.411   3.740
 1003SOL    HW1 3028   0.991   2.493   3.701
 1003SOL    HW2 3029   1.096   2.437   3.813
 1004SOL     OW 3030   0.866   2.316   4.366
 1004SOL    HW1 3031   0.834   2.388   4.304
 1004SOL    HW2 3032   0.890   2.235   4.313
 1005SOL     OW 3033   1.017   1.901   4.477
 1005SOL    HW1 3034   0.945   1.906   4.408
 1005SOL    HW2 3035   0.993   1.832   4.546
 1006SOL     OW 3036   1.857   2.695   4.101
 1006SOL    HW1 3037   1.899   2.631   4.165
 1006SOL    HW2 3038   1.819   2.644   4.023
 1007SOL     OW 3039   0.488   3.247   3.898
 1007SOL    HW1 3040   0.401   3.232   3.945
 1007SOL    HW2 3041   0.471   3.273   3.803
 1008SOL     OW 3042   1.664   3.142   4.381
 1008SOL    HW1 3043   1.763   3.150   4.395
 1008SOL    HW2 3044   1.619   3.226   4.412
 1009SOL     OW 3045   1.390   2.437   3.802
 1009SOL    HW1 3046   1.336   2.416   3.883
 1009SOL    HW2 3047   1.481   2.396   3.811
 1010SOL     OW 3048   0.527   2.118   4.052
 1010SOL    HW1 3049   0.554   2.059   3.977
 1010SOL    HW2 3050   0.527   2.213   4.021
 1011SOL     OW 3051   0.705   2.912   4.092
 1011SOL    HW1 3052   0.691   2.919   4.191
 1011SOL    HW2 3053   0.789   2.861   4.074
 1012SOL     OW 3054   0.367   2.962   4.225
 1012SOL    HW1 3055   0.360   3.045   4.169
 1012SOL    HW2 3056   0.371   2.882   4.165
 1013SOL     OW 3057   0.566   2.399   4.589
 1013SOL    HW1 3058   0.578   2.465   4.515
 1013SOL    HW2 3059   0.612   2.433   4.672
 1014SOL     OW 3060   1.252   3.210   4.112
 1014SOL    HW1 3061   1.302   3.287   4.152
 1014SOL    HW2 3062   1.157   3.212   4.144
 1015SOL     OW 3063   1.582   2.501   4.196
 1015SOL    HW1 3064   1.551   2.562   4.269
 1015SOL    HW2 3065   1.632   2.553   4.127
 1016SOL     OW 3066   1.209   2.387   3.999
 1016SOL    HW1 3067   1.222   2.303   4.053
 1016SOL    HW2 3068   1.180   2.461   4.059
 1017SOL     OW 3069   0.732   2.496   4.788
 1017SOL    HW1 3070   0.791   2.470   4.712
 1017SOL    HW2 3071   0.704   2.592   4.777
 1018SOL     OW 3072   0.307   1.925   4.342
 1018SOL    HW1 3073   0.296   2.019   4.375
 1018SOL    HW2 3074   0.302   1.862   4.419
 1019SOL     OW 3075   1.622   2.229   4.098
 1019SOL    HW1 3076   1.624   2.153   4.162
 1019SOL    HW2 3077   1.574   2.306   4.138
 1020SOL     OW 3078   1.540   2.136   3.849
 1020SOL    HW1 3079   1.479   2.061   3.872
 1020SOL    HW2 3080   1.562   2.188   3.932
 1021SOL     OW 3081   1.303   2.700   3.766
 1021SOL    HW1 3082   1.337   2.607   3.781
 1021SOL    HW2 3083   1.321   2.727   3.671
 1022SOL     OW 3084   1.068   3.195   4.573
 1022SOL    HW1 3085   1.075   3.111   4.518
 1022SOL    HW2 3086   1.130   3.264   4.537
 1023SOL     OW 3087   0.008   3.188   3.924
 1023SOL    HW1 3088  -0.085   3.209   3.893
 1023SOL    HW2 3089   0.018   3.089   3.937
 1024SOL     OW 3090   0.088   3.663   4.651
 1024SOL    HW1 3091   0.046   3.577   4.624
 1024SOL    HW2 3092   0.182   3.666   4.617
 1025SOL     OW 3093   0.504   3.430   4.634
 1025SOL    HW1 3094   0.570   3.504   4.643
 1025SOL    HW2 3095   0.548   3.351   4.592
 1026SOL     OW 3096   0.815   2.434   4.049
 1026SOL    HW1 3097   0.822   2.345   4.003
 1026SOL    HW2 3098   0.721   2.468   4.041
 1027SOL     OW 3099   0.473   2.362   3.915
 1027SOL    HW1 3100   0.534   2.442   3.919
 1027SOL    HW2 3101   0.378   2.393   3.922
 1028SOL     OW 3102   1.302   2.717   4.033
 1028SOL    HW1 3103   1.216   2.686   4.075
 1028SOL    HW2 3104   1.298   2.703   3.934
 1029SOL     OW 3105   1.759   3.609   4.878
 1029SOL    HW1 3106   1.820   3.639   4.805
 1029SOL    HW2 3107   1.721   3.520   4.856
 1030SOL     OW 3108   1.726   1.997   4.247
 1030SOL    HW1 3109   1.799   1.980   4.180
 1030SOL    HW2 3110   1.695   1.910   4.285
 1031SOL     OW 3111   1.388   3.435   4.201
 1031SOL    HW1 3112   1.455   3.447   4.127
 1031SOL    HW2 3113   1.348   3.524   4.224
 1032SOL     OW 3114   1.280   2.789   4.396
 1032SOL    HW1 3115   1.340   2.708   4.398
 1032SOL    HW2 3116   1.320   2.858   4.336
 1033SOL     OW 3117   0.672   3.478   3.878
 1033SOL    HW1 3118   0.681   3.488   3.779
 1033SOL    HW2 3119   0.632   3.389   3.899
 1034SOL     OW 3120   1.841   2.037   4.687
 1034SOL    HW1 3121   1.880   1.952   4.651
 1034SOL    HW2 3122   1.743   2.039   4.668
 1035SOL     OW 3123   0.263   2.188   4.444
 1035SOL    HW1 3124   0.184   2.239   4.410
 1035SOL    HW2 3125   0.254   2.173   4.542
 1036SOL     OW 3126   1.194   3.474   3.755
 1036SOL    HW1 3127   1.200   3.381   3.792
 1036SOL    HW2 3128   1.135   3.474   3.675
 1037SOL     OW 3129   0.916   2.772   4.015
 1037SOL    HW1 3130   0.979   2.810   3.947
 1037SOL    HW2 3131   0.956   2.689   4.054
 1038SOL     OW 3132   1.504   3.469   3.768
 1038SOL    HW1 3133   1.412   3.506   3.775
 1038SOL    HW2 3134   1.542   3.489   3.678
 1039SOL     OW 3135   1.039   2.960   4.420
 1039SOL    HW1 3136   0.969   2.913   4.474
 1039SOL    HW2 3137   1.098   2.892   4.377
 1040SOL     OW 3138   0.590   3.349   4.215
 1040SOL    HW1 3139   0.632   3.291   4.145
 1040SOL    HW2 3140   0.546   3.428   4.171
 1041SOL     OW 3141   0.255   3.210   4.014
 1041SOL    HW1 3142   0.159   3.211   3.987
 1041SOL    HW2 3143   0.267   3.263   4.098
 1042SOL     OW 3144   0.075   2.207   3.757
 1042SOL    HW1 3145  -0.017   2.179   3.728
 1042SOL    HW2 3146   0.106   2.284   3.701
 1043SOL     OW 3147   0.072   2.028   4.042
 1043SOL    HW1 3148   0.055   2.111   3.988
 1043SOL    HW2 3149   0.162   1.991   4.020
 1044SOL     OW 3150   1.183   3.197   3.843
 1044SOL    HW1 3151   1.084   3.186   3.845
 1044SOL    HW2 3152   1.217   3.212   3.936
 1045SOL     OW 3153   1.225   2.187   4.173
 1045SOL    HW1 3154   1.290   2.113   4.162
 1045SOL    HW2 3155   1.245   2.237   4.257
 1046SOL     OW 3156   0.594   2.607   4.376
 1046SOL    HW1 3157   0.644   2.692   4.357
 1046SOL    HW2 3158   0.506   2.609   4.328
 1047SOL     OW 3159   0.859   3.236   3.740
 1047SOL    HW1 3160   0.813   3.251   3.828
 1047SOL    HW2 3161   0.903   3.321   3.710
 1048SOL     OW 3162   0.661   3.652   4.677
 1048SOL    HW1 3163   0.615   3.740   4.664
 1048SOL    HW2 3164   0.760   3.664   4.670
 1049SOL     OW 3165   0.859   2.818   4.585
 1049SOL    HW1 3166   0.913   2.749   4.633
 1049SOL    HW2 3167   0.827   2.887   4.651
 1050SOL     OW 3168   1.083   2.846   3.811
 1050SOL    HW1 3169   1.060   2.899   3.729
 1050SOL    HW2 3170   1.164   2.790   3.792
 1051SOL     OW 3171   1.861   3.431   4.575
 1051SOL    HW1 3172   1.790   3.419   4.505
 1051SOL    HW2 3173   1.862   3.352   4.635
 1052SOL     OW 3174   0.079   3.102   4.377
 1052SOL    HW1 3175   0.078   3.055   4.465
 1052SOL    HW2 3176   0.161   3.074   4.326
 1053SOL     OW 3177   0.428   2.286   4.244
 1053SOL    HW1 3178   0.458   2.214   4.182
 1053SOL    HW2 3179   0.389   2.246   4.327
 1054SOL     OW 3180   0.812   3.448   4.411
 1054SOL    HW1 3181   0.844   3.458   4.317
 1054SOL    HW2 3182   0.733   3.386   4.413
 1055SOL     OW 3183   0.770   3.192   4.025
 1055SOL    HW1 3184   0.724   3.105   4.042
 1055SOL    HW2 3185   0.861   3.189   4.066
 1056SOL     OW 3186   1.352   1.914   3.892
 1056SOL    HW1 3187   1.387   1.873   3.808
 1056SOL    HW2 3188   1.262   1.876   3.912
 1057SOL     OW 3189   1.300   2.315   4.415
 1057SOL    HW1 3190   1.241   2.395   4.419
 1057SOL    HW2 3191   1.315   2.280   4.508
 1058SOL     OW 3192   1.593   2.083   4.606
 1058SOL    HW1 3193   1.509   2.082   4.660
 1058SOL    HW2 3194   1.595   2.166   4.550
 1059SOL     OW 3195   0.039   2.939   4.024
 1059SOL    HW1 3196   0.138   2.928   4.015
 1059SOL    HW2 3197  -0.001   2.853   4.056
 1060SOL     OW 3198   0.875   3.508   4.061
 1060SOL    HW1 3199   0.798   3.473   4.007
 1060SOL    HW2 3200   0.843   3.579   4.123
 1061SOL     OW 3201   0.230   4.352   0.113
 1061SOL    HW1 3202   0.137   4.350   0.150
 1061SOL    HW2 3203   0.231   4.313   0.021
 1062SOL     OW 3204   0.225   3.999   0.996
 1062SOL    HW1 3205   0.260   3.982   1.088
 1062SOL    HW2 3206   0.137   3.954   0.984
 1063SOL     OW 3207   0.019   4.092   0.647
 1063SOL    HW1 3208  -0.063   4.135   0.686
 1063SOL    HW2 3209  -0.009   4.019   0.584
 1064SOL     OW 3210   1.135   4.427   0.717
 1064SOL    HW1 3211   1.192   4.505   0.692
 1064SOL    HW2 3212   1.075   4.453   0.793
 1065SOL     OW 3213   1.755   4.331   0.231
 1065SOL    HW1 3214   1.743   4.318   0.132
 1065SOL    HW2 3215   1.725   4.250   0.280
 1066SOL     OW 3216   0.850   4.522   1.823
 1066SOL    HW1 3217   0.846   4.598   1.888
 1066SOL    HW2 3218   0.872   4.558   1.732
 1067SOL     OW 3219   0.685   4.736   0.665
 1067SOL    HW1 3220   0.754   4.720   0.735
 1067SOL    HW2 3221   0.612   4.793   0.703
 1068SOL     OW 3222   0.438   4.116   1.499
 1068SOL    HW1 3223   0.520   4.060   1.508
 1068SOL    HW2 3224   0.357   4.058   1.503
 1069SOL     OW 3225   1.603   4.171   0.737
 1069SOL    HW1 3226   1.529   4.217   0.687
 1069SOL    HW2 3227   1.654   4.239   0.790
 1070SOL     OW 3228   1.594   3.838   1.480
 1070SOL    HW1 3229   1.576   3.905   1.408
 1070SOL    HW2 3230   1.591   3.884   1.569
 1071SOL     OW 3231   0.122   4.367   0.563
 1071SOL    HW1 3232   0.077   4.279   0.580
 1071SOL    HW2 3233   0.121   4.421   0.647
 1072SOL     OW 3234   0.113   4.461   1.597
 1072SOL    HW1 3235   0.201   4.448   1.642
 1072SOL    HW2 3236   0.100   4.558   1.575
 1073SOL     OW 3237   0.809   3.728   0.502
 1073SOL    HW1 3238   0.849   3.819   0.493
 1073SOL    HW2 3239   0.709   3.736   0.508
 1074SOL     OW 3240   0.317   3.975   1.801
 1074SOL    HW1 3241   0.388   4.046   1.807
 1074SOL    HW2 3242   0.229   4.014   1.829
 1075SOL     OW 3243   0.598   4.453   0.270
 1075SOL    HW1 3244   0.622   4.522   0.202
 1075SOL    HW2 3245   0.520   4.486   0.324
 1076SOL     OW 3246   1.281   4.069   0.944
 1076SOL    HW1 3247   1.195   4.019   0.931
 1076SOL    HW2 3248   1.343   4.015   1.000
 1077SOL     OW 3249   0.807   4.329   1.465
 1077SOL    HW1 3250   0.760   4.326   1.554
 1077SOL    HW2 3251   0.756   4.274   1.399
 1078SOL     OW 3252   1.394   4.193   1.674
 1078SOL    HW1 3253   1.374   4.236   1.762
 1078SOL    HW2 3254   1.472   4.131   1.683
 1079SOL     OW 3255   0.973   4.614   1.572
 1079SOL    HW1 3256   1.019   4.530   1.543
 1079SOL    HW2 3257   0.917   4.648   1.497
 1080SOL     OW 3258   0.991   4.134   1.242
 1080SOL    HW1 3259   0.914   4.168   1.296
 1080SOL    HW2 3260   0.957   4.083   1.163
 1081SOL     OW 3261   1.041   4.425   0.429
 1081SOL    HW1 3262   1.067   4.421   0.525
 1081SOL    HW2 3263   0.956   4.374   0.415
 1082SOL     OW 3264   0.076   4.535   0.789
 1082SOL    HW1 3265   0.175   4.523   0.798
 1082SOL    HW2 3266   0.052   4.630   0.810
 1083SOL     OW 3267   0.865   4.072   0.195
 1083SOL    HW1 3268   0.924   4.135   0.146
 1083SOL    HW2 3269   0.884   3.978   0.166
 1084SOL     OW 3270   1.719   4.309   1.831
 1084SOL    HW1 3271   1.693   4.398   1.795
 1084SOL    HW2 3272   1.717   4.241   1.758
 1085SOL     OW 3273   0.550   3.920   0.885
 1085SOL    HW1 3274   0.545   3.915   0.985
 1085SOL    HW2 3275   0.552   4.016   0.856
 1086SOL     OW 3276   1.458   4.459   0.728
 1086SOL    HW1 3277   1.453   4.394   0.803
 1086SOL    HW2 3278   1.538   4.518   0.741
 1087SOL     OW 3279   0.202   4.009   1.498
 1087SOL    HW1 3280   0.122   4.069   1.485
 1087SOL    HW2 3281   0.192   3.960   1.584
 1088SOL     OW 3282   1.400   3.831   0.426
 1088SOL    HW1 3283   1.376   3.794   0.336
 1088SOL    HW2 3284   1.499   3.847   0.430
 1089SOL     OW 3285   0.382   4.424   0.480
 1089SOL    HW1 3286   0.427   4.334   0.477
 1089SOL    HW2 3287   0.288   4.413   0.513
 1090SOL     OW 3288   1.547   3.946   1.729
 1090SOL    HW1 3289   1.542   3.983   1.821
 1090SOL    HW2 3290   1.475   3.877   1.717
 1091SOL     OW 3291   0.781   3.988   1.749
 1091SOL    HW1 3292   0.848   3.927   1.792
 1091SOL    HW2 3293   0.708   4.007   1.814
 1092SOL     OW 3294   1.351   4.314   1.433
 1092SOL    HW1 3295   1.379   4.271   1.518
 1092SOL    HW2 3296   1.376   4.410   1.434
 1093SOL     OW 3297   0.922   4.227   0.899
 1093SOL    HW1 3298   0.897   4.218   0.803
 1093SOL    HW2 3299   0.970   4.145   0.930
 1094SOL     OW 3300   0.539   3.788   0.512
 1094SOL    HW1 3301   0.458   3.789   0.570
 1094SOL    HW2 3302   0.542   3.871   0.457
 1095SOL     OW 3303   0.297   3.759   0.171
 1095SOL    HW1 3304   0.346   3.843   0.150
 1095SOL    HW2 3305   0.359   3.694   0.216
 1096SOL     OW 3306   0.935   3.960   0.480
 1096SOL    HW1 3307   0.887   4.001   0.402
 1096SOL    HW2 3308   1.034   3.958   0.461
 1097SOL     OW 3309   1.076   4.407   1.464
 1097SOL    HW1 3310   0.996   4.346   1.467
 1097SOL    HW2 3311   1.157   4.354   1.440
 1098SOL     OW 3312   1.032   4.273   0.016
 1098SOL    HW1 3313   0.991   4.355  -0.023
 1098SOL    HW2 3314   1.096   4.299   0.089
 1099SOL     OW 3315   0.078   4.280   1.386
 1099SOL    HW1 3316   0.170   4.279   1.345
 1099SOL    HW2 3317   0.072   4.354   1.453
 1100SOL     OW 3318   0.561   3.946   1.147
 1100SOL    HW1 3319   0.599   3.862   1.184
 1100SOL    HW2 3320   0.473   3.965   1.191
 1101SOL     OW 3321   0.866   4.178   0.642
 1101SOL    HW1 3322   0.834   4.250   0.580
 1101SOL    HW2 3323   0.890   4.097   0.589
 1102SOL     OW 3324   1.017   3.763   0.753
 1102SOL    HW1 3325   0.945   3.768   0.684
 1102SOL    HW2 3326   0.993   3.694   0.822
 1103SOL     OW 3327   1.466   4.314   0.992
 1103SOL    HW1 3328   1.436   4.219   0.999
 1103SOL    HW2 3329   1.539   4.330   1.058
 1104SOL     OW 3330   1.857   4.557   0.377
 1104SOL    HW1 3331   1.899   4.493   0.441
 1104SOL    HW2 3332   1.819   4.506   0.299
 1105SOL     OW 3333   1.390   4.299   0.078
 1105SOL    HW1 3334   1.336   4.278   0.159
 1105SOL    HW2 3335   1.481   4.258   0.087
 1106SOL     OW 3336   0.527   3.980   0.328
 1106SOL    HW1 3337   0.554   3.921   0.253
 1106SOL    HW2 3338   0.527   4.075   0.297
 1107SOL     OW 3339   0.915   3.813   1.402
 1107SOL    HW1 3340   0.940   3.793   1.307
 1107SOL    HW2 3341   0.987   3.869   1.444
 1108SOL     OW 3342   0.410   4.537   1.251
 1108SOL    HW1 3343   0.496   4.549   1.301
 1108SOL    HW2 3344   0.368   4.450   1.278
 1109SOL     OW 3345   1.274   4.110   1.262
 1109SOL    HW1 3346   1.295   4.184   1.326
 1109SOL    HW2 3347   1.185   4.127   1.219
 1110SOL     OW 3348   0.566   4.261   0.865
 1110SOL    HW1 3349   0.578   4.327   0.791
 1110SOL    HW2 3350   0.612   4.295   0.948
 1111SOL     OW 3351   1.582   4.363   0.472
 1111SOL    HW1 3352   1.551   4.424   0.545
 1111SOL    HW2 3353   1.632   4.415   0.403
 1112SOL     OW 3354   0.402   4.475   1.598
 1112SOL    HW1 3355   0.470   4.530   1.551
 1112SOL    HW2 3356   0.442   4.387   1.625
 1113SOL     OW 3357   1.587   4.503   1.670
 1113SOL    HW1 3358   1.495   4.541   1.665
 1113SOL    HW2 3359   1.647   4.550   1.605
 1114SOL     OW 3360   1.013   3.829   1.770
 1114SOL    HW1 3361   1.019   3.914   1.718
 1114SOL    HW2 3362   1.045   3.753   1.713
 1115SOL     OW 3363   0.504   3.774   1.740
 1115SOL    HW1 3364   0.462   3.717   1.670
 1115SOL    HW2 3365   0.438   3.843   1.772
 1116SOL     OW 3366   0.573   4.594   1.029
 1116SOL    HW1 3367   0.617   4.683   1.020
 1116SOL    HW2 3368   0.510   4.594   1.106
 1117SOL     OW 3369   1.360   4.586   1.045
 1117SOL    HW1 3370   1.285   4.586   0.979
 1117SOL    HW2 3371   1.397   4.494   1.054
 1118SOL     OW 3372   1.209   4.249   0.275
 1118SOL    HW1 3373   1.222   4.165   0.329
 1118SOL    HW2 3374   1.180   4.323   0.335
 1119SOL     OW 3375   0.307   3.937   1.231
 1119SOL    HW1 3376   0.284   3.974   1.321
 1119SOL    HW2 3377   0.277   3.842   1.225
 1120SOL     OW 3378   0.732   4.358   1.064
 1120SOL    HW1 3379   0.791   4.332   0.988
 1120SOL    HW2 3380   0.704   4.454   1.053
 1121SOL     OW 3381   1.728   4.659   1.854
 1121SOL    HW1 3382   1.682   4.652   1.765
 1121SOL    HW2 3383   1.666   4.703   1.920
 1122SOL     OW 3384   0.307   3.787   0.618
 1122SOL    HW1 3385   0.296   3.881   0.651
 1122SOL    HW2 3386   0.302   3.724   0.695
 1123SOL     OW 3387   1.622   4.091   0.374
 1123SOL    HW1 3388   1.624   4.015   0.438
 1123SOL    HW2 3389   1.574   4.168   0.414
 1124SOL     OW 3390   1.023   4.490   0.966
 1124SOL    HW1 3391   1.038   4.511   1.062
 1124SOL    HW2 3392   0.993   4.395   0.957
 1125SOL     OW 3393   0.350   4.622   1.804
 1125SOL    HW1 3394   0.426   4.666   1.852
 1125SOL    HW2 3395   0.385   4.575   1.722
 1126SOL     OW 3396   1.540   3.998   0.125
 1126SOL    HW1 3397   1.479   3.923   0.148
 1126SOL    HW2 3398   1.562   4.050   0.208
 1127SOL     OW 3399   1.303   4.562   0.042
 1127SOL    HW1 3400   1.337   4.469   0.057
 1127SOL    HW2 3401   1.321   4.589  -0.053
 1128SOL     OW 3402   0.319   4.534   0.949
 1128SOL    HW1 3403   0.412   4.570   0.954
 1128SOL    HW2 3404   0.313   4.449   1.001
 1129SOL     OW 3405   0.339   4.233   1.006
 1129SOL    HW1 3406   0.287   4.150   0.989
 1129SOL    HW2 3407   0.416   4.238   0.942
 1130SOL     OW 3408   1.138   4.104   1.678
 1130SOL    HW1 3409   1.093   4.167   1.742
 1130SOL    HW2 3410   1.231   4.135   1.661
 1131SOL     OW 3411   1.160   3.931   1.477
 1131SOL    HW1 3412   1.160   3.995   1.554
 1131SOL    HW2 3413   1.188   3.979   1.394
 1132SOL     OW 3414   1.002   4.520   1.238
 1132SOL    HW1 3415   1.043   4.488   1.324
 1132SOL    HW2 3416   0.906   4.493   1.235
 1133SOL     OW 3417   0.040   4.268   1.114
 1133SOL    HW1 3418   0.125   4.235   1.073
 1133SOL    HW2 3419   0.053   4.283   1.212
 1134SOL     OW 3420   0.189   4.244   1.722
 1134SOL    HW1 3421   0.248   4.204   1.652
 1134SOL    HW2 3422   0.131   4.315   1.681
 1135SOL     OW 3423   0.815   4.296   0.325
 1135SOL    HW1 3424   0.822   4.207   0.279
 1135SOL    HW2 3425   0.721   4.330   0.317
 1136SOL     OW 3426   1.657   4.328   1.206
 1136SOL    HW1 3427   1.619   4.259   1.268
 1136SOL    HW2 3428   1.739   4.292   1.162
 1137SOL     OW 3429   0.671   4.188   1.269
 1137SOL    HW1 3430   0.637   4.099   1.239
 1137SOL    HW2 3431   0.697   4.242   1.189
 1138SOL     OW 3432   0.473   4.224   0.191
 1138SOL    HW1 3433   0.534   4.304   0.195
 1138SOL    HW2 3434   0.378   4.255   0.198
 1139SOL     OW 3435   1.347   4.783   1.234
 1139SOL    HW1 3436   1.371   4.720   1.160
 1139SOL    HW2 3437   1.257   4.823   1.216
 1140SOL     OW 3438   1.302   4.579   0.309
 1140SOL    HW1 3439   1.216   4.548   0.351
 1140SOL    HW2 3440   1.298   4.565   0.210
 1141SOL     OW 3441   0.903   3.810   0.133
 1141SOL    HW1 3442   0.954   3.811   0.047
 1141SOL    HW2 3443   0.959   3.768   0.204
 1142SOL     OW 3444   1.726   3.859   0.523
 1142SOL    HW1 3445   1.799   3.842   0.456
 1142SOL    HW2 3446   1.695   3.772   0.561
 1143SOL     OW 3447   1.280   4.651   0.672
 1143SOL    HW1 3448   1.340   4.570   0.674
 1143SOL    HW2 3449   1.320   4.720   0.612
 1144SOL     OW 3450   1.841   3.899   0.963
 1144SOL    HW1 3451   1.880   3.814   0.927
 1144SOL    HW2 3452   1.743   3.901   0.944
 1145SOL     OW 3453   0.263   4.050   0.720
 1145SOL    HW1 3454   0.184   4.101   0.686
 1145SOL    HW2 3455   0.254   4.035   0.818
 1146SOL     OW 3456   1.014   3.960   0.971
 1146SOL    HW1 3457   1.006   3.924   0.878
 1146SOL    HW2 3458   1.012   3.884   1.036
 1147SOL     OW 3459   1.709   4.109   1.381
 1147SOL    HW1 3460   1.782   4.178   1.385
 1147SOL    HW2 3461   1.737   4.034   1.322
 1148SOL     OW 3462   0.105   4.737   1.726
 1148SOL    HW1 3463   0.028   4.704   1.780
 1148SOL    HW2 3464   0.190   4.707   1.768
 1149SOL     OW 3465   0.672   3.927   1.489
 1149SOL    HW1 3466   0.762   3.911   1.449
 1149SOL    HW2 3467   0.680   3.932   1.588
 1150SOL     OW 3468   0.075   4.069   0.033
 1150SOL    HW1 3469  -0.017   4.041   0.004
 1150SOL    HW2 3470   0.106   4.146  -0.023
 1151SOL     OW 3471   1.440   4.580   1.398
 1151SOL    HW1 3472   1.383   4.632   1.335
 1151SOL    HW2 3473   1.536   4.592   1.374
 1152SOL     OW 3474   0.072   3.890   0.318
 1152SOL    HW1 3475   0.055   3.973   0.264
 1152SOL    HW2 3476   0.162   3.853   0.296
 1153SOL     OW 3477   0.613   4.566   1.431
 1153SOL    HW1 3478   0.669   4.647   1.414
 1153SOL    HW2 3479   0.672   4.486   1.434
 1154SOL     OW 3480   0.716   4.289   1.708
 1154SOL    HW1 3481   0.735   4.354   1.782
 1154SOL    HW2 3482   0.776   4.209   1.717
 1155SOL     OW 3483   1.674   4.607   1.254
 1155SOL    HW1 3484   1.647   4.518   1.217
 1155SOL    HW2 3485   1.675   4.675   1.181
 1156SOL     OW 3486   1.225   4.049   0.449
 1156SOL    HW1 3487   1.290   3.975   0.438
 1156SOL    HW2 3488   1.245   4.099   0.533
 1157SOL     OW 3489   0.594   4.469   0.652
 1157SOL    HW1 3490   0.644   4.554   0.633
 1157SOL    HW2 3491   0.506   4.471   0.604
 1158SOL     OW 3492   1.777   4.066   1.642
 1158SOL    HW1 3493   1.760   4.097   1.548
 1158SOL    HW2 3494   1.693   4.029   1.680
 1159SOL     OW 3495   1.730   4.658   1.517
 1159SOL    HW1 3496   1.768   4.749   1.532
 1159SOL    HW2 3497   1.722   4.641   1.418
 1160SOL     OW 3498   1.824   3.916   1.227
 1160SOL    HW1 3499   1.820   3.826   1.271
 1160SOL    HW2 3500   1.827   3.905   1.128
 1161SOL     OW 3501   0.428   4.148   0.520
 1161SOL    HW1 3502   0.458   4.076   0.458
 1161SOL    HW2 3503   0.389   4.108   0.603
 1162SOL     OW 3504   0.317   4.271   1.280
 1162SOL    HW1 3505   0.355   4.212   1.352
 1162SOL    HW2 3506   0.357   4.245   1.192
 1163SOL     OW 3507   1.424   3.938   1.112
 1163SOL    HW1 3508   1.476   3.873   1.167
 1163SOL    HW2 3509   1.375   4.001   1.173
 1164SOL     OW 3510   1.001   3.758   1.154
 1164SOL    HW1 3511   0.938   3.686   1.123
 1164SOL    HW2 3512   1.094   3.722   1.154
 1165SOL     OW 3513   1.352   3.776   0.168
 1165SOL    HW1 3514   1.387   3.735   0.084
 1165SOL    HW2 3515   1.262   3.738   0.188
 1166SOL     OW 3516   1.300   4.177   0.691
 1166SOL    HW1 3517   1.241   4.257   0.695
 1166SOL    HW2 3518   1.315   4.142   0.784
 1167SOL     OW 3519   1.593   3.945   0.882
 1167SOL    HW1 3520   1.509   3.944   0.936
 1167SOL    HW2 3521   1.595   4.028   0.826
 1168SOL     OW 3522   0.230   4.352   1.975
 1168SOL    HW1 3523   0.137   4.350   2.012
 1168SOL    HW2 3524   0.231   4.313   1.883
 1169SOL     OW 3525   0.225   3.999   2.858
 1169SOL    HW1 3526   0.260   3.982   2.950
 1169SOL    HW2 3527   0.137   3.954   2.846
 1170SOL     OW 3528   0.019   4.092   2.509
 1170SOL    HW1 3529  -0.063   4.135   2.548
 1170SOL    HW2 3530  -0.009   4.019   2.446
 1171SOL     OW 3531   1.135   4.427   2.579
 1171SOL    HW1 3532   1.192   4.505   2.554
 1171SOL    HW2 3533   1.075   4.453   2.655
 1172SOL     OW 3534   1.755   4.331   2.093
 1172SOL    HW1 3535   1.743   4.318   1.994
 1172SOL    HW2 3536   1.725   4.250   2.142
 1173SOL     OW 3537   0.850   4.522   3.685
 1173SOL    HW1 3538   0.846   4.598   3.750
 1173SOL    HW2 3539   0.872   4.558   3.594
 1174SOL     OW 3540   0.685   4.736   2.527
 1174SOL    HW1 3541   0.754   4.720   2.597
 1174SOL    HW2 3542   0.612   4.793   2.565
 1175SOL     OW 3543   0.438   4.116   3.361
 1175SOL    HW1 3544   0.520   4.060   3.370
 1175SOL    HW2 3545   0.357   4.058   3.365
 1176SOL     OW 3546   1.603   4.171   2.599
 1176SOL    HW1 3547   1.529   4.217   2.549
 1176SOL    HW2 3548   1.654   4.239   2.652
 1177SOL     OW 3549   1.594   3.838   3.342
 1177SOL    HW1 3550   1.576   3.905   3.270
 1177SOL    HW2 3551   1.591   3.884   3.431
 1178SOL     OW 3552   0.122   4.367   2.425
 1178SOL    HW1 3553   0.077   4.279   2.442
 1178SOL    HW2 3554   0.121   4.421   2.509
 1179SOL     OW 3555   0.113   4.461   3.459
 1179SOL    HW1 3556   0.201   4.448   3.504
 1179SOL    HW2 3557   0.100   4.558   3.437
 1180SOL     OW 3558   0.809   3.728   2.364
 1180SOL    HW1 3559   0.849   3.819   2.355
 1180SOL    HW2 3560   0.709   3.736   2.370
 1181SOL     OW 3561   0.317   3.975   3.663
 1181SOL    HW1 3562   0.388   4.046   3.669
 1181SOL    HW2 3563   0.229   4.014   3.691
 1182SOL     OW 3564   0.598   4.453   2.132
 1182SOL    HW1 3565   0.622   4.522   2.064
 1182SOL    HW2 3566   0.520   4.486   2.186
 1183SOL     OW 3567   1.281   4.069   2.806
 1183SOL    HW1 3568   1.195   4.019   2.793
 1183SOL    HW2 3569   1.343   4.015   2.862
 1184SOL     OW 3570   0.807   4.329   3.327
 1184SOL    HW1 3571   0.760   4.326   3.416
 1184SOL    HW2 3572   0.756   4.274   3.261
 1185SOL     OW 3573   1.394   4.193   3.536
 1185SOL    HW1 3574   1.374   4.236   3.624
 1185SOL    HW2 3575   1.472   4.131   3.545
 1186SOL     OW 3576   0.973   4.614   3.434
 1186SOL    HW1 3577   1.019   4.530   3.405
 1186SOL    HW2 3578   0.917   4.648   3.359
 1187SOL     OW 3579   0.991   4.134   3.104
 1187SOL    HW1 3580   0.914   4.168   3.158
 1187SOL    HW2 3581   0.957   4.083   3.025
 1188SOL     OW 3582   1.041   4.425   2.291
 1188SOL    HW1 3583   1.067   4.421   2.387
 1188SOL    HW2 3584   0.956   4.374   2.277
 1189SOL     OW 3585   0.076   4.535   2.651
 1189SOL    HW1 3586   0.175   4.523   2.660
 1189SOL    HW2 3587   0.052   4.630   2.672
 1190SOL     OW 3588   0.865   4.072   2.057
 1190SOL    HW1 3589   0.924   4.135   2.008
 1190SOL    HW2 3590   0.884   3.978   2.028
 1191SOL     OW 3591   1.719   4.309   3.693
 1191SOL    HW1 3592   1.693   4.398   3.657
 1191SOL    HW2 3593   1.717   4.241   3.620
 1192SOL     OW 3594   0.550   3.920   2.747
 1192SOL    HW1 3595   0.545   3.915   2.847
 1192SOL    HW2 3596   0.552   4.016   2.718
 1193SOL     OW 3597   1.458   4.459   2.590
 1193SOL    HW1 3598   1.453   4.394   2.665
 1193SOL    HW2 3599   1.538   4.518   2.603
 1194SOL     OW 3600   0.202   4.009   3.360
 1194SOL    HW1 3601   0.122   4.069   3.347
 1194SOL    HW2 3602   0.192   3.960   3.446
 1195SOL     OW 3603   1.400   3.831   2.288
 1195SOL    HW1 3604   1.376   3.794   2.198
 1195SOL    HW2 3605   1.499   3.847   2.292
 1196SOL     OW 3606   0.382   4.424   2.342
 1196SOL    HW1 3607   0.427   4.334   2.339
 1196SOL    HW2 3608   0.288   4.413   2.375
 1197SOL     OW 3609   1.547   3.946   3.591
 1197SOL    HW1 3610   1.542   3.983   3.683
 1197SOL    HW2 3611   1.475   3.877   3.579
 1198SOL     OW 3612   0.614   3.846   1.979
 1198SOL    HW1 3613   0.712   3.824   1.986
 1198SOL    HW2 3614   0.583   3.829   1.886
 1199SOL     OW 3615   0.781   3.988   3.611
 1199SOL    HW1 3616   0.848   3.927   3.654
 1199SOL    HW2 3617   0.708   4.007   3.676
 1200SOL     OW 3618   1.351   4.314   3.295
 1200SOL    HW1 3619   1.379   4.271   3.380
 1200SOL    HW2 3620   1.376   4.410   3.296
 1201SOL     OW 3621   0.922   4.227   2.761
 1201SOL    HW1 3622   0.897   4.218   2.665
 1201SOL    HW2 3623   0.970   4.145   2.792
 1202SOL     OW 3624   0.539   3.788   2.374
 1202SOL    HW1 3625   0.458   3.789   2.432
 1202SOL    HW2 3626   0.542   3.871   2.319
 1203SOL     OW 3627   0.297   3.759   2.033
 1203SOL    HW1 3628   0.346   3.843   2.012
 1203SOL    HW2 3629   0.359   3.694   2.078
 1204SOL     OW 3630   0.935   3.960   2.342
 1204SOL    HW1 3631   0.887   4.001   2.264
 1204SOL    HW2 3632   1.034   3.958   2.323
 1205SOL     OW 3633   1.076   4.407   3.326
 1205SOL    HW1 3634   0.996   4.346   3.329
 1205SOL    HW2 3635   1.157   4.354   3.302
 1206SOL     OW 3636   1.032   4.273   1.878
 1206SOL    HW1 3637   0.991   4.355   1.839
 1206SOL    HW2 3638   1.096   4.299   1.951
 1207SOL     OW 3639   0.078   4.280   3.248
 1207SOL    HW1 3640   0.170   4.279   3.207
 1207SOL    HW2 3641   0.072   4.354   3.315
 1208SOL     OW 3642   0.561   3.946   3.009
 1208SOL    HW1 3643   0.599   3.862   3.046
 1208SOL    HW2 3644   0.473   3.965   3.053
 1209SOL     OW 3645   0.866   4.178   2.504
 1209SOL    HW1 3646   0.834   4.250   2.442
 1209SOL    HW2 3647   0.890   4.097   2.451
 1210SOL     OW 3648   1.017   3.763   2.615
 1210SOL    HW1 3649   0.945   3.768   2.546
 1210SOL    HW2 3650   0.993   3.694   2.684
 1211SOL     OW 3651   1.466   4.314   2.854
 1211SOL    HW1 3652   1.436   4.219   2.861
 1211SOL    HW2 3653   1.539   4.330   2.920
 1212SOL     OW 3654   1.857   4.557   2.239
 1212SOL    HW1 3655   1.899   4.493   2.303
 1212SOL    HW2 3656   1.819   4.506   2.161
 1213SOL     OW 3657   1.390   4.299   1.940
 1213SOL    HW1 3658   1.336   4.278   2.021
 1213SOL    HW2 3659   1.481   4.258   1.949
 1214SOL     OW 3660   0.527   3.980   2.190
 1214SOL    HW1 3661   0.554   3.921   2.115
 1214SOL    HW2 3662   0.527   4.075   2.159
 1215SOL     OW 3663   0.915   3.813   3.264
 1215SOL    HW1 3664   0.940   3.793   3.169
 1215SOL    HW2 3665   0.987   3.869   3.306
 1216SOL     OW 3666   0.410   4.537   3.113
 1216SOL    HW1 3667   0.496   4.549   3.163
 1216SOL    HW2 3668   0.368   4.450   3.140
 1217SOL     OW 3669   1.274   4.110   3.124
 1217SOL    HW1 3670   1.295   4.184   3.188
 1217SOL    HW2 3671   1.185   4.127   3.081
 1218SOL     OW 3672   0.566   4.261   2.727
 1218SOL    HW1 3673   0.578   4.327   2.653
 1218SOL    HW2 3674   0.612   4.295   2.810
 1219SOL     OW 3675   1.582   4.363   2.334
 1219SOL    HW1 3676   1.551   4.424   2.407
 1219SOL    HW2 3677   1.632   4.415   2.265
 1220SOL     OW 3678   0.402   4.475   3.460
 1220SOL    HW1 3679   0.470   4.530   3.413
 1220SOL    HW2 3680   0.442   4.387   3.487
 1221SOL     OW 3681   1.587   4.503   3.532
 1221SOL    HW1 3682   1.495   4.541   3.527
 1221SOL    HW2 3683   1.647   4.550   3.467
 1222SOL     OW 3684   1.013   3.829   3.632
 1222SOL    HW1 3685   1.019   3.914   3.580
 1222SOL    HW2 3686   1.045   3.753   3.575
 1223SOL     OW 3687   0.504   3.774   3.602
 1223SOL    HW1 3688   0.462   3.717   3.532
 1223SOL    HW2 3689   0.438   3.843   3.634
 1224SOL     OW 3690   0.573   4.594   2.891
 1224SOL    HW1 3691   0.617   4.683   2.882
 1224SOL    HW2 3692   0.510   4.594   2.968
 1225SOL     OW 3693   1.360   4.586   2.907
 1225SOL    HW1 3694   1.285   4.586   2.841
 1225SOL    HW2 3695   1.397   4.494   2.916
 1226SOL     OW 3696   1.209   4.249   2.137
 1226SOL    HW1 3697   1.222   4.165   2.191
 1226SOL    HW2 3698   1.180   4.323   2.197
 1227SOL     OW 3699   0.307   3.937   3.093
 1227SOL    HW1 3700   0.284   3.974   3.183
 1227SOL    HW2 3701   0.277   3.842   3.087
 1228SOL     OW 3702   0.732   4.358   2.926
 1228SOL    HW1 3703   0.791   4.332   2.850
 1228SOL    HW2 3704   0.704   4.454   2.915
 1229SOL     OW 3705   1.728   4.659   3.716
 1229SOL    HW1 3706   1.682   4.652   3.627
 1229SOL    HW2 3707   1.666   4.703   3.782
 1230SOL     OW 3708   0.307   3.787   2.480
 1230SOL    HW1 3709   0.296   3.881   2.513
 1230SOL    HW2 3710   0.302   3.724   2.557
 1231SOL     OW 3711   1.622   4.091   2.236
 1231SOL    HW1 3712   1.624   4.015   2.300
 1231SOL    HW2 3713   1.574   4.168   2.276
 1232SOL     OW 3714   1.023   4.490   2.828
 1232SOL    HW1 3715   1.038   4.511   2.924
 1232SOL    HW2 3716   0.993   4.395   2.819
 1233SOL     OW 3717   0.350   4.622   3.666
 1233SOL    HW1 3718   0.426   4.666   3.714
 1233SOL    HW2 3719   0.385   4.575   3.584
 1234SOL     OW 3720   1.540   3.998   1.987
 1234SOL    HW1 3721   1.479   3.923   2.010
 1234SOL    HW2 3722   1.562   4.050   2.070
 1235SOL     OW 3723   1.303   4.562   1.904
 1235SOL    HW1 3724   1.337   4.469   1.919
 1235SOL    HW2 3725   1.321   4.589   1.809
 1236SOL     OW 3726   0.319   4.534   2.811
 1236SOL    HW1 3727   0.412   4.570   2.816
 1236SOL    HW2 3728   0.313   4.449   2.863
 1237SOL     OW 3729   0.339   4.233   2.868
 1237SOL    HW1 3730   0.287   4.150   2.851
 1237SOL    HW2 3731   0.416   4.238   2.804
 1238SOL     OW 3732   1.138   4.104   3.540
 1238SOL    HW1 3733   1.093   4.167   3.604
 1238SOL    HW2 3734   1.231   4.135   3.523
 1239SOL     OW 3735   1.160   3.931   3.339
 1239SOL    HW1 3736   1.160   3.995   3.416
 1239SOL    HW2 3737   1.188   3.979   3.256
 1240SOL     OW 3738   1.002   4.520   3.100
 1240SOL    HW1 3739   1.043   4.488   3.186
 1240SOL    HW2 3740   0.906   4.493   3.097
 1241SOL     OW 3741   0.040   4.268   2.976
 1241SOL    HW1 3742   0.125   4.235   2.935
 1241SOL    HW2 3743   0.053   4.283   3.074
 1242SOL     OW 3744   0.189   4.244   3.584
 1242SOL    HW1 3745   0.248   4.204   3.514
 1242SOL    HW2 3746   0.131   4.315   3.543
 1243SOL     OW 3747   0.815   4.296   2.187
 1243SOL    HW1 3748   0.822   4.207   2.141
 1243SOL    HW2 3749   0.721   4.330   2.179
 1244SOL     OW 3750   1.657   4.328   3.068
 1244SOL    HW1 3751   1.619   4.259   3.130
 1244SOL    HW2 3752   1.739   4.292   3.024
 1245SOL     OW 3753   0.671   4.188   3.131
 1245SOL    HW1 3754   0.637   4.099   3.101
 1245SOL    HW2 3755   0.697   4.242   3.051
 1246SOL     OW 3756   0.473   4.224   2.053
 1246SOL    HW1 3757   0.534   4.304   2.057
 1246SOL    HW2 3758   0.378   4.255   2.060
 1247SOL     OW 3759   1.347   4.783   3.096
 1247SOL    HW1 3760   1.371   4.720   3.022
 1247SOL    HW2 3761   1.257   4.823   3.078
 1248SOL     OW 3762   1.302   4.579   2.171
 1248SOL    HW1 3763   1.216   4.548   2.213
 1248SOL    HW2 3764   1.298   4.565   2.072
 1249SOL     OW 3765   1.726   3.859   2.385
 1249SOL    HW1 3766   1.799   3.842   2.318
 1249SOL    HW2 3767   1.695   3.772   2.423
 1250SOL     OW 3768   1.280   4.651   2.534
 1250SOL    HW1 3769   1.340   4.570   2.536
 1250SOL    HW2 3770   1.320   4.720   2.474
 1251SOL     OW 3771   1.841   3.899   2.825
 1251SOL    HW1 3772   1.880   3.814   2.789
 1251SOL    HW2 3773   1.743   3.901   2.806
 1252SOL     OW 3774   0.263   4.050   2.582
 1252SOL    HW1 3775   0.184   4.101   2.548
 1252SOL    HW2 3776   0.254   4.035   2.680
 1253SOL     OW 3777   0.916   4.634   2.153
 1253SOL    HW1 3778   0.979   4.672   2.085
 1253SOL    HW2 3779   0.956   4.551   2.192
 1254SOL     OW 3780   1.014   3.960   2.833
 1254SOL    HW1 3781   1.006   3.924   2.740
 1254SOL    HW2 3782   1.012   3.884   2.898
 1255SOL     OW 3783   1.709   4.109   3.243
 1255SOL    HW1 3784   1.782   4.178   3.247
 1255SOL    HW2 3785   1.737   4.034   3.184
 1256SOL     OW 3786   0.105   4.737   3.588
 1256SOL    HW1 3787   0.028   4.704   3.642
 1256SOL    HW2 3788   0.190   4.707   3.630
 1257SOL     OW 3789   0.672   3.927   3.351
 1257SOL    HW1 3790   0.762   3.911   3.311
 1257SOL    HW2 3791   0.680   3.932   3.450
 1258SOL     OW 3792   0.075   4.069   1.895
 1258SOL    HW1 3793  -0.017   4.041   1.866
 1258SOL    HW2 3794   0.106   4.146   1.839
 1259SOL     OW 3795   1.440   4.580   3.260
 1259SOL    HW1 3796   1.383   4.632   3.197
 1259SOL    HW2 3797   1.536   4.592   3.236
 1260SOL     OW 3798   0.072   3.890   2.180
 1260SOL    HW1 3799   0.055   3.973   2.126
 1260SOL    HW2 3800   0.162   3.853   2.158
 1261SOL     OW 3801   0.613   4.566   3.293
 1261SOL    HW1 3802   0.669   4.647   3.276
 1261SOL    HW2 3803   0.672   4.486   3.296
 1262SOL     OW 3804   0.716   4.289   3.570
 1262SOL    HW1 3805   0.735   4.354   3.644
 1262SOL    HW2 3806   0.776   4.209   3.579
 1263SOL     OW 3807   1.674   4.607   3.116
 1263SOL    HW1 3808   1.647   4.518   3.079
 1263SOL    HW2 3809   1.675   4.675   3.043
 1264SOL     OW 3810   1.225   4.049   2.311
 1264SOL    HW1 3811   1.290   3.975   2.300
 1264SOL    HW2 3812   1.245   4.099   2.395
 1265SOL     OW 3813   0.594   4.469   2.514
 1265SOL    HW1 3814   0.644   4.554   2.495
 1265SOL    HW2 3815   0.506   4.471   2.466
 1266SOL     OW 3816   1.777   4.066   3.504
 1266SOL    HW1 3817   1.760   4.097   3.410
 1266SOL    HW2 3818   1.693   4.029   3.542
 1267SOL     OW 3819   1.730   4.658   3.379
 1267SOL    HW1 3820   1.768   4.749   3.394
 1267SOL    HW2 3821   1.722   4.641   3.280
 1268SOL     OW 3822   1.824   3.916   3.089
 1268SOL    HW1 3823   1.820   3.826   3.133
 1268SOL    HW2 3824   1.827   3.905   2.990
 1269SOL     OW 3825   0.428   4.148   2.382
 1269SOL    HW1 3826   0.458   4.076   2.320
 1269SOL    HW2 3827   0.389   4.108   2.465
 1270SOL     OW 3828   0.317   4.271   3.142
 1270SOL    HW1 3829   0.355   4.212   3.214
 1270SOL    HW2 3830   0.357   4.245   3.054
 1271SOL     OW 3831   1.424   3.938   2.974
 1271SOL    HW1 3832   1.476   3.873   3.029
 1271SOL    HW2 3833   1.375   4.001   3.035
 1272SOL     OW 3834   1.001   3.758   3.016
 1272SOL    HW1 3835   0.938   3.686   2.985
 1272SOL    HW2 3836   1.094   3.722   3.016
 1273SOL     OW 3837   1.352   3.776   2.030
 1273SOL    HW1 3838   1.387   3.735   1.946
 1273SOL    HW2 3839   1.262   3.738   2.050
 1274SOL     OW 3840   1.300   4.177   2.553
 1274SOL    HW1 3841   1.241   4.257   2.557
 1274SOL    HW2 3842   1.315   4.142   2.646
 1275SOL     OW 3843   1.593   3.945   2.744
 1275SOL    HW1 3844   1.509   3.944   2.798
 1275SOL    HW2 3845   1.595   4.028   2.688
 1276SOL     OW 3846   0.230   4.352   3.837
 1276SOL    HW1 3847   0.137   4.350   3.874
 1276SOL    HW2 3848   0.231   4.313   3.745
 1277SOL     OW 3849   0.019   4.092   4.371
 1277SOL    HW1 3850  -0.063   4.135   4.410
 1277SOL    HW2 3851  -0.009   4.019   4.308
 1278SOL     OW 3852   1.135   4.427   4.441
 1278SOL    HW1 3853   1.192   4.505   4.416
 1278SOL    HW2 3854   1.075   4.453   4.517
 1279SOL     OW 3855   1.755   4.331   3.955
 1279SOL    HW1 3856   1.743   4.318   3.856
 1279SOL    HW2 3857   1.725   4.250   4.004
 1280SOL     OW 3858   0.685   4.736   4.389
 1280SOL    HW1 3859   0.754   4.720   4.459
 1280SOL    HW2 3860   0.612   4.793   4.427
 1281SOL     OW 3861   1.603   4.171   4.461
 1281SOL    HW1 3862   1.529   4.217   4.411
 1281SOL    HW2 3863   1.654   4.239   4.514
 1282SOL     OW 3864   0.240   4.815   4.610
 1282SOL    HW1 3865   0.254   4.731   4.662
 1282SOL    HW2 3866   0.185   4.879   4.665
 1283SOL     OW 3867   0.122   4.367   4.287
 1283SOL    HW1 3868   0.077   4.279   4.304
 1283SOL    HW2 3869   0.121   4.421   4.371
 1284SOL     OW 3870   0.809   3.728   4.226
 1284SOL    HW1 3871   0.849   3.819   4.217
 1284SOL    HW2 3872   0.709   3.736   4.232
 1285SOL     OW 3873   0.598   4.453   3.994
 1285SOL    HW1 3874   0.622   4.522   3.926
 1285SOL    HW2 3875   0.520   4.486   4.048
 1286SOL     OW 3876   1.281   4.069   4.668
 1286SOL    HW1 3877   1.195   4.019   4.655
 1286SOL    HW2 3878   1.343   4.015   4.724
 1287SOL     OW 3879   1.041   4.425   4.153
 1287SOL    HW1 3880   1.067   4.421   4.249
 1287SOL    HW2 3881   0.956   4.374   4.139
 1288SOL     OW 3882   0.076   4.535   4.513
 1288SOL    HW1 3883   0.175   4.523   4.522
 1288SOL    HW2 3884   0.052   4.630   4.534
 1289SOL     OW 3885   0.865   4.072   3.919
 1289SOL    HW1 3886   0.924   4.135   3.870
 1289SOL    HW2 3887   0.884   3.978   3.890
 1290SOL     OW 3888   0.550   3.920   4.609
 1290SOL    HW1 3889   0.545   3.915   4.709
 1290SOL    HW2 3890   0.552   4.016   4.580
 1291SOL     OW 3891   1.458   4.459   4.452
 1291SOL    HW1 3892   1.453   4.394   4.527
 1291SOL    HW2 3893   1.538   4.518   4.465
 1292SOL     OW 3894   1.400   3.831   4.150
 1292SOL    HW1 3895   1.376   3.794   4.060
 1292SOL    HW2 3896   1.499   3.847   4.154
 1293SOL     OW 3897   0.382   4.424   4.204
 1293SOL    HW1 3898   0.427   4.334   4.201
 1293SOL    HW2 3899   0.288   4.413   4.237
 1294SOL     OW 3900   0.614   3.846   3.841
 1294SOL    HW1 3901   0.712   3.824   3.848
 1294SOL    HW2 3902   0.583   3.829   3.748
 1295SOL     OW 3903   0.539   3.788   4.236
 1295SOL    HW1 3904   0.458   3.789   4.294
 1295SOL    HW2 3905   0.542   3.871   4.181
 1296SOL     OW 3906   0.297   3.759   3.895
 1296SOL    HW1 3907   0.346   3.843   3.874
 1296SOL    HW2 3908   0.359   3.694   3.940
 1297SOL     OW 3909   0.935   3.960   4.204
 1297SOL    HW1 3910   0.887   4.001   4.126
 1297SOL    HW2 3911   1.034   3.958   4.185
 1298SOL     OW 3912   1.032   4.273   3.740
 1298SOL    HW1 3913   0.991   4.355   3.701
 1298SOL    HW2 3914   1.096   4.299   3.813
 1299SOL     OW 3915   0.866   4.178   4.366
 1299SOL    HW1 3916   0.834   4.250   4.304
 1299SOL    HW2 3917   0.890   4.097   4.313
 1300SOL     OW 3918   1.017   3.763   4.477
 1300SOL    HW1 3919   0.945   3.768   4.408
 1300SOL    HW2 3920   0.993   3.694   4.546
 1301SOL     OW 3921   1.857   4.557   4.101
 1301SOL    HW1 3922   1.899   4.493   4.165
 1301SOL    HW2 3923   1.819   4.506   4.023
 1302SOL     OW 3924   1.390   4.299   3.802
 1302SOL    HW1 3925   1.336   4.278   3.883
 1302SOL    HW2 3926   1.481   4.258   3.811
 1303SOL     OW 3927   0.527   3.980   4.052
 1303SOL    HW1 3928   0.554   3.921   3.977
 1303SOL    HW2 3929   0.527   4.075   4.021
 1304SOL     OW 3930   1.111   4.919   4.824
 1304SOL    HW1 3931   1.071   4.963   4.905
 1304SOL    HW2 3932   1.070   4.956   4.741
 1305SOL     OW 3933   0.566   4.261   4.589
 1305SOL    HW1 3934   0.578   4.327   4.515
 1305SOL    HW2 3935   0.612   4.295   4.672
 1306SOL     OW 3936   1.582   4.363   4.196
 1306SOL    HW1 3937   1.551   4.424   4.269
 1306SOL    HW2 3938   1.632   4.415   4.127
 1307SOL     OW 3939   1.209   4.249   3.999
 1307SOL    HW1 3940   1.222   4.165   4.053
 1307SOL    HW2 3941   1.180   4.323   4.059
 1308SOL     OW 3942   0.732   4.358   4.788
 1308SOL    HW1 3943   0.791   4.332   4.712
 1308SOL    HW2 3944   0.704   4.454   4.777
 1309SOL     OW 3945   0.307   3.787   4.342
 1309SOL    HW1 3946   0.296   3.881   4.375
 1309SOL    HW2 3947   0.302   3.724   4.419
 1310SOL     OW 3948   1.622   4.091   4.098
 1310SOL    HW1 3949   1.624   4.015   4.162
 1310SOL    HW2 3950   1.574   4.168   4.138
 1311SOL     OW 3951   1.540   3.998   3.849
 1311SOL    HW1 3952   1.479   3.923   3.872
 1311SOL    HW2 3953   1.562   4.050   3.932
 1312SOL     OW 3954   1.303   4.562   3.766
 1312SOL    HW1 3955   1.337   4.469   3.781
 1312SOL    HW2 3956   1.321   4.589   3.671
 1313SOL     OW 3957   0.815   4.296   4.049
 1313SOL    HW1 3958   0.822   4.207   4.003
 1313SOL    HW2 3959   0.721   4.330   4.041
 1314SOL     OW 3960   0.473   4.224   3.915
 1314SOL    HW1 3961   0.534   4.304   3.919
 1314SOL    HW2 3962   0.378   4.255   3.922
 1315SOL     OW 3963   1.302   4.579   4.033
 1315SOL    HW1 3964   1.216   4.548   4.075
 1315SOL    HW2 3965   1.298   4.565   3.934
 1316SOL     OW 3966   1.726   3.859   4.247
 1316SOL    HW1 3967   1.799   3.842   4.180
 1316SOL    HW2 3968   1.695   3.772   4.285
 1317SOL     OW 3969   1.280   4.651   4.396
 1317SOL    HW1 3970   1.340   4.570   4.398
 1317SOL    HW2 3971   1.320   4.720   4.336
 1318SOL     OW 3972   1.841   3.899   4.687
 1318SOL    HW1 3973   1.880   3.814   4.651
 1318SOL    HW2 3974   1.743   3.901   4.668
 1319SOL     OW 3975   0.263   4.050   4.444
 1319SOL    HW1 3976   0.184   4.101   4.410
 1319SOL    HW2 3977   0.254   4.035   4.542
 1320SOL     OW 3978   0.916   4.634   4.015
 1320SOL    HW1 3979   0.979   4.672   3.947
 1320SOL    HW2 3980   0.956   4.551   4.054
 1321SOL     OW 3981   0.075   4.069   3.757
 1321SOL    HW1 3982  -0.017   4.041   3.728
 1321SOL    HW2 3983   0.106   4.146   3.701
 1322SOL     OW 3984   0.072   3.890   4.042
 1322SOL    HW1 3985   0.055   3.973   3.988
 1322SOL    HW2 3986   0.162   3.853   4.020
 1323SOL     OW 3987   1.674   4.607   4.978
 1323SOL    HW1 3988   1.647   4.518   4.941
 1323SOL    HW2 3989   1.675   4.675   4.905
 1324SOL     OW 3990   1.225   4.049   4.173
 1324SOL    HW1 3991   1.290   3.975   4.162
 1324SOL    HW2 3992   1.245   4.099   4.257
 1325SOL     OW 3993   0.594   4.469   4.376
 1325SOL    HW1 3994   0.644   4.554   4.357
 1325SOL    HW2 3995   0.506   4.471   4.328
 1326SOL     OW 3996   0.428   4.148   4.244
 1326SOL    HW1 3997   0.458   4.076   4.182
 1326SOL    HW2 3998   0.389   4.108   4.327
 1327SOL     OW 3999   1.352   3.776   3.892
 1327SOL    HW1 4000   1.387   3.735   3.808
 1327SOL    HW2 4001   1.262   3.738   3.912
 1328SOL     OW 4002   1.300   4.177   4.415
 1328SOL    HW1 4003   1.241   4.257   4.419
 1328SOL    HW2 4004   1.315   4.142   4.508
 1329SOL     OW 4005   1.593   3.945   4.606
 1329SOL    HW1 4006   1.509   3.944   4.660
 1329SOL    HW2 4007   1.595   4.028   4.550
 1330SOL     OW 4008   2.092   0.628   0.113
 1330SOL    HW1 4009   1.999   0.626   0.150
 1330SOL    HW2 4010   2.093   0.589   0.021
 1331SOL     OW 4011   2.087   0.275   0.996
 1331SOL    HW1 4012   2.122   0.258   1.088
 1331SOL    HW2 4013   1.999   0.230   0.984
 1332SOL     OW 4014   1.881   0.368   0.647
 1332SOL    HW1 4015   1.799   0.411   0.686
 1332SOL    HW2 4016   1.853   0.295   0.584
 1333SOL     OW 4017   2.431   1.275   1.165
 1333SOL    HW1 4018   2.338   1.268   1.128
 1333SOL    HW2 4019   2.442   1.364   1.209
 1334SOL     OW 4020   3.417   1.511   0.703
 1334SOL    HW1 4021   3.360   1.495   0.784
 1334SOL    HW2 4022   3.358   1.521   0.623
 1335SOL     OW 4023   2.997   0.703   0.717
 1335SOL    HW1 4024   3.054   0.781   0.692
 1335SOL    HW2 4025   2.937   0.729   0.793
 1336SOL     OW 4026   3.617   0.607   0.231
 1336SOL    HW1 4027   3.605   0.594   0.132
 1336SOL    HW2 4028   3.587   0.526   0.280
 1337SOL     OW 4029   2.630   1.144   1.023
 1337SOL    HW1 4030   2.552   1.161   1.083
 1337SOL    HW2 4031   2.664   1.231   0.987
 1338SOL     OW 4032   2.712   0.798   1.823
 1338SOL    HW1 4033   2.708   0.874   1.888
 1338SOL    HW2 4034   2.734   0.834   1.732
 1339SOL     OW 4035   2.547   1.012   0.665
 1339SOL    HW1 4036   2.616   0.996   0.735
 1339SOL    HW2 4037   2.474   1.069   0.703
 1340SOL     OW 4038   2.548   1.161   1.803
 1340SOL    HW1 4039   2.608   1.240   1.817
 1340SOL    HW2 4040   2.462   1.192   1.762
 1341SOL     OW 4041   2.197   1.435   1.061
 1341SOL    HW1 4042   2.119   1.404   1.008
 1341SOL    HW2 4043   2.255   1.493   1.004
 1342SOL     OW 4044   3.322   1.505   1.339
 1342SOL    HW1 4045   3.346   1.599   1.365
 1342SOL    HW2 4046   3.306   1.451   1.421
 1343SOL     OW 4047   2.300   0.392   1.499
 1343SOL    HW1 4048   2.382   0.336   1.508
 1343SOL    HW2 4049   2.219   0.334   1.503
 1344SOL     OW 4050   3.465   0.447   0.737
 1344SOL    HW1 4051   3.391   0.493   0.687
 1344SOL    HW2 4052   3.516   0.515   0.790
 1345SOL     OW 4053   2.093   1.713   0.483
 1345SOL    HW1 4054   2.127   1.790   0.537
 1345SOL    HW2 4055   2.137   1.713   0.393
 1346SOL     OW 4056   2.989   1.341   1.690
 1346SOL    HW1 4057   3.036   1.341   1.778
 1346SOL    HW2 4058   2.941   1.254   1.679
 1347SOL     OW 4059   2.092   1.434   0.538
 1347SOL    HW1 4060   2.066   1.530   0.538
 1347SOL    HW2 4061   2.021   1.380   0.583
 1348SOL     OW 4062   2.102   1.091   0.886
 1348SOL    HW1 4063   2.116   1.007   0.938
 1348SOL    HW2 4064   2.047   1.155   0.941
 1349SOL     OW 4065   2.482   1.786   1.439
 1349SOL    HW1 4066   2.390   1.769   1.474
 1349SOL    HW2 4067   2.510   1.878   1.465
 1350SOL     OW 4068   2.468   0.964   0.123
 1350SOL    HW1 4069   2.475   1.048   0.069
 1350SOL    HW2 4070   2.514   0.977   0.211
 1351SOL     OW 4071   3.456   0.114   1.480
 1351SOL    HW1 4072   3.438   0.181   1.408
 1351SOL    HW2 4073   3.453   0.160   1.569
 1352SOL     OW 4074   1.984   0.643   0.563
 1352SOL    HW1 4075   1.939   0.555   0.580
 1352SOL    HW2 4076   1.983   0.697   0.647
 1353SOL     OW 4077   3.704   1.767   0.359
 1353SOL    HW1 4078   3.758   1.738   0.439
 1353SOL    HW2 4079   3.734   1.857   0.330
 1354SOL     OW 4080   3.551   0.922   0.612
 1354SOL    HW1 4081   3.646   0.893   0.620
 1354SOL    HW2 4082   3.543   0.987   0.537
 1355SOL     OW 4083   3.503   1.108   0.432
 1355SOL    HW1 4084   3.589   1.110   0.380
 1355SOL    HW2 4085   3.517   1.155   0.520
 1356SOL     OW 4086   1.975   0.737   1.597
 1356SOL    HW1 4087   2.063   0.724   1.642
 1356SOL    HW2 4088   1.962   0.834   1.575
 1357SOL     OW 4089   2.475   1.365   0.726
 1357SOL    HW1 4090   2.426   1.278   0.735
 1357SOL    HW2 4091   2.452   1.408   0.639
 1358SOL     OW 4092   3.155   1.228   1.423
 1358SOL    HW1 4093   3.192   1.155   1.365
 1358SOL    HW2 4094   3.207   1.233   1.508
 1359SOL     OW 4095   2.671   0.004   0.502
 1359SOL    HW1 4096   2.711   0.095   0.493
 1359SOL    HW2 4097   2.571   0.012   0.508
 1360SOL     OW 4098   2.059   0.976   1.264
 1360SOL    HW1 4099   2.148   0.931   1.250
 1360SOL    HW2 4100   1.986   0.911   1.245
 1361SOL     OW 4101   3.387   0.999   0.190
 1361SOL    HW1 4102   3.324   0.923   0.203
 1361SOL    HW2 4103   3.435   1.017   0.276
 1362SOL     OW 4104   3.049   1.792   1.616
 1362SOL    HW1 4105   3.073   1.852   1.540
 1362SOL    HW2 4106   3.056   1.697   1.586
 1363SOL     OW 4107   2.179   0.251   1.801
 1363SOL    HW1 4108   2.250   0.322   1.807
 1363SOL    HW2 4109   2.091   0.290   1.829
 1364SOL     OW 4110   3.328   1.417   0.953
 1364SOL    HW1 4111   3.269   1.423   1.033
 1364SOL    HW2 4112   3.313   1.329   0.907
 1365SOL     OW 4113   3.529   1.714   0.572
 1365SOL    HW1 4114   3.488   1.691   0.484
 1365SOL    HW2 4115   3.511   1.640   0.637
 1366SOL     OW 4116   2.460   0.729   0.270
 1366SOL    HW1 4117   2.484   0.798   0.202
 1366SOL    HW2 4118   2.382   0.762   0.324
 1367SOL     OW 4119   3.143   0.345   0.944
 1367SOL    HW1 4120   3.057   0.295   0.931
 1367SOL    HW2 4121   3.205   0.291   1.000
 1368SOL     OW 4122   3.438   1.662   0.307
 1368SOL    HW1 4123   3.527   1.708   0.310
 1368SOL    HW2 4124   3.417   1.638   0.212
 1369SOL     OW 4125   2.669   0.605   1.465
 1369SOL    HW1 4126   2.622   0.602   1.554
 1369SOL    HW2 4127   2.618   0.550   1.399
 1370SOL     OW 4128   3.256   0.469   1.674
 1370SOL    HW1 4129   3.236   0.512   1.762
 1370SOL    HW2 4130   3.334   0.407   1.683
 1371SOL     OW 4131   2.835   0.890   1.572
 1371SOL    HW1 4132   2.881   0.806   1.543
 1371SOL    HW2 4133   2.779   0.924   1.497
 1372SOL     OW 4134   2.853   0.410   1.242
 1372SOL    HW1 4135   2.776   0.444   1.296
 1372SOL    HW2 4136   2.819   0.359   1.163
 1373SOL     OW 4137   2.903   0.701   0.429
 1373SOL    HW1 4138   2.929   0.697   0.525
 1373SOL    HW2 4139   2.818   0.650   0.415
 1374SOL     OW 4140   1.938   0.811   0.789
 1374SOL    HW1 4141   2.037   0.799   0.798
 1374SOL    HW2 4142   1.914   0.906   0.810
 1375SOL     OW 4143   1.992   1.821   1.571
 1375SOL    HW1 4144   1.982   1.806   1.670
 1375SOL    HW2 4145   1.906   1.857   1.535
 1376SOL     OW 4146   2.727   0.348   0.195
 1376SOL    HW1 4147   2.786   0.411   0.146
 1376SOL    HW2 4148   2.746   0.254   0.166
 1377SOL     OW 4149   3.581   0.585   1.831
 1377SOL    HW1 4150   3.555   0.674   1.795
 1377SOL    HW2 4151   3.579   0.517   1.758
 1378SOL     OW 4152   3.224   1.144   0.545
 1378SOL    HW1 4153   3.307   1.115   0.497
 1378SOL    HW2 4154   3.175   1.211   0.489
 1379SOL     OW 4155   2.412   0.196   0.885
 1379SOL    HW1 4156   2.407   0.191   0.985
 1379SOL    HW2 4157   2.414   0.292   0.856
 1380SOL     OW 4158   2.870   1.456   0.477
 1380SOL    HW1 4159   2.824   1.528   0.425
 1380SOL    HW2 4160   2.866   1.476   0.575
 1381SOL     OW 4161   2.213   1.801   0.853
 1381SOL    HW1 4162   2.263   1.715   0.859
 1381SOL    HW2 4163   2.278   1.878   0.850
 1382SOL     OW 4164   3.657   1.066   0.873
 1382SOL    HW1 4165   3.595   1.051   0.797
 1382SOL    HW2 4166   3.605   1.077   0.958
 1383SOL     OW 4167   3.089   1.550   1.506
 1383SOL    HW1 4168   3.095   1.473   1.570
 1383SOL    HW2 4169   3.037   1.524   1.426
 1384SOL     OW 4170   2.183   0.943   0.242
 1384SOL    HW1 4171   2.265   0.982   0.200
 1384SOL    HW2 4172   2.156   0.861   0.193
 1385SOL     OW 4173   3.320   0.735   0.728
 1385SOL    HW1 4174   3.315   0.670   0.803
 1385SOL    HW2 4175   3.400   0.794   0.741
 1386SOL     OW 4176   2.323   1.266   1.727
 1386SOL    HW1 4177   2.273   1.267   1.641
 1386SOL    HW2 4178   2.260   1.248   1.803
 1387SOL     OW 4179   2.973   1.776   0.237
 1387SOL    HW1 4180   2.913   1.714   0.287
 1387SOL    HW2 4181   3.004   1.732   0.152
 1388SOL     OW 4182   2.064   0.285   1.498
 1388SOL    HW1 4183   1.984   0.345   1.485
 1388SOL    HW2 4184   2.054   0.236   1.584
 1389SOL     OW 4185   3.494   1.377   0.081
 1389SOL    HW1 4186   3.462   1.471   0.071
 1389SOL    HW2 4187   3.418   1.314   0.069
 1390SOL     OW 4188   2.326   1.743   0.323
 1390SOL    HW1 4189   2.359   1.782   0.409
 1390SOL    HW2 4190   2.402   1.736   0.258
 1391SOL     OW 4191   3.262   0.107   0.426
 1391SOL    HW1 4192   3.238   0.070   0.336
 1391SOL    HW2 4193   3.361   0.123   0.430
 1392SOL     OW 4194   2.111   1.785   1.241
 1392SOL    HW1 4195   2.168   1.720   1.291
 1392SOL    HW2 4196   2.095   1.752   1.148
 1393SOL     OW 4197   2.802   1.698   0.904
 1393SOL    HW1 4198   2.882   1.641   0.925
 1393SOL    HW2 4199   2.753   1.658   0.827
 1394SOL     OW 4200   2.244   0.700   0.480
 1394SOL    HW1 4201   2.289   0.610   0.477
 1394SOL    HW2 4202   2.150   0.689   0.513
 1395SOL     OW 4203   3.409   0.222   1.729
 1395SOL    HW1 4204   3.404   0.259   1.821
 1395SOL    HW2 4205   3.337   0.153   1.717
 1396SOL     OW 4206   2.476   0.122   0.117
 1396SOL    HW1 4207   2.574   0.100   0.124
 1396SOL    HW2 4208   2.445   0.105   0.024
 1397SOL     OW 4209   2.643   0.264   1.749
 1397SOL    HW1 4210   2.710   0.203   1.792
 1397SOL    HW2 4211   2.570   0.283   1.814
 1398SOL     OW 4212   2.750   1.514   1.195
 1398SOL    HW1 4213   2.727   1.489   1.101
 1398SOL    HW2 4214   2.811   1.445   1.234
 1399SOL     OW 4215   3.213   0.590   1.433
 1399SOL    HW1 4216   3.241   0.547   1.518
 1399SOL    HW2 4217   3.238   0.686   1.434
 1400SOL     OW 4218   2.665   1.402   0.924
 1400SOL    HW1 4219   2.755   1.416   0.882
 1400SOL    HW2 4220   2.594   1.404   0.853
 1401SOL     OW 4221   2.784   0.503   0.899
 1401SOL    HW1 4222   2.759   0.494   0.803
 1401SOL    HW2 4223   2.832   0.421   0.930
 1402SOL     OW 4224   2.401   0.064   0.512
 1402SOL    HW1 4225   2.320   0.065   0.570
 1402SOL    HW2 4226   2.404   0.147   0.457
 1403SOL     OW 4227   3.296   1.188   0.041
 1403SOL    HW1 4228   3.328   1.112   0.098
 1403SOL    HW2 4229   3.204   1.215   0.071
 1404SOL     OW 4230   2.159   0.035   0.171
 1404SOL    HW1 4231   2.208   0.119   0.150
 1404SOL    HW2 4232   2.221  -0.030   0.216
 1405SOL     OW 4233   2.797   0.236   0.480
 1405SOL    HW1 4234   2.749   0.277   0.402
 1405SOL    HW2 4235   2.896   0.234   0.461
 1406SOL     OW 4236   2.938   0.683   1.464
 1406SOL    HW1 4237   2.858   0.622   1.467
 1406SOL    HW2 4238   3.019   0.630   1.440
 1407SOL     OW 4239   3.089   1.570   0.793
 1407SOL    HW1 4240   3.110   1.644   0.728
 1407SOL    HW2 4241   3.157   1.570   0.866
 1408SOL     OW 4242   2.321   1.152   0.741
 1408SOL    HW1 4243   2.250   1.125   0.806
 1408SOL    HW2 4244   2.295   1.124   0.648
 1409SOL     OW 4245   3.133   1.797   0.591
 1409SOL    HW1 4246   3.177   1.861   0.527
 1409SOL    HW2 4247   3.083   1.849   0.661
 1410SOL     OW 4248   2.894   0.549   0.016
 1410SOL    HW1 4249   2.853   0.631  -0.023
 1410SOL    HW2 4250   2.958   0.575   0.089
 1411SOL     OW 4251   1.940   0.556   1.386
 1411SOL    HW1 4252   2.032   0.555   1.345
 1411SOL    HW2 4253   1.934   0.630   1.453
 1412SOL     OW 4254   2.423   0.222   1.147
 1412SOL    HW1 4255   2.461   0.138   1.184
 1412SOL    HW2 4256   2.335   0.241   1.191
 1413SOL     OW 4257   2.728   0.454   0.642
 1413SOL    HW1 4258   2.696   0.526   0.580
 1413SOL    HW2 4259   2.752   0.373   0.589
 1414SOL     OW 4260   2.879   0.039   0.753
 1414SOL    HW1 4261   2.807   0.044   0.684
 1414SOL    HW2 4262   2.855  -0.030   0.822
 1415SOL     OW 4263   3.291   1.173   0.867
 1415SOL    HW1 4264   3.236   1.089   0.860
 1415SOL    HW2 4265   3.317   1.202   0.775
 1416SOL     OW 4266   3.328   0.590   0.992
 1416SOL    HW1 4267   3.298   0.495   0.999
 1416SOL    HW2 4268   3.401   0.606   1.058
 1417SOL     OW 4269   3.719   0.833   0.377
 1417SOL    HW1 4270   3.761   0.769   0.441
 1417SOL    HW2 4271   3.681   0.782   0.299
 1418SOL     OW 4272   2.350   1.385   0.174
 1418SOL    HW1 4273   2.263   1.370   0.221
 1418SOL    HW2 4274   2.333   1.411   0.079
 1419SOL     OW 4275   3.526   1.280   0.657
 1419SOL    HW1 4276   3.625   1.288   0.671
 1419SOL    HW2 4277   3.481   1.364   0.688
 1420SOL     OW 4278   3.252   0.575   0.078
 1420SOL    HW1 4279   3.198   0.554   0.159
 1420SOL    HW2 4280   3.343   0.534   0.087
 1421SOL     OW 4281   2.389   0.256   0.328
 1421SOL    HW1 4282   2.416   0.197   0.253
 1421SOL    HW2 4283   2.389   0.351   0.297
 1422SOL     OW 4284   3.616   1.223   1.588
 1422SOL    HW1 4285   3.707   1.184   1.575
 1422SOL    HW2 4286   3.624   1.319   1.612
 1423SOL     OW 4287   2.926   1.347   1.340
 1423SOL    HW1 4288   2.846   1.324   1.395
 1423SOL    HW2 4289   3.009   1.321   1.389
 1424SOL     OW 4290   3.454   1.629   1.625
 1424SOL    HW1 4291   3.481   1.663   1.535
 1424SOL    HW2 4292   3.533   1.591   1.671
 1425SOL     OW 4293   2.973   1.195   1.100
 1425SOL    HW1 4294   2.933   1.239   1.181
 1425SOL    HW2 4295   2.932   1.232   1.017
 1426SOL     OW 4296   3.500   1.099   1.079
 1426SOL    HW1 4297   3.505   1.180   1.138
 1426SOL    HW2 4298   3.414   1.101   1.028
 1427SOL     OW 4299   2.777   0.089   1.402
 1427SOL    HW1 4300   2.802   0.069   1.307
 1427SOL    HW2 4301   2.849   0.145   1.444
 1428SOL     OW 4302   2.842   1.116   1.719
 1428SOL    HW1 4303   2.743   1.122   1.729
 1428SOL    HW2 4304   2.865   1.036   1.663
 1429SOL     OW 4305   2.567   1.050   0.368
 1429SOL    HW1 4306   2.553   1.057   0.467
 1429SOL    HW2 4307   2.651   0.999   0.350
 1430SOL     OW 4308   2.272   0.813   1.251
 1430SOL    HW1 4309   2.358   0.825   1.301
 1430SOL    HW2 4310   2.230   0.726   1.278
 1431SOL     OW 4311   3.136   0.386   1.262
 1431SOL    HW1 4312   3.157   0.460   1.326
 1431SOL    HW2 4313   3.047   0.403   1.219
 1432SOL     OW 4314   1.926   1.564   1.331
 1432SOL    HW1 4315   1.880   1.646   1.297
 1432SOL    HW2 4316   2.024   1.583   1.340
 1433SOL     OW 4317   2.229   1.100   0.501
 1433SOL    HW1 4318   2.222   1.183   0.445
 1433SOL    HW2 4319   2.233   1.020   0.441
 1434SOL     OW 4320   2.428   0.537   0.865
 1434SOL    HW1 4321   2.440   0.603   0.791
 1434SOL    HW2 4322   2.474   0.571   0.948
 1435SOL     OW 4323   3.114   1.348   0.388
 1435SOL    HW1 4324   3.164   1.425   0.428
 1435SOL    HW2 4325   3.019   1.350   0.420
 1436SOL     OW 4326   3.134   1.445   1.142
 1436SOL    HW1 4327   3.181   1.458   1.229
 1436SOL    HW2 4328   3.068   1.371   1.151
 1437SOL     OW 4329   3.444   0.639   0.472
 1437SOL    HW1 4330   3.413   0.700   0.545
 1437SOL    HW2 4331   3.494   0.691   0.403
 1438SOL     OW 4332   2.216   1.510   1.329
 1438SOL    HW1 4333   2.195   1.466   1.242
 1438SOL    HW2 4334   2.313   1.536   1.332
 1439SOL     OW 4335   2.264   0.751   1.598
 1439SOL    HW1 4336   2.332   0.806   1.551
 1439SOL    HW2 4337   2.304   0.663   1.625
 1440SOL     OW 4338   3.449   0.779   1.670
 1440SOL    HW1 4339   3.357   0.817   1.665
 1440SOL    HW2 4340   3.509   0.826   1.605
 1441SOL     OW 4341   2.875   0.105   1.770
 1441SOL    HW1 4342   2.881   0.190   1.718
 1441SOL    HW2 4343   2.907   0.029   1.713
 1442SOL     OW 4344   2.366   0.050   1.740
 1442SOL    HW1 4345   2.324  -0.007   1.670
 1442SOL    HW2 4346   2.300   0.119   1.772
 1443SOL     OW 4347   2.435   0.870   1.029
 1443SOL    HW1 4348   2.479   0.959   1.020
 1443SOL    HW2 4349   2.372   0.870   1.106
 1444SOL     OW 4350   3.222   0.862   1.045
 1444SOL    HW1 4351   3.147   0.862   0.979
 1444SOL    HW2 4352   3.259   0.770   1.054
 1445SOL     OW 4353   3.071   0.525   0.275
 1445SOL    HW1 4354   3.084   0.441   0.329
 1445SOL    HW2 4355   3.042   0.599   0.335
 1446SOL     OW 4356   2.169   0.213   1.231
 1446SOL    HW1 4357   2.146   0.250   1.321
 1446SOL    HW2 4358   2.139   0.118   1.225
 1447SOL     OW 4359   1.899   1.310   1.282
 1447SOL    HW1 4360   1.952   1.261   1.350
 1447SOL    HW2 4361   1.921   1.408   1.287
 1448SOL     OW 4362   2.594   0.634   1.064
 1448SOL    HW1 4363   2.653   0.608   0.988
 1448SOL    HW2 4364   2.566   0.730   1.053
 1449SOL     OW 4365   3.590   0.935   1.854
 1449SOL    HW1 4366   3.544   0.928   1.765
 1449SOL    HW2 4367   3.528   0.979   1.920
 1450SOL     OW 4368   2.169   0.063   0.618
 1450SOL    HW1 4369   2.158   0.157   0.651
 1450SOL    HW2 4370   2.164   0.000   0.695
 1451SOL     OW 4371   3.484   0.367   0.374
 1451SOL    HW1 4372   3.486   0.291   0.438
 1451SOL    HW2 4373   3.436   0.444   0.414
 1452SOL     OW 4374   2.885   0.766   0.966
 1452SOL    HW1 4375   2.900   0.787   1.062
 1452SOL    HW2 4376   2.855   0.671   0.957
 1453SOL     OW 4377   2.842   1.573   1.700
 1453SOL    HW1 4378   2.822   1.617   1.612
 1453SOL    HW2 4379   2.881   1.482   1.684
 1454SOL     OW 4380   3.721   1.518   1.605
 1454SOL    HW1 4381   3.735   1.545   1.510
 1454SOL    HW2 4382   3.804   1.540   1.658
 1455SOL     OW 4383   2.212   0.898   1.804
 1455SOL    HW1 4384   2.288   0.942   1.852
 1455SOL    HW2 4385   2.247   0.851   1.722
 1456SOL     OW 4386   3.402   0.274   0.125
 1456SOL    HW1 4387   3.341   0.199   0.148
 1456SOL    HW2 4388   3.424   0.326   0.208
 1457SOL     OW 4389   3.165   0.838   0.042
 1457SOL    HW1 4390   3.199   0.745   0.057
 1457SOL    HW2 4391   3.183   0.865  -0.053
 1458SOL     OW 4392   2.930   1.333   0.849
 1458SOL    HW1 4393   2.937   1.249   0.794
 1458SOL    HW2 4394   2.992   1.402   0.813
 1459SOL     OW 4395   2.181   0.810   0.949
 1459SOL    HW1 4396   2.274   0.846   0.954
 1459SOL    HW2 4397   2.175   0.725   1.001
 1460SOL     OW 4398   2.201   0.509   1.006
 1460SOL    HW1 4399   2.149   0.426   0.989
 1460SOL    HW2 4400   2.278   0.514   0.942
 1461SOL     OW 4401   3.000   0.380   1.678
 1461SOL    HW1 4402   2.955   0.443   1.742
 1461SOL    HW2 4403   3.093   0.411   1.661
 1462SOL     OW 4404   3.022   0.207   1.477
 1462SOL    HW1 4405   3.022   0.271   1.554
 1462SOL    HW2 4406   3.050   0.255   1.394
 1463SOL     OW 4407   1.870   1.326   0.200
 1463SOL    HW1 4408   1.777   1.347   0.169
 1463SOL    HW2 4409   1.880   1.227   0.213
 1464SOL     OW 4410   1.950   1.801   0.927
 1464SOL    HW1 4411   1.908   1.715   0.900
 1464SOL    HW2 4412   2.044   1.804   0.893
 1465SOL     OW 4413   2.366   1.568   0.910
 1465SOL    HW1 4414   2.432   1.642   0.919
 1465SOL    HW2 4415   2.410   1.489   0.868
 1466SOL     OW 4416   2.864   0.796   1.238
 1466SOL    HW1 4417   2.905   0.764   1.324
 1466SOL    HW2 4418   2.768   0.769   1.235
 1467SOL     OW 4419   1.902   0.544   1.114
 1467SOL    HW1 4420   1.987   0.511   1.073
 1467SOL    HW2 4421   1.915   0.559   1.212
 1468SOL     OW 4422   2.051   0.520   1.722
 1468SOL    HW1 4423   2.110   0.480   1.652
 1468SOL    HW2 4424   1.993   0.591   1.681
 1469SOL     OW 4425   3.231   0.950   1.660
 1469SOL    HW1 4426   3.270   1.039   1.680
 1469SOL    HW2 4427   3.241   0.930   1.563
 1470SOL     OW 4428   2.677   0.572   0.325
 1470SOL    HW1 4429   2.684   0.483   0.279
 1470SOL    HW2 4430   2.583   0.606   0.317
 1471SOL     OW 4431   3.519   0.604   1.206
 1471SOL    HW1 4432   3.481   0.535   1.268
 1471SOL    HW2 4433   3.601   0.568   1.162
 1472SOL     OW 4434   2.114   1.564   1.744
 1472SOL    HW1 4435   2.084   1.621   1.820
 1472SOL    HW2 4436   2.107   1.467   1.770
 1473SOL     OW 4437   2.533   0.464   1.269
 1473SOL    HW1 4438   2.499   0.375   1.239
 1473SOL    HW2 4439   2.559   0.518   1.189
 1474SOL     OW 4440   2.792   1.678   1.465
 1474SOL    HW1 4441   2.768   1.660   1.370
 1474SOL    HW2 4442   2.822   1.772   1.475
 1475SOL     OW 4443   2.335   0.500   0.191
 1475SOL    HW1 4444   2.396   0.580   0.195
 1475SOL    HW2 4445   2.240   0.531   0.198
 1476SOL     OW 4446   2.021   1.137   1.466
 1476SOL    HW1 4447   2.043   1.076   1.542
 1476SOL    HW2 4448   2.031   1.088   1.380
 1477SOL     OW 4449   3.209   1.059   1.234
 1477SOL    HW1 4450   3.233   0.996   1.160
 1477SOL    HW2 4451   3.119   1.099   1.216
 1478SOL     OW 4452   3.164   0.855   0.309
 1478SOL    HW1 4453   3.078   0.824   0.351
 1478SOL    HW2 4454   3.160   0.841   0.210
 1479SOL     OW 4455   3.621   1.747   1.154
 1479SOL    HW1 4456   3.682   1.777   1.081
 1479SOL    HW2 4457   3.583   1.658   1.132
 1480SOL     OW 4458   3.114   1.731   1.128
 1480SOL    HW1 4459   3.198   1.736   1.074
 1480SOL    HW2 4460   3.091   1.635   1.146
 1481SOL     OW 4461   1.945   1.258   1.022
 1481SOL    HW1 4462   1.940   1.257   1.122
 1481SOL    HW2 4463   1.862   1.217   0.984
 1482SOL     OW 4464   2.550   1.662   1.716
 1482SOL    HW1 4465   2.494   1.743   1.725
 1482SOL    HW2 4466   2.602   1.666   1.630
 1483SOL     OW 4467   2.765   0.086   0.133
 1483SOL    HW1 4468   2.816   0.087   0.047
 1483SOL    HW2 4469   2.821   0.044   0.204
 1484SOL     OW 4470   3.588   0.135   0.523
 1484SOL    HW1 4471   3.661   0.118   0.456
 1484SOL    HW2 4472   3.557   0.048   0.561
 1485SOL     OW 4473   3.250   1.573   0.477
 1485SOL    HW1 4474   3.317   1.585   0.403
 1485SOL    HW2 4475   3.210   1.662   0.500
 1486SOL     OW 4476   1.992   1.794   1.851
 1486SOL    HW1 4477   1.951   1.720   1.904
 1486SOL    HW2 4478   2.056   1.845   1.909
 1487SOL     OW 4479   3.142   0.927   0.672
 1487SOL    HW1 4480   3.202   0.846   0.674
 1487SOL    HW2 4481   3.182   0.996   0.612
 1488SOL     OW 4482   2.692   1.273   1.422
 1488SOL    HW1 4483   2.687   1.306   1.517
 1488SOL    HW2 4484   2.606   1.292   1.376
 1489SOL     OW 4485   2.534   1.616   0.154
 1489SOL    HW1 4486   2.543   1.626   0.055
 1489SOL    HW2 4487   2.494   1.527   0.175
 1490SOL     OW 4488   3.512   1.720   1.394
 1490SOL    HW1 4489   3.565   1.730   1.310
 1490SOL    HW2 4490   3.485   1.810   1.428
 1491SOL     OW 4491   3.703   0.175   0.963
 1491SOL    HW1 4492   3.742   0.090   0.927
 1491SOL    HW2 4493   3.605   0.177   0.944
 1492SOL     OW 4494   2.125   0.326   0.720
 1492SOL    HW1 4495   2.046   0.377   0.686
 1492SOL    HW2 4496   2.116   0.311   0.818
 1493SOL     OW 4497   3.056   1.612   0.031
 1493SOL    HW1 4498   3.062   1.519   0.068
 1493SOL    HW2 4499   2.997   1.612  -0.049
 1494SOL     OW 4500   2.684   1.002   1.372
 1494SOL    HW1 4501   2.724   1.001   1.280
 1494SOL    HW2 4502   2.694   1.094   1.412
 1495SOL     OW 4503   2.778   0.910   0.291
 1495SOL    HW1 4504   2.841   0.948   0.223
 1495SOL    HW2 4505   2.818   0.827   0.330
 1496SOL     OW 4506   3.366   1.607   0.044
 1496SOL    HW1 4507   3.274   1.644   0.051
 1496SOL    HW2 4508   3.404   1.627  -0.046
 1497SOL     OW 4509   2.234   1.288   1.490
 1497SOL    HW1 4510   2.221   1.381   1.456
 1497SOL    HW2 4511   2.150   1.236   1.477
 1498SOL     OW 4512   3.476   1.292   1.289
 1498SOL    HW1 4513   3.536   1.295   1.369
 1498SOL    HW2 4514   3.401   1.356   1.302
 1499SOL     OW 4515   2.901   1.098   0.696
 1499SOL    HW1 4516   2.831   1.051   0.750
 1499SOL    HW2 4517   2.960   1.030   0.653
 1500SOL     OW 4518   2.876   0.236   0.971
 1500SOL    HW1 4519   2.868   0.200   0.878
 1500SOL    HW2 4520   2.874   0.160   1.036
 1501SOL     OW 4521   2.452   1.487   0.491
 1501SOL    HW1 4522   2.494   1.429   0.421
 1501SOL    HW2 4523   2.408   1.566   0.447
 1502SOL     OW 4524   3.571   0.385   1.381
 1502SOL    HW1 4525   3.644   0.454   1.385
 1502SOL    HW2 4526   3.599   0.310   1.322
 1503SOL     OW 4527   2.117   1.348   0.290
 1503SOL    HW1 4528   2.021   1.349   0.263
 1503SOL    HW2 4529   2.129   1.401   0.374
 1504SOL     OW 4530   1.967   1.013   1.726
 1504SOL    HW1 4531   1.890   0.980   1.780
 1504SOL    HW2 4532   2.052   0.983   1.768
 1505SOL     OW 4533   2.534   0.203   1.489
 1505SOL    HW1 4534   2.624   0.187   1.449
 1505SOL    HW2 4535   2.542   0.208   1.588
 1506SOL     OW 4536   3.302   0.856   1.398
 1506SOL    HW1 4537   3.245   0.908   1.335
 1506SOL    HW2 4538   3.398   0.868   1.374
 1507SOL     OW 4539   3.045   1.335   0.119
 1507SOL    HW1 4540   2.946   1.324   0.121
 1507SOL    HW2 4541   3.079   1.350   0.212
 1508SOL     OW 4542   2.475   0.842   1.431
 1508SOL    HW1 4543   2.531   0.923   1.414
 1508SOL    HW2 4544   2.534   0.762   1.434
 1509SOL     OW 4545   3.355   1.767   0.959
 1509SOL    HW1 4546   3.388   1.831   0.890
 1509SOL    HW2 4547   3.421   1.761   1.034
 1510SOL     OW 4548   2.578   0.565   1.708
 1510SOL    HW1 4549   2.597   0.630   1.782
 1510SOL    HW2 4550   2.638   0.485   1.717
 1511SOL     OW 4551   3.312   1.220   1.633
 1511SOL    HW1 4552   3.303   1.210   1.732
 1511SOL    HW2 4553   3.408   1.213   1.607
 1512SOL     OW 4554   2.252   1.741   1.560
 1512SOL    HW1 4555   2.161   1.782   1.558
 1512SOL    HW2 4556   2.245   1.647   1.592
 1513SOL     OW 4557   3.536   0.883   1.254
 1513SOL    HW1 4558   3.509   0.794   1.217
 1513SOL    HW2 4559   3.537   0.951   1.181
 1514SOL     OW 4560   3.087   0.325   0.449
 1514SOL    HW1 4561   3.152   0.251   0.438
 1514SOL    HW2 4562   3.107   0.375   0.533
 1515SOL     OW 4563   2.456   0.745   0.652
 1515SOL    HW1 4564   2.506   0.830   0.633
 1515SOL    HW2 4565   2.368   0.747   0.604
 1516SOL     OW 4566   3.639   0.342   1.642
 1516SOL    HW1 4567   3.622   0.373   1.548
 1516SOL    HW2 4568   3.555   0.305   1.680
 1517SOL     OW 4569   3.592   0.934   1.517
 1517SOL    HW1 4570   3.630   1.025   1.532
 1517SOL    HW2 4571   3.584   0.917   1.418
 1518SOL     OW 4572   2.721   1.374   0.016
 1518SOL    HW1 4573   2.675   1.389   0.104
 1518SOL    HW2 4574   2.765   1.459  -0.014
 1519SOL     OW 4575   2.523   1.790   0.953
 1519SOL    HW1 4576   2.477   1.878   0.940
 1519SOL    HW2 4577   2.622   1.802   0.946
 1520SOL     OW 4578   2.721   0.956   0.861
 1520SOL    HW1 4579   2.775   0.887   0.909
 1520SOL    HW2 4580   2.689   1.025   0.927
 1521SOL     OW 4581   2.945   0.984   0.087
 1521SOL    HW1 4582   2.922   1.037   0.005
 1521SOL    HW2 4583   3.026   0.928   0.068
 1522SOL     OW 4584   3.723   1.569   0.851
 1522SOL    HW1 4585   3.652   1.557   0.781
 1522SOL    HW2 4586   3.724   1.490   0.911
 1523SOL     OW 4587   2.083   1.314   1.844
 1523SOL    HW1 4588   2.018   1.241   1.823
 1523SOL    HW2 4589   2.087   1.328   1.942
 1524SOL     OW 4590   1.941   1.240   0.653
 1524SOL    HW1 4591   1.940   1.193   0.741
 1524SOL    HW2 4592   2.023   1.212   0.602
 1525SOL     OW 4593   2.534   1.391   1.624
 1525SOL    HW1 4594   2.456   1.341   1.662
 1525SOL    HW2 4595   2.531   1.486   1.655
 1526SOL     OW 4596   3.686   0.192   1.227
 1526SOL    HW1 4597   3.682   0.102   1.271
 1526SOL    HW2 4598   3.689   0.181   1.128
 1527SOL     OW 4599   2.290   0.424   0.520
 1527SOL    HW1 4600   2.320   0.352   0.458
 1527SOL    HW2 4601   2.251   0.384   0.603
 1528SOL     OW 4602   3.567   1.487   1.104
 1528SOL    HW1 4603   3.474   1.462   1.077
 1528SOL    HW2 4604   3.593   1.437   1.186
 1529SOL     OW 4605   2.179   0.547   1.280
 1529SOL    HW1 4606   2.217   0.488   1.352
 1529SOL    HW2 4607   2.219   0.521   1.192
 1530SOL     OW 4608   2.674   1.586   0.687
 1530SOL    HW1 4609   2.706   1.596   0.593
 1530SOL    HW2 4610   2.595   1.524   0.689
 1531SOL     OW 4611   3.286   0.214   1.112
 1531SOL    HW1 4612   3.338   0.149   1.167
 1531SOL    HW2 4613   3.237   0.277   1.173
 1532SOL     OW 4614   2.863   0.034   1.154
 1532SOL    HW1 4615   2.800  -0.038   1.123
 1532SOL    HW2 4616   2.956  -0.002   1.154
 1533SOL     OW 4617   2.632   1.330   0.301
 1533SOL    HW1 4618   2.586   1.243   0.318
 1533SOL    HW2 4619   2.723   1.327   0.342
 1534SOL     OW 4620   2.480   1.567   1.284
 1534SOL    HW1 4621   2.475   1.649   1.341
 1534SOL    HW2 4622   2.569   1.564   1.239
 1535SOL     OW 4623   3.214   0.052   0.168
 1535SOL    HW1 4624   3.249   0.011   0.084
 1535SOL    HW2 4625   3.124   0.014   0.188
 1536SOL     OW 4626   3.162   0.453   0.691
 1536SOL    HW1 4627   3.103   0.533   0.695
 1536SOL    HW2 4628   3.177   0.418   0.784
 1537SOL     OW 4629   3.455   0.221   0.882
 1537SOL    HW1 4630   3.371   0.220   0.936
 1537SOL    HW2 4631   3.457   0.304   0.826
 1538SOL     OW 4632   1.901   1.077   0.300
 1538SOL    HW1 4633   2.000   1.066   0.291
 1538SOL    HW2 4634   1.861   0.991   0.332
 1539SOL     OW 4635   2.737   1.646   0.337
 1539SOL    HW1 4636   2.660   1.611   0.283
 1539SOL    HW2 4637   2.705   1.717   0.399
 1540SOL     OW 4638   2.092   0.628   1.975
 1540SOL    HW1 4639   1.999   0.626   2.012
 1540SOL    HW2 4640   2.093   0.589   1.883
 1541SOL     OW 4641   2.087   0.275   2.858
 1541SOL    HW1 4642   2.122   0.258   2.950
 1541SOL    HW2 4643   1.999   0.230   2.846
 1542SOL     OW 4644   1.881   0.368   2.509
 1542SOL    HW1 4645   1.799   0.411   2.548
 1542SOL    HW2 4646   1.853   0.295   2.446
 1543SOL     OW 4647   2.431   1.275   3.027
 1543SOL    HW1 4648   2.338   1.268   2.990
 1543SOL    HW2 4649   2.442   1.364   3.071
 1544SOL     OW 4650   3.417   1.511   2.565
 1544SOL    HW1 4651   3.360   1.495   2.646
 1544SOL    HW2 4652   3.358   1.521   2.485
 1545SOL     OW 4653   2.997   0.703   2.579
 1545SOL    HW1 4654   3.054   0.781   2.554
 1545SOL    HW2 4655   2.937   0.729   2.655
 1546SOL     OW 4656   3.617   0.607   2.093
 1546SOL    HW1 4657   3.605   0.594   1.994
 1546SOL    HW2 4658   3.587   0.526   2.142
 1547SOL     OW 4659   2.630   1.144   2.885
 1547SOL    HW1 4660   2.552   1.161   2.945
 1547SOL    HW2 4661   2.664   1.231   2.849
 1548SOL     OW 4662   2.712   0.798   3.685
 1548SOL    HW1 4663   2.708   0.874   3.750
 1548SOL    HW2 4664   2.734   0.834   3.594
 1549SOL     OW 4665   2.547   1.012   2.527
 1549SOL    HW1 4666   2.616   0.996   2.597
 1549SOL    HW2 4667   2.474   1.069   2.565
 1550SOL     OW 4668   2.548   1.161   3.665
 1550SOL    HW1 4669   2.608   1.240   3.679
 1550SOL    HW2 4670   2.462   1.192   3.624
 1551SOL     OW 4671   2.197   1.435   2.923
 1551SOL    HW1 4672   2.119   1.404   2.870
 1551SOL    HW2 4673   2.255   1.493   2.866
 1552SOL     OW 4674   3.322   1.505   3.201
 1552SOL    HW1 4675   3.346   1.599   3.227
 1552SOL    HW2 4676   3.306   1.451   3.283
 1553SOL     OW 4677   2.300   0.392   3.361
 1553SOL    HW1 4678   2.382   0.336   3.370
 1553SOL    HW2 4679   2.219   0.334   3.365
 1554SOL     OW 4680   3.465   0.447   2.599
 1554SOL    HW1 4681   3.391   0.493   2.549
 1554SOL    HW2 4682   3.516   0.515   2.652
 1555SOL     OW 4683   2.093   1.713   2.345
 1555SOL    HW1 4684   2.127   1.790   2.399
 1555SOL    HW2 4685   2.137   1.713   2.255
 1556SOL     OW 4686   2.989   1.341   3.552
 1556SOL    HW1 4687   3.036   1.341   3.640
 1556SOL    HW2 4688   2.941   1.254   3.541
 1557SOL     OW 4689   2.092   1.434   2.400
 1557SOL    HW1 4690   2.066   1.530   2.400
 1557SOL    HW2 4691   2.021   1.380   2.445
 1558SOL     OW 4692   2.102   1.091   2.748
 1558SOL    HW1 4693   2.116   1.007   2.800
 1558SOL    HW2 4694   2.047   1.155   2.803
 1559SOL     OW 4695   2.482   1.786   3.301
 1559SOL    HW1 4696   2.390   1.769   3.336
 1559SOL    HW2 4697   2.510   1.878   3.327
 1560SOL     OW 4698   2.468   0.964   1.985
 1560SOL    HW1 4699   2.475   1.048   1.931
 1560SOL    HW2 4700   2.514   0.977   2.073
 1561SOL     OW 4701   3.456   0.114   3.342
 1561SOL    HW1 4702   3.438   0.181   3.270
 1561SOL    HW2 4703   3.453   0.160   3.431
 1562SOL     OW 4704   1.984   0.643   2.425
 1562SOL    HW1 4705   1.939   0.555   2.442
 1562SOL    HW2 4706   1.983   0.697   2.509
 1563SOL     OW 4707   3.704   1.767   2.221
 1563SOL    HW1 4708   3.758   1.738   2.301
 1563SOL    HW2 4709   3.734   1.857   2.192
 1564SOL     OW 4710   1.889   1.596   1.979
 1564SOL    HW1 4711   1.870   1.500   2.000
 1564SOL    HW2 4712   1.856   1.654   2.054
 1565SOL     OW 4713   3.551   0.922   2.474
 1565SOL    HW1 4714   3.646   0.893   2.482
 1565SOL    HW2 4715   3.543   0.987   2.399
 1566SOL     OW 4716   3.503   1.108   2.294
 1566SOL    HW1 4717   3.589   1.110   2.242
 1566SOL    HW2 4718   3.517   1.155   2.382
 1567SOL     OW 4719   1.975   0.737   3.459
 1567SOL    HW1 4720   2.063   0.724   3.504
 1567SOL    HW2 4721   1.962   0.834   3.437
 1568SOL     OW 4722   2.475   1.365   2.588
 1568SOL    HW1 4723   2.426   1.278   2.597
 1568SOL    HW2 4724   2.452   1.408   2.501
 1569SOL     OW 4725   3.155   1.228   3.285
 1569SOL    HW1 4726   3.192   1.155   3.227
 1569SOL    HW2 4727   3.207   1.233   3.370
 1570SOL     OW 4728   2.671   0.004   2.364
 1570SOL    HW1 4729   2.711   0.095   2.355
 1570SOL    HW2 4730   2.571   0.012   2.370
 1571SOL     OW 4731   2.059   0.976   3.126
 1571SOL    HW1 4732   2.148   0.931   3.112
 1571SOL    HW2 4733   1.986   0.911   3.107
 1572SOL     OW 4734   3.387   0.999   2.052
 1572SOL    HW1 4735   3.324   0.923   2.065
 1572SOL    HW2 4736   3.435   1.017   2.138
 1573SOL     OW 4737   3.049   1.792   3.478
 1573SOL    HW1 4738   3.073   1.852   3.402
 1573SOL    HW2 4739   3.056   1.697   3.448
 1574SOL     OW 4740   2.179   0.251   3.663
 1574SOL    HW1 4741   2.250   0.322   3.669
 1574SOL    HW2 4742   2.091   0.290   3.691
 1575SOL     OW 4743   3.328   1.417   2.815
 1575SOL    HW1 4744   3.269   1.423   2.895
 1575SOL    HW2 4745   3.313   1.329   2.769
 1576SOL     OW 4746   3.529   1.714   2.434
 1576SOL    HW1 4747   3.488   1.691   2.346
 1576SOL    HW2 4748   3.511   1.640   2.499
 1577SOL     OW 4749   2.460   0.729   2.132
 1577SOL    HW1 4750   2.484   0.798   2.064
 1577SOL    HW2 4751   2.382   0.762   2.186
 1578SOL     OW 4752   3.143   0.345   2.806
 1578SOL    HW1 4753   3.057   0.295   2.793
 1578SOL    HW2 4754   3.205   0.291   2.862
 1579SOL     OW 4755   3.438   1.662   2.169
 1579SOL    HW1 4756   3.527   1.708   2.172
 1579SOL    HW2 4757   3.417   1.638   2.074
 1580SOL     OW 4758   2.669   0.605   3.327
 1580SOL    HW1 4759   2.622   0.602   3.416
 1580SOL    HW2 4760   2.618   0.550   3.261
 1581SOL     OW 4761   3.256   0.469   3.536
 1581SOL    HW1 4762   3.236   0.512   3.624
 1581SOL    HW2 4763   3.334   0.407   3.545
 1582SOL     OW 4764   2.835   0.890   3.434
 1582SOL    HW1 4765   2.881   0.806   3.405
 1582SOL    HW2 4766   2.779   0.924   3.359
 1583SOL     OW 4767   2.853   0.410   3.104
 1583SOL    HW1 4768   2.776   0.444   3.158
 1583SOL    HW2 4769   2.819   0.359   3.025
 1584SOL     OW 4770   2.903   0.701   2.291
 1584SOL    HW1 4771   2.929   0.697   2.387
 1584SOL    HW2 4772   2.818   0.650   2.277
 1585SOL     OW 4773   1.938   0.811   2.651
 1585SOL    HW1 4774   2.037   0.799   2.660
 1585SOL    HW2 4775   1.914   0.906   2.672
 1586SOL     OW 4776   1.992   1.821   3.433
 1586SOL    HW1 4777   1.982   1.806   3.532
 1586SOL    HW2 4778   1.906   1.857   3.397
 1587SOL     OW 4779   2.727   0.348   2.057
 1587SOL    HW1 4780   2.786   0.411   2.008
 1587SOL    HW2 4781   2.746   0.254   2.028
 1588SOL     OW 4782   3.581   0.585   3.693
 1588SOL    HW1 4783   3.555   0.674   3.657
 1588SOL    HW2 4784   3.579   0.517   3.620
 1589SOL     OW 4785   3.224   1.144   2.407
 1589SOL    HW1 4786   3.307   1.115   2.359
 1589SOL    HW2 4787   3.175   1.211   2.351
 1590SOL     OW 4788   2.412   0.196   2.747
 1590SOL    HW1 4789   2.407   0.191   2.847
 1590SOL    HW2 4790   2.414   0.292   2.718
 1591SOL     OW 4791   2.870   1.456   2.339
 1591SOL    HW1 4792   2.824   1.528   2.287
 1591SOL    HW2 4793   2.866   1.476   2.437
 1592SOL     OW 4794   2.213   1.801   2.715
 1592SOL    HW1 4795   2.263   1.715   2.721
 1592SOL    HW2 4796   2.278   1.878   2.712
 1593SOL     OW 4797   3.657   1.066   2.735
 1593SOL    HW1 4798   3.595   1.051   2.659
 1593SOL    HW2 4799   3.605   1.077   2.820
 1594SOL     OW 4800   3.089   1.550   3.368
 1594SOL    HW1 4801   3.095   1.473   3.432
 1594SOL    HW2 4802   3.037   1.524   3.288
 1595SOL     OW 4803   2.183   0.943   2.104
 1595SOL    HW1 4804   2.265   0.982   2.062
 1595SOL    HW2 4805   2.156   0.861   2.055
 1596SOL     OW 4806   3.320   0.735   2.590
 1596SOL    HW1 4807   3.315   0.670   2.665
 1596SOL    HW2 4808   3.400   0.794   2.603
 1597SOL     OW 4809   2.323   1.266   3.589
 1597SOL    HW1 4810   2.273   1.267   3.503
 1597SOL    HW2 4811   2.260   1.248   3.665
 1598SOL     OW 4812   2.973   1.776   2.099
 1598SOL    HW1 4813   2.913   1.714   2.149
 1598SOL    HW2 4814   3.004   1.732   2.014
 1599SOL     OW 4815   2.064   0.285   3.360
 1599SOL    HW1 4816   1.984   0.345   3.347
 1599SOL    HW2 4817   2.054   0.236   3.446
 1600SOL     OW 4818   3.494   1.377   1.943
 1600SOL    HW1 4819   3.462   1.471   1.933
 1600SOL    HW2 4820   3.418   1.314   1.931
 1601SOL     OW 4821   2.326   1.743   2.185
 1601SOL    HW1 4822   2.359   1.782   2.271
 1601SOL    HW2 4823   2.402   1.736   2.120
 1602SOL     OW 4824   3.262   0.107   2.288
 1602SOL    HW1 4825   3.238   0.070   2.198
 1602SOL    HW2 4826   3.361   0.123   2.292
 1603SOL     OW 4827   2.111   1.785   3.103
 1603SOL    HW1 4828   2.168   1.720   3.153
 1603SOL    HW2 4829   2.095   1.752   3.010
 1604SOL     OW 4830   2.802   1.698   2.766
 1604SOL    HW1 4831   2.882   1.641   2.787
 1604SOL    HW2 4832   2.753   1.658   2.689
 1605SOL     OW 4833   2.244   0.700   2.342
 1605SOL    HW1 4834   2.289   0.610   2.339
 1605SOL    HW2 4835   2.150   0.689   2.375
 1606SOL     OW 4836   3.409   0.222   3.591
 1606SOL    HW1 4837   3.404   0.259   3.683
 1606SOL    HW2 4838   3.337   0.153   3.579
 1607SOL     OW 4839   2.476   0.122   1.979
 1607SOL    HW1 4840   2.574   0.100   1.986
 1607SOL    HW2 4841   2.445   0.105   1.886
 1608SOL     OW 4842   2.643   0.264   3.611
 1608SOL    HW1 4843   2.710   0.203   3.654
 1608SOL    HW2 4844   2.570   0.283   3.676
 1609SOL     OW 4845   2.750   1.514   3.057
 1609SOL    HW1 4846   2.727   1.489   2.963
 1609SOL    HW2 4847   2.811   1.445   3.096
 1610SOL     OW 4848   3.213   0.590   3.295
 1610SOL    HW1 4849   3.241   0.547   3.380
 1610SOL    HW2 4850   3.238   0.686   3.296
 1611SOL     OW 4851   2.665   1.402   2.786
 1611SOL    HW1 4852   2.755   1.416   2.744
 1611SOL    HW2 4853   2.594   1.404   2.715
 1612SOL     OW 4854   2.784   0.503   2.761
 1612SOL    HW1 4855   2.759   0.494   2.665
 1612SOL    HW2 4856   2.832   0.421   2.792
 1613SOL     OW 4857   2.401   0.064   2.374
 1613SOL    HW1 4858   2.320   0.065   2.432
 1613SOL    HW2 4859   2.404   0.147   2.319
 1614SOL     OW 4860   3.296   1.188   1.903
 1614SOL    HW1 4861   3.328   1.112   1.960
 1614SOL    HW2 4862   3.204   1.215   1.933
 1615SOL     OW 4863   2.159   0.035   2.033
 1615SOL    HW1 4864   2.208   0.119   2.012
 1615SOL    HW2 4865   2.221  -0.030   2.078
 1616SOL     OW 4866   2.797   0.236   2.342
 1616SOL    HW1 4867   2.749   0.277   2.264
 1616SOL    HW2 4868   2.896   0.234   2.323
 1617SOL     OW 4869   2.938   0.683   3.326
 1617SOL    HW1 4870   2.858   0.622   3.329
 1617SOL    HW2 4871   3.019   0.630   3.302
 1618SOL     OW 4872   3.089   1.570   2.655
 1618SOL    HW1 4873   3.110   1.644   2.590
 1618SOL    HW2 4874   3.157   1.570   2.728
 1619SOL     OW 4875   2.321   1.152   2.603
 1619SOL    HW1 4876   2.250   1.125   2.668
 1619SOL    HW2 4877   2.295   1.124   2.510
 1620SOL     OW 4878   3.133   1.797   2.453
 1620SOL    HW1 4879   3.177   1.861   2.389
 1620SOL    HW2 4880   3.083   1.849   2.523
 1621SOL     OW 4881   2.894   0.549   1.878
 1621SOL    HW1 4882   2.853   0.631   1.839
 1621SOL    HW2 4883   2.958   0.575   1.951
 1622SOL     OW 4884   1.940   0.556   3.248
 1622SOL    HW1 4885   2.032   0.555   3.207
 1622SOL    HW2 4886   1.934   0.630   3.315
 1623SOL     OW 4887   2.423   0.222   3.009
 1623SOL    HW1 4888   2.461   0.138   3.046
 1623SOL    HW2 4889   2.335   0.241   3.053
 1624SOL     OW 4890   2.728   0.454   2.504
 1624SOL    HW1 4891   2.696   0.526   2.442
 1624SOL    HW2 4892   2.752   0.373   2.451
 1625SOL     OW 4893   2.879   0.039   2.615
 1625SOL    HW1 4894   2.807   0.044   2.546
 1625SOL    HW2 4895   2.855  -0.030   2.684
 1626SOL     OW 4896   3.291   1.173   2.729
 1626SOL    HW1 4897   3.236   1.089   2.722
 1626SOL    HW2 4898   3.317   1.202   2.637
 1627SOL     OW 4899   3.328   0.590   2.854
 1627SOL    HW1 4900   3.298   0.495   2.861
 1627SOL    HW2 4901   3.401   0.606   2.920
 1628SOL     OW 4902   3.719   0.833   2.239
 1628SOL    HW1 4903   3.761   0.769   2.303
 1628SOL    HW2 4904   3.681   0.782   2.161
 1629SOL     OW 4905   2.350   1.385   2.036
 1629SOL    HW1 4906   2.263   1.370   2.083
 1629SOL    HW2 4907   2.333   1.411   1.941
 1630SOL     OW 4908   3.526   1.280   2.519
 1630SOL    HW1 4909   3.625   1.288   2.533
 1630SOL    HW2 4910   3.481   1.364   2.550
 1631SOL     OW 4911   3.252   0.575   1.940
 1631SOL    HW1 4912   3.198   0.554   2.021
 1631SOL    HW2 4913   3.343   0.534   1.949
 1632SOL     OW 4914   2.389   0.256   2.190
 1632SOL    HW1 4915   2.416   0.197   2.115
 1632SOL    HW2 4916   2.389   0.351   2.159
 1633SOL     OW 4917   3.616   1.223   3.450
 1633SOL    HW1 4918   3.707   1.184   3.437
 1633SOL    HW2 4919   3.624   1.319   3.474
 1634SOL     OW 4920   2.926   1.347   3.202
 1634SOL    HW1 4921   2.846   1.324   3.257
 1634SOL    HW2 4922   3.009   1.321   3.251
 1635SOL     OW 4923   3.454   1.629   3.487
 1635SOL    HW1 4924   3.481   1.663   3.397
 1635SOL    HW2 4925   3.533   1.591   3.533
 1636SOL     OW 4926   2.973   1.195   2.962
 1636SOL    HW1 4927   2.933   1.239   3.043
 1636SOL    HW2 4928   2.932   1.232   2.879
 1637SOL     OW 4929   3.500   1.099   2.941
 1637SOL    HW1 4930   3.505   1.180   3.000
 1637SOL    HW2 4931   3.414   1.101   2.890
 1638SOL     OW 4932   2.777   0.089   3.264
 1638SOL    HW1 4933   2.802   0.069   3.169
 1638SOL    HW2 4934   2.849   0.145   3.306
 1639SOL     OW 4935   2.842   1.116   3.581
 1639SOL    HW1 4936   2.743   1.122   3.591
 1639SOL    HW2 4937   2.865   1.036   3.525
 1640SOL     OW 4938   2.567   1.050   2.230
 1640SOL    HW1 4939   2.553   1.057   2.329
 1640SOL    HW2 4940   2.651   0.999   2.212
 1641SOL     OW 4941   2.272   0.813   3.113
 1641SOL    HW1 4942   2.358   0.825   3.163
 1641SOL    HW2 4943   2.230   0.726   3.140
 1642SOL     OW 4944   3.136   0.386   3.124
 1642SOL    HW1 4945   3.157   0.460   3.188
 1642SOL    HW2 4946   3.047   0.403   3.081
 1643SOL     OW 4947   1.926   1.564   3.193
 1643SOL    HW1 4948   1.880   1.646   3.159
 1643SOL    HW2 4949   2.024   1.583   3.202
 1644SOL     OW 4950   2.229   1.100   2.363
 1644SOL    HW1 4951   2.222   1.183   2.307
 1644SOL    HW2 4952   2.233   1.020   2.303
 1645SOL     OW 4953   2.428   0.537   2.727
 1645SOL    HW1 4954   2.440   0.603   2.653
 1645SOL    HW2 4955   2.474   0.571   2.810
 1646SOL     OW 4956   3.114   1.348   2.250
 1646SOL    HW1 4957   3.164   1.425   2.290
 1646SOL    HW2 4958   3.019   1.350   2.282
 1647SOL     OW 4959   3.134   1.445   3.004
 1647SOL    HW1 4960   3.181   1.458   3.091
 1647SOL    HW2 4961   3.068   1.371   3.013
 1648SOL     OW 4962   3.444   0.639   2.334
 1648SOL    HW1 4963   3.413   0.700   2.407
 1648SOL    HW2 4964   3.494   0.691   2.265
 1649SOL     OW 4965   2.216   1.510   3.191
 1649SOL    HW1 4966   2.195   1.466   3.104
 1649SOL    HW2 4967   2.313   1.536   3.194
 1650SOL     OW 4968   2.264   0.751   3.460
 1650SOL    HW1 4969   2.332   0.806   3.413
 1650SOL    HW2 4970   2.304   0.663   3.487
 1651SOL     OW 4971   3.449   0.779   3.532
 1651SOL    HW1 4972   3.357   0.817   3.527
 1651SOL    HW2 4973   3.509   0.826   3.467
 1652SOL     OW 4974   2.875   0.105   3.632
 1652SOL    HW1 4975   2.881   0.190   3.580
 1652SOL    HW2 4976   2.907   0.029   3.575
 1653SOL     OW 4977   2.366   0.050   3.602
 1653SOL    HW1 4978   2.324  -0.007   3.532
 1653SOL    HW2 4979   2.300   0.119   3.634
 1654SOL     OW 4980   2.435   0.870   2.891
 1654SOL    HW1 4981   2.479   0.959   2.882
 1654SOL    HW2 4982   2.372   0.870   2.968
 1655SOL     OW 4983   3.222   0.862   2.907
 1655SOL    HW1 4984   3.147   0.862   2.841
 1655SOL    HW2 4985   3.259   0.770   2.916
 1656SOL     OW 4986   3.071   0.525   2.137
 1656SOL    HW1 4987   3.084   0.441   2.191
 1656SOL    HW2 4988   3.042   0.599   2.197
 1657SOL     OW 4989   2.169   0.213   3.093
 1657SOL    HW1 4990   2.146   0.250   3.183
 1657SOL    HW2 4991   2.139   0.118   3.087
 1658SOL     OW 4992   1.899   1.310   3.144
 1658SOL    HW1 4993   1.952   1.261   3.212
 1658SOL    HW2 4994   1.921   1.408   3.149
 1659SOL     OW 4995   2.594   0.634   2.926
 1659SOL    HW1 4996   2.653   0.608   2.850
 1659SOL    HW2 4997   2.566   0.730   2.915
 1660SOL     OW 4998   3.590   0.935   3.716
 1660SOL    HW1 4999   3.544   0.928   3.627
 1660SOL    HW2 5000   3.528   0.979   3.782
 1661SOL     OW 5001   2.169   0.063   2.480
 1661SOL    HW1 5002   2.158   0.157   2.513
 1661SOL    HW2 5003   2.164   0.000   2.557
 1662SOL     OW 5004   3.484   0.367   2.236
 1662SOL    HW1 5005   3.486   0.291   2.300
 1662SOL    HW2 5006   3.436   0.444   2.276
 1663SOL     OW 5007   2.885   0.766   2.828
 1663SOL    HW1 5008   2.900   0.787   2.924
 1663SOL    HW2 5009   2.855   0.671   2.819
 1664SOL     OW 5010   2.842   1.573   3.562
 1664SOL    HW1 5011   2.822   1.617   3.474
 1664SOL    HW2 5012   2.881   1.482   3.546
 1665SOL     OW 5013   3.721   1.518   3.467
 1665SOL    HW1 5014   3.735   1.545   3.372
 1665SOL    HW2 5015   3.804   1.540   3.520
 1666SOL     OW 5016   2.212   0.898   3.666
 1666SOL    HW1 5017   2.288   0.942   3.714
 1666SOL    HW2 5018   2.247   0.851   3.584
 1667SOL     OW 5019   3.402   0.274   1.987
 1667SOL    HW1 5020   3.341   0.199   2.010
 1667SOL    HW2 5021   3.424   0.326   2.070
 1668SOL     OW 5022   3.165   0.838   1.904
 1668SOL    HW1 5023   3.199   0.745   1.919
 1668SOL    HW2 5024   3.183   0.865   1.809
 1669SOL     OW 5025   2.930   1.333   2.711
 1669SOL    HW1 5026   2.937   1.249   2.656
 1669SOL    HW2 5027   2.992   1.402   2.675
 1670SOL     OW 5028   2.181   0.810   2.811
 1670SOL    HW1 5029   2.274   0.846   2.816
 1670SOL    HW2 5030   2.175   0.725   2.863
 1671SOL     OW 5031   2.201   0.509   2.868
 1671SOL    HW1 5032   2.149   0.426   2.851
 1671SOL    HW2 5033   2.278   0.514   2.804
 1672SOL     OW 5034   3.000   0.380   3.540
 1672SOL    HW1 5035   2.955   0.443   3.604
 1672SOL    HW2 5036   3.093   0.411   3.523
 1673SOL     OW 5037   3.022   0.207   3.339
 1673SOL    HW1 5038   3.022   0.271   3.416
 1673SOL    HW2 5039   3.050   0.255   3.256
 1674SOL     OW 5040   1.870   1.326   2.062
 1674SOL    HW1 5041   1.777   1.347   2.031
 1674SOL    HW2 5042   1.880   1.227   2.075
 1675SOL     OW 5043   1.950   1.801   2.789
 1675SOL    HW1 5044   1.908   1.715   2.762
 1675SOL    HW2 5045   2.044   1.804   2.755
 1676SOL     OW 5046   2.366   1.568   2.772
 1676SOL    HW1 5047   2.432   1.642   2.781
 1676SOL    HW2 5048   2.410   1.489   2.730
 1677SOL     OW 5049   2.864   0.796   3.100
 1677SOL    HW1 5050   2.905   0.764   3.186
 1677SOL    HW2 5051   2.768   0.769   3.097
 1678SOL     OW 5052   1.902   0.544   2.976
 1678SOL    HW1 5053   1.987   0.511   2.935
 1678SOL    HW2 5054   1.915   0.559   3.074
 1679SOL     OW 5055   2.051   0.520   3.584
 1679SOL    HW1 5056   2.110   0.480   3.514
 1679SOL    HW2 5057   1.993   0.591   3.543
 1680SOL     OW 5058   3.231   0.950   3.522
 1680SOL    HW1 5059   3.270   1.039   3.542
 1680SOL    HW2 5060   3.241   0.930   3.425
 1681SOL     OW 5061   2.677   0.572   2.187
 1681SOL    HW1 5062   2.684   0.483   2.141
 1681SOL    HW2 5063   2.583   0.606   2.179
 1682SOL     OW 5064   3.519   0.604   3.068
 1682SOL    HW1 5065   3.481   0.535   3.130
 1682SOL    HW2 5066   3.601   0.568   3.024
 1683SOL     OW 5067   2.114   1.564   3.606
 1683SOL    HW1 5068   2.084   1.621   3.682
 1683SOL    HW2 5069   2.107   1.467   3.632
 1684SOL     OW 5070   2.533   0.464   3.131
 1684SOL    HW1 5071   2.499   0.375   3.101
 1684SOL    HW2 5072   2.559   0.518   3.051
 1685SOL     OW 5073   2.792   1.678   3.327
 1685SOL    HW1 5074   2.768   1.660   3.232
 1685SOL    HW2 5075   2.822   1.772   3.337
 1686SOL     OW 5076   2.335   0.500   2.053
 1686SOL    HW1 5077   2.396   0.580   2.057
 1686SOL    HW2 5078   2.240   0.531   2.060
 1687SOL     OW 5079   2.021   1.137   3.328
 1687SOL    HW1 5080   2.043   1.076   3.404
 1687SOL    HW2 5081   2.031   1.088   3.242
 1688SOL     OW 5082   3.209   1.059   3.096
 1688SOL    HW1 5083   3.233   0.996   3.022
 1688SOL    HW2 5084   3.119   1.099   3.078
 1689SOL     OW 5085   3.164   0.855   2.171
 1689SOL    HW1 5086   3.078   0.824   2.213
 1689SOL    HW2 5087   3.160   0.841   2.072
 1690SOL     OW 5088   3.621   1.747   3.016
 1690SOL    HW1 5089   3.682   1.777   2.943
 1690SOL    HW2 5090   3.583   1.658   2.994
 1691SOL     OW 5091   3.114   1.731   2.990
 1691SOL    HW1 5092   3.198   1.736   2.936
 1691SOL    HW2 5093   3.091   1.635   3.008
 1692SOL     OW 5094   1.945   1.258   2.884
 1692SOL    HW1 5095   1.940   1.257   2.984
 1692SOL    HW2 5096   1.862   1.217   2.846
 1693SOL     OW 5097   2.550   1.662   3.578
 1693SOL    HW1 5098   2.494   1.743   3.587
 1693SOL    HW2 5099   2.602   1.666   3.492
 1694SOL     OW 5100   3.588   0.135   2.385
 1694SOL    HW1 5101   3.661   0.118   2.318
 1694SOL    HW2 5102   3.557   0.048   2.423
 1695SOL     OW 5103   3.250   1.573   2.339
 1695SOL    HW1 5104   3.317   1.585   2.265
 1695SOL    HW2 5105   3.210   1.662   2.362
 1696SOL     OW 5106   1.992   1.794   3.713
 1696SOL    HW1 5107   1.951   1.720   3.766
 1696SOL    HW2 5108   2.056   1.845   3.771
 1697SOL     OW 5109   3.142   0.927   2.534
 1697SOL    HW1 5110   3.202   0.846   2.536
 1697SOL    HW2 5111   3.182   0.996   2.474
 1698SOL     OW 5112   2.692   1.273   3.284
 1698SOL    HW1 5113   2.687   1.306   3.379
 1698SOL    HW2 5114   2.606   1.292   3.238
 1699SOL     OW 5115   2.534   1.616   2.016
 1699SOL    HW1 5116   2.543   1.626   1.917
 1699SOL    HW2 5117   2.494   1.527   2.037
 1700SOL     OW 5118   3.512   1.720   3.256
 1700SOL    HW1 5119   3.565   1.730   3.172
 1700SOL    HW2 5120   3.485   1.810   3.290
 1701SOL     OW 5121   3.703   0.175   2.825
 1701SOL    HW1 5122   3.742   0.090   2.789
 1701SOL    HW2 5123   3.605   0.177   2.806
 1702SOL     OW 5124   2.125   0.326   2.582
 1702SOL    HW1 5125   2.046   0.377   2.548
 1702SOL    HW2 5126   2.116   0.311   2.680
 1703SOL     OW 5127   3.056   1.612   1.893
 1703SOL    HW1 5128   3.062   1.519   1.930
 1703SOL    HW2 5129   2.997   1.612   1.813
 1704SOL     OW 5130   2.684   1.002   3.234
 1704SOL    HW1 5131   2.724   1.001   3.142
 1704SOL    HW2 5132   2.694   1.094   3.274
 1705SOL     OW 5133   2.778   0.910   2.153
 1705SOL    HW1 5134   2.841   0.948   2.085
 1705SOL    HW2 5135   2.818   0.827   2.192
 1706SOL     OW 5136   3.366   1.607   1.906
 1706SOL    HW1 5137   3.274   1.644   1.913
 1706SOL    HW2 5138   3.404   1.627   1.816
 1707SOL     OW 5139   2.234   1.288   3.352
 1707SOL    HW1 5140   2.221   1.381   3.318
 1707SOL    HW2 5141   2.150   1.236   3.339
 1708SOL     OW 5142   3.476   1.292   3.151
 1708SOL    HW1 5143   3.536   1.295   3.231
 1708SOL    HW2 5144   3.401   1.356   3.164
 1709SOL     OW 5145   2.901   1.098   2.558
 1709SOL    HW1 5146   2.831   1.051   2.612
 1709SOL    HW2 5147   2.960   1.030   2.515
 1710SOL     OW 5148   2.876   0.236   2.833
 1710SOL    HW1 5149   2.868   0.200   2.740
 1710SOL    HW2 5150   2.874   0.160   2.898
 1711SOL     OW 5151   2.452   1.487   2.353
 1711SOL    HW1 5152   2.494   1.429   2.283
 1711SOL    HW2 5153   2.408   1.566   2.309
 1712SOL     OW 5154   3.571   0.385   3.243
 1712SOL    HW1 5155   3.644   0.454   3.247
 1712SOL    HW2 5156   3.599   0.310   3.184
 1713SOL     OW 5157   2.117   1.348   2.152
 1713SOL    HW1 5158   2.021   1.349   2.125
 1713SOL    HW2 5159   2.129   1.401   2.236
 1714SOL     OW 5160   1.967   1.013   3.588
 1714SOL    HW1 5161   1.890   0.980   3.642
 1714SOL    HW2 5162   2.052   0.983   3.630
 1715SOL     OW 5163   2.534   0.203   3.351
 1715SOL    HW1 5164   2.624   0.187   3.311
 1715SOL    HW2 5165   2.542   0.208   3.450
 1716SOL     OW 5166   1.937   0.345   1.895
 1716SOL    HW1 5167   1.845   0.317   1.866
 1716SOL    HW2 5168   1.968   0.422   1.839
 1717SOL     OW 5169   3.302   0.856   3.260
 1717SOL    HW1 5170   3.245   0.908   3.197
 1717SOL    HW2 5171   3.398   0.868   3.236
 1718SOL     OW 5172   1.934   0.166   2.180
 1718SOL    HW1 5173   1.917   0.249   2.126
 1718SOL    HW2 5174   2.024   0.129   2.158
 1719SOL     OW 5175   3.045   1.335   1.981
 1719SOL    HW1 5176   2.946   1.324   1.983
 1719SOL    HW2 5177   3.079   1.350   2.074
 1720SOL     OW 5178   2.475   0.842   3.293
 1720SOL    HW1 5179   2.531   0.923   3.276
 1720SOL    HW2 5180   2.534   0.762   3.296
 1721SOL     OW 5181   3.355   1.767   2.821
 1721SOL    HW1 5182   3.388   1.831   2.752
 1721SOL    HW2 5183   3.421   1.761   2.896
 1722SOL     OW 5184   2.578   0.565   3.570
 1722SOL    HW1 5185   2.597   0.630   3.644
 1722SOL    HW2 5186   2.638   0.485   3.579
 1723SOL     OW 5187   3.312   1.220   3.495
 1723SOL    HW1 5188   3.303   1.210   3.594
 1723SOL    HW2 5189   3.408   1.213   3.469
 1724SOL     OW 5190   2.252   1.741   3.422
 1724SOL    HW1 5191   2.161   1.782   3.420
 1724SOL    HW2 5192   2.245   1.647   3.454
 1725SOL     OW 5193   3.536   0.883   3.116
 1725SOL    HW1 5194   3.509   0.794   3.079
 1725SOL    HW2 5195   3.537   0.951   3.043
 1726SOL     OW 5196   3.087   0.325   2.311
 1726SOL    HW1 5197   3.152   0.251   2.300
 1726SOL    HW2 5198   3.107   0.375   2.395
 1727SOL     OW 5199   2.456   0.745   2.514
 1727SOL    HW1 5200   2.506   0.830   2.495
 1727SOL    HW2 5201   2.368   0.747   2.466
 1728SOL     OW 5202   3.639   0.342   3.504
 1728SOL    HW1 5203   3.622   0.373   3.410
 1728SOL    HW2 5204   3.555   0.305   3.542
 1729SOL     OW 5205   3.592   0.934   3.379
 1729SOL    HW1 5206   3.630   1.025   3.394
 1729SOL    HW2 5207   3.584   0.917   3.280
 1730SOL     OW 5208   2.721   1.374   1.878
 1730SOL    HW1 5209   2.675   1.389   1.966
 1730SOL    HW2 5210   2.765   1.459   1.848
 1731SOL     OW 5211   2.523   1.790   2.815
 1731SOL    HW1 5212   2.477   1.878   2.802
 1731SOL    HW2 5213   2.622   1.802   2.808
 1732SOL     OW 5214   2.721   0.956   2.723
 1732SOL    HW1 5215   2.775   0.887   2.771
 1732SOL    HW2 5216   2.689   1.025   2.789
 1733SOL     OW 5217   2.945   0.984   1.949
 1733SOL    HW1 5218   2.922   1.037   1.867
 1733SOL    HW2 5219   3.026   0.928   1.930
 1734SOL     OW 5220   3.723   1.569   2.713
 1734SOL    HW1 5221   3.652   1.557   2.643
 1734SOL    HW2 5222   3.724   1.490   2.773
 1735SOL     OW 5223   2.083   1.314   3.706
 1735SOL    HW1 5224   2.018   1.241   3.685
 1735SOL    HW2 5225   2.087   1.328   3.804
 1736SOL     OW 5226   1.941   1.240   2.515
 1736SOL    HW1 5227   1.940   1.193   2.603
 1736SOL    HW2 5228   2.023   1.212   2.464
 1737SOL     OW 5229   2.534   1.391   3.486
 1737SOL    HW1 5230   2.456   1.341   3.524
 1737SOL    HW2 5231   2.531   1.486   3.517
 1738SOL     OW 5232   3.686   0.192   3.089
 1738SOL    HW1 5233   3.682   0.102   3.133
 1738SOL    HW2 5234   3.689   0.181   2.990
 1739SOL     OW 5235   2.290   0.424   2.382
 1739SOL    HW1 5236   2.320   0.352   2.320
 1739SOL    HW2 5237   2.251   0.384   2.465
 1740SOL     OW 5238   3.567   1.487   2.966
 1740SOL    HW1 5239   3.474   1.462   2.939
 1740SOL    HW2 5240   3.593   1.437   3.048
 1741SOL     OW 5241   2.179   0.547   3.142
 1741SOL    HW1 5242   2.217   0.488   3.214
 1741SOL    HW2 5243   2.219   0.521   3.054
 1742SOL     OW 5244   2.674   1.586   2.549
 1742SOL    HW1 5245   2.706   1.596   2.455
 1742SOL    HW2 5246   2.595   1.524   2.551
 1743SOL     OW 5247   3.286   0.214   2.974
 1743SOL    HW1 5248   3.338   0.149   3.029
 1743SOL    HW2 5249   3.237   0.277   3.035
 1744SOL     OW 5250   2.863   0.034   3.016
 1744SOL    HW1 5251   2.800  -0.038   2.985
 1744SOL    HW2 5252   2.956  -0.002   3.016
 1745SOL     OW 5253   2.632   1.330   2.163
 1745SOL    HW1 5254   2.586   1.243   2.180
 1745SOL    HW2 5255   2.723   1.327   2.204
 1746SOL     OW 5256   2.480   1.567   3.146
 1746SOL    HW1 5257   2.475   1.649   3.203
 1746SOL    HW2 5258   2.569   1.564   3.101
 1747SOL     OW 5259   3.214   0.052   2.030
 1747SOL    HW1 5260   3.249   0.011   1.946
 1747SOL    HW2 5261   3.124   0.014   2.050
 1748SOL     OW 5262   3.162   0.453   2.553
 1748SOL    HW1 5263   3.103   0.533   2.557
 1748SOL    HW2 5264   3.177   0.418   2.646
 1749SOL     OW 5265   3.455   0.221   2.744
 1749SOL    HW1 5266   3.371   0.220   2.798
 1749SOL    HW2 5267   3.457   0.304   2.688
 1750SOL     OW 5268   1.901   1.077   2.162
 1750SOL    HW1 5269   2.000   1.066   2.153
 1750SOL    HW2 5270   1.861   0.991   2.194
 1751SOL     OW 5271   2.737   1.646   2.199
 1751SOL    HW1 5272   2.660   1.611   2.145
 1751SOL    HW2 5273   2.705   1.717   2.261
 1752SOL     OW 5274   2.092   0.628   3.837
 1752SOL    HW1 5275   1.999   0.626   3.874
 1752SOL    HW2 5276   2.093   0.589   3.745
 1753SOL     OW 5277   2.087   0.275   4.720
 1753SOL    HW1 5278   2.122   0.258   4.812
 1753SOL    HW2 5279   1.999   0.230   4.708
 1754SOL     OW 5280   1.881   0.368   4.371
 1754SOL    HW1 5281   1.799   0.411   4.410
 1754SOL    HW2 5282   1.853   0.295   4.308
 1755SOL     OW 5283   3.417   1.511   4.427
 1755SOL    HW1 5284   3.360   1.495   4.508
 1755SOL    HW2 5285   3.358   1.521   4.347
 1756SOL     OW 5286   2.997   0.703   4.441
 1756SOL    HW1 5287   3.054   0.781   4.416
 1756SOL    HW2 5288   2.937   0.729   4.517
 1757SOL     OW 5289   3.617   0.607   3.955
 1757SOL    HW1 5290   3.605   0.594   3.856
 1757SOL    HW2 5291   3.587   0.526   4.004
 1758SOL     OW 5292   2.547   1.012   4.389
 1758SOL    HW1 5293   2.616   0.996   4.459
 1758SOL    HW2 5294   2.474   1.069   4.427
 1759SOL     OW 5295   3.465   0.447   4.461
 1759SOL    HW1 5296   3.391   0.493   4.411
 1759SOL    HW2 5297   3.516   0.515   4.514
 1760SOL     OW 5298   2.093   1.713   4.207
 1760SOL    HW1 5299   2.127   1.790   4.261
 1760SOL    HW2 5300   2.137   1.713   4.117
 1761SOL     OW 5301   2.092   1.434   4.262
 1761SOL    HW1 5302   2.066   1.530   4.262
 1761SOL    HW2 5303   2.021   1.380   4.307
 1762SOL     OW 5304   2.102   1.091   4.610
 1762SOL    HW1 5305   2.116   1.007   4.662
 1762SOL    HW2 5306   2.047   1.155   4.665
 1763SOL     OW 5307   2.468   0.964   3.847
 1763SOL    HW1 5308   2.475   1.048   3.793
 1763SOL    HW2 5309   2.514   0.977   3.935
 1764SOL     OW 5310   1.984   0.643   4.287
 1764SOL    HW1 5311   1.939   0.555   4.304
 1764SOL    HW2 5312   1.983   0.697   4.371
 1765SOL     OW 5313   3.704   1.767   4.083
 1765SOL    HW1 5314   3.758   1.738   4.163
 1765SOL    HW2 5315   3.734   1.857   4.054
 1766SOL     OW 5316   1.889   1.596   3.841
 1766SOL    HW1 5317   1.870   1.500   3.862
 1766SOL    HW2 5318   1.856   1.654   3.916
 1767SOL     OW 5319   3.551   0.922   4.336
 1767SOL    HW1 5320   3.646   0.893   4.344
 1767SOL    HW2 5321   3.543   0.987   4.261
 1768SOL     OW 5322   3.503   1.108   4.156
 1768SOL    HW1 5323   3.589   1.110   4.104
 1768SOL    HW2 5324   3.517   1.155   4.244
 1769SOL     OW 5325   2.475   1.365   4.450
 1769SOL    HW1 5326   2.426   1.278   4.459
 1769SOL    HW2 5327   2.452   1.408   4.363
 1770SOL     OW 5328   2.671   0.004   4.226
 1770SOL    HW1 5329   2.711   0.095   4.217
 1770SOL    HW2 5330   2.571   0.012   4.232
 1771SOL     OW 5331   3.387   0.999   3.914
 1771SOL    HW1 5332   3.324   0.923   3.927
 1771SOL    HW2 5333   3.435   1.017   4.000
 1772SOL     OW 5334   3.328   1.417   4.677
 1772SOL    HW1 5335   3.269   1.423   4.757
 1772SOL    HW2 5336   3.313   1.329   4.631
 1773SOL     OW 5337   3.529   1.714   4.296
 1773SOL    HW1 5338   3.488   1.691   4.208
 1773SOL    HW2 5339   3.511   1.640   4.361
 1774SOL     OW 5340   2.460   0.729   3.994
 1774SOL    HW1 5341   2.484   0.798   3.926
 1774SOL    HW2 5342   2.382   0.762   4.048
 1775SOL     OW 5343   3.143   0.345   4.668
 1775SOL    HW1 5344   3.057   0.295   4.655
 1775SOL    HW2 5345   3.205   0.291   4.724
 1776SOL     OW 5346   3.438   1.662   4.031
 1776SOL    HW1 5347   3.527   1.708   4.034
 1776SOL    HW2 5348   3.417   1.638   3.936
 1777SOL     OW 5349   2.903   0.701   4.153
 1777SOL    HW1 5350   2.929   0.697   4.249
 1777SOL    HW2 5351   2.818   0.650   4.139
 1778SOL     OW 5352   1.938   0.811   4.513
 1778SOL    HW1 5353   2.037   0.799   4.522
 1778SOL    HW2 5354   1.914   0.906   4.534
 1779SOL     OW 5355   2.727   0.348   3.919
 1779SOL    HW1 5356   2.786   0.411   3.870
 1779SOL    HW2 5357   2.746   0.254   3.890
 1780SOL     OW 5358   3.224   1.144   4.269
 1780SOL    HW1 5359   3.307   1.115   4.221
 1780SOL    HW2 5360   3.175   1.211   4.213
 1781SOL     OW 5361   2.870   1.456   4.201
 1781SOL    HW1 5362   2.824   1.528   4.149
 1781SOL    HW2 5363   2.866   1.476   4.299
 1782SOL     OW 5364   2.213   1.801   4.577
 1782SOL    HW1 5365   2.263   1.715   4.583
 1782SOL    HW2 5366   2.278   1.878   4.574
 1783SOL     OW 5367   3.657   1.066   4.597
 1783SOL    HW1 5368   3.595   1.051   4.521
 1783SOL    HW2 5369   3.605   1.077   4.682
 1784SOL     OW 5370   2.183   0.943   3.966
 1784SOL    HW1 5371   2.265   0.982   3.924
 1784SOL    HW2 5372   2.156   0.861   3.917
 1785SOL     OW 5373   3.320   0.735   4.452
 1785SOL    HW1 5374   3.315   0.670   4.527
 1785SOL    HW2 5375   3.400   0.794   4.465
 1786SOL     OW 5376   2.973   1.776   3.961
 1786SOL    HW1 5377   2.913   1.714   4.011
 1786SOL    HW2 5378   3.004   1.732   3.876
 1787SOL     OW 5379   3.494   1.377   3.805
 1787SOL    HW1 5380   3.462   1.471   3.795
 1787SOL    HW2 5381   3.418   1.314   3.793
 1788SOL     OW 5382   2.326   1.743   4.047
 1788SOL    HW1 5383   2.359   1.782   4.133
 1788SOL    HW2 5384   2.402   1.736   3.982
 1789SOL     OW 5385   3.262   0.107   4.150
 1789SOL    HW1 5386   3.238   0.070   4.060
 1789SOL    HW2 5387   3.361   0.123   4.154
 1790SOL     OW 5388   2.244   0.700   4.204
 1790SOL    HW1 5389   2.289   0.610   4.201
 1790SOL    HW2 5390   2.150   0.689   4.237
 1791SOL     OW 5391   2.476   0.122   3.841
 1791SOL    HW1 5392   2.574   0.100   3.848
 1791SOL    HW2 5393   2.445   0.105   3.748
 1792SOL     OW 5394   2.401   0.064   4.236
 1792SOL    HW1 5395   2.320   0.065   4.294
 1792SOL    HW2 5396   2.404   0.147   4.181
 1793SOL     OW 5397   3.296   1.188   3.765
 1793SOL    HW1 5398   3.328   1.112   3.822
 1793SOL    HW2 5399   3.204   1.215   3.795
 1794SOL     OW 5400   2.159   0.035   3.895
 1794SOL    HW1 5401   2.208   0.119   3.874
 1794SOL    HW2 5402   2.221  -0.030   3.940
 1795SOL     OW 5403   2.797   0.236   4.204
 1795SOL    HW1 5404   2.749   0.277   4.126
 1795SOL    HW2 5405   2.896   0.234   4.185
 1796SOL     OW 5406   3.089   1.570   4.517
 1796SOL    HW1 5407   3.110   1.644   4.452
 1796SOL    HW2 5408   3.157   1.570   4.590
 1797SOL     OW 5409   2.321   1.152   4.465
 1797SOL    HW1 5410   2.250   1.125   4.530
 1797SOL    HW2 5411   2.295   1.124   4.372
 1798SOL     OW 5412   3.133   1.797   4.315
 1798SOL    HW1 5413   3.177   1.861   4.251
 1798SOL    HW2 5414   3.083   1.849   4.385
 1799SOL     OW 5415   2.894   0.549   3.740
 1799SOL    HW1 5416   2.853   0.631   3.701
 1799SOL    HW2 5417   2.958   0.575   3.813
 1800SOL     OW 5418   2.728   0.454   4.366
 1800SOL    HW1 5419   2.696   0.526   4.304
 1800SOL    HW2 5420   2.752   0.373   4.313
 1801SOL     OW 5421   2.879   0.039   4.477
 1801SOL    HW1 5422   2.807   0.044   4.408
 1801SOL    HW2 5423   2.855  -0.030   4.546
 1802SOL     OW 5424   3.719   0.833   4.101
 1802SOL    HW1 5425   3.761   0.769   4.165
 1802SOL    HW2 5426   3.681   0.782   4.023
 1803SOL     OW 5427   2.350   1.385   3.898
 1803SOL    HW1 5428   2.263   1.370   3.945
 1803SOL    HW2 5429   2.333   1.411   3.803
 1804SOL     OW 5430   3.526   1.280   4.381
 1804SOL    HW1 5431   3.625   1.288   4.395
 1804SOL    HW2 5432   3.481   1.364   4.412
 1805SOL     OW 5433   3.252   0.575   3.802
 1805SOL    HW1 5434   3.198   0.554   3.883
 1805SOL    HW2 5435   3.343   0.534   3.811
 1806SOL     OW 5436   2.389   0.256   4.052
 1806SOL    HW1 5437   2.416   0.197   3.977
 1806SOL    HW2 5438   2.389   0.351   4.021
 1807SOL     OW 5439   2.567   1.050   4.092
 1807SOL    HW1 5440   2.553   1.057   4.191
 1807SOL    HW2 5441   2.651   0.999   4.074
 1808SOL     OW 5442   2.229   1.100   4.225
 1808SOL    HW1 5443   2.222   1.183   4.169
 1808SOL    HW2 5444   2.233   1.020   4.165
 1809SOL     OW 5445   2.428   0.537   4.589
 1809SOL    HW1 5446   2.440   0.603   4.515
 1809SOL    HW2 5447   2.474   0.571   4.672
 1810SOL     OW 5448   3.114   1.348   4.112
 1810SOL    HW1 5449   3.164   1.425   4.152
 1810SOL    HW2 5450   3.019   1.350   4.144
 1811SOL     OW 5451   3.444   0.639   4.196
 1811SOL    HW1 5452   3.413   0.700   4.269
 1811SOL    HW2 5453   3.494   0.691   4.127
 1812SOL     OW 5454   3.071   0.525   3.999
 1812SOL    HW1 5455   3.084   0.441   4.053
 1812SOL    HW2 5456   3.042   0.599   4.059
 1813SOL     OW 5457   2.594   0.634   4.788
 1813SOL    HW1 5458   2.653   0.608   4.712
 1813SOL    HW2 5459   2.566   0.730   4.777
 1814SOL     OW 5460   2.169   0.063   4.342
 1814SOL    HW1 5461   2.158   0.157   4.375
 1814SOL    HW2 5462   2.164   0.000   4.419
 1815SOL     OW 5463   3.484   0.367   4.098
 1815SOL    HW1 5464   3.486   0.291   4.162
 1815SOL    HW2 5465   3.436   0.444   4.138
 1816SOL     OW 5466   3.402   0.274   3.849
 1816SOL    HW1 5467   3.341   0.199   3.872
 1816SOL    HW2 5468   3.424   0.326   3.932
 1817SOL     OW 5469   3.165   0.838   3.766
 1817SOL    HW1 5470   3.199   0.745   3.781
 1817SOL    HW2 5471   3.183   0.865   3.671
 1818SOL     OW 5472   2.930   1.333   4.573
 1818SOL    HW1 5473   2.937   1.249   4.518
 1818SOL    HW2 5474   2.992   1.402   4.537
 1819SOL     OW 5475   1.870   1.326   3.924
 1819SOL    HW1 5476   1.777   1.347   3.893
 1819SOL    HW2 5477   1.880   1.227   3.937
 1820SOL     OW 5478   1.950   1.801   4.651
 1820SOL    HW1 5479   1.908   1.715   4.624
 1820SOL    HW2 5480   2.044   1.804   4.617
 1821SOL     OW 5481   2.366   1.568   4.634
 1821SOL    HW1 5482   2.432   1.642   4.643
 1821SOL    HW2 5483   2.410   1.489   4.592
 1822SOL     OW 5484   2.677   0.572   4.049
 1822SOL    HW1 5485   2.684   0.483   4.003
 1822SOL    HW2 5486   2.583   0.606   4.041
 1823SOL     OW 5487   2.335   0.500   3.915
 1823SOL    HW1 5488   2.396   0.580   3.919
 1823SOL    HW2 5489   2.240   0.531   3.922
 1824SOL     OW 5490   3.164   0.855   4.033
 1824SOL    HW1 5491   3.078   0.824   4.075
 1824SOL    HW2 5492   3.160   0.841   3.934
 1825SOL     OW 5493   3.621   1.747   4.878
 1825SOL    HW1 5494   3.682   1.777   4.805
 1825SOL    HW2 5495   3.583   1.658   4.856
 1826SOL     OW 5496   3.588   0.135   4.247
 1826SOL    HW1 5497   3.661   0.118   4.180
 1826SOL    HW2 5498   3.557   0.048   4.285
 1827SOL     OW 5499   3.250   1.573   4.201
 1827SOL    HW1 5500   3.317   1.585   4.127
 1827SOL    HW2 5501   3.210   1.662   4.224
 1828SOL     OW 5502   3.142   0.927   4.396
 1828SOL    HW1 5503   3.202   0.846   4.398
 1828SOL    HW2 5504   3.182   0.996   4.336
 1829SOL     OW 5505   2.534   1.616   3.878
 1829SOL    HW1 5506   2.543   1.626   3.779
 1829SOL    HW2 5507   2.494   1.527   3.899
 1830SOL     OW 5508   3.703   0.175   4.687
 1830SOL    HW1 5509   3.742   0.090   4.651
 1830SOL    HW2 5510   3.605   0.177   4.668
 1831SOL     OW 5511   2.125   0.326   4.444
 1831SOL    HW1 5512   2.046   0.377   4.410
 1831SOL    HW2 5513   2.116   0.311   4.542
 1832SOL     OW 5514   3.056   1.612   3.755
 1832SOL    HW1 5515   3.062   1.519   3.792
 1832SOL    HW2 5516   2.997   1.612   3.675
 1833SOL     OW 5517   2.778   0.910   4.015
 1833SOL    HW1 5518   2.841   0.948   3.947
 1833SOL    HW2 5519   2.818   0.827   4.054
 1834SOL     OW 5520   3.366   1.607   3.768
 1834SOL    HW1 5521   3.274   1.644   3.775
 1834SOL    HW2 5522   3.404   1.627   3.678
 1835SOL     OW 5523   2.901   1.098   4.420
 1835SOL    HW1 5524   2.831   1.051   4.474
 1835SOL    HW2 5525   2.960   1.030   4.377
 1836SOL     OW 5526   2.452   1.487   4.215
 1836SOL    HW1 5527   2.494   1.429   4.145
 1836SOL    HW2 5528   2.408   1.566   4.171
 1837SOL     OW 5529   2.117   1.348   4.014
 1837SOL    HW1 5530   2.021   1.349   3.987
 1837SOL    HW2 5531   2.129   1.401   4.098
 1838SOL     OW 5532   1.937   0.345   3.757
 1838SOL    HW1 5533   1.845   0.317   3.728
 1838SOL    HW2 5534   1.968   0.422   3.701
 1839SOL     OW 5535   1.934   0.166   4.042
 1839SOL    HW1 5536   1.917   0.249   3.988
 1839SOL    HW2 5537   2.024   0.129   4.020
 1840SOL     OW 5538   3.045   1.335   3.843
 1840SOL    HW1 5539   2.946   1.324   3.845
 1840SOL    HW2 5540   3.079   1.350   3.936
 1841SOL     OW 5541   3.087   0.325   4.173
 1841SOL    HW1 5542   3.152   0.251   4.162
 1841SOL    HW2 5543   3.107   0.375   4.257
 1842SOL     OW 5544   2.456   0.745   4.376
 1842SOL    HW1 5545   2.506   0.830   4.357
 1842SOL    HW2 5546   2.368   0.747   4.328
 1843SOL     OW 5547   2.721   1.374   3.740
 1843SOL    HW1 5548   2.675   1.389   3.828
 1843SOL    HW2 5549   2.765   1.459   3.710
 1844SOL     OW 5550   2.523   1.790   4.677
 1844SOL    HW1 5551   2.477   1.878   4.664
 1844SOL    HW2 5552   2.622   1.802   4.670
 1845SOL     OW 5553   2.721   0.956   4.585
 1845SOL    HW1 5554   2.775   0.887   4.633
 1845SOL    HW2 5555   2.689   1.025   4.651
 1846SOL     OW 5556   2.945   0.984   3.811
 1846SOL    HW1 5557   2.922   1.037   3.729
 1846SOL    HW2 5558   3.026   0.928   3.792
 1847SOL     OW 5559   3.723   1.569   4.575
 1847SOL    HW1 5560   3.652   1.557   4.505
 1847SOL    HW2 5561   3.724   1.490   4.635
 1848SOL     OW 5562   1.941   1.240   4.377
 1848SOL    HW1 5563   1.940   1.193   4.465
 1848SOL    HW2 5564   2.023   1.212   4.326
 1849SOL     OW 5565   3.686   0.192   4.951
 1849SOL    HW1 5566   3.682   0.102   4.995
 1849SOL    HW2 5567   3.689   0.181   4.852
 1850SOL     OW 5568   2.290   0.424   4.244
 1850SOL    HW1 5569   2.320   0.352   4.182
 1850SOL    HW2 5570   2.251   0.384   4.327
 1851SOL     OW 5571   2.674   1.586   4.411
 1851SOL    HW1 5572   2.706   1.596   4.317
 1851SOL    HW2 5573   2.595   1.524   4.413
 1852SOL     OW 5574   2.632   1.330   4.025
 1852SOL    HW1 5575   2.586   1.243   4.042
 1852SOL    HW2 5576   2.723   1.327   4.066
 1853SOL     OW 5577   3.214   0.052   3.892
 1853SOL    HW1 5578   3.249   0.011   3.808
 1853SOL    HW2 5579   3.124   0.014   3.912
 1854SOL     OW 5580   3.162   0.453   4.415
 1854SOL    HW1 5581   3.103   0.533   4.419
 1854SOL    HW2 5582   3.177   0.418   4.508
 1855SOL     OW 5583   3.455   0.221   4.606
 1855SOL    HW1 5584   3.371   0.220   4.660
 1855SOL    HW2 5585   3.457   0.304   4.550
 1856SOL     OW 5586   1.901   1.077   4.024
 1856SOL    HW1 5587   2.000   1.066   4.015
 1856SOL    HW2 5588   1.861   0.991   4.056
 1857SOL     OW 5589   2.737   1.646   4.061
 1857SOL    HW1 5590   2.660   1.611   4.007
 1857SOL    HW2 5591   2.705   1.717   4.123
 1858SOL     OW 5592   2.092   2.490   0.113
 1858SOL    HW1 5593   1.999   2.488   0.150
 1858SOL    HW2 5594   2.093   2.451   0.021
 1859SOL     OW 5595   2.087   2.137   0.996
 1859SOL    HW1 5596   2.122   2.120   1.088
 1859SOL    HW2 5597   1.999   2.092   0.984
 1860SOL     OW 5598   1.881   2.230   0.647
 1860SOL    HW1 5599   1.799   2.273   0.686
 1860SOL    HW2 5600   1.853   2.157   0.584
 1861SOL     OW 5601   2.431   3.137   1.165
 1861SOL    HW1 5602   2.338   3.130   1.128
 1861SOL    HW2 5603   2.442   3.226   1.209
 1862SOL     OW 5604   3.417   3.373   0.703
 1862SOL    HW1 5605   3.360   3.357   0.784
 1862SOL    HW2 5606   3.358   3.383   0.623
 1863SOL     OW 5607   2.997   2.565   0.717
 1863SOL    HW1 5608   3.054   2.643   0.692
 1863SOL    HW2 5609   2.937   2.591   0.793
 1864SOL     OW 5610   3.617   2.469   0.231
 1864SOL    HW1 5611   3.605   2.456   0.132
 1864SOL    HW2 5612   3.587   2.388   0.280
 1865SOL     OW 5613   2.630   3.006   1.023
 1865SOL    HW1 5614   2.552   3.023   1.083
 1865SOL    HW2 5615   2.664   3.093   0.987
 1866SOL     OW 5616   2.712   2.660   1.823
 1866SOL    HW1 5617   2.708   2.736   1.888
 1866SOL    HW2 5618   2.734   2.696   1.732
 1867SOL     OW 5619   2.547   2.874   0.665
 1867SOL    HW1 5620   2.616   2.858   0.735
 1867SOL    HW2 5621   2.474   2.931   0.703
 1868SOL     OW 5622   2.548   3.023   1.803
 1868SOL    HW1 5623   2.608   3.102   1.817
 1868SOL    HW2 5624   2.462   3.054   1.762
 1869SOL     OW 5625   2.197   3.297   1.061
 1869SOL    HW1 5626   2.119   3.266   1.008
 1869SOL    HW2 5627   2.255   3.355   1.004
 1870SOL     OW 5628   3.322   3.367   1.339
 1870SOL    HW1 5629   3.346   3.461   1.365
 1870SOL    HW2 5630   3.306   3.313   1.421
 1871SOL     OW 5631   2.300   2.254   1.499
 1871SOL    HW1 5632   2.382   2.198   1.508
 1871SOL    HW2 5633   2.219   2.196   1.503
 1872SOL     OW 5634   3.465   2.309   0.737
 1872SOL    HW1 5635   3.391   2.355   0.687
 1872SOL    HW2 5636   3.516   2.377   0.790
 1873SOL     OW 5637   2.093   3.575   0.483
 1873SOL    HW1 5638   2.127   3.652   0.537
 1873SOL    HW2 5639   2.137   3.575   0.393
 1874SOL     OW 5640   2.989   3.203   1.690
 1874SOL    HW1 5641   3.036   3.203   1.778
 1874SOL    HW2 5642   2.941   3.116   1.679
 1875SOL     OW 5643   2.092   3.296   0.538
 1875SOL    HW1 5644   2.066   3.392   0.538
 1875SOL    HW2 5645   2.021   3.242   0.583
 1876SOL     OW 5646   2.102   2.953   0.886
 1876SOL    HW1 5647   2.116   2.869   0.938
 1876SOL    HW2 5648   2.047   3.017   0.941
 1877SOL     OW 5649   2.482   3.648   1.439
 1877SOL    HW1 5650   2.390   3.631   1.474
 1877SOL    HW2 5651   2.510   3.740   1.465
 1878SOL     OW 5652   2.468   2.826   0.123
 1878SOL    HW1 5653   2.475   2.910   0.069
 1878SOL    HW2 5654   2.514   2.839   0.211
 1879SOL     OW 5655   3.456   1.976   1.480
 1879SOL    HW1 5656   3.438   2.043   1.408
 1879SOL    HW2 5657   3.453   2.022   1.569
 1880SOL     OW 5658   1.984   2.505   0.563
 1880SOL    HW1 5659   1.939   2.417   0.580
 1880SOL    HW2 5660   1.983   2.559   0.647
 1881SOL     OW 5661   3.704   3.629   0.359
 1881SOL    HW1 5662   3.758   3.600   0.439
 1881SOL    HW2 5663   3.734   3.719   0.330
 1882SOL     OW 5664   3.551   2.784   0.612
 1882SOL    HW1 5665   3.646   2.755   0.620
 1882SOL    HW2 5666   3.543   2.849   0.537
 1883SOL     OW 5667   3.503   2.970   0.432
 1883SOL    HW1 5668   3.589   2.972   0.380
 1883SOL    HW2 5669   3.517   3.017   0.520
 1884SOL     OW 5670   1.975   2.599   1.597
 1884SOL    HW1 5671   2.063   2.586   1.642
 1884SOL    HW2 5672   1.962   2.696   1.575
 1885SOL     OW 5673   2.475   3.227   0.726
 1885SOL    HW1 5674   2.426   3.140   0.735
 1885SOL    HW2 5675   2.452   3.270   0.639
 1886SOL     OW 5676   3.155   3.090   1.423
 1886SOL    HW1 5677   3.192   3.017   1.365
 1886SOL    HW2 5678   3.207   3.095   1.508
 1887SOL     OW 5679   2.671   1.866   0.502
 1887SOL    HW1 5680   2.711   1.957   0.493
 1887SOL    HW2 5681   2.571   1.874   0.508
 1888SOL     OW 5682   2.059   2.838   1.264
 1888SOL    HW1 5683   2.148   2.793   1.250
 1888SOL    HW2 5684   1.986   2.773   1.245
 1889SOL     OW 5685   3.387   2.861   0.190
 1889SOL    HW1 5686   3.324   2.785   0.203
 1889SOL    HW2 5687   3.435   2.879   0.276
 1890SOL     OW 5688   3.049   3.654   1.616
 1890SOL    HW1 5689   3.073   3.714   1.540
 1890SOL    HW2 5690   3.056   3.559   1.586
 1891SOL     OW 5691   2.179   2.113   1.801
 1891SOL    HW1 5692   2.250   2.184   1.807
 1891SOL    HW2 5693   2.091   2.152   1.829
 1892SOL     OW 5694   3.328   3.279   0.953
 1892SOL    HW1 5695   3.269   3.285   1.033
 1892SOL    HW2 5696   3.313   3.191   0.907
 1893SOL     OW 5697   3.529   3.576   0.572
 1893SOL    HW1 5698   3.488   3.553   0.484
 1893SOL    HW2 5699   3.511   3.502   0.637
 1894SOL     OW 5700   2.460   2.591   0.270
 1894SOL    HW1 5701   2.484   2.660   0.202
 1894SOL    HW2 5702   2.382   2.624   0.324
 1895SOL     OW 5703   3.143   2.207   0.944
 1895SOL    HW1 5704   3.057   2.157   0.931
 1895SOL    HW2 5705   3.205   2.153   1.000
 1896SOL     OW 5706   3.438   3.524   0.307
 1896SOL    HW1 5707   3.527   3.570   0.310
 1896SOL    HW2 5708   3.417   3.500   0.212
 1897SOL     OW 5709   2.669   2.467   1.465
 1897SOL    HW1 5710   2.622   2.464   1.554
 1897SOL    HW2 5711   2.618   2.412   1.399
 1898SOL     OW 5712   3.256   2.331   1.674
 1898SOL    HW1 5713   3.236   2.374   1.762
 1898SOL    HW2 5714   3.334   2.269   1.683
 1899SOL     OW 5715   2.835   2.752   1.572
 1899SOL    HW1 5716   2.881   2.668   1.543
 1899SOL    HW2 5717   2.779   2.786   1.497
 1900SOL     OW 5718   2.853   2.272   1.242
 1900SOL    HW1 5719   2.776   2.306   1.296
 1900SOL    HW2 5720   2.819   2.221   1.163
 1901SOL     OW 5721   2.903   2.563   0.429
 1901SOL    HW1 5722   2.929   2.559   0.525
 1901SOL    HW2 5723   2.818   2.512   0.415
 1902SOL     OW 5724   1.938   2.673   0.789
 1902SOL    HW1 5725   2.037   2.661   0.798
 1902SOL    HW2 5726   1.914   2.768   0.810
 1903SOL     OW 5727   1.992   3.683   1.571
 1903SOL    HW1 5728   1.982   3.668   1.670
 1903SOL    HW2 5729   1.906   3.719   1.535
 1904SOL     OW 5730   2.727   2.210   0.195
 1904SOL    HW1 5731   2.786   2.273   0.146
 1904SOL    HW2 5732   2.746   2.116   0.166
 1905SOL     OW 5733   3.581   2.447   1.831
 1905SOL    HW1 5734   3.555   2.536   1.795
 1905SOL    HW2 5735   3.579   2.379   1.758
 1906SOL     OW 5736   3.224   3.006   0.545
 1906SOL    HW1 5737   3.307   2.977   0.497
 1906SOL    HW2 5738   3.175   3.073   0.489
 1907SOL     OW 5739   2.412   2.058   0.885
 1907SOL    HW1 5740   2.407   2.053   0.985
 1907SOL    HW2 5741   2.414   2.154   0.856
 1908SOL     OW 5742   2.870   3.318   0.477
 1908SOL    HW1 5743   2.824   3.390   0.425
 1908SOL    HW2 5744   2.866   3.338   0.575
 1909SOL     OW 5745   2.213   3.663   0.853
 1909SOL    HW1 5746   2.263   3.577   0.859
 1909SOL    HW2 5747   2.278   3.740   0.850
 1910SOL     OW 5748   3.657   2.928   0.873
 1910SOL    HW1 5749   3.595   2.913   0.797
 1910SOL    HW2 5750   3.605   2.939   0.958
 1911SOL     OW 5751   3.089   3.412   1.506
 1911SOL    HW1 5752   3.095   3.335   1.570
 1911SOL    HW2 5753   3.037   3.386   1.426
 1912SOL     OW 5754   2.183   2.805   0.242
 1912SOL    HW1 5755   2.265   2.844   0.200
 1912SOL    HW2 5756   2.156   2.723   0.193
 1913SOL     OW 5757   3.320   2.597   0.728
 1913SOL    HW1 5758   3.315   2.532   0.803
 1913SOL    HW2 5759   3.400   2.656   0.741
 1914SOL     OW 5760   2.323   3.128   1.727
 1914SOL    HW1 5761   2.273   3.129   1.641
 1914SOL    HW2 5762   2.260   3.110   1.803
 1915SOL     OW 5763   2.973   3.638   0.237
 1915SOL    HW1 5764   2.913   3.576   0.287
 1915SOL    HW2 5765   3.004   3.594   0.152
 1916SOL     OW 5766   2.064   2.147   1.498
 1916SOL    HW1 5767   1.984   2.207   1.485
 1916SOL    HW2 5768   2.054   2.098   1.584
 1917SOL     OW 5769   3.494   3.239   0.081
 1917SOL    HW1 5770   3.462   3.333   0.071
 1917SOL    HW2 5771   3.418   3.176   0.069
 1918SOL     OW 5772   2.326   3.605   0.323
 1918SOL    HW1 5773   2.359   3.644   0.409
 1918SOL    HW2 5774   2.402   3.598   0.258
 1919SOL     OW 5775   3.262   1.969   0.426
 1919SOL    HW1 5776   3.238   1.932   0.336
 1919SOL    HW2 5777   3.361   1.985   0.430
 1920SOL     OW 5778   2.111   3.647   1.241
 1920SOL    HW1 5779   2.168   3.582   1.291
 1920SOL    HW2 5780   2.095   3.614   1.148
 1921SOL     OW 5781   2.802   3.560   0.904
 1921SOL    HW1 5782   2.882   3.503   0.925
 1921SOL    HW2 5783   2.753   3.520   0.827
 1922SOL     OW 5784   2.244   2.562   0.480
 1922SOL    HW1 5785   2.289   2.472   0.477
 1922SOL    HW2 5786   2.150   2.551   0.513
 1923SOL     OW 5787   3.409   2.084   1.729
 1923SOL    HW1 5788   3.404   2.121   1.821
 1923SOL    HW2 5789   3.337   2.015   1.717
 1924SOL     OW 5790   2.643   2.126   1.749
 1924SOL    HW1 5791   2.710   2.065   1.792
 1924SOL    HW2 5792   2.570   2.145   1.814
 1925SOL     OW 5793   2.750   3.376   1.195
 1925SOL    HW1 5794   2.727   3.351   1.101
 1925SOL    HW2 5795   2.811   3.307   1.234
 1926SOL     OW 5796   3.213   2.452   1.433
 1926SOL    HW1 5797   3.241   2.409   1.518
 1926SOL    HW2 5798   3.238   2.548   1.434
 1927SOL     OW 5799   2.665   3.264   0.924
 1927SOL    HW1 5800   2.755   3.278   0.882
 1927SOL    HW2 5801   2.594   3.266   0.853
 1928SOL     OW 5802   2.784   2.365   0.899
 1928SOL    HW1 5803   2.759   2.356   0.803
 1928SOL    HW2 5804   2.832   2.283   0.930
 1929SOL     OW 5805   2.401   1.926   0.512
 1929SOL    HW1 5806   2.320   1.927   0.570
 1929SOL    HW2 5807   2.404   2.009   0.457
 1930SOL     OW 5808   3.296   3.050   0.041
 1930SOL    HW1 5809   3.328   2.974   0.098
 1930SOL    HW2 5810   3.204   3.077   0.071
 1931SOL     OW 5811   2.159   1.897   0.171
 1931SOL    HW1 5812   2.208   1.981   0.150
 1931SOL    HW2 5813   2.221   1.832   0.216
 1932SOL     OW 5814   2.797   2.098   0.480
 1932SOL    HW1 5815   2.749   2.139   0.402
 1932SOL    HW2 5816   2.896   2.096   0.461
 1933SOL     OW 5817   2.938   2.545   1.464
 1933SOL    HW1 5818   2.858   2.484   1.467
 1933SOL    HW2 5819   3.019   2.492   1.440
 1934SOL     OW 5820   3.089   3.432   0.793
 1934SOL    HW1 5821   3.110   3.506   0.728
 1934SOL    HW2 5822   3.157   3.432   0.866
 1935SOL     OW 5823   2.321   3.014   0.741
 1935SOL    HW1 5824   2.250   2.987   0.806
 1935SOL    HW2 5825   2.295   2.986   0.648
 1936SOL     OW 5826   3.133   3.659   0.591
 1936SOL    HW1 5827   3.177   3.723   0.527
 1936SOL    HW2 5828   3.083   3.711   0.661
 1937SOL     OW 5829   2.894   2.411   0.016
 1937SOL    HW1 5830   2.853   2.493  -0.023
 1937SOL    HW2 5831   2.958   2.437   0.089
 1938SOL     OW 5832   1.940   2.418   1.386
 1938SOL    HW1 5833   2.032   2.417   1.345
 1938SOL    HW2 5834   1.934   2.492   1.453
 1939SOL     OW 5835   2.423   2.084   1.147
 1939SOL    HW1 5836   2.461   2.000   1.184
 1939SOL    HW2 5837   2.335   2.103   1.191
 1940SOL     OW 5838   2.728   2.316   0.642
 1940SOL    HW1 5839   2.696   2.388   0.580
 1940SOL    HW2 5840   2.752   2.235   0.589
 1941SOL     OW 5841   2.879   1.901   0.753
 1941SOL    HW1 5842   2.807   1.906   0.684
 1941SOL    HW2 5843   2.855   1.832   0.822
 1942SOL     OW 5844   3.291   3.035   0.867
 1942SOL    HW1 5845   3.236   2.951   0.860
 1942SOL    HW2 5846   3.317   3.064   0.775
 1943SOL     OW 5847   3.328   2.452   0.992
 1943SOL    HW1 5848   3.298   2.357   0.999
 1943SOL    HW2 5849   3.401   2.468   1.058
 1944SOL     OW 5850   3.719   2.695   0.377
 1944SOL    HW1 5851   3.761   2.631   0.441
 1944SOL    HW2 5852   3.681   2.644   0.299
 1945SOL     OW 5853   2.350   3.247   0.174
 1945SOL    HW1 5854   2.263   3.232   0.221
 1945SOL    HW2 5855   2.333   3.273   0.079
 1946SOL     OW 5856   3.526   3.142   0.657
 1946SOL    HW1 5857   3.625   3.150   0.671
 1946SOL    HW2 5858   3.481   3.226   0.688
 1947SOL     OW 5859   3.252   2.437   0.078
 1947SOL    HW1 5860   3.198   2.416   0.159
 1947SOL    HW2 5861   3.343   2.396   0.087
 1948SOL     OW 5862   2.389   2.118   0.328
 1948SOL    HW1 5863   2.416   2.059   0.253
 1948SOL    HW2 5864   2.389   2.213   0.297
 1949SOL     OW 5865   3.616   3.085   1.588
 1949SOL    HW1 5866   3.707   3.046   1.575
 1949SOL    HW2 5867   3.624   3.181   1.612
 1950SOL     OW 5868   2.926   3.209   1.340
 1950SOL    HW1 5869   2.846   3.186   1.395
 1950SOL    HW2 5870   3.009   3.183   1.389
 1951SOL     OW 5871   3.454   3.491   1.625
 1951SOL    HW1 5872   3.481   3.525   1.535
 1951SOL    HW2 5873   3.533   3.453   1.671
 1952SOL     OW 5874   2.973   3.057   1.100
 1952SOL    HW1 5875   2.933   3.101   1.181
 1952SOL    HW2 5876   2.932   3.094   1.017
 1953SOL     OW 5877   3.500   2.961   1.079
 1953SOL    HW1 5878   3.505   3.042   1.138
 1953SOL    HW2 5879   3.414   2.963   1.028
 1954SOL     OW 5880   2.777   1.951   1.402
 1954SOL    HW1 5881   2.802   1.931   1.307
 1954SOL    HW2 5882   2.849   2.007   1.444
 1955SOL     OW 5883   2.842   2.978   1.719
 1955SOL    HW1 5884   2.743   2.984   1.729
 1955SOL    HW2 5885   2.865   2.898   1.663
 1956SOL     OW 5886   2.567   2.912   0.368
 1956SOL    HW1 5887   2.553   2.919   0.467
 1956SOL    HW2 5888   2.651   2.861   0.350
 1957SOL     OW 5889   2.272   2.675   1.251
 1957SOL    HW1 5890   2.358   2.687   1.301
 1957SOL    HW2 5891   2.230   2.588   1.278
 1958SOL     OW 5892   3.136   2.248   1.262
 1958SOL    HW1 5893   3.157   2.322   1.326
 1958SOL    HW2 5894   3.047   2.265   1.219
 1959SOL     OW 5895   1.926   3.426   1.331
 1959SOL    HW1 5896   1.880   3.508   1.297
 1959SOL    HW2 5897   2.024   3.445   1.340
 1960SOL     OW 5898   2.229   2.962   0.501
 1960SOL    HW1 5899   2.222   3.045   0.445
 1960SOL    HW2 5900   2.233   2.882   0.441
 1961SOL     OW 5901   2.428   2.399   0.865
 1961SOL    HW1 5902   2.440   2.465   0.791
 1961SOL    HW2 5903   2.474   2.433   0.948
 1962SOL     OW 5904   3.114   3.210   0.388
 1962SOL    HW1 5905   3.164   3.287   0.428
 1962SOL    HW2 5906   3.019   3.212   0.420
 1963SOL     OW 5907   3.134   3.307   1.142
 1963SOL    HW1 5908   3.181   3.320   1.229
 1963SOL    HW2 5909   3.068   3.233   1.151
 1964SOL     OW 5910   3.444   2.501   0.472
 1964SOL    HW1 5911   3.413   2.562   0.545
 1964SOL    HW2 5912   3.494   2.553   0.403
 1965SOL     OW 5913   2.216   3.372   1.329
 1965SOL    HW1 5914   2.195   3.328   1.242
 1965SOL    HW2 5915   2.313   3.398   1.332
 1966SOL     OW 5916   2.264   2.613   1.598
 1966SOL    HW1 5917   2.332   2.668   1.551
 1966SOL    HW2 5918   2.304   2.525   1.625
 1967SOL     OW 5919   3.449   2.641   1.670
 1967SOL    HW1 5920   3.357   2.679   1.665
 1967SOL    HW2 5921   3.509   2.688   1.605
 1968SOL     OW 5922   2.875   1.967   1.770
 1968SOL    HW1 5923   2.881   2.052   1.718
 1968SOL    HW2 5924   2.907   1.891   1.713
 1969SOL     OW 5925   2.366   1.912   1.740
 1969SOL    HW1 5926   2.324   1.855   1.670
 1969SOL    HW2 5927   2.300   1.981   1.772
 1970SOL     OW 5928   2.435   2.732   1.029
 1970SOL    HW1 5929   2.479   2.821   1.020
 1970SOL    HW2 5930   2.372   2.732   1.106
 1971SOL     OW 5931   3.222   2.724   1.045
 1971SOL    HW1 5932   3.147   2.724   0.979
 1971SOL    HW2 5933   3.259   2.632   1.054
 1972SOL     OW 5934   3.071   2.387   0.275
 1972SOL    HW1 5935   3.084   2.303   0.329
 1972SOL    HW2 5936   3.042   2.461   0.335
 1973SOL     OW 5937   2.169   2.075   1.231
 1973SOL    HW1 5938   2.146   2.112   1.321
 1973SOL    HW2 5939   2.139   1.980   1.225
 1974SOL     OW 5940   1.899   3.172   1.282
 1974SOL    HW1 5941   1.952   3.123   1.350
 1974SOL    HW2 5942   1.921   3.270   1.287
 1975SOL     OW 5943   2.594   2.496   1.064
 1975SOL    HW1 5944   2.653   2.470   0.988
 1975SOL    HW2 5945   2.566   2.592   1.053
 1976SOL     OW 5946   3.590   2.797   1.854
 1976SOL    HW1 5947   3.544   2.790   1.765
 1976SOL    HW2 5948   3.528   2.841   1.920
 1977SOL     OW 5949   2.169   1.925   0.618
 1977SOL    HW1 5950   2.158   2.019   0.651
 1977SOL    HW2 5951   2.164   1.862   0.695
 1978SOL     OW 5952   3.484   2.229   0.374
 1978SOL    HW1 5953   3.486   2.153   0.438
 1978SOL    HW2 5954   3.436   2.306   0.414
 1979SOL     OW 5955   2.885   2.628   0.966
 1979SOL    HW1 5956   2.900   2.649   1.062
 1979SOL    HW2 5957   2.855   2.533   0.957
 1980SOL     OW 5958   2.842   3.435   1.700
 1980SOL    HW1 5959   2.822   3.479   1.612
 1980SOL    HW2 5960   2.881   3.344   1.684
 1981SOL     OW 5961   3.721   3.380   1.605
 1981SOL    HW1 5962   3.735   3.407   1.510
 1981SOL    HW2 5963   3.804   3.402   1.658
 1982SOL     OW 5964   2.212   2.760   1.804
 1982SOL    HW1 5965   2.288   2.804   1.852
 1982SOL    HW2 5966   2.247   2.713   1.722
 1983SOL     OW 5967   3.402   2.136   0.125
 1983SOL    HW1 5968   3.341   2.061   0.148
 1983SOL    HW2 5969   3.424   2.188   0.208
 1984SOL     OW 5970   3.165   2.700   0.042
 1984SOL    HW1 5971   3.199   2.607   0.057
 1984SOL    HW2 5972   3.183   2.727  -0.053
 1985SOL     OW 5973   2.930   3.195   0.849
 1985SOL    HW1 5974   2.937   3.111   0.794
 1985SOL    HW2 5975   2.992   3.264   0.813
 1986SOL     OW 5976   2.181   2.672   0.949
 1986SOL    HW1 5977   2.274   2.708   0.954
 1986SOL    HW2 5978   2.175   2.587   1.001
 1987SOL     OW 5979   2.201   2.371   1.006
 1987SOL    HW1 5980   2.149   2.288   0.989
 1987SOL    HW2 5981   2.278   2.376   0.942
 1988SOL     OW 5982   3.000   2.242   1.678
 1988SOL    HW1 5983   2.955   2.305   1.742
 1988SOL    HW2 5984   3.093   2.273   1.661
 1989SOL     OW 5985   3.022   2.069   1.477
 1989SOL    HW1 5986   3.022   2.133   1.554
 1989SOL    HW2 5987   3.050   2.117   1.394
 1990SOL     OW 5988   1.870   3.188   0.200
 1990SOL    HW1 5989   1.777   3.209   0.169
 1990SOL    HW2 5990   1.880   3.089   0.213
 1991SOL     OW 5991   1.950   3.663   0.927
 1991SOL    HW1 5992   1.908   3.577   0.900
 1991SOL    HW2 5993   2.044   3.666   0.893
 1992SOL     OW 5994   2.366   3.430   0.910
 1992SOL    HW1 5995   2.432   3.504   0.919
 1992SOL    HW2 5996   2.410   3.351   0.868
 1993SOL     OW 5997   2.864   2.658   1.238
 1993SOL    HW1 5998   2.905   2.626   1.324
 1993SOL    HW2 5999   2.768   2.631   1.235
 1994SOL     OW 6000   1.902   2.406   1.114
 1994SOL    HW1 6001   1.987   2.373   1.073
 1994SOL    HW2 6002   1.915   2.421   1.212
 1995SOL     OW 6003   2.051   2.382   1.722
 1995SOL    HW1 6004   2.110   2.342   1.652
 1995SOL    HW2 6005   1.993   2.453   1.681
 1996SOL     OW 6006   3.231   2.812   1.660
 1996SOL    HW1 6007   3.270   2.901   1.680
 1996SOL    HW2 6008   3.241   2.792   1.563
 1997SOL     OW 6009   2.677   2.434   0.325
 1997SOL    HW1 6010   2.684   2.345   0.279
 1997SOL    HW2 6011   2.583   2.468   0.317
 1998SOL     OW 6012   3.519   2.466   1.206
 1998SOL    HW1 6013   3.481   2.397   1.268
 1998SOL    HW2 6014   3.601   2.430   1.162
 1999SOL     OW 6015   2.114   3.426   1.744
 1999SOL    HW1 6016   2.084   3.483   1.820
 1999SOL    HW2 6017   2.107   3.329   1.770
 2000SOL     OW 6018   2.533   2.326   1.269
 2000SOL    HW1 6019   2.499   2.237   1.239
 2000SOL    HW2 6020   2.559   2.380   1.189
 2001SOL     OW 6021   2.792   3.540   1.465
 2001SOL    HW1 6022   2.768   3.522   1.370
 2001SOL    HW2 6023   2.822   3.634   1.475
 2002SOL     OW 6024   2.335   2.362   0.191
 2002SOL    HW1 6025   2.396   2.442   0.195
 2002SOL    HW2 6026   2.240   2.393   0.198
 2003SOL     OW 6027   2.021   2.999   1.466
 2003SOL    HW1 6028   2.043   2.938   1.542
 2003SOL    HW2 6029   2.031   2.950   1.380
 2004SOL     OW 6030   3.209   2.921   1.234
 2004SOL    HW1 6031   3.233   2.858   1.160
 2004SOL    HW2 6032   3.119   2.961   1.216
 2005SOL     OW 6033   3.164   2.717   0.309
 2005SOL    HW1 6034   3.078   2.686   0.351
 2005SOL    HW2 6035   3.160   2.703   0.210
 2006SOL     OW 6036   3.621   3.609   1.154
 2006SOL    HW1 6037   3.682   3.639   1.081
 2006SOL    HW2 6038   3.583   3.520   1.132
 2007SOL     OW 6039   3.114   3.593   1.128
 2007SOL    HW1 6040   3.198   3.598   1.074
 2007SOL    HW2 6041   3.091   3.497   1.146
 2008SOL     OW 6042   1.945   3.120   1.022
 2008SOL    HW1 6043   1.940   3.119   1.122
 2008SOL    HW2 6044   1.862   3.079   0.984
 2009SOL     OW 6045   2.550   3.524   1.716
 2009SOL    HW1 6046   2.494   3.605   1.725
 2009SOL    HW2 6047   2.602   3.528   1.630
 2010SOL     OW 6048   2.765   1.948   0.133
 2010SOL    HW1 6049   2.816   1.949   0.047
 2010SOL    HW2 6050   2.821   1.906   0.204
 2011SOL     OW 6051   3.588   1.997   0.523
 2011SOL    HW1 6052   3.661   1.980   0.456
 2011SOL    HW2 6053   3.557   1.910   0.561
 2012SOL     OW 6054   3.250   3.435   0.477
 2012SOL    HW1 6055   3.317   3.447   0.403
 2012SOL    HW2 6056   3.210   3.524   0.500
 2013SOL     OW 6057   1.992   3.656   1.851
 2013SOL    HW1 6058   1.951   3.582   1.904
 2013SOL    HW2 6059   2.056   3.707   1.909
 2014SOL     OW 6060   3.142   2.789   0.672
 2014SOL    HW1 6061   3.202   2.708   0.674
 2014SOL    HW2 6062   3.182   2.858   0.612
 2015SOL     OW 6063   2.692   3.135   1.422
 2015SOL    HW1 6064   2.687   3.168   1.517
 2015SOL    HW2 6065   2.606   3.154   1.376
 2016SOL     OW 6066   2.534   3.478   0.154
 2016SOL    HW1 6067   2.543   3.488   0.055
 2016SOL    HW2 6068   2.494   3.389   0.175
 2017SOL     OW 6069   3.512   3.582   1.394
 2017SOL    HW1 6070   3.565   3.592   1.310
 2017SOL    HW2 6071   3.485   3.672   1.428
 2018SOL     OW 6072   3.703   2.037   0.963
 2018SOL    HW1 6073   3.742   1.952   0.927
 2018SOL    HW2 6074   3.605   2.039   0.944
 2019SOL     OW 6075   2.125   2.188   0.720
 2019SOL    HW1 6076   2.046   2.239   0.686
 2019SOL    HW2 6077   2.116   2.173   0.818
 2020SOL     OW 6078   3.056   3.474   0.031
 2020SOL    HW1 6079   3.062   3.381   0.068
 2020SOL    HW2 6080   2.997   3.474  -0.049
 2021SOL     OW 6081   2.684   2.864   1.372
 2021SOL    HW1 6082   2.724   2.863   1.280
 2021SOL    HW2 6083   2.694   2.956   1.412
 2022SOL     OW 6084   2.778   2.772   0.291
 2022SOL    HW1 6085   2.841   2.810   0.223
 2022SOL    HW2 6086   2.818   2.689   0.330
 2023SOL     OW 6087   3.366   3.469   0.044
 2023SOL    HW1 6088   3.274   3.506   0.051
 2023SOL    HW2 6089   3.404   3.489  -0.046
 2024SOL     OW 6090   2.234   3.150   1.490
 2024SOL    HW1 6091   2.221   3.243   1.456
 2024SOL    HW2 6092   2.150   3.098   1.477
 2025SOL     OW 6093   3.476   3.154   1.289
 2025SOL    HW1 6094   3.536   3.157   1.369
 2025SOL    HW2 6095   3.401   3.218   1.302
 2026SOL     OW 6096   2.901   2.960   0.696
 2026SOL    HW1 6097   2.831   2.913   0.750
 2026SOL    HW2 6098   2.960   2.892   0.653
 2027SOL     OW 6099   2.876   2.098   0.971
 2027SOL    HW1 6100   2.868   2.062   0.878
 2027SOL    HW2 6101   2.874   2.022   1.036
 2028SOL     OW 6102   2.452   3.349   0.491
 2028SOL    HW1 6103   2.494   3.291   0.421
 2028SOL    HW2 6104   2.408   3.428   0.447
 2029SOL     OW 6105   3.571   2.247   1.381
 2029SOL    HW1 6106   3.644   2.316   1.385
 2029SOL    HW2 6107   3.599   2.172   1.322
 2030SOL     OW 6108   2.117   3.210   0.290
 2030SOL    HW1 6109   2.021   3.211   0.263
 2030SOL    HW2 6110   2.129   3.263   0.374
 2031SOL     OW 6111   1.967   2.875   1.726
 2031SOL    HW1 6112   1.890   2.842   1.780
 2031SOL    HW2 6113   2.052   2.845   1.768
 2032SOL     OW 6114   2.534   2.065   1.489
 2032SOL    HW1 6115   2.624   2.049   1.449
 2032SOL    HW2 6116   2.542   2.070   1.588
 2033SOL     OW 6117   3.302   2.718   1.398
 2033SOL    HW1 6118   3.245   2.770   1.335
 2033SOL    HW2 6119   3.398   2.730   1.374
 2034SOL     OW 6120   1.934   2.028   0.318
 2034SOL    HW1 6121   1.917   2.111   0.264
 2034SOL    HW2 6122   2.024   1.991   0.296
 2035SOL     OW 6123   3.045   3.197   0.119
 2035SOL    HW1 6124   2.946   3.186   0.121
 2035SOL    HW2 6125   3.079   3.212   0.212
 2036SOL     OW 6126   2.475   2.704   1.431
 2036SOL    HW1 6127   2.531   2.785   1.414
 2036SOL    HW2 6128   2.534   2.624   1.434
 2037SOL     OW 6129   3.355   3.629   0.959
 2037SOL    HW1 6130   3.388   3.693   0.890
 2037SOL    HW2 6131   3.421   3.623   1.034
 2038SOL     OW 6132   2.578   2.427   1.708
 2038SOL    HW1 6133   2.597   2.492   1.782
 2038SOL    HW2 6134   2.638   2.347   1.717
 2039SOL     OW 6135   3.312   3.082   1.633
 2039SOL    HW1 6136   3.303   3.072   1.732
 2039SOL    HW2 6137   3.408   3.075   1.607
 2040SOL     OW 6138   2.252   3.603   1.560
 2040SOL    HW1 6139   2.161   3.644   1.558
 2040SOL    HW2 6140   2.245   3.509   1.592
 2041SOL     OW 6141   3.536   2.745   1.254
 2041SOL    HW1 6142   3.509   2.656   1.217
 2041SOL    HW2 6143   3.537   2.813   1.181
 2042SOL     OW 6144   3.087   2.187   0.449
 2042SOL    HW1 6145   3.152   2.113   0.438
 2042SOL    HW2 6146   3.107   2.237   0.533
 2043SOL     OW 6147   2.456   2.607   0.652
 2043SOL    HW1 6148   2.506   2.692   0.633
 2043SOL    HW2 6149   2.368   2.609   0.604
 2044SOL     OW 6150   3.639   2.204   1.642
 2044SOL    HW1 6151   3.622   2.235   1.548
 2044SOL    HW2 6152   3.555   2.167   1.680
 2045SOL     OW 6153   3.592   2.796   1.517
 2045SOL    HW1 6154   3.630   2.887   1.532
 2045SOL    HW2 6155   3.584   2.779   1.418
 2046SOL     OW 6156   2.721   3.236   0.016
 2046SOL    HW1 6157   2.675   3.251   0.104
 2046SOL    HW2 6158   2.765   3.321  -0.014
 2047SOL     OW 6159   2.523   3.652   0.953
 2047SOL    HW1 6160   2.477   3.740   0.940
 2047SOL    HW2 6161   2.622   3.664   0.946
 2048SOL     OW 6162   2.721   2.818   0.861
 2048SOL    HW1 6163   2.775   2.749   0.909
 2048SOL    HW2 6164   2.689   2.887   0.927
 2049SOL     OW 6165   2.945   2.846   0.087
 2049SOL    HW1 6166   2.922   2.899   0.005
 2049SOL    HW2 6167   3.026   2.790   0.068
 2050SOL     OW 6168   3.723   3.431   0.851
 2050SOL    HW1 6169   3.652   3.419   0.781
 2050SOL    HW2 6170   3.724   3.352   0.911
 2051SOL     OW 6171   2.083   3.176   1.844
 2051SOL    HW1 6172   2.018   3.103   1.823
 2051SOL    HW2 6173   2.087   3.190   1.942
 2052SOL     OW 6174   1.941   3.102   0.653
 2052SOL    HW1 6175   1.940   3.055   0.741
 2052SOL    HW2 6176   2.023   3.074   0.602
 2053SOL     OW 6177   2.534   3.253   1.624
 2053SOL    HW1 6178   2.456   3.203   1.662
 2053SOL    HW2 6179   2.531   3.348   1.655
 2054SOL     OW 6180   3.686   2.054   1.227
 2054SOL    HW1 6181   3.682   1.964   1.271
 2054SOL    HW2 6182   3.689   2.043   1.128
 2055SOL     OW 6183   2.290   2.286   0.520
 2055SOL    HW1 6184   2.320   2.214   0.458
 2055SOL    HW2 6185   2.251   2.246   0.603
 2056SOL     OW 6186   3.567   3.349   1.104
 2056SOL    HW1 6187   3.474   3.324   1.077
 2056SOL    HW2 6188   3.593   3.299   1.186
 2057SOL     OW 6189   2.179   2.409   1.280
 2057SOL    HW1 6190   2.217   2.350   1.352
 2057SOL    HW2 6191   2.219   2.383   1.192
 2058SOL     OW 6192   2.674   3.448   0.687
 2058SOL    HW1 6193   2.706   3.458   0.593
 2058SOL    HW2 6194   2.595   3.386   0.689
 2059SOL     OW 6195   3.286   2.076   1.112
 2059SOL    HW1 6196   3.338   2.011   1.167
 2059SOL    HW2 6197   3.237   2.139   1.173
 2060SOL     OW 6198   2.863   1.896   1.154
 2060SOL    HW1 6199   2.800   1.824   1.123
 2060SOL    HW2 6200   2.956   1.860   1.154
 2061SOL     OW 6201   2.632   3.192   0.301
 2061SOL    HW1 6202   2.586   3.105   0.318
 2061SOL    HW2 6203   2.723   3.189   0.342
 2062SOL     OW 6204   2.480   3.429   1.284
 2062SOL    HW1 6205   2.475   3.511   1.341
 2062SOL    HW2 6206   2.569   3.426   1.239
 2063SOL     OW 6207   3.214   1.914   0.168
 2063SOL    HW1 6208   3.249   1.873   0.084
 2063SOL    HW2 6209   3.124   1.876   0.188
 2064SOL     OW 6210   3.162   2.315   0.691
 2064SOL    HW1 6211   3.103   2.395   0.695
 2064SOL    HW2 6212   3.177   2.280   0.784
 2065SOL     OW 6213   3.455   2.083   0.882
 2065SOL    HW1 6214   3.371   2.082   0.936
 2065SOL    HW2 6215   3.457   2.166   0.826
 2066SOL     OW 6216   1.901   2.939   0.300
 2066SOL    HW1 6217   2.000   2.928   0.291
 2066SOL    HW2 6218   1.861   2.853   0.332
 2067SOL     OW 6219   2.737   3.508   0.337
 2067SOL    HW1 6220   2.660   3.473   0.283
 2067SOL    HW2 6221   2.705   3.579   0.399
 2068SOL     OW 6222   2.087   2.137   2.858
 2068SOL    HW1 6223   2.122   2.120   2.950
 2068SOL    HW2 6224   1.999   2.092   2.846
 2069SOL     OW 6225   1.881   2.230   2.509
 2069SOL    HW1 6226   1.799   2.273   2.548
 2069SOL    HW2 6227   1.853   2.157   2.446
 2070SOL     OW 6228   2.431   3.137   3.027
 2070SOL    HW1 6229   2.338   3.130   2.990
 2070SOL    HW2 6230   2.442   3.226   3.071
 2071SOL     OW 6231   3.417   3.373   2.565
 2071SOL    HW1 6232   3.360   3.357   2.646
 2071SOL    HW2 6233   3.358   3.383   2.485
 2072SOL     OW 6234   2.997   2.565   2.579
 2072SOL    HW1 6235   3.054   2.643   2.554
 2072SOL    HW2 6236   2.937   2.591   2.655
 2073SOL     OW 6237   3.617   2.469   2.093
 2073SOL    HW1 6238   3.605   2.456   1.994
 2073SOL    HW2 6239   3.587   2.388   2.142
 2074SOL     OW 6240   2.630   3.006   2.885
 2074SOL    HW1 6241   2.552   3.023   2.945
 2074SOL    HW2 6242   2.664   3.093   2.849
 2075SOL     OW 6243   2.712   2.660   3.685
 2075SOL    HW1 6244   2.708   2.736   3.750
 2075SOL    HW2 6245   2.734   2.696   3.594
 2076SOL     OW 6246   2.547   2.874   2.527
 2076SOL    HW1 6247   2.616   2.858   2.597
 2076SOL    HW2 6248   2.474   2.931   2.565
 2077SOL     OW 6249   2.548   3.023   3.665
 2077SOL    HW1 6250   2.608   3.102   3.679
 2077SOL    HW2 6251   2.462   3.054   3.624
 2078SOL     OW 6252   2.197   3.297   2.923
 2078SOL    HW1 6253   2.119   3.266   2.870
 2078SOL    HW2 6254   2.255   3.355   2.866
 2079SOL     OW 6255   3.322   3.367   3.201
 2079SOL    HW1 6256   3.346   3.461   3.227
 2079SOL    HW2 6257   3.306   3.313   3.283
 2080SOL     OW 6258   2.300   2.254   3.361
 2080SOL    HW1 6259   2.382   2.198   3.370
 2080SOL    HW2 6260   2.219   2.196   3.365
 2081SOL     OW 6261   3.465   2.309   2.599
 2081SOL    HW1 6262   3.391   2.355   2.549
 2081SOL    HW2 6263   3.516   2.377   2.652
 2082SOL     OW 6264   2.093   3.575   2.345
 2082SOL    HW1 6265   2.127   3.652   2.399
 2082SOL    HW2 6266   2.137   3.575   2.255
 2083SOL     OW 6267   2.989   3.203   3.552
 2083SOL    HW1 6268   3.036   3.203   3.640
 2083SOL    HW2 6269   2.941   3.116   3.541
 2084SOL     OW 6270   2.092   3.296   2.400
 2084SOL    HW1 6271   2.066   3.392   2.400
 2084SOL    HW2 6272   2.021   3.242   2.445
 2085SOL     OW 6273   2.102   2.953   2.748
 2085SOL    HW1 6274   2.116   2.869   2.800
 2085SOL    HW2 6275   2.047   3.017   2.803
 2086SOL     OW 6276   2.482   3.648   3.301
 2086SOL    HW1 6277   2.390   3.631   3.336
 2086SOL    HW2 6278   2.510   3.740   3.327
 2087SOL     OW 6279   2.468   2.826   1.985
 2087SOL    HW1 6280   2.475   2.910   1.931
 2087SOL    HW2 6281   2.514   2.839   2.073
 2088SOL     OW 6282   3.456   1.976   3.342
 2088SOL    HW1 6283   3.438   2.043   3.270
 2088SOL    HW2 6284   3.453   2.022   3.431
 2089SOL     OW 6285   1.984   2.505   2.425
 2089SOL    HW1 6286   1.939   2.417   2.442
 2089SOL    HW2 6287   1.983   2.559   2.509
 2090SOL     OW 6288   3.704   3.629   2.221
 2090SOL    HW1 6289   3.758   3.600   2.301
 2090SOL    HW2 6290   3.734   3.719   2.192
 2091SOL     OW 6291   1.889   3.458   1.979
 2091SOL    HW1 6292   1.870   3.362   2.000
 2091SOL    HW2 6293   1.856   3.516   2.054
 2092SOL     OW 6294   3.551   2.784   2.474
 2092SOL    HW1 6295   3.646   2.755   2.482
 2092SOL    HW2 6296   3.543   2.849   2.399
 2093SOL     OW 6297   3.503   2.970   2.294
 2093SOL    HW1 6298   3.589   2.972   2.242
 2093SOL    HW2 6299   3.517   3.017   2.382
 2094SOL     OW 6300   1.975   2.599   3.459
 2094SOL    HW1 6301   2.063   2.586   3.504
 2094SOL    HW2 6302   1.962   2.696   3.437
 2095SOL     OW 6303   2.475   3.227   2.588
 2095SOL    HW1 6304   2.426   3.140   2.597
 2095SOL    HW2 6305   2.452   3.270   2.501
 2096SOL     OW 6306   3.155   3.090   3.285
 2096SOL    HW1 6307   3.192   3.017   3.227
 2096SOL    HW2 6308   3.207   3.095   3.370
 2097SOL     OW 6309   2.671   1.866   2.364
 2097SOL    HW1 6310   2.711   1.957   2.355
 2097SOL    HW2 6311   2.571   1.874   2.370
 2098SOL     OW 6312   2.059   2.838   3.126
 2098SOL    HW1 6313   2.148   2.793   3.112
 2098SOL    HW2 6314   1.986   2.773   3.107
 2099SOL     OW 6315   3.387   2.861   2.052
 2099SOL    HW1 6316   3.324   2.785   2.065
 2099SOL    HW2 6317   3.435   2.879   2.138
 2100SOL     OW 6318   3.049   3.654   3.478
 2100SOL    HW1 6319   3.073   3.714   3.402
 2100SOL    HW2 6320   3.056   3.559   3.448
 2101SOL     OW 6321   2.179   2.113   3.663
 2101SOL    HW1 6322   2.250   2.184   3.669
 2101SOL    HW2 6323   2.091   2.152   3.691
 2102SOL     OW 6324   3.328   3.279   2.815
 2102SOL    HW1 6325   3.269   3.285   2.895
 2102SOL    HW2 6326   3.313   3.191   2.769
 2103SOL     OW 6327   3.529   3.576   2.434
 2103SOL    HW1 6328   3.488   3.553   2.346
 2103SOL    HW2 6329   3.511   3.502   2.499
 2104SOL     OW 6330   2.460   2.591   2.132
 2104SOL    HW1 6331   2.484   2.660   2.064
 2104SOL    HW2 6332   2.382   2.624   2.186
 2105SOL     OW 6333   3.143   2.207   2.806
 2105SOL    HW1 6334   3.057   2.157   2.793
 2105SOL    HW2 6335   3.205   2.153   2.862
 2106SOL     OW 6336   3.438   3.524   2.169
 2106SOL    HW1 6337   3.527   3.570   2.172
 2106SOL    HW2 6338   3.417   3.500   2.074
 2107SOL     OW 6339   2.669   2.467   3.327
 2107SOL    HW1 6340   2.622   2.464   3.416
 2107SOL    HW2 6341   2.618   2.412   3.261
 2108SOL     OW 6342   3.256   2.331   3.536
 2108SOL    HW1 6343   3.236   2.374   3.624
 2108SOL    HW2 6344   3.334   2.269   3.545
 2109SOL     OW 6345   2.835   2.752   3.434
 2109SOL    HW1 6346   2.881   2.668   3.405
 2109SOL    HW2 6347   2.779   2.786   3.359
 2110SOL     OW 6348   2.853   2.272   3.104
 2110SOL    HW1 6349   2.776   2.306   3.158
 2110SOL    HW2 6350   2.819   2.221   3.025
 2111SOL     OW 6351   2.903   2.563   2.291
 2111SOL    HW1 6352   2.929   2.559   2.387
 2111SOL    HW2 6353   2.818   2.512   2.277
 2112SOL     OW 6354   1.938   2.673   2.651
 2112SOL    HW1 6355   2.037   2.661   2.660
 2112SOL    HW2 6356   1.914   2.768   2.672
 2113SOL     OW 6357   1.992   3.683   3.433
 2113SOL    HW1 6358   1.982   3.668   3.532
 2113SOL    HW2 6359   1.906   3.719   3.397
 2114SOL     OW 6360   2.727   2.210   2.057
 2114SOL    HW1 6361   2.786   2.273   2.008
 2114SOL    HW2 6362   2.746   2.116   2.028
 2115SOL     OW 6363   3.581   2.447   3.693
 2115SOL    HW1 6364   3.555   2.536   3.657
 2115SOL    HW2 6365   3.579   2.379   3.620
 2116SOL     OW 6366   3.224   3.006   2.407
 2116SOL    HW1 6367   3.307   2.977   2.359
 2116SOL    HW2 6368   3.175   3.073   2.351
 2117SOL     OW 6369   2.412   2.058   2.747
 2117SOL    HW1 6370   2.407   2.053   2.847
 2117SOL    HW2 6371   2.414   2.154   2.718
 2118SOL     OW 6372   2.870   3.318   2.339
 2118SOL    HW1 6373   2.824   3.390   2.287
 2118SOL    HW2 6374   2.866   3.338   2.437
 2119SOL     OW 6375   2.213   3.663   2.715
 2119SOL    HW1 6376   2.263   3.577   2.721
 2119SOL    HW2 6377   2.278   3.740   2.712
 2120SOL     OW 6378   3.657   2.928   2.735
 2120SOL    HW1 6379   3.595   2.913   2.659
 2120SOL    HW2 6380   3.605   2.939   2.820
 2121SOL     OW 6381   3.089   3.412   3.368
 2121SOL    HW1 6382   3.095   3.335   3.432
 2121SOL    HW2 6383   3.037   3.386   3.288
 2122SOL     OW 6384   2.183   2.805   2.104
 2122SOL    HW1 6385   2.265   2.844   2.062
 2122SOL    HW2 6386   2.156   2.723   2.055
 2123SOL     OW 6387   3.320   2.597   2.590
 2123SOL    HW1 6388   3.315   2.532   2.665
 2123SOL    HW2 6389   3.400   2.656   2.603
 2124SOL     OW 6390   2.323   3.128   3.589
 2124SOL    HW1 6391   2.273   3.129   3.503
 2124SOL    HW2 6392   2.260   3.110   3.665
 2125SOL     OW 6393   2.973   3.638   2.099
 2125SOL    HW1 6394   2.913   3.576   2.149
 2125SOL    HW2 6395   3.004   3.594   2.014
 2126SOL     OW 6396   2.064   2.147   3.360
 2126SOL    HW1 6397   1.984   2.207   3.347
 2126SOL    HW2 6398   2.054   2.098   3.446
 2127SOL     OW 6399   3.494   3.239   1.943
 2127SOL    HW1 6400   3.462   3.333   1.933
 2127SOL    HW2 6401   3.418   3.176   1.931
 2128SOL     OW 6402   2.326   3.605   2.185
 2128SOL    HW1 6403   2.359   3.644   2.271
 2128SOL    HW2 6404   2.402   3.598   2.120
 2129SOL     OW 6405   3.262   1.969   2.288
 2129SOL    HW1 6406   3.238   1.932   2.198
 2129SOL    HW2 6407   3.361   1.985   2.292
 2130SOL     OW 6408   2.111   3.647   3.103
 2130SOL    HW1 6409   2.168   3.582   3.153
 2130SOL    HW2 6410   2.095   3.614   3.010
 2131SOL     OW 6411   2.802   3.560   2.766
 2131SOL    HW1 6412   2.882   3.503   2.787
 2131SOL    HW2 6413   2.753   3.520   2.689
 2132SOL     OW 6414   3.409   2.084   3.591
 2132SOL    HW1 6415   3.404   2.121   3.683
 2132SOL    HW2 6416   3.337   2.015   3.579
 2133SOL     OW 6417   2.476   1.984   1.979
 2133SOL    HW1 6418   2.574   1.962   1.986
 2133SOL    HW2 6419   2.445   1.967   1.886
 2134SOL     OW 6420   2.643   2.126   3.611
 2134SOL    HW1 6421   2.710   2.065   3.654
 2134SOL    HW2 6422   2.570   2.145   3.676
 2135SOL     OW 6423   2.750   3.376   3.057
 2135SOL    HW1 6424   2.727   3.351   2.963
 2135SOL    HW2 6425   2.811   3.307   3.096
 2136SOL     OW 6426   3.213   2.452   3.295
 2136SOL    HW1 6427   3.241   2.409   3.380
 2136SOL    HW2 6428   3.238   2.548   3.296
 2137SOL     OW 6429   2.665   3.264   2.786
 2137SOL    HW1 6430   2.755   3.278   2.744
 2137SOL    HW2 6431   2.594   3.266   2.715
 2138SOL     OW 6432   2.784   2.365   2.761
 2138SOL    HW1 6433   2.759   2.356   2.665
 2138SOL    HW2 6434   2.832   2.283   2.792
 2139SOL     OW 6435   2.401   1.926   2.374
 2139SOL    HW1 6436   2.320   1.927   2.432
 2139SOL    HW2 6437   2.404   2.009   2.319
 2140SOL     OW 6438   3.296   3.050   1.903
 2140SOL    HW1 6439   3.328   2.974   1.960
 2140SOL    HW2 6440   3.204   3.077   1.933
 2141SOL     OW 6441   2.159   1.897   2.033
 2141SOL    HW1 6442   2.208   1.981   2.012
 2141SOL    HW2 6443   2.221   1.832   2.078
 2142SOL     OW 6444   2.797   2.098   2.342
 2142SOL    HW1 6445   2.749   2.139   2.264
 2142SOL    HW2 6446   2.896   2.096   2.323
 2143SOL     OW 6447   2.938   2.545   3.326
 2143SOL    HW1 6448   2.858   2.484   3.329
 2143SOL    HW2 6449   3.019   2.492   3.302
 2144SOL     OW 6450   3.089   3.432   2.655
 2144SOL    HW1 6451   3.110   3.506   2.590
 2144SOL    HW2 6452   3.157   3.432   2.728
 2145SOL     OW 6453   2.321   3.014   2.603
 2145SOL    HW1 6454   2.250   2.987   2.668
 2145SOL    HW2 6455   2.295   2.986   2.510
 2146SOL     OW 6456   3.133   3.659   2.453
 2146SOL    HW1 6457   3.177   3.723   2.389
 2146SOL    HW2 6458   3.083   3.711   2.523
 2147SOL     OW 6459   2.894   2.411   1.878
 2147SOL    HW1 6460   2.853   2.493   1.839
 2147SOL    HW2 6461   2.958   2.437   1.951
 2148SOL     OW 6462   1.940   2.418   3.248
 2148SOL    HW1 6463   2.032   2.417   3.207
 2148SOL    HW2 6464   1.934   2.492   3.315
 2149SOL     OW 6465   2.423   2.084   3.009
 2149SOL    HW1 6466   2.461   2.000   3.046
 2149SOL    HW2 6467   2.335   2.103   3.053
 2150SOL     OW 6468   2.879   1.901   2.615
 2150SOL    HW1 6469   2.807   1.906   2.546
 2150SOL    HW2 6470   2.855   1.832   2.684
 2151SOL     OW 6471   3.291   3.035   2.729
 2151SOL    HW1 6472   3.236   2.951   2.722
 2151SOL    HW2 6473   3.317   3.064   2.637
 2152SOL     OW 6474   3.328   2.452   2.854
 2152SOL    HW1 6475   3.298   2.357   2.861
 2152SOL    HW2 6476   3.401   2.468   2.920
 2153SOL     OW 6477   3.719   2.695   2.239
 2153SOL    HW1 6478   3.761   2.631   2.303
 2153SOL    HW2 6479   3.681   2.644   2.161
 2154SOL     OW 6480   2.350   3.247   2.036
 2154SOL    HW1 6481   2.263   3.232   2.083
 2154SOL    HW2 6482   2.333   3.273   1.941
 2155SOL     OW 6483   3.526   3.142   2.519
 2155SOL    HW1 6484   3.625   3.150   2.533
 2155SOL    HW2 6485   3.481   3.226   2.550
 2156SOL     OW 6486   3.252   2.437   1.940
 2156SOL    HW1 6487   3.198   2.416   2.021
 2156SOL    HW2 6488   3.343   2.396   1.949
 2157SOL     OW 6489   2.389   2.118   2.190
 2157SOL    HW1 6490   2.416   2.059   2.115
 2157SOL    HW2 6491   2.389   2.213   2.159
 2158SOL     OW 6492   3.616   3.085   3.450
 2158SOL    HW1 6493   3.707   3.046   3.437
 2158SOL    HW2 6494   3.624   3.181   3.474
 2159SOL     OW 6495   2.926   3.209   3.202
 2159SOL    HW1 6496   2.846   3.186   3.257
 2159SOL    HW2 6497   3.009   3.183   3.251
 2160SOL     OW 6498   3.454   3.491   3.487
 2160SOL    HW1 6499   3.481   3.525   3.397
 2160SOL    HW2 6500   3.533   3.453   3.533
 2161SOL     OW 6501   2.973   3.057   2.962
 2161SOL    HW1 6502   2.933   3.101   3.043
 2161SOL    HW2 6503   2.932   3.094   2.879
 2162SOL     OW 6504   3.500   2.961   2.941
 2162SOL    HW1 6505   3.505   3.042   3.000
 2162SOL    HW2 6506   3.414   2.963   2.890
 2163SOL     OW 6507   2.777   1.951   3.264
 2163SOL    HW1 6508   2.802   1.931   3.169
 2163SOL    HW2 6509   2.849   2.007   3.306
 2164SOL     OW 6510   2.842   2.978   3.581
 2164SOL    HW1 6511   2.743   2.984   3.591
 2164SOL    HW2 6512   2.865   2.898   3.525
 2165SOL     OW 6513   2.567   2.912   2.230
 2165SOL    HW1 6514   2.553   2.919   2.329
 2165SOL    HW2 6515   2.651   2.861   2.212
 2166SOL     OW 6516   2.272   2.675   3.113
 2166SOL    HW1 6517   2.358   2.687   3.163
 2166SOL    HW2 6518   2.230   2.588   3.140
 2167SOL     OW 6519   3.136   2.248   3.124
 2167SOL    HW1 6520   3.157   2.322   3.188
 2167SOL    HW2 6521   3.047   2.265   3.081
 2168SOL     OW 6522   1.926   3.426   3.193
 2168SOL    HW1 6523   1.880   3.508   3.159
 2168SOL    HW2 6524   2.024   3.445   3.202
 2169SOL     OW 6525   2.229   2.962   2.363
 2169SOL    HW1 6526   2.222   3.045   2.307
 2169SOL    HW2 6527   2.233   2.882   2.303
 2170SOL     OW 6528   2.428   2.399   2.727
 2170SOL    HW1 6529   2.440   2.465   2.653
 2170SOL    HW2 6530   2.474   2.433   2.810
 2171SOL     OW 6531   3.114   3.210   2.250
 2171SOL    HW1 6532   3.164   3.287   2.290
 2171SOL    HW2 6533   3.019   3.212   2.282
 2172SOL     OW 6534   3.134   3.307   3.004
 2172SOL    HW1 6535   3.181   3.320   3.091
 2172SOL    HW2 6536   3.068   3.233   3.013
 2173SOL     OW 6537   3.444   2.501   2.334
 2173SOL    HW1 6538   3.413   2.562   2.407
 2173SOL    HW2 6539   3.494   2.553   2.265
 2174SOL     OW 6540   2.216   3.372   3.191
 2174SOL    HW1 6541   2.195   3.328   3.104
 2174SOL    HW2 6542   2.313   3.398   3.194
 2175SOL     OW 6543   2.264   2.613   3.460
 2175SOL    HW1 6544   2.332   2.668   3.413
 2175SOL    HW2 6545   2.304   2.525   3.487
 2176SOL     OW 6546   3.449   2.641   3.532
 2176SOL    HW1 6547   3.357   2.679   3.527
 2176SOL    HW2 6548   3.509   2.688   3.467
 2177SOL     OW 6549   2.875   1.967   3.632
 2177SOL    HW1 6550   2.881   2.052   3.580
 2177SOL    HW2 6551   2.907   1.891   3.575
 2178SOL     OW 6552   2.366   1.912   3.602
 2178SOL    HW1 6553   2.324   1.855   3.532
 2178SOL    HW2 6554   2.300   1.981   3.634
 2179SOL     OW 6555   2.435   2.732   2.891
 2179SOL    HW1 6556   2.479   2.821   2.882
 2179SOL    HW2 6557   2.372   2.732   2.968
 2180SOL     OW 6558   3.222   2.724   2.907
 2180SOL    HW1 6559   3.147   2.724   2.841
 2180SOL    HW2 6560   3.259   2.632   2.916
 2181SOL     OW 6561   3.071   2.387   2.137
 2181SOL    HW1 6562   3.084   2.303   2.191
 2181SOL    HW2 6563   3.042   2.461   2.197
 2182SOL     OW 6564   2.169   2.075   3.093
 2182SOL    HW1 6565   2.146   2.112   3.183
 2182SOL    HW2 6566   2.139   1.980   3.087
 2183SOL     OW 6567   1.899   3.172   3.144
 2183SOL    HW1 6568   1.952   3.123   3.212
 2183SOL    HW2 6569   1.921   3.270   3.149
 2184SOL     OW 6570   2.594   2.496   2.926
 2184SOL    HW1 6571   2.653   2.470   2.850
 2184SOL    HW2 6572   2.566   2.592   2.915
 2185SOL     OW 6573   3.590   2.797   3.716
 2185SOL    HW1 6574   3.544   2.790   3.627
 2185SOL    HW2 6575   3.528   2.841   3.782
 2186SOL     OW 6576   2.169   1.925   2.480
 2186SOL    HW1 6577   2.158   2.019   2.513
 2186SOL    HW2 6578   2.164   1.862   2.557
 2187SOL     OW 6579   3.484   2.229   2.236
 2187SOL    HW1 6580   3.486   2.153   2.300
 2187SOL    HW2 6581   3.436   2.306   2.276
 2188SOL     OW 6582   2.885   2.628   2.828
 2188SOL    HW1 6583   2.900   2.649   2.924
 2188SOL    HW2 6584   2.855   2.533   2.819
 2189SOL     OW 6585   2.842   3.435   3.562
 2189SOL    HW1 6586   2.822   3.479   3.474
 2189SOL    HW2 6587   2.881   3.344   3.546
 2190SOL     OW 6588   3.721   3.380   3.467
 2190SOL    HW1 6589   3.735   3.407   3.372
 2190SOL    HW2 6590   3.804   3.402   3.520
 2191SOL     OW 6591   2.212   2.760   3.666
 2191SOL    HW1 6592   2.288   2.804   3.714
 2191SOL    HW2 6593   2.247   2.713   3.584
 2192SOL     OW 6594   3.402   2.136   1.987
 2192SOL    HW1 6595   3.341   2.061   2.010
 2192SOL    HW2 6596   3.424   2.188   2.070
 2193SOL     OW 6597   3.165   2.700   1.904
 2193SOL    HW1 6598   3.199   2.607   1.919
 2193SOL    HW2 6599   3.183   2.727   1.809
 2194SOL     OW 6600   2.930   3.195   2.711
 2194SOL    HW1 6601   2.937   3.111   2.656
 2194SOL    HW2 6602   2.992   3.264   2.675
 2195SOL     OW 6603   2.181   2.672   2.811
 2195SOL    HW1 6604   2.274   2.708   2.816
 2195SOL    HW2 6605   2.175   2.587   2.863
 2196SOL     OW 6606   2.201   2.371   2.868
 2196SOL    HW1 6607   2.149   2.288   2.851
 2196SOL    HW2 6608   2.278   2.376   2.804
 2197SOL     OW 6609   3.000   2.242   3.540
 2197SOL    HW1 6610   2.955   2.305   3.604
 2197SOL    HW2 6611   3.093   2.273   3.523
 2198SOL     OW 6612   3.022   2.069   3.339
 2198SOL    HW1 6613   3.022   2.133   3.416
 2198SOL    HW2 6614   3.050   2.117   3.256
 2199SOL     OW 6615   1.870   3.188   2.062
 2199SOL    HW1 6616   1.777   3.209   2.031
 2199SOL    HW2 6617   1.880   3.089   2.075
 2200SOL     OW 6618   1.950   3.663   2.789
 2200SOL    HW1 6619   1.908   3.577   2.762
 2200SOL    HW2 6620   2.044   3.666   2.755
 2201SOL     OW 6621   2.366   3.430   2.772
 2201SOL    HW1 6622   2.432   3.504   2.781
 2201SOL    HW2 6623   2.410   3.351   2.730
 2202SOL     OW 6624   2.864   2.658   3.100
 2202SOL    HW1 6625   2.905   2.626   3.186
 2202SOL    HW2 6626   2.768   2.631   3.097
 2203SOL     OW 6627   1.902   2.406   2.976
 2203SOL    HW1 6628   1.987   2.373   2.935
 2203SOL    HW2 6629   1.915   2.421   3.074
 2204SOL     OW 6630   2.051   2.382   3.584
 2204SOL    HW1 6631   2.110   2.342   3.514
 2204SOL    HW2 6632   1.993   2.453   3.543
 2205SOL     OW 6633   3.231   2.812   3.522
 2205SOL    HW1 6634   3.270   2.901   3.542
 2205SOL    HW2 6635   3.241   2.792   3.425
 2206SOL     OW 6636   3.519   2.466   3.068
 2206SOL    HW1 6637   3.481   2.397   3.130
 2206SOL    HW2 6638   3.601   2.430   3.024
 2207SOL     OW 6639   2.114   3.426   3.606
 2207SOL    HW1 6640   2.084   3.483   3.682
 2207SOL    HW2 6641   2.107   3.329   3.632
 2208SOL     OW 6642   2.533   2.326   3.131
 2208SOL    HW1 6643   2.499   2.237   3.101
 2208SOL    HW2 6644   2.559   2.380   3.051
 2209SOL     OW 6645   2.792   3.540   3.327
 2209SOL    HW1 6646   2.768   3.522   3.232
 2209SOL    HW2 6647   2.822   3.634   3.337
 2210SOL     OW 6648   2.021   2.999   3.328
 2210SOL    HW1 6649   2.043   2.938   3.404
 2210SOL    HW2 6650   2.031   2.950   3.242
 2211SOL     OW 6651   3.209   2.921   3.096
 2211SOL    HW1 6652   3.233   2.858   3.022
 2211SOL    HW2 6653   3.119   2.961   3.078
 2212SOL     OW 6654   3.164   2.717   2.171
 2212SOL    HW1 6655   3.078   2.686   2.213
 2212SOL    HW2 6656   3.160   2.703   2.072
 2213SOL     OW 6657   3.621   3.609   3.016
 2213SOL    HW1 6658   3.682   3.639   2.943
 2213SOL    HW2 6659   3.583   3.520   2.994
 2214SOL     OW 6660   3.114   3.593   2.990
 2214SOL    HW1 6661   3.198   3.598   2.936
 2214SOL    HW2 6662   3.091   3.497   3.008
 2215SOL     OW 6663   1.945   3.120   2.884
 2215SOL    HW1 6664   1.940   3.119   2.984
 2215SOL    HW2 6665   1.862   3.079   2.846
 2216SOL     OW 6666   2.550   3.524   3.578
 2216SOL    HW1 6667   2.494   3.605   3.587
 2216SOL    HW2 6668   2.602   3.528   3.492
 2217SOL     OW 6669   3.588   1.997   2.385
 2217SOL    HW1 6670   3.661   1.980   2.318
 2217SOL    HW2 6671   3.557   1.910   2.423
 2218SOL     OW 6672   3.250   3.435   2.339
 2218SOL    HW1 6673   3.317   3.447   2.265
 2218SOL    HW2 6674   3.210   3.524   2.362
 2219SOL     OW 6675   1.992   3.656   3.713
 2219SOL    HW1 6676   1.951   3.582   3.766
 2219SOL    HW2 6677   2.056   3.707   3.771
 2220SOL     OW 6678   3.142   2.789   2.534
 2220SOL    HW1 6679   3.202   2.708   2.536
 2220SOL    HW2 6680   3.182   2.858   2.474
 2221SOL     OW 6681   2.692   3.135   3.284
 2221SOL    HW1 6682   2.687   3.168   3.379
 2221SOL    HW2 6683   2.606   3.154   3.238
 2222SOL     OW 6684   2.534   3.478   2.016
 2222SOL    HW1 6685   2.543   3.488   1.917
 2222SOL    HW2 6686   2.494   3.389   2.037
 2223SOL     OW 6687   3.512   3.582   3.256
 2223SOL    HW1 6688   3.565   3.592   3.172
 2223SOL    HW2 6689   3.485   3.672   3.290
 2224SOL     OW 6690   3.703   2.037   2.825
 2224SOL    HW1 6691   3.742   1.952   2.789
 2224SOL    HW2 6692   3.605   2.039   2.806
 2225SOL     OW 6693   2.125   2.188   2.582
 2225SOL    HW1 6694   2.046   2.239   2.548
 2225SOL    HW2 6695   2.116   2.173   2.680
 2226SOL     OW 6696   3.056   3.474   1.893
 2226SOL    HW1 6697   3.062   3.381   1.930
 2226SOL    HW2 6698   2.997   3.474   1.813
 2227SOL     OW 6699   2.684   2.864   3.234
 2227SOL    HW1 6700   2.724   2.863   3.142
 2227SOL    HW2 6701   2.694   2.956   3.274
 2228SOL     OW 6702   2.778   2.772   2.153
 2228SOL    HW1 6703   2.841   2.810   2.085
 2228SOL    HW2 6704   2.818   2.689   2.192
 2229SOL     OW 6705   3.366   3.469   1.906
 2229SOL    HW1 6706   3.274   3.506   1.913
 2229SOL    HW2 6707   3.404   3.489   1.816
 2230SOL     OW 6708   2.234   3.150   3.352
 2230SOL    HW1 6709   2.221   3.243   3.318
 2230SOL    HW2 6710   2.150   3.098   3.339
 2231SOL     OW 6711   3.476   3.154   3.151
 2231SOL    HW1 6712   3.536   3.157   3.231
 2231SOL    HW2 6713   3.401   3.218   3.164
 2232SOL     OW 6714   2.901   2.960   2.558
 2232SOL    HW1 6715   2.831   2.913   2.612
 2232SOL    HW2 6716   2.960   2.892   2.515
 2233SOL     OW 6717   2.876   2.098   2.833
 2233SOL    HW1 6718   2.868   2.062   2.740
 2233SOL    HW2 6719   2.874   2.022   2.898
 2234SOL     OW 6720   2.452   3.349   2.353
 2234SOL    HW1 6721   2.494   3.291   2.283
 2234SOL    HW2 6722   2.408   3.428   2.309
 2235SOL     OW 6723   3.571   2.247   3.243
 2235SOL    HW1 6724   3.644   2.316   3.247
 2235SOL    HW2 6725   3.599   2.172   3.184
 2236SOL     OW 6726   2.117   3.210   2.152
 2236SOL    HW1 6727   2.021   3.211   2.125
 2236SOL    HW2 6728   2.129   3.263   2.236
 2237SOL     OW 6729   1.967   2.875   3.588
 2237SOL    HW1 6730   1.890   2.842   3.642
 2237SOL    HW2 6731   2.052   2.845   3.630
 2238SOL     OW 6732   2.534   2.065   3.351
 2238SOL    HW1 6733   2.624   2.049   3.311
 2238SOL    HW2 6734   2.542   2.070   3.450
 2239SOL     OW 6735   1.937   2.207   1.895
 2239SOL    HW1 6736   1.845   2.179   1.866
 2239SOL    HW2 6737   1.968   2.284   1.839
 2240SOL     OW 6738   3.302   2.718   3.260
 2240SOL    HW1 6739   3.245   2.770   3.197
 2240SOL    HW2 6740   3.398   2.730   3.236
 2241SOL     OW 6741   1.934   2.028   2.180
 2241SOL    HW1 6742   1.917   2.111   2.126
 2241SOL    HW2 6743   2.024   1.991   2.158
 2242SOL     OW 6744   3.045   3.197   1.981
 2242SOL    HW1 6745   2.946   3.186   1.983
 2242SOL    HW2 6746   3.079   3.212   2.074
 2243SOL     OW 6747   2.475   2.704   3.293
 2243SOL    HW1 6748   2.531   2.785   3.276
 2243SOL    HW2 6749   2.534   2.624   3.296
 2244SOL     OW 6750   3.355   3.629   2.821
 2244SOL    HW1 6751   3.388   3.693   2.752
 2244SOL    HW2 6752   3.421   3.623   2.896
 2245SOL     OW 6753   2.578   2.427   3.570
 2245SOL    HW1 6754   2.597   2.492   3.644
 2245SOL    HW2 6755   2.638   2.347   3.579
 2246SOL     OW 6756   3.312   3.082   3.495
 2246SOL    HW1 6757   3.303   3.072   3.594
 2246SOL    HW2 6758   3.408   3.075   3.469
 2247SOL     OW 6759   2.252   3.603   3.422
 2247SOL    HW1 6760   2.161   3.644   3.420
 2247SOL    HW2 6761   2.245   3.509   3.454
 2248SOL     OW 6762   3.536   2.745   3.116
 2248SOL    HW1 6763   3.509   2.656   3.079
 2248SOL    HW2 6764   3.537   2.813   3.043
 2249SOL     OW 6765   3.087   2.187   2.311
 2249SOL    HW1 6766   3.152   2.113   2.300
 2249SOL    HW2 6767   3.107   2.237   2.395
 2250SOL     OW 6768   3.639   2.204   3.504
 2250SOL    HW1 6769   3.622   2.235   3.410
 2250SOL    HW2 6770   3.555   2.167   3.542
 2251SOL     OW 6771   3.592   2.796   3.379
 2251SOL    HW1 6772   3.630   2.887   3.394
 2251SOL    HW2 6773   3.584   2.779   3.280
 2252SOL     OW 6774   2.721   3.236   1.878
 2252SOL    HW1 6775   2.675   3.251   1.966
 2252SOL    HW2 6776   2.765   3.321   1.848
 2253SOL     OW 6777   2.523   3.652   2.815
 2253SOL    HW1 6778   2.477   3.740   2.802
 2253SOL    HW2 6779   2.622   3.664   2.808
 2254SOL     OW 6780   2.721   2.818   2.723
 2254SOL    HW1 6781   2.775   2.749   2.771
 2254SOL    HW2 6782   2.689   2.887   2.789
 2255SOL     OW 6783   2.945   2.846   1.949
 2255SOL    HW1 6784   2.922   2.899   1.867
 2255SOL    HW2 6785   3.026   2.790   1.930
 2256SOL     OW 6786   3.723   3.431   2.713
 2256SOL    HW1 6787   3.652   3.419   2.643
 2256SOL    HW2 6788   3.724   3.352   2.773
 2257SOL     OW 6789   2.083   3.176   3.706
 2257SOL    HW1 6790   2.018   3.103   3.685
 2257SOL    HW2 6791   2.087   3.190   3.804
 2258SOL     OW 6792   1.941   3.102   2.515
 2258SOL    HW1 6793   1.940   3.055   2.603
 2258SOL    HW2 6794   2.023   3.074   2.464
 2259SOL     OW 6795   2.534   3.253   3.486
 2259SOL    HW1 6796   2.456   3.203   3.524
 2259SOL    HW2 6797   2.531   3.348   3.517
 2260SOL     OW 6798   3.686   2.054   3.089
 2260SOL    HW1 6799   3.682   1.964   3.133
 2260SOL    HW2 6800   3.689   2.043   2.990
 2261SOL     OW 6801   3.567   3.349   2.966
 2261SOL    HW1 6802   3.474   3.324   2.939
 2261SOL    HW2 6803   3.593   3.299   3.048
 2262SOL     OW 6804   2.179   2.409   3.142
 2262SOL    HW1 6805   2.217   2.350   3.214
 2262SOL    HW2 6806   2.219   2.383   3.054
 2263SOL     OW 6807   2.674   3.448   2.549
 2263SOL    HW1 6808   2.706   3.458   2.455
 2263SOL    HW2 6809   2.595   3.386   2.551
 2264SOL     OW 6810   3.286   2.076   2.974
 2264SOL    HW1 6811   3.338   2.011   3.029
 2264SOL    HW2 6812   3.237   2.139   3.035
 2265SOL     OW 6813   2.863   1.896   3.016
 2265SOL    HW1 6814   2.800   1.824   2.985
 2265SOL    HW2 6815   2.956   1.860   3.016
 2266SOL     OW 6816   2.632   3.192   2.163
 2266SOL    HW1 6817   2.586   3.105   2.180
 2266SOL    HW2 6818   2.723   3.189   2.204
 2267SOL     OW 6819   2.480   3.429   3.146
 2267SOL    HW1 6820   2.475   3.511   3.203
 2267SOL    HW2 6821   2.569   3.426   3.101
 2268SOL     OW 6822   3.214   1.914   2.030
 2268SOL    HW1 6823   3.249   1.873   1.946
 2268SOL    HW2 6824   3.124   1.876   2.050
 2269SOL     OW 6825   3.162   2.315   2.553
 2269SOL    HW1 6826   3.103   2.395   2.557
 2269SOL    HW2 6827   3.177   2.280   2.646
 2270SOL     OW 6828   3.455   2.083   2.744
 2270SOL    HW1 6829   3.371   2.082   2.798
 2270SOL    HW2 6830   3.457   2.166   2.688
 2271SOL     OW 6831   1.901   2.939   2.162
 2271SOL    HW1 6832   2.000   2.928   2.153
 2271SOL    HW2 6833   1.861   2.853   2.194
 2272SOL     OW 6834   2.737   3.508   2.199
 2272SOL    HW1 6835   2.660   3.473   2.145
 2272SOL    HW2 6836   2.705   3.579   2.261
 2273SOL     OW 6837   2.092   2.490   3.837
 2273SOL    HW1 6838   1.999   2.488   3.874
 2273SOL    HW2 6839   2.093   2.451   3.745
 2274SOL     OW 6840   2.087   2.137   4.720
 2274SOL    HW1 6841   2.122   2.120   4.812
 2274SOL    HW2 6842   1.999   2.092   4.708
 2275SOL     OW 6843   1.881   2.230   4.371
 2275SOL    HW1 6844   1.799   2.273   4.410
 2275SOL    HW2 6845   1.853   2.157   4.308
 2276SOL     OW 6846   3.417   3.373   4.427
 2276SOL    HW1 6847   3.360   3.357   4.508
 2276SOL    HW2 6848   3.358   3.383   4.347
 2277SOL     OW 6849   2.997   2.565   4.441
 2277SOL    HW1 6850   3.054   2.643   4.416
 2277SOL    HW2 6851   2.937   2.591   4.517
 2278SOL     OW 6852   3.617   2.469   3.955
 2278SOL    HW1 6853   3.605   2.456   3.856
 2278SOL    HW2 6854   3.587   2.388   4.004
 2279SOL     OW 6855   2.547   2.874   4.389
 2279SOL    HW1 6856   2.616   2.858   4.459
 2279SOL    HW2 6857   2.474   2.931   4.427
 2280SOL     OW 6858   3.465   2.309   4.461
 2280SOL    HW1 6859   3.391   2.355   4.411
 2280SOL    HW2 6860   3.516   2.377   4.514
 2281SOL     OW 6861   2.093   3.575   4.207
 2281SOL    HW1 6862   2.127   3.652   4.261
 2281SOL    HW2 6863   2.137   3.575   4.117
 2282SOL     OW 6864   2.092   3.296   4.262
 2282SOL    HW1 6865   2.066   3.392   4.262
 2282SOL    HW2 6866   2.021   3.242   4.307
 2283SOL     OW 6867   2.102   2.953   4.610
 2283SOL    HW1 6868   2.116   2.869   4.662
 2283SOL    HW2 6869   2.047   3.017   4.665
 2284SOL     OW 6870   2.468   2.826   3.847
 2284SOL    HW1 6871   2.475   2.910   3.793
 2284SOL    HW2 6872   2.514   2.839   3.935
 2285SOL     OW 6873   1.984   2.505   4.287
 2285SOL    HW1 6874   1.939   2.417   4.304
 2285SOL    HW2 6875   1.983   2.559   4.371
 2286SOL     OW 6876   3.704   3.629   4.083
 2286SOL    HW1 6877   3.758   3.600   4.163
 2286SOL    HW2 6878   3.734   3.719   4.054
 2287SOL     OW 6879   1.889   3.458   3.841
 2287SOL    HW1 6880   1.870   3.362   3.862
 2287SOL    HW2 6881   1.856   3.516   3.916
 2288SOL     OW 6882   3.551   2.784   4.336
 2288SOL    HW1 6883   3.646   2.755   4.344
 2288SOL    HW2 6884   3.543   2.849   4.261
 2289SOL     OW 6885   3.503   2.970   4.156
 2289SOL    HW1 6886   3.589   2.972   4.104
 2289SOL    HW2 6887   3.517   3.017   4.244
 2290SOL     OW 6888   2.475   3.227   4.450
 2290SOL    HW1 6889   2.426   3.140   4.459
 2290SOL    HW2 6890   2.452   3.270   4.363
 2291SOL     OW 6891   2.671   1.866   4.226
 2291SOL    HW1 6892   2.711   1.957   4.217
 2291SOL    HW2 6893   2.571   1.874   4.232
 2292SOL     OW 6894   3.387   2.861   3.914
 2292SOL    HW1 6895   3.324   2.785   3.927
 2292SOL    HW2 6896   3.435   2.879   4.000
 2293SOL     OW 6897   3.328   3.279   4.677
 2293SOL    HW1 6898   3.269   3.285   4.757
 2293SOL    HW2 6899   3.313   3.191   4.631
 2294SOL     OW 6900   3.529   3.576   4.296
 2294SOL    HW1 6901   3.488   3.553   4.208
 2294SOL    HW2 6902   3.511   3.502   4.361
 2295SOL     OW 6903   2.460   2.591   3.994
 2295SOL    HW1 6904   2.484   2.660   3.926
 2295SOL    HW2 6905   2.382   2.624   4.048
 2296SOL     OW 6906   3.143   2.207   4.668
 2296SOL    HW1 6907   3.057   2.157   4.655
 2296SOL    HW2 6908   3.205   2.153   4.724
 2297SOL     OW 6909   3.438   3.524   4.031
 2297SOL    HW1 6910   3.527   3.570   4.034
 2297SOL    HW2 6911   3.417   3.500   3.936
 2298SOL     OW 6912   2.903   2.563   4.153
 2298SOL    HW1 6913   2.929   2.559   4.249
 2298SOL    HW2 6914   2.818   2.512   4.139
 2299SOL     OW 6915   1.938   2.673   4.513
 2299SOL    HW1 6916   2.037   2.661   4.522
 2299SOL    HW2 6917   1.914   2.768   4.534
 2300SOL     OW 6918   2.727   2.210   3.919
 2300SOL    HW1 6919   2.786   2.273   3.870
 2300SOL    HW2 6920   2.746   2.116   3.890
 2301SOL     OW 6921   3.224   3.006   4.269
 2301SOL    HW1 6922   3.307   2.977   4.221
 2301SOL    HW2 6923   3.175   3.073   4.213
 2302SOL     OW 6924   2.412   2.058   4.609
 2302SOL    HW1 6925   2.407   2.053   4.709
 2302SOL    HW2 6926   2.414   2.154   4.580
 2303SOL     OW 6927   2.870   3.318   4.201
 2303SOL    HW1 6928   2.824   3.390   4.149
 2303SOL    HW2 6929   2.866   3.338   4.299
 2304SOL     OW 6930   2.213   3.663   4.577
 2304SOL    HW1 6931   2.263   3.577   4.583
 2304SOL    HW2 6932   2.278   3.740   4.574
 2305SOL     OW 6933   3.657   2.928   4.597
 2305SOL    HW1 6934   3.595   2.913   4.521
 2305SOL    HW2 6935   3.605   2.939   4.682
 2306SOL     OW 6936   2.183   2.805   3.966
 2306SOL    HW1 6937   2.265   2.844   3.924
 2306SOL    HW2 6938   2.156   2.723   3.917
 2307SOL     OW 6939   3.320   2.597   4.452
 2307SOL    HW1 6940   3.315   2.532   4.527
 2307SOL    HW2 6941   3.400   2.656   4.465
 2308SOL     OW 6942   2.973   3.638   3.961
 2308SOL    HW1 6943   2.913   3.576   4.011
 2308SOL    HW2 6944   3.004   3.594   3.876
 2309SOL     OW 6945   3.494   3.239   3.805
 2309SOL    HW1 6946   3.462   3.333   3.795
 2309SOL    HW2 6947   3.418   3.176   3.793
 2310SOL     OW 6948   2.326   3.605   4.047
 2310SOL    HW1 6949   2.359   3.644   4.133
 2310SOL    HW2 6950   2.402   3.598   3.982
 2311SOL     OW 6951   3.262   1.969   4.150
 2311SOL    HW1 6952   3.238   1.932   4.060
 2311SOL    HW2 6953   3.361   1.985   4.154
 2312SOL     OW 6954   2.244   2.562   4.204
 2312SOL    HW1 6955   2.289   2.472   4.201
 2312SOL    HW2 6956   2.150   2.551   4.237
 2313SOL     OW 6957   2.476   1.984   3.841
 2313SOL    HW1 6958   2.574   1.962   3.848
 2313SOL    HW2 6959   2.445   1.967   3.748
 2314SOL     OW 6960   2.401   1.926   4.236
 2314SOL    HW1 6961   2.320   1.927   4.294
 2314SOL    HW2 6962   2.404   2.009   4.181
 2315SOL     OW 6963   3.296   3.050   3.765
 2315SOL    HW1 6964   3.328   2.974   3.822
 2315SOL    HW2 6965   3.204   3.077   3.795
 2316SOL     OW 6966   2.159   1.897   3.895
 2316SOL    HW1 6967   2.208   1.981   3.874
 2316SOL    HW2 6968   2.221   1.832   3.940
 2317SOL     OW 6969   2.797   2.098   4.204
 2317SOL    HW1 6970   2.749   2.139   4.126
 2317SOL    HW2 6971   2.896   2.096   4.185
 2318SOL     OW 6972   3.089   3.432   4.517
 2318SOL    HW1 6973   3.110   3.506   4.452
 2318SOL    HW2 6974   3.157   3.432   4.590
 2319SOL     OW 6975   2.321   3.014   4.465
 2319SOL    HW1 6976   2.250   2.987   4.530
 2319SOL    HW2 6977   2.295   2.986   4.372
 2320SOL     OW 6978   3.133   3.659   4.315
 2320SOL    HW1 6979   3.177   3.723   4.251
 2320SOL    HW2 6980   3.083   3.711   4.385
 2321SOL     OW 6981   2.894   2.411   3.740
 2321SOL    HW1 6982   2.853   2.493   3.701
 2321SOL    HW2 6983   2.958   2.437   3.813
 2322SOL     OW 6984   2.728   2.316   4.366
 2322SOL    HW1 6985   2.696   2.388   4.304
 2322SOL    HW2 6986   2.752   2.235   4.313
 2323SOL     OW 6987   2.879   1.901   4.477
 2323SOL    HW1 6988   2.807   1.906   4.408
 2323SOL    HW2 6989   2.855   1.832   4.546
 2324SOL     OW 6990   3.719   2.695   4.101
 2324SOL    HW1 6991   3.761   2.631   4.165
 2324SOL    HW2 6992   3.681   2.644   4.023
 2325SOL     OW 6993   2.350   3.247   3.898
 2325SOL    HW1 6994   2.263   3.232   3.945
 2325SOL    HW2 6995   2.333   3.273   3.803
 2326SOL     OW 6996   3.526   3.142   4.381
 2326SOL    HW1 6997   3.625   3.150   4.395
 2326SOL    HW2 6998   3.481   3.226   4.412
 2327SOL     OW 6999   3.252   2.437   3.802
 2327SOL    HW1 7000   3.198   2.416   3.883
 2327SOL    HW2 7001   3.343   2.396   3.811
 2328SOL     OW 7002   2.389   2.118   4.052
 2328SOL    HW1 7003   2.416   2.059   3.977
 2328SOL    HW2 7004   2.389   2.213   4.021
 2329SOL     OW 7005   2.567   2.912   4.092
 2329SOL    HW1 7006   2.553   2.919   4.191
 2329SOL    HW2 7007   2.651   2.861   4.074
 2330SOL     OW 7008   2.229   2.962   4.225
 2330SOL    HW1 7009   2.222   3.045   4.169
 2330SOL    HW2 7010   2.233   2.882   4.165
 2331SOL     OW 7011   2.428   2.399   4.589
 2331SOL    HW1 7012   2.440   2.465   4.515
 2331SOL    HW2 7013   2.474   2.433   4.672
 2332SOL     OW 7014   3.114   3.210   4.112
 2332SOL    HW1 7015   3.164   3.287   4.152
 2332SOL    HW2 7016   3.019   3.212   4.144
 2333SOL     OW 7017   3.444   2.501   4.196
 2333SOL    HW1 7018   3.413   2.562   4.269
 2333SOL    HW2 7019   3.494   2.553   4.127
 2334SOL     OW 7020   3.071   2.387   3.999
 2334SOL    HW1 7021   3.084   2.303   4.053
 2334SOL    HW2 7022   3.042   2.461   4.059
 2335SOL     OW 7023   2.594   2.496   4.788
 2335SOL    HW1 7024   2.653   2.470   4.712
 2335SOL    HW2 7025   2.566   2.592   4.777
 2336SOL     OW 7026   2.169   1.925   4.342
 2336SOL    HW1 7027   2.158   2.019   4.375
 2336SOL    HW2 7028   2.164   1.862   4.419
 2337SOL     OW 7029   3.484   2.229   4.098
 2337SOL    HW1 7030   3.486   2.153   4.162
 2337SOL    HW2 7031   3.436   2.306   4.138
 2338SOL     OW 7032   3.402   2.136   3.849
 2338SOL    HW1 7033   3.341   2.061   3.872
 2338SOL    HW2 7034   3.424   2.188   3.932
 2339SOL     OW 7035   3.165   2.700   3.766
 2339SOL    HW1 7036   3.199   2.607   3.781
 2339SOL    HW2 7037   3.183   2.727   3.671
 2340SOL     OW 7038   2.930   3.195   4.573
 2340SOL    HW1 7039   2.937   3.111   4.518
 2340SOL    HW2 7040   2.992   3.264   4.537
 2341SOL     OW 7041   1.870   3.188   3.924
 2341SOL    HW1 7042   1.777   3.209   3.893
 2341SOL    HW2 7043   1.880   3.089   3.937
 2342SOL     OW 7044   1.950   3.663   4.651
 2342SOL    HW1 7045   1.908   3.577   4.624
 2342SOL    HW2 7046   2.044   3.666   4.617
 2343SOL     OW 7047   2.366   3.430   4.634
 2343SOL    HW1 7048   2.432   3.504   4.643
 2343SOL    HW2 7049   2.410   3.351   4.592
 2344SOL     OW 7050   2.677   2.434   4.049
 2344SOL    HW1 7051   2.684   2.345   4.003
 2344SOL    HW2 7052   2.583   2.468   4.041
 2345SOL     OW 7053   2.335   2.362   3.915
 2345SOL    HW1 7054   2.396   2.442   3.919
 2345SOL    HW2 7055   2.240   2.393   3.922
 2346SOL     OW 7056   3.164   2.717   4.033
 2346SOL    HW1 7057   3.078   2.686   4.075
 2346SOL    HW2 7058   3.160   2.703   3.934
 2347SOL     OW 7059   3.621   3.609   4.878
 2347SOL    HW1 7060   3.682   3.639   4.805
 2347SOL    HW2 7061   3.583   3.520   4.856
 2348SOL     OW 7062   3.588   1.997   4.247
 2348SOL    HW1 7063   3.661   1.980   4.180
 2348SOL    HW2 7064   3.557   1.910   4.285
 2349SOL     OW 7065   3.250   3.435   4.201
 2349SOL    HW1 7066   3.317   3.447   4.127
 2349SOL    HW2 7067   3.210   3.524   4.224
 2350SOL     OW 7068   3.142   2.789   4.396
 2350SOL    HW1 7069   3.202   2.708   4.398
 2350SOL    HW2 7070   3.182   2.858   4.336
 2351SOL     OW 7071   2.534   3.478   3.878
 2351SOL    HW1 7072   2.543   3.488   3.779
 2351SOL    HW2 7073   2.494   3.389   3.899
 2352SOL     OW 7074   3.703   2.037   4.687
 2352SOL    HW1 7075   3.742   1.952   4.651
 2352SOL    HW2 7076   3.605   2.039   4.668
 2353SOL     OW 7077   2.125   2.188   4.444
 2353SOL    HW1 7078   2.046   2.239   4.410
 2353SOL    HW2 7079   2.116   2.173   4.542
 2354SOL     OW 7080   3.056   3.474   3.755
 2354SOL    HW1 7081   3.062   3.381   3.792
 2354SOL    HW2 7082   2.997   3.474   3.675
 2355SOL     OW 7083   2.778   2.772   4.015
 2355SOL    HW1 7084   2.841   2.810   3.947
 2355SOL    HW2 7085   2.818   2.689   4.054
 2356SOL     OW 7086   3.366   3.469   3.768
 2356SOL    HW1 7087   3.274   3.506   3.775
 2356SOL    HW2 7088   3.404   3.489   3.678
 2357SOL     OW 7089   2.901   2.960   4.420
 2357SOL    HW1 7090   2.831   2.913   4.474
 2357SOL    HW2 7091   2.960   2.892   4.377
 2358SOL     OW 7092   2.452   3.349   4.215
 2358SOL    HW1 7093   2.494   3.291   4.145
 2358SOL    HW2 7094   2.408   3.428   4.171
 2359SOL     OW 7095   2.117   3.210   4.014
 2359SOL    HW1 7096   2.021   3.211   3.987
 2359SOL    HW2 7097   2.129   3.263   4.098
 2360SOL     OW 7098   1.937   2.207   3.757
 2360SOL    HW1 7099   1.845   2.179   3.728
 2360SOL    HW2 7100   1.968   2.284   3.701
 2361SOL     OW 7101   1.934   2.028   4.042
 2361SOL    HW1 7102   1.917   2.111   3.988
 2361SOL    HW2 7103   2.024   1.991   4.020
 2362SOL     OW 7104   3.045   3.197   3.843
 2362SOL    HW1 7105   2.946   3.186   3.845
 2362SOL    HW2 7106   3.079   3.212   3.936
 2363SOL     OW 7107   3.087   2.187   4.173
 2363SOL    HW1 7108   3.152   2.113   4.162
 2363SOL    HW2 7109   3.107   2.237   4.257
 2364SOL     OW 7110   2.456   2.607   4.376
 2364SOL    HW1 7111   2.506   2.692   4.357
 2364SOL    HW2 7112   2.368   2.609   4.328
 2365SOL     OW 7113   2.721   3.236   3.740
 2365SOL    HW1 7114   2.675   3.251   3.828
 2365SOL    HW2 7115   2.765   3.321   3.710
 2366SOL     OW 7116   2.523   3.652   4.677
 2366SOL    HW1 7117   2.477   3.740   4.664
 2366SOL    HW2 7118   2.622   3.664   4.670
 2367SOL     OW 7119   2.721   2.818   4.585
 2367SOL    HW1 7120   2.775   2.749   4.633
 2367SOL    HW2 7121   2.689   2.887   4.651
 2368SOL     OW 7122   2.945   2.846   3.811
 2368SOL    HW1 7123   2.922   2.899   3.729
 2368SOL    HW2 7124   3.026   2.790   3.792
 2369SOL     OW 7125   3.723   3.431   4.575
 2369SOL    HW1 7126   3.652   3.419   4.505
 2369SOL    HW2 7127   3.724   3.352   4.635
 2370SOL     OW 7128   1.941   3.102   4.377
 2370SOL    HW1 7129   1.940   3.055   4.465
 2370SOL    HW2 7130   2.023   3.074   4.326
 2371SOL     OW 7131   2.290   2.286   4.244
 2371SOL    HW1 7132   2.320   2.214   4.182
 2371SOL    HW2 7133   2.251   2.246   4.327
 2372SOL     OW 7134   2.674   3.448   4.411
 2372SOL    HW1 7135   2.706   3.458   4.317
 2372SOL    HW2 7136   2.595   3.386   4.413
 2373SOL     OW 7137   2.632   3.192   4.025
 2373SOL    HW1 7138   2.586   3.105   4.042
 2373SOL    HW2 7139   2.723   3.189   4.066
 2374SOL     OW 7140   3.214   1.914   3.892
 2374SOL    HW1 7141   3.249   1.873   3.808
 2374SOL    HW2 7142   3.124   1.876   3.912
 2375SOL     OW 7143   3.162   2.315   4.415
 2375SOL    HW1 7144   3.103   2.395   4.419
 2375SOL    HW2 7145   3.177   2.280   4.508
 2376SOL     OW 7146   3.455   2.083   4.606
 2376SOL    HW1 7147   3.371   2.082   4.660
 2376SOL    HW2 7148   3.457   2.166   4.550
 2377SOL     OW 7149   1.901   2.939   4.024
 2377SOL    HW1 7150   2.000   2.928   4.015
 2377SOL    HW2 7151   1.861   2.853   4.056
 2378SOL     OW 7152   2.737   3.508   4.061
 2378SOL    HW1 7153   2.660   3.473   4.007
 2378SOL    HW2 7154   2.705   3.579   4.123
 2379SOL     OW 7155   2.092   4.352   0.113
 2379SOL    HW1 7156   1.999   4.350   0.150
 2379SOL    HW2 7157   2.093   4.313   0.021
 2380SOL     OW 7158   2.087   3.999   0.996
 2380SOL    HW1 7159   2.122   3.982   1.088
 2380SOL    HW2 7160   1.999   3.954   0.984
 2381SOL     OW 7161   1.881   4.092   0.647
 2381SOL    HW1 7162   1.799   4.135   0.686
 2381SOL    HW2 7163   1.853   4.019   0.584
 2382SOL     OW 7164   2.997   4.427   0.717
 2382SOL    HW1 7165   3.054   4.505   0.692
 2382SOL    HW2 7166   2.937   4.453   0.793
 2383SOL     OW 7167   3.617   4.331   0.231
 2383SOL    HW1 7168   3.605   4.318   0.132
 2383SOL    HW2 7169   3.587   4.250   0.280
 2384SOL     OW 7170   2.712   4.522   1.823
 2384SOL    HW1 7171   2.708   4.598   1.888
 2384SOL    HW2 7172   2.734   4.558   1.732
 2385SOL     OW 7173   2.547   4.736   0.665
 2385SOL    HW1 7174   2.616   4.720   0.735
 2385SOL    HW2 7175   2.474   4.793   0.703
 2386SOL     OW 7176   2.300   4.116   1.499
 2386SOL    HW1 7177   2.382   4.060   1.508
 2386SOL    HW2 7178   2.219   4.058   1.503
 2387SOL     OW 7179   3.465   4.171   0.737
 2387SOL    HW1 7180   3.391   4.217   0.687
 2387SOL    HW2 7181   3.516   4.239   0.790
 2388SOL     OW 7182   3.456   3.838   1.480
 2388SOL    HW1 7183   3.438   3.905   1.408
 2388SOL    HW2 7184   3.453   3.884   1.569
 2389SOL     OW 7185   1.984   4.367   0.563
 2389SOL    HW1 7186   1.939   4.279   0.580
 2389SOL    HW2 7187   1.983   4.421   0.647
 2390SOL     OW 7188   1.975   4.461   1.597
 2390SOL    HW1 7189   2.063   4.448   1.642
 2390SOL    HW2 7190   1.962   4.558   1.575
 2391SOL     OW 7191   2.671   3.728   0.502
 2391SOL    HW1 7192   2.711   3.819   0.493
 2391SOL    HW2 7193   2.571   3.736   0.508
 2392SOL     OW 7194   2.179   3.975   1.801
 2392SOL    HW1 7195   2.250   4.046   1.807
 2392SOL    HW2 7196   2.091   4.014   1.829
 2393SOL     OW 7197   2.460   4.453   0.270
 2393SOL    HW1 7198   2.484   4.522   0.202
 2393SOL    HW2 7199   2.382   4.486   0.324
 2394SOL     OW 7200   3.143   4.069   0.944
 2394SOL    HW1 7201   3.057   4.019   0.931
 2394SOL    HW2 7202   3.205   4.015   1.000
 2395SOL     OW 7203   2.669   4.329   1.465
 2395SOL    HW1 7204   2.622   4.326   1.554
 2395SOL    HW2 7205   2.618   4.274   1.399
 2396SOL     OW 7206   3.256   4.193   1.674
 2396SOL    HW1 7207   3.236   4.236   1.762
 2396SOL    HW2 7208   3.334   4.131   1.683
 2397SOL     OW 7209   2.835   4.614   1.572
 2397SOL    HW1 7210   2.881   4.530   1.543
 2397SOL    HW2 7211   2.779   4.648   1.497
 2398SOL     OW 7212   2.853   4.134   1.242
 2398SOL    HW1 7213   2.776   4.168   1.296
 2398SOL    HW2 7214   2.819   4.083   1.163
 2399SOL     OW 7215   2.903   4.425   0.429
 2399SOL    HW1 7216   2.929   4.421   0.525
 2399SOL    HW2 7217   2.818   4.374   0.415
 2400SOL     OW 7218   1.938   4.535   0.789
 2400SOL    HW1 7219   2.037   4.523   0.798
 2400SOL    HW2 7220   1.914   4.630   0.810
 2401SOL     OW 7221   2.727   4.072   0.195
 2401SOL    HW1 7222   2.786   4.135   0.146
 2401SOL    HW2 7223   2.746   3.978   0.166
 2402SOL     OW 7224   3.581   4.309   1.831
 2402SOL    HW1 7225   3.555   4.398   1.795
 2402SOL    HW2 7226   3.579   4.241   1.758
 2403SOL     OW 7227   2.412   3.920   0.885
 2403SOL    HW1 7228   2.407   3.915   0.985
 2403SOL    HW2 7229   2.414   4.016   0.856
 2404SOL     OW 7230   3.320   4.459   0.728
 2404SOL    HW1 7231   3.315   4.394   0.803
 2404SOL    HW2 7232   3.400   4.518   0.741
 2405SOL     OW 7233   2.064   4.009   1.498
 2405SOL    HW1 7234   1.984   4.069   1.485
 2405SOL    HW2 7235   2.054   3.960   1.584
 2406SOL     OW 7236   3.262   3.831   0.426
 2406SOL    HW1 7237   3.238   3.794   0.336
 2406SOL    HW2 7238   3.361   3.847   0.430
 2407SOL     OW 7239   2.244   4.424   0.480
 2407SOL    HW1 7240   2.289   4.334   0.477
 2407SOL    HW2 7241   2.150   4.413   0.513
 2408SOL     OW 7242   3.409   3.946   1.729
 2408SOL    HW1 7243   3.404   3.983   1.821
 2408SOL    HW2 7244   3.337   3.877   1.717
 2409SOL     OW 7245   2.643   3.988   1.749
 2409SOL    HW1 7246   2.710   3.927   1.792
 2409SOL    HW2 7247   2.570   4.007   1.814
 2410SOL     OW 7248   3.213   4.314   1.433
 2410SOL    HW1 7249   3.241   4.271   1.518
 2410SOL    HW2 7250   3.238   4.410   1.434
 2411SOL     OW 7251   2.784   4.227   0.899
 2411SOL    HW1 7252   2.759   4.218   0.803
 2411SOL    HW2 7253   2.832   4.145   0.930
 2412SOL     OW 7254   2.401   3.788   0.512
 2412SOL    HW1 7255   2.320   3.789   0.570
 2412SOL    HW2 7256   2.404   3.871   0.457
 2413SOL     OW 7257   2.159   3.759   0.171
 2413SOL    HW1 7258   2.208   3.843   0.150
 2413SOL    HW2 7259   2.221   3.694   0.216
 2414SOL     OW 7260   2.797   3.960   0.480
 2414SOL    HW1 7261   2.749   4.001   0.402
 2414SOL    HW2 7262   2.896   3.958   0.461
 2415SOL     OW 7263   2.938   4.407   1.464
 2415SOL    HW1 7264   2.858   4.346   1.467
 2415SOL    HW2 7265   3.019   4.354   1.440
 2416SOL     OW 7266   2.894   4.273   0.016
 2416SOL    HW1 7267   2.853   4.355  -0.023
 2416SOL    HW2 7268   2.958   4.299   0.089
 2417SOL     OW 7269   1.940   4.280   1.386
 2417SOL    HW1 7270   2.032   4.279   1.345
 2417SOL    HW2 7271   1.934   4.354   1.453
 2418SOL     OW 7272   2.423   3.946   1.147
 2418SOL    HW1 7273   2.461   3.862   1.184
 2418SOL    HW2 7274   2.335   3.965   1.191
 2419SOL     OW 7275   2.728   4.178   0.642
 2419SOL    HW1 7276   2.696   4.250   0.580
 2419SOL    HW2 7277   2.752   4.097   0.589
 2420SOL     OW 7278   2.879   3.763   0.753
 2420SOL    HW1 7279   2.807   3.768   0.684
 2420SOL    HW2 7280   2.855   3.694   0.822
 2421SOL     OW 7281   3.328   4.314   0.992
 2421SOL    HW1 7282   3.298   4.219   0.999
 2421SOL    HW2 7283   3.401   4.330   1.058
 2422SOL     OW 7284   3.719   4.557   0.377
 2422SOL    HW1 7285   3.761   4.493   0.441
 2422SOL    HW2 7286   3.681   4.506   0.299
 2423SOL     OW 7287   3.252   4.299   0.078
 2423SOL    HW1 7288   3.198   4.278   0.159
 2423SOL    HW2 7289   3.343   4.258   0.087
 2424SOL     OW 7290   2.389   3.980   0.328
 2424SOL    HW1 7291   2.416   3.921   0.253
 2424SOL    HW2 7292   2.389   4.075   0.297
 2425SOL     OW 7293   2.777   3.813   1.402
 2425SOL    HW1 7294   2.802   3.793   1.307
 2425SOL    HW2 7295   2.849   3.869   1.444
 2426SOL     OW 7296   2.272   4.537   1.251
 2426SOL    HW1 7297   2.358   4.549   1.301
 2426SOL    HW2 7298   2.230   4.450   1.278
 2427SOL     OW 7299   3.136   4.110   1.262
 2427SOL    HW1 7300   3.157   4.184   1.326
 2427SOL    HW2 7301   3.047   4.127   1.219
 2428SOL     OW 7302   2.428   4.261   0.865
 2428SOL    HW1 7303   2.440   4.327   0.791
 2428SOL    HW2 7304   2.474   4.295   0.948
 2429SOL     OW 7305   3.444   4.363   0.472
 2429SOL    HW1 7306   3.413   4.424   0.545
 2429SOL    HW2 7307   3.494   4.415   0.403
 2430SOL     OW 7308   2.264   4.475   1.598
 2430SOL    HW1 7309   2.332   4.530   1.551
 2430SOL    HW2 7310   2.304   4.387   1.625
 2431SOL     OW 7311   3.449   4.503   1.670
 2431SOL    HW1 7312   3.357   4.541   1.665
 2431SOL    HW2 7313   3.509   4.550   1.605
 2432SOL     OW 7314   2.875   3.829   1.770
 2432SOL    HW1 7315   2.881   3.914   1.718
 2432SOL    HW2 7316   2.907   3.753   1.713
 2433SOL     OW 7317   2.366   3.774   1.740
 2433SOL    HW1 7318   2.324   3.717   1.670
 2433SOL    HW2 7319   2.300   3.843   1.772
 2434SOL     OW 7320   2.435   4.594   1.029
 2434SOL    HW1 7321   2.479   4.683   1.020
 2434SOL    HW2 7322   2.372   4.594   1.106
 2435SOL     OW 7323   3.222   4.586   1.045
 2435SOL    HW1 7324   3.147   4.586   0.979
 2435SOL    HW2 7325   3.259   4.494   1.054
 2436SOL     OW 7326   3.071   4.249   0.275
 2436SOL    HW1 7327   3.084   4.165   0.329
 2436SOL    HW2 7328   3.042   4.323   0.335
 2437SOL     OW 7329   2.169   3.937   1.231
 2437SOL    HW1 7330   2.146   3.974   1.321
 2437SOL    HW2 7331   2.139   3.842   1.225
 2438SOL     OW 7332   2.594   4.358   1.064
 2438SOL    HW1 7333   2.653   4.332   0.988
 2438SOL    HW2 7334   2.566   4.454   1.053
 2439SOL     OW 7335   3.590   4.659   1.854
 2439SOL    HW1 7336   3.544   4.652   1.765
 2439SOL    HW2 7337   3.528   4.703   1.920
 2440SOL     OW 7338   2.169   3.787   0.618
 2440SOL    HW1 7339   2.158   3.881   0.651
 2440SOL    HW2 7340   2.164   3.724   0.695
 2441SOL     OW 7341   3.484   4.091   0.374
 2441SOL    HW1 7342   3.486   4.015   0.438
 2441SOL    HW2 7343   3.436   4.168   0.414
 2442SOL     OW 7344   2.885   4.490   0.966
 2442SOL    HW1 7345   2.900   4.511   1.062
 2442SOL    HW2 7346   2.855   4.395   0.957
 2443SOL     OW 7347   2.212   4.622   1.804
 2443SOL    HW1 7348   2.288   4.666   1.852
 2443SOL    HW2 7349   2.247   4.575   1.722
 2444SOL     OW 7350   3.402   3.998   0.125
 2444SOL    HW1 7351   3.341   3.923   0.148
 2444SOL    HW2 7352   3.424   4.050   0.208
 2445SOL     OW 7353   3.165   4.562   0.042
 2445SOL    HW1 7354   3.199   4.469   0.057
 2445SOL    HW2 7355   3.183   4.589  -0.053
 2446SOL     OW 7356   2.181   4.534   0.949
 2446SOL    HW1 7357   2.274   4.570   0.954
 2446SOL    HW2 7358   2.175   4.449   1.001
 2447SOL     OW 7359   2.201   4.233   1.006
 2447SOL    HW1 7360   2.149   4.150   0.989
 2447SOL    HW2 7361   2.278   4.238   0.942
 2448SOL     OW 7362   3.000   4.104   1.678
 2448SOL    HW1 7363   2.955   4.167   1.742
 2448SOL    HW2 7364   3.093   4.135   1.661
 2449SOL     OW 7365   3.022   3.931   1.477
 2449SOL    HW1 7366   3.022   3.995   1.554
 2449SOL    HW2 7367   3.050   3.979   1.394
 2450SOL     OW 7368   2.864   4.520   1.238
 2450SOL    HW1 7369   2.905   4.488   1.324
 2450SOL    HW2 7370   2.768   4.493   1.235
 2451SOL     OW 7371   1.902   4.268   1.114
 2451SOL    HW1 7372   1.987   4.235   1.073
 2451SOL    HW2 7373   1.915   4.283   1.212
 2452SOL     OW 7374   2.051   4.244   1.722
 2452SOL    HW1 7375   2.110   4.204   1.652
 2452SOL    HW2 7376   1.993   4.315   1.681
 2453SOL     OW 7377   2.677   4.296   0.325
 2453SOL    HW1 7378   2.684   4.207   0.279
 2453SOL    HW2 7379   2.583   4.330   0.317
 2454SOL     OW 7380   3.519   4.328   1.206
 2454SOL    HW1 7381   3.481   4.259   1.268
 2454SOL    HW2 7382   3.601   4.292   1.162
 2455SOL     OW 7383   2.533   4.188   1.269
 2455SOL    HW1 7384   2.499   4.099   1.239
 2455SOL    HW2 7385   2.559   4.242   1.189
 2456SOL     OW 7386   2.335   4.224   0.191
 2456SOL    HW1 7387   2.396   4.304   0.195
 2456SOL    HW2 7388   2.240   4.255   0.198
 2457SOL     OW 7389   3.209   4.783   1.234
 2457SOL    HW1 7390   3.233   4.720   1.160
 2457SOL    HW2 7391   3.119   4.823   1.216
 2458SOL     OW 7392   3.164   4.579   0.309
 2458SOL    HW1 7393   3.078   4.548   0.351
 2458SOL    HW2 7394   3.160   4.565   0.210
 2459SOL     OW 7395   2.765   3.810   0.133
 2459SOL    HW1 7396   2.816   3.811   0.047
 2459SOL    HW2 7397   2.821   3.768   0.204
 2460SOL     OW 7398   3.588   3.859   0.523
 2460SOL    HW1 7399   3.661   3.842   0.456
 2460SOL    HW2 7400   3.557   3.772   0.561
 2461SOL     OW 7401   3.142   4.651   0.672
 2461SOL    HW1 7402   3.202   4.570   0.674
 2461SOL    HW2 7403   3.182   4.720   0.612
 2462SOL     OW 7404   3.703   3.899   0.963
 2462SOL    HW1 7405   3.742   3.814   0.927
 2462SOL    HW2 7406   3.605   3.901   0.944
 2463SOL     OW 7407   2.125   4.050   0.720
 2463SOL    HW1 7408   2.046   4.101   0.686
 2463SOL    HW2 7409   2.116   4.035   0.818
 2464SOL     OW 7410   2.876   3.960   0.971
 2464SOL    HW1 7411   2.868   3.924   0.878
 2464SOL    HW2 7412   2.874   3.884   1.036
 2465SOL     OW 7413   3.571   4.109   1.381
 2465SOL    HW1 7414   3.644   4.178   1.385
 2465SOL    HW2 7415   3.599   4.034   1.322
 2466SOL     OW 7416   1.967   4.737   1.726
 2466SOL    HW1 7417   1.890   4.704   1.780
 2466SOL    HW2 7418   2.052   4.707   1.768
 2467SOL     OW 7419   2.534   3.927   1.489
 2467SOL    HW1 7420   2.624   3.911   1.449
 2467SOL    HW2 7421   2.542   3.932   1.588
 2468SOL     OW 7422   3.302   4.580   1.398
 2468SOL    HW1 7423   3.245   4.632   1.335
 2468SOL    HW2 7424   3.398   4.592   1.374
 2469SOL     OW 7425   1.934   3.890   0.318
 2469SOL    HW1 7426   1.917   3.973   0.264
 2469SOL    HW2 7427   2.024   3.853   0.296
 2470SOL     OW 7428   2.475   4.566   1.431
 2470SOL    HW1 7429   2.531   4.647   1.414
 2470SOL    HW2 7430   2.534   4.486   1.434
 2471SOL     OW 7431   2.578   4.289   1.708
 2471SOL    HW1 7432   2.597   4.354   1.782
 2471SOL    HW2 7433   2.638   4.209   1.717
 2472SOL     OW 7434   3.536   4.607   1.254
 2472SOL    HW1 7435   3.509   4.518   1.217
 2472SOL    HW2 7436   3.537   4.675   1.181
 2473SOL     OW 7437   3.087   4.049   0.449
 2473SOL    HW1 7438   3.152   3.975   0.438
 2473SOL    HW2 7439   3.107   4.099   0.533
 2474SOL     OW 7440   2.456   4.469   0.652
 2474SOL    HW1 7441   2.506   4.554   0.633
 2474SOL    HW2 7442   2.368   4.471   0.604
 2475SOL     OW 7443   3.639   4.066   1.642
 2475SOL    HW1 7444   3.622   4.097   1.548
 2475SOL    HW2 7445   3.555   4.029   1.680
 2476SOL     OW 7446   3.592   4.658   1.517
 2476SOL    HW1 7447   3.630   4.749   1.532
 2476SOL    HW2 7448   3.584   4.641   1.418
 2477SOL     OW 7449   3.686   3.916   1.227
 2477SOL    HW1 7450   3.682   3.826   1.271
 2477SOL    HW2 7451   3.689   3.905   1.128
 2478SOL     OW 7452   2.290   4.148   0.520
 2478SOL    HW1 7453   2.320   4.076   0.458
 2478SOL    HW2 7454   2.251   4.108   0.603
 2479SOL     OW 7455   2.179   4.271   1.280
 2479SOL    HW1 7456   2.217   4.212   1.352
 2479SOL    HW2 7457   2.219   4.245   1.192
 2480SOL     OW 7458   3.286   3.938   1.112
 2480SOL    HW1 7459   3.338   3.873   1.167
 2480SOL    HW2 7460   3.237   4.001   1.173
 2481SOL     OW 7461   2.863   3.758   1.154
 2481SOL    HW1 7462   2.800   3.686   1.123
 2481SOL    HW2 7463   2.956   3.722   1.154
 2482SOL     OW 7464   3.214   3.776   0.168
 2482SOL    HW1 7465   3.249   3.735   0.084
 2482SOL    HW2 7466   3.124   3.738   0.188
 2483SOL     OW 7467   3.162   4.177   0.691
 2483SOL    HW1 7468   3.103   4.257   0.695
 2483SOL    HW2 7469   3.177   4.142   0.784
 2484SOL     OW 7470   3.455   3.945   0.882
 2484SOL    HW1 7471   3.371   3.944   0.936
 2484SOL    HW2 7472   3.457   4.028   0.826
 2485SOL     OW 7473   2.092   4.352   1.975
 2485SOL    HW1 7474   1.999   4.350   2.012
 2485SOL    HW2 7475   2.093   4.313   1.883
 2486SOL     OW 7476   2.087   3.999   2.858
 2486SOL    HW1 7477   2.122   3.982   2.950
 2486SOL    HW2 7478   1.999   3.954   2.846
 2487SOL     OW 7479   1.881   4.092   2.509
 2487SOL    HW1 7480   1.799   4.135   2.548
 2487SOL    HW2 7481   1.853   4.019   2.446
 2488SOL     OW 7482   2.997   4.427   2.579
 2488SOL    HW1 7483   3.054   4.505   2.554
 2488SOL    HW2 7484   2.937   4.453   2.655
 2489SOL     OW 7485   3.617   4.331   2.093
 2489SOL    HW1 7486   3.605   4.318   1.994
 2489SOL    HW2 7487   3.587   4.250   2.142
 2490SOL     OW 7488   2.712   4.522   3.685
 2490SOL    HW1 7489   2.708   4.598   3.750
 2490SOL    HW2 7490   2.734   4.558   3.594
 2491SOL     OW 7491   2.547   4.736   2.527
 2491SOL    HW1 7492   2.616   4.720   2.597
 2491SOL    HW2 7493   2.474   4.793   2.565
 2492SOL     OW 7494   2.300   4.116   3.361
 2492SOL    HW1 7495   2.382   4.060   3.370
 2492SOL    HW2 7496   2.219   4.058   3.365
 2493SOL     OW 7497   3.465   4.171   2.599
 2493SOL    HW1 7498   3.391   4.217   2.549
 2493SOL    HW2 7499   3.516   4.239   2.652
 2494SOL     OW 7500   3.456   3.838   3.342
 2494SOL    HW1 7501   3.438   3.905   3.270
 2494SOL    HW2 7502   3.453   3.884   3.431
 2495SOL     OW 7503   1.984   4.367   2.425
 2495SOL    HW1 7504   1.939   4.279   2.442
 2495SOL    HW2 7505   1.983   4.421   2.509
 2496SOL     OW 7506   1.975   4.461   3.459
 2496SOL    HW1 7507   2.063   4.448   3.504
 2496SOL    HW2 7508   1.962   4.558   3.437
 2497SOL     OW 7509   2.671   3.728   2.364
 2497SOL    HW1 7510   2.711   3.819   2.355
 2497SOL    HW2 7511   2.571   3.736   2.370
 2498SOL     OW 7512   2.179   3.975   3.663
 2498SOL    HW1 7513   2.250   4.046   3.669
 2498SOL    HW2 7514   2.091   4.014   3.691
 2499SOL     OW 7515   2.460   4.453   2.132
 2499SOL    HW1 7516   2.484   4.522   2.064
 2499SOL    HW2 7517   2.382   4.486   2.186
 2500SOL     OW 7518   3.143   4.069   2.806
 2500SOL    HW1 7519   3.057   4.019   2.793
 2500SOL    HW2 7520   3.205   4.015   2.862
 2501SOL     OW 7521   2.669   4.329   3.327
 2501SOL    HW1 7522   2.622   4.326   3.416
 2501SOL    HW2 7523   2.618   4.274   3.261
 2502SOL     OW 7524   3.256   4.193   3.536
 2502SOL    HW1 7525   3.236   4.236   3.624
 2502SOL    HW2 7526   3.334   4.131   3.545
 2503SOL     OW 7527   2.835   4.614   3.434
 2503SOL    HW1 7528   2.881   4.530   3.405
 2503SOL    HW2 7529   2.779   4.648   3.359
 2504SOL     OW 7530   2.853   4.134   3.104
 2504SOL    HW1 7531   2.776   4.168   3.158
 2504SOL    HW2 7532   2.819   4.083   3.025
 2505SOL     OW 7533   2.903   4.425   2.291
 2505SOL    HW1 7534   2.929   4.421   2.387
 2505SOL    HW2 7535   2.818   4.374   2.277
 2506SOL     OW 7536   1.938   4.535   2.651
 2506SOL    HW1 7537   2.037   4.523   2.660
 2506SOL    HW2 7538   1.914   4.630   2.672
 2507SOL     OW 7539   2.727   4.072   2.057
 2507SOL    HW1 7540   2.786   4.135   2.008
 2507SOL    HW2 7541   2.746   3.978   2.028
 2508SOL     OW 7542   3.581   4.309   3.693
 2508SOL    HW1 7543   3.555   4.398   3.657
 2508SOL    HW2 7544   3.579   4.241   3.620
 2509SOL     OW 7545   2.412   3.920   2.747
 2509SOL    HW1 7546   2.407   3.915   2.847
 2509SOL    HW2 7547   2.414   4.016   2.718
 2510SOL     OW 7548   3.320   4.459   2.590
 2510SOL    HW1 7549   3.315   4.394   2.665
 2510SOL    HW2 7550   3.400   4.518   2.603
 2511SOL     OW 7551   2.064   4.009   3.360
 2511SOL    HW1 7552   1.984   4.069   3.347
 2511SOL    HW2 7553   2.054   3.960   3.446
 2512SOL     OW 7554   3.262   3.831   2.288
 2512SOL    HW1 7555   3.238   3.794   2.198
 2512SOL    HW2 7556   3.361   3.847   2.292
 2513SOL     OW 7557   2.244   4.424   2.342
 2513SOL    HW1 7558   2.289   4.334   2.339
 2513SOL    HW2 7559   2.150   4.413   2.375
 2514SOL     OW 7560   3.409   3.946   3.591
 2514SOL    HW1 7561   3.404   3.983   3.683
 2514SOL    HW2 7562   3.337   3.877   3.579
 2515SOL     OW 7563   2.476   3.846   1.979
 2515SOL    HW1 7564   2.574   3.824   1.986
 2515SOL    HW2 7565   2.445   3.829   1.886
 2516SOL     OW 7566   2.643   3.988   3.611
 2516SOL    HW1 7567   2.710   3.927   3.654
 2516SOL    HW2 7568   2.570   4.007   3.676
 2517SOL     OW 7569   3.213   4.314   3.295
 2517SOL    HW1 7570   3.241   4.271   3.380
 2517SOL    HW2 7571   3.238   4.410   3.296
 2518SOL     OW 7572   2.784   4.227   2.761
 2518SOL    HW1 7573   2.759   4.218   2.665
 2518SOL    HW2 7574   2.832   4.145   2.792
 2519SOL     OW 7575   2.401   3.788   2.374
 2519SOL    HW1 7576   2.320   3.789   2.432
 2519SOL    HW2 7577   2.404   3.871   2.319
 2520SOL     OW 7578   2.159   3.759   2.033
 2520SOL    HW1 7579   2.208   3.843   2.012
 2520SOL    HW2 7580   2.221   3.694   2.078
 2521SOL     OW 7581   2.797   3.960   2.342
 2521SOL    HW1 7582   2.749   4.001   2.264
 2521SOL    HW2 7583   2.896   3.958   2.323
 2522SOL     OW 7584   2.938   4.407   3.326
 2522SOL    HW1 7585   2.858   4.346   3.329
 2522SOL    HW2 7586   3.019   4.354   3.302
 2523SOL     OW 7587   2.894   4.273   1.878
 2523SOL    HW1 7588   2.853   4.355   1.839
 2523SOL    HW2 7589   2.958   4.299   1.951
 2524SOL     OW 7590   1.940   4.280   3.248
 2524SOL    HW1 7591   2.032   4.279   3.207
 2524SOL    HW2 7592   1.934   4.354   3.315
 2525SOL     OW 7593   2.423   3.946   3.009
 2525SOL    HW1 7594   2.461   3.862   3.046
 2525SOL    HW2 7595   2.335   3.965   3.053
 2526SOL     OW 7596   2.728   4.178   2.504
 2526SOL    HW1 7597   2.696   4.250   2.442
 2526SOL    HW2 7598   2.752   4.097   2.451
 2527SOL     OW 7599   2.879   3.763   2.615
 2527SOL    HW1 7600   2.807   3.768   2.546
 2527SOL    HW2 7601   2.855   3.694   2.684
 2528SOL     OW 7602   3.328   4.314   2.854
 2528SOL    HW1 7603   3.298   4.219   2.861
 2528SOL    HW2 7604   3.401   4.330   2.920
 2529SOL     OW 7605   3.719   4.557   2.239
 2529SOL    HW1 7606   3.761   4.493   2.303
 2529SOL    HW2 7607   3.681   4.506   2.161
 2530SOL     OW 7608   3.252   4.299   1.940
 2530SOL    HW1 7609   3.198   4.278   2.021
 2530SOL    HW2 7610   3.343   4.258   1.949
 2531SOL     OW 7611   2.389   3.980   2.190
 2531SOL    HW1 7612   2.416   3.921   2.115
 2531SOL    HW2 7613   2.389   4.075   2.159
 2532SOL     OW 7614   2.777   3.813   3.264
 2532SOL    HW1 7615   2.802   3.793   3.169
 2532SOL    HW2 7616   2.849   3.869   3.306
 2533SOL     OW 7617   2.272   4.537   3.113
 2533SOL    HW1 7618   2.358   4.549   3.163
 2533SOL    HW2 7619   2.230   4.450   3.140
 2534SOL     OW 7620   3.136   4.110   3.124
 2534SOL    HW1 7621   3.157   4.184   3.188
 2534SOL    HW2 7622   3.047   4.127   3.081
 2535SOL     OW 7623   2.428   4.261   2.727
 2535SOL    HW1 7624   2.440   4.327   2.653
 2535SOL    HW2 7625   2.474   4.295   2.810
 2536SOL     OW 7626   3.444   4.363   2.334
 2536SOL    HW1 7627   3.413   4.424   2.407
 2536SOL    HW2 7628   3.494   4.415   2.265
 2537SOL     OW 7629   2.264   4.475   3.460
 2537SOL    HW1 7630   2.332   4.530   3.413
 2537SOL    HW2 7631   2.304   4.387   3.487
 2538SOL     OW 7632   3.449   4.503   3.532
 2538SOL    HW1 7633   3.357   4.541   3.527
 2538SOL    HW2 7634   3.509   4.550   3.467
 2539SOL     OW 7635   2.875   3.829   3.632
 2539SOL    HW1 7636   2.881   3.914   3.580
 2539SOL    HW2 7637   2.907   3.753   3.575
 2540SOL     OW 7638   2.366   3.774   3.602
 2540SOL    HW1 7639   2.324   3.717   3.532
 2540SOL    HW2 7640   2.300   3.843   3.634
 2541SOL     OW 7641   2.435   4.594   2.891
 2541SOL    HW1 7642   2.479   4.683   2.882
 2541SOL    HW2 7643   2.372   4.594   2.968
 2542SOL     OW 7644   3.222   4.586   2.907
 2542SOL    HW1 7645   3.147   4.586   2.841
 2542SOL    HW2 7646   3.259   4.494   2.916
 2543SOL     OW 7647   3.071   4.249   2.137
 2543SOL    HW1 7648   3.084   4.165   2.191
 2543SOL    HW2 7649   3.042   4.323   2.197
 2544SOL     OW 7650   2.169   3.937   3.093
 2544SOL    HW1 7651   2.146   3.974   3.183
 2544SOL    HW2 7652   2.139   3.842   3.087
 2545SOL     OW 7653   2.594   4.358   2.926
 2545SOL    HW1 7654   2.653   4.332   2.850
 2545SOL    HW2 7655   2.566   4.454   2.915
 2546SOL     OW 7656   3.590   4.659   3.716
 2546SOL    HW1 7657   3.544   4.652   3.627
 2546SOL    HW2 7658   3.528   4.703   3.782
 2547SOL     OW 7659   2.169   3.787   2.480
 2547SOL    HW1 7660   2.158   3.881   2.513
 2547SOL    HW2 7661   2.164   3.724   2.557
 2548SOL     OW 7662   3.484   4.091   2.236
 2548SOL    HW1 7663   3.486   4.015   2.300
 2548SOL    HW2 7664   3.436   4.168   2.276
 2549SOL     OW 7665   2.885   4.490   2.828
 2549SOL    HW1 7666   2.900   4.511   2.924
 2549SOL    HW2 7667   2.855   4.395   2.819
 2550SOL     OW 7668   2.212   4.622   3.666
 2550SOL    HW1 7669   2.288   4.666   3.714
 2550SOL    HW2 7670   2.247   4.575   3.584
 2551SOL     OW 7671   3.402   3.998   1.987
 2551SOL    HW1 7672   3.341   3.923   2.010
 2551SOL    HW2 7673   3.424   4.050   2.070
 2552SOL     OW 7674   3.165   4.562   1.904
 2552SOL    HW1 7675   3.199   4.469   1.919
 2552SOL    HW2 7676   3.183   4.589   1.809
 2553SOL     OW 7677   2.181   4.534   2.811
 2553SOL    HW1 7678   2.274   4.570   2.816
 2553SOL    HW2 7679   2.175   4.449   2.863
 2554SOL     OW 7680   2.201   4.233   2.868
 2554SOL    HW1 7681   2.149   4.150   2.851
 2554SOL    HW2 7682   2.278   4.238   2.804
 2555SOL     OW 7683   3.000   4.104   3.540
 2555SOL    HW1 7684   2.955   4.167   3.604
 2555SOL    HW2 7685   3.093   4.135   3.523
 2556SOL     OW 7686   3.022   3.931   3.339
 2556SOL    HW1 7687   3.022   3.995   3.416
 2556SOL    HW2 7688   3.050   3.979   3.256
 2557SOL     OW 7689   2.864   4.520   3.100
 2557SOL    HW1 7690   2.905   4.488   3.186
 2557SOL    HW2 7691   2.768   4.493   3.097
 2558SOL     OW 7692   1.902   4.268   2.976
 2558SOL    HW1 7693   1.987   4.235   2.935
 2558SOL    HW2 7694   1.915   4.283   3.074
 2559SOL     OW 7695   2.051   4.244   3.584
 2559SOL    HW1 7696   2.110   4.204   3.514
 2559SOL    HW2 7697   1.993   4.315   3.543
 2560SOL     OW 7698   2.677   4.296   2.187
 2560SOL    HW1 7699   2.684   4.207   2.141
 2560SOL    HW2 7700   2.583   4.330   2.179
 2561SOL     OW 7701   3.519   4.328   3.068
 2561SOL    HW1 7702   3.481   4.259   3.130
 2561SOL    HW2 7703   3.601   4.292   3.024
 2562SOL     OW 7704   2.533   4.188   3.131
 2562SOL    HW1 7705   2.499   4.099   3.101
 2562SOL    HW2 7706   2.559   4.242   3.051
 2563SOL     OW 7707   2.335   4.224   2.053
 2563SOL    HW1 7708   2.396   4.304   2.057
 2563SOL    HW2 7709   2.240   4.255   2.060
 2564SOL     OW 7710   3.209   4.783   3.096
 2564SOL    HW1 7711   3.233   4.720   3.022
 2564SOL    HW2 7712   3.119   4.823   3.078
 2565SOL     OW 7713   3.164   4.579   2.171
 2565SOL    HW1 7714   3.078   4.548   2.213
 2565SOL    HW2 7715   3.160   4.565   2.072
 2566SOL     OW 7716   3.588   3.859   2.385
 2566SOL    HW1 7717   3.661   3.842   2.318
 2566SOL    HW2 7718   3.557   3.772   2.423
 2567SOL     OW 7719   3.142   4.651   2.534
 2567SOL    HW1 7720   3.202   4.570   2.536
 2567SOL    HW2 7721   3.182   4.720   2.474
 2568SOL     OW 7722   3.703   3.899   2.825
 2568SOL    HW1 7723   3.742   3.814   2.789
 2568SOL    HW2 7724   3.605   3.901   2.806
 2569SOL     OW 7725   2.125   4.050   2.582
 2569SOL    HW1 7726   2.046   4.101   2.548
 2569SOL    HW2 7727   2.116   4.035   2.680
 2570SOL     OW 7728   2.778   4.634   2.153
 2570SOL    HW1 7729   2.841   4.672   2.085
 2570SOL    HW2 7730   2.818   4.551   2.192
 2571SOL     OW 7731   2.876   3.960   2.833
 2571SOL    HW1 7732   2.868   3.924   2.740
 2571SOL    HW2 7733   2.874   3.884   2.898
 2572SOL     OW 7734   3.571   4.109   3.243
 2572SOL    HW1 7735   3.644   4.178   3.247
 2572SOL    HW2 7736   3.599   4.034   3.184
 2573SOL     OW 7737   1.967   4.737   3.588
 2573SOL    HW1 7738   1.890   4.704   3.642
 2573SOL    HW2 7739   2.052   4.707   3.630
 2574SOL     OW 7740   2.534   3.927   3.351
 2574SOL    HW1 7741   2.624   3.911   3.311
 2574SOL    HW2 7742   2.542   3.932   3.450
 2575SOL     OW 7743   1.937   4.069   1.895
 2575SOL    HW1 7744   1.845   4.041   1.866
 2575SOL    HW2 7745   1.968   4.146   1.839
 2576SOL     OW 7746   3.302   4.580   3.260
 2576SOL    HW1 7747   3.245   4.632   3.197
 2576SOL    HW2 7748   3.398   4.592   3.236
 2577SOL     OW 7749   1.934   3.890   2.180
 2577SOL    HW1 7750   1.917   3.973   2.126
 2577SOL    HW2 7751   2.024   3.853   2.158
 2578SOL     OW 7752   2.475   4.566   3.293
 2578SOL    HW1 7753   2.531   4.647   3.276
 2578SOL    HW2 7754   2.534   4.486   3.296
 2579SOL     OW 7755   2.578   4.289   3.570
 2579SOL    HW1 7756   2.597   4.354   3.644
 2579SOL    HW2 7757   2.638   4.209   3.579
 2580SOL     OW 7758   3.536   4.607   3.116
 2580SOL    HW1 7759   3.509   4.518   3.079
 2580SOL    HW2 7760   3.537   4.675   3.043
 2581SOL     OW 7761   3.087   4.049   2.311
 2581SOL    HW1 7762   3.152   3.975   2.300
 2581SOL    HW2 7763   3.107   4.099   2.395
 2582SOL     OW 7764   2.456   4.469   2.514
 2582SOL    HW1 7765   2.506   4.554   2.495
 2582SOL    HW2 7766   2.368   4.471   2.466
 2583SOL     OW 7767   3.639   4.066   3.504
 2583SOL    HW1 7768   3.622   4.097   3.410
 2583SOL    HW2 7769   3.555   4.029   3.542
 2584SOL     OW 7770   3.592   4.658   3.379
 2584SOL    HW1 7771   3.630   4.749   3.394
 2584SOL    HW2 7772   3.584   4.641   3.280
 2585SOL     OW 7773   3.686   3.916   3.089
 2585SOL    HW1 7774   3.682   3.826   3.133
 2585SOL    HW2 7775   3.689   3.905   2.990
 2586SOL     OW 7776   2.290   4.148   2.382
 2586SOL    HW1 7777   2.320   4.076   2.320
 2586SOL    HW2 7778   2.251   4.108   2.465
 2587SOL     OW 7779   2.179   4.271   3.142
 2587SOL    HW1 7780   2.217   4.212   3.214
 2587SOL    HW2 7781   2.219   4.245   3.054
 2588SOL     OW 7782   3.286   3.938   2.974
 2588SOL    HW1 7783   3.338   3.873   3.029
 2588SOL    HW2 7784   3.237   4.001   3.035
 2589SOL     OW 7785   2.863   3.758   3.016
 2589SOL    HW1 7786   2.800   3.686   2.985
 2589SOL    HW2 7787   2.956   3.722   3.016
 2590SOL     OW 7788   3.214   3.776   2.030
 2590SOL    HW1 7789   3.249   3.735   1.946
 2590SOL    HW2 7790   3.124   3.738   2.050
 2591SOL     OW 7791   3.162   4.177   2.553
 2591SOL    HW1 7792   3.103   4.257   2.557
 2591SOL    HW2 7793   3.177   4.142   2.646
 2592SOL     OW 7794   3.455   3.945   2.744
 2592SOL    HW1 7795   3.371   3.944   2.798
 2592SOL    HW2 7796   3.457   4.028   2.688
 2593SOL     OW 7797   2.092   4.352   3.837
 2593SOL    HW1 7798   1.999   4.350   3.874
 2593SOL    HW2 7799   2.093   4.313   3.745
 2594SOL     OW 7800   2.087   3.999   4.720
 2594SOL    HW1 7801   2.122   3.982   4.812
 2594SOL    HW2 7802   1.999   3.954   4.708
 2595SOL     OW 7803   1.881   4.092   4.371
 2595SOL    HW1 7804   1.799   4.135   4.410
 2595SOL    HW2 7805   1.853   4.019   4.308
 2596SOL     OW 7806   2.997   4.427   4.441
 2596SOL    HW1 7807   3.054   4.505   4.416
 2596SOL    HW2 7808   2.937   4.453   4.517
 2597SOL     OW 7809   3.617   4.331   3.955
 2597SOL    HW1 7810   3.605   4.318   3.856
 2597SOL    HW2 7811   3.587   4.250   4.004
 2598SOL     OW 7812   2.547   4.736   4.389
 2598SOL    HW1 7813   2.616   4.720   4.459
 2598SOL    HW2 7814   2.474   4.793   4.427
 2599SOL     OW 7815   3.465   4.171   4.461
 2599SOL    HW1 7816   3.391   4.217   4.411
 2599SOL    HW2 7817   3.516   4.239   4.514
 2600SOL     OW 7818   1.984   4.367   4.287
 2600SOL    HW1 7819   1.939   4.279   4.304
 2600SOL    HW2 7820   1.983   4.421   4.371
 2601SOL     OW 7821   2.671   3.728   4.226
 2601SOL    HW1 7822   2.711   3.819   4.217
 2601SOL    HW2 7823   2.571   3.736   4.232
 2602SOL     OW 7824   2.460   4.453   3.994
 2602SOL    HW1 7825   2.484   4.522   3.926
 2602SOL    HW2 7826   2.382   4.486   4.048
 2603SOL     OW 7827   3.143   4.069   4.668
 2603SOL    HW1 7828   3.057   4.019   4.655
 2603SOL    HW2 7829   3.205   4.015   4.724
 2604SOL     OW 7830   2.903   4.425   4.153
 2604SOL    HW1 7831   2.929   4.421   4.249
 2604SOL    HW2 7832   2.818   4.374   4.139
 2605SOL     OW 7833   1.938   4.535   4.513
 2605SOL    HW1 7834   2.037   4.523   4.522
 2605SOL    HW2 7835   1.914   4.630   4.534
 2606SOL     OW 7836   2.727   4.072   3.919
 2606SOL    HW1 7837   2.786   4.135   3.870
 2606SOL    HW2 7838   2.746   3.978   3.890
 2607SOL     OW 7839   2.412   3.920   4.609
 2607SOL    HW1 7840   2.407   3.915   4.709
 2607SOL    HW2 7841   2.414   4.016   4.580
 2608SOL     OW 7842   3.320   4.459   4.452
 2608SOL    HW1 7843   3.315   4.394   4.527
 2608SOL    HW2 7844   3.400   4.518   4.465
 2609SOL     OW 7845   3.262   3.831   4.150
 2609SOL    HW1 7846   3.238   3.794   4.060
 2609SOL    HW2 7847   3.361   3.847   4.154
 2610SOL     OW 7848   2.244   4.424   4.204
 2610SOL    HW1 7849   2.289   4.334   4.201
 2610SOL    HW2 7850   2.150   4.413   4.237
 2611SOL     OW 7851   2.476   3.846   3.841
 2611SOL    HW1 7852   2.574   3.824   3.848
 2611SOL    HW2 7853   2.445   3.829   3.748
 2612SOL     OW 7854   2.401   3.788   4.236
 2612SOL    HW1 7855   2.320   3.789   4.294
 2612SOL    HW2 7856   2.404   3.871   4.181
 2613SOL     OW 7857   2.159   3.759   3.895
 2613SOL    HW1 7858   2.208   3.843   3.874
 2613SOL    HW2 7859   2.221   3.694   3.940
 2614SOL     OW 7860   2.797   3.960   4.204
 2614SOL    HW1 7861   2.749   4.001   4.126
 2614SOL    HW2 7862   2.896   3.958   4.185
 2615SOL     OW 7863   2.894   4.273   3.740
 2615SOL    HW1 7864   2.853   4.355   3.701
 2615SOL    HW2 7865   2.958   4.299   3.813
 2616SOL     OW 7866   2.728   4.178   4.366
 2616SOL    HW1 7867   2.696   4.250   4.304
 2616SOL    HW2 7868   2.752   4.097   4.313
 2617SOL     OW 7869   2.879   3.763   4.477
 2617SOL    HW1 7870   2.807   3.768   4.408
 2617SOL    HW2 7871   2.855   3.694   4.546
 2618SOL     OW 7872   3.719   4.557   4.101
 2618SOL    HW1 7873   3.761   4.493   4.165
 2618SOL    HW2 7874   3.681   4.506   4.023
 2619SOL     OW 7875   3.252   4.299   3.802
 2619SOL    HW1 7876   3.198   4.278   3.883
 2619SOL    HW2 7877   3.343   4.258   3.811
 2620SOL     OW 7878   2.389   3.980   4.052
 2620SOL    HW1 7879   2.416   3.921   3.977
 2620SOL    HW2 7880   2.389   4.075   4.021
 2621SOL     OW 7881   2.973   4.919   4.824
 2621SOL    HW1 7882   2.933   4.963   4.905
 2621SOL    HW2 7883   2.932   4.956   4.741
 2622SOL     OW 7884   2.428   4.261   4.589
 2622SOL    HW1 7885   2.440   4.327   4.515
 2622SOL    HW2 7886   2.474   4.295   4.672
 2623SOL     OW 7887   3.444   4.363   4.196
 2623SOL    HW1 7888   3.413   4.424   4.269
 2623SOL    HW2 7889   3.494   4.415   4.127
 2624SOL     OW 7890   3.071   4.249   3.999
 2624SOL    HW1 7891   3.084   4.165   4.053
 2624SOL    HW2 7892   3.042   4.323   4.059
 2625SOL     OW 7893   2.594   4.358   4.788
 2625SOL    HW1 7894   2.653   4.332   4.712
 2625SOL    HW2 7895   2.566   4.454   4.777
 2626SOL     OW 7896   2.169   3.787   4.342
 2626SOL    HW1 7897   2.158   3.881   4.375
 2626SOL    HW2 7898   2.164   3.724   4.419
 2627SOL     OW 7899   3.484   4.091   4.098
 2627SOL    HW1 7900   3.486   4.015   4.162
 2627SOL    HW2 7901   3.436   4.168   4.138
 2628SOL     OW 7902   3.402   3.998   3.849
 2628SOL    HW1 7903   3.341   3.923   3.872
 2628SOL    HW2 7904   3.424   4.050   3.932
 2629SOL     OW 7905   3.165   4.562   3.766
 2629SOL    HW1 7906   3.199   4.469   3.781
 2629SOL    HW2 7907   3.183   4.589   3.671
 2630SOL     OW 7908   2.677   4.296   4.049
 2630SOL    HW1 7909   2.684   4.207   4.003
 2630SOL    HW2 7910   2.583   4.330   4.041
 2631SOL     OW 7911   2.335   4.224   3.915
 2631SOL    HW1 7912   2.396   4.304   3.919
 2631SOL    HW2 7913   2.240   4.255   3.922
 2632SOL     OW 7914   3.164   4.579   4.033
 2632SOL    HW1 7915   3.078   4.548   4.075
 2632SOL    HW2 7916   3.160   4.565   3.934
 2633SOL     OW 7917   3.588   3.859   4.247
 2633SOL    HW1 7918   3.661   3.842   4.180
 2633SOL    HW2 7919   3.557   3.772   4.285
 2634SOL     OW 7920   3.142   4.651   4.396
 2634SOL    HW1 7921   3.202   4.570   4.398
 2634SOL    HW2 7922   3.182   4.720   4.336
 2635SOL     OW 7923   3.703   3.899   4.687
 2635SOL    HW1 7924   3.742   3.814   4.651
 2635SOL    HW2 7925   3.605   3.901   4.668
 2636SOL     OW 7926   2.125   4.050   4.444
 2636SOL    HW1 7927   2.046   4.101   4.410
 2636SOL    HW2 7928   2.116   4.035   4.542
 2637SOL     OW 7929   2.778   4.634   4.015
 2637SOL    HW1 7930   2.841   4.672   3.947
 2637SOL    HW2 7931   2.818   4.551   4.054
 2638SOL     OW 7932   1.937   4.069   3.757
 2638SOL    HW1 7933   1.845   4.041   3.728
 2638SOL    HW2 7934   1.968   4.146   3.701
 2639SOL     OW 7935   1.934   3.890   4.042
 2639SOL    HW1 7936   1.917   3.973   3.988
 2639SOL    HW2 7937   2.024   3.853   4.020
 2640SOL     OW 7938   3.536   4.607   4.978
 2640SOL    HW1 7939   3.509   4.518   4.941
 2640SOL    HW2 7940   3.537   4.675   4.905
 2641SOL     OW 7941   3.087   4.049   4.173
 2641SOL    HW1 7942   3.152   3.975   4.162
 2641SOL    HW2 7943   3.107   4.099   4.257
 2642SOL     OW 7944   2.456   4.469   4.376
 2642SOL    HW1 7945   2.506   4.554   4.357
 2642SOL    HW2 7946   2.368   4.471   4.328
 2643SOL     OW 7947   2.290   4.148   4.244
 2643SOL    HW1 7948   2.320   4.076   4.182
 2643SOL    HW2 7949   2.251   4.108   4.327
 2644SOL     OW 7950   3.214   3.776   3.892
 2644SOL    HW1 7951   3.249   3.735   3.808
 2644SOL    HW2 7952   3.124   3.738   3.912
 2645SOL     OW 7953   3.162   4.177   4.415
 2645SOL    HW1 7954   3.103   4.257   4.419
 2645SOL    HW2 7955   3.177   4.142   4.508
 2646SOL     OW 7956   3.455   3.945   4.606
 2646SOL    HW1 7957   3.371   3.944   4.660
 2646SOL    HW2 7958   3.457   4.028   4.550
 2647SOL     OW 7959   3.954   0.628   0.113
 2647SOL    HW1 7960   3.861   0.626   0.150
 2647SOL    HW2 7961   3.955   0.589   0.021
 2648SOL     OW 7962   3.949   0.275   0.996
 2648SOL    HW1 7963   3.984   0.258   1.088
 2648SOL    HW2 7964   3.861   0.230   0.984
 2649SOL     OW 7965   3.743   0.368   0.647
 2649SOL    HW1 7966   3.661   0.411   0.686
 2649SOL    HW2 7967   3.715   0.295   0.584
 2650SOL     OW 7968   4.293   1.275   1.165
 2650SOL    HW1 7969   4.200   1.268   1.128
 2650SOL    HW2 7970   4.304   1.364   1.209
 2651SOL     OW 7971   4.492   1.144   1.023
 2651SOL    HW1 7972   4.414   1.161   1.083
 2651SOL    HW2 7973   4.526   1.231   0.987
 2652SOL     OW 7974   4.574   0.798   1.823
 2652SOL    HW1 7975   4.570   0.874   1.888
 2652SOL    HW2 7976   4.596   0.834   1.732
 2653SOL     OW 7977   4.409   1.012   0.665
 2653SOL    HW1 7978   4.478   0.996   0.735
 2653SOL    HW2 7979   4.336   1.069   0.703
 2654SOL     OW 7980   4.410   1.161   1.803
 2654SOL    HW1 7981   4.470   1.240   1.817
 2654SOL    HW2 7982   4.324   1.192   1.762
 2655SOL     OW 7983   4.059   1.435   1.061
 2655SOL    HW1 7984   3.981   1.404   1.008
 2655SOL    HW2 7985   4.117   1.493   1.004
 2656SOL     OW 7986   4.162   0.392   1.499
 2656SOL    HW1 7987   4.244   0.336   1.508
 2656SOL    HW2 7988   4.081   0.334   1.503
 2657SOL     OW 7989   3.955   1.713   0.483
 2657SOL    HW1 7990   3.989   1.790   0.537
 2657SOL    HW2 7991   3.999   1.713   0.393
 2658SOL     OW 7992   3.954   1.434   0.538
 2658SOL    HW1 7993   3.928   1.530   0.538
 2658SOL    HW2 7994   3.883   1.380   0.583
 2659SOL     OW 7995   3.964   1.091   0.886
 2659SOL    HW1 7996   3.978   1.007   0.938
 2659SOL    HW2 7997   3.909   1.155   0.941
 2660SOL     OW 7998   4.344   1.786   1.439
 2660SOL    HW1 7999   4.252   1.769   1.474
 2660SOL    HW2 8000   4.372   1.878   1.465
 2661SOL     OW 8001   4.330   0.964   0.123
 2661SOL    HW1 8002   4.337   1.048   0.069
 2661SOL    HW2 8003   4.376   0.977   0.211
 2662SOL     OW 8004   3.846   0.643   0.563
 2662SOL    HW1 8005   3.801   0.555   0.580
 2662SOL    HW2 8006   3.845   0.697   0.647
 2663SOL     OW 8007   3.837   0.737   1.597
 2663SOL    HW1 8008   3.925   0.724   1.642
 2663SOL    HW2 8009   3.824   0.834   1.575
 2664SOL     OW 8010   4.337   1.365   0.726
 2664SOL    HW1 8011   4.288   1.278   0.735
 2664SOL    HW2 8012   4.314   1.408   0.639
 2665SOL     OW 8013   4.533   0.004   0.502
 2665SOL    HW1 8014   4.573   0.095   0.493
 2665SOL    HW2 8015   4.433   0.012   0.508
 2666SOL     OW 8016   3.921   0.976   1.264
 2666SOL    HW1 8017   4.010   0.931   1.250
 2666SOL    HW2 8018   3.848   0.911   1.245
 2667SOL     OW 8019   4.041   0.251   1.801
 2667SOL    HW1 8020   4.112   0.322   1.807
 2667SOL    HW2 8021   3.953   0.290   1.829
 2668SOL     OW 8022   4.322   0.729   0.270
 2668SOL    HW1 8023   4.346   0.798   0.202
 2668SOL    HW2 8024   4.244   0.762   0.324
 2669SOL     OW 8025   4.531   0.605   1.465
 2669SOL    HW1 8026   4.484   0.602   1.554
 2669SOL    HW2 8027   4.480   0.550   1.399
 2670SOL     OW 8028   3.800   0.811   0.789
 2670SOL    HW1 8029   3.899   0.799   0.798
 2670SOL    HW2 8030   3.776   0.906   0.810
 2671SOL     OW 8031   3.854   1.821   1.571
 2671SOL    HW1 8032   3.844   1.806   1.670
 2671SOL    HW2 8033   3.768   1.857   1.535
 2672SOL     OW 8034   4.589   0.348   0.195
 2672SOL    HW1 8035   4.648   0.411   0.146
 2672SOL    HW2 8036   4.608   0.254   0.166
 2673SOL     OW 8037   4.274   0.196   0.885
 2673SOL    HW1 8038   4.269   0.191   0.985
 2673SOL    HW2 8039   4.276   0.292   0.856
 2674SOL     OW 8040   4.732   1.456   0.477
 2674SOL    HW1 8041   4.686   1.528   0.425
 2674SOL    HW2 8042   4.728   1.476   0.575
 2675SOL     OW 8043   4.075   1.801   0.853
 2675SOL    HW1 8044   4.125   1.715   0.859
 2675SOL    HW2 8045   4.140   1.878   0.850
 2676SOL     OW 8046   4.045   0.943   0.242
 2676SOL    HW1 8047   4.127   0.982   0.200
 2676SOL    HW2 8048   4.018   0.861   0.193
 2677SOL     OW 8049   4.185   1.266   1.727
 2677SOL    HW1 8050   4.135   1.267   1.641
 2677SOL    HW2 8051   4.122   1.248   1.803
 2678SOL     OW 8052   4.835   1.776   0.237
 2678SOL    HW1 8053   4.775   1.714   0.287
 2678SOL    HW2 8054   4.866   1.732   0.152
 2679SOL     OW 8055   3.926   0.285   1.498
 2679SOL    HW1 8056   3.846   0.345   1.485
 2679SOL    HW2 8057   3.916   0.236   1.584
 2680SOL     OW 8058   4.188   1.743   0.323
 2680SOL    HW1 8059   4.221   1.782   0.409
 2680SOL    HW2 8060   4.264   1.736   0.258
 2681SOL     OW 8061   3.973   1.785   1.241
 2681SOL    HW1 8062   4.030   1.720   1.291
 2681SOL    HW2 8063   3.957   1.752   1.148
 2682SOL     OW 8064   4.106   0.700   0.480
 2682SOL    HW1 8065   4.151   0.610   0.477
 2682SOL    HW2 8066   4.012   0.689   0.513
 2683SOL     OW 8067   4.338   0.122   0.117
 2683SOL    HW1 8068   4.436   0.100   0.124
 2683SOL    HW2 8069   4.307   0.105   0.024
 2684SOL     OW 8070   4.505   0.264   1.749
 2684SOL    HW1 8071   4.572   0.203   1.792
 2684SOL    HW2 8072   4.432   0.283   1.814
 2685SOL     OW 8073   4.527   1.402   0.924
 2685SOL    HW1 8074   4.617   1.416   0.882
 2685SOL    HW2 8075   4.456   1.404   0.853
 2686SOL     OW 8076   4.646   0.503   0.899
 2686SOL    HW1 8077   4.621   0.494   0.803
 2686SOL    HW2 8078   4.694   0.421   0.930
 2687SOL     OW 8079   4.263   0.064   0.512
 2687SOL    HW1 8080   4.182   0.065   0.570
 2687SOL    HW2 8081   4.266   0.147   0.457
 2688SOL     OW 8082   4.021   0.035   0.171
 2688SOL    HW1 8083   4.070   0.119   0.150
 2688SOL    HW2 8084   4.083  -0.030   0.216
 2689SOL     OW 8085   4.183   1.152   0.741
 2689SOL    HW1 8086   4.112   1.125   0.806
 2689SOL    HW2 8087   4.157   1.124   0.648
 2690SOL     OW 8088   3.802   0.556   1.386
 2690SOL    HW1 8089   3.894   0.555   1.345
 2690SOL    HW2 8090   3.796   0.630   1.453
 2691SOL     OW 8091   4.285   0.222   1.147
 2691SOL    HW1 8092   4.323   0.138   1.184
 2691SOL    HW2 8093   4.197   0.241   1.191
 2692SOL     OW 8094   4.212   1.385   0.174
 2692SOL    HW1 8095   4.125   1.370   0.221
 2692SOL    HW2 8096   4.195   1.411   0.079
 2693SOL     OW 8097   4.251   0.256   0.328
 2693SOL    HW1 8098   4.278   0.197   0.253
 2693SOL    HW2 8099   4.251   0.351   0.297
 2694SOL     OW 8100   4.639   0.089   1.402
 2694SOL    HW1 8101   4.664   0.069   1.307
 2694SOL    HW2 8102   4.711   0.145   1.444
 2695SOL     OW 8103   4.429   1.050   0.368
 2695SOL    HW1 8104   4.415   1.057   0.467
 2695SOL    HW2 8105   4.513   0.999   0.350
 2696SOL     OW 8106   4.134   0.813   1.251
 2696SOL    HW1 8107   4.220   0.825   1.301
 2696SOL    HW2 8108   4.092   0.726   1.278
 2697SOL     OW 8109   3.788   1.564   1.331
 2697SOL    HW1 8110   3.742   1.646   1.297
 2697SOL    HW2 8111   3.886   1.583   1.340
 2698SOL     OW 8112   4.091   1.100   0.501
 2698SOL    HW1 8113   4.084   1.183   0.445
 2698SOL    HW2 8114   4.095   1.020   0.441
 2699SOL     OW 8115   4.290   0.537   0.865
 2699SOL    HW1 8116   4.302   0.603   0.791
 2699SOL    HW2 8117   4.336   0.571   0.948
 2700SOL     OW 8118   4.078   1.510   1.329
 2700SOL    HW1 8119   4.057   1.466   1.242
 2700SOL    HW2 8120   4.175   1.536   1.332
 2701SOL     OW 8121   4.126   0.751   1.598
 2701SOL    HW1 8122   4.194   0.806   1.551
 2701SOL    HW2 8123   4.166   0.663   1.625
 2702SOL     OW 8124   4.228   0.050   1.740
 2702SOL    HW1 8125   4.186  -0.007   1.670
 2702SOL    HW2 8126   4.162   0.119   1.772
 2703SOL     OW 8127   4.297   0.870   1.029
 2703SOL    HW1 8128   4.341   0.959   1.020
 2703SOL    HW2 8129   4.234   0.870   1.106
 2704SOL     OW 8130   4.933   0.525   0.275
 2704SOL    HW1 8131   4.946   0.441   0.329
 2704SOL    HW2 8132   4.904   0.599   0.335
 2705SOL     OW 8133   4.031   0.213   1.231
 2705SOL    HW1 8134   4.008   0.250   1.321
 2705SOL    HW2 8135   4.001   0.118   1.225
 2706SOL     OW 8136   3.761   1.310   1.282
 2706SOL    HW1 8137   3.814   1.261   1.350
 2706SOL    HW2 8138   3.783   1.408   1.287
 2707SOL     OW 8139   4.456   0.634   1.064
 2707SOL    HW1 8140   4.515   0.608   0.988
 2707SOL    HW2 8141   4.428   0.730   1.053
 2708SOL     OW 8142   4.031   0.063   0.618
 2708SOL    HW1 8143   4.020   0.157   0.651
 2708SOL    HW2 8144   4.026   0.000   0.695
 2709SOL     OW 8145   4.747   0.766   0.966
 2709SOL    HW1 8146   4.762   0.787   1.062
 2709SOL    HW2 8147   4.717   0.671   0.957
 2710SOL     OW 8148   4.704   1.573   1.700
 2710SOL    HW1 8149   4.684   1.617   1.612
 2710SOL    HW2 8150   4.743   1.482   1.684
 2711SOL     OW 8151   4.074   0.898   1.804
 2711SOL    HW1 8152   4.150   0.942   1.852
 2711SOL    HW2 8153   4.109   0.851   1.722
 2712SOL     OW 8154   4.043   0.810   0.949
 2712SOL    HW1 8155   4.136   0.846   0.954
 2712SOL    HW2 8156   4.037   0.725   1.001
 2713SOL     OW 8157   4.063   0.509   1.006
 2713SOL    HW1 8158   4.011   0.426   0.989
 2713SOL    HW2 8159   4.140   0.514   0.942
 2714SOL     OW 8160   3.732   1.326   0.200
 2714SOL    HW1 8161   3.639   1.347   0.169
 2714SOL    HW2 8162   3.742   1.227   0.213
 2715SOL     OW 8163   3.812   1.801   0.927
 2715SOL    HW1 8164   3.770   1.715   0.900
 2715SOL    HW2 8165   3.906   1.804   0.893
 2716SOL     OW 8166   4.228   1.568   0.910
 2716SOL    HW1 8167   4.294   1.642   0.919
 2716SOL    HW2 8168   4.272   1.489   0.868
 2717SOL     OW 8169   3.764   0.544   1.114
 2717SOL    HW1 8170   3.849   0.511   1.073
 2717SOL    HW2 8171   3.777   0.559   1.212
 2718SOL     OW 8172   3.913   0.520   1.722
 2718SOL    HW1 8173   3.972   0.480   1.652
 2718SOL    HW2 8174   3.855   0.591   1.681
 2719SOL     OW 8175   4.539   0.572   0.325
 2719SOL    HW1 8176   4.546   0.483   0.279
 2719SOL    HW2 8177   4.445   0.606   0.317
 2720SOL     OW 8178   3.976   1.564   1.744
 2720SOL    HW1 8179   3.946   1.621   1.820
 2720SOL    HW2 8180   3.969   1.467   1.770
 2721SOL     OW 8181   4.395   0.464   1.269
 2721SOL    HW1 8182   4.361   0.375   1.239
 2721SOL    HW2 8183   4.421   0.518   1.189
 2722SOL     OW 8184   4.197   0.500   0.191
 2722SOL    HW1 8185   4.258   0.580   0.195
 2722SOL    HW2 8186   4.102   0.531   0.198
 2723SOL     OW 8187   3.883   1.137   1.466
 2723SOL    HW1 8188   3.905   1.076   1.542
 2723SOL    HW2 8189   3.893   1.088   1.380
 2724SOL     OW 8190   3.807   1.258   1.022
 2724SOL    HW1 8191   3.802   1.257   1.122
 2724SOL    HW2 8192   3.724   1.217   0.984
 2725SOL     OW 8193   4.412   1.662   1.716
 2725SOL    HW1 8194   4.356   1.743   1.725
 2725SOL    HW2 8195   4.464   1.666   1.630
 2726SOL     OW 8196   4.627   0.086   0.133
 2726SOL    HW1 8197   4.678   0.087   0.047
 2726SOL    HW2 8198   4.683   0.044   0.204
 2727SOL     OW 8199   3.854   1.794   1.851
 2727SOL    HW1 8200   3.813   1.720   1.904
 2727SOL    HW2 8201   3.918   1.845   1.909
 2728SOL     OW 8202   4.554   1.273   1.422
 2728SOL    HW1 8203   4.549   1.306   1.517
 2728SOL    HW2 8204   4.468   1.292   1.376
 2729SOL     OW 8205   4.396   1.616   0.154
 2729SOL    HW1 8206   4.405   1.626   0.055
 2729SOL    HW2 8207   4.356   1.527   0.175
 2730SOL     OW 8208   3.987   0.326   0.720
 2730SOL    HW1 8209   3.908   0.377   0.686
 2730SOL    HW2 8210   3.978   0.311   0.818
 2731SOL     OW 8211   4.918   1.612   0.031
 2731SOL    HW1 8212   4.924   1.519   0.068
 2731SOL    HW2 8213   4.859   1.612  -0.049
 2732SOL     OW 8214   4.546   1.002   1.372
 2732SOL    HW1 8215   4.586   1.001   1.280
 2732SOL    HW2 8216   4.556   1.094   1.412
 2733SOL     OW 8217   4.096   1.288   1.490
 2733SOL    HW1 8218   4.083   1.381   1.456
 2733SOL    HW2 8219   4.012   1.236   1.477
 2734SOL     OW 8220   4.314   1.487   0.491
 2734SOL    HW1 8221   4.356   1.429   0.421
 2734SOL    HW2 8222   4.270   1.566   0.447
 2735SOL     OW 8223   3.979   1.348   0.290
 2735SOL    HW1 8224   3.883   1.349   0.263
 2735SOL    HW2 8225   3.991   1.401   0.374
 2736SOL     OW 8226   3.829   1.013   1.726
 2736SOL    HW1 8227   3.752   0.980   1.780
 2736SOL    HW2 8228   3.914   0.983   1.768
 2737SOL     OW 8229   4.396   0.203   1.489
 2737SOL    HW1 8230   4.486   0.187   1.449
 2737SOL    HW2 8231   4.404   0.208   1.588
 2738SOL     OW 8232   4.337   0.842   1.431
 2738SOL    HW1 8233   4.393   0.923   1.414
 2738SOL    HW2 8234   4.396   0.762   1.434
 2739SOL     OW 8235   4.440   0.565   1.708
 2739SOL    HW1 8236   4.459   0.630   1.782
 2739SOL    HW2 8237   4.500   0.485   1.717
 2740SOL     OW 8238   4.114   1.741   1.560
 2740SOL    HW1 8239   4.023   1.782   1.558
 2740SOL    HW2 8240   4.107   1.647   1.592
 2741SOL     OW 8241   4.318   0.745   0.652
 2741SOL    HW1 8242   4.368   0.830   0.633
 2741SOL    HW2 8243   4.230   0.747   0.604
 2742SOL     OW 8244   4.385   1.790   0.953
 2742SOL    HW1 8245   4.339   1.878   0.940
 2742SOL    HW2 8246   4.484   1.802   0.946
 2743SOL     OW 8247   4.583   0.956   0.861
 2743SOL    HW1 8248   4.637   0.887   0.909
 2743SOL    HW2 8249   4.551   1.025   0.927
 2744SOL     OW 8250   3.945   1.314   1.844
 2744SOL    HW1 8251   3.880   1.241   1.823
 2744SOL    HW2 8252   3.949   1.328   1.942
 2745SOL     OW 8253   3.803   1.240   0.653
 2745SOL    HW1 8254   3.802   1.193   0.741
 2745SOL    HW2 8255   3.885   1.212   0.602
 2746SOL     OW 8256   4.396   1.391   1.624
 2746SOL    HW1 8257   4.318   1.341   1.662
 2746SOL    HW2 8258   4.393   1.486   1.655
 2747SOL     OW 8259   4.152   0.424   0.520
 2747SOL    HW1 8260   4.182   0.352   0.458
 2747SOL    HW2 8261   4.113   0.384   0.603
 2748SOL     OW 8262   4.041   0.547   1.280
 2748SOL    HW1 8263   4.079   0.488   1.352
 2748SOL    HW2 8264   4.081   0.521   1.192
 2749SOL     OW 8265   4.536   1.586   0.687
 2749SOL    HW1 8266   4.568   1.596   0.593
 2749SOL    HW2 8267   4.457   1.524   0.689
 2750SOL     OW 8268   4.725   0.034   1.154
 2750SOL    HW1 8269   4.662  -0.038   1.123
 2750SOL    HW2 8270   4.818  -0.002   1.154
 2751SOL     OW 8271   4.494   1.330   0.301
 2751SOL    HW1 8272   4.448   1.243   0.318
 2751SOL    HW2 8273   4.585   1.327   0.342
 2752SOL     OW 8274   4.342   1.567   1.284
 2752SOL    HW1 8275   4.337   1.649   1.341
 2752SOL    HW2 8276   4.431   1.564   1.239
 2753SOL     OW 8277   3.763   1.077   0.300
 2753SOL    HW1 8278   3.862   1.066   0.291
 2753SOL    HW2 8279   3.723   0.991   0.332
 2754SOL     OW 8280   4.599   1.646   0.337
 2754SOL    HW1 8281   4.522   1.611   0.283
 2754SOL    HW2 8282   4.567   1.717   0.399
 2755SOL     OW 8283   3.954   0.628   1.975
 2755SOL    HW1 8284   3.861   0.626   2.012
 2755SOL    HW2 8285   3.955   0.589   1.883
 2756SOL     OW 8286   3.949   0.275   2.858
 2756SOL    HW1 8287   3.984   0.258   2.950
 2756SOL    HW2 8288   3.861   0.230   2.846
 2757SOL     OW 8289   3.743   0.368   2.509
 2757SOL    HW1 8290   3.661   0.411   2.548
 2757SOL    HW2 8291   3.715   0.295   2.446
 2758SOL     OW 8292   4.293   1.275   3.027
 2758SOL    HW1 8293   4.200   1.268   2.990
 2758SOL    HW2 8294   4.304   1.364   3.071
 2759SOL     OW 8295   4.492   1.144   2.885
 2759SOL    HW1 8296   4.414   1.161   2.945
 2759SOL    HW2 8297   4.526   1.231   2.849
 2760SOL     OW 8298   4.574   0.798   3.685
 2760SOL    HW1 8299   4.570   0.874   3.750
 2760SOL    HW2 8300   4.596   0.834   3.594
 2761SOL     OW 8301   4.409   1.012   2.527
 2761SOL    HW1 8302   4.478   0.996   2.597
 2761SOL    HW2 8303   4.336   1.069   2.565
 2762SOL     OW 8304   4.410   1.161   3.665
 2762SOL    HW1 8305   4.470   1.240   3.679
 2762SOL    HW2 8306   4.324   1.192   3.624
 2763SOL     OW 8307   4.059   1.435   2.923
 2763SOL    HW1 8308   3.981   1.404   2.870
 2763SOL    HW2 8309   4.117   1.493   2.866
 2764SOL     OW 8310   4.162   0.392   3.361
 2764SOL    HW1 8311   4.244   0.336   3.370
 2764SOL    HW2 8312   4.081   0.334   3.365
 2765SOL     OW 8313   3.955   1.713   2.345
 2765SOL    HW1 8314   3.989   1.790   2.399
 2765SOL    HW2 8315   3.999   1.713   2.255
 2766SOL     OW 8316   3.954   1.434   2.400
 2766SOL    HW1 8317   3.928   1.530   2.400
 2766SOL    HW2 8318   3.883   1.380   2.445
 2767SOL     OW 8319   3.964   1.091   2.748
 2767SOL    HW1 8320   3.978   1.007   2.800
 2767SOL    HW2 8321   3.909   1.155   2.803
 2768SOL     OW 8322   4.344   1.786   3.301
 2768SOL    HW1 8323   4.252   1.769   3.336
 2768SOL    HW2 8324   4.372   1.878   3.327
 2769SOL     OW 8325   4.330   0.964   1.985
 2769SOL    HW1 8326   4.337   1.048   1.931
 2769SOL    HW2 8327   4.376   0.977   2.073
 2770SOL     OW 8328   3.846   0.643   2.425
 2770SOL    HW1 8329   3.801   0.555   2.442
 2770SOL    HW2 8330   3.845   0.697   2.509
 2771SOL     OW 8331   3.751   1.596   1.979
 2771SOL    HW1 8332   3.732   1.500   2.000
 2771SOL    HW2 8333   3.718   1.654   2.054
 2772SOL     OW 8334   3.837   0.737   3.459
 2772SOL    HW1 8335   3.925   0.724   3.504
 2772SOL    HW2 8336   3.824   0.834   3.437
 2773SOL     OW 8337   4.337   1.365   2.588
 2773SOL    HW1 8338   4.288   1.278   2.597
 2773SOL    HW2 8339   4.314   1.408   2.501
 2774SOL     OW 8340   4.533   0.004   2.364
 2774SOL    HW1 8341   4.573   0.095   2.355
 2774SOL    HW2 8342   4.433   0.012   2.370
 2775SOL     OW 8343   3.921   0.976   3.126
 2775SOL    HW1 8344   4.010   0.931   3.112
 2775SOL    HW2 8345   3.848   0.911   3.107
 2776SOL     OW 8346   4.041   0.251   3.663
 2776SOL    HW1 8347   4.112   0.322   3.669
 2776SOL    HW2 8348   3.953   0.290   3.691
 2777SOL     OW 8349   4.322   0.729   2.132
 2777SOL    HW1 8350   4.346   0.798   2.064
 2777SOL    HW2 8351   4.244   0.762   2.186
 2778SOL     OW 8352   4.531   0.605   3.327
 2778SOL    HW1 8353   4.484   0.602   3.416
 2778SOL    HW2 8354   4.480   0.550   3.261
 2779SOL     OW 8355   3.800   0.811   2.651
 2779SOL    HW1 8356   3.899   0.799   2.660
 2779SOL    HW2 8357   3.776   0.906   2.672
 2780SOL     OW 8358   3.854   1.821   3.433
 2780SOL    HW1 8359   3.844   1.806   3.532
 2780SOL    HW2 8360   3.768   1.857   3.397
 2781SOL     OW 8361   4.589   0.348   2.057
 2781SOL    HW1 8362   4.648   0.411   2.008
 2781SOL    HW2 8363   4.608   0.254   2.028
 2782SOL     OW 8364   4.274   0.196   2.747
 2782SOL    HW1 8365   4.269   0.191   2.847
 2782SOL    HW2 8366   4.276   0.292   2.718
 2783SOL     OW 8367   4.732   1.456   2.339
 2783SOL    HW1 8368   4.686   1.528   2.287
 2783SOL    HW2 8369   4.728   1.476   2.437
 2784SOL     OW 8370   4.075   1.801   2.715
 2784SOL    HW1 8371   4.125   1.715   2.721
 2784SOL    HW2 8372   4.140   1.878   2.712
 2785SOL     OW 8373   4.045   0.943   2.104
 2785SOL    HW1 8374   4.127   0.982   2.062
 2785SOL    HW2 8375   4.018   0.861   2.055
 2786SOL     OW 8376   4.185   1.266   3.589
 2786SOL    HW1 8377   4.135   1.267   3.503
 2786SOL    HW2 8378   4.122   1.248   3.665
 2787SOL     OW 8379   4.835   1.776   2.099
 2787SOL    HW1 8380   4.775   1.714   2.149
 2787SOL    HW2 8381   4.866   1.732   2.014
 2788SOL     OW 8382   3.926   0.285   3.360
 2788SOL    HW1 8383   3.846   0.345   3.347
 2788SOL    HW2 8384   3.916   0.236   3.446
 2789SOL     OW 8385   4.188   1.743   2.185
 2789SOL    HW1 8386   4.221   1.782   2.271
 2789SOL    HW2 8387   4.264   1.736   2.120
 2790SOL     OW 8388   3.973   1.785   3.103
 2790SOL    HW1 8389   4.030   1.720   3.153
 2790SOL    HW2 8390   3.957   1.752   3.010
 2791SOL     OW 8391   4.106   0.700   2.342
 2791SOL    HW1 8392   4.151   0.610   2.339
 2791SOL    HW2 8393   4.012   0.689   2.375
 2792SOL     OW 8394   4.338   0.122   1.979
 2792SOL    HW1 8395   4.436   0.100   1.986
 2792SOL    HW2 8396   4.307   0.105   1.886
 2793SOL     OW 8397   4.505   0.264   3.611
 2793SOL    HW1 8398   4.572   0.203   3.654
 2793SOL    HW2 8399   4.432   0.283   3.676
 2794SOL     OW 8400   4.527   1.402   2.786
 2794SOL    HW1 8401   4.617   1.416   2.744
 2794SOL    HW2 8402   4.456   1.404   2.715
 2795SOL     OW 8403   4.646   0.503   2.761
 2795SOL    HW1 8404   4.621   0.494   2.665
 2795SOL    HW2 8405   4.694   0.421   2.792
 2796SOL     OW 8406   4.263   0.064   2.374
 2796SOL    HW1 8407   4.182   0.065   2.432
 2796SOL    HW2 8408   4.266   0.147   2.319
 2797SOL     OW 8409   4.021   0.035   2.033
 2797SOL    HW1 8410   4.070   0.119   2.012
 2797SOL    HW2 8411   4.083  -0.030   2.078
 2798SOL     OW 8412   4.183   1.152   2.603
 2798SOL    HW1 8413   4.112   1.125   2.668
 2798SOL    HW2 8414   4.157   1.124   2.510
 2799SOL     OW 8415   3.802   0.556   3.248
 2799SOL    HW1 8416   3.894   0.555   3.207
 2799SOL    HW2 8417   3.796   0.630   3.315
 2800SOL     OW 8418   4.285   0.222   3.009
 2800SOL    HW1 8419   4.323   0.138   3.046
 2800SOL    HW2 8420   4.197   0.241   3.053
 2801SOL     OW 8421   4.212   1.385   2.036
 2801SOL    HW1 8422   4.125   1.370   2.083
 2801SOL    HW2 8423   4.195   1.411   1.941
 2802SOL     OW 8424   4.251   0.256   2.190
 2802SOL    HW1 8425   4.278   0.197   2.115
 2802SOL    HW2 8426   4.251   0.351   2.159
 2803SOL     OW 8427   4.639   0.089   3.264
 2803SOL    HW1 8428   4.664   0.069   3.169
 2803SOL    HW2 8429   4.711   0.145   3.306
 2804SOL     OW 8430   4.429   1.050   2.230
 2804SOL    HW1 8431   4.415   1.057   2.329
 2804SOL    HW2 8432   4.513   0.999   2.212
 2805SOL     OW 8433   4.134   0.813   3.113
 2805SOL    HW1 8434   4.220   0.825   3.163
 2805SOL    HW2 8435   4.092   0.726   3.140
 2806SOL     OW 8436   3.788   1.564   3.193
 2806SOL    HW1 8437   3.742   1.646   3.159
 2806SOL    HW2 8438   3.886   1.583   3.202
 2807SOL     OW 8439   4.091   1.100   2.363
 2807SOL    HW1 8440   4.084   1.183   2.307
 2807SOL    HW2 8441   4.095   1.020   2.303
 2808SOL     OW 8442   4.290   0.537   2.727
 2808SOL    HW1 8443   4.302   0.603   2.653
 2808SOL    HW2 8444   4.336   0.571   2.810
 2809SOL     OW 8445   4.078   1.510   3.191
 2809SOL    HW1 8446   4.057   1.466   3.104
 2809SOL    HW2 8447   4.175   1.536   3.194
 2810SOL     OW 8448   4.126   0.751   3.460
 2810SOL    HW1 8449   4.194   0.806   3.413
 2810SOL    HW2 8450   4.166   0.663   3.487
 2811SOL     OW 8451   4.228   0.050   3.602
 2811SOL    HW1 8452   4.186  -0.007   3.532
 2811SOL    HW2 8453   4.162   0.119   3.634
 2812SOL     OW 8454   4.297   0.870   2.891
 2812SOL    HW1 8455   4.341   0.959   2.882
 2812SOL    HW2 8456   4.234   0.870   2.968
 2813SOL     OW 8457   4.933   0.525   2.137
 2813SOL    HW1 8458   4.946   0.441   2.191
 2813SOL    HW2 8459   4.904   0.599   2.197
 2814SOL     OW 8460   4.031   0.213   3.093
 2814SOL    HW1 8461   4.008   0.250   3.183
 2814SOL    HW2 8462   4.001   0.118   3.087
 2815SOL     OW 8463   3.761   1.310   3.144
 2815SOL    HW1 8464   3.814   1.261   3.212
 2815SOL    HW2 8465   3.783   1.408   3.149
 2816SOL     OW 8466   4.456   0.634   2.926
 2816SOL    HW1 8467   4.515   0.608   2.850
 2816SOL    HW2 8468   4.428   0.730   2.915
 2817SOL     OW 8469   4.031   0.063   2.480
 2817SOL    HW1 8470   4.020   0.157   2.513
 2817SOL    HW2 8471   4.026   0.000   2.557
 2818SOL     OW 8472   4.747   0.766   2.828
 2818SOL    HW1 8473   4.762   0.787   2.924
 2818SOL    HW2 8474   4.717   0.671   2.819
 2819SOL     OW 8475   4.704   1.573   3.562
 2819SOL    HW1 8476   4.684   1.617   3.474
 2819SOL    HW2 8477   4.743   1.482   3.546
 2820SOL     OW 8478   4.074   0.898   3.666
 2820SOL    HW1 8479   4.150   0.942   3.714
 2820SOL    HW2 8480   4.109   0.851   3.584
 2821SOL     OW 8481   4.043   0.810   2.811
 2821SOL    HW1 8482   4.136   0.846   2.816
 2821SOL    HW2 8483   4.037   0.725   2.863
 2822SOL     OW 8484   4.063   0.509   2.868
 2822SOL    HW1 8485   4.011   0.426   2.851
 2822SOL    HW2 8486   4.140   0.514   2.804
 2823SOL     OW 8487   3.732   1.326   2.062
 2823SOL    HW1 8488   3.639   1.347   2.031
 2823SOL    HW2 8489   3.742   1.227   2.075
 2824SOL     OW 8490   3.812   1.801   2.789
 2824SOL    HW1 8491   3.770   1.715   2.762
 2824SOL    HW2 8492   3.906   1.804   2.755
 2825SOL     OW 8493   4.228   1.568   2.772
 2825SOL    HW1 8494   4.294   1.642   2.781
 2825SOL    HW2 8495   4.272   1.489   2.730
 2826SOL     OW 8496   3.764   0.544   2.976
 2826SOL    HW1 8497   3.849   0.511   2.935
 2826SOL    HW2 8498   3.777   0.559   3.074
 2827SOL     OW 8499   3.913   0.520   3.584
 2827SOL    HW1 8500   3.972   0.480   3.514
 2827SOL    HW2 8501   3.855   0.591   3.543
 2828SOL     OW 8502   4.539   0.572   2.187
 2828SOL    HW1 8503   4.546   0.483   2.141
 2828SOL    HW2 8504   4.445   0.606   2.179
 2829SOL     OW 8505   3.976   1.564   3.606
 2829SOL    HW1 8506   3.946   1.621   3.682
 2829SOL    HW2 8507   3.969   1.467   3.632
 2830SOL     OW 8508   4.395   0.464   3.131
 2830SOL    HW1 8509   4.361   0.375   3.101
 2830SOL    HW2 8510   4.421   0.518   3.051
 2831SOL     OW 8511   4.197   0.500   2.053
 2831SOL    HW1 8512   4.258   0.580   2.057
 2831SOL    HW2 8513   4.102   0.531   2.060
 2832SOL     OW 8514   3.883   1.137   3.328
 2832SOL    HW1 8515   3.905   1.076   3.404
 2832SOL    HW2 8516   3.893   1.088   3.242
 2833SOL     OW 8517   3.807   1.258   2.884
 2833SOL    HW1 8518   3.802   1.257   2.984
 2833SOL    HW2 8519   3.724   1.217   2.846
 2834SOL     OW 8520   4.412   1.662   3.578
 2834SOL    HW1 8521   4.356   1.743   3.587
 2834SOL    HW2 8522   4.464   1.666   3.492
 2835SOL     OW 8523   4.627   0.086   1.995
 2835SOL    HW1 8524   4.678   0.087   1.909
 2835SOL    HW2 8525   4.683   0.044   2.066
 2836SOL     OW 8526   3.854   1.794   3.713
 2836SOL    HW1 8527   3.813   1.720   3.766
 2836SOL    HW2 8528   3.918   1.845   3.771
 2837SOL     OW 8529   4.554   1.273   3.284
 2837SOL    HW1 8530   4.549   1.306   3.379
 2837SOL    HW2 8531   4.468   1.292   3.238
 2838SOL     OW 8532   4.396   1.616   2.016
 2838SOL    HW1 8533   4.405   1.626   1.917
 2838SOL    HW2 8534   4.356   1.527   2.037
 2839SOL     OW 8535   3.987   0.326   2.582
 2839SOL    HW1 8536   3.908   0.377   2.548
 2839SOL    HW2 8537   3.978   0.311   2.680
 2840SOL     OW 8538   4.546   1.002   3.234
 2840SOL    HW1 8539   4.586   1.001   3.142
 2840SOL    HW2 8540   4.556   1.094   3.274
 2841SOL     OW 8541   4.096   1.288   3.352
 2841SOL    HW1 8542   4.083   1.381   3.318
 2841SOL    HW2 8543   4.012   1.236   3.339
 2842SOL     OW 8544   4.314   1.487   2.353
 2842SOL    HW1 8545   4.356   1.429   2.283
 2842SOL    HW2 8546   4.270   1.566   2.309
 2843SOL     OW 8547   3.979   1.348   2.152
 2843SOL    HW1 8548   3.883   1.349   2.125
 2843SOL    HW2 8549   3.991   1.401   2.236
 2844SOL     OW 8550   3.829   1.013   3.588
 2844SOL    HW1 8551   3.752   0.980   3.642
 2844SOL    HW2 8552   3.914   0.983   3.630
 2845SOL     OW 8553   4.396   0.203   3.351
 2845SOL    HW1 8554   4.486   0.187   3.311
 2845SOL    HW2 8555   4.404   0.208   3.450
 2846SOL     OW 8556   3.799   0.345   1.895
 2846SOL    HW1 8557   3.707   0.317   1.866
 2846SOL    HW2 8558   3.830   0.422   1.839
 2847SOL     OW 8559   3.796   0.166   2.180
 2847SOL    HW1 8560   3.779   0.249   2.126
 2847SOL    HW2 8561   3.886   0.129   2.158
 2848SOL     OW 8562   4.337   0.842   3.293
 2848SOL    HW1 8563   4.393   0.923   3.276
 2848SOL    HW2 8564   4.396   0.762   3.296
 2849SOL     OW 8565   4.440   0.565   3.570
 2849SOL    HW1 8566   4.459   0.630   3.644
 2849SOL    HW2 8567   4.500   0.485   3.579
 2850SOL     OW 8568   4.114   1.741   3.422
 2850SOL    HW1 8569   4.023   1.782   3.420
 2850SOL    HW2 8570   4.107   1.647   3.454
 2851SOL     OW 8571   4.318   0.745   2.514
 2851SOL    HW1 8572   4.368   0.830   2.495
 2851SOL    HW2 8573   4.230   0.747   2.466
 2852SOL     OW 8574   4.385   1.790   2.815
 2852SOL    HW1 8575   4.339   1.878   2.802
 2852SOL    HW2 8576   4.484   1.802   2.808
 2853SOL     OW 8577   4.583   0.956   2.723
 2853SOL    HW1 8578   4.637   0.887   2.771
 2853SOL    HW2 8579   4.551   1.025   2.789
 2854SOL     OW 8580   3.945   1.314   3.706
 2854SOL    HW1 8581   3.880   1.241   3.685
 2854SOL    HW2 8582   3.949   1.328   3.804
 2855SOL     OW 8583   3.803   1.240   2.515
 2855SOL    HW1 8584   3.802   1.193   2.603
 2855SOL    HW2 8585   3.885   1.212   2.464
 2856SOL     OW 8586   4.396   1.391   3.486
 2856SOL    HW1 8587   4.318   1.341   3.524
 2856SOL    HW2 8588   4.393   1.486   3.517
 2857SOL     OW 8589   4.152   0.424   2.382
 2857SOL    HW1 8590   4.182   0.352   2.320
 2857SOL    HW2 8591   4.113   0.384   2.465
 2858SOL     OW 8592   4.041   0.547   3.142
 2858SOL    HW1 8593   4.079   0.488   3.214
 2858SOL    HW2 8594   4.081   0.521   3.054
 2859SOL     OW 8595   4.536   1.586   2.549
 2859SOL    HW1 8596   4.568   1.596   2.455
 2859SOL    HW2 8597   4.457   1.524   2.551
 2860SOL     OW 8598   4.725   0.034   3.016
 2860SOL    HW1 8599   4.662  -0.038   2.985
 2860SOL    HW2 8600   4.818  -0.002   3.016
 2861SOL     OW 8601   4.494   1.330   2.163
 2861SOL    HW1 8602   4.448   1.243   2.180
 2861SOL    HW2 8603   4.585   1.327   2.204
 2862SOL     OW 8604   4.342   1.567   3.146
 2862SOL    HW1 8605   4.337   1.649   3.203
 2862SOL    HW2 8606   4.431   1.564   3.101
 2863SOL     OW 8607   3.763   1.077   2.162
 2863SOL    HW1 8608   3.862   1.066   2.153
 2863SOL    HW2 8609   3.723   0.991   2.194
 2864SOL     OW 8610   4.599   1.646   2.199
 2864SOL    HW1 8611   4.522   1.611   2.145
 2864SOL    HW2 8612   4.567   1.717   2.261
 2865SOL     OW 8613   3.954   0.628   3.837
 2865SOL    HW1 8614   3.861   0.626   3.874
 2865SOL    HW2 8615   3.955   0.589   3.745
 2866SOL     OW 8616   3.949   0.275   4.720
 2866SOL    HW1 8617   3.984   0.258   4.812
 2866SOL    HW2 8618   3.861   0.230   4.708
 2867SOL     OW 8619   3.743   0.368   4.371
 2867SOL    HW1 8620   3.661   0.411   4.410
 2867SOL    HW2 8621   3.715   0.295   4.308
 2868SOL     OW 8622   4.492   1.144   4.747
 2868SOL    HW1 8623   4.414   1.161   4.807
 2868SOL    HW2 8624   4.526   1.231   4.711
 2869SOL     OW 8625   4.409   1.012   4.389
 2869SOL    HW1 8626   4.478   0.996   4.459
 2869SOL    HW2 8627   4.336   1.069   4.427
 2870SOL     OW 8628   3.955   1.713   4.207
 2870SOL    HW1 8629   3.989   1.790   4.261
 2870SOL    HW2 8630   3.999   1.713   4.117
 2871SOL     OW 8631   3.954   1.434   4.262
 2871SOL    HW1 8632   3.928   1.530   4.262
 2871SOL    HW2 8633   3.883   1.380   4.307
 2872SOL     OW 8634   3.964   1.091   4.610
 2872SOL    HW1 8635   3.978   1.007   4.662
 2872SOL    HW2 8636   3.909   1.155   4.665
 2873SOL     OW 8637   4.330   0.964   3.847
 2873SOL    HW1 8638   4.337   1.048   3.793
 2873SOL    HW2 8639   4.376   0.977   3.935
 2874SOL     OW 8640   3.846   0.643   4.287
 2874SOL    HW1 8641   3.801   0.555   4.304
 2874SOL    HW2 8642   3.845   0.697   4.371
 2875SOL     OW 8643   3.751   1.596   3.841
 2875SOL    HW1 8644   3.732   1.500   3.862
 2875SOL    HW2 8645   3.718   1.654   3.916
 2876SOL     OW 8646   4.337   1.365   4.450
 2876SOL    HW1 8647   4.288   1.278   4.459
 2876SOL    HW2 8648   4.314   1.408   4.363
 2877SOL     OW 8649   4.533   0.004   4.226
 2877SOL    HW1 8650   4.573   0.095   4.217
 2877SOL    HW2 8651   4.433   0.012   4.232
 2878SOL     OW 8652   4.322   0.729   3.994
 2878SOL    HW1 8653   4.346   0.798   3.926
 2878SOL    HW2 8654   4.244   0.762   4.048
 2879SOL     OW 8655   3.800   0.811   4.513
 2879SOL    HW1 8656   3.899   0.799   4.522
 2879SOL    HW2 8657   3.776   0.906   4.534
 2880SOL     OW 8658   4.589   0.348   3.919
 2880SOL    HW1 8659   4.648   0.411   3.870
 2880SOL    HW2 8660   4.608   0.254   3.890
 2881SOL     OW 8661   4.732   1.456   4.201
 2881SOL    HW1 8662   4.686   1.528   4.149
 2881SOL    HW2 8663   4.728   1.476   4.299
 2882SOL     OW 8664   4.075   1.801   4.577
 2882SOL    HW1 8665   4.125   1.715   4.583
 2882SOL    HW2 8666   4.140   1.878   4.574
 2883SOL     OW 8667   4.045   0.943   3.966
 2883SOL    HW1 8668   4.127   0.982   3.924
 2883SOL    HW2 8669   4.018   0.861   3.917
 2884SOL     OW 8670   4.835   1.776   3.961
 2884SOL    HW1 8671   4.775   1.714   4.011
 2884SOL    HW2 8672   4.866   1.732   3.876
 2885SOL     OW 8673   4.188   1.743   4.047
 2885SOL    HW1 8674   4.221   1.782   4.133
 2885SOL    HW2 8675   4.264   1.736   3.982
 2886SOL     OW 8676   4.106   0.700   4.204
 2886SOL    HW1 8677   4.151   0.610   4.201
 2886SOL    HW2 8678   4.012   0.689   4.237
 2887SOL     OW 8679   4.338   0.122   3.841
 2887SOL    HW1 8680   4.436   0.100   3.848
 2887SOL    HW2 8681   4.307   0.105   3.748
 2888SOL     OW 8682   4.527   1.402   4.648
 2888SOL    HW1 8683   4.617   1.416   4.606
 2888SOL    HW2 8684   4.456   1.404   4.577
 2889SOL     OW 8685   4.263   0.064   4.236
 2889SOL    HW1 8686   4.182   0.065   4.294
 2889SOL    HW2 8687   4.266   0.147   4.181
 2890SOL     OW 8688   4.021   0.035   3.895
 2890SOL    HW1 8689   4.070   0.119   3.874
 2890SOL    HW2 8690   4.083  -0.030   3.940
 2891SOL     OW 8691   4.183   1.152   4.465
 2891SOL    HW1 8692   4.112   1.125   4.530
 2891SOL    HW2 8693   4.157   1.124   4.372
 2892SOL     OW 8694   4.212   1.385   3.898
 2892SOL    HW1 8695   4.125   1.370   3.945
 2892SOL    HW2 8696   4.195   1.411   3.803
 2893SOL     OW 8697   4.251   0.256   4.052
 2893SOL    HW1 8698   4.278   0.197   3.977
 2893SOL    HW2 8699   4.251   0.351   4.021
 2894SOL     OW 8700   4.429   1.050   4.092
 2894SOL    HW1 8701   4.415   1.057   4.191
 2894SOL    HW2 8702   4.513   0.999   4.074
 2895SOL     OW 8703   4.091   1.100   4.225
 2895SOL    HW1 8704   4.084   1.183   4.169
 2895SOL    HW2 8705   4.095   1.020   4.165
 2896SOL     OW 8706   4.290   0.537   4.589
 2896SOL    HW1 8707   4.302   0.603   4.515
 2896SOL    HW2 8708   4.336   0.571   4.672
 2897SOL     OW 8709   4.933   0.525   3.999
 2897SOL    HW1 8710   4.946   0.441   4.053
 2897SOL    HW2 8711   4.904   0.599   4.059
 2898SOL     OW 8712   4.456   0.634   4.788
 2898SOL    HW1 8713   4.515   0.608   4.712
 2898SOL    HW2 8714   4.428   0.730   4.777
 2899SOL     OW 8715   4.031   0.063   4.342
 2899SOL    HW1 8716   4.020   0.157   4.375
 2899SOL    HW2 8717   4.026   0.000   4.419
 2900SOL     OW 8718   4.747   0.766   4.690
 2900SOL    HW1 8719   4.762   0.787   4.786
 2900SOL    HW2 8720   4.717   0.671   4.681
 2901SOL     OW 8721   3.732   1.326   3.924
 2901SOL    HW1 8722   3.639   1.347   3.893
 2901SOL    HW2 8723   3.742   1.227   3.937
 2902SOL     OW 8724   3.812   1.801   4.651
 2902SOL    HW1 8725   3.770   1.715   4.624
 2902SOL    HW2 8726   3.906   1.804   4.617
 2903SOL     OW 8727   4.228   1.568   4.634
 2903SOL    HW1 8728   4.294   1.642   4.643
 2903SOL    HW2 8729   4.272   1.489   4.592
 2904SOL     OW 8730   4.539   0.572   4.049
 2904SOL    HW1 8731   4.546   0.483   4.003
 2904SOL    HW2 8732   4.445   0.606   4.041
 2905SOL     OW 8733   4.197   0.500   3.915
 2905SOL    HW1 8734   4.258   0.580   3.919
 2905SOL    HW2 8735   4.102   0.531   3.922
 2906SOL     OW 8736   4.627   0.086   3.857
 2906SOL    HW1 8737   4.678   0.087   3.771
 2906SOL    HW2 8738   4.683   0.044   3.928
 2907SOL     OW 8739   4.396   1.616   3.878
 2907SOL    HW1 8740   4.405   1.626   3.779
 2907SOL    HW2 8741   4.356   1.527   3.899
 2908SOL     OW 8742   3.987   0.326   4.444
 2908SOL    HW1 8743   3.908   0.377   4.410
 2908SOL    HW2 8744   3.978   0.311   4.542
 2909SOL     OW 8745   4.314   1.487   4.215
 2909SOL    HW1 8746   4.356   1.429   4.145
 2909SOL    HW2 8747   4.270   1.566   4.171
 2910SOL     OW 8748   3.979   1.348   4.014
 2910SOL    HW1 8749   3.883   1.349   3.987
 2910SOL    HW2 8750   3.991   1.401   4.098
 2911SOL     OW 8751   3.799   0.345   3.757
 2911SOL    HW1 8752   3.707   0.317   3.728
 2911SOL    HW2 8753   3.830   0.422   3.701
 2912SOL     OW 8754   3.796   0.166   4.042
 2912SOL    HW1 8755   3.779   0.249   3.988
 2912SOL    HW2 8756   3.886   0.129   4.020
 2913SOL     OW 8757   4.318   0.745   4.376
 2913SOL    HW1 8758   4.368   0.830   4.357
 2913SOL    HW2 8759   4.230   0.747   4.328
 2914SOL     OW 8760   4.385   1.790   4.677
 2914SOL    HW1 8761   4.339   1.878   4.664
 2914SOL    HW2 8762   4.484   1.802   4.670
 2915SOL     OW 8763   4.583   0.956   4.585
 2915SOL    HW1 8764   4.637   0.887   4.633
 2915SOL    HW2 8765   4.551   1.025   4.651
 2916SOL     OW 8766   3.803   1.240   4.377
 2916SOL    HW1 8767   3.802   1.193   4.465
 2916SOL    HW2 8768   3.885   1.212   4.326
 2917SOL     OW 8769   4.152   0.424   4.244
 2917SOL    HW1 8770   4.182   0.352   4.182
 2917SOL    HW2 8771   4.113   0.384   4.327
 2918SOL     OW 8772   4.536   1.586   4.411
 2918SOL    HW1 8773   4.568   1.596   4.317
 2918SOL    HW2 8774   4.457   1.524   4.413
 2919SOL     OW 8775   4.494   1.330   4.025
 2919SOL    HW1 8776   4.448   1.243   4.042
 2919SOL    HW2 8777   4.585   1.327   4.066
 2920SOL     OW 8778   3.763   1.077   4.024
 2920SOL    HW1 8779   3.862   1.066   4.015
 2920SOL    HW2 8780   3.723   0.991   4.056
 2921SOL     OW 8781   4.599   1.646   4.061
 2921SOL    HW1 8782   4.522   1.611   4.007
 2921SOL    HW2 8783   4.567   1.717   4.123
 2922SOL     OW 8784   3.954   2.490   0.113
 2922SOL    HW1 8785   3.861   2.488   0.150
 2922SOL    HW2 8786   3.955   2.451   0.021
 2923SOL     OW 8787   3.949   2.137   0.996
 2923SOL    HW1 8788   3.984   2.120   1.088
 2923SOL    HW2 8789   3.861   2.092   0.984
 2924SOL     OW 8790   3.743   2.230   0.647
 2924SOL    HW1 8791   3.661   2.273   0.686
 2924SOL    HW2 8792   3.715   2.157   0.584
 2925SOL     OW 8793   4.293   3.137   1.165
 2925SOL    HW1 8794   4.200   3.130   1.128
 2925SOL    HW2 8795   4.304   3.226   1.209
 2926SOL     OW 8796   4.492   3.006   1.023
 2926SOL    HW1 8797   4.414   3.023   1.083
 2926SOL    HW2 8798   4.526   3.093   0.987
 2927SOL     OW 8799   4.574   2.660   1.823
 2927SOL    HW1 8800   4.570   2.736   1.888
 2927SOL    HW2 8801   4.596   2.696   1.732
 2928SOL     OW 8802   4.409   2.874   0.665
 2928SOL    HW1 8803   4.478   2.858   0.735
 2928SOL    HW2 8804   4.336   2.931   0.703
 2929SOL     OW 8805   4.410   3.023   1.803
 2929SOL    HW1 8806   4.470   3.102   1.817
 2929SOL    HW2 8807   4.324   3.054   1.762
 2930SOL     OW 8808   4.059   3.297   1.061
 2930SOL    HW1 8809   3.981   3.266   1.008
 2930SOL    HW2 8810   4.117   3.355   1.004
 2931SOL     OW 8811   4.162   2.254   1.499
 2931SOL    HW1 8812   4.244   2.198   1.508
 2931SOL    HW2 8813   4.081   2.196   1.503
 2932SOL     OW 8814   3.955   3.575   0.483
 2932SOL    HW1 8815   3.989   3.652   0.537
 2932SOL    HW2 8816   3.999   3.575   0.393
 2933SOL     OW 8817   3.954   3.296   0.538
 2933SOL    HW1 8818   3.928   3.392   0.538
 2933SOL    HW2 8819   3.883   3.242   0.583
 2934SOL     OW 8820   3.964   2.953   0.886
 2934SOL    HW1 8821   3.978   2.869   0.938
 2934SOL    HW2 8822   3.909   3.017   0.941
 2935SOL     OW 8823   4.344   3.648   1.439
 2935SOL    HW1 8824   4.252   3.631   1.474
 2935SOL    HW2 8825   4.372   3.740   1.465
 2936SOL     OW 8826   4.330   2.826   0.123
 2936SOL    HW1 8827   4.337   2.910   0.069
 2936SOL    HW2 8828   4.376   2.839   0.211
 2937SOL     OW 8829   3.846   2.505   0.563
 2937SOL    HW1 8830   3.801   2.417   0.580
 2937SOL    HW2 8831   3.845   2.559   0.647
 2938SOL     OW 8832   3.837   2.599   1.597
 2938SOL    HW1 8833   3.925   2.586   1.642
 2938SOL    HW2 8834   3.824   2.696   1.575
 2939SOL     OW 8835   4.337   3.227   0.726
 2939SOL    HW1 8836   4.288   3.140   0.735
 2939SOL    HW2 8837   4.314   3.270   0.639
 2940SOL     OW 8838   4.533   1.866   0.502
 2940SOL    HW1 8839   4.573   1.957   0.493
 2940SOL    HW2 8840   4.433   1.874   0.508
 2941SOL     OW 8841   3.921   2.838   1.264
 2941SOL    HW1 8842   4.010   2.793   1.250
 2941SOL    HW2 8843   3.848   2.773   1.245
 2942SOL     OW 8844   4.041   2.113   1.801
 2942SOL    HW1 8845   4.112   2.184   1.807
 2942SOL    HW2 8846   3.953   2.152   1.829
 2943SOL     OW 8847   4.322   2.591   0.270
 2943SOL    HW1 8848   4.346   2.660   0.202
 2943SOL    HW2 8849   4.244   2.624   0.324
 2944SOL     OW 8850   4.531   2.467   1.465
 2944SOL    HW1 8851   4.484   2.464   1.554
 2944SOL    HW2 8852   4.480   2.412   1.399
 2945SOL     OW 8853   3.800   2.673   0.789
 2945SOL    HW1 8854   3.899   2.661   0.798
 2945SOL    HW2 8855   3.776   2.768   0.810
 2946SOL     OW 8856   3.854   3.683   1.571
 2946SOL    HW1 8857   3.844   3.668   1.670
 2946SOL    HW2 8858   3.768   3.719   1.535
 2947SOL     OW 8859   4.589   2.210   0.195
 2947SOL    HW1 8860   4.648   2.273   0.146
 2947SOL    HW2 8861   4.608   2.116   0.166
 2948SOL     OW 8862   4.274   2.058   0.885
 2948SOL    HW1 8863   4.269   2.053   0.985
 2948SOL    HW2 8864   4.276   2.154   0.856
 2949SOL     OW 8865   4.732   3.318   0.477
 2949SOL    HW1 8866   4.686   3.390   0.425
 2949SOL    HW2 8867   4.728   3.338   0.575
 2950SOL     OW 8868   4.075   3.663   0.853
 2950SOL    HW1 8869   4.125   3.577   0.859
 2950SOL    HW2 8870   4.140   3.740   0.850
 2951SOL     OW 8871   4.045   2.805   0.242
 2951SOL    HW1 8872   4.127   2.844   0.200
 2951SOL    HW2 8873   4.018   2.723   0.193
 2952SOL     OW 8874   4.185   3.128   1.727
 2952SOL    HW1 8875   4.135   3.129   1.641
 2952SOL    HW2 8876   4.122   3.110   1.803
 2953SOL     OW 8877   4.835   3.638   0.237
 2953SOL    HW1 8878   4.775   3.576   0.287
 2953SOL    HW2 8879   4.866   3.594   0.152
 2954SOL     OW 8880   3.926   2.147   1.498
 2954SOL    HW1 8881   3.846   2.207   1.485
 2954SOL    HW2 8882   3.916   2.098   1.584
 2955SOL     OW 8883   4.188   3.605   0.323
 2955SOL    HW1 8884   4.221   3.644   0.409
 2955SOL    HW2 8885   4.264   3.598   0.258
 2956SOL     OW 8886   3.973   3.647   1.241
 2956SOL    HW1 8887   4.030   3.582   1.291
 2956SOL    HW2 8888   3.957   3.614   1.148
 2957SOL     OW 8889   4.106   2.562   0.480
 2957SOL    HW1 8890   4.151   2.472   0.477
 2957SOL    HW2 8891   4.012   2.551   0.513
 2958SOL     OW 8892   4.505   2.126   1.749
 2958SOL    HW1 8893   4.572   2.065   1.792
 2958SOL    HW2 8894   4.432   2.145   1.814
 2959SOL     OW 8895   4.527   3.264   0.924
 2959SOL    HW1 8896   4.617   3.278   0.882
 2959SOL    HW2 8897   4.456   3.266   0.853
 2960SOL     OW 8898   4.646   2.365   0.899
 2960SOL    HW1 8899   4.621   2.356   0.803
 2960SOL    HW2 8900   4.694   2.283   0.930
 2961SOL     OW 8901   4.263   1.926   0.512
 2961SOL    HW1 8902   4.182   1.927   0.570
 2961SOL    HW2 8903   4.266   2.009   0.457
 2962SOL     OW 8904   4.021   1.897   0.171
 2962SOL    HW1 8905   4.070   1.981   0.150
 2962SOL    HW2 8906   4.083   1.832   0.216
 2963SOL     OW 8907   4.183   3.014   0.741
 2963SOL    HW1 8908   4.112   2.987   0.806
 2963SOL    HW2 8909   4.157   2.986   0.648
 2964SOL     OW 8910   3.802   2.418   1.386
 2964SOL    HW1 8911   3.894   2.417   1.345
 2964SOL    HW2 8912   3.796   2.492   1.453
 2965SOL     OW 8913   4.285   2.084   1.147
 2965SOL    HW1 8914   4.323   2.000   1.184
 2965SOL    HW2 8915   4.197   2.103   1.191
 2966SOL     OW 8916   4.212   3.247   0.174
 2966SOL    HW1 8917   4.125   3.232   0.221
 2966SOL    HW2 8918   4.195   3.273   0.079
 2967SOL     OW 8919   4.251   2.118   0.328
 2967SOL    HW1 8920   4.278   2.059   0.253
 2967SOL    HW2 8921   4.251   2.213   0.297
 2968SOL     OW 8922   4.639   1.951   1.402
 2968SOL    HW1 8923   4.664   1.931   1.307
 2968SOL    HW2 8924   4.711   2.007   1.444
 2969SOL     OW 8925   4.429   2.912   0.368
 2969SOL    HW1 8926   4.415   2.919   0.467
 2969SOL    HW2 8927   4.513   2.861   0.350
 2970SOL     OW 8928   4.134   2.675   1.251
 2970SOL    HW1 8929   4.220   2.687   1.301
 2970SOL    HW2 8930   4.092   2.588   1.278
 2971SOL     OW 8931   3.788   3.426   1.331
 2971SOL    HW1 8932   3.742   3.508   1.297
 2971SOL    HW2 8933   3.886   3.445   1.340
 2972SOL     OW 8934   4.091   2.962   0.501
 2972SOL    HW1 8935   4.084   3.045   0.445
 2972SOL    HW2 8936   4.095   2.882   0.441
 2973SOL     OW 8937   4.290   2.399   0.865
 2973SOL    HW1 8938   4.302   2.465   0.791
 2973SOL    HW2 8939   4.336   2.433   0.948
 2974SOL     OW 8940   4.078   3.372   1.329
 2974SOL    HW1 8941   4.057   3.328   1.242
 2974SOL    HW2 8942   4.175   3.398   1.332
 2975SOL     OW 8943   4.126   2.613   1.598
 2975SOL    HW1 8944   4.194   2.668   1.551
 2975SOL    HW2 8945   4.166   2.525   1.625
 2976SOL     OW 8946   4.228   1.912   1.740
 2976SOL    HW1 8947   4.186   1.855   1.670
 2976SOL    HW2 8948   4.162   1.981   1.772
 2977SOL     OW 8949   4.297   2.732   1.029
 2977SOL    HW1 8950   4.341   2.821   1.020
 2977SOL    HW2 8951   4.234   2.732   1.106
 2978SOL     OW 8952   4.933   2.387   0.275
 2978SOL    HW1 8953   4.946   2.303   0.329
 2978SOL    HW2 8954   4.904   2.461   0.335
 2979SOL     OW 8955   4.031   2.075   1.231
 2979SOL    HW1 8956   4.008   2.112   1.321
 2979SOL    HW2 8957   4.001   1.980   1.225
 2980SOL     OW 8958   3.761   3.172   1.282
 2980SOL    HW1 8959   3.814   3.123   1.350
 2980SOL    HW2 8960   3.783   3.270   1.287
 2981SOL     OW 8961   4.456   2.496   1.064
 2981SOL    HW1 8962   4.515   2.470   0.988
 2981SOL    HW2 8963   4.428   2.592   1.053
 2982SOL     OW 8964   4.031   1.925   0.618
 2982SOL    HW1 8965   4.020   2.019   0.651
 2982SOL    HW2 8966   4.026   1.862   0.695
 2983SOL     OW 8967   4.747   2.628   0.966
 2983SOL    HW1 8968   4.762   2.649   1.062
 2983SOL    HW2 8969   4.717   2.533   0.957
 2984SOL     OW 8970   4.704   3.435   1.700
 2984SOL    HW1 8971   4.684   3.479   1.612
 2984SOL    HW2 8972   4.743   3.344   1.684
 2985SOL     OW 8973   4.074   2.760   1.804
 2985SOL    HW1 8974   4.150   2.804   1.852
 2985SOL    HW2 8975   4.109   2.713   1.722
 2986SOL     OW 8976   4.043   2.672   0.949
 2986SOL    HW1 8977   4.136   2.708   0.954
 2986SOL    HW2 8978   4.037   2.587   1.001
 2987SOL     OW 8979   4.063   2.371   1.006
 2987SOL    HW1 8980   4.011   2.288   0.989
 2987SOL    HW2 8981   4.140   2.376   0.942
 2988SOL     OW 8982   3.732   3.188   0.200
 2988SOL    HW1 8983   3.639   3.209   0.169
 2988SOL    HW2 8984   3.742   3.089   0.213
 2989SOL     OW 8985   3.812   3.663   0.927
 2989SOL    HW1 8986   3.770   3.577   0.900
 2989SOL    HW2 8987   3.906   3.666   0.893
 2990SOL     OW 8988   4.228   3.430   0.910
 2990SOL    HW1 8989   4.294   3.504   0.919
 2990SOL    HW2 8990   4.272   3.351   0.868
 2991SOL     OW 8991   3.764   2.406   1.114
 2991SOL    HW1 8992   3.849   2.373   1.073
 2991SOL    HW2 8993   3.777   2.421   1.212
 2992SOL     OW 8994   3.913   2.382   1.722
 2992SOL    HW1 8995   3.972   2.342   1.652
 2992SOL    HW2 8996   3.855   2.453   1.681
 2993SOL     OW 8997   4.539   2.434   0.325
 2993SOL    HW1 8998   4.546   2.345   0.279
 2993SOL    HW2 8999   4.445   2.468   0.317
 2994SOL     OW 9000   3.976   3.426   1.744
 2994SOL    HW1 9001   3.946   3.483   1.820
 2994SOL    HW2 9002   3.969   3.329   1.770
 2995SOL     OW 9003   4.395   2.326   1.269
 2995SOL    HW1 9004   4.361   2.237   1.239
 2995SOL    HW2 9005   4.421   2.380   1.189
 2996SOL     OW 9006   4.197   2.362   0.191
 2996SOL    HW1 9007   4.258   2.442   0.195
 2996SOL    HW2 9008   4.102   2.393   0.198
 2997SOL     OW 9009   3.883   2.999   1.466
 2997SOL    HW1 9010   3.905   2.938   1.542
 2997SOL    HW2 9011   3.893   2.950   1.380
 2998SOL     OW 9012   3.807   3.120   1.022
 2998SOL    HW1 9013   3.802   3.119   1.122
 2998SOL    HW2 9014   3.724   3.079   0.984
 2999SOL     OW 9015   4.412   3.524   1.716
 2999SOL    HW1 9016   4.356   3.605   1.725
 2999SOL    HW2 9017   4.464   3.528   1.630
 3000SOL     OW 9018   4.627   1.948   0.133
 3000SOL    HW1 9019   4.678   1.949   0.047
 3000SOL    HW2 9020   4.683   1.906   0.204
 3001SOL     OW 9021   3.854   3.656   1.851
 3001SOL    HW1 9022   3.813   3.582   1.904
 3001SOL    HW2 9023   3.918   3.707   1.909
 3002SOL     OW 9024   4.554   3.135   1.422
 3002SOL    HW1 9025   4.549   3.168   1.517
 3002SOL    HW2 9026   4.468   3.154   1.376
 3003SOL     OW 9027   4.396   3.478   0.154
 3003SOL    HW1 9028   4.405   3.488   0.055
 3003SOL    HW2 9029   4.356   3.389   0.175
 3004SOL     OW 9030   3.987   2.188   0.720
 3004SOL    HW1 9031   3.908   2.239   0.686
 3004SOL    HW2 9032   3.978   2.173   0.818
 3005SOL     OW 9033   4.918   3.474   0.031
 3005SOL    HW1 9034   4.924   3.381   0.068
 3005SOL    HW2 9035   4.859   3.474  -0.049
 3006SOL     OW 9036   4.546   2.864   1.372
 3006SOL    HW1 9037   4.586   2.863   1.280
 3006SOL    HW2 9038   4.556   2.956   1.412
 3007SOL     OW 9039   4.096   3.150   1.490
 3007SOL    HW1 9040   4.083   3.243   1.456
 3007SOL    HW2 9041   4.012   3.098   1.477
 3008SOL     OW 9042   4.314   3.349   0.491
 3008SOL    HW1 9043   4.356   3.291   0.421
 3008SOL    HW2 9044   4.270   3.428   0.447
 3009SOL     OW 9045   3.979   3.210   0.290
 3009SOL    HW1 9046   3.883   3.211   0.263
 3009SOL    HW2 9047   3.991   3.263   0.374
 3010SOL     OW 9048   3.829   2.875   1.726
 3010SOL    HW1 9049   3.752   2.842   1.780
 3010SOL    HW2 9050   3.914   2.845   1.768
 3011SOL     OW 9051   4.396   2.065   1.489
 3011SOL    HW1 9052   4.486   2.049   1.449
 3011SOL    HW2 9053   4.404   2.070   1.588
 3012SOL     OW 9054   3.796   2.028   0.318
 3012SOL    HW1 9055   3.779   2.111   0.264
 3012SOL    HW2 9056   3.886   1.991   0.296
 3013SOL     OW 9057   4.337   2.704   1.431
 3013SOL    HW1 9058   4.393   2.785   1.414
 3013SOL    HW2 9059   4.396   2.624   1.434
 3014SOL     OW 9060   4.440   2.427   1.708
 3014SOL    HW1 9061   4.459   2.492   1.782
 3014SOL    HW2 9062   4.500   2.347   1.717
 3015SOL     OW 9063   4.114   3.603   1.560
 3015SOL    HW1 9064   4.023   3.644   1.558
 3015SOL    HW2 9065   4.107   3.509   1.592
 3016SOL     OW 9066   4.318   2.607   0.652
 3016SOL    HW1 9067   4.368   2.692   0.633
 3016SOL    HW2 9068   4.230   2.609   0.604
 3017SOL     OW 9069   4.385   3.652   0.953
 3017SOL    HW1 9070   4.339   3.740   0.940
 3017SOL    HW2 9071   4.484   3.664   0.946
 3018SOL     OW 9072   4.583   2.818   0.861
 3018SOL    HW1 9073   4.637   2.749   0.909
 3018SOL    HW2 9074   4.551   2.887   0.927
 3019SOL     OW 9075   3.945   3.176   1.844
 3019SOL    HW1 9076   3.880   3.103   1.823
 3019SOL    HW2 9077   3.949   3.190   1.942
 3020SOL     OW 9078   3.803   3.102   0.653
 3020SOL    HW1 9079   3.802   3.055   0.741
 3020SOL    HW2 9080   3.885   3.074   0.602
 3021SOL     OW 9081   4.396   3.253   1.624
 3021SOL    HW1 9082   4.318   3.203   1.662
 3021SOL    HW2 9083   4.393   3.348   1.655
 3022SOL     OW 9084   4.152   2.286   0.520
 3022SOL    HW1 9085   4.182   2.214   0.458
 3022SOL    HW2 9086   4.113   2.246   0.603
 3023SOL     OW 9087   4.041   2.409   1.280
 3023SOL    HW1 9088   4.079   2.350   1.352
 3023SOL    HW2 9089   4.081   2.383   1.192
 3024SOL     OW 9090   4.536   3.448   0.687
 3024SOL    HW1 9091   4.568   3.458   0.593
 3024SOL    HW2 9092   4.457   3.386   0.689
 3025SOL     OW 9093   4.725   1.896   1.154
 3025SOL    HW1 9094   4.662   1.824   1.123
 3025SOL    HW2 9095   4.818   1.860   1.154
 3026SOL     OW 9096   4.494   3.192   0.301
 3026SOL    HW1 9097   4.448   3.105   0.318
 3026SOL    HW2 9098   4.585   3.189   0.342
 3027SOL     OW 9099   4.342   3.429   1.284
 3027SOL    HW1 9100   4.337   3.511   1.341
 3027SOL    HW2 9101   4.431   3.426   1.239
 3028SOL     OW 9102   3.763   2.939   0.300
 3028SOL    HW1 9103   3.862   2.928   0.291
 3028SOL    HW2 9104   3.723   2.853   0.332
 3029SOL     OW 9105   4.599   3.508   0.337
 3029SOL    HW1 9106   4.522   3.473   0.283
 3029SOL    HW2 9107   4.567   3.579   0.399
 3030SOL     OW 9108   3.954   2.490   1.975
 3030SOL    HW1 9109   3.861   2.488   2.012
 3030SOL    HW2 9110   3.955   2.451   1.883
 3031SOL     OW 9111   3.949   2.137   2.858
 3031SOL    HW1 9112   3.984   2.120   2.950
 3031SOL    HW2 9113   3.861   2.092   2.846
 3032SOL     OW 9114   3.743   2.230   2.509
 3032SOL    HW1 9115   3.661   2.273   2.548
 3032SOL    HW2 9116   3.715   2.157   2.446
 3033SOL     OW 9117   4.293   3.137   3.027
 3033SOL    HW1 9118   4.200   3.130   2.990
 3033SOL    HW2 9119   4.304   3.226   3.071
 3034SOL     OW 9120   4.492   3.006   2.885
 3034SOL    HW1 9121   4.414   3.023   2.945
 3034SOL    HW2 9122   4.526   3.093   2.849
 3035SOL     OW 9123   4.574   2.660   3.685
 3035SOL    HW1 9124   4.570   2.736   3.750
 3035SOL    HW2 9125   4.596   2.696   3.594
 3036SOL     OW 9126   4.409   2.874   2.527
 3036SOL    HW1 9127   4.478   2.858   2.597
 3036SOL    HW2 9128   4.336   2.931   2.565
 3037SOL     OW 9129   4.410   3.023   3.665
 3037SOL    HW1 9130   4.470   3.102   3.679
 3037SOL    HW2 9131   4.324   3.054   3.624
 3038SOL     OW 9132   4.059   3.297   2.923
 3038SOL    HW1 9133   3.981   3.266   2.870
 3038SOL    HW2 9134   4.117   3.355   2.866
 3039SOL     OW 9135   4.162   2.254   3.361
 3039SOL    HW1 9136   4.244   2.198   3.370
 3039SOL    HW2 9137   4.081   2.196   3.365
 3040SOL     OW 9138   3.955   3.575   2.345
 3040SOL    HW1 9139   3.989   3.652   2.399
 3040SOL    HW2 9140   3.999   3.575   2.255
 3041SOL     OW 9141   3.954   3.296   2.400
 3041SOL    HW1 9142   3.928   3.392   2.400
 3041SOL    HW2 9143   3.883   3.242   2.445
 3042SOL     OW 9144   3.964   2.953   2.748
 3042SOL    HW1 9145   3.978   2.869   2.800
 3042SOL    HW2 9146   3.909   3.017   2.803
 3043SOL     OW 9147   4.344   3.648   3.301
 3043SOL    HW1 9148   4.252   3.631   3.336
 3043SOL    HW2 9149   4.372   3.740   3.327
 3044SOL     OW 9150   4.330   2.826   1.985
 3044SOL    HW1 9151   4.337   2.910   1.931
 3044SOL    HW2 9152   4.376   2.839   2.073
 3045SOL     OW 9153   3.846   2.505   2.425
 3045SOL    HW1 9154   3.801   2.417   2.442
 3045SOL    HW2 9155   3.845   2.559   2.509
 3046SOL     OW 9156   3.751   3.458   1.979
 3046SOL    HW1 9157   3.732   3.362   2.000
 3046SOL    HW2 9158   3.718   3.516   2.054
 3047SOL     OW 9159   3.837   2.599   3.459
 3047SOL    HW1 9160   3.925   2.586   3.504
 3047SOL    HW2 9161   3.824   2.696   3.437
 3048SOL     OW 9162   4.337   3.227   2.588
 3048SOL    HW1 9163   4.288   3.140   2.597
 3048SOL    HW2 9164   4.314   3.270   2.501
 3049SOL     OW 9165   4.533   1.866   2.364
 3049SOL    HW1 9166   4.573   1.957   2.355
 3049SOL    HW2 9167   4.433   1.874   2.370
 3050SOL     OW 9168   3.921   2.838   3.126
 3050SOL    HW1 9169   4.010   2.793   3.112
 3050SOL    HW2 9170   3.848   2.773   3.107
 3051SOL     OW 9171   4.041   2.113   3.663
 3051SOL    HW1 9172   4.112   2.184   3.669
 3051SOL    HW2 9173   3.953   2.152   3.691
 3052SOL     OW 9174   4.322   2.591   2.132
 3052SOL    HW1 9175   4.346   2.660   2.064
 3052SOL    HW2 9176   4.244   2.624   2.186
 3053SOL     OW 9177   4.531   2.467   3.327
 3053SOL    HW1 9178   4.484   2.464   3.416
 3053SOL    HW2 9179   4.480   2.412   3.261
 3054SOL     OW 9180   3.800   2.673   2.651
 3054SOL    HW1 9181   3.899   2.661   2.660
 3054SOL    HW2 9182   3.776   2.768   2.672
 3055SOL     OW 9183   3.854   3.683   3.433
 3055SOL    HW1 9184   3.844   3.668   3.532
 3055SOL    HW2 9185   3.768   3.719   3.397
 3056SOL     OW 9186   4.589   2.210   2.057
 3056SOL    HW1 9187   4.648   2.273   2.008
 3056SOL    HW2 9188   4.608   2.116   2.028
 3057SOL     OW 9189   4.274   2.058   2.747
 3057SOL    HW1 9190   4.269   2.053   2.847
 3057SOL    HW2 9191   4.276   2.154   2.718
 3058SOL     OW 9192   4.732   3.318   2.339
 3058SOL    HW1 9193   4.686   3.390   2.287
 3058SOL    HW2 9194   4.728   3.338   2.437
 3059SOL     OW 9195   4.075   3.663   2.715
 3059SOL    HW1 9196   4.125   3.577   2.721
 3059SOL    HW2 9197   4.140   3.740   2.712
 3060SOL     OW 9198   4.045   2.805   2.104
 3060SOL    HW1 9199   4.127   2.844   2.062
 3060SOL    HW2 9200   4.018   2.723   2.055
 3061SOL     OW 9201   4.185   3.128   3.589
 3061SOL    HW1 9202   4.135   3.129   3.503
 3061SOL    HW2 9203   4.122   3.110   3.665
 3062SOL     OW 9204   4.835   3.638   2.099
 3062SOL    HW1 9205   4.775   3.576   2.149
 3062SOL    HW2 9206   4.866   3.594   2.014
 3063SOL     OW 9207   3.926   2.147   3.360
 3063SOL    HW1 9208   3.846   2.207   3.347
 3063SOL    HW2 9209   3.916   2.098   3.446
 3064SOL     OW 9210   4.188   3.605   2.185
 3064SOL    HW1 9211   4.221   3.644   2.271
 3064SOL    HW2 9212   4.264   3.598   2.120
 3065SOL     OW 9213   3.973   3.647   3.103
 3065SOL    HW1 9214   4.030   3.582   3.153
 3065SOL    HW2 9215   3.957   3.614   3.010
 3066SOL     OW 9216   4.106   2.562   2.342
 3066SOL    HW1 9217   4.151   2.472   2.339
 3066SOL    HW2 9218   4.012   2.551   2.375
 3067SOL     OW 9219   4.338   1.984   1.979
 3067SOL    HW1 9220   4.436   1.962   1.986
 3067SOL    HW2 9221   4.307   1.967   1.886
 3068SOL     OW 9222   4.505   2.126   3.611
 3068SOL    HW1 9223   4.572   2.065   3.654
 3068SOL    HW2 9224   4.432   2.145   3.676
 3069SOL     OW 9225   4.527   3.264   2.786
 3069SOL    HW1 9226   4.617   3.278   2.744
 3069SOL    HW2 9227   4.456   3.266   2.715
 3070SOL     OW 9228   4.646   2.365   2.761
 3070SOL    HW1 9229   4.621   2.356   2.665
 3070SOL    HW2 9230   4.694   2.283   2.792
 3071SOL     OW 9231   4.263   1.926   2.374
 3071SOL    HW1 9232   4.182   1.927   2.432
 3071SOL    HW2 9233   4.266   2.009   2.319
 3072SOL     OW 9234   4.021   1.897   2.033
 3072SOL    HW1 9235   4.070   1.981   2.012
 3072SOL    HW2 9236   4.083   1.832   2.078
 3073SOL     OW 9237   4.183   3.014   2.603
 3073SOL    HW1 9238   4.112   2.987   2.668
 3073SOL    HW2 9239   4.157   2.986   2.510
 3074SOL     OW 9240   3.802   2.418   3.248
 3074SOL    HW1 9241   3.894   2.417   3.207
 3074SOL    HW2 9242   3.796   2.492   3.315
 3075SOL     OW 9243   4.285   2.084   3.009
 3075SOL    HW1 9244   4.323   2.000   3.046
 3075SOL    HW2 9245   4.197   2.103   3.053
 3076SOL     OW 9246   4.212   3.247   2.036
 3076SOL    HW1 9247   4.125   3.232   2.083
 3076SOL    HW2 9248   4.195   3.273   1.941
 3077SOL     OW 9249   4.251   2.118   2.190
 3077SOL    HW1 9250   4.278   2.059   2.115
 3077SOL    HW2 9251   4.251   2.213   2.159
 3078SOL     OW 9252   4.639   1.951   3.264
 3078SOL    HW1 9253   4.664   1.931   3.169
 3078SOL    HW2 9254   4.711   2.007   3.306
 3079SOL     OW 9255   4.429   2.912   2.230
 3079SOL    HW1 9256   4.415   2.919   2.329
 3079SOL    HW2 9257   4.513   2.861   2.212
 3080SOL     OW 9258   4.134   2.675   3.113
 3080SOL    HW1 9259   4.220   2.687   3.163
 3080SOL    HW2 9260   4.092   2.588   3.140
 3081SOL     OW 9261   3.788   3.426   3.193
 3081SOL    HW1 9262   3.742   3.508   3.159
 3081SOL    HW2 9263   3.886   3.445   3.202
 3082SOL     OW 9264   4.091   2.962   2.363
 3082SOL    HW1 9265   4.084   3.045   2.307
 3082SOL    HW2 9266   4.095   2.882   2.303
 3083SOL     OW 9267   4.290   2.399   2.727
 3083SOL    HW1 9268   4.302   2.465   2.653
 3083SOL    HW2 9269   4.336   2.433   2.810
 3084SOL     OW 9270   4.078   3.372   3.191
 3084SOL    HW1 9271   4.057   3.328   3.104
 3084SOL    HW2 9272   4.175   3.398   3.194
 3085SOL     OW 9273   4.126   2.613   3.460
 3085SOL    HW1 9274   4.194   2.668   3.413
 3085SOL    HW2 9275   4.166   2.525   3.487
 3086SOL     OW 9276   4.228   1.912   3.602
 3086SOL    HW1 9277   4.186   1.855   3.532
 3086SOL    HW2 9278   4.162   1.981   3.634
 3087SOL     OW 9279   4.297   2.732   2.891
 3087SOL    HW1 9280   4.341   2.821   2.882
 3087SOL    HW2 9281   4.234   2.732   2.968
 3088SOL     OW 9282   4.933   2.387   2.137
 3088SOL    HW1 9283   4.946   2.303   2.191
 3088SOL    HW2 9284   4.904   2.461   2.197
 3089SOL     OW 9285   4.031   2.075   3.093
 3089SOL    HW1 9286   4.008   2.112   3.183
 3089SOL    HW2 9287   4.001   1.980   3.087
 3090SOL     OW 9288   3.761   3.172   3.144
 3090SOL    HW1 9289   3.814   3.123   3.212
 3090SOL    HW2 9290   3.783   3.270   3.149
 3091SOL     OW 9291   4.456   2.496   2.926
 3091SOL    HW1 9292   4.515   2.470   2.850
 3091SOL    HW2 9293   4.428   2.592   2.915
 3092SOL     OW 9294   4.031   1.925   2.480
 3092SOL    HW1 9295   4.020   2.019   2.513
 3092SOL    HW2 9296   4.026   1.862   2.557
 3093SOL     OW 9297   4.747   2.628   2.828
 3093SOL    HW1 9298   4.762   2.649   2.924
 3093SOL    HW2 9299   4.717   2.533   2.819
 3094SOL     OW 9300   4.704   3.435   3.562
 3094SOL    HW1 9301   4.684   3.479   3.474
 3094SOL    HW2 9302   4.743   3.344   3.546
 3095SOL     OW 9303   4.074   2.760   3.666
 3095SOL    HW1 9304   4.150   2.804   3.714
 3095SOL    HW2 9305   4.109   2.713   3.584
 3096SOL     OW 9306   4.043   2.672   2.811
 3096SOL    HW1 9307   4.136   2.708   2.816
 3096SOL    HW2 9308   4.037   2.587   2.863
 3097SOL     OW 9309   4.063   2.371   2.868
 3097SOL    HW1 9310   4.011   2.288   2.851
 3097SOL    HW2 9311   4.140   2.376   2.804
 3098SOL     OW 9312   3.732   3.188   2.062
 3098SOL    HW1 9313   3.639   3.209   2.031
 3098SOL    HW2 9314   3.742   3.089   2.075
 3099SOL     OW 9315   3.812   3.663   2.789
 3099SOL    HW1 9316   3.770   3.577   2.762
 3099SOL    HW2 9317   3.906   3.666   2.755
 3100SOL     OW 9318   4.228   3.430   2.772
 3100SOL    HW1 9319   4.294   3.504   2.781
 3100SOL    HW2 9320   4.272   3.351   2.730
 3101SOL     OW 9321   3.764   2.406   2.976
 3101SOL    HW1 9322   3.849   2.373   2.935
 3101SOL    HW2 9323   3.777   2.421   3.074
 3102SOL     OW 9324   3.913   2.382   3.584
 3102SOL    HW1 9325   3.972   2.342   3.514
 3102SOL    HW2 9326   3.855   2.453   3.543
 3103SOL     OW 9327   4.539   2.434   2.187
 3103SOL    HW1 9328   4.546   2.345   2.141
 3103SOL    HW2 9329   4.445   2.468   2.179
 3104SOL     OW 9330   3.976   3.426   3.606
 3104SOL    HW1 9331   3.946   3.483   3.682
 3104SOL    HW2 9332   3.969   3.329   3.632
 3105SOL     OW 9333   4.395   2.326   3.131
 3105SOL    HW1 9334   4.361   2.237   3.101
 3105SOL    HW2 9335   4.421   2.380   3.051
 3106SOL     OW 9336   4.197   2.362   2.053
 3106SOL    HW1 9337   4.258   2.442   2.057
 3106SOL    HW2 9338   4.102   2.393   2.060
 3107SOL     OW 9339   3.883   2.999   3.328
 3107SOL    HW1 9340   3.905   2.938   3.404
 3107SOL    HW2 9341   3.893   2.950   3.242
 3108SOL     OW 9342   3.807   3.120   2.884
 3108SOL    HW1 9343   3.802   3.119   2.984
 3108SOL    HW2 9344   3.724   3.079   2.846
 3109SOL     OW 9345   4.412   3.524   3.578
 3109SOL    HW1 9346   4.356   3.605   3.587
 3109SOL    HW2 9347   4.464   3.528   3.492
 3110SOL     OW 9348   4.627   1.948   1.995
 3110SOL    HW1 9349   4.678   1.949   1.909
 3110SOL    HW2 9350   4.683   1.906   2.066
 3111SOL     OW 9351   3.854   3.656   3.713
 3111SOL    HW1 9352   3.813   3.582   3.766
 3111SOL    HW2 9353   3.918   3.707   3.771
 3112SOL     OW 9354   4.554   3.135   3.284
 3112SOL    HW1 9355   4.549   3.168   3.379
 3112SOL    HW2 9356   4.468   3.154   3.238
 3113SOL     OW 9357   4.396   3.478   2.016
 3113SOL    HW1 9358   4.405   3.488   1.917
 3113SOL    HW2 9359   4.356   3.389   2.037
 3114SOL     OW 9360   3.987   2.188   2.582
 3114SOL    HW1 9361   3.908   2.239   2.548
 3114SOL    HW2 9362   3.978   2.173   2.680
 3115SOL     OW 9363   4.546   2.864   3.234
 3115SOL    HW1 9364   4.586   2.863   3.142
 3115SOL    HW2 9365   4.556   2.956   3.274
 3116SOL     OW 9366   4.096   3.150   3.352
 3116SOL    HW1 9367   4.083   3.243   3.318
 3116SOL    HW2 9368   4.012   3.098   3.339
 3117SOL     OW 9369   4.314   3.349   2.353
 3117SOL    HW1 9370   4.356   3.291   2.283
 3117SOL    HW2 9371   4.270   3.428   2.309
 3118SOL     OW 9372   3.979   3.210   2.152
 3118SOL    HW1 9373   3.883   3.211   2.125
 3118SOL    HW2 9374   3.991   3.263   2.236
 3119SOL     OW 9375   3.829   2.875   3.588
 3119SOL    HW1 9376   3.752   2.842   3.642
 3119SOL    HW2 9377   3.914   2.845   3.630
 3120SOL     OW 9378   4.396   2.065   3.351
 3120SOL    HW1 9379   4.486   2.049   3.311
 3120SOL    HW2 9380   4.404   2.070   3.450
 3121SOL     OW 9381   3.799   2.207   1.895
 3121SOL    HW1 9382   3.707   2.179   1.866
 3121SOL    HW2 9383   3.830   2.284   1.839
 3122SOL     OW 9384   3.796   2.028   2.180
 3122SOL    HW1 9385   3.779   2.111   2.126
 3122SOL    HW2 9386   3.886   1.991   2.158
 3123SOL     OW 9387   4.337   2.704   3.293
 3123SOL    HW1 9388   4.393   2.785   3.276
 3123SOL    HW2 9389   4.396   2.624   3.296
 3124SOL     OW 9390   4.440   2.427   3.570
 3124SOL    HW1 9391   4.459   2.492   3.644
 3124SOL    HW2 9392   4.500   2.347   3.579
 3125SOL     OW 9393   4.114   3.603   3.422
 3125SOL    HW1 9394   4.023   3.644   3.420
 3125SOL    HW2 9395   4.107   3.509   3.454
 3126SOL     OW 9396   4.318   2.607   2.514
 3126SOL    HW1 9397   4.368   2.692   2.495
 3126SOL    HW2 9398   4.230   2.609   2.466
 3127SOL     OW 9399   4.385   3.652   2.815
 3127SOL    HW1 9400   4.339   3.740   2.802
 3127SOL    HW2 9401   4.484   3.664   2.808
 3128SOL     OW 9402   4.583   2.818   2.723
 3128SOL    HW1 9403   4.637   2.749   2.771
 3128SOL    HW2 9404   4.551   2.887   2.789
 3129SOL     OW 9405   3.945   3.176   3.706
 3129SOL    HW1 9406   3.880   3.103   3.685
 3129SOL    HW2 9407   3.949   3.190   3.804
 3130SOL     OW 9408   3.803   3.102   2.515
 3130SOL    HW1 9409   3.802   3.055   2.603
 3130SOL    HW2 9410   3.885   3.074   2.464
 3131SOL     OW 9411   4.396   3.253   3.486
 3131SOL    HW1 9412   4.318   3.203   3.524
 3131SOL    HW2 9413   4.393   3.348   3.517
 3132SOL     OW 9414   4.152   2.286   2.382
 3132SOL    HW1 9415   4.182   2.214   2.320
 3132SOL    HW2 9416   4.113   2.246   2.465
 3133SOL     OW 9417   4.041   2.409   3.142
 3133SOL    HW1 9418   4.079   2.350   3.214
 3133SOL    HW2 9419   4.081   2.383   3.054
 3134SOL     OW 9420   4.536   3.448   2.549
 3134SOL    HW1 9421   4.568   3.458   2.455
 3134SOL    HW2 9422   4.457   3.386   2.551
 3135SOL     OW 9423   4.725   1.896   3.016
 3135SOL    HW1 9424   4.662   1.824   2.985
 3135SOL    HW2 9425   4.818   1.860   3.016
 3136SOL     OW 9426   4.494   3.192   2.163
 3136SOL    HW1 9427   4.448   3.105   2.180
 3136SOL    HW2 9428   4.585   3.189   2.204
 3137SOL     OW 9429   4.342   3.429   3.146
 3137SOL    HW1 9430   4.337   3.511   3.203
 3137SOL    HW2 9431   4.431   3.426   3.101
 3138SOL     OW 9432   3.763   2.939   2.162
 3138SOL    HW1 9433   3.862   2.928   2.153
 3138SOL    HW2 9434   3.723   2.853   2.194
 3139SOL     OW 9435   4.599   3.508   2.199
 3139SOL    HW1 9436   4.522   3.473   2.145
 3139SOL    HW2 9437   4.567   3.579   2.261
 3140SOL     OW 9438   3.954   2.490   3.837
 3140SOL    HW1 9439   3.861   2.488   3.874
 3140SOL    HW2 9440   3.955   2.451   3.745
 3141SOL     OW 9441   3.949   2.137   4.720
 3141SOL    HW1 9442   3.984   2.120   4.812
 3141SOL    HW2 9443   3.861   2.092   4.708
 3142SOL     OW 9444   3.743   2.230   4.371
 3142SOL    HW1 9445   3.661   2.273   4.410
 3142SOL    HW2 9446   3.715   2.157   4.308
 3143SOL     OW 9447   4.492   3.006   4.747
 3143SOL    HW1 9448   4.414   3.023   4.807
 3143SOL    HW2 9449   4.526   3.093   4.711
 3144SOL     OW 9450   4.409   2.874   4.389
 3144SOL    HW1 9451   4.478   2.858   4.459
 3144SOL    HW2 9452   4.336   2.931   4.427
 3145SOL     OW 9453   3.955   3.575   4.207
 3145SOL    HW1 9454   3.989   3.652   4.261
 3145SOL    HW2 9455   3.999   3.575   4.117
 3146SOL     OW 9456   3.954   3.296   4.262
 3146SOL    HW1 9457   3.928   3.392   4.262
 3146SOL    HW2 9458   3.883   3.242   4.307
 3147SOL     OW 9459   3.964   2.953   4.610
 3147SOL    HW1 9460   3.978   2.869   4.662
 3147SOL    HW2 9461   3.909   3.017   4.665
 3148SOL     OW 9462   4.330   2.826   3.847
 3148SOL    HW1 9463   4.337   2.910   3.793
 3148SOL    HW2 9464   4.376   2.839   3.935
 3149SOL     OW 9465   3.846   2.505   4.287
 3149SOL    HW1 9466   3.801   2.417   4.304
 3149SOL    HW2 9467   3.845   2.559   4.371
 3150SOL     OW 9468   3.751   3.458   3.841
 3150SOL    HW1 9469   3.732   3.362   3.862
 3150SOL    HW2 9470   3.718   3.516   3.916
 3151SOL     OW 9471   4.337   3.227   4.450
 3151SOL    HW1 9472   4.288   3.140   4.459
 3151SOL    HW2 9473   4.314   3.270   4.363
 3152SOL     OW 9474   4.533   1.866   4.226
 3152SOL    HW1 9475   4.573   1.957   4.217
 3152SOL    HW2 9476   4.433   1.874   4.232
 3153SOL     OW 9477   4.322   2.591   3.994
 3153SOL    HW1 9478   4.346   2.660   3.926
 3153SOL    HW2 9479   4.244   2.624   4.048
 3154SOL     OW 9480   3.800   2.673   4.513
 3154SOL    HW1 9481   3.899   2.661   4.522
 3154SOL    HW2 9482   3.776   2.768   4.534
 3155SOL     OW 9483   4.589   2.210   3.919
 3155SOL    HW1 9484   4.648   2.273   3.870
 3155SOL    HW2 9485   4.608   2.116   3.890
 3156SOL     OW 9486   4.274   2.058   4.609
 3156SOL    HW1 9487   4.269   2.053   4.709
 3156SOL    HW2 9488   4.276   2.154   4.580
 3157SOL     OW 9489   4.732   3.318   4.201
 3157SOL    HW1 9490   4.686   3.390   4.149
 3157SOL    HW2 9491   4.728   3.338   4.299
 3158SOL     OW 9492   4.075   3.663   4.577
 3158SOL    HW1 9493   4.125   3.577   4.583
 3158SOL    HW2 9494   4.140   3.740   4.574
 3159SOL     OW 9495   4.045   2.805   3.966
 3159SOL    HW1 9496   4.127   2.844   3.924
 3159SOL    HW2 9497   4.018   2.723   3.917
 3160SOL     OW 9498   4.835   3.638   3.961
 3160SOL    HW1 9499   4.775   3.576   4.011
 3160SOL    HW2 9500   4.866   3.594   3.876
 3161SOL     OW 9501   4.188   3.605   4.047
 3161SOL    HW1 9502   4.221   3.644   4.133
 3161SOL    HW2 9503   4.264   3.598   3.982
 3162SOL     OW 9504   4.106   2.562   4.204
 3162SOL    HW1 9505   4.151   2.472   4.201
 3162SOL    HW2 9506   4.012   2.551   4.237
 3163SOL     OW 9507   4.338   1.984   3.841
 3163SOL    HW1 9508   4.436   1.962   3.848
 3163SOL    HW2 9509   4.307   1.967   3.748
 3164SOL     OW 9510   4.527   3.264   4.648
 3164SOL    HW1 9511   4.617   3.278   4.606
 3164SOL    HW2 9512   4.456   3.266   4.577
 3165SOL     OW 9513   4.263   1.926   4.236
 3165SOL    HW1 9514   4.182   1.927   4.294
 3165SOL    HW2 9515   4.266   2.009   4.181
 3166SOL     OW 9516   4.021   1.897   3.895
 3166SOL    HW1 9517   4.070   1.981   3.874
 3166SOL    HW2 9518   4.083   1.832   3.940
 3167SOL     OW 9519   4.183   3.014   4.465
 3167SOL    HW1 9520   4.112   2.987   4.530
 3167SOL    HW2 9521   4.157   2.986   4.372
 3168SOL     OW 9522   4.212   3.247   3.898
 3168SOL    HW1 9523   4.125   3.232   3.945
 3168SOL    HW2 9524   4.195   3.273   3.803
 3169SOL     OW 9525   4.251   2.118   4.052
 3169SOL    HW1 9526   4.278   2.059   3.977
 3169SOL    HW2 9527   4.251   2.213   4.021
 3170SOL     OW 9528   4.429   2.912   4.092
 3170SOL    HW1 9529   4.415   2.919   4.191
 3170SOL    HW2 9530   4.513   2.861   4.074
 3171SOL     OW 9531   4.091   2.962   4.225
 3171SOL    HW1 9532   4.084   3.045   4.169
 3171SOL    HW2 9533   4.095   2.882   4.165
 3172SOL     OW 9534   4.290   2.399   4.589
 3172SOL    HW1 9535   4.302   2.465   4.515
 3172SOL    HW2 9536   4.336   2.433   4.672
 3173SOL     OW 9537   4.933   2.387   3.999
 3173SOL    HW1 9538   4.946   2.303   4.053
 3173SOL    HW2 9539   4.904   2.461   4.059
 3174SOL     OW 9540   4.456   2.496   4.788
 3174SOL    HW1 9541   4.515   2.470   4.712
 3174SOL    HW2 9542   4.428   2.592   4.777
 3175SOL     OW 9543   4.031   1.925   4.342
 3175SOL    HW1 9544   4.020   2.019   4.375
 3175SOL    HW2 9545   4.026   1.862   4.419
 3176SOL     OW 9546   4.747   2.628   4.690
 3176SOL    HW1 9547   4.762   2.649   4.786
 3176SOL    HW2 9548   4.717   2.533   4.681
 3177SOL     OW 9549   3.732   3.188   3.924
 3177SOL    HW1 9550   3.639   3.209   3.893
 3177SOL    HW2 9551   3.742   3.089   3.937
 3178SOL     OW 9552   3.812   3.663   4.651
 3178SOL    HW1 9553   3.770   3.577   4.624
 3178SOL    HW2 9554   3.906   3.666   4.617
 3179SOL     OW 9555   4.228   3.430   4.634
 3179SOL    HW1 9556   4.294   3.504   4.643
 3179SOL    HW2 9557   4.272   3.351   4.592
 3180SOL     OW 9558   4.539   2.434   4.049
 3180SOL    HW1 9559   4.546   2.345   4.003
 3180SOL    HW2 9560   4.445   2.468   4.041
 3181SOL     OW 9561   4.197   2.362   3.915
 3181SOL    HW1 9562   4.258   2.442   3.919
 3181SOL    HW2 9563   4.102   2.393   3.922
 3182SOL     OW 9564   4.627   1.948   3.857
 3182SOL    HW1 9565   4.678   1.949   3.771
 3182SOL    HW2 9566   4.683   1.906   3.928
 3183SOL     OW 9567   4.396   3.478   3.878
 3183SOL    HW1 9568   4.405   3.488   3.779
 3183SOL    HW2 9569   4.356   3.389   3.899
 3184SOL     OW 9570   3.987   2.188   4.444
 3184SOL    HW1 9571   3.908   2.239   4.410
 3184SOL    HW2 9572   3.978   2.173   4.542
 3185SOL     OW 9573   4.314   3.349   4.215
 3185SOL    HW1 9574   4.356   3.291   4.145
 3185SOL    HW2 9575   4.270   3.428   4.171
 3186SOL     OW 9576   3.979   3.210   4.014
 3186SOL    HW1 9577   3.883   3.211   3.987
 3186SOL    HW2 9578   3.991   3.263   4.098
 3187SOL     OW 9579   3.799   2.207   3.757
 3187SOL    HW1 9580   3.707   2.179   3.728
 3187SOL    HW2 9581   3.830   2.284   3.701
 3188SOL     OW 9582   3.796   2.028   4.042
 3188SOL    HW1 9583   3.779   2.111   3.988
 3188SOL    HW2 9584   3.886   1.991   4.020
 3189SOL     OW 9585   4.318   2.607   4.376
 3189SOL    HW1 9586   4.368   2.692   4.357
 3189SOL    HW2 9587   4.230   2.609   4.328
 3190SOL     OW 9588   4.385   3.652   4.677
 3190SOL    HW1 9589   4.339   3.740   4.664
 3190SOL    HW2 9590   4.484   3.664   4.670
 3191SOL     OW 9591   4.583   2.818   4.585
 3191SOL    HW1 9592   4.637   2.749   4.633
 3191SOL    HW2 9593   4.551   2.887   4.651
 3192SOL     OW 9594   3.803   3.102   4.377
 3192SOL    HW1 9595   3.802   3.055   4.465
 3192SOL    HW2 9596   3.885   3.074   4.326
 3193SOL     OW 9597   4.152   2.286   4.244
 3193SOL    HW1 9598   4.182   2.214   4.182
 3193SOL    HW2 9599   4.113   2.246   4.327
 3194SOL     OW 9600   4.536   3.448   4.411
 3194SOL    HW1 9601   4.568   3.458   4.317
 3194SOL    HW2 9602   4.457   3.386   4.413
 3195SOL     OW 9603   4.494   3.192   4.025
 3195SOL    HW1 9604   4.448   3.105   4.042
 3195SOL    HW2 9605   4.585   3.189   4.066
 3196SOL     OW 9606   3.763   2.939   4.024
 3196SOL    HW1 9607   3.862   2.928   4.015
 3196SOL    HW2 9608   3.723   2.853   4.056
 3197SOL     OW 9609   4.599   3.508   4.061
 3197SOL    HW1 9610   4.522   3.473   4.007
 3197SOL    HW2 9611   4.567   3.579   4.123
 3198SOL     OW 9612   3.954   4.352   0.113
 3198SOL    HW1 9613   3.861   4.350   0.150
 3198SOL    HW2 9614   3.955   4.313   0.021
 3199SOL     OW 9615   3.949   3.999   0.996
 3199SOL    HW1 9616   3.984   3.982   1.088
 3199SOL    HW2 9617   3.861   3.954   0.984
 3200SOL     OW 9618   3.743   4.092   0.647
 3200SOL    HW1 9619   3.661   4.135   0.686
 3200SOL    HW2 9620   3.715   4.019   0.584
 3201SOL     OW 9621   4.574   4.522   1.823
 3201SOL    HW1 9622   4.570   4.598   1.888
 3201SOL    HW2 9623   4.596   4.558   1.732
 3202SOL     OW 9624   4.409   4.736   0.665
 3202SOL    HW1 9625   4.478   4.720   0.735
 3202SOL    HW2 9626   4.336   4.793   0.703
 3203SOL     OW 9627   4.162   4.116   1.499
 3203SOL    HW1 9628   4.244   4.060   1.508
 3203SOL    HW2 9629   4.081   4.058   1.503
 3204SOL     OW 9630   3.846   4.367   0.563
 3204SOL    HW1 9631   3.801   4.279   0.580
 3204SOL    HW2 9632   3.845   4.421   0.647
 3205SOL     OW 9633   3.837   4.461   1.597
 3205SOL    HW1 9634   3.925   4.448   1.642
 3205SOL    HW2 9635   3.824   4.558   1.575
 3206SOL     OW 9636   4.533   3.728   0.502
 3206SOL    HW1 9637   4.573   3.819   0.493
 3206SOL    HW2 9638   4.433   3.736   0.508
 3207SOL     OW 9639   4.041   3.975   1.801
 3207SOL    HW1 9640   4.112   4.046   1.807
 3207SOL    HW2 9641   3.953   4.014   1.829
 3208SOL     OW 9642   4.322   4.453   0.270
 3208SOL    HW1 9643   4.346   4.522   0.202
 3208SOL    HW2 9644   4.244   4.486   0.324
 3209SOL     OW 9645   4.531   4.329   1.465
 3209SOL    HW1 9646   4.484   4.326   1.554
 3209SOL    HW2 9647   4.480   4.274   1.399
 3210SOL     OW 9648   3.800   4.535   0.789
 3210SOL    HW1 9649   3.899   4.523   0.798
 3210SOL    HW2 9650   3.776   4.630   0.810
 3211SOL     OW 9651   4.589   4.072   0.195
 3211SOL    HW1 9652   4.648   4.135   0.146
 3211SOL    HW2 9653   4.608   3.978   0.166
 3212SOL     OW 9654   4.274   3.920   0.885
 3212SOL    HW1 9655   4.269   3.915   0.985
 3212SOL    HW2 9656   4.276   4.016   0.856
 3213SOL     OW 9657   3.926   4.009   1.498
 3213SOL    HW1 9658   3.846   4.069   1.485
 3213SOL    HW2 9659   3.916   3.960   1.584
 3214SOL     OW 9660   4.106   4.424   0.480
 3214SOL    HW1 9661   4.151   4.334   0.477
 3214SOL    HW2 9662   4.012   4.413   0.513
 3215SOL     OW 9663   4.505   3.988   1.749
 3215SOL    HW1 9664   4.572   3.927   1.792
 3215SOL    HW2 9665   4.432   4.007   1.814
 3216SOL     OW 9666   4.646   4.227   0.899
 3216SOL    HW1 9667   4.621   4.218   0.803
 3216SOL    HW2 9668   4.694   4.145   0.930
 3217SOL     OW 9669   4.263   3.788   0.512
 3217SOL    HW1 9670   4.182   3.789   0.570
 3217SOL    HW2 9671   4.266   3.871   0.457
 3218SOL     OW 9672   4.021   3.759   0.171
 3218SOL    HW1 9673   4.070   3.843   0.150
 3218SOL    HW2 9674   4.083   3.694   0.216
 3219SOL     OW 9675   3.802   4.280   1.386
 3219SOL    HW1 9676   3.894   4.279   1.345
 3219SOL    HW2 9677   3.796   4.354   1.453
 3220SOL     OW 9678   4.285   3.946   1.147
 3220SOL    HW1 9679   4.323   3.862   1.184
 3220SOL    HW2 9680   4.197   3.965   1.191
 3221SOL     OW 9681   4.251   3.980   0.328
 3221SOL    HW1 9682   4.278   3.921   0.253
 3221SOL    HW2 9683   4.251   4.075   0.297
 3222SOL     OW 9684   4.639   3.813   1.402
 3222SOL    HW1 9685   4.664   3.793   1.307
 3222SOL    HW2 9686   4.711   3.869   1.444
 3223SOL     OW 9687   4.134   4.537   1.251
 3223SOL    HW1 9688   4.220   4.549   1.301
 3223SOL    HW2 9689   4.092   4.450   1.278
 3224SOL     OW 9690   4.290   4.261   0.865
 3224SOL    HW1 9691   4.302   4.327   0.791
 3224SOL    HW2 9692   4.336   4.295   0.948
 3225SOL     OW 9693   4.126   4.475   1.598
 3225SOL    HW1 9694   4.194   4.530   1.551
 3225SOL    HW2 9695   4.166   4.387   1.625
 3226SOL     OW 9696   4.228   3.774   1.740
 3226SOL    HW1 9697   4.186   3.717   1.670
 3226SOL    HW2 9698   4.162   3.843   1.772
 3227SOL     OW 9699   4.297   4.594   1.029
 3227SOL    HW1 9700   4.341   4.683   1.020
 3227SOL    HW2 9701   4.234   4.594   1.106
 3228SOL     OW 9702   4.933   4.249   0.275
 3228SOL    HW1 9703   4.946   4.165   0.329
 3228SOL    HW2 9704   4.904   4.323   0.335
 3229SOL     OW 9705   4.031   3.937   1.231
 3229SOL    HW1 9706   4.008   3.974   1.321
 3229SOL    HW2 9707   4.001   3.842   1.225
 3230SOL     OW 9708   4.456   4.358   1.064
 3230SOL    HW1 9709   4.515   4.332   0.988
 3230SOL    HW2 9710   4.428   4.454   1.053
 3231SOL     OW 9711   4.031   3.787   0.618
 3231SOL    HW1 9712   4.020   3.881   0.651
 3231SOL    HW2 9713   4.026   3.724   0.695
 3232SOL     OW 9714   4.747   4.490   0.966
 3232SOL    HW1 9715   4.762   4.511   1.062
 3232SOL    HW2 9716   4.717   4.395   0.957
 3233SOL     OW 9717   4.074   4.622   1.804
 3233SOL    HW1 9718   4.150   4.666   1.852
 3233SOL    HW2 9719   4.109   4.575   1.722
 3234SOL     OW 9720   4.043   4.534   0.949
 3234SOL    HW1 9721   4.136   4.570   0.954
 3234SOL    HW2 9722   4.037   4.449   1.001
 3235SOL     OW 9723   4.063   4.233   1.006
 3235SOL    HW1 9724   4.011   4.150   0.989
 3235SOL    HW2 9725   4.140   4.238   0.942
 3236SOL     OW 9726   4.726   4.520   1.238
 3236SOL    HW1 9727   4.767   4.488   1.324
 3236SOL    HW2 9728   4.630   4.493   1.235
 3237SOL     OW 9729   3.764   4.268   1.114
 3237SOL    HW1 9730   3.849   4.235   1.073
 3237SOL    HW2 9731   3.777   4.283   1.212
 3238SOL     OW 9732   3.913   4.244   1.722
 3238SOL    HW1 9733   3.972   4.204   1.652
 3238SOL    HW2 9734   3.855   4.315   1.681
 3239SOL     OW 9735   4.539   4.296   0.325
 3239SOL    HW1 9736   4.546   4.207   0.279
 3239SOL    HW2 9737   4.445   4.330   0.317
 3240SOL     OW 9738   4.395   4.188   1.269
 3240SOL    HW1 9739   4.361   4.099   1.239
 3240SOL    HW2 9740   4.421   4.242   1.189
 3241SOL     OW 9741   4.197   4.224   0.191
 3241SOL    HW1 9742   4.258   4.304   0.195
 3241SOL    HW2 9743   4.102   4.255   0.198
 3242SOL     OW 9744   4.627   3.810   0.133
 3242SOL    HW1 9745   4.678   3.811   0.047
 3242SOL    HW2 9746   4.683   3.768   0.204
 3243SOL     OW 9747   3.987   4.050   0.720
 3243SOL    HW1 9748   3.908   4.101   0.686
 3243SOL    HW2 9749   3.978   4.035   0.818
 3244SOL     OW 9750   4.763   4.822   0.696
 3244SOL    HW1 9751   4.693   4.775   0.750
 3244SOL    HW2 9752   4.822   4.754   0.653
 3245SOL     OW 9753   3.829   4.737   1.726
 3245SOL    HW1 9754   3.752   4.704   1.780
 3245SOL    HW2 9755   3.914   4.707   1.768
 3246SOL     OW 9756   4.396   3.927   1.489
 3246SOL    HW1 9757   4.486   3.911   1.449
 3246SOL    HW2 9758   4.404   3.932   1.588
 3247SOL     OW 9759   3.796   3.890   0.318
 3247SOL    HW1 9760   3.779   3.973   0.264
 3247SOL    HW2 9761   3.886   3.853   0.296
 3248SOL     OW 9762   4.337   4.566   1.431
 3248SOL    HW1 9763   4.393   4.647   1.414
 3248SOL    HW2 9764   4.396   4.486   1.434
 3249SOL     OW 9765   4.440   4.289   1.708
 3249SOL    HW1 9766   4.459   4.354   1.782
 3249SOL    HW2 9767   4.500   4.209   1.717
 3250SOL     OW 9768   4.318   4.469   0.652
 3250SOL    HW1 9769   4.368   4.554   0.633
 3250SOL    HW2 9770   4.230   4.471   0.604
 3251SOL     OW 9771   4.583   4.680   0.861
 3251SOL    HW1 9772   4.637   4.611   0.909
 3251SOL    HW2 9773   4.551   4.749   0.927
 3252SOL     OW 9774   4.152   4.148   0.520
 3252SOL    HW1 9775   4.182   4.076   0.458
 3252SOL    HW2 9776   4.113   4.108   0.603
 3253SOL     OW 9777   4.041   4.271   1.280
 3253SOL    HW1 9778   4.079   4.212   1.352
 3253SOL    HW2 9779   4.081   4.245   1.192
 3254SOL     OW 9780   4.725   3.758   1.154
 3254SOL    HW1 9781   4.662   3.686   1.123
 3254SOL    HW2 9782   4.818   3.722   1.154
 3255SOL     OW 9783   3.954   4.352   1.975
 3255SOL    HW1 9784   3.861   4.350   2.012
 3255SOL    HW2 9785   3.955   4.313   1.883
 3256SOL     OW 9786   3.949   3.999   2.858
 3256SOL    HW1 9787   3.984   3.982   2.950
 3256SOL    HW2 9788   3.861   3.954   2.846
 3257SOL     OW 9789   3.743   4.092   2.509
 3257SOL    HW1 9790   3.661   4.135   2.548
 3257SOL    HW2 9791   3.715   4.019   2.446
 3258SOL     OW 9792   4.574   4.522   3.685
 3258SOL    HW1 9793   4.570   4.598   3.750
 3258SOL    HW2 9794   4.596   4.558   3.594
 3259SOL     OW 9795   4.409   4.736   2.527
 3259SOL    HW1 9796   4.478   4.720   2.597
 3259SOL    HW2 9797   4.336   4.793   2.565
 3260SOL     OW 9798   4.162   4.116   3.361
 3260SOL    HW1 9799   4.244   4.060   3.370
 3260SOL    HW2 9800   4.081   4.058   3.365
 3261SOL     OW 9801   3.846   4.367   2.425
 3261SOL    HW1 9802   3.801   4.279   2.442
 3261SOL    HW2 9803   3.845   4.421   2.509
 3262SOL     OW 9804   3.837   4.461   3.459
 3262SOL    HW1 9805   3.925   4.448   3.504
 3262SOL    HW2 9806   3.824   4.558   3.437
 3263SOL     OW 9807   4.533   3.728   2.364
 3263SOL    HW1 9808   4.573   3.819   2.355
 3263SOL    HW2 9809   4.433   3.736   2.370
 3264SOL     OW 9810   4.041   3.975   3.663
 3264SOL    HW1 9811   4.112   4.046   3.669
 3264SOL    HW2 9812   3.953   4.014   3.691
 3265SOL     OW 9813   4.322   4.453   2.132
 3265SOL    HW1 9814   4.346   4.522   2.064
 3265SOL    HW2 9815   4.244   4.486   2.186
 3266SOL     OW 9816   4.531   4.329   3.327
 3266SOL    HW1 9817   4.484   4.326   3.416
 3266SOL    HW2 9818   4.480   4.274   3.261
 3267SOL     OW 9819   3.800   4.535   2.651
 3267SOL    HW1 9820   3.899   4.523   2.660
 3267SOL    HW2 9821   3.776   4.630   2.672
 3268SOL     OW 9822   4.589   4.072   2.057
 3268SOL    HW1 9823   4.648   4.135   2.008
 3268SOL    HW2 9824   4.608   3.978   2.028
 3269SOL     OW 9825   4.274   3.920   2.747
 3269SOL    HW1 9826   4.269   3.915   2.847
 3269SOL    HW2 9827   4.276   4.016   2.718
 3270SOL     OW 9828   3.926   4.009   3.360
 3270SOL    HW1 9829   3.846   4.069   3.347
 3270SOL    HW2 9830   3.916   3.960   3.446
 3271SOL     OW 9831   4.106   4.424   2.342
 3271SOL    HW1 9832   4.151   4.334   2.339
 3271SOL    HW2 9833   4.012   4.413   2.375
 3272SOL     OW 9834   4.338   3.846   1.979
 3272SOL    HW1 9835   4.436   3.824   1.986
 3272SOL    HW2 9836   4.307   3.829   1.886
 3273SOL     OW 9837   4.505   3.988   3.611
 3273SOL    HW1 9838   4.572   3.927   3.654
 3273SOL    HW2 9839   4.432   4.007   3.676
 3274SOL     OW 9840   4.646   4.227   2.761
 3274SOL    HW1 9841   4.621   4.218   2.665
 3274SOL    HW2 9842   4.694   4.145   2.792
 3275SOL     OW 9843   4.263   3.788   2.374
 3275SOL    HW1 9844   4.182   3.789   2.432
 3275SOL    HW2 9845   4.266   3.871   2.319
 3276SOL     OW 9846   4.021   3.759   2.033
 3276SOL    HW1 9847   4.070   3.843   2.012
 3276SOL    HW2 9848   4.083   3.694   2.078
 3277SOL     OW 9849   3.802   4.280   3.248
 3277SOL    HW1 9850   3.894   4.279   3.207
 3277SOL    HW2 9851   3.796   4.354   3.315
 3278SOL     OW 9852   4.285   3.946   3.009
 3278SOL    HW1 9853   4.323   3.862   3.046
 3278SOL    HW2 9854   4.197   3.965   3.053
 3279SOL     OW 9855   4.251   3.980   2.190
 3279SOL    HW1 9856   4.278   3.921   2.115
 3279SOL    HW2 9857   4.251   4.075   2.159
 3280SOL     OW 9858   4.639   3.813   3.264
 3280SOL    HW1 9859   4.664   3.793   3.169
 3280SOL    HW2 9860   4.711   3.869   3.306
 3281SOL     OW 9861   4.134   4.537   3.113
 3281SOL    HW1 9862   4.220   4.549   3.163
 3281SOL    HW2 9863   4.092   4.450   3.140
 3282SOL     OW 9864   4.290   4.261   2.727
 3282SOL    HW1 9865   4.302   4.327   2.653
 3282SOL    HW2 9866   4.336   4.295   2.810
 3283SOL     OW 9867   4.126   4.475   3.460
 3283SOL    HW1 9868   4.194   4.530   3.413
 3283SOL    HW2 9869   4.166   4.387   3.487
 3284SOL     OW 9870   4.228   3.774   3.602
 3284SOL    HW1 9871   4.186   3.717   3.532
 3284SOL    HW2 9872   4.162   3.843   3.634
 3285SOL     OW 9873   4.297   4.594   2.891
 3285SOL    HW1 9874   4.341   4.683   2.882
 3285SOL    HW2 9875   4.234   4.594   2.968
 3286SOL     OW 9876   4.933   4.249   2.137
 3286SOL    HW1 9877   4.946   4.165   2.191
 3286SOL    HW2 9878   4.904   4.323   2.197
 3287SOL     OW 9879   4.031   3.937   3.093
 3287SOL    HW1 9880   4.008   3.974   3.183
 3287SOL    HW2 9881   4.001   3.842   3.087
 3288SOL     OW 9882   4.456   4.358   2.926
 3288SOL    HW1 9883   4.515   4.332   2.850
 3288SOL    HW2 9884   4.428   4.454   2.915
 3289SOL     OW 9885   4.031   3.787   2.480
 3289SOL    HW1 9886   4.020   3.881   2.513
 3289SOL    HW2 9887   4.026   3.724   2.557
 3290SOL     OW 9888   4.747   4.490   2.828
 3290SOL    HW1 9889   4.762   4.511   2.924
 3290SOL    HW2 9890   4.717   4.395   2.819
 3291SOL     OW 9891   4.074   4.622   3.666
 3291SOL    HW1 9892   4.150   4.666   3.714
 3291SOL    HW2 9893   4.109   4.575   3.584
 3292SOL     OW 9894   4.043   4.534   2.811
 3292SOL    HW1 9895   4.136   4.570   2.816
 3292SOL    HW2 9896   4.037   4.449   2.863
 3293SOL     OW 9897   4.063   4.233   2.868
 3293SOL    HW1 9898   4.011   4.150   2.851
 3293SOL    HW2 9899   4.140   4.238   2.804
 3294SOL     OW 9900   4.726   4.520   3.100
 3294SOL    HW1 9901   4.767   4.488   3.186
 3294SOL    HW2 9902   4.630   4.493   3.097
 3295SOL     OW 9903   3.764   4.268   2.976
 3295SOL    HW1 9904   3.849   4.235   2.935
 3295SOL    HW2 9905   3.777   4.283   3.074
 3296SOL     OW 9906   3.913   4.244   3.584
 3296SOL    HW1 9907   3.972   4.204   3.514
 3296SOL    HW2 9908   3.855   4.315   3.543
 3297SOL     OW 9909   4.539   4.296   2.187
 3297SOL    HW1 9910   4.546   4.207   2.141
 3297SOL    HW2 9911   4.445   4.330   2.179
 3298SOL     OW 9912   4.395   4.188   3.131
 3298SOL    HW1 9913   4.361   4.099   3.101
 3298SOL    HW2 9914   4.421   4.242   3.051
 3299SOL     OW 9915   4.197   4.224   2.053
 3299SOL    HW1 9916   4.258   4.304   2.057
 3299SOL    HW2 9917   4.102   4.255   2.060
 3300SOL     OW 9918   4.627   3.810   1.995
 3300SOL    HW1 9919   4.678   3.811   1.909
 3300SOL    HW2 9920   4.683   3.768   2.066
 3301SOL     OW 9921   3.987   4.050   2.582
 3301SOL    HW1 9922   3.908   4.101   2.548
 3301SOL    HW2 9923   3.978   4.035   2.680
 3302SOL     OW 9924   4.763   4.822   2.558
 3302SOL    HW1 9925   4.693   4.775   2.612
 3302SOL    HW2 9926   4.822   4.754   2.515
 3303SOL     OW 9927   3.829   4.737   3.588
 3303SOL    HW1 9928   3.752   4.704   3.642
 3303SOL    HW2 9929   3.914   4.707   3.630
 3304SOL     OW 9930   4.396   3.927   3.351
 3304SOL    HW1 9931   4.486   3.911   3.311
 3304SOL    HW2 9932   4.404   3.932   3.450
 3305SOL     OW 9933   3.799   4.069   1.895
 3305SOL    HW1 9934   3.707   4.041   1.866
 3305SOL    HW2 9935   3.830   4.146   1.839
 3306SOL     OW 9936   3.796   3.890   2.180
 3306SOL    HW1 9937   3.779   3.973   2.126
 3306SOL    HW2 9938   3.886   3.853   2.158
 3307SOL     OW 9939   4.337   4.566   3.293
 3307SOL    HW1 9940   4.393   4.647   3.276
 3307SOL    HW2 9941   4.396   4.486   3.296
 3308SOL     OW 9942   4.440   4.289   3.570
 3308SOL    HW1 9943   4.459   4.354   3.644
 3308SOL    HW2 9944   4.500   4.209   3.579
 3309SOL     OW 9945   4.318   4.469   2.514
 3309SOL    HW1 9946   4.368   4.554   2.495
 3309SOL    HW2 9947   4.230   4.471   2.466
 3310SOL     OW 9948   4.583   4.680   2.723
 3310SOL    HW1 9949   4.637   4.611   2.771
 3310SOL    HW2 9950   4.551   4.749   2.789
 3311SOL     OW 9951   4.152   4.148   2.382
 3311SOL    HW1 9952   4.182   4.076   2.320
 3311SOL    HW2 9953   4.113   4.108   2.465
 3312SOL     OW 9954   4.041   4.271   3.142
 3312SOL    HW1 9955   4.079   4.212   3.214
 3312SOL    HW2 9956   4.081   4.245   3.054
 3313SOL     OW 9957   4.725   3.758   3.016
 3313SOL    HW1 9958   4.662   3.686   2.985
 3313SOL    HW2 9959   4.818   3.722   3.016
 3314SOL     OW 9960   3.954   4.352   3.837
 3314SOL    HW1 9961   3.861   4.350   3.874
 3314SOL    HW2 9962   3.955   4.313   3.745
 3315SOL     OW 9963   3.949   3.999   4.720
 3315SOL    HW1 9964   3.984   3.982   4.812
 3315SOL    HW2 9965   3.861   3.954   4.708
 3316SOL     OW 9966   3.743   4.092   4.371
 3316SOL    HW1 9967   3.661   4.135   4.410
 3316SOL    HW2 9968   3.715   4.019   4.308
 3317SOL     OW 9969   4.409   4.736   4.389
 3317SOL    HW1 9970   4.478   4.720   4.459
 3317SOL    HW2 9971   4.336   4.793   4.427
 3318SOL     OW 9972   3.846   4.367   4.287
 3318SOL    HW1 9973   3.801   4.279   4.304
 3318SOL    HW2 9974   3.845   4.421   4.371
 3319SOL     OW 9975   4.533   3.728   4.226
 3319SOL    HW1 9976   4.573   3.819   4.217
 3319SOL    HW2 9977   4.433   3.736   4.232
 3320SOL     OW 9978   4.322   4.453   3.994
 3320SOL    HW1 9979   4.346   4.522   3.926
 3320SOL    HW2 9980   4.244   4.486   4.048
 3321SOL     OW 9981   3.800   4.535   4.513
 3321SOL    HW1 9982   3.899   4.523   4.522
 3321SOL    HW2 9983   3.776   4.630   4.534
 3322SOL     OW 9984   4.589   4.072   3.919
 3322SOL    HW1 9985   4.648   4.135   3.870
 3322SOL    HW2 9986   4.608   3.978   3.890
 3323SOL     OW 9987   4.274   3.920   4.609
 3323SOL    HW1 9988   4.269   3.915   4.709
 3323SOL    HW2 9989   4.276   4.016   4.580
 3324SOL     OW 9990   4.106   4.424   4.204
 3324SOL    HW1 9991   4.151   4.334   4.201
 3324SOL    HW2 9992   4.012   4.413   4.237
 3325SOL     OW 9993   4.338   3.846   3.841
 3325SOL    HW1 9994   4.436   3.824   3.848
 3325SOL    HW2 9995   4.307   3.829   3.748
 3326SOL     OW 9996   4.263   3.788   4.236
 3326SOL    HW1 9997   4.182   3.789   4.294
 3326SOL    HW2 9998   4.266   3.871   4.181
 3327SOL     OW 9999   4.021   3.759   3.895
 3327SOL    HW110000   4.070   3.843   3.874
 3327SOL    HW210001   4.083   3.694   3.940
 3328SOL     OW10002   4.251   3.980   4.052
 3328SOL    HW110003   4.278   3.921   3.977
 3328SOL    HW210004   4.251   4.075   4.021
 3329SOL     OW10005   4.290   4.261   4.589
 3329SOL    HW110006   4.302   4.327   4.515
 3329SOL    HW210007   4.336   4.295   4.672
 3330SOL     OW10008   4.933   4.249   3.999
 3330SOL    HW110009   4.946   4.165   4.053
 3330SOL    HW210010   4.904   4.323   4.059
 3331SOL     OW10011   4.456   4.358   4.788
 3331SOL    HW110012   4.515   4.332   4.712
 3331SOL    HW210013   4.428   4.454   4.777
 3332SOL     OW10014   4.031   3.787   4.342
 3332SOL    HW110015   4.020   3.881   4.375
 3332SOL    HW210016   4.026   3.724   4.419
 3333SOL     OW10017   4.747   4.490   4.690
 3333SOL    HW110018   4.762   4.511   4.786
 3333SOL    HW210019   4.717   4.395   4.681
 3334SOL     OW10020   4.539   4.296   4.049
 3334SOL    HW110021   4.546   4.207   4.003
 3334SOL    HW210022   4.445   4.330   4.041
 3335SOL     OW10023   4.197   4.224   3.915
 3335SOL    HW110024   4.258   4.304   3.919
 3335SOL    HW210025   4.102   4.255   3.922
 3336SOL     OW10026   4.627   3.810   3.857
 3336SOL    HW110027   4.678   3.811   3.771
 3336SOL    HW210028   4.683   3.768   3.928
 3337SOL     OW10029   3.987   4.050   4.444
 3337SOL    HW110030   3.908   4.101   4.410
 3337SOL    HW210031   3.978   4.035   4.542
 3338SOL     OW10032   4.763   4.822   4.420
 3338SOL    HW110033   4.693   4.775   4.474
 3338SOL    HW210034   4.822   4.754   4.377
 3339SOL     OW10035   3.799   4.069   3.757
 3339SOL    HW110036   3.707   4.041   3.728
 3339SOL    HW210037   3.830   4.146   3.701
 3340SOL     OW10038   3.796   3.890   4.042
 3340SOL    HW110039   3.779   3.973   3.988
 3340SOL    HW210040   3.886   3.853   4.020
 3341SOL     OW10041   4.318   4.469   4.376
 3341SOL    HW110042   4.368   4.554   4.357
 3341SOL    HW210043   4.230   4.471   4.328
 3342SOL     OW10044   4.583   4.680   4.585
 3342SOL    HW110045   4.637   4.611   4.633
 3342SOL    HW210046   4.551   4.749   4.651
 3343SOL     OW10047   4.152   4.148   4.244
 3343SOL    HW110048   4.182   4.076   4.182
 3343SOL    HW210049   4.113   4.108   4.327
   4.68991   4.68991   4.68991
