mobley_252413_GMX.gro created by acpype (v: 2023.10.27) on Wed May 20 23:42:19 2026
   23
    1MOL     C1    1   2.115   2.376   2.155
    1MOL     C2    2   2.532   2.302   2.317
    1MOL     C3    3   2.421   2.469   2.468
    1MOL     C4    4   2.418   2.226   2.526
    1MOL     C5    5   2.251   2.401   2.217
    1MOL     C6    6   2.277   2.306   2.335
    1MOL     C7    7   2.412   2.327   2.410
    1MOL     H1    8   2.035   2.392   2.229
    1MOL     H2    9   2.098   2.444   2.071
    1MOL     H3   10   2.107   2.273   2.118
    1MOL     H4   11   2.525   2.204   2.270
    1MOL     H5   12   2.538   2.378   2.238
    1MOL     H6   13   2.626   2.306   2.373
    1MOL     H7   14   2.511   2.480   2.530
    1MOL     H8   15   2.335   2.492   2.531
    1MOL     H9   16   2.427   2.545   2.390
    1MOL    H10   17   2.413   2.123   2.489
    1MOL    H11   18   2.511   2.236   2.583
    1MOL    H12   19   2.335   2.241   2.596
    1MOL    H13   20   2.328   2.387   2.140
    1MOL    H14   21   2.256   2.505   2.250
    1MOL    H15   22   2.273   2.203   2.298
    1MOL    H16   23   2.195   2.316   2.407
   4.68991   4.68991   4.68991
