3_cyanopyridine
    12
   2.7210000  -0.3120000   3.7040000   0.2060000  -0.4420000   0.9680000
   1.3350000  -0.0800000   1.6950000  -0.6460000  -1.3850000   1.5200000
   0.6600000  -1.5970000   3.3980000   1.5730000  -0.6640000   2.9340000
   3.6590000  -0.0260000   4.3330000  -0.4480000  -1.9740000   2.7210000
  -0.0000000  -0.0010000  -0.0010000   2.0190000   0.6570000   1.2840000
  -1.5400000  -1.7010000   0.9930000   0.7880000  -2.0880000   4.3590000
