; mobley_8764620_GMX_OPLS.top created by acpype (v: 2023.10.27) on Wed May 20 23:56:43 2026

; Include forcefield parameters
#include "ffoplsaa.itp"

; Include mobley_8764620_GMX.itp topology
#include "mobley_8764620_GMX.itp"

; Ligand position restraints
#ifdef POSRES_LIG
#include "posre_mobley_8764620.itp"
#endif

[ system ]
 mobley_8764620

[ molecules ]
; Compound        nmols
 mobley_8764620   1     
