%VERSION  VERSION_STAMP = V0001.000  DATE = 05/20/26  23:56:44                  
%FLAG TITLE                                                                     
%FORMAT(20a4)                                                                   
3_cyanopyridine                                                                 
%FLAG POINTERS                                                                  
%FORMAT(10I8)                                                                   
      12       6       4       8       8       9      16      11       0       0
      52       1       8       9      11       6       8       4       6       0
       0       0       0       0       0       0       0       0      12       0
       0
%FLAG ATOM_NAME                                                                 
%FORMAT(20a4)                                                                   
C1  C2  C3  C4  C5  C6  N1  N2  H1  H2  H3  H4  
%FLAG CHARGE                                                                    
%FORMAT(5E16.8)                                                                 
  4.27859604E+00 -4.57926399E+00 -9.84004200E-01  7.58412126E+00  7.93034496E+00
 -2.48369949E+00 -6.41060514E+00 -1.20813849E+01  2.76978960E+00  2.76978960E+00
  5.48491230E-01  6.57825030E-01
%FLAG ATOMIC_NUMBER                                                             
%FORMAT(10I8)                                                                   
       6       6       6       6       6       6       7       7       1       1
       1       1
%FLAG MASS                                                                      
%FORMAT(5E16.8)                                                                 
  1.20100000E+01  1.20100000E+01  1.20100000E+01  1.20100000E+01  1.20100000E+01
  1.20100000E+01  1.40100000E+01  1.40100000E+01  1.00800000E+00  1.00800000E+00
  1.00800000E+00  1.00800000E+00
%FLAG ATOM_TYPE_INDEX                                                           
%FORMAT(10I8)                                                                   
       1       2       2       2       2       2       3       4       5       5
       6       6
%FLAG NUMBER_EXCLUDED_ATOMS                                                     
%FORMAT(10I8)                                                                   
       8       8       9       7       6       5       1       3       2       1
       1       1
%FLAG NONBONDED_PARM_INDEX                                                      
%FORMAT(10I8)                                                                   
       1       2       4       7      11      16       2       3       5       8
      12      17       4       5       6       9      13      18       7       8
       9      10      14      19      11      12      13      14      15      20
      16      17      18      19      20      21
%FLAG RESIDUE_LABEL                                                             
%FORMAT(20a4)                                                                   
MOL 
%FLAG RESIDUE_POINTER                                                           
%FORMAT(10I8)                                                                   
       1
%FLAG BOND_FORCE_CONSTANT                                                       
%FORMAT(5E16.8)                                                                 
  3.17410000E+02  7.44030000E+02  3.54250000E+02  3.60690000E+02  3.86490000E+02
  3.56820000E+02
%FLAG BOND_EQUIL_VALUE                                                          
%FORMAT(5E16.8)                                                                 
  1.43180000E+00  1.16430000E+00  1.39860000E+00  1.08600000E+00  1.33920000E+00
  1.08850000E+00
%FLAG ANGLE_FORCE_CONSTANT                                                      
%FORMAT(5E16.8)                                                                 
  6.28500000E+01  6.36700000E+01  4.49000000E+01  6.81700000E+01  4.48000000E+01
  8.31500000E+01  5.83000000E+01  5.01000000E+01
%FLAG ANGLE_EQUIL_VALUE                                                         
%FORMAT(5E16.8)                                                                 
  2.09875933E+00  2.09474507E+00  2.09230160E+00  2.14570870E+00  2.09998106E+00
  2.04622489E+00  3.13321642E+00  2.02493187E+00
%FLAG DIHEDRAL_FORCE_CONSTANT                                                   
%FORMAT(5E16.8)                                                                 
  3.62500000E+00  4.80000000E+00  0.00000000E+00  1.10000000E+00
%FLAG DIHEDRAL_PERIODICITY                                                      
%FORMAT(5E16.8)                                                                 
  2.00000000E+00  2.00000000E+00  2.00000000E+00  2.00000000E+00
%FLAG DIHEDRAL_PHASE                                                            
%FORMAT(5E16.8)                                                                 
  3.14159400E+00  3.14159400E+00  3.14159400E+00  3.14159400E+00
%FLAG SCEE_SCALE_FACTOR                                                         
%FORMAT(5E16.8)                                                                 
  1.20000000E+00  1.20000000E+00  1.20000000E+00  0.00000000E+00
%FLAG SCNB_SCALE_FACTOR                                                         
%FORMAT(5E16.8)                                                                 
  2.00000000E+00  2.00000000E+00  2.00000000E+00  0.00000000E+00
%FLAG SOLTY                                                                     
%FORMAT(5E16.8)                                                                 
  0.00000000E+00  0.00000000E+00  0.00000000E+00  0.00000000E+00  0.00000000E+00
  0.00000000E+00
%FLAG LENNARD_JONES_ACOEF                                                       
%FORMAT(5E16.8)                                                                 
  2.00671338E+06  1.18640578E+06  6.96551276E+05  1.16165080E+06  6.80770393E+05
  6.65027384E+05  1.30700124E+06  7.69642101E+05  7.52793431E+05  8.49322032E+05
  1.32549375E+05  7.52549148E+04  7.29041169E+04  8.43518904E+04  6.90855956E+03
  1.11111404E+05  6.27751680E+04  6.07357264E+04  7.05112106E+04  5.62610481E+03
  4.56536476E+03
%FLAG LENNARD_JONES_BCOEF                                                       
%FORMAT(5E16.8)                                                                 
  1.13185062E+03  7.71958727E+02  5.24668528E+02  7.84289859E+02  5.32561965E+02
  5.40444287E+02  8.00430491E+02  5.44830041E+02  5.53242961E+02  5.65406768E+02
  1.63939471E+02  1.09570372E+02  1.10729433E+02  1.14599119E+02  2.10929191E+01
  1.50097689E+02  1.00073628E+02  1.01066951E+02  1.04776275E+02  1.90347353E+01
  1.71467049E+01
%FLAG BONDS_INC_HYDROGEN                                                        
%FORMAT(10I8)                                                                   
       3      24       4       6      27       4       9      30       6      12
      33       6
%FLAG BONDS_WITHOUT_HYDROGEN                                                    
%FORMAT(10I8)                                                                   
       0      15       1       0      18       2       3       6       3       3
       9       3       6      15       3       9      21       5      12      15
       3      12      21       5
%FLAG ANGLES_INC_HYDROGEN                                                       
%FORMAT(10I8)                                                                   
       3       6      27       3       3       9      30       5       6       3
      24       3       9       3      24       3      15       6      27       3
      15      12      33       5      21       9      30       8      21      12
      33       8
%FLAG ANGLES_WITHOUT_HYDROGEN                                                   
%FORMAT(10I8)                                                                   
       0      15       6       1       0      15      12       1       3       6
      15       2       3       9      21       4       6       3       9       2
       6      15      12       2       9      21      12       6      15       0
      18       7      15      12      21       4
%FLAG DIHEDRALS_INC_HYDROGEN                                                    
%FORMAT(10I8)                                                                   
       0      15       6      27       1       0      15      12      33       1
       6       3       9      30       1       6      15      12      33       1
       9       3       6      27       1       9      21      12      33       2
      12      15       6      27       1      12      21       9      30       2
      15       6       3      24       1      21       9       3      24       1
      24       3       6      27       1      24       3       9      30       1
       6       9      -3     -24       4       3      15      -6     -27       4
       3      30      -9     -21       4      15      33     -12     -21       4
%FLAG DIHEDRALS_WITHOUT_HYDROGEN                                                
%FORMAT(10I8)                                                                   
       0      15       6       3       1       0      15      12      21       1
       3       6      15      12       1       3       9     -21      12       2
       6       3       9      21       1      18       0      15       6       3
       6      15     -12      21       1       9       3       6      15       1
       9      21     -12      15       2      18       0      15      12       3
       0      15     -12      -6       4
%FLAG EXCLUDED_ATOMS_LIST                                                       
%FORMAT(10I8)                                                                   
       2       3       5       6       7       8      10      12       3       4
       5       6       8       9      10      11       4       5       6       7
       8       9      10      11      12       5       6       8       9      10
      11      12       6       7       8      10      11      12       7       8
       9      10      12       0       9      11      12      10      11       0
       0       0
%FLAG HBOND_ACOEF                                                               
%FORMAT(5E16.8)                                                                 

%FLAG HBOND_BCOEF                                                               
%FORMAT(5E16.8)                                                                 

%FLAG HBCUT                                                                     
%FORMAT(5E16.8)                                                                 

%FLAG AMBER_ATOM_TYPE                                                           
%FORMAT(20a4)                                                                   
cg  ca  ca  ca  ca  ca  n1  nb  ha  ha  h4  h4  
%FLAG TREE_CHAIN_CLASSIFICATION                                                 
%FORMAT(20a4)                                                                   
BLA BLA BLA BLA BLA BLA BLA BLA BLA BLA BLA BLA 
%FLAG JOIN_ARRAY                                                                
%FORMAT(10I8)                                                                   
       0       0       0       0       0       0       0       0       0       0
       0       0
%FLAG IROTAT                                                                    
%FORMAT(10I8)                                                                   
       0       0       0       0       0       0       0       0       0       0
       0       0
%FLAG RADIUS_SET                                                                
%FORMAT(1a80)                                                                   
modified Bondi radii (mbondi)                                                   
%FLAG RADII                                                                     
%FORMAT(5E16.8)                                                                 
  1.70000000E+00  1.70000000E+00  1.70000000E+00  1.70000000E+00  1.70000000E+00
  1.70000000E+00  1.55000000E+00  1.55000000E+00  1.30000000E+00  1.30000000E+00
  1.30000000E+00  1.30000000E+00
%FLAG SCREEN                                                                    
%FORMAT(5E16.8)                                                                 
  7.20000000E-01  7.20000000E-01  7.20000000E-01  7.20000000E-01  7.20000000E-01
  7.20000000E-01  7.90000000E-01  7.90000000E-01  8.50000000E-01  8.50000000E-01
  8.50000000E-01  8.50000000E-01
%FLAG IPOL                                                                      
%FORMAT(1I8)                                                                    
       0
