mobley_8764620_GMX.gro created by acpype (v: 2023.10.27) on Wed May 20 23:56:43 2026
 12
    1  MOL   C1    1   0.272  -0.031   0.370
    1  MOL   C2    2   0.021  -0.044   0.097
    1  MOL   C3    3   0.134  -0.008   0.170
    1  MOL   C4    4  -0.065  -0.139   0.152
    1  MOL   C5    5   0.066  -0.160   0.340
    1  MOL   C6    6   0.157  -0.066   0.293
    1  MOL   N1    7   0.366  -0.003   0.433
    1  MOL   N2    8  -0.045  -0.197   0.272
    1  MOL   H1    9  -0.000  -0.000  -0.000
    1  MOL   H2   10   0.202   0.066   0.128
    1  MOL   H3   11  -0.154  -0.170   0.099
    1  MOL   H4   12   0.079  -0.209   0.436
   10.39800     5.49000     8.72000
