pentan_2_one
    16
   0.3030000   1.1400000  -1.7830000   0.3780000   1.0130000  -0.2830000
   1.9180000  -0.5870000  -4.8560000   1.1480000   0.1610000  -2.5790000
   1.0380000   0.3830000  -4.0850000  -0.4070000   1.9930000  -2.3120000
   1.4060000   1.1780000   0.0480000   0.0390000   0.0190000   0.0180000
  -0.2680000   1.7630000   0.1840000   1.6280000  -1.6230000  -4.6560000
   2.9700000  -0.4650000  -4.5820000   1.8240000  -0.4100000  -5.9320000
   0.8160000  -0.8530000  -2.3260000   2.1890000   0.2770000  -2.2590000
  -0.0030000   0.2620000  -4.4060000   1.3280000   1.4110000  -4.3330000
