; mobley_1881249_GMX_OPLS.top created by acpype (v: 2023.10.27) on Thu May 21 00:04:27 2026

; Include forcefield parameters
#include "ffoplsaa.itp"

; Include mobley_1881249_GMX.itp topology
#include "mobley_1881249_GMX.itp"

; Ligand position restraints
#ifdef POSRES_LIG
#include "posre_mobley_1881249.itp"
#endif

[ system ]
 mobley_1881249

[ molecules ]
; Compound        nmols
 mobley_1881249   1     
