%VERSION  VERSION_STAMP = V0001.000  DATE = 05/21/26  00:04:31                  
%FLAG TITLE                                                                     
%FORMAT(20a4)                                                                   
pentan_2_one                                                                    
%FLAG POINTERS                                                                  
%FORMAT(10I8)                                                                   
      16       4      10       5      22       5      32       8       0       0
      74       1       5       5       8       4       7      14       4       0
       0       0       0       0       0       0       0       0      16       0
       0
%FLAG ATOM_NAME                                                                 
%FORMAT(20a4)                                                                   
C1  C2  C3  C4  C5  O1  H1  H2  H3  H4  H5  H6  H7  H8  H9  H10 
%FLAG CHARGE                                                                    
%FORMAT(5E16.8)                                                                 
  1.02791994E+01 -3.73739373E+00 -1.69649613E+00 -3.32374752E+00 -1.39218372E+00
 -9.67786353E+00  1.14860624E+00  1.14860624E+00  1.14860624E+00  6.14091510E-01
  6.14091510E-01  6.14091510E-01  1.16076051E+00  1.16076051E+00  9.87648660E-01
  9.87648660E-01
%FLAG ATOMIC_NUMBER                                                             
%FORMAT(10I8)                                                                   
       6       6       6       6       6       8       1       1       1       1
       1       1       1       1       1       1
%FLAG MASS                                                                      
%FORMAT(5E16.8)                                                                 
  1.20100000E+01  1.20100000E+01  1.20100000E+01  1.20100000E+01  1.20100000E+01
  1.60000000E+01  1.00800000E+00  1.00800000E+00  1.00800000E+00  1.00800000E+00
  1.00800000E+00  1.00800000E+00  1.00800000E+00  1.00800000E+00  1.00800000E+00
  1.00800000E+00
%FLAG ATOM_TYPE_INDEX                                                           
%FORMAT(10I8)                                                                   
       1       2       2       2       2       3       4       4       4       4
       4       4       4       4       4       4
%FLAG NUMBER_EXCLUDED_ATOMS                                                     
%FORMAT(10I8)                                                                   
      12       8       9      12       8       5       2       1       1       4
       3       2       3       2       1       1
%FLAG NONBONDED_PARM_INDEX                                                      
%FORMAT(10I8)                                                                   
       1       2       4       7       2       3       5       8       4       5
       6       9       7       8       9      10
%FLAG RESIDUE_LABEL                                                             
%FORMAT(20a4)                                                                   
MOL 
%FLAG RESIDUE_POINTER                                                           
%FORMAT(10I8)                                                                   
       1
%FLAG BOND_FORCE_CONSTANT                                                       
%FORMAT(5E16.8)                                                                 
  2.34850000E+02  5.90600000E+02  3.45250000E+02  2.28890000E+02
%FLAG BOND_EQUIL_VALUE                                                          
%FORMAT(5E16.8)                                                                 
  1.52700000E+00  1.21900000E+00  1.09620000E+00  1.53540000E+00
%FLAG ANGLE_FORCE_CONSTANT                                                      
%FORMAT(5E16.8)                                                                 
  4.36300000E+01  6.03600000E+01  5.91500000E+01  7.64500000E+01  5.98700000E+01
  4.32700000E+01  3.58000000E+01
%FLAG ANGLE_EQUIL_VALUE                                                         
%FORMAT(5E16.8)                                                                 
  1.90153704E+00  1.94482122E+00  2.03645104E+00  2.14501057E+00  1.96576518E+00
  1.91427794E+00  1.88024401E+00
%FLAG DIHEDRAL_FORCE_CONSTANT                                                   
%FORMAT(5E16.8)                                                                 
  4.60000000E-01  4.00000000E-02  0.00000000E+00  1.55555556E-01  2.62000000E-01
  0.00000000E+00  1.30000000E-01  6.80000000E-01  2.00000000E-01  4.40000000E-01
  4.03000000E+00  3.66000000E+00  1.20000000E-01  1.10000000E+00
%FLAG DIHEDRAL_PERIODICITY                                                      
%FORMAT(5E16.8)                                                                 
  1.00000000E+00  2.00000000E+00  3.00000000E+00  3.00000000E+00  2.00000000E+00
  3.00000000E+00  3.00000000E+00  1.00000000E+00  2.00000000E+00  3.00000000E+00
  1.00000000E+00  2.00000000E+00  3.00000000E+00  2.00000000E+00
%FLAG DIHEDRAL_PHASE                                                            
%FORMAT(5E16.8)                                                                 
  3.14159400E+00  0.00000000E+00  0.00000000E+00  0.00000000E+00  3.14159400E+00
  3.14159400E+00  0.00000000E+00  0.00000000E+00  3.14159400E+00  3.14159400E+00
  0.00000000E+00  3.14159400E+00  0.00000000E+00  3.14159400E+00
%FLAG SCEE_SCALE_FACTOR                                                         
%FORMAT(5E16.8)                                                                 
  1.20000000E+00  1.20000000E+00  1.20000000E+00  1.20000000E+00  1.20000000E+00
  1.20000000E+00  1.20000000E+00  1.20000000E+00  1.20000000E+00  1.20000000E+00
  1.20000000E+00  1.20000000E+00  1.20000000E+00  0.00000000E+00
%FLAG SCNB_SCALE_FACTOR                                                         
%FORMAT(5E16.8)                                                                 
  2.00000000E+00  2.00000000E+00  2.00000000E+00  2.00000000E+00  2.00000000E+00
  2.00000000E+00  2.00000000E+00  2.00000000E+00  2.00000000E+00  2.00000000E+00
  2.00000000E+00  2.00000000E+00  2.00000000E+00  0.00000000E+00
%FLAG SOLTY                                                                     
%FORMAT(5E16.8)                                                                 
  0.00000000E+00  0.00000000E+00  0.00000000E+00  0.00000000E+00
%FLAG LENNARD_JONES_ACOEF                                                       
%FORMAT(5E16.8)                                                                 
  6.96551276E+05  8.43969952E+05  1.02073671E+06  5.17507491E+05  6.30925504E+05
  3.76435470E+05  8.12662403E+04  1.00235148E+05  5.68021765E+04  7.94617769E+03
%FLAG LENNARD_JONES_BCOEF                                                       
%FORMAT(5E16.8)                                                                 
  5.24668528E+02  5.90251928E+02  6.63431737E+02  4.98871431E+02  5.62969425E+02
  4.69350655E+02  1.21392023E+02  1.37787728E+02  1.11953944E+02  2.57122925E+01
%FLAG BONDS_INC_HYDROGEN                                                        
%FORMAT(10I8)                                                                   
       3      18       3       3      21       3       3      24       3       6
      27       3       6      30       3       6      33       3       9      36
       3       9      39       3      12      42       3      12      45       3
%FLAG BONDS_WITHOUT_HYDROGEN                                                    
%FORMAT(10I8)                                                                   
       0       3       1       0       9       1       0      15       2       6
      12       4       9      12       4
%FLAG ANGLES_INC_HYDROGEN                                                       
%FORMAT(10I8)                                                                   
       0       3      18       1       0       3      21       1       0       3
      24       1       0       9      36       1       0       9      39       1
       6      12      42       6       6      12      45       6       9      12
      42       6       9      12      45       6      12       6      27       6
      12       6      30       6      12       6      33       6      12       9
      36       6      12       9      39       6      18       3      21       7
      18       3      24       7      21       3      24       7      27       6
      30       7      27       6      33       7      30       6      33       7
      36       9      39       7      42      12      45       7
%FLAG ANGLES_WITHOUT_HYDROGEN                                                   
%FORMAT(10I8)                                                                   
       0       9      12       2       3       0       9       3       3       0
      15       4       6      12       9       5       9       0      15       4
%FLAG DIHEDRALS_INC_HYDROGEN                                                    
%FORMAT(10I8)                                                                   
       0       9      12      42       4       0       9      12      45       4
       3       0       9      36       6       3       0       9      39       6
       6      12       9      36       7       6      12       9      39       7
       9       0       3      18       6       9       0       3      21       6
       9       0       3      24       6       9      12       6      27       7
       9      12       6      30       7       9      12       6      33       7
      15       0       3      18      11      15       0      -3      18      12
      15       0       3      21      11      15       0      -3      21      12
      15       0       3      24      11      15       0      -3      24      12
      15       0       9      36      11      15       0      -9      36      12
      15       0       9      39      11      15       0      -9      39      12
      27       6      12      42      13      27       6      12      45      13
      30       6      12      42      13      30       6      12      45      13
      33       6      12      42      13      33       6      12      45      13
      36       9      12      42      13      36       9      12      45      13
      39       9      12      42      13      39       9      12      45      13
%FLAG DIHEDRALS_WITHOUT_HYDROGEN                                                
%FORMAT(10I8)                                                                   
       0       9      12       6       1       0       9     -12       6       2
       0       9     -12       6       3       3       0       9      12       5
      15       0       9      12       8      15       0      -9      12       9
      15       0      -9      12      10      15       0      -9      -3      14
%FLAG EXCLUDED_ATOMS_LIST                                                       
%FORMAT(10I8)                                                                   
       2       3       4       5       6       7       8       9      13      14
      15      16       4       5       6       7       8       9      13      14
       4       5      10      11      12      13      14      15      16       5
       6       7       8       9      10      11      12      13      14      15
      16       6      10      11      12      13      14      15      16       7
       8       9      13      14       8       9       9       0      11      12
      15      16      12      15      16      15      16      14      15      16
      15      16      16       0
%FLAG HBOND_ACOEF                                                               
%FORMAT(5E16.8)                                                                 

%FLAG HBOND_BCOEF                                                               
%FORMAT(5E16.8)                                                                 

%FLAG HBCUT                                                                     
%FORMAT(5E16.8)                                                                 

%FLAG AMBER_ATOM_TYPE                                                           
%FORMAT(20a4)                                                                   
c   c3  c3  c3  c3  o   hc  hc  hc  hc  hc  hc  hc  hc  hc  hc  
%FLAG TREE_CHAIN_CLASSIFICATION                                                 
%FORMAT(20a4)                                                                   
BLA BLA BLA BLA BLA BLA BLA BLA BLA BLA BLA BLA BLA BLA BLA BLA 
%FLAG JOIN_ARRAY                                                                
%FORMAT(10I8)                                                                   
       0       0       0       0       0       0       0       0       0       0
       0       0       0       0       0       0
%FLAG IROTAT                                                                    
%FORMAT(10I8)                                                                   
       0       0       0       0       0       0       0       0       0       0
       0       0       0       0       0       0
%FLAG RADIUS_SET                                                                
%FORMAT(1a80)                                                                   
modified Bondi radii (mbondi)                                                   
%FLAG RADII                                                                     
%FORMAT(5E16.8)                                                                 
  1.70000000E+00  1.70000000E+00  1.70000000E+00  1.70000000E+00  1.70000000E+00
  1.50000000E+00  1.30000000E+00  1.30000000E+00  1.30000000E+00  1.30000000E+00
  1.30000000E+00  1.30000000E+00  1.30000000E+00  1.30000000E+00  1.30000000E+00
  1.30000000E+00
%FLAG SCREEN                                                                    
%FORMAT(5E16.8)                                                                 
  7.20000000E-01  7.20000000E-01  7.20000000E-01  7.20000000E-01  7.20000000E-01
  8.50000000E-01  8.50000000E-01  8.50000000E-01  8.50000000E-01  8.50000000E-01
  8.50000000E-01  8.50000000E-01  8.50000000E-01  8.50000000E-01  8.50000000E-01
  8.50000000E-01
%FLAG IPOL                                                                      
%FORMAT(1I8)                                                                    
       0
