mobley_5310099_GMX.gro created by acpype (v: 2023.10.27) on Wed May 20 23:59:21 2026
   18
    1MOL     C1    1   2.496   2.234   2.128
    1MOL     C2    2   2.520   2.328   2.221
    1MOL     C3    3   2.294   2.463   2.649
    1MOL     C4    4   2.413   2.413   2.283
    1MOL     C5    5   2.300   2.481   2.498
    1MOL     C6    6   2.411   2.397   2.436
    1MOL     H1    7   2.578   2.176   2.087
    1MOL     H2    8   2.396   2.214   2.092
    1MOL     H3    9   2.622   2.344   2.254
    1MOL     H4   10   2.275   2.358   2.675
    1MOL     H5   11   2.214   2.524   2.692
    1MOL     H6   12   2.389   2.493   2.696
    1MOL     H7   13   2.315   2.388   2.242
    1MOL     H8   14   2.433   2.518   2.257
    1MOL     H9   15   2.203   2.453   2.455
    1MOL    H10   16   2.316   2.587   2.476
    1MOL    H11   17   2.508   2.427   2.478
    1MOL    H12   18   2.396   2.291   2.461
   4.78716   4.78716   4.78716
