; mobley_6060301_GMX_OPLS.top created by acpype (v: 2023.10.27) on Wed May 20 23:42:53 2026

; Include forcefield parameters
#include "ffoplsaa.itp"

; Include mobley_6060301_GMX.itp topology
#include "mobley_6060301_GMX.itp"

; Ligand position restraints
#ifdef POSRES_LIG
#include "posre_mobley_6060301.itp"
#endif

[ system ]
 mobley_6060301

[ molecules ]
; Compound        nmols
 mobley_6060301   1     
