; mobley_6060301_GMX_OPLS.itp created by acpype (v: 2023.10.27) on Wed May 20 23:42:53 2026

; For OPLS atomtypes manual fine tuning
; AC_at:OPLS_at:OPLScode: Possible_Alternatives (see ffoplsaa.atp and ffoplsaanb.itp)
; c3:CT:opls_135: ['136', '137', '149', '157', '158', '206', '209', '210', '223B', '224B', '245', '246', '274', '283', '284', '285', '292', '292B', '293B', '296', '307', '308', '505']
; n8:x:opls_x: []
; hc:HC:opls_140: []
; h1:HC:opls_140: []
; hn:H:opls_240: ['241', '290', '301', '304', '310', '504', '513']

[ moleculetype ]
;name            nrexcl
 mobley_6060301   3

[ atoms ]
;   nr  type  resi  res  atom  cgnr     charge      mass       ; qtot   bond_type
     1 opls_135     1   MOL    C1    1    -0.093100     12.01100 ; qtot -0.093  CT  
     2 opls_135     1   MOL    C2    2    -0.080400     12.01100 ; qtot -0.173  CT  
     3 opls_135     1   MOL    C3    3    -0.079400     12.01100 ; qtot -0.253  CT  
     4 opls_135     1   MOL    C4    4    -0.075400     12.01100 ; qtot -0.328  CT  
     5 opls_135     1   MOL    C5    5    -0.121400     12.01100 ; qtot -0.450  CT  
     6 opls_135     1   MOL    C6    6     0.149800     12.01100 ; qtot -0.300  CT  
     7 opls_x     1   MOL    N1    7    -0.907799      0.00000 ; qtot -1.208  x   
     8 opls_140     1   MOL    H1    8     0.033033      1.00800 ; qtot -1.175  HC  
     9 opls_140     1   MOL    H2    9     0.033033      1.00800 ; qtot -1.142  HC  
    10 opls_140     1   MOL    H3   10     0.033033      1.00800 ; qtot -1.109  HC  
    11 opls_140     1   MOL    H4   11     0.038700      1.00800 ; qtot -1.070  HC  
    12 opls_140     1   MOL    H5   12     0.038700      1.00800 ; qtot -1.031  HC  
    13 opls_140     1   MOL    H6   13     0.039700      1.00800 ; qtot -0.992  HC  
    14 opls_140     1   MOL    H7   14     0.039700      1.00800 ; qtot -0.952  HC  
    15 opls_140     1   MOL    H8   15     0.041700      1.00800 ; qtot -0.910  HC  
    16 opls_140     1   MOL    H9   16     0.041700      1.00800 ; qtot -0.868  HC  
    17 opls_140     1   MOL   H10   17     0.038700      1.00800 ; qtot -0.830  HC  
    18 opls_140     1   MOL   H11   18     0.038700      1.00800 ; qtot -0.791  HC  
    19 opls_140     1   MOL   H12   19     0.051700      1.00800 ; qtot -0.739  HC  
    20 opls_140     1   MOL   H13   20     0.051700      1.00800 ; qtot -0.688  HC  
    21 opls_240     1   MOL   H14   21     0.343800      1.00800 ; qtot -0.344  H   
    22 opls_240     1   MOL   H15   22     0.343800      1.00800 ; qtot -0.000  H   

[ bonds ]
;   ai     aj funct   r             k
     1      2   1 ;    1.5354e-01    1.9154e+05 ;     C1 - C2         CT - CT    
     1      8   1 ;    1.0962e-01    2.8891e+05 ;     C1 - H1         CT - HC    
     1      9   1 ;    1.0962e-01    2.8891e+05 ;     C1 - H2         CT - HC    
     1     10   1 ;    1.0962e-01    2.8891e+05 ;     C1 - H3         CT - HC    
     2      3   1 ;    1.5354e-01    1.9154e+05 ;     C2 - C3         CT - CT    
     2     11   1 ;    1.0962e-01    2.8891e+05 ;     C2 - H4         CT - HC    
     2     12   1 ;    1.0962e-01    2.8891e+05 ;     C2 - H5         CT - HC    
     3      4   1 ;    1.5354e-01    1.9154e+05 ;     C3 - C4         CT - CT    
     3     13   1 ;    1.0962e-01    2.8891e+05 ;     C3 - H6         CT - HC    
     3     14   1 ;    1.0962e-01    2.8891e+05 ;     C3 - H7         CT - HC    
     4      5   1 ;    1.5354e-01    1.9154e+05 ;     C4 - C5         CT - CT    
     4     15   1 ;    1.0962e-01    2.8891e+05 ;     C4 - H8         CT - HC    
     4     16   1 ;    1.0962e-01    2.8891e+05 ;     C4 - H9         CT - HC    
     5      6   1 ;    1.5354e-01    1.9154e+05 ;     C5 - C6         CT - CT    
     5     17   1 ;    1.0962e-01    2.8891e+05 ;     C5 - H10        CT - HC    
     5     18   1 ;    1.0962e-01    2.8891e+05 ;     C5 - H11        CT - HC    
     6      7   1 ;    1.4651e-01    2.1239e+05 ;     C6 - N1         CT - x     
     6     19   1 ;    1.0969e-01    2.8804e+05 ;     C6 - H12        CT - HC    
     6     20   1 ;    1.0969e-01    2.8804e+05 ;     C6 - H13        CT - HC    
     7     21   1 ;    1.0192e-01    3.8550e+05 ;     N1 - H14         x - H     
     7     22   1 ;    1.0192e-01    3.8550e+05 ;     N1 - H15         x - H     

[ pairs ]
;   ai     aj    funct
     1      4      1 ;     C1 - C4    
     1     13      1 ;     C1 - H6    
     1     14      1 ;     C1 - H7    
     2      5      1 ;     C2 - C5    
     2     15      1 ;     C2 - H8    
     2     16      1 ;     C2 - H9    
     3      6      1 ;     C3 - C6    
     3     17      1 ;     C3 - H10   
     3     18      1 ;     C3 - H11   
     4      7      1 ;     C4 - N1    
     4     11      1 ;     C4 - H4    
     4     12      1 ;     C4 - H5    
     4     19      1 ;     C4 - H12   
     4     20      1 ;     C4 - H13   
     5     13      1 ;     C5 - H6    
     5     14      1 ;     C5 - H7    
     5     21      1 ;     C5 - H14   
     5     22      1 ;     C5 - H15   
     6     15      1 ;     C6 - H8    
     6     16      1 ;     C6 - H9    
     7     17      1 ;     N1 - H10   
     7     18      1 ;     N1 - H11   
     8      3      1 ;     H1 - C3    
     8     11      1 ;     H1 - H4    
     8     12      1 ;     H1 - H5    
     9      3      1 ;     H2 - C3    
     9     11      1 ;     H2 - H4    
     9     12      1 ;     H2 - H5    
    10      3      1 ;     H3 - C3    
    10     11      1 ;     H3 - H4    
    10     12      1 ;     H3 - H5    
    11     13      1 ;     H4 - H6    
    11     14      1 ;     H4 - H7    
    12     13      1 ;     H5 - H6    
    12     14      1 ;     H5 - H7    
    13     15      1 ;     H6 - H8    
    13     16      1 ;     H6 - H9    
    14     15      1 ;     H7 - H8    
    14     16      1 ;     H7 - H9    
    15     17      1 ;     H8 - H10   
    15     18      1 ;     H8 - H11   
    16     17      1 ;     H9 - H10   
    16     18      1 ;     H9 - H11   
    17     19      1 ;    H10 - H12   
    17     20      1 ;    H10 - H13   
    18     19      1 ;    H11 - H12   
    18     20      1 ;    H11 - H13   
    19     21      1 ;    H12 - H14   
    19     22      1 ;    H12 - H15   
    20     21      1 ;    H13 - H14   
    20     22      1 ;    H13 - H15   

[ angles ]
;   ai     aj     ak    funct   theta         cth
     1      2      3      1 ;    1.1263e+02    5.0099e+02 ;     C1 - C2   - C3       CT -   CT - CT  
     1      2     11      1 ;    1.0968e+02    3.6208e+02 ;     C1 - C2   - H4       CT -   CT - HC  
     1      2     12      1 ;    1.0968e+02    3.6208e+02 ;     C1 - C2   - H5       CT -   CT - HC  
     2      1      8      1 ;    1.0968e+02    3.6208e+02 ;     C2 - C1   - H1       CT -   CT - HC  
     2      1      9      1 ;    1.0968e+02    3.6208e+02 ;     C2 - C1   - H2       CT -   CT - HC  
     2      1     10      1 ;    1.0968e+02    3.6208e+02 ;     C2 - C1   - H3       CT -   CT - HC  
     2      3      4      1 ;    1.1263e+02    5.0099e+02 ;     C2 - C3   - C4       CT -   CT - CT  
     2      3     13      1 ;    1.0968e+02    3.6208e+02 ;     C2 - C3   - H6       CT -   CT - HC  
     2      3     14      1 ;    1.0968e+02    3.6208e+02 ;     C2 - C3   - H7       CT -   CT - HC  
     3      2     11      1 ;    1.0968e+02    3.6208e+02 ;     C3 - C2   - H4       CT -   CT - HC  
     3      2     12      1 ;    1.0968e+02    3.6208e+02 ;     C3 - C2   - H5       CT -   CT - HC  
     3      4      5      1 ;    1.1263e+02    5.0099e+02 ;     C3 - C4   - C5       CT -   CT - CT  
     3      4     15      1 ;    1.0968e+02    3.6208e+02 ;     C3 - C4   - H8       CT -   CT - HC  
     3      4     16      1 ;    1.0968e+02    3.6208e+02 ;     C3 - C4   - H9       CT -   CT - HC  
     4      3     13      1 ;    1.0968e+02    3.6208e+02 ;     C4 - C3   - H6       CT -   CT - HC  
     4      3     14      1 ;    1.0968e+02    3.6208e+02 ;     C4 - C3   - H7       CT -   CT - HC  
     4      5      6      1 ;    1.1263e+02    5.0099e+02 ;     C4 - C5   - C6       CT -   CT - CT  
     4      5     17      1 ;    1.0968e+02    3.6208e+02 ;     C4 - C5   - H10      CT -   CT - HC  
     4      5     18      1 ;    1.0968e+02    3.6208e+02 ;     C4 - C5   - H11      CT -   CT - HC  
     5      4     15      1 ;    1.0968e+02    3.6208e+02 ;     C5 - C4   - H8       CT -   CT - HC  
     5      4     16      1 ;    1.0968e+02    3.6208e+02 ;     C5 - C4   - H9       CT -   CT - HC  
     5      6      7      1 ;    1.1091e+02    5.4794e+02 ;     C5 - C6   - N1       CT -   CT - x   
     5      6     19      1 ;    1.0959e+02    3.6217e+02 ;     C5 - C6   - H12      CT -   CT - HC  
     5      6     20      1 ;    1.0959e+02    3.6217e+02 ;     C5 - C6   - H13      CT -   CT - HC  
     6      5     17      1 ;    1.0968e+02    3.6208e+02 ;     C6 - C5   - H10      CT -   CT - HC  
     6      5     18      1 ;    1.0968e+02    3.6208e+02 ;     C6 - C5   - H11      CT -   CT - HC  
     6      7     21      1 ;    1.0961e+02    4.7003e+02 ;     C6 - N1   - H14      CT -    x - H   
     6      7     22      1 ;    1.0961e+02    4.7003e+02 ;     C6 - N1   - H15      CT -    x - H   
     7      6     19      1 ;    1.0812e+02    4.0342e+02 ;     N1 - C6   - H12       x -   CT - HC  
     7      6     20      1 ;    1.0812e+02    4.0342e+02 ;     N1 - C6   - H13       x -   CT - HC  
     8      1      9      1 ;    1.0773e+02    2.9957e+02 ;     H1 - C1   - H2       HC -   CT - HC  
     8      1     10      1 ;    1.0773e+02    2.9957e+02 ;     H1 - C1   - H3       HC -   CT - HC  
     9      1     10      1 ;    1.0773e+02    2.9957e+02 ;     H2 - C1   - H3       HC -   CT - HC  
    11      2     12      1 ;    1.0773e+02    2.9957e+02 ;     H4 - C2   - H5       HC -   CT - HC  
    13      3     14      1 ;    1.0773e+02    2.9957e+02 ;     H6 - C3   - H7       HC -   CT - HC  
    15      4     16      1 ;    1.0773e+02    2.9957e+02 ;     H8 - C4   - H9       HC -   CT - HC  
    17      5     18      1 ;    1.0773e+02    2.9957e+02 ;    H10 - C5   - H11      HC -   CT - HC  
    19      6     20      1 ;    1.0855e+02    2.9824e+02 ;    H12 - C6   - H13      HC -   CT - HC  
    21      7     22      1 ;    1.0638e+02    4.0074e+02 ;    H14 - N1   - H15       H -    x - H   

[ dihedrals ] ; propers
; for gromacs 4.5 or higher, using funct 9
;    i      j      k      l   func   phase     kd      pn
     1      2      3      4      9 ;     0.00   2.17568   3 ;     C1-    C2-    C3-    C4
     1      2      3     13      9 ;     0.00   0.54392   3 ;     C1-    C2-    C3-    H6
     1      2      3     14      9 ;     0.00   0.54392   3 ;     C1-    C2-    C3-    H7
     2      3      4      5      9 ;     0.00   2.17568   3 ;     C2-    C3-    C4-    C5
     2      3      4     15      9 ;     0.00   0.54392   3 ;     C2-    C3-    C4-    H8
     2      3      4     16      9 ;     0.00   0.54392   3 ;     C2-    C3-    C4-    H9
     3      4      5      6      9 ;     0.00   2.17568   3 ;     C3-    C4-    C5-    C6
     3      4      5     17      9 ;     0.00   0.54392   3 ;     C3-    C4-    C5-   H10
     3      4      5     18      9 ;     0.00   0.54392   3 ;     C3-    C4-    C5-   H11
     4      3      2     11      9 ;     0.00   0.54392   3 ;     C4-    C3-    C2-    H4
     4      3      2     12      9 ;     0.00   0.54392   3 ;     C4-    C3-    C2-    H5
     4      5      6      7      9 ;     0.00   2.17568   3 ;     C4-    C5-    C6-    N1
     4      5      6     19      9 ;     0.00   0.65084   3 ;     C4-    C5-    C6-   H12
     4      5      6     20      9 ;     0.00   0.65084   3 ;     C4-    C5-    C6-   H13
     5      4      3     13      9 ;     0.00   0.54392   3 ;     C5-    C4-    C3-    H6
     5      4      3     14      9 ;     0.00   0.54392   3 ;     C5-    C4-    C3-    H7
     5      6      7     21      9 ;   180.00   0.12552   3 ;     C5-    C6-    N1-   H14
     5      6      7     22      9 ;   180.00   0.12552   3 ;     C5-    C6-    N1-   H15
     6      5      4     15      9 ;     0.00   0.54392   3 ;     C6-    C5-    C4-    H8
     6      5      4     16      9 ;     0.00   0.54392   3 ;     C6-    C5-    C4-    H9
     7      6      5     17      9 ;     0.00   0.20920   3 ;     N1-    C6-    C5-   H10
     7      6      5     18      9 ;     0.00   0.20920   3 ;     N1-    C6-    C5-   H11
     8      1      2      3      9 ;     0.00   0.54392   3 ;     H1-    C1-    C2-    C3
     8      1      2     11      9 ;     0.00   0.50208   3 ;     H1-    C1-    C2-    H4
     8      1      2     12      9 ;     0.00   0.50208   3 ;     H1-    C1-    C2-    H5
     9      1      2      3      9 ;     0.00   0.54392   3 ;     H2-    C1-    C2-    C3
     9      1      2     11      9 ;     0.00   0.50208   3 ;     H2-    C1-    C2-    H4
     9      1      2     12      9 ;     0.00   0.50208   3 ;     H2-    C1-    C2-    H5
    10      1      2      3      9 ;     0.00   0.54392   3 ;     H3-    C1-    C2-    C3
    10      1      2     11      9 ;     0.00   0.50208   3 ;     H3-    C1-    C2-    H4
    10      1      2     12      9 ;     0.00   0.50208   3 ;     H3-    C1-    C2-    H5
    11      2      3     13      9 ;     0.00   0.50208   3 ;     H4-    C2-    C3-    H6
    11      2      3     14      9 ;     0.00   0.50208   3 ;     H4-    C2-    C3-    H7
    12      2      3     13      9 ;     0.00   0.50208   3 ;     H5-    C2-    C3-    H6
    12      2      3     14      9 ;     0.00   0.50208   3 ;     H5-    C2-    C3-    H7
    13      3      4     15      9 ;     0.00   0.50208   3 ;     H6-    C3-    C4-    H8
    13      3      4     16      9 ;     0.00   0.50208   3 ;     H6-    C3-    C4-    H9
    14      3      4     15      9 ;     0.00   0.50208   3 ;     H7-    C3-    C4-    H8
    14      3      4     16      9 ;     0.00   0.50208   3 ;     H7-    C3-    C4-    H9
    15      4      5     17      9 ;     0.00   0.50208   3 ;     H8-    C4-    C5-   H10
    15      4      5     18      9 ;     0.00   0.50208   3 ;     H8-    C4-    C5-   H11
    16      4      5     17      9 ;     0.00   0.50208   3 ;     H9-    C4-    C5-   H10
    16      4      5     18      9 ;     0.00   0.50208   3 ;     H9-    C4-    C5-   H11
    17      5      6     19      9 ;     0.00   0.65084   3 ;    H10-    C5-    C6-   H12
    17      5      6     20      9 ;     0.00   0.65084   3 ;    H10-    C5-    C6-   H13
    18      5      6     19      9 ;     0.00   0.65084   3 ;    H11-    C5-    C6-   H12
    18      5      6     20      9 ;     0.00   0.65084   3 ;    H11-    C5-    C6-   H13
    19      6      7     21      9 ;     0.00   1.25520   3 ;    H12-    C6-    N1-   H14
    19      6      7     22      9 ;     0.00   1.25520   3 ;    H12-    C6-    N1-   H15
    20      6      7     21      9 ;     0.00   1.25520   3 ;    H13-    C6-    N1-   H14
    20      6      7     22      9 ;     0.00   1.25520   3 ;    H13-    C6-    N1-   H15
