n_hexylamine
    22
   1.1230000  -0.0650000  -0.2430000   1.6710000   1.3410000  -0.4290000
   0.9810000   2.0630000  -1.5870000   1.5590000   3.4660000  -1.7890000
   0.8550000   4.2620000  -2.8920000   1.4520000   5.6520000  -3.1080000
   0.7360000   6.3470000  -4.1730000   1.6290000  -0.5610000   0.5900000
   0.0510000  -0.0420000  -0.0250000   1.2780000  -0.6680000  -1.1430000
   1.5320000   1.9070000   0.4990000   2.7500000   1.2850000  -0.6160000
  -0.0950000   2.1350000  -1.3860000   1.1020000   1.4710000  -2.5010000
   2.6310000   3.3960000  -2.0130000   1.4690000   4.0280000  -0.8510000
  -0.2030000   4.3630000  -2.6140000   0.8810000   3.6920000  -3.8290000
   1.3810000   6.2410000  -2.1880000   2.5090000   5.5830000  -3.3820000
  -0.2350000   6.0450000  -4.1720000   1.1250000   6.0670000  -5.0710000
