mobley_6060301_GMX.gro created by acpype (v: 2023.10.27) on Wed May 20 23:42:53 2026
 22
    1  MOL   C1    1   0.112  -0.007  -0.024
    1  MOL   C2    2   0.167   0.134  -0.043
    1  MOL   C3    3   0.098   0.206  -0.159
    1  MOL   C4    4   0.156   0.347  -0.179
    1  MOL   C5    5   0.086   0.426  -0.289
    1  MOL   C6    6   0.145   0.565  -0.311
    1  MOL   N1    7   0.074   0.635  -0.417
    1  MOL   H1    8   0.163  -0.056   0.059
    1  MOL   H2    9   0.005  -0.004  -0.003
    1  MOL   H3   10   0.128  -0.067  -0.114
    1  MOL   H4   11   0.153   0.191   0.050
    1  MOL   H5   12   0.275   0.129  -0.062
    1  MOL   H6   13  -0.010   0.213  -0.139
    1  MOL   H7   14   0.110   0.147  -0.250
    1  MOL   H8   15   0.263   0.340  -0.201
    1  MOL   H9   16   0.147   0.403  -0.085
    1  MOL  H10   17  -0.020   0.436  -0.261
    1  MOL  H11   18   0.088   0.369  -0.383
    1  MOL  H12   19   0.138   0.624  -0.219
    1  MOL  H13   20   0.251   0.558  -0.338
    1  MOL  H14   21  -0.024   0.605  -0.417
    1  MOL  H15   22   0.113   0.607  -0.507
    5.97000    14.03000    11.32200
