mobley_6006813_GMX.gro created by acpype (v: 2023.10.27) on Wed May 20 23:53:43 2026
   16
    1MOL     C1    1   2.321   2.093   2.375
    1MOL     C2    2   2.371   2.235   2.393
    1MOL     C3    3   2.303   2.332   2.296
    1MOL     C4    4   2.351   2.474   2.318
    1MOL     N1    5   2.277   2.562   2.226
    1MOL     O1    6   2.171   2.613   2.267
    1MOL     O2    7   2.325   2.581   2.113
    1MOL     H1    8   2.371   2.026   2.445
    1MOL     H2    9   2.213   2.087   2.393
    1MOL     H3   10   2.341   2.057   2.273
    1MOL     H4   11   2.353   2.267   2.496
    1MOL     H5   12   2.480   2.237   2.377
    1MOL     H6   13   2.323   2.301   2.192
    1MOL     H7   14   2.194   2.326   2.309
    1MOL     H8   15   2.331   2.510   2.419
    1MOL     H9   16   2.457   2.487   2.294
   4.64836   4.64836   4.64836
